<event>
12    1  0.4802930E-008  0.1321665E+04  0.7818608E-02  0.9012559E-01
         -1   -1    0    0    0  501 -0.00000000000E+00  0.00000000000E+00  0.32443428195E+03  0.32443428195E+03  0.00000000000E+00 0.  1.
          1   -1    0    0  501    0  0.00000000000E+00 -0.00000000000E+00 -0.13460334198E+04  0.13460334198E+04  0.00000000000E+00 0. -1.
         23    2    1    2    0    0 -0.81761259637E+02 -0.16147665325E+03 -0.69150905461E+03  0.72062541821E+03  0.91414482672E+02 0.  0.
        254    2    1    2    0    0  0.81761259637E+02  0.16147665325E+03 -0.33009008326E+03  0.94984228356E+03  0.87205578230E+03 0.  0.
         23    2    4    4    0    0 -0.31480745608E+03  0.14203996902E+03  0.86214427577E+02  0.36738724855E+03  0.90892110037E+02 0.  0.
         23    2    4    4    0    0  0.39656871572E+03  0.19436684221E+02 -0.41630451084E+03  0.58245503501E+03  0.91103738016E+02 0.  0.
         11    1    3    3    0    0 -0.61135983147E+00 -0.44321426883E+02 -0.68996938427E+02  0.82008171264E+02  0.00000000000E+00 0.  1.
        -11    1    3    3    0    0 -0.81149899806E+02 -0.11715522636E+03 -0.62251211618E+03  0.63861724694E+03  0.00000000000E+00 0. -1.
          1    1    5    5  502    0 -0.26782228509E+03  0.15025485867E+03  0.88637713910E+02  0.31962781993E+03  0.00000000000E+00 0. -1.
          3    1    6    6  503    0  0.33501495802E+03 -0.56531675418E+01 -0.38034116253E+03  0.50687905887E+03  0.00000000000E+00 0. -1.
         -1    1    5    5    0  502 -0.46985170993E+02 -0.82148896500E+01 -0.24232863336E+01  0.47759428617E+02  0.00000000000E+00 0.  1.
         -3    1    6    6    0  503  0.61553757699E+02  0.25089851763E+02 -0.35963348307E+02  0.75575976142E+02  0.00000000000E+00 0.  1.
<mgrwt>
<rscale>  0 0.13216647E+04</rscale>
<asrwt>0</asrwt>
<pdfrwt beam="1">  1        1 0.20708207E+00 0.13216647E+04</pdfrwt>
<pdfrwt beam="2">  1       -1 0.49912966E-01 0.13216647E+04</pdfrwt>
<totfact> 0.33128702E+01</totfact>
</mgrwt>
</event>
<event>
12    1  0.4802930E-008  0.1688535E+04  0.7818608E-02  0.8767931E-01
          1   -1    0    0  501    0  0.00000000000E+00  0.00000000000E+00  0.15942558396E+04  0.15942558396E+04  0.00000000000E+00 0. -1.
         -1   -1    0    0    0  501 -0.00000000000E+00 -0.00000000000E+00 -0.44709727538E+03  0.44709727538E+03  0.00000000000E+00 0.  1.
         23    2    1    2    0    0  0.46346036087E+01  0.59369930166E+03  0.55771927566E+03  0.81998318637E+03  0.93921750107E+02 0.  0.
        254    2    1    2    0    0 -0.46346036087E+01 -0.59369930166E+03  0.58943928855E+03  0.12213699286E+04  0.88983452802E+03 0.  0.
         23    2    4    4    0    0 -0.11817330622E+03 -0.10080372300E+03  0.67648167962E+03  0.70008220135E+03  0.91440171217E+02 0.  0.
         23    2    4    4    0    0  0.11353870261E+03 -0.49289557866E+03 -0.87042391065E+02  0.52128772725E+03  0.91254743926E+02 0.  0.
         11    1    3    3    0    0  0.14363976567E+02  0.58025586599E+03  0.52214854063E+03  0.78073189529E+03  0.00000000000E+00 0. -1.
        -11    1    3    3    0    0 -0.97293729581E+01  0.13443435668E+02  0.35570735034E+02  0.39251291082E+02  0.00000000000E+00 0.  1.
          4    1    5    5  502    0 -0.11210383228E+03 -0.10457810342E+03  0.48911165509E+03  0.51257590664E+03  0.00000000000E+00 0. -1.
          3    1    6    6  503    0  0.38133231521E+02 -0.41729746208E+02 -0.82641698695E+01  0.57129778299E+02  0.00000000000E+00 0. -1.
         -4    1    5    5    0  502 -0.60694739370E+01  0.37743804264E+01  0.18737002453E+03  0.18750629471E+03  0.00000000000E+00 0.  1.
         -3    1    6    6    0  503  0.75405471088E+02 -0.45116583245E+03 -0.78778221196E+02  0.46415794896E+03  0.00000000000E+00 0.  1.
<mgrwt>
<rscale>  0 0.16885348E+04</rscale>
<asrwt>0</asrwt>
<pdfrwt beam="1">  1        1 0.24527013E+00 0.16885348E+04</pdfrwt>
<pdfrwt beam="2">  1       -1 0.68784197E-01 0.16885348E+04</pdfrwt>
<totfact> 0.11471429E+01</totfact>
</mgrwt>
</event>
<event>
12    1  0.4802930E-008  0.2481029E+04  0.7818608E-02  0.8409775E-01
         -2   -1    0    0    0  501 -0.00000000000E+00  0.00000000000E+00  0.13342819043E+04  0.13342819043E+04  0.00000000000E+00 0.  1.
          2   -1    0    0  501    0  0.00000000000E+00 -0.00000000000E+00 -0.11533368125E+04  0.11533368125E+04  0.00000000000E+00 0. -1.
         23    2    1    2    0    0 -0.29250994337E+03  0.10332782529E+04  0.13026904406E+01  0.10776465267E+04  0.89968464055E+02 0.  0.
        254    2    1    2    0    0  0.29250994337E+03 -0.10332782529E+04  0.17964240143E+03  0.14099721901E+04  0.89583713340E+03 0.  0.
         23    2    4    4    0    0  0.11673354408E+03 -0.11133592912E+04  0.30218769145E+03  0.11632561035E+04  0.93014676009E+02 0.  0.
         23    2    4    4    0    0  0.17577639928E+03  0.80081038252E+02 -0.12254529001E+03  0.24671608659E+03  0.92418418333E+02 0.  0.
         11    1    3    3    0    0 -0.25840511230E+03  0.92381854771E+03 -0.26613973998E+02  0.95964692193E+03  0.00000000000E+00 0.  1.
        -11    1    3    3    0    0 -0.34104831066E+02  0.10945970523E+03  0.27916664439E+02  0.11799960476E+03  0.00000000000E+00 0. -1.
          4    1    5    5  502    0 -0.11201295496E+01 -0.86064455972E+02  0.47544300012E+02  0.98330085607E+02  0.00000000000E+00 0. -1.
          1    1    6    6  503    0  0.12828354554E+03  0.18194640277E+02 -0.46182025166E+02  0.13755178094E+03  0.00000000000E+00 0. -1.
         -4    1    5    5    0  502  0.11785367363E+03 -0.10272948352E+04  0.25464339143E+03  0.10649260179E+04  0.00000000000E+00 0.  1.
         -1    1    6    6    0  503  0.47492853745E+02  0.61886397975E+02 -0.76363264848E+02  0.10916430566E+03  0.00000000000E+00 0.  1.
<mgrwt>
<rscale>  0 0.24810292E+04</rscale>
<asrwt>0</asrwt>
<pdfrwt beam="1">  1        2 0.17743643E+00 0.24810292E+04</pdfrwt>
<pdfrwt beam="2">  1       -2 0.20527414E+00 0.24810292E+04</pdfrwt>
<totfact> 0.22175160E+00</totfact>
</mgrwt>
</event>
<event>
12    1  0.4802930E-008  0.1289332E+04  0.7818608E-02  0.9038068E-01
          2   -1    0    0  501    0  0.00000000000E+00  0.00000000000E+00  0.39308362429E+03  0.39308362429E+03  0.00000000000E+00 0. -1.
         -2   -1    0    0    0  501 -0.00000000000E+00 -0.00000000000E+00 -0.10572667523E+04  0.10572667523E+04  0.00000000000E+00 0.  1.
         23    2    1    2    0    0 -0.15895762504E+03  0.20649040034E+03  0.38820684546E+02  0.27885134165E+03  0.91352138452E+02 0.  0.
        254    2    1    2    0    0  0.15895762504E+03 -0.20649040034E+03 -0.70300381257E+03  0.11714990350E+04  0.90016099473E+03 0.  0.
         23    2    4    4    0    0 -0.30703727390E+03 -0.36099978317E+02 -0.20365728822E+02  0.32294568676E+03  0.91126602517E+02 0.  0.
         23    2    4    4    0    0  0.46599489894E+03 -0.17039042203E+03 -0.68263808375E+03  0.84855334820E+03  0.88678574651E+02 0.  0.
         13    1    3    3    0    0 -0.23075259614E+02 -0.13375521273E+01  0.18698198157E+02  0.29730107068E+02  0.00000000000E+00 0.  1.
        -13    1    3    3    0    0 -0.13588236543E+03  0.20782795247E+03  0.20122486389E+02  0.24912123458E+03  0.00000000000E+00 0. -1.
          1    1    6    6  502    0  0.75974510459E+01 -0.20090954003E+02 -0.25179293577E+02  0.33096291638E+02  0.00000000000E+00 0. -1.
          1    1    5    5  503    0 -0.16956351147E+02  0.20046531481E+02  0.36410651025E+01  0.26507331509E+02  0.00000000000E+00 0. -1.
         -1    1    5    5    0  503 -0.29008092276E+03 -0.56146509798E+02 -0.24006793924E+02  0.29643835525E+03  0.00000000000E+00 0.  1.
         -1    1    6    6    0  502  0.45839744790E+03 -0.15029946802E+03 -0.65745879017E+03  0.81545705657E+03  0.00000000000E+00 0.  1.
<mgrwt>
<rscale>  0 0.12893320E+04</rscale>
<asrwt>0</asrwt>
<pdfrwt beam="1">  1        2 0.60474405E-01 0.12893320E+04</pdfrwt>
<pdfrwt beam="2">  1       -2 0.16265642E+00 0.12893320E+04</pdfrwt>
<totfact> 0.19133902E+01</totfact>
</mgrwt>
</event>
<event>
12    1  0.4802930E-008  0.1325170E+04  0.7818608E-02  0.9009840E-01
         -2   -1    0    0    0  501 -0.00000000000E+00  0.00000000000E+00  0.34875491345E+03  0.34875491345E+03  0.00000000000E+00 0.  1.
          2   -1    0    0  501    0  0.00000000000E+00 -0.00000000000E+00 -0.12588171258E+04  0.12588171258E+04  0.00000000000E+00 0. -1.
         23    2    1    2    0    0  0.14511199742E+03 -0.18450150282E+03  0.57236504550E+02  0.25796901181E+03  0.90408502146E+02 0.  0.
        254    2    1    2    0    0 -0.14511199742E+03  0.18450150282E+03 -0.96729871689E+03  0.13496030274E+04  0.91140727867E+03 0.  0.
         23    2    4    4    0    0  0.22452794904E+03  0.36313378130E+03 -0.77198781463E+03  0.88683313061E+03  0.90713133440E+02 0.  0.
         23    2    4    4    0    0 -0.36963994646E+03 -0.17863227849E+03 -0.19531090226E+03  0.46276989682E+03  0.86408610252E+02 0.  0.
         13    1    3    3    0    0  0.13474498284E+03 -0.18135229023E+03  0.74232126362E+02  0.23781352392E+03  0.00000000000E+00 0.  1.
        -13    1    3    3    0    0  0.10367014583E+02 -0.31492125865E+01 -0.16995621812E+02  0.20155487890E+02  0.00000000000E+00 0. -1.
          3    1    6    6  502    0 -0.33823904770E+03 -0.15819396989E+03 -0.20225953082E+03  0.42466445967E+03  0.00000000000E+00 0. -1.
          3    1    5    5  503    0  0.12469512992E+03  0.22444816567E+03 -0.37339523552E+03  0.45315544397E+03  0.00000000000E+00 0. -1.
         -3    1    5    5    0  503  0.99832819124E+02  0.13868561564E+03 -0.39859257911E+03  0.43367768663E+03  0.00000000000E+00 0.  1.
         -3    1    6    6    0  502 -0.31400898768E+02 -0.20438308598E+02  0.69486285683E+01  0.38105437155E+02  0.00000000000E+00 0.  1.
<mgrwt>
<rscale>  0 0.13251697E+04</rscale>
<asrwt>0</asrwt>
<pdfrwt beam="1">  1        2 0.19366417E+00 0.13251697E+04</pdfrwt>
<pdfrwt beam="2">  1       -2 0.53654602E-01 0.13251697E+04</pdfrwt>
<totfact> 0.55962693E+01</totfact>
</mgrwt>
</event>
<event>
12    1  0.4802930E-008  0.1190589E+04  0.7818608E-02  0.9121134E-01
         -2   -1    0    0    0  501 -0.00000000000E+00  0.00000000000E+00  0.28119596289E+03  0.28119596289E+03  0.00000000000E+00 0.  1.
          2   -1    0    0  501    0  0.00000000000E+00 -0.00000000000E+00 -0.12602449862E+04  0.12602449862E+04  0.00000000000E+00 0. -1.
         23    2    1    2    0    0 -0.88122872029E+02 -0.10447880712E+03 -0.47399437344E+03  0.50185094739E+03  0.92207622420E+02 0.  0.
        254    2    1    2    0    0  0.88122872029E+02  0.10447880712E+03 -0.50505464986E+03  0.10395900017E+04  0.89832383390E+03 0.  0.
         23    2    4    4    0    0 -0.83455295258E+02  0.42293550902E+03 -0.50054335697E+03  0.66681503057E+03  0.90881250504E+02 0.  0.
         23    2    4    4    0    0  0.17157816729E+03 -0.31845670190E+03 -0.45112928966E+01  0.37277497112E+03  0.89928242802E+02 0.  0.
         11    1    3    3    0    0 -0.65749947342E+02 -0.25906026826E+02 -0.31800956654E+03  0.32576719020E+03  0.00000000000E+00 0. -1.
        -11    1    3    3    0    0 -0.22372924687E+02 -0.78572780290E+02 -0.15598480690E+03  0.17608375718E+03  0.00000000000E+00 0.  1.
          2    1    5    5  502    0 -0.26726863896E+02  0.20955431730E+02 -0.29628468137E+02  0.45069962246E+02  0.00000000000E+00 0. -1.
          3    1    6    6  503    0 -0.42472213169E+01  0.22201271652E+01 -0.51819373534E+01  0.70583516687E+01  0.00000000000E+00 0. -1.
         -2    1    5    5    0  502 -0.56728431361E+02  0.40198007729E+03 -0.47091488883E+03  0.62174506832E+03  0.00000000000E+00 0.  1.
         -3    1    6    6    0  503  0.17582538860E+03 -0.32067682907E+03  0.67064445680E+00  0.36571661945E+03  0.00000000000E+00 0.  1.
<mgrwt>
<rscale>  0 0.11905894E+04</rscale>
<asrwt>0</asrwt>
<pdfrwt beam="1">  1        2 0.19388384E+00 0.11905894E+04</pdfrwt>
<pdfrwt beam="2">  1       -2 0.43260917E-01 0.11905894E+04</pdfrwt>
<totfact> 0.87208351E+01</totfact>
</mgrwt>
</event>
<event>
12    1  0.4802930E-008  0.2309463E+04  0.7818608E-02  0.8474199E-01
         -2   -1    0    0    0  501 -0.00000000000E+00  0.00000000000E+00  0.91872038424E+03  0.91872038424E+03  0.00000000000E+00 0.  1.
          2   -1    0    0  501    0  0.00000000000E+00 -0.00000000000E+00 -0.14513718673E+04  0.14513718673E+04  0.00000000000E+00 0. -1.
         23    2    1    2    0    0  0.24160422726E+03  0.42341997418E+03 -0.10961534307E+04  0.12031185625E+04  0.91021175968E+02 0.  0.
        254    2    1    2    0    0 -0.24160422726E+03 -0.42341997418E+03  0.56350194762E+03  0.11669736891E+04  0.89812920507E+03 0.  0.
         23    2    4    4    0    0  0.18567307086E+03 -0.50930044476E+03  0.17375697952E+03  0.57597751677E+03  0.87733571799E+02 0.  0.
         23    2    4    4    0    0 -0.42727729812E+03  0.85880470576E+02  0.38974496810E+03  0.59099617236E+03  0.86220594231E+02 0.  0.
         13    1    3    3    0    0  0.96807442461E+02  0.19303965983E+03 -0.38097057705E+03  0.43792073684E+03  0.00000000000E+00 0.  1.
        -13    1    3    3    0    0  0.14479678480E+03  0.23038031435E+03 -0.71518285367E+03  0.76519782561E+03  0.00000000000E+00 0. -1.
          2    1    5    5  502    0  0.26712778594E+02 -0.24258771776E+02 -0.20019765639E+01  0.36139569151E+02  0.00000000000E+00 0. -1.
          3    1    6    6  503    0 -0.13063639322E+03  0.54990944497E+02  0.88564068418E+02  0.16713307699E+03  0.00000000000E+00 0. -1.
         -2    1    5    5    0  502  0.15896029227E+03 -0.48504167298E+03  0.17575895608E+03  0.53983794762E+03  0.00000000000E+00 0.  1.
         -3    1    6    6    0  503 -0.29664090491E+03  0.30889526079E+02  0.30118089968E+03  0.42386309537E+03  0.00000000000E+00 0.  1.
<mgrwt>
<rscale>  0 0.23094631E+04</rscale>
<asrwt>0</asrwt>
<pdfrwt beam="1">  1        2 0.22328798E+00 0.23094631E+04</pdfrwt>
<pdfrwt beam="2">  1       -2 0.14134160E+00 0.23094631E+04</pdfrwt>
<totfact> 0.42936390E+00</totfact>
</mgrwt>
</event>
<event>
12    1  0.4802930E-008  0.2027872E+04  0.7818608E-02  0.8593700E-01
         -1   -1    0    0    0  501 -0.00000000000E+00  0.00000000000E+00  0.88359294307E+03  0.88359294307E+03  0.00000000000E+00 0.  1.
          1   -1    0    0  501    0  0.00000000000E+00 -0.00000000000E+00 -0.11635061924E+04  0.11635061924E+04  0.00000000000E+00 0. -1.
         23    2    1    2    0    0  0.19560970316E+03  0.72637628884E+03 -0.42273144012E+03  0.86781668851E+03  0.92294449695E+02 0.  0.
        254    2    1    2    0    0 -0.19560970316E+03 -0.72637628884E+03  0.14281819075E+03  0.11792824470E+04  0.89689708731E+03 0.  0.
         23    2    4    4    0    0  0.13440822902E+03 -0.59905346893E+03 -0.22540733395E+03  0.66011787642E+03  0.89534987106E+02 0.  0.
         23    2    4    4    0    0 -0.33001793217E+03 -0.12732281991E+03  0.36822552470E+03  0.51916457057E+03  0.93908882796E+02 0.  0.
         13    1    3    3    0    0  0.38433808532E+02  0.49218453795E+02 -0.28395716520E+02  0.68599785342E+02  0.00000000000E+00 0.  1.
        -13    1    3    3    0    0  0.15717589462E+03  0.67715783504E+03 -0.39433572360E+03  0.79921690317E+03  0.00000000000E+00 0. -1.
          4    1    5    5  502    0  0.14105165392E+03 -0.59045793569E+03 -0.22876900254E+03  0.64874602074E+03  0.00000000000E+00 0. -1.
          4    1    6    6  503    0 -0.25867984353E+03 -0.11697196068E+03  0.23861467438E+03  0.37085666216E+03  0.00000000000E+00 0. -1.
         -4    1    5    5    0  502 -0.66434249067E+01 -0.85955332325E+01  0.33616685918E+01  0.11371855687E+02  0.00000000000E+00 0.  1.
         -4    1    6    6    0  503 -0.71338088645E+02 -0.10350859225E+02  0.12961085032E+03  0.14830790841E+03  0.00000000000E+00 0.  1.
<mgrwt>
<rscale>  0 0.20278717E+04</rscale>
<asrwt>0</asrwt>
<pdfrwt beam="1">  1        1 0.17900095E+00 0.20278717E+04</pdfrwt>
<pdfrwt beam="2">  1       -1 0.13593738E+00 0.20278717E+04</pdfrwt>
<totfact> 0.47607762E+00</totfact>
</mgrwt>
</event>
<event>
12    1  0.4802930E-008  0.2226747E+04  0.7818608E-02  0.8507377E-01
          2   -1    0    0  501    0  0.00000000000E+00  0.00000000000E+00  0.17963768441E+04  0.17963768441E+04  0.00000000000E+00 0. -1.
         -2   -1    0    0    0  501 -0.00000000000E+00 -0.00000000000E+00 -0.69005570393E+03  0.69005570393E+03  0.00000000000E+00 0.  1.
         23    2    1    2    0    0  0.18849561760E+03 -0.90818640315E+03  0.36770729128E+03  0.10018267343E+04  0.90083366071E+02 0.  0.
        254    2    1    2    0    0 -0.18849561760E+03  0.90818640315E+03  0.73861384884E+03  0.14846058137E+04  0.89340408746E+03 0.  0.
         23    2    4    4    0    0 -0.28501428508E+03  0.10465361601E+04  0.56627444256E+03  0.12268109213E+04  0.89034909839E+02 0.  0.
         23    2    4    4    0    0  0.96518667484E+02 -0.13834975695E+03  0.17233940628E+03  0.25779489237E+03  0.91108875267E+02 0.  0.
         13    1    3    3    0    0  0.38381240737E+02 -0.23451222712E+03  0.13587277475E+03  0.27373438810E+03  0.00000000000E+00 0. -1.
        -13    1    3    3    0    0  0.15011437686E+03 -0.67367417603E+03  0.23183451653E+03  0.72809234623E+03  0.00000000000E+00 0.  1.
          2    1    5    5  502    0 -0.20278636913E+03  0.87320965573E+03  0.46433368806E+03  0.10095658415E+04  0.00000000000E+00 0. -1.
          1    1    6    6  503    0  0.81791933114E+02 -0.53056032591E+02  0.54845763775E+02  0.11186116717E+03  0.00000000000E+00 0. -1.
         -2    1    5    5    0  502 -0.82227915952E+02  0.17332650437E+03  0.10194075450E+03  0.21724507982E+03  0.00000000000E+00 0.  1.
         -1    1    6    6    0  503  0.14726734370E+02 -0.85293724359E+02  0.11749364251E+03  0.14593372520E+03  0.00000000000E+00 0.  1.
<mgrwt>
<rscale>  0 0.22267466E+04</rscale>
<asrwt>0</asrwt>
<pdfrwt beam="1">  1        2 0.27636567E+00 0.22267466E+04</pdfrwt>
<pdfrwt beam="2">  1       -2 0.10616242E+00 0.22267466E+04</pdfrwt>
<totfact> 0.56600822E+00</totfact>
</mgrwt>
</event>
<event>
12    1  0.4802930E-008  0.1472799E+04  0.7818608E-02  0.8902745E-01
         -2   -1    0    0    0  501 -0.00000000000E+00  0.00000000000E+00  0.31356344101E+03  0.31356344101E+03  0.00000000000E+00 0.  1.
          2   -1    0    0  501    0  0.00000000000E+00 -0.00000000000E+00 -0.17294245761E+04  0.17294245761E+04  0.00000000000E+00 0. -1.
         23    2    1    2    0    0 -0.22865718218E+03 -0.45460098718E+02 -0.98683845326E+03  0.10180340773E+04  0.90512552431E+02 0.  0.
        254    2    1    2    0    0  0.22865718218E+03  0.45460098718E+02 -0.42902268178E+03  0.10249539398E+04  0.90117666950E+03 0.  0.
         23    2    4    4    0    0 -0.76322754200E+02  0.41164829426E+03 -0.29887856870E+03  0.52261803993E+03  0.92313248583E+02 0.  0.
         23    2    4    4    0    0  0.30497993638E+03 -0.36618819554E+03 -0.13014411308E+03  0.50233589985E+03  0.91089571073E+02 0.  0.
         13    1    3    3    0    0 -0.53019698159E+02 -0.44212369886E+02 -0.19238135633E+03  0.20439277949E+03  0.00000000000E+00 0.  1.
        -13    1    3    3    0    0 -0.17563748402E+03 -0.12477288316E+01 -0.79445709693E+03  0.81364129780E+03  0.00000000000E+00 0. -1.
          4    1    5    5  502    0 -0.52889680868E+02  0.39345202056E+03 -0.26366436001E+03  0.47657182624E+03  0.00000000000E+00 0. -1.
          3    1    6    6  503    0  0.29752296829E+03 -0.34040498218E+03 -0.10203823260E+03  0.46347305150E+03  0.00000000000E+00 0. -1.
         -4    1    5    5    0  502 -0.23433073331E+02  0.18196273699E+02 -0.35214208688E+02  0.46046213697E+02  0.00000000000E+00 0.  1.
         -3    1    6    6    0  503  0.74569680925E+01 -0.25783213360E+02 -0.28105880481E+02  0.38862848350E+02  0.00000000000E+00 0.  1.
<mgrwt>
<rscale>  0 0.14727991E+04</rscale>
<asrwt>0</asrwt>
<pdfrwt beam="1">  1        2 0.26606532E+00 0.14727991E+04</pdfrwt>
<pdfrwt beam="2">  1       -2 0.48240529E-01 0.14727991E+04</pdfrwt>
<totfact> 0.37215151E+01</totfact>
</mgrwt>
</event>
<event>
12    1  0.4802930E-008  0.2045105E+04  0.7818608E-02  0.8585818E-01
          2   -1    0    0  501    0  0.00000000000E+00  0.00000000000E+00  0.12781299060E+04  0.12781299060E+04  0.00000000000E+00 0. -1.
         -2   -1    0    0    0  501 -0.00000000000E+00 -0.00000000000E+00 -0.81808121504E+03  0.81808121504E+03  0.00000000000E+00 0.  1.
         23    2    1    2    0    0 -0.51808684539E+03 -0.31443641985E+03  0.74121623008E+03  0.96164331968E+03  0.89845050326E+02 0.  0.
        254    2    1    2    0    0  0.51808684539E+03  0.31443641985E+03 -0.28116753907E+03  0.11345678014E+04  0.91700854384E+03 0.  0.
         23    2    4    4    0    0  0.20666941599E+03  0.59686269138E+03 -0.36305575582E+02  0.63943844859E+03  0.92769148154E+02 0.  0.
         23    2    4    4    0    0  0.31141742940E+03 -0.28242627154E+03 -0.24486196349E+03  0.49512935282E+03  0.91925408184E+02 0.  0.
         13    1    3    3    0    0 -0.44086093262E+03 -0.23877795228E+03  0.64478163208E+03  0.81677207681E+03  0.00000000000E+00 0. -1.
        -13    1    3    3    0    0 -0.77225912773E+02 -0.75658467567E+02  0.96434598003E+02  0.14487124287E+03  0.00000000000E+00 0.  1.
          1    1    5    5  502    0  0.10189199051E+02  0.14843631893E+03 -0.11458015203E+02  0.14922615946E+03  0.00000000000E+00 0. -1.
          3    1    6    6  503    0  0.24838906265E+03 -0.19415613066E+03 -0.14244744632E+03  0.34595520589E+03  0.00000000000E+00 0. -1.
         -1    1    5    5    0  502  0.19648021694E+03  0.44842637246E+03 -0.24847560378E+02  0.49021228914E+03  0.00000000000E+00 0.  1.
         -3    1    6    6    0  503  0.63028366748E+02 -0.88270140874E+02 -0.10241451717E+03  0.14917414693E+03  0.00000000000E+00 0.  1.
<mgrwt>
<rscale>  0 0.20451054E+04</rscale>
<asrwt>0</asrwt>
<pdfrwt beam="1">  1        2 0.19663537E+00 0.20451054E+04</pdfrwt>
<pdfrwt beam="2">  1       -2 0.12585865E+00 0.20451054E+04</pdfrwt>
<totfact> 0.74291662E+00</totfact>
</mgrwt>
</event>
<event>
12    1  0.4802930E-008  0.1667164E+04  0.7818608E-02  0.8780317E-01
          1   -1    0    0  501    0  0.00000000000E+00  0.00000000000E+00  0.13198811072E+04  0.13198811072E+04  0.00000000000E+00 0. -1.
         -1   -1    0    0    0  501 -0.00000000000E+00 -0.00000000000E+00 -0.52645582662E+03  0.52645582662E+03  0.00000000000E+00 0.  1.
         23    2    1    2    0    0  0.40641065044E+03 -0.30195162425E+03 -0.40681988483E+02  0.51598123327E+03  0.90759069615E+02 0.  0.
        254    2    1    2    0    0 -0.40641065044E+03  0.30195162425E+03  0.83410726910E+03  0.13303557006E+04  0.90430467960E+03 0.  0.
         23    2    4    4    0    0 -0.27856846864E+03  0.56888916290E+03  0.28737916740E+03  0.70175059176E+03  0.92907673507E+02 0.  0.
         23    2    4    4    0    0 -0.12784218180E+03 -0.26693753864E+03  0.54672810170E+03  0.62860510883E+03  0.92916589897E+02 0.  0.
         11    1    3    3    0    0  0.37524481832E+03 -0.28375264847E+03 -0.13230617126E+02  0.47063710905E+03  0.00000000000E+00 0. -1.
        -11    1    3    3    0    0  0.31165832117E+02 -0.18198975785E+02 -0.27451371357E+02  0.45344124211E+02  0.00000000000E+00 0.  1.
          1    1    6    6  502    0 -0.97229832665E+02 -0.20498556082E+03  0.48705283539E+03  0.53730176341E+03  0.00000000000E+00 0. -1.
          1    1    5    5  503    0 -0.22704315744E+03  0.42003489672E+03  0.25364018758E+03  0.54065816793E+03  0.00000000000E+00 0. -1.
         -1    1    5    5    0  503 -0.51525311204E+02  0.14885426618E+03  0.33738979825E+02  0.16109242383E+03  0.00000000000E+00 0.  1.
         -1    1    6    6    0  502 -0.30612349132E+02 -0.61951977826E+02  0.59675266311E+02  0.91303345422E+02  0.00000000000E+00 0.  1.
<mgrwt>
<rscale>  0 0.16671642E+04</rscale>
<asrwt>0</asrwt>
<pdfrwt beam="1">  1        1 0.20305863E+00 0.16671642E+04</pdfrwt>
<pdfrwt beam="2">  1       -1 0.80993205E-01 0.16671642E+04</pdfrwt>
<totfact> 0.12692483E+01</totfact>
</mgrwt>
</event>
<event>
12    1  0.4802930E-008  0.2001470E+04  0.7818608E-02  0.8605934E-01
          2   -1    0    0  501    0  0.00000000000E+00  0.00000000000E+00  0.96697345268E+03  0.96697345268E+03  0.00000000000E+00 0. -1.
         -2   -1    0    0    0  501 -0.00000000000E+00 -0.00000000000E+00 -0.10356757024E+04  0.10356757024E+04  0.00000000000E+00 0.  1.
         23    2    1    2    0    0 -0.22052917712E+03 -0.36844947733E+02  0.73752818056E+03  0.77556366139E+03  0.86951179546E+02 0.  0.
        254    2    1    2    0    0  0.22052917712E+03  0.36844947733E+02 -0.80623043026E+03  0.12270854937E+04  0.89763056653E+03 0.  0.
         23    2    4    4    0    0  0.47652546098E+03  0.13511640903E+03 -0.17556669840E+03  0.53339852831E+03  0.91418627591E+02 0.  0.
         23    2    4    4    0    0 -0.25599628385E+03 -0.98271461298E+02 -0.63066373186E+03  0.69368696537E+03  0.90958703690E+02 0.  0.
         11    1    3    3    0    0 -0.16361608423E+03 -0.39184076825E+02  0.64772987409E+03  0.66922313519E+03  0.00000000000E+00 0. -1.
        -11    1    3    3    0    0 -0.56913092894E+02  0.23391290913E+01  0.89798306470E+02  0.10634052620E+03  0.00000000000E+00 0.  1.
          4    1    6    6  502    0 -0.60910012427E+02  0.13467038405E+02 -0.10799231930E+03  0.12471460125E+03  0.00000000000E+00 0. -1.
          4    1    5    5  503    0  0.17822333775E+03  0.61761657903E+01 -0.52466490646E+02  0.18588823466E+03  0.00000000000E+00 0. -1.
         -4    1    5    5    0  503  0.29830212323E+03  0.12894024324E+03 -0.12310020775E+03  0.34751029366E+03  0.00000000000E+00 0.  1.
         -4    1    6    6    0  502 -0.19508627143E+03 -0.11173849970E+03 -0.52267141256E+03  0.56897236411E+03  0.00000000000E+00 0.  1.
<mgrwt>
<rscale>  0 0.20014704E+04</rscale>
<asrwt>0</asrwt>
<pdfrwt beam="1">  1        2 0.14876515E+00 0.20014704E+04</pdfrwt>
<pdfrwt beam="2">  1       -2 0.15933472E+00 0.20014704E+04</pdfrwt>
<totfact> 0.62614606E+00</totfact>
</mgrwt>
</event>
<event>
12    1  0.4802930E-008  0.1450586E+04  0.7818608E-02  0.8917994E-01
         -1   -1    0    0    0  501 -0.00000000000E+00  0.00000000000E+00  0.25409182861E+03  0.25409182861E+03  0.00000000000E+00 0.  1.
          1   -1    0    0  501    0  0.00000000000E+00 -0.00000000000E+00 -0.20703155782E+04  0.20703155782E+04  0.00000000000E+00 0. -1.
         23    2    1    2    0    0 -0.36115322819E+03  0.16135032731E+03 -0.90350134054E+03  0.99056240233E+03  0.91834733085E+02 0.  0.
        254    2    1    2    0    0  0.36115322819E+03 -0.16135032731E+03 -0.91272240904E+03  0.13338450045E+04  0.88860267703E+03 0.  0.
         23    2    4    4    0    0 -0.22500797195E+03  0.15745477679E+03 -0.19100579403E+03  0.34677724716E+03  0.91381899831E+02 0.  0.
         23    2    4    4    0    0  0.58616120014E+03 -0.31880510410E+03 -0.72171661500E+03  0.98706775731E+03  0.90588289510E+02 0.  0.
         13    1    3    3    0    0 -0.20283540023E+03  0.42704621848E+02 -0.49614865886E+03  0.53770751901E+03  0.00000000000E+00 0. -1.
        -13    1    3    3    0    0 -0.15831782796E+03  0.11864570546E+03 -0.40735268168E+03  0.45285488332E+03  0.00000000000E+00 0.  1.
          2    1    5    5  502    0 -0.85078613213E+01  0.11300700582E+02 -0.45760341073E+02  0.47896746790E+02  0.00000000000E+00 0. -1.
          3    1    6    6  503    0  0.31674878723E+03 -0.21502700739E+03 -0.44708695498E+03  0.58860271273E+03  0.00000000000E+00 0. -1.
         -2    1    5    5    0  502 -0.21650011063E+03  0.14615407621E+03 -0.14524545296E+03  0.29888050037E+03  0.00000000000E+00 0.  1.
         -3    1    6    6    0  503  0.26941241291E+03 -0.10377809671E+03 -0.27462966002E+03  0.39846504458E+03  0.00000000000E+00 0.  1.
<mgrwt>
<rscale>  0 0.14505865E+04</rscale>
<asrwt>0</asrwt>
<pdfrwt beam="1">  1        1 0.31851007E+00 0.14505865E+04</pdfrwt>
<pdfrwt beam="2">  1       -1 0.39091052E-01 0.14505865E+04</pdfrwt>
<totfact> 0.16486972E+01</totfact>
</mgrwt>
</event>
<event>
12    1  0.4802930E-008  0.2061324E+04  0.7818608E-02  0.8578475E-01
          1   -1    0    0  501    0  0.00000000000E+00  0.00000000000E+00  0.23515788716E+04  0.23515788716E+04  0.00000000000E+00 0. -1.
         -1   -1    0    0    0  501 -0.00000000000E+00 -0.00000000000E+00 -0.45172370358E+03  0.45172370358E+03  0.00000000000E+00 0.  1.
         23    2    1    2    0    0  0.16705072096E+03 -0.71563710614E+03  0.12976653651E+04  0.14940193261E+04  0.90088489707E+02 0.  0.
        254    2    1    2    0    0 -0.16705072096E+03  0.71563710614E+03  0.60218980292E+03  0.13092832491E+04  0.90085939883E+03 0.  0.
         23    2    4    4    0    0 -0.46671665853E+03  0.53097483425E+03  0.61639608195E+03  0.94227956010E+03  0.90487156958E+02 0.  0.
         23    2    4    4    0    0  0.29966593757E+03  0.18466227190E+03 -0.14206279025E+02  0.36700368896E+03  0.10290801984E+03 0.  0.
         13    1    3    3    0    0  0.11615650921E+02 -0.22328914110E+03  0.41732122724E+03  0.47344479149E+03  0.00000000000E+00 0.  1.
        -13    1    3    3    0    0  0.15543507004E+03 -0.49234796504E+03  0.88034413786E+03  0.10205745346E+04  0.00000000000E+00 0. -1.
          4    1    5    5  502    0 -0.46059886341E+02  0.19715100509E+02  0.53072541550E+02  0.72985566959E+02  0.00000000000E+00 0. -1.
          1    1    6    6  503    0  0.48986199859E+02  0.82671245810E+02 -0.34667660683E+01  0.96157168881E+02  0.00000000000E+00 0. -1.
         -4    1    5    5    0  502 -0.42065677219E+03  0.51125973374E+03  0.56332354040E+03  0.86929399314E+03  0.00000000000E+00 0.  1.
         -1    1    6    6    0  503  0.25067973771E+03  0.10199102609E+03 -0.10739512957E+02  0.27084652008E+03  0.00000000000E+00 0.  1.
<mgrwt>
<rscale>  0 0.20613238E+04</rscale>
<asrwt>0</asrwt>
<pdfrwt beam="1">  1        1 0.36178136E+00 0.20613238E+04</pdfrwt>
<pdfrwt beam="2">  1       -1 0.69495956E-01 0.20613238E+04</pdfrwt>
<totfact> 0.33152878E+00</totfact>
</mgrwt>
</event>
<event>
12    1  0.4802930E-008  0.1481919E+04  0.7818608E-02  0.8896566E-01
         -2   -1    0    0    0  501 -0.00000000000E+00  0.00000000000E+00  0.81721548419E+03  0.81721548419E+03  0.00000000000E+00 0.  1.
          2   -1    0    0  501    0  0.00000000000E+00 -0.00000000000E+00 -0.67181952247E+03  0.67181952247E+03  0.00000000000E+00 0. -1.
         23    2    1    2    0    0 -0.37493935152E+03  0.24332534567E+03 -0.61940138120E+02  0.46388699472E+03  0.10755380976E+03 0.  0.
        254    2    1    2    0    0  0.37493935152E+03 -0.24332534567E+03  0.20733609983E+03  0.10251480119E+04  0.89897355185E+03 0.  0.
         23    2    4    4    0    0  0.15670647898E+03  0.32547802741E+03 -0.77302994872E+01  0.37297105873E+03  0.92492087434E+02 0.  0.
         23    2    4    4    0    0  0.21823287254E+03 -0.56880337309E+03  0.21506639932E+03  0.65217695321E+03  0.88985157668E+02 0.  0.
         11    1    3    3    0    0 -0.58432994794E+02  0.11933483727E+02  0.20837162361E+02  0.63174443010E+02  0.00000000000E+00 0.  1.
        -11    1    3    3    0    0 -0.31650635673E+03  0.23139186195E+03 -0.82777300480E+02  0.40071255171E+03  0.00000000000E+00 0. -1.
          2    1    5    5  502    0  0.13213469351E+02 -0.61174420082E+00  0.95063613586E+01  0.16289288184E+02  0.00000000000E+00 0. -1.
          3    1    6    6  503    0  0.85469278155E+02 -0.13288971536E+03  0.78762031190E+02  0.17654498439E+03  0.00000000000E+00 0. -1.
         -2    1    5    5    0  502  0.14349300963E+03  0.32608977161E+03 -0.17236660846E+02  0.35668177055E+03  0.00000000000E+00 0.  1.
         -3    1    6    6    0  503  0.13276359439E+03 -0.43591365773E+03  0.13630436813E+03  0.47563196882E+03  0.00000000000E+00 0.  1.
<mgrwt>
<rscale>  0 0.14819195E+04</rscale>
<asrwt>0</asrwt>
<pdfrwt beam="1">  1        2 0.10335685E+00 0.14819195E+04</pdfrwt>
<pdfrwt beam="2">  1       -2 0.12572546E+00 0.14819195E+04</pdfrwt>
<totfact> 0.19723370E+01</totfact>
</mgrwt>
</event>
<event>
12    1  0.4802930E-008  0.1952415E+04  0.7818608E-02  0.8629197E-01
         -2   -1    0    0    0  501 -0.00000000000E+00  0.00000000000E+00  0.39712283497E+04  0.39712283497E+04  0.00000000000E+00 0.  1.
          2   -1    0    0  501    0  0.00000000000E+00 -0.00000000000E+00 -0.23997128793E+03  0.23997128793E+03  0.00000000000E+00 0. -1.
         23    2    1    2    0    0  0.21327972446E+03  0.67023872793E+03  0.21272817554E+04  0.22424202998E+04  0.91722086007E+02 0.  0.
        254    2    1    2    0    0 -0.21327972446E+03 -0.67023872793E+03  0.16039753065E+04  0.19687793378E+04  0.89924807708E+03 0.  0.
         23    2    4    4    0    0 -0.37121095398E+03  0.12165902191E+02  0.86585795462E+03  0.94664399676E+03  0.92082992392E+02 0.  0.
         23    2    4    4    0    0  0.15793122952E+03 -0.68240463012E+03  0.73811735184E+03  0.10221353411E+04  0.96566443209E+02 0.  0.
         13    1    3    3    0    0  0.44862544096E+02  0.17500290915E+03  0.43149102059E+03  0.46778538554E+03  0.00000000000E+00 0. -1.
        -13    1    3    3    0    0  0.16841718037E+03  0.49523581878E+03  0.16957907348E+04  0.17746349143E+04  0.00000000000E+00 0.  1.
          4    1    5    5  502    0 -0.24572007126E+03  0.51663144602E+02  0.56984900808E+03  0.62271608775E+03  0.00000000000E+00 0.  1.
          3    1    6    6  503    0  0.15967412920E+02 -0.24876210487E+03  0.29309021637E+03  0.38475890896E+03  0.00000000000E+00 0. -1.
         -4    1    5    5    0  502 -0.12549088272E+03 -0.39497242410E+02  0.29600894653E+03  0.32392790901E+03  0.00000000000E+00 0. -1.
         -3    1    6    6    0  503  0.14196381660E+03 -0.43364252525E+03  0.44502713547E+03  0.63737643213E+03  0.00000000000E+00 0.  1.
<mgrwt>
<rscale>  0 0.19524147E+04</rscale>
<asrwt>0</asrwt>
<pdfrwt beam="1">  1        2 0.36918663E-01 0.19524147E+04</pdfrwt>
<pdfrwt beam="2">  1       -2 0.61095816E+00 0.19524147E+04</pdfrwt>
<totfact> 0.59251638E-02</totfact>
</mgrwt>
</event>
<event>
12    1  0.4802930E-008  0.1646808E+04  0.7818608E-02  0.8792297E-01
         -1   -1    0    0    0  501 -0.00000000000E+00  0.00000000000E+00  0.38003357352E+03  0.38003357352E+03  0.00000000000E+00 0.  1.
          1   -1    0    0  501    0  0.00000000000E+00 -0.00000000000E+00 -0.17840370136E+04  0.17840370136E+04  0.00000000000E+00 0. -1.
         23    2    1    2    0    0  0.34367755042E+03  0.45131492904E+03 -0.54946671676E+03  0.79490214270E+03  0.90312345818E+02 0.  0.
        254    2    1    2    0    0 -0.34367755042E+03 -0.45131492904E+03 -0.85453672330E+03  0.13691684444E+04  0.90696736096E+03 0.  0.
         23    2    4    4    0    0 -0.34683204494E+03  0.15955051696E+03 -0.12202143508E+03  0.41102618395E+03  0.91128801222E+02 0.  0.
         23    2    4    4    0    0  0.31544945198E+01 -0.61086544600E+03 -0.73251528822E+03  0.95814226045E+03  0.91057123980E+02 0.  0.
         13    1    3    3    0    0  0.86426777449E+02  0.14776421713E+03 -0.11763748428E+03  0.20770755748E+03  0.00000000000E+00 0.  1.
        -13    1    3    3    0    0  0.25725077298E+03  0.30355071190E+03 -0.43182923248E+03  0.58719458522E+03  0.00000000000E+00 0. -1.
          2    1    5    5  502    0 -0.68378363252E+02  0.17847324880E+02  0.10874023710E+02  0.71500852848E+02  0.00000000000E+00 0. -1.
          1    1    6    6  503    0  0.41686046089E+01 -0.14653645033E+02 -0.48105981339E+02  0.50460796840E+02  0.00000000000E+00 0. -1.
         -2    1    5    5    0  502 -0.27845368169E+03  0.14170319208E+03 -0.13289545879E+03  0.33952533110E+03  0.00000000000E+00 0.  1.
         -1    1    6    6    0  503 -0.10141100892E+01 -0.59621180097E+03 -0.68440930688E+03  0.90768146361E+03  0.00000000000E+00 0.  1.
<mgrwt>
<rscale>  0 0.16468078E+04</rscale>
<asrwt>0</asrwt>
<pdfrwt beam="1">  1        1 0.27446723E+00 0.16468078E+04</pdfrwt>
<pdfrwt beam="2">  1       -1 0.58466703E-01 0.16468078E+04</pdfrwt>
<totfact> 0.11836744E+01</totfact>
</mgrwt>
</event>
<event>
12    1  0.4802930E-008  0.1786952E+04  0.7818608E-02  0.8713269E-01
         -1   -1    0    0    0  501 -0.00000000000E+00  0.00000000000E+00  0.26120598748E+03  0.26120598748E+03  0.00000000000E+00 0.  1.
          1   -1    0    0  501    0  0.00000000000E+00 -0.00000000000E+00 -0.30562045409E+04  0.30562045409E+04  0.00000000000E+00 0. -1.
         23    2    1    2    0    0  0.18061999157E+03  0.28146549236E+03  0.17207727043E+02  0.34673786011E+03  0.89914587344E+02 0.  0.
        254    2    1    2    0    0 -0.18061999157E+03 -0.28146549236E+03 -0.28122062805E+04  0.29706726683E+04  0.89696462212E+03 0.  0.
         23    2    4    4    0    0  0.12109289881E+03 -0.53240625313E+03 -0.15877594087E+04  0.16815654773E+04  0.92534349531E+02 0.  0.
         23    2    4    4    0    0 -0.30171289038E+03  0.25094076077E+03 -0.12244468717E+04  0.12891071910E+04  0.92332413124E+02 0.  0.
         13    1    3    3    0    0  0.49103224516E+02  0.13535115630E+03 -0.23755484649E+02  0.14592938436E+03  0.00000000000E+00 0.  1.
        -13    1    3    3    0    0  0.13151676706E+03  0.14611433606E+03  0.40963211692E+02  0.20080847575E+03  0.00000000000E+00 0. -1.
          2    1    5    5  502    0  0.10549068607E+03 -0.52408172608E+03 -0.15551452983E+04  0.16444655178E+04  0.00000000000E+00 0. -1.
          3    1    6    6  503    0 -0.23647626914E+03  0.14503266853E+03 -0.79506008970E+03  0.84206653362E+03  0.00000000000E+00 0. -1.
         -2    1    5    5    0  502  0.15602212738E+02 -0.83245270515E+01 -0.32614110437E+02  0.37099959468E+02  0.00000000000E+00 0.  1.
         -3    1    6    6    0  503 -0.65236621239E+02  0.10590809225E+03 -0.42938678202E+03  0.44704065736E+03  0.00000000000E+00 0.  1.
<mgrwt>
<rscale>  0 0.17869515E+04</rscale>
<asrwt>0</asrwt>
<pdfrwt beam="1">  1        1 0.47018532E+00 0.17869515E+04</pdfrwt>
<pdfrwt beam="2">  1       -1 0.40185536E-01 0.17869515E+04</pdfrwt>
<totfact> 0.31127172E+00</totfact>
</mgrwt>
</event>
<event>
12    1  0.4802930E-008  0.1992284E+04  0.7818608E-02  0.8610236E-01
         -1   -1    0    0    0  501 -0.00000000000E+00  0.00000000000E+00  0.52938110303E+03  0.52938110303E+03  0.00000000000E+00 0. -1.
          1   -1    0    0  501    0  0.00000000000E+00 -0.00000000000E+00 -0.18744517548E+04  0.18744517548E+04  0.00000000000E+00 0.  1.
         23    2    1    2    0    0 -0.17645261805E+02 -0.60543382314E+03  0.71358999232E+02  0.61667264706E+03  0.91277474721E+02 0.  0.
        254    2    1    2    0    0  0.17645261805E+02  0.60543382314E+03 -0.14164296510E+04  0.17871602108E+04  0.90598410209E+03 0.  0.
         23    2    4    4    0    0  0.20364808507E+03 -0.17262708288E+03 -0.41731464537E+03  0.50403707123E+03  0.92893506991E+02 0.  0.
         23    2    4    4    0    0 -0.18600282326E+03  0.77806090602E+03 -0.99911500564E+03  0.12831231395E+04  0.90544867231E+02 0.  0.
         13    1    3    3    0    0  0.12263050275E+02 -0.24090468397E+03  0.69073339264E+02  0.25091148909E+03  0.00000000000E+00 0.  1.
        -13    1    3    3    0    0 -0.29908312081E+02 -0.36452913918E+03  0.22856599680E+01  0.36576115797E+03  0.00000000000E+00 0. -1.
          1    1    5    5  502    0  0.17678265787E+03 -0.17971825094E+03 -0.35110164113E+03  0.43223040181E+03  0.00000000000E+00 0. -1.
          1    1    6    6  503    0 -0.18210143951E+03  0.68897596641E+03 -0.84819259719E+03  0.11078264749E+04  0.00000000000E+00 0. -1.
         -1    1    5    5    0  502  0.26865427197E+02  0.70911680623E+01 -0.66213004238E+02  0.71806669420E+02  0.00000000000E+00 0.  1.
         -1    1    6    6    0  503 -0.39013837527E+01  0.89084939617E+02 -0.15092240845E+03  0.17529666464E+03  0.00000000000E+00 0.  1.
<mgrwt>
<rscale>  0 0.19922845E+04</rscale>
<asrwt>0</asrwt>
<pdfrwt beam="1">  1        1 0.28837719E+00 0.19922845E+04</pdfrwt>
<pdfrwt beam="2">  1       -1 0.81443248E-01 0.19922845E+04</pdfrwt>
<totfact> 0.50530446E+00</totfact>
</mgrwt>
</event>
<event>
12    1  0.4802930E-008  0.1391569E+04  0.7818608E-02  0.8959944E-01
         -2   -1    0    0    0  501 -0.00000000000E+00  0.00000000000E+00  0.34520601163E+03  0.34520601163E+03  0.00000000000E+00 0.  1.
          2   -1    0    0  501    0  0.00000000000E+00 -0.00000000000E+00 -0.14023975456E+04  0.14023975456E+04  0.00000000000E+00 0. -1.
         23    2    1    2    0    0  0.21716681528E+03  0.14724974299E+03  0.65769288142E+02  0.28181417928E+03  0.79055170060E+02 0.  0.
        254    2    1    2    0    0 -0.21716681528E+03 -0.14724974299E+03 -0.11229608222E+04  0.14657893780E+04  0.90479477234E+03 0.  0.
         23    2    4    4    0    0  0.10553402191E+03  0.16766079665E+03  0.33921343285E+02  0.22033445528E+03  0.90272045171E+02 0.  0.
         23    2    4    4    0    0 -0.32270083718E+03 -0.31491053964E+03 -0.11568821654E+04  0.12454549227E+04  0.97350611111E+02 0.  0.
         11    1    3    3    0    0  0.88495892597E+02  0.10410603529E+03  0.17397492338E+02  0.13773983567E+03  0.00000000000E+00 0.  1.
        -11    1    3    3    0    0  0.12867092268E+03  0.43143707693E+02  0.48371795804E+02  0.14407434361E+03  0.00000000000E+00 0. -1.
          1    1    6    6  502    0 -0.20418898536E+03 -0.25963104759E+03 -0.81171573960E+03  0.87634688596E+03  0.00000000000E+00 0. -1.
          1    1    5    5  503    0  0.73011113825E+02  0.15226967278E+03  0.56247014048E+02  0.17798989460E+03  0.00000000000E+00 0. -1.
         -1    1    5    5    0  503  0.32522908080E+02  0.15391123873E+02 -0.22325670763E+02  0.42344560679E+02  0.00000000000E+00 0.  1.
         -1    1    6    6    0  502 -0.11851185182E+03 -0.55279492048E+02 -0.34516642584E+03  0.36910803675E+03  0.00000000000E+00 0.  1.
<mgrwt>
<rscale>  0 0.13915690E+04</rscale>
<asrwt>0</asrwt>
<pdfrwt beam="1">  1        2 0.21575347E+00 0.13915690E+04</pdfrwt>
<pdfrwt beam="2">  1       -2 0.53108617E-01 0.13915690E+04</pdfrwt>
<totfact> 0.46955501E+01</totfact>
</mgrwt>
</event>
<event>
12    1  0.4802930E-008  0.4502732E+04  0.7818608E-02  0.7910159E-01
          2   -1    0    0  501    0  0.00000000000E+00  0.00000000000E+00  0.22209138546E+04  0.22209138546E+04  0.00000000000E+00 0. -1.
         -2   -1    0    0    0  501 -0.00000000000E+00 -0.00000000000E+00 -0.22822360420E+04  0.22822360420E+04  0.00000000000E+00 0.  1.
         23    2    1    2    0    0  0.95700550601E+02  0.92053393998E+03  0.19235462497E+04  0.21366537016E+04  0.93367744893E+02 0.  0.
        254    2    1    2    0    0 -0.95700550601E+02 -0.92053393998E+03 -0.19848684370E+04  0.23664961950E+04  0.89669403852E+03 0.  0.
         23    2    4    4    0    0 -0.68340412919E+02 -0.10111649184E+04 -0.19904332293E+04  0.22354003143E+04  0.89806572536E+02 0.  0.
         23    2    4    4    0    0 -0.27360137682E+02  0.90630978407E+02  0.55647922887E+01  0.13109588075E+03  0.90513046883E+02 0.  0.
         11    1    3    3    0    0 -0.37908716322E+01  0.40544696385E+03  0.85566429381E+03  0.94687010456E+03  0.00000000000E+00 0.  1.
        -11    1    3    3    0    0  0.99491422233E+02  0.51508697613E+03  0.10678819559E+04  0.11897835970E+04  0.00000000000E+00 0. -1.
          1    1    5    5  502    0 -0.28420287500E+02 -0.87623912687E+03 -0.17215601913E+04  0.19319348365E+04  0.00000000000E+00 0. -1.
          3    1    6    6  503    0 -0.49646354866E+02  0.91608749264E+02  0.17718385450E+02  0.10569231134E+03  0.00000000000E+00 0. -1.
         -1    1    5    5    0  502 -0.39920125419E+02 -0.13492579152E+03 -0.26887303800E+03  0.30346547776E+03  0.00000000000E+00 0.  1.
         -3    1    6    6    0  503  0.22286217184E+02 -0.97777085658E+00 -0.12153593161E+02  0.25403569414E+02  0.00000000000E+00 0.  1.
<mgrwt>
<rscale>  0 0.45027323E+04</rscale>
<asrwt>0</asrwt>
<pdfrwt beam="1">  1        2 0.34167905E+00 0.45027323E+04</pdfrwt>
<pdfrwt beam="2">  1       -2 0.35111324E+00 0.45027323E+04</pdfrwt>
<totfact> 0.58280067E-02</totfact>
</mgrwt>
</event>
<event>
12    1  0.4802930E-008  0.1738147E+04  0.7818608E-02  0.8739902E-01
         -1   -1    0    0    0  501 -0.00000000000E+00  0.00000000000E+00  0.49491209822E+03  0.49491209822E+03  0.00000000000E+00 0.  1.
          1   -1    0    0  501    0  0.00000000000E+00 -0.00000000000E+00 -0.15261076813E+04  0.15261076813E+04  0.00000000000E+00 0. -1.
         23    2    1    2    0    0  0.42325129101E+03  0.24656611766E+03 -0.84730622301E+03  0.98284468877E+03  0.90107385705E+02 0.  0.
        254    2    1    2    0    0 -0.42325129101E+03 -0.24656611766E+03 -0.18388936011E+03  0.10381750908E+04  0.89669153931E+03 0.  0.
         23    2    4    4    0    0 -0.14582523740E+03  0.24462919358E+03  0.18894651208E+03  0.35547235012E+03  0.97731085404E+02 0.  0.
         23    2    4    4    0    0 -0.27742605362E+03 -0.49119531125E+03 -0.37283587219E+03  0.68270274068E+03  0.94012741307E+02 0.  0.
         13    1    3    3    0    0  0.90224199767E+02  0.14392881092E+02 -0.17686829817E+03  0.19907274085E+03  0.00000000000E+00 0.  1.
        -13    1    3    3    0    0  0.33302709125E+03  0.23217323657E+03 -0.67043792484E+03  0.78377194792E+03  0.00000000000E+00 0. -1.
          4    1    5    5  502    0  0.70391328128E+00  0.80266375087E+02  0.60861591799E+02  0.10073390601E+03  0.00000000000E+00 0. -1.
          3    1    6    6  503    0 -0.12648427424E+03 -0.22123950325E+03 -0.11307664642E+03  0.27880372557E+03  0.00000000000E+00 0. -1.
         -4    1    5    5    0  502 -0.14652915068E+03  0.16436281850E+03  0.12808492028E+03  0.25473844411E+03  0.00000000000E+00 0.  1.
         -3    1    6    6    0  503 -0.15094177938E+03 -0.26995580800E+03 -0.25975922578E+03  0.40389901511E+03  0.00000000000E+00 0.  1.
<mgrwt>
<rscale>  0 0.17381475E+04</rscale>
<asrwt>0</asrwt>
<pdfrwt beam="1">  1        1 0.23478579E+00 0.17381475E+04</pdfrwt>
<pdfrwt beam="2">  1       -1 0.76140324E-01 0.17381475E+04</pdfrwt>
<totfact> 0.10309322E+01</totfact>
</mgrwt>
</event>
<event>
12    1  0.4802930E-008  0.1698861E+04  0.7818608E-02  0.8762014E-01
          2   -1    0    0  501    0  0.00000000000E+00  0.00000000000E+00  0.17918756524E+04  0.17918756524E+04  0.00000000000E+00 0. -1.
         -2   -1    0    0    0  501 -0.00000000000E+00 -0.00000000000E+00 -0.40266854785E+03  0.40266854785E+03  0.00000000000E+00 0.  1.
         23    2    1    2    0    0 -0.23606121304E+03 -0.83787392372E+02  0.12199317682E+04  0.12476018400E+04  0.74374784406E+02 0.  0.
        254    2    1    2    0    0  0.23606121304E+03  0.83787392372E+02  0.16927533634E+03  0.94694236030E+03  0.89738535246E+03 0.  0.
         23    2    4    4    0    0  0.39832896552E+03 -0.29826584257E+03  0.95734262375E+02  0.51510580948E+03  0.92414654411E+02 0.  0.
         23    2    4    4    0    0 -0.16226775248E+03  0.38205323494E+03  0.73541073969E+02  0.43183655082E+03  0.93696420619E+02 0.  0.
         11    1    3    3    0    0 -0.22010646234E+03 -0.53573468118E+02  0.10294393221E+04  0.10540693948E+04  0.00000000000E+00 0. -1.
        -11    1    3    3    0    0 -0.15954750699E+02 -0.30213924254E+02  0.19049244612E+03  0.19353244512E+03  0.00000000000E+00 0.  1.
          2    1    5    5  502    0  0.85732026921E+02 -0.40426294904E+02 -0.12705709180E+02  0.95633157458E+02  0.00000000000E+00 0. -1.
          2    1    6    6  503    0 -0.28865076570E+02  0.11597669311E+03  0.60376952980E+02  0.13389982241E+03  0.00000000000E+00 0. -1.
         -2    1    5    5    0  502  0.31259693860E+03 -0.25783954767E+03  0.10843997155E+03  0.41947265202E+03  0.00000000000E+00 0.  1.
         -2    1    6    6    0  503 -0.13340267591E+03  0.26607654183E+03  0.13164120990E+02  0.29793672841E+03  0.00000000000E+00 0.  1.
<mgrwt>
<rscale>  0 0.16988608E+04</rscale>
<asrwt>0</asrwt>
<pdfrwt beam="1">  1        2 0.27567317E+00 0.16988608E+04</pdfrwt>
<pdfrwt beam="2">  1       -2 0.61949008E-01 0.16988608E+04</pdfrwt>
<totfact> 0.20076748E+01</totfact>
</mgrwt>
</event>
<event>
12    1  0.4802930E-008  0.1629047E+04  0.7818608E-02  0.8802899E-01
          1   -1    0    0  501    0  0.00000000000E+00  0.00000000000E+00  0.71471547353E+03  0.71471547353E+03  0.00000000000E+00 0. -1.
         -1   -1    0    0    0  501 -0.00000000000E+00 -0.00000000000E+00 -0.92826946794E+03  0.92826946794E+03  0.00000000000E+00 0.  1.
         23    2    1    2    0    0  0.12227708617E+03  0.66200408299E+02 -0.61964198293E+03  0.64156911044E+03  0.91217085037E+02 0.  0.
        254    2    1    2    0    0 -0.12227708617E+03 -0.66200408299E+02  0.40608798852E+03  0.10014158310E+04  0.90476075973E+03 0.  0.
         23    2    4    4    0    0 -0.23859291489E+03  0.31454110536E+03 -0.26879840823E+02  0.40628666793E+03  0.92106702803E+02 0.  0.
         23    2    4    4    0    0  0.11631582871E+03 -0.38074151366E+03  0.43296782934E+03  0.59512916309E+03  0.90686863892E+02 0.  0.
         11    1    3    3    0    0  0.11856638730E+03  0.76591982740E+02 -0.61219471132E+03  0.62825686195E+03  0.00000000000E+00 0.  1.
        -11    1    3    3    0    0  0.37106988749E+01 -0.10391574440E+02 -0.74472716052E+01  0.13312248490E+02  0.00000000000E+00 0. -1.
          2    1    5    5  502    0 -0.12918872350E+03  0.19773286567E+03 -0.58081944144E+02  0.24323142207E+03  0.00000000000E+00 0. -1.
          1    1    6    6  503    0  0.52604582631E+02 -0.18729102662E+03  0.27752094819E+03  0.33891451349E+03  0.00000000000E+00 0. -1.
         -2    1    5    5    0  502 -0.10940419138E+03  0.11680823970E+03  0.31202103321E+02  0.16305524587E+03  0.00000000000E+00 0.  1.
         -1    1    6    6    0  503  0.63711246083E+02 -0.19345048704E+03  0.15544688115E+03  0.25621464961E+03  0.00000000000E+00 0.  1.
<mgrwt>
<rscale>  0 0.16290470E+04</rscale>
<asrwt>0</asrwt>
<pdfrwt beam="1">  1        1 0.10995623E+00 0.16290470E+04</pdfrwt>
<pdfrwt beam="2">  1       -1 0.14281069E+00 0.16290470E+04</pdfrwt>
<totfact> 0.10050866E+01</totfact>
</mgrwt>
</event>
<event>
12    1  0.4802930E-008  0.1600482E+04  0.7818608E-02  0.8820252E-01
          1   -1    0    0  501    0  0.00000000000E+00  0.00000000000E+00  0.13646225006E+04  0.13646225006E+04  0.00000000000E+00 0. -1.
         -1   -1    0    0    0  501 -0.00000000000E+00 -0.00000000000E+00 -0.46927668080E+03  0.46927668080E+03  0.00000000000E+00 0.  1.
         23    2    1    2    0    0 -0.33728513090E+03  0.43586640887E+02  0.79072738365E+03  0.86484845858E+03  0.83976224441E+02 0.  0.
        254    2    1    2    0    0  0.33728513090E+03 -0.43586640887E+02  0.10461843611E+03  0.96905072278E+03  0.90136187592E+03 0.  0.
         23    2    4    4    0    0 -0.38798230167E+02 -0.36104403774E+03 -0.15254823864E+03  0.40433472436E+03  0.91419387194E+02 0.  0.
         23    2    4    4    0    0  0.37608336106E+03  0.31745739686E+03  0.25716667475E+03  0.56471599842E+03  0.10272082060E+03 0.  0.
         13    1    3    3    0    0 -0.38911837563E+02 -0.93662727552E+01  0.16245030676E+03  0.16730798049E+03  0.00000000000E+00 0.  1.
        -13    1    3    3    0    0 -0.29837329333E+03  0.52952913642E+02  0.62827707689E+03  0.69754047809E+03  0.00000000000E+00 0. -1.
          2    1    5    5  502    0 -0.50390802064E+02 -0.14130702174E+03 -0.31863383435E+02  0.15336943154E+03  0.00000000000E+00 0. -1.
          3    1    6    6  503    0  0.99865981854E+02  0.12975135133E+03  0.47857767348E+02  0.17058427067E+03  0.00000000000E+00 0. -1.
         -2    1    5    5    0  502  0.11592571897E+02 -0.21973701600E+03 -0.12068485520E+03  0.25096529282E+03  0.00000000000E+00 0.  1.
         -3    1    6    6    0  503  0.27621737921E+03  0.18770604552E+03  0.20930890740E+03  0.39413172775E+03  0.00000000000E+00 0.  1.
<mgrwt>
<rscale>  0 0.16004818E+04</rscale>
<asrwt>0</asrwt>
<pdfrwt beam="1">  1        1 0.20994192E+00 0.16004818E+04</pdfrwt>
<pdfrwt beam="2">  1       -1 0.72196413E-01 0.16004818E+04</pdfrwt>
<totfact> 0.15112657E+01</totfact>
</mgrwt>
</event>
<event>
12    1  0.4802930E-008  0.1155309E+04  0.7818608E-02  0.9152900E-01
         -1   -1    0    0    0  501 -0.00000000000E+00  0.00000000000E+00  0.26296784462E+04  0.26296784462E+04  0.00000000000E+00 0.  1.
          1   -1    0    0  501    0  0.00000000000E+00 -0.00000000000E+00 -0.12689182637E+03  0.12689182637E+03  0.00000000000E+00 0. -1.
         23    2    1    2    0    0  0.11942329954E+03 -0.18565082540E+03  0.63764020663E+03  0.68084759702E+03  0.90775898811E+02 0.  0.
        254    2    1    2    0    0 -0.11942329954E+03  0.18565082540E+03  0.18651464132E+04  0.20757226755E+04  0.88381294948E+03 0.  0.
         23    2    4    4    0    0  0.83452740265E+02  0.30466235041E+03  0.18531434154E+03  0.37723907814E+03  0.90467725087E+02 0.  0.
         23    2    4    4    0    0 -0.20287603981E+03 -0.11901152501E+03  0.16798320717E+04  0.16984835974E+04  0.87683014656E+02 0.  0.
         11    1    3    3    0    0  0.64041790327E+02 -0.16232719343E+03  0.41399466361E+03  0.44926946272E+03  0.00000000000E+00 0.  1.
        -11    1    3    3    0    0  0.55381509218E+02 -0.23323631974E+02  0.22364554302E+03  0.23157813430E+03  0.00000000000E+00 0. -1.
          4    1    5    5  502    0  0.69183813354E+02  0.30615072013E+03  0.18069407169E+03  0.36216710372E+03  0.00000000000E+00 0. -1.
          3    1    6    6  503    0 -0.13257125068E+03 -0.11960942320E+03  0.10987424618E+04  0.11131561202E+04  0.00000000000E+00 0. -1.
         -4    1    5    5    0  502  0.14268926911E+02 -0.14883697244E+01  0.46202698421E+01  0.15071974424E+02  0.00000000000E+00 0.  1.
         -3    1    6    6    0  503 -0.70304789130E+02  0.59789819486E+00  0.58108960985E+03  0.58532747717E+03  0.00000000000E+00 0.  1.
<mgrwt>
<rscale>  0 0.11553090E+04</rscale>
<asrwt>0</asrwt>
<pdfrwt beam="1">  1        1 0.19521822E-01 0.11553090E+04</pdfrwt>
<pdfrwt beam="2">  1       -1 0.40456587E+00 0.11553090E+04</pdfrwt>
<totfact> 0.18225359E+00</totfact>
</mgrwt>
</event>
<event>
12    1  0.4802930E-008  0.2568013E+04  0.7818608E-02  0.8379148E-01
         -2   -1    0    0    0  501 -0.00000000000E+00  0.00000000000E+00  0.11595434438E+04  0.11595434438E+04  0.00000000000E+00 0.  1.
          2   -1    0    0  501    0  0.00000000000E+00 -0.00000000000E+00 -0.14218286448E+04  0.14218286448E+04  0.00000000000E+00 0. -1.
         23    2    1    2    0    0  0.54362666502E+03 -0.52921904550E+03  0.71341871802E+03  0.10455482483E+04  0.92747632413E+02 0.  0.
        254    2    1    2    0    0 -0.54362666502E+03  0.52921904550E+03 -0.97570391902E+03  0.15358238403E+04  0.91167646765E+03 0.  0.
         23    2    4    4    0    0 -0.29078124112E+03  0.35220544564E+03  0.43330994920E+02  0.46779268763E+03  0.91378429353E+02 0.  0.
         23    2    4    4    0    0 -0.25284542391E+03  0.17701359986E+03 -0.10190349139E+04  0.10680311526E+04  0.83628728517E+02 0.  0.
         13    1    3    3    0    0  0.62984702419E+02 -0.51054229343E+02  0.41768137795E+02  0.91204081089E+02  0.00000000000E+00 0. -1.
        -13    1    3    3    0    0  0.48064196260E+03 -0.47816481616E+03  0.67165058022E+03  0.95434416724E+03  0.00000000000E+00 0.  1.
          2    1    5    5  502    0 -0.20105073368E+03  0.30157642648E+03  0.26713613643E+02  0.36343273886E+03  0.00000000000E+00 0. -1.
          3    1    6    6  503    0 -0.10052892552E+03  0.10577758932E+03 -0.37460961880E+03  0.40202901607E+03  0.00000000000E+00 0.  1.
         -2    1    5    5    0  502 -0.89730507435E+02  0.50629019162E+02  0.16617381277E+02  0.10435994877E+03  0.00000000000E+00 0.  1.
         -3    1    6    6    0  503 -0.15231649838E+03  0.71236010534E+02 -0.64442529515E+03  0.66600213656E+03  0.00000000000E+00 0. -1.
<mgrwt>
<rscale>  0 0.25680125E+04</rscale>
<asrwt>0</asrwt>
<pdfrwt beam="1">  1        2 0.21874287E+00 0.25680125E+04</pdfrwt>
<pdfrwt beam="2">  1       -2 0.17839130E+00 0.25680125E+04</pdfrwt>
<totfact> 0.23202954E+00</totfact>
</mgrwt>
</event>
<event>
12    1  0.4802930E-008  0.1213798E+04  0.7818608E-02  0.9100864E-01
         -2   -1    0    0    0  501 -0.00000000000E+00  0.00000000000E+00  0.18621264120E+03  0.18621264120E+03  0.00000000000E+00 0.  1.
          2   -1    0    0  501    0  0.00000000000E+00 -0.00000000000E+00 -0.19779871637E+04  0.19779871637E+04  0.00000000000E+00 0. -1.
         23    2    1    2    0    0  0.24108077843E+03  0.11006381922E+02 -0.28993517798E+03  0.38861699850E+03  0.93379237090E+02 0.  0.
        254    2    1    2    0    0 -0.24108077843E+03 -0.11006381922E+02 -0.15018393446E+04  0.17755828064E+04  0.91593220463E+03 0.  0.
         23    2    4    4    0    0  0.58953112243E+02 -0.31915708091E+02 -0.14513700181E+04  0.14557789189E+04  0.91231844196E+02 0.  0.
         23    2    4    4    0    0 -0.30003389067E+03  0.20909326168E+02 -0.50469326471E+02  0.31980388755E+03  0.96279998477E+02 0.  0.
         13    1    3    3    0    0  0.51772486693E+02 -0.36405724731E+02 -0.62854893156E+02  0.89199241954E+02  0.00000000000E+00 0.  1.
        -13    1    3    3    0    0  0.18930829174E+03  0.47412106653E+02 -0.22708028482E+03  0.29941775654E+03  0.00000000000E+00 0. -1.
          2    1    5    5  502    0  0.80330233870E+01  0.52555111817E+01 -0.99803968487E+03  0.99808584924E+03  0.00000000000E+00 0. -1.
          3    1    6    6  503    0 -0.18829093376E+03  0.20357299034E+02  0.15530947904E+02  0.19002396087E+03  0.00000000000E+00 0. -1.
         -2    1    5    5    0  502  0.50920088856E+02 -0.37171219272E+02 -0.45333033322E+03  0.45769306965E+03  0.00000000000E+00 0.  1.
         -3    1    6    6    0  503 -0.11174295691E+03  0.55202713430E+00 -0.66000274375E+02  0.12977992669E+03  0.00000000000E+00 0.  1.
<mgrwt>
<rscale>  0 0.12137977E+04</rscale>
<asrwt>0</asrwt>
<pdfrwt beam="1">  1        2 0.30430572E+00 0.12137977E+04</pdfrwt>
<pdfrwt beam="2">  1       -2 0.28648098E-01 0.12137977E+04</pdfrwt>
<totfact> 0.75788262E+01</totfact>
</mgrwt>
</event>
<event>
12    1  0.4802930E-008  0.2288804E+04  0.7818608E-02  0.8482348E-01
          2   -1    0    0  501    0  0.00000000000E+00  0.00000000000E+00  0.17627713761E+04  0.17627713761E+04  0.00000000000E+00 0. -1.
         -2   -1    0    0    0  501 -0.00000000000E+00 -0.00000000000E+00 -0.74295306658E+03  0.74295306658E+03  0.00000000000E+00 0.  1.
         23    2    1    2    0    0  0.15147871086E+03  0.34040132904E+02  0.14737661845E+04  0.14847161464E+04  0.91053491271E+02 0.  0.
        254    2    1    2    0    0 -0.15147871086E+03 -0.34040132904E+02 -0.45394787494E+03  0.10210082963E+04  0.90126840483E+03 0.  0.
         23    2    4    4    0    0 -0.26269111406E+03  0.36837145592E+03 -0.35719801310E+03  0.58303232583E+03  0.87362013828E+02 0.  0.
         23    2    4    4    0    0  0.11121240320E+03 -0.40241158883E+03 -0.96749861840E+02  0.43797597051E+03  0.90327900055E+02 0.  0.
         11    1    3    3    0    0  0.16312621602E+03  0.37110693709E+02  0.13383778717E+04  0.13487930506E+04  0.00000000000E+00 0. -1.
        -11    1    3    3    0    0 -0.11647505162E+02 -0.30705608053E+01  0.13538831284E+03  0.13592309580E+03  0.00000000000E+00 0.  1.
          1    1    5    5  502    0 -0.15178506438E+03  0.26767424718E+03 -0.20672535191E+03  0.37070686464E+03  0.00000000000E+00 0. -1.
          3    1    6    6  503    0  0.12546735895E+01 -0.17573622024E+02 -0.26191057533E+02  0.31565454085E+02  0.00000000000E+00 0. -1.
         -1    1    5    5    0  502 -0.11090604968E+03  0.10069720875E+03 -0.15047266119E+03  0.21232546119E+03  0.00000000000E+00 0.  1.
         -3    1    6    6    0  503  0.10995772961E+03 -0.38483796680E+03 -0.70558804307E+02  0.40641051642E+03  0.00000000000E+00 0.  1.
<mgrwt>
<rscale>  0 0.22888044E+04</rscale>
<asrwt>0</asrwt>
<pdfrwt beam="1">  1        2 0.27119559E+00 0.22888044E+04</pdfrwt>
<pdfrwt beam="2">  1       -2 0.11430047E+00 0.22888044E+04</pdfrwt>
<totfact> 0.49152102E+00</totfact>
</mgrwt>
</event>
<event>
12    1  0.4802930E-008  0.1087595E+04  0.7818608E-02  0.9217368E-01
          3   -1    0    0  501    0  0.00000000000E+00  0.00000000000E+00  0.10867504217E+04  0.10867504217E+04  0.00000000000E+00 0. -1.
         -3   -1    0    0    0  501 -0.00000000000E+00 -0.00000000000E+00 -0.27211001599E+03  0.27211001599E+03  0.00000000000E+00 0.  1.
         23    2    1    2    0    0 -0.13134019168E+03  0.44862054538E+02  0.22017314954E+03  0.27558059542E+03  0.90584760904E+02 0.  0.
        254    2    1    2    0    0  0.13134019168E+03 -0.44862054538E+02  0.59446725613E+03  0.10832798422E+04  0.89489722766E+03 0.  0.
         23    2    4    4    0    0 -0.64164691986E+02  0.14737506943E+02  0.78245770740E+03  0.79081126442E+03  0.93851426487E+02 0.  0.
         23    2    4    4    0    0  0.19550488367E+03 -0.59599561481E+02 -0.18799045127E+03  0.29246857781E+03  0.91777949272E+02 0.  0.
         13    1    3    3    0    0 -0.60562546031E+02  0.47145257609E+02  0.17628758019E+03  0.19227014388E+03  0.00000000000E+00 0.  1.
        -13    1    3    3    0    0 -0.70777645650E+02 -0.22832030706E+01  0.43885569348E+02  0.83310451547E+02  0.00000000000E+00 0. -1.
          2    1    5    5  502    0 -0.80967381500E+02  0.25952836479E+02  0.46486522674E+03  0.47257692032E+03  0.00000000000E+00 0. -1.
          1    1    6    6  503    0  0.20408308938E+03 -0.61431064268E+02 -0.17062627618E+03  0.27301466838E+03  0.00000000000E+00 0. -1.
         -2    1    5    5    0  502  0.16802689514E+02 -0.11215329536E+02  0.31759248066E+03  0.31823434410E+03  0.00000000000E+00 0.  1.
         -1    1    6    6    0  503 -0.85782057110E+01  0.18315027865E+01 -0.17364175090E+02  0.19453909433E+02  0.00000000000E+00 0.  1.
<mgrwt>
<rscale>  0 0.10875949E+04</rscale>
<asrwt>0</asrwt>
<pdfrwt beam="1">  1        3 0.16719237E+00 0.10875949E+04</pdfrwt>
<pdfrwt beam="2">  1       -3 0.41863080E-01 0.10875949E+04</pdfrwt>
<totfact> 0.35957611E+00</totfact>
</mgrwt>
</event>
<event>
12    1  0.4802930E-008  0.2543984E+04  0.7818608E-02  0.8387481E-01
          2   -1    0    0  501    0  0.00000000000E+00  0.00000000000E+00  0.24413536513E+04  0.24413536513E+04  0.00000000000E+00 0. -1.
         -2   -1    0    0    0  501 -0.00000000000E+00 -0.00000000000E+00 -0.66273236927E+03  0.66273236927E+03  0.00000000000E+00 0.  1.
         23    2    1    2    0    0 -0.10370520474E+04 -0.16848347391E+03  0.12139751453E+04  0.16079587506E+04  0.89062113817E+02 0.  0.
        254    2    1    2    0    0  0.10370520474E+04  0.16848347391E+03  0.56464613664E+03  0.14961272699E+04  0.90316549884E+03 0.  0.
         23    2    4    4    0    0 -0.32260539137E+01  0.31670490643E+03  0.15768997318E+03  0.36553377555E+03  0.91849922399E+02 0.  0.
         23    2    4    4    0    0  0.10402781013E+04 -0.14822143252E+03  0.40695616346E+03  0.11305934944E+04  0.92088052937E+02 0.  0.
         11    1    3    3    0    0 -0.67762567340E+03 -0.97023581197E+02  0.72781398010E+03  0.99915129895E+03  0.00000000000E+00 0.  1.
        -11    1    3    3    0    0 -0.35942637398E+03 -0.71459892715E+02  0.48616116525E+03  0.60880745164E+03  0.00000000000E+00 0. -1.
          4    1    6    6  502    0  0.83735757180E+03 -0.11210887844E+03  0.28771581565E+03  0.89247772760E+03  0.00000000000E+00 0. -1.
          4    1    5    5  503    0 -0.25510700045E+02  0.20333826071E+03  0.58125632942E+02  0.21301603999E+03  0.00000000000E+00 0. -1.
         -4    1    5    5    0  503  0.22284646131E+02  0.11336664572E+03  0.99564340236E+02  0.15251773557E+03  0.00000000000E+00 0.  1.
         -4    1    6    6    0  502  0.20292052949E+03 -0.36112554078E+02  0.11924034781E+03  0.23811576680E+03  0.00000000000E+00 0.  1.
<mgrwt>
<rscale>  0 0.25439843E+04</rscale>
<asrwt>0</asrwt>
<pdfrwt beam="1">  1        2 0.37559286E+00 0.25439843E+04</pdfrwt>
<pdfrwt beam="2">  1       -2 0.10195883E+00 0.25439843E+04</pdfrwt>
<totfact> 0.26374639E+00</totfact>
</mgrwt>
</event>
<event>
12    1  0.4802930E-008  0.2632583E+04  0.7818608E-02  0.8357217E-01
         -2   -1    0    0    0  501 -0.00000000000E+00  0.00000000000E+00  0.18627610410E+04  0.18627610410E+04  0.00000000000E+00 0.  1.
          2   -1    0    0  501    0  0.00000000000E+00 -0.00000000000E+00 -0.93013753801E+03  0.93013753801E+03  0.00000000000E+00 0. -1.
         23    2    1    2    0    0 -0.10031992287E+04  0.52166544684E+03  0.68442534711E+03  0.13247495135E+04  0.89329092742E+02 0.  0.
        254    2    1    2    0    0  0.10031992287E+04 -0.52166544684E+03  0.24819815593E+03  0.14681490656E+04  0.90294840567E+03 0.  0.
         23    2    4    4    0    0  0.39680032494E+03 -0.65096822341E+03 -0.59232450182E+02  0.77007112483E+03  0.91054535183E+02 0.  0.
         23    2    4    4    0    0  0.60639890375E+03  0.12930277657E+03  0.30743060611E+03  0.69807794075E+03  0.91435197273E+02 0.  0.
         13    1    3    3    0    0 -0.86084799742E+02  0.61905302544E+02  0.89987664013E+02  0.13907062560E+03  0.00000000000E+00 0. -1.
        -13    1    3    3    0    0 -0.91711442895E+03  0.45976014430E+03  0.59443768309E+03  0.11856788879E+04  0.00000000000E+00 0.  1.
          4    1    5    5  502    0  0.20188445037E+02 -0.72559750966E+02 -0.23652087023E+02  0.78942460018E+02  0.00000000000E+00 0. -1.
          3    1    6    6  503    0  0.28061406350E+03  0.73881477041E+02  0.19238797959E+03  0.34816068126E+03  0.00000000000E+00 0. -1.
         -4    1    5    5    0  502  0.37661187990E+03 -0.57840847245E+03 -0.35580363160E+02  0.69112866481E+03  0.00000000000E+00 0.  1.
         -3    1    6    6    0  503  0.32578484025E+03  0.55421299526E+02  0.11504262652E+03  0.34991725949E+03  0.00000000000E+00 0.  1.
<mgrwt>
<rscale>  0 0.26325835E+04</rscale>
<asrwt>0</asrwt>
<pdfrwt beam="1">  1        2 0.14309808E+00 0.26325835E+04</pdfrwt>
<pdfrwt beam="2">  1       -2 0.28657862E+00 0.26325835E+04</pdfrwt>
<totfact> 0.94789693E-01</totfact>
</mgrwt>
</event>
<event>
12    1  0.4802930E-008  0.1090037E+04  0.7818608E-02  0.9214957E-01
         -2   -1    0    0    0  501 -0.00000000000E+00  0.00000000000E+00  0.73916362895E+02  0.73916362895E+02  0.00000000000E+00 0.  1.
          2   -1    0    0  501    0  0.00000000000E+00 -0.00000000000E+00 -0.40186639738E+04  0.40186639738E+04  0.00000000000E+00 0. -1.
         23    2    1    2    0    0  0.11409093474E+03 -0.12806372232E+01 -0.99710833254E+03  0.10077098983E+04  0.90751478754E+02 0.  0.
        254    2    1    2    0    0 -0.11409093474E+03  0.12806372232E+01 -0.29476392783E+04  0.30848704383E+04  0.90267930345E+03 0.  0.
         23    2    4    4    0    0 -0.11389275266E+02  0.16145299176E+03 -0.65964702955E+02  0.19549566752E+03  0.87580990205E+02 0.  0.
         23    2    4    4    0    0 -0.10270165947E+03 -0.16017235453E+03 -0.28816745754E+04  0.28893747708E+04  0.90749071412E+02 0.  0.
         13    1    3    3    0    0  0.26416509043E+02 -0.41559064365E+02 -0.32338747763E+03  0.32711534429E+03  0.00000000000E+00 0.  1.
        -13    1    3    3    0    0  0.87674425696E+02  0.40278427142E+02 -0.67372085490E+03  0.68059455401E+03  0.00000000000E+00 0. -1.
          1    1    5    5  502    0  0.20688611791E+02  0.11884276620E+03 -0.74059172049E+02  0.14154993006E+03  0.00000000000E+00 0. -1.
          3    1    6    6  503    0 -0.10696013854E+03 -0.14234147857E+03 -0.21150553383E+04  0.21225363724E+04  0.00000000000E+00 0. -1.
         -1    1    5    5    0  502 -0.32077887058E+02  0.42610225561E+02  0.80944690946E+01  0.53945737462E+02  0.00000000000E+00 0.  1.
         -3    1    6    6    0  503  0.42584790712E+01 -0.17830875969E+02 -0.76661923702E+03  0.76683839846E+03  0.00000000000E+00 0.  1.
<mgrwt>
<rscale>  0 0.10900367E+04</rscale>
<asrwt>0</asrwt>
<pdfrwt beam="1">  1        2 0.61825590E+00 0.10900367E+04</pdfrwt>
<pdfrwt beam="2">  1       -2 0.11371750E-01 0.10900367E+04</pdfrwt>
<totfact> 0.19228379E+01</totfact>
</mgrwt>
</event>
<event>
12    1  0.4802930E-008  0.2179420E+04  0.7818608E-02  0.8527043E-01
         -2   -1    0    0    0  501 -0.00000000000E+00  0.00000000000E+00  0.83983708927E+03  0.83983708927E+03  0.00000000000E+00 0.  1.
          2   -1    0    0  501    0  0.00000000000E+00 -0.00000000000E+00 -0.14139265549E+04  0.14139265549E+04  0.00000000000E+00 0. -1.
         23    2    1    2    0    0  0.58544304957E+03 -0.99377847765E+02 -0.94163161482E+03  0.11170050936E+04  0.91710196897E+02 0.  0.
        254    2    1    2    0    0 -0.58544304957E+03  0.99377847765E+02  0.36754214920E+03  0.11367585505E+04  0.89694662599E+03 0.  0.
         23    2    4    4    0    0 -0.20455843555E+03  0.47016046240E+03  0.84388481066E+02  0.52751225686E+03  0.90844655561E+02 0.  0.
         23    2    4    4    0    0 -0.38088461401E+03 -0.37078261463E+03  0.28315366814E+03  0.60924629368E+03  0.91935902003E+02 0.  0.
         11    1    3    3    0    0  0.18575639500E+03 -0.13791802857E+02 -0.37035778870E+03  0.41456066355E+03  0.00000000000E+00 0. -1.
        -11    1    3    3    0    0  0.39968665456E+03 -0.85586044908E+02 -0.57127382613E+03  0.70244443007E+03  0.00000000000E+00 0.  1.
          4    1    5    5  502    0 -0.18270371457E+03  0.32770933657E+03  0.43535656495E+02  0.37771604411E+03  0.00000000000E+00 0.  1.
          4    1    6    6  503    0 -0.55408267184E+02 -0.25631138489E+02  0.10132733552E+02  0.61884599230E+02  0.00000000000E+00 0. -1.
         -4    1    5    5    0  502 -0.21854720983E+02  0.14245112582E+03  0.40852824571E+02  0.14979621274E+03  0.00000000000E+00 0. -1.
         -4    1    6    6    0  503 -0.32547634683E+03 -0.34515147614E+03  0.27302093459E+03  0.54736169445E+03  0.00000000000E+00 0.  1.
<mgrwt>
<rscale>  0 0.21794201E+04</rscale>
<asrwt>0</asrwt>
<pdfrwt beam="1">  1        2 0.21752716E+00 0.21794201E+04</pdfrwt>
<pdfrwt beam="2">  1       -2 0.12920571E+00 0.21794201E+04</pdfrwt>
<totfact> 0.57388678E+00</totfact>
</mgrwt>
</event>
<event>
12    1  0.4802930E-008  0.2528349E+04  0.7818608E-02  0.8392955E-01
         -1   -1    0    0    0  501 -0.00000000000E+00  0.00000000000E+00  0.39161443348E+03  0.39161443348E+03  0.00000000000E+00 0.  1.
          1   -1    0    0  501    0  0.00000000000E+00 -0.00000000000E+00 -0.40808959564E+04  0.40808959564E+04  0.00000000000E+00 0. -1.
         23    2    1    2    0    0 -0.39345476751E+03  0.90147018919E+03 -0.73789957624E+03  0.12330467188E+04  0.91941666343E+02 0.  0.
        254    2    1    2    0    0  0.39345476751E+03 -0.90147018919E+03 -0.29513819467E+04  0.32394636711E+04  0.90333511229E+03 0.  0.
         23    2    4    4    0    0  0.32603198488E+03 -0.10674241538E+04 -0.22874664920E+04  0.25468640471E+04  0.91226875507E+02 0.  0.
         23    2    4    4    0    0  0.67422782630E+02  0.16595396461E+03 -0.66391545461E+03  0.69259962399E+03  0.82607253273E+02 0.  0.
         11    1    3    3    0    0 -0.88105581318E+00 -0.10982657979E+01 -0.68816964409E+01  0.70242574706E+01  0.00000000000E+00 0. -1.
        -11    1    3    3    0    0 -0.39257371170E+03  0.90256845499E+03 -0.73101787979E+03  0.12260224613E+04  0.00000000000E+00 0.  1.
          1    1    5    5  502    0  0.24119216050E+03 -0.70803940537E+03 -0.16108268064E+04  0.17760226514E+04  0.00000000000E+00 0. -1.
          3    1    6    6  503    0  0.36393073744E+02  0.14175706925E+02 -0.19114778522E+03  0.19509710986E+03  0.00000000000E+00 0. -1.
         -1    1    5    5    0  502  0.84839824378E+02 -0.35938474843E+03 -0.67663968562E+03  0.77084139572E+03  0.00000000000E+00 0.  1.
         -3    1    6    6    0  503  0.31029708886E+02  0.15177825769E+03 -0.47276766939E+03  0.49750251413E+03  0.00000000000E+00 0.  1.
<mgrwt>
<rscale>  0 0.25283495E+04</rscale>
<asrwt>0</asrwt>
<pdfrwt beam="1">  1        1 0.62783017E+00 0.25283495E+04</pdfrwt>
<pdfrwt beam="2">  1       -1 0.60248372E-01 0.25283495E+04</pdfrwt>
<totfact> 0.20178992E-01</totfact>
</mgrwt>
</event>
<event>
12    1  0.4802930E-008  0.1471641E+04  0.7818608E-02  0.8903534E-01
          1   -1    0    0  501    0  0.00000000000E+00  0.00000000000E+00  0.12413598124E+04  0.12413598124E+04  0.00000000000E+00 0. -1.
         -1   -1    0    0    0  501 -0.00000000000E+00 -0.00000000000E+00 -0.43616001201E+03  0.43616001201E+03  0.00000000000E+00 0.  1.
         23    2    1    2    0    0 -0.15360937107E+03 -0.21425666699E+03  0.66034059083E+03  0.71681444962E+03  0.90947792962E+02 0.  0.
        254    2    1    2    0    0  0.15360937107E+03  0.21425666699E+03  0.14485920953E+03  0.96070537476E+03  0.91239731931E+03 0.  0.
         23    2    4    4    0    0  0.46537829651E+03 -0.91102722343E+02 -0.25310338504E+02  0.48354140750E+03  0.91076970992E+02 0.  0.
         23    2    4    4    0    0 -0.31176892544E+03  0.30535938934E+03  0.17016954803E+03  0.47716396727E+03  0.91014048663E+02 0.  0.
         13    1    3    3    0    0 -0.78986798188E+02 -0.62326563241E+02  0.33903366883E+03  0.35364861569E+03  0.00000000000E+00 0. -1.
        -13    1    3    3    0    0 -0.74622572882E+02 -0.15193010375E+03  0.32130692200E+03  0.36316583393E+03  0.00000000000E+00 0.  1.
          1    1    5    5  502    0  0.13480600715E+02  0.11548978329E+02  0.68259381954E+01  0.19018383957E+02  0.00000000000E+00 0. -1.
          3    1    6    6  503    0 -0.15574789958E+03  0.17545107675E+03  0.45682732400E+02  0.23901338999E+03  0.00000000000E+00 0. -1.
         -1    1    5    5    0  502  0.45189769580E+03 -0.10265170067E+03 -0.32136276699E+02  0.46452302354E+03  0.00000000000E+00 0.  1.
         -3    1    6    6    0  503 -0.15602102586E+03  0.12990831259E+03  0.12448681563E+03  0.23815057727E+03  0.00000000000E+00 0.  1.
<mgrwt>
<rscale>  0 0.14716406E+04</rscale>
<asrwt>0</asrwt>
<pdfrwt beam="1">  1        1 0.19097843E+00 0.14716406E+04</pdfrwt>
<pdfrwt beam="2">  1       -1 0.67101541E-01 0.14716406E+04</pdfrwt>
<totfact> 0.21746158E+01</totfact>
</mgrwt>
</event>
<event>
12    1  0.4802930E-008  0.1834488E+04  0.7818608E-02  0.8688171E-01
         -2   -1    0    0    0  501 -0.00000000000E+00  0.00000000000E+00  0.77120569729E+03  0.77120569729E+03  0.00000000000E+00 0.  1.
          2   -1    0    0  501    0  0.00000000000E+00 -0.00000000000E+00 -0.10909364412E+04  0.10909364412E+04  0.00000000000E+00 0. -1.
         23    2    1    2    0    0 -0.34542173686E+03  0.35507266777E+03  0.37939553638E+03  0.63028871857E+03  0.89051221390E+02 0.  0.
        254    2    1    2    0    0  0.34542173686E+03 -0.35507266777E+03 -0.69912628030E+03  0.12318534199E+04  0.88503814420E+03 0.  0.
         23    2    4    4    0    0  0.62246255432E+02  0.23353446281E+03  0.16065572078E+02  0.25882900690E+03  0.91221765872E+02 0.  0.
         23    2    4    4    0    0  0.28317548142E+03 -0.58860713058E+03 -0.71519185237E+03  0.97302441303E+03  0.92900027992E+02 0.  0.
         11    1    3    3    0    0 -0.30188442735E+03  0.32727275970E+03  0.30489521776E+03  0.53963206033E+03  0.00000000000E+00 0.  1.
        -11    1    3    3    0    0 -0.43537309503E+02  0.27799908067E+02  0.74500318624E+02  0.90656658235E+02  0.00000000000E+00 0. -1.
          1    1    5    5  502    0  0.63731182719E+02  0.23343646653E+03 -0.71667243265E+00  0.24198091077E+03  0.00000000000E+00 0. -1.
          3    1    6    6  503    0  0.18327648694E+03 -0.46801515895E+03 -0.56171848936E+03  0.75376131565E+03  0.00000000000E+00 0. -1.
         -1    1    5    5    0  502 -0.14849272875E+01  0.97996281674E-01  0.16782244511E+02  0.16848096128E+02  0.00000000000E+00 0.  1.
         -3    1    6    6    0  503  0.99898994484E+02 -0.12059197163E+03 -0.15347336301E+03  0.21926309739E+03  0.00000000000E+00 0.  1.
<mgrwt>
<rscale>  0 0.18344878E+04</rscale>
<asrwt>0</asrwt>
<pdfrwt beam="1">  1        2 0.16783638E+00 0.18344878E+04</pdfrwt>
<pdfrwt beam="2">  1       -2 0.11864703E+00 0.18344878E+04</pdfrwt>
<totfact> 0.11349638E+01</totfact>
</mgrwt>
</event>
<event>
12    1  0.4802930E-008  0.1414569E+04  0.7818608E-02  0.8943340E-01
         -2   -1    0    0    0  501 -0.00000000000E+00  0.00000000000E+00  0.76380335950E+03  0.76380335950E+03  0.00000000000E+00 0.  1.
          2   -1    0    0  501    0  0.00000000000E+00 -0.00000000000E+00 -0.65494790382E+03  0.65494790382E+03  0.00000000000E+00 0. -1.
         23    2    1    2    0    0  0.33477162026E+03  0.24509173814E+03  0.28336086703E+02  0.42476548596E+03  0.86491539567E+02 0.  0.
        254    2    1    2    0    0 -0.33477162026E+03 -0.24509173814E+03  0.80519368972E+02  0.99398577736E+03  0.89965680066E+03 0.  0.
         23    2    4    4    0    0 -0.24025434701E+03 -0.56256428090E+03 -0.64294689369E+02  0.62110760484E+03  0.86256178348E+02 0.  0.
         23    2    4    4    0    0 -0.94517273254E+02  0.31747254276E+03  0.14481405834E+03  0.37287817252E+03  0.91349273110E+02 0.  0.
         11    1    3    3    0    0  0.22842658168E+03  0.18240145165E+03 -0.18091516188E+02  0.29287590502E+03  0.00000000000E+00 0.  1.
        -11    1    3    3    0    0  0.10634503858E+03  0.62690286490E+02  0.46427602890E+02  0.13188958094E+03  0.00000000000E+00 0. -1.
          2    1    5    5  502    0 -0.13352860344E+03 -0.20528734864E+03 -0.25892144091E+02  0.24625837362E+03  0.00000000000E+00 0.  1.
          3    1    6    6  503    0 -0.87117503548E+02  0.26827203513E+03  0.15536025178E+03  0.32201886916E+03  0.00000000000E+00 0. -1.
         -2    1    5    5    0  502 -0.10672574356E+03 -0.35727693226E+03 -0.38402545278E+02  0.37484923122E+03  0.00000000000E+00 0. -1.
         -3    1    6    6    0  503 -0.73997697063E+01  0.49200507630E+02 -0.10546193440E+02  0.50859303366E+02  0.00000000000E+00 0.  1.
<mgrwt>
<rscale>  0 0.14145691E+04</rscale>
<asrwt>0</asrwt>
<pdfrwt beam="1">  1        2 0.10076122E+00 0.14145691E+04</pdfrwt>
<pdfrwt beam="2">  1       -2 0.11750821E+00 0.14145691E+04</pdfrwt>
<totfact> 0.24218660E+01</totfact>
</mgrwt>
</event>
<event>
12    1  0.4802930E-008  0.2129855E+04  0.7818608E-02  0.8548205E-01
         -2   -1    0    0    0  501 -0.00000000000E+00  0.00000000000E+00  0.15054942929E+04  0.15054942929E+04  0.00000000000E+00 0. -1.
          2   -1    0    0  501    0  0.00000000000E+00 -0.00000000000E+00 -0.75328754284E+03  0.75328754284E+03  0.00000000000E+00 0.  1.
         23    2    1    2    0    0  0.56040006973E+03 -0.59902492400E+03 -0.51801597768E+00  0.82553491217E+03  0.92889854916E+02 0.  0.
        254    2    1    2    0    0 -0.56040006973E+03  0.59902492400E+03  0.75272476605E+03  0.14332469236E+04  0.90262011544E+03 0.  0.
         23    2    4    4    0    0 -0.92138431720E+02  0.50091349845E+03  0.79004693144E+03  0.94464683967E+03  0.93699916143E+02 0.  0.
         23    2    4    4    0    0 -0.46826163801E+03  0.98111425558E+02 -0.37322165395E+02  0.48860008391E+03  0.91881905255E+02 0.  0.
         13    1    3    3    0    0  0.24211597779E+03 -0.24773235388E+03  0.45039384361E+02  0.34931362986E+03  0.00000000000E+00 0. -1.
        -13    1    3    3    0    0  0.31828409193E+03 -0.35129257012E+03 -0.45557400338E+02  0.47622128231E+03  0.00000000000E+00 0.  1.
          1    1    5    5  502    0 -0.79252350436E+01  0.29614110272E+03  0.46521732669E+03  0.55153379147E+03  0.00000000000E+00 0. -1.
          3    1    6    6  503    0 -0.67820649716E+02 -0.76370851776E+01  0.18434626878E+02  0.70695127597E+02  0.00000000000E+00 0. -1.
         -1    1    5    5    0  502 -0.84213196676E+02  0.20477239572E+03  0.32482960475E+03  0.39311304820E+03  0.00000000000E+00 0.  1.
         -3    1    6    6    0  503 -0.40044098829E+03  0.10574851074E+03 -0.55756792273E+02  0.41790495631E+03  0.00000000000E+00 0.  1.
<mgrwt>
<rscale>  0 0.21298545E+04</rscale>
<asrwt>0</asrwt>
<pdfrwt beam="1">  1        2 0.11589039E+00 0.21298545E+04</pdfrwt>
<pdfrwt beam="2">  1       -2 0.23161451E+00 0.21298545E+04</pdfrwt>
<totfact> 0.28623018E+00</totfact>
</mgrwt>
</event>
<event>
12    1  0.4802930E-008  0.2172134E+04  0.7818608E-02  0.8530117E-01
          2   -1    0    0  501    0  0.00000000000E+00  0.00000000000E+00  0.19069169169E+04  0.19069169169E+04  0.00000000000E+00 0. -1.
         -2   -1    0    0    0  501 -0.00000000000E+00 -0.00000000000E+00 -0.61855925354E+03  0.61855925354E+03  0.00000000000E+00 0.  1.
         23    2    1    2    0    0 -0.67941953225E+02  0.17125602389E+03 -0.48785611455E+03  0.52921664873E+03  0.90121795720E+02 0.  0.
        254    2    1    2    0    0  0.67941953225E+02 -0.17125602389E+03  0.17762137779E+04  0.19962595217E+04  0.89228468461E+03 0.  0.
         23    2    4    4    0    0 -0.25899607990E+02  0.33198684868E+03  0.10304985531E+04  0.10869783997E+04  0.93320501539E+02 0.  0.
         23    2    4    4    0    0  0.93841561215E+02 -0.50324287257E+03  0.74571522477E+03  0.90928112200E+03  0.92958780943E+02 0.  0.
         13    1    3    3    0    0 -0.33886689832E+02  0.16450667567E+03 -0.43135455088E+03  0.46290118022E+03  0.00000000000E+00 0.  1.
        -13    1    3    3    0    0 -0.34055263393E+02  0.67493482186E+01 -0.56501563673E+02  0.66315468509E+02  0.00000000000E+00 0. -1.
          1    1    5    5  502    0 -0.98922912575E+01  0.45988485021E+02  0.67453296450E+02  0.82235912975E+02  0.00000000000E+00 0. -1.
          1    1    6    6  503    0  0.13251727847E+02 -0.15851573939E+03  0.16520427205E+03  0.22933665086E+03  0.00000000000E+00 0. -1.
         -1    1    5    5    0  502 -0.16007316732E+02  0.28599836366E+03  0.96304525667E+03  0.10047424867E+04  0.00000000000E+00 0.  1.
         -1    1    6    6    0  503  0.80589833368E+02 -0.34472713318E+03  0.58051095273E+03  0.67994447114E+03  0.00000000000E+00 0.  1.
<mgrwt>
<rscale>  0 0.21721336E+04</rscale>
<asrwt>0</asrwt>
<pdfrwt beam="1">  1        2 0.29337183E+00 0.21721336E+04</pdfrwt>
<pdfrwt beam="2">  1       -2 0.95162963E-01 0.21721336E+04</pdfrwt>
<totfact> 0.64004892E+00</totfact>
</mgrwt>
</event>
<event>
12    1  0.4802930E-008  0.2834063E+04  0.7818608E-02  0.8292770E-01
          1   -1    0    0  501    0  0.00000000000E+00  0.00000000000E+00  0.21504740619E+04  0.21504740619E+04  0.00000000000E+00 0. -1.
         -1   -1    0    0    0  501 -0.00000000000E+00 -0.00000000000E+00 -0.93373769637E+03  0.93373769637E+03  0.00000000000E+00 0.  1.
         23    2    1    2    0    0 -0.27719737439E+03 -0.67801020189E+03 -0.58665207672E+03  0.94272860508E+03  0.89667973495E+02 0.  0.
        254    2    1    2    0    0  0.27719737439E+03  0.67801020189E+03  0.18033884423E+04  0.21414831532E+04  0.89286281337E+03 0.  0.
         23    2    4    4    0    0  0.36449486203E+03  0.19672545696E+03  0.14995814970E+04  0.15584382498E+04  0.91802519575E+02 0.  0.
         23    2    4    4    0    0 -0.87297487641E+02  0.48128474494E+03  0.30380694531E+03  0.58304490339E+03  0.91579704586E+02 0.  0.
         13    1    3    3    0    0 -0.19642651699E+02 -0.49733384288E+02 -0.76895088332E+02  0.93659478368E+02  0.00000000000E+00 0.  1.
        -13    1    3    3    0    0 -0.25755472269E+03 -0.62827681761E+03 -0.50975698839E+03  0.84906912671E+03  0.00000000000E+00 0. -1.
          1    1    5    5  502    0  0.29378630189E+03  0.16359489839E+03  0.10626628922E+04  0.11145968349E+04  0.00000000000E+00 0. -1.
          3    1    6    6  503    0 -0.10352828526E+03  0.38139534293E+03  0.22482254266E+03  0.45467096800E+03  0.00000000000E+00 0. -1.
         -1    1    5    5    0  502  0.70708560139E+02  0.33130558565E+02  0.43691860480E+03  0.44384141493E+03  0.00000000000E+00 0.  1.
         -3    1    6    6    0  503  0.16230797615E+02  0.99889402009E+02  0.78984402652E+02  0.12837393539E+03  0.00000000000E+00 0.  1.
<mgrwt>
<rscale>  0 0.28340633E+04</rscale>
<asrwt>0</asrwt>
<pdfrwt beam="1">  1        1 0.33084216E+00 0.28340633E+04</pdfrwt>
<pdfrwt beam="2">  1       -1 0.14365195E+00 0.28340633E+04</pdfrwt>
<totfact> 0.79594820E-01</totfact>
</mgrwt>
</event>
<event>
12    1  0.4802930E-008  0.2295784E+04  0.7818608E-02  0.8479585E-01
          2   -1    0    0  501    0  0.00000000000E+00  0.00000000000E+00  0.99630725702E+03  0.99630725702E+03  0.00000000000E+00 0. -1.
         -2   -1    0    0    0  501 -0.00000000000E+00 -0.00000000000E+00 -0.13225400944E+04  0.13225400944E+04  0.00000000000E+00 0.  1.
         23    2    1    2    0    0  0.23579183124E+03 -0.35118160323E+03  0.74489492979E+03  0.86137534134E+03  0.90403075849E+02 0.  0.
        254    2    1    2    0    0 -0.23579183124E+03  0.35118160323E+03 -0.10711277672E+04  0.14574720101E+04  0.89329931177E+03 0.  0.
         23    2    4    4    0    0 -0.12489069232E+03  0.20666989886E+03 -0.11924013386E+04  0.12200772902E+04  0.91964719580E+02 0.  0.
         23    2    4    4    0    0 -0.11090113892E+03  0.14451170436E+03  0.12127357146E+03  0.23739471983E+03  0.92012382621E+02 0.  0.
         13    1    3    3    0    0  0.14319985163E+03 -0.27107949647E+03  0.57945885859E+03  0.65556300972E+03  0.00000000000E+00 0. -1.
        -13    1    3    3    0    0  0.92591979605E+02 -0.80102106757E+02  0.16543607120E+03  0.20581233162E+03  0.00000000000E+00 0.  1.
          3    1    6    6  502    0 -0.15085440330E+02 -0.45680261651E+01  0.38896083669E+02  0.41968353527E+02  0.00000000000E+00 0. -1.
          3    1    5    5  503    0 -0.11194531872E+03  0.20772251010E+03 -0.10093348060E+04  0.10365505999E+04  0.00000000000E+00 0. -1.
         -3    1    5    5    0  503 -0.12945373599E+02 -0.10526112382E+01 -0.18306653267E+03  0.18352669036E+03  0.00000000000E+00 0.  1.
         -3    1    6    6    0  502 -0.95815698593E+02  0.14907973053E+03  0.82377487795E+02  0.19542636631E+03  0.00000000000E+00 0.  1.
<mgrwt>
<rscale>  0 0.22957842E+04</rscale>
<asrwt>0</asrwt>
<pdfrwt beam="1">  1        2 0.15327804E+00 0.22957842E+04</pdfrwt>
<pdfrwt beam="2">  1       -2 0.20346771E+00 0.22957842E+04</pdfrwt>
<totfact> 0.28986890E+00</totfact>
</mgrwt>
</event>
<event>
12    1  0.4802930E-008  0.2053419E+04  0.7818608E-02  0.8582045E-01
         -1   -1    0    0    0  501 -0.00000000000E+00  0.00000000000E+00  0.41575403721E+03  0.41575403721E+03  0.00000000000E+00 0.  1.
          1   -1    0    0  501    0  0.00000000000E+00 -0.00000000000E+00 -0.25354703339E+04  0.25354703339E+04  0.00000000000E+00 0. -1.
         23    2    1    2    0    0 -0.16998042290E+03 -0.58672835678E+03 -0.58278416007E+02  0.61969899527E+03  0.86527233518E+02 0.  0.
        254    2    1    2    0    0  0.16998042290E+03  0.58672835678E+03 -0.20614378807E+04  0.23315253759E+04  0.90185416418E+03 0.  0.
         23    2    4    4    0    0  0.27942936523E+03  0.35548600060E+03 -0.30406136889E+03  0.55319937994E+03  0.95525761642E+02 0.  0.
         23    2    4    4    0    0 -0.10944894232E+03  0.23124235618E+03 -0.17573765118E+04  0.17783259959E+04  0.92838813193E+02 0.  0.
         13    1    3    3    0    0 -0.10721363800E+02 -0.16192760382E+03 -0.30922967436E+02  0.16520207758E+03  0.00000000000E+00 0. -1.
        -13    1    3    3    0    0 -0.15925905910E+03 -0.42480075296E+03 -0.27355448571E+02  0.45449691769E+03  0.00000000000E+00 0.  1.
          2    1    5    5  502    0  0.12330441355E+03  0.23290018866E+03 -0.17955297081E+03  0.31888202459E+03  0.00000000000E+00 0. -1.
          4    1    6    6  503    0 -0.22916199714E+02  0.22975904562E+02 -0.88157120961E+02  0.93939993485E+02  0.00000000000E+00 0. -1.
         -2    1    5    5    0  502  0.15612495168E+03  0.12258581194E+03 -0.12450839808E+03  0.23431735535E+03  0.00000000000E+00 0.  1.
         -4    1    6    6    0  503 -0.86532742608E+02  0.20826645162E+03 -0.16692193909E+04  0.16843860024E+04  0.00000000000E+00 0.  1.
<mgrwt>
<rscale>  0 0.20534186E+04</rscale>
<asrwt>0</asrwt>
<pdfrwt beam="1">  1        1 0.39007235E+00 0.20534186E+04</pdfrwt>
<pdfrwt beam="2">  1       -1 0.63962161E-01 0.20534186E+04</pdfrwt>
<totfact> 0.29309292E+00</totfact>
</mgrwt>
</event>
<event>
12    1  0.4802930E-008  0.1182014E+04  0.7818608E-02  0.9128747E-01
          3   -1    0    0  501    0  0.00000000000E+00  0.00000000000E+00  0.16508748382E+03  0.16508748382E+03  0.00000000000E+00 0. -1.
         -3   -1    0    0    0  501 -0.00000000000E+00 -0.00000000000E+00 -0.21157832885E+04  0.21157832885E+04  0.00000000000E+00 0.  1.
         23    2    1    2    0    0  0.49594142982E+02  0.22414594695E+03 -0.55757462365E+03  0.60979999260E+03  0.90915265430E+02 0.  0.
        254    2    1    2    0    0 -0.49594142982E+02 -0.22414594695E+03 -0.13931211810E+04  0.16710707797E+04  0.89386237265E+03 0.  0.
         23    2    4    4    0    0 -0.25149969829E+03 -0.13532390005E+02 -0.26237513835E+02  0.27040181627E+03  0.94834125137E+02 0.  0.
         23    2    4    4    0    0  0.20190555531E+03 -0.21061355694E+03 -0.13668836672E+04  0.14006689635E+04  0.91535030880E+02 0.  0.
         13    1    3    3    0    0 -0.13602290674E+02  0.98712108701E+01 -0.13205662307E+02  0.21374111270E+02  0.00000000000E+00 0. -1.
        -13    1    3    3    0    0  0.63196433656E+02  0.21427473608E+03 -0.54436896134E+03  0.58842588133E+03  0.00000000000E+00 0.  1.
          4    1    5    5  502    0 -0.25523131020E+02  0.29212476626E+02  0.10426295382E+01  0.38805748080E+02  0.00000000000E+00 0. -1.
          3    1    6    6  503    0  0.21122506554E+02  0.66084973166E+01 -0.73002260400E+02  0.76283435577E+02  0.00000000000E+00 0. -1.
         -4    1    5    5    0  502 -0.22597656727E+03 -0.42744866631E+02 -0.27280143373E+02  0.23159606819E+03  0.00000000000E+00 0.  1.
         -3    1    6    6    0  503  0.18078304875E+03 -0.21722205426E+03 -0.12938814068E+04  0.13243855279E+04  0.00000000000E+00 0.  1.
<mgrwt>
<rscale>  0 0.11820141E+04</rscale>
<asrwt>0</asrwt>
<pdfrwt beam="1">  1        3 0.25398076E-01 0.11820141E+04</pdfrwt>
<pdfrwt beam="2">  1       -3 0.32550511E+00 0.11820141E+04</pdfrwt>
<totfact> 0.10648106E+00</totfact>
</mgrwt>
</event>
<event>
12    1  0.4802930E-008  0.1934834E+04  0.7818608E-02  0.8637709E-01
         -1   -1    0    0    0  501 -0.00000000000E+00  0.00000000000E+00  0.11174633520E+04  0.11174633520E+04  0.00000000000E+00 0.  1.
          1   -1    0    0  501    0  0.00000000000E+00 -0.00000000000E+00 -0.83751807058E+03  0.83751807058E+03  0.00000000000E+00 0. -1.
         23    2    1    2    0    0 -0.34236936150E+03  0.31139596471E+03  0.71417159679E+03  0.85576870461E+03  0.90082071504E+02 0.  0.
        254    2    1    2    0    0  0.34236936150E+03 -0.31139596471E+03 -0.43422631535E+03  0.10992127180E+04  0.89751427838E+03 0.  0.
         23    2    4    4    0    0 -0.67033452383E+01  0.25005139199E+03  0.54152037195E+02  0.27206565453E+03  0.92285663955E+02 0.  0.
         23    2    4    4    0    0  0.34907270674E+03 -0.56144735669E+03 -0.48837835254E+03  0.82714706345E+03  0.92649664942E+02 0.  0.
         13    1    3    3    0    0 -0.26767683338E+03  0.21801708869E+03  0.58858774692E+03  0.68236198159E+03  0.00000000000E+00 0.  1.
        -13    1    3    3    0    0 -0.74692528122E+02  0.93378876019E+02  0.12558384987E+03  0.17340672303E+03  0.00000000000E+00 0. -1.
          3    1    5    5  502    0  0.12746389642E+02  0.10786185208E+03  0.67587254188E+02  0.12792453444E+03  0.00000000000E+00 0. -1.
          3    1    6    6  503    0  0.11579686318E+03 -0.12719290559E+03 -0.15937597854E+03  0.23449445898E+03  0.00000000000E+00 0. -1.
         -3    1    5    5    0  502 -0.19449734881E+02  0.14218953990E+03 -0.13435216993E+02  0.14414112009E+03  0.00000000000E+00 0.  1.
         -3    1    6    6    0  503  0.23327584356E+03 -0.43425445110E+03 -0.32900237400E+03  0.59265260447E+03  0.00000000000E+00 0.  1.
<mgrwt>
<rscale>  0 0.19348341E+04</rscale>
<asrwt>0</asrwt>
<pdfrwt beam="1">  1        1 0.12884893E+00 0.19348341E+04</pdfrwt>
<pdfrwt beam="2">  1       -1 0.17191744E+00 0.19348341E+04</pdfrwt>
<totfact> 0.45603340E+00</totfact>
</mgrwt>
</event>
<event>
12    1  0.4802930E-008  0.1711875E+04  0.7818608E-02  0.8754621E-01
          1   -1    0    0  501    0  0.00000000000E+00  0.00000000000E+00  0.18147968738E+04  0.18147968738E+04  0.00000000000E+00 0. -1.
         -1   -1    0    0    0  501 -0.00000000000E+00 -0.00000000000E+00 -0.40369741517E+03  0.40369741517E+03  0.00000000000E+00 0.  1.
         23    2    1    2    0    0 -0.61326917927E+02  0.58645179402E+03  0.67605389991E+03  0.90170060343E+03  0.91260095787E+02 0.  0.
        254    2    1    2    0    0  0.61326917927E+02 -0.58645179402E+03  0.73504555872E+03  0.13167936855E+04  0.91976461081E+03 0.  0.
         23    2    4    4    0    0  0.38478122495E+03 -0.56692824680E+03  0.26636380384E+03  0.74031919595E+03  0.87513472148E+02 0.  0.
         23    2    4    4    0    0 -0.32345430702E+03 -0.19523547224E+02  0.46868175488E+03  0.57647448958E+03  0.87500812336E+02 0.  0.
         13    1    3    3    0    0  0.47426577432E+01  0.24497460458E+03  0.33046938471E+03  0.41139404944E+03  0.00000000000E+00 0. -1.
        -13    1    3    3    0    0 -0.66069575670E+02  0.34147718944E+03  0.34558451520E+03  0.49030655399E+03  0.00000000000E+00 0.  1.
          4    1    5    5  502    0  0.28865638931E+03 -0.46564035437E+03  0.18259775714E+03  0.57748194052E+03  0.00000000000E+00 0.  1.
          1    1    6    6  503    0 -0.57935672215E+02 -0.17731307411E+02  0.41298725233E+02  0.73324798556E+02  0.00000000000E+00 0. -1.
         -4    1    5    5    0  502  0.96124835631E+02 -0.10128789243E+03  0.83766046697E+02  0.16283725543E+03  0.00000000000E+00 0. -1.
         -1    1    6    6    0  503 -0.26551863480E+03 -0.17922398132E+01  0.42738302964E+03  0.50314969102E+03  0.00000000000E+00 0.  1.
<mgrwt>
<rscale>  0 0.17118748E+04</rscale>
<asrwt>0</asrwt>
<pdfrwt beam="1">  1        1 0.27919951E+00 0.17118748E+04</pdfrwt>
<pdfrwt beam="2">  1       -1 0.62107296E-01 0.17118748E+04</pdfrwt>
<totfact> 0.99513572E+00</totfact>
</mgrwt>
</event>
<event>
12    1  0.4802930E-008  0.1864552E+04  0.7818608E-02  0.8672705E-01
         -1   -1    0    0    0  501 -0.00000000000E+00  0.00000000000E+00  0.44138231123E+03  0.44138231123E+03  0.00000000000E+00 0.  1.
          1   -1    0    0  501    0  0.00000000000E+00 -0.00000000000E+00 -0.19691277893E+04  0.19691277893E+04  0.00000000000E+00 0. -1.
         23    2    1    2    0    0 -0.12304443141E+03  0.18370055145E+03  0.29011552170E+03  0.37510085718E+03  0.87451771985E+02 0.  0.
        254    2    1    2    0    0  0.12304443141E+03 -0.18370055145E+03 -0.18178609998E+04  0.20354092433E+04  0.88847416883E+03 0.  0.
         23    2    4    4    0    0  0.14001499343E+03 -0.35409104748E+02  0.36870158815E+02  0.17232807967E+03  0.86484422564E+02 0.  0.
         23    2    4    4    0    0 -0.16970562017E+02 -0.14829144670E+03 -0.18547311586E+04  0.18630811637E+04  0.93623707849E+02 0.  0.
         13    1    3    3    0    0 -0.22643413563E+02  0.47135819386E+02  0.19551666169E+02  0.55828104902E+02  0.00000000000E+00 0. -1.
        -13    1    3    3    0    0 -0.10040101785E+03  0.13656473206E+03  0.27056385553E+03  0.31927275228E+03  0.00000000000E+00 0.  1.
          4    1    5    5  502    0  0.21760466163E+02  0.18939341300E+02 -0.14651217102E+02  0.32355443114E+02  0.00000000000E+00 0. -1.
          1    1    6    6  503    0  0.36074463881E+02 -0.33260012453E+02 -0.46006221034E+03  0.46267140905E+03  0.00000000000E+00 0. -1.
         -4    1    5    5    0  502  0.11825452727E+03 -0.54348446049E+02  0.51521375917E+02  0.13997263655E+03  0.00000000000E+00 0.  1.
         -1    1    6    6    0  503 -0.53045025898E+02 -0.11503143425E+03 -0.13946689482E+04  0.14004097546E+04  0.00000000000E+00 0.  1.
<mgrwt>
<rscale>  0 0.18645516E+04</rscale>
<asrwt>0</asrwt>
<pdfrwt beam="1">  1        1 0.30294273E+00 0.18645516E+04</pdfrwt>
<pdfrwt beam="2">  1       -1 0.67904971E-01 0.18645516E+04</pdfrwt>
<totfact> 0.64442985E+00</totfact>
</mgrwt>
</event>
<event>
12    1  0.4802930E-008  0.1905658E+04  0.7818608E-02  0.8652045E-01
         -2   -1    0    0    0  501 -0.00000000000E+00  0.00000000000E+00  0.65006472333E+03  0.65006472333E+03  0.00000000000E+00 0.  1.
          2   -1    0    0  501    0  0.00000000000E+00 -0.00000000000E+00 -0.13966047539E+04  0.13966047539E+04  0.00000000000E+00 0. -1.
         23    2    1    2    0    0 -0.28404844993E+03  0.37459199607E+03 -0.95544478394E+03  0.10687610288E+04  0.91502547450E+02 0.  0.
        254    2    1    2    0    0  0.28404844993E+03 -0.37459199607E+03  0.20890475339E+03  0.97790844835E+03  0.83166162106E+03 0.  0.
         23    2    4    4    0    0  0.51561314442E+03 -0.37065763794E+03 -0.17149630045E+02  0.64148723511E+03  0.89262330971E+02 0.  0.
         23    2    4    4    0    0 -0.23156469449E+03 -0.39343581322E+01  0.22605438344E+03  0.33642121325E+03  0.91874705666E+02 0.  0.
         11    1    3    3    0    0 -0.23102223971E+03  0.23521890773E+03 -0.64688971425E+03  0.72606164490E+03  0.00000000000E+00 0. -1.
        -11    1    3    3    0    0 -0.53026210228E+02  0.13937308834E+03 -0.30855506969E+03  0.34269938395E+03  0.00000000000E+00 0.  1.
          4    1    5    5  502    0  0.13116055250E+02 -0.19900024566E+02 -0.15948726092E+02  0.28677582656E+02  0.00000000000E+00 0. -1.
          3    1    6    6  503    0 -0.26587828424E+02  0.28901646786E+02  0.54166859817E+02  0.66904906470E+02  0.00000000000E+00 0. -1.
         -4    1    5    5    0  502  0.50249708917E+03 -0.35075761337E+03 -0.12009039535E+01  0.61280965245E+03  0.00000000000E+00 0.  1.
         -3    1    6    6    0  503 -0.20497686607E+03 -0.32836004918E+02  0.17188752362E+03  0.26951630678E+03  0.00000000000E+00 0.  1.
<mgrwt>
<rscale>  0 0.19056584E+04</rscale>
<asrwt>0</asrwt>
<pdfrwt beam="1">  1        2 0.21486227E+00 0.19056584E+04</pdfrwt>
<pdfrwt beam="2">  1       -2 0.10000996E+00 0.19056584E+04</pdfrwt>
<totfact> 0.11238817E+01</totfact>
</mgrwt>
</event>
<event>
12    1  0.4802930E-008  0.3195516E+04  0.7818608E-02  0.8190002E-01
          1   -1    0    0  501    0  0.00000000000E+00  0.00000000000E+00  0.30011129601E+04  0.30011129601E+04  0.00000000000E+00 0. -1.
         -1   -1    0    0    0  501 -0.00000000000E+00 -0.00000000000E+00 -0.85062816438E+03  0.85062816438E+03  0.00000000000E+00 0.  1.
         23    2    1    2    0    0  0.55558666781E+03  0.13537534114E+04  0.11616820436E+04  0.18708562329E+04  0.96296570699E+02 0.  0.
        254    2    1    2    0    0 -0.55558666781E+03 -0.13537534114E+04  0.98880275211E+03  0.19808848915E+04  0.89713389552E+03 0.  0.
         23    2    4    4    0    0 -0.43888802626E+03 -0.30433655920E+03  0.69576138958E+03  0.88143371898E+03  0.87166787648E+02 0.  0.
         23    2    4    4    0    0 -0.11669864155E+03 -0.10494168522E+04  0.29304136253E+03  0.10994511725E+04  0.89584250686E+02 0.  0.
         11    1    3    3    0    0  0.18536678243E+03  0.40873980980E+03  0.40973370863E+03  0.60770946029E+03  0.00000000000E+00 0.  1.
        -11    1    3    3    0    0  0.37021988538E+03  0.94501360163E+03  0.75194833495E+03  0.12631467726E+04  0.00000000000E+00 0. -1.
          1    1    5    5  502    0 -0.43900497634E+03 -0.28852021892E+03  0.67597327895E+03  0.85610113878E+03  0.00000000000E+00 0. -1.
          3    1    6    6  503    0 -0.12701248430E+03 -0.10071485707E+04  0.27099208688E+03  0.10506746051E+04  0.00000000000E+00 0. -1.
         -1    1    5    5    0  502  0.11695007908E+00 -0.15816340276E+02  0.19788110632E+02  0.25332580197E+02  0.00000000000E+00 0.  1.
         -3    1    6    6    0  503  0.10313842749E+02 -0.42268281522E+02  0.22049275651E+02  0.48776567446E+02  0.00000000000E+00 0.  1.
<mgrwt>
<rscale>  0 0.31955164E+04</rscale>
<asrwt>0</asrwt>
<pdfrwt beam="1">  1        1 0.46170968E+00 0.31955164E+04</pdfrwt>
<pdfrwt beam="2">  1       -1 0.13086587E+00 0.31955164E+04</pdfrwt>
<totfact> 0.24881594E-01</totfact>
</mgrwt>
</event>
<event>
12    1  0.4802930E-008  0.2235579E+04  0.7818608E-02  0.8503764E-01
          2   -1    0    0  501    0  0.00000000000E+00  0.00000000000E+00  0.21023799465E+04  0.21023799465E+04  0.00000000000E+00 0. -1.
         -2   -1    0    0    0  501 -0.00000000000E+00 -0.00000000000E+00 -0.59430409738E+03  0.59430409738E+03  0.00000000000E+00 0.  1.
         23    2    1    2    0    0 -0.84308399429E+03 -0.86678594993E+02  0.11029380698E+04  0.13945390219E+04  0.99814314778E+02 0.  0.
        254    2    1    2    0    0  0.84308399429E+03  0.86678594993E+02  0.40513777928E+03  0.13021450220E+04  0.90174344346E+03 0.  0.
         23    2    4    4    0    0  0.25777751829E+03  0.40042182773E+03  0.40382720315E+03  0.63087794616E+03  0.90242361957E+02 0.  0.
         23    2    4    4    0    0  0.58530647600E+03 -0.31374323273E+03  0.13105761315E+01  0.67126707583E+03  0.97873809284E+02 0.  0.
         11    1    3    3    0    0 -0.11752800874E+03 -0.46011788696E+02  0.14708599290E+03  0.19381487777E+03  0.00000000000E+00 0.  1.
        -11    1    3    3    0    0 -0.72555598555E+03 -0.40666806297E+02  0.95585207693E+03  0.12007241441E+04  0.00000000000E+00 0. -1.
          1    1    5    5  502    0  0.19510282718E+03  0.33785653974E+03  0.36471070456E+03  0.53406558833E+03  0.00000000000E+00 0. -1.
          1    1    6    6  503    0  0.36354656482E+03 -0.15848524216E+03 -0.35017344020E+02  0.39813300686E+03  0.00000000000E+00 0. -1.
         -1    1    5    5    0  502  0.62674691110E+02  0.62565287989E+02  0.39116498591E+02  0.96812357832E+02  0.00000000000E+00 0.  1.
         -1    1    6    6    0  503  0.22175991118E+03 -0.15525799057E+03  0.36327920152E+02  0.27313406896E+03  0.00000000000E+00 0.  1.
<mgrwt>
<rscale>  0 0.22355787E+04</rscale>
<asrwt>0</asrwt>
<pdfrwt beam="1">  1        2 0.32344307E+00 0.22355787E+04</pdfrwt>
<pdfrwt beam="2">  1       -2 0.91431401E-01 0.22355787E+04</pdfrwt>
<totfact> 0.54391541E+00</totfact>
</mgrwt>
</event>
<event>
12    1  0.4802930E-008  0.2158224E+04  0.7818608E-02  0.8536020E-01
         -2   -1    0    0    0  501 -0.00000000000E+00  0.00000000000E+00  0.18460629088E+04  0.18460629088E+04  0.00000000000E+00 0. -1.
          2   -1    0    0  501    0  0.00000000000E+00 -0.00000000000E+00 -0.63079255443E+03  0.63079255443E+03  0.00000000000E+00 0.  1.
         23    2    1    2    0    0  0.55872191124E+03  0.59566795101E+02 -0.29617356296E+03  0.64174894172E+03  0.91676319864E+02 0.  0.
        254    2    1    2    0    0 -0.55872191124E+03 -0.59566795101E+02  0.15114439173E+04  0.18351065215E+04  0.87603359119E+03 0.  0.
         23    2    4    4    0    0 -0.46240445941E+03 -0.42663341056E+03  0.78096538591E+03  0.10070179550E+04  0.91347012467E+02 0.  0.
         23    2    4    4    0    0 -0.96317451823E+02  0.36706661546E+03  0.73047853143E+03  0.82808856648E+03  0.90093492278E+02 0.  0.
         13    1    3    3    0    0  0.26095591532E+03  0.54022714793E+02 -0.18242549165E+03  0.32294814361E+03  0.00000000000E+00 0. -1.
        -13    1    3    3    0    0  0.29776599592E+03  0.55440803086E+01 -0.11374807131E+03  0.31880079811E+03  0.00000000000E+00 0.  1.
          1    1    5    5  502    0 -0.18683525002E+03 -0.14026556411E+03  0.23157538587E+03  0.32895136186E+03  0.00000000000E+00 0. -1.
          3    1    6    6  503    0 -0.16462775586E+02  0.15703367168E+03  0.38319789439E+03  0.41445292047E+03  0.00000000000E+00 0. -1.
         -1    1    5    5    0  502 -0.27556920939E+03 -0.28636784645E+03  0.54939000004E+03  0.67806659318E+03  0.00000000000E+00 0.  1.
         -3    1    6    6    0  503 -0.79854676237E+02  0.21003294378E+03  0.34728063703E+03  0.41363564601E+03  0.00000000000E+00 0.  1.
<mgrwt>
<rscale>  0 0.21582240E+04</rscale>
<asrwt>0</asrwt>
<pdfrwt beam="1">  1        2 0.97045009E-01 0.21582240E+04</pdfrwt>
<pdfrwt beam="2">  1       -2 0.28400968E+00 0.21582240E+04</pdfrwt>
<totfact> 0.17039976E+00</totfact>
</mgrwt>
</event>
<event>
12    1  0.4802930E-008  0.2336770E+04  0.7818608E-02  0.8463563E-01
         -2   -1    0    0    0  501 -0.00000000000E+00  0.00000000000E+00  0.10063021597E+04  0.10063021597E+04  0.00000000000E+00 0.  1.
          2   -1    0    0  501    0  0.00000000000E+00 -0.00000000000E+00 -0.13565742536E+04  0.13565742536E+04  0.00000000000E+00 0. -1.
         23    2    1    2    0    0 -0.43901839258E+03 -0.73299907211E+02  0.74498031478E+03  0.87236958277E+03  0.89011202241E+02 0.  0.
        254    2    1    2    0    0  0.43901839258E+03  0.73299907211E+02 -0.10952524087E+04  0.14905068305E+04  0.90770190459E+03 0.  0.
         23    2    4    4    0    0  0.58776718011E+03  0.88561586128E+02 -0.29208196835E+03  0.66873631075E+03  0.92644290319E+02 0.  0.
         23    2    4    4    0    0 -0.14874878754E+03 -0.15261678918E+02 -0.80317044037E+03  0.82177051977E+03  0.88684329143E+02 0.  0.
         13    1    3    3    0    0 -0.43354755535E+03 -0.60859541568E+02  0.70234412001E+03  0.82761985806E+03  0.00000000000E+00 0.  1.
        -13    1    3    3    0    0 -0.54708372273E+01 -0.12440365643E+02  0.42636194768E+02  0.44749724710E+02  0.00000000000E+00 0. -1.
          1    1    5    5  502    0  0.29936184043E+03  0.49496067115E+02 -0.97756701251E+02  0.31878479387E+03  0.00000000000E+00 0.  1.
          3    1    6    6  503    0 -0.32380242658E+01 -0.19383721861E+02 -0.21330910359E+03  0.21421248131E+03  0.00000000000E+00 0. -1.
         -1    1    5    5    0  502  0.28840533968E+03  0.39065519013E+02 -0.19432526710E+03  0.34995151688E+03  0.00000000000E+00 0. -1.
         -3    1    6    6    0  503 -0.14551076327E+03  0.41220429439E+01 -0.58986133678E+03  0.60755803846E+03  0.00000000000E+00 0.  1.
<mgrwt>
<rscale>  0 0.23367701E+04</rscale>
<asrwt>0</asrwt>
<pdfrwt beam="1">  1        2 0.20870373E+00 0.23367701E+04</pdfrwt>
<pdfrwt beam="2">  1       -2 0.15481572E+00 0.23367701E+04</pdfrwt>
<totfact> 0.38160156E+00</totfact>
</mgrwt>
</event>
<event>
12    1  0.4802930E-008  0.1451449E+04  0.7818608E-02  0.8917396E-01
         -1   -1    0    0    0  501 -0.00000000000E+00  0.00000000000E+00  0.12417699837E+04  0.12417699837E+04  0.00000000000E+00 0.  1.
          1   -1    0    0  501    0  0.00000000000E+00 -0.00000000000E+00 -0.42413361973E+03  0.42413361973E+03  0.00000000000E+00 0. -1.
         23    2    1    2    0    0 -0.21634721732E+03  0.42737247136E+02  0.72747159216E+03  0.76549214476E+03  0.90170480530E+02 0.  0.
        254    2    1    2    0    0  0.21634721732E+03 -0.42737247136E+02  0.90164771789E+02  0.90041145864E+03  0.86831936408E+03 0.  0.
         23    2    4    4    0    0  0.11015840001E+03  0.36005130675E+03 -0.14366029181E+03  0.41288381910E+03  0.89793942119E+02 0.  0.
         23    2    4    4    0    0  0.10618881730E+03 -0.40278855389E+03  0.23382506360E+03  0.48752763954E+03  0.97438980307E+02 0.  0.
         11    1    3    3    0    0  0.41134924596E+01  0.87644757852E+01  0.81886482950E+02  0.82456855057E+02  0.00000000000E+00 0. -1.
        -11    1    3    3    0    0 -0.22046070978E+03  0.33972771351E+02  0.64558510921E+03  0.68303528971E+03  0.00000000000E+00 0.  1.
          2    1    5    5  502    0  0.74426061410E+02  0.12080849247E+03 -0.27467028921E+02  0.14452808775E+03  0.00000000000E+00 0.  1.
          4    1    6    6  503    0 -0.48524544739E+01 -0.84699158193E+02  0.81984034314E+02  0.11797828442E+03  0.00000000000E+00 0.  1.
         -2    1    5    5    0  502  0.35732338603E+02  0.23924281428E+03 -0.11619326289E+03  0.26835573135E+03  0.00000000000E+00 0. -1.
         -4    1    6    6    0  503  0.11104127178E+03 -0.31808939570E+03  0.15184102928E+03  0.36954935512E+03  0.00000000000E+00 0. -1.
<mgrwt>
<rscale>  0 0.14514495E+04</rscale>
<asrwt>0</asrwt>
<pdfrwt beam="1">  1        1 0.65251327E-01 0.14514495E+04</pdfrwt>
<pdfrwt beam="2">  1       -1 0.19104153E+00 0.14514495E+04</pdfrwt>
<totfact> 0.93576648E+00</totfact>
</mgrwt>
</event>
<event>
12    1  0.4802930E-008  0.1912404E+04  0.7818608E-02  0.8648706E-01
         -2   -1    0    0    0  501 -0.00000000000E+00  0.00000000000E+00  0.18100225705E+04  0.18100225705E+04  0.00000000000E+00 0.  1.
          2   -1    0    0  501    0  0.00000000000E+00 -0.00000000000E+00 -0.50514437976E+03  0.50514437976E+03  0.00000000000E+00 0. -1.
         23    2    1    2    0    0  0.38440603967E+03 -0.61142866461E+03  0.71619758404E+03  0.10213061343E+04  0.92272560425E+02 0.  0.
        254    2    1    2    0    0 -0.38440603967E+03  0.61142866461E+03  0.58868060665E+03  0.12938608159E+04  0.89772932389E+03 0.  0.
         23    2    4    4    0    0  0.51564968193E+02  0.31067536254E+03  0.67399356350E+03  0.74933369576E+03  0.89752644107E+02 0.  0.
         23    2    4    4    0    0 -0.43597100786E+03  0.30075330207E+03 -0.85312956847E+02  0.54452712012E+03  0.93317820044E+02 0.  0.
         11    1    3    3    0    0  0.31943907834E+03 -0.50192204515E+03  0.63563771950E+03  0.87063331812E+03  0.00000000000E+00 0. -1.
        -11    1    3    3    0    0  0.64966961331E+02 -0.10950661947E+03  0.80559864537E+02  0.15067281621E+03  0.00000000000E+00 0.  1.
          2    1    5    5  502    0 -0.11205363403E+02  0.15477596188E+03  0.26398347781E+03  0.30621632076E+03  0.00000000000E+00 0. -1.
          4    1    6    6  503    0 -0.14148859592E+03  0.61784901870E+02 -0.55693573684E+02  0.16412851983E+03  0.00000000000E+00 0. -1.
         -2    1    5    5    0  502  0.62770331597E+02  0.15589940066E+03  0.41001008569E+03  0.44311737500E+03  0.00000000000E+00 0.  1.
         -4    1    6    6    0  503 -0.29448241195E+03  0.23896840021E+03 -0.29619383163E+02  0.38039860029E+03  0.00000000000E+00 0.  1.
<mgrwt>
<rscale>  0 0.19124045E+04</rscale>
<asrwt>0</asrwt>
<pdfrwt beam="1">  1        2 0.77714521E-01 0.19124045E+04</pdfrwt>
<pdfrwt beam="2">  1       -2 0.27846501E+00 0.19124045E+04</pdfrwt>
<totfact> 0.24512868E+00</totfact>
</mgrwt>
</event>
<event>
12    1  0.4802930E-008  0.1162480E+04  0.7818608E-02  0.9146347E-01
         -2   -1    0    0    0  501 -0.00000000000E+00  0.00000000000E+00  0.87865510960E+03  0.87865510960E+03  0.00000000000E+00 0.  1.
          2   -1    0    0  501    0  0.00000000000E+00 -0.00000000000E+00 -0.38449669243E+03  0.38449669243E+03  0.00000000000E+00 0. -1.
         23    2    1    2    0    0 -0.10642488482E+03 -0.10860343927E+03  0.26758364464E+03  0.32145926682E+03  0.92812123204E+02 0.  0.
        254    2    1    2    0    0  0.10642488482E+03  0.10860343927E+03  0.22657477252E+03  0.94169253521E+03  0.90129226126E+03 0.  0.
         23    2    4    4    0    0  0.62713436101E+02 -0.28150036489E+03  0.39978454217E+03  0.50082386192E+03  0.88438848963E+02 0.  0.
         23    2    4    4    0    0  0.43711448721E+02  0.39010380416E+03 -0.17320976965E+03  0.44086867329E+03  0.10135035283E+03 0.  0.
         11    1    3    3    0    0 -0.21608502483E+02  0.35361185411E+00  0.14763650904E+01  0.21661765274E+02  0.00000000000E+00 0. -1.
        -11    1    3    3    0    0 -0.84816382338E+02 -0.10895705112E+03  0.26610727955E+03  0.29979750154E+03  0.00000000000E+00 0.  1.
          4    1    5    5  502    0 -0.13583813316E+02 -0.74109094623E+01  0.10694244175E+02  0.18809795898E+02  0.00000000000E+00 0. -1.
          1    1    6    6  503    0  0.26893260961E+02  0.27435748780E+02 -0.36297322193E+02  0.52853225016E+02  0.00000000000E+00 0. -1.
         -4    1    5    5    0  502  0.76297249417E+02 -0.27408945543E+03  0.38909029800E+03  0.48201406602E+03  0.00000000000E+00 0.  1.
         -1    1    6    6    0  503  0.16818187760E+02  0.36266805538E+03 -0.13691244746E+03  0.38801544828E+03  0.00000000000E+00 0.  1.
<mgrwt>
<rscale>  0 0.11624801E+04</rscale>
<asrwt>0</asrwt>
<pdfrwt beam="1">  1        2 0.59153337E-01 0.11624801E+04</pdfrwt>
<pdfrwt beam="2">  1       -2 0.13517771E+00 0.11624801E+04</pdfrwt>
<totfact> 0.32309859E+01</totfact>
</mgrwt>
</event>
<event>
12    1  0.4802930E-008  0.2187259E+04  0.7818608E-02  0.8523750E-01
          1   -1    0    0  501    0  0.00000000000E+00  0.00000000000E+00  0.14884003487E+04  0.14884003487E+04  0.00000000000E+00 0. -1.
         -1   -1    0    0    0  501 -0.00000000000E+00 -0.00000000000E+00 -0.80356405613E+03  0.80356405613E+03  0.00000000000E+00 0.  1.
         23    2    1    2    0    0 -0.46071490780E+03 -0.17946733427E+03 -0.51084674049E+03  0.71630157176E+03  0.87503137644E+02 0.  0.
        254    2    1    2    0    0  0.46071490780E+03  0.17946733427E+03  0.11956830330E+04  0.15756628330E+04  0.89921560130E+03 0.  0.
         23    2    4    4    0    0  0.18993265209E+03  0.45730978471E+03  0.27778049714E+03  0.57594361220E+03  0.96656030968E+02 0.  0.
         23    2    4    4    0    0  0.27078225571E+03 -0.27784245043E+03  0.91790253589E+03  0.99971922085E+03  0.79837321279E+02 0.  0.
         11    1    3    3    0    0 -0.25158276485E+03 -0.12718290465E+03 -0.33704267262E+03  0.43939406229E+03  0.00000000000E+00 0. -1.
        -11    1    3    3    0    0 -0.20913214295E+03 -0.52284429625E+02 -0.17380406787E+03  0.27690750947E+03  0.00000000000E+00 0.  1.
          1    1    5    5  502    0  0.74728804030E+02  0.81312006816E+02  0.47393148299E+02  0.12017548465E+03  0.00000000000E+00 0. -1.
          3    1    6    6  503    0  0.12576581381E+03 -0.16549636073E+03  0.56428633137E+03  0.60135276595E+03  0.00000000000E+00 0. -1.
         -1    1    5    5    0  502  0.11520384806E+03  0.37599777789E+03  0.23038734884E+03  0.45576812755E+03  0.00000000000E+00 0.  1.
         -3    1    6    6    0  503  0.14501644190E+03 -0.11234608970E+03  0.35361620452E+03  0.39836645490E+03  0.00000000000E+00 0.  1.
<mgrwt>
<rscale>  0 0.21872586E+04</rscale>
<asrwt>0</asrwt>
<pdfrwt beam="1">  1        1 0.22898467E+00 0.21872586E+04</pdfrwt>
<pdfrwt beam="2">  1       -1 0.12362524E+00 0.21872586E+04</pdfrwt>
<totfact> 0.34989347E+00</totfact>
</mgrwt>
</event>
<event>
12    1  0.4802930E-008  0.2604779E+04  0.7818608E-02  0.8366580E-01
          2   -1    0    0  501    0  0.00000000000E+00  0.00000000000E+00  0.22065248698E+04  0.22065248698E+04  0.00000000000E+00 0.  1.
         -2   -1    0    0    0  501 -0.00000000000E+00 -0.00000000000E+00 -0.76872839468E+03  0.76872839468E+03  0.00000000000E+00 0. -1.
         23    2    1    2    0    0  0.20121557732E+03  0.86138280907E+03 -0.19671842872E+03  0.91117084345E+03  0.95216140712E+02 0.  0.
        254    2    1    2    0    0 -0.20121557732E+03 -0.86138280907E+03  0.16345149038E+04  0.20640824210E+04  0.89795836073E+03 0.  0.
         23    2    4    4    0    0  0.98076296226E+02 -0.92693706995E+03  0.11383037225E+04  0.14739622459E+04  0.89431795605E+02 0.  0.
         23    2    4    4    0    0 -0.29929187354E+03  0.65554260881E+02  0.49621118132E+03  0.59012017514E+03  0.90240223591E+02 0.  0.
         11    1    3    3    0    0  0.16553617067E+03  0.74750901247E+03 -0.20167534873E+03  0.79173536854E+03  0.00000000000E+00 0. -1.
        -11    1    3    3    0    0  0.35679406647E+02  0.11387379660E+03  0.49569200109E+01  0.11943547491E+03  0.00000000000E+00 0.  1.
          2    1    5    5  502    0  0.11042820626E+03 -0.85470885215E+03  0.10687208978E+04  0.13729114932E+04  0.00000000000E+00 0. -1.
          3    1    6    6  503    0 -0.28701798244E+03  0.43081854688E+02  0.47597556990E+03  0.55748373213E+03  0.00000000000E+00 0. -1.
         -2    1    5    5    0  502 -0.12351910031E+02 -0.72228217794E+02  0.69582824674E+02  0.10105075268E+03  0.00000000000E+00 0.  1.
         -3    1    6    6    0  503 -0.12273891098E+02  0.22472406193E+02  0.20235611419E+02  0.32636443009E+02  0.00000000000E+00 0.  1.
<mgrwt>
<rscale>  0 0.26047789E+04</rscale>
<asrwt>0</asrwt>
<pdfrwt beam="1">  1        2 0.33946536E+00 0.26047789E+04</pdfrwt>
<pdfrwt beam="2">  1       -2 0.11826591E+00 0.26047789E+04</pdfrwt>
<totfact> 0.24922949E+00</totfact>
</mgrwt>
</event>
<event>
12    1  0.4802930E-008  0.1549908E+04  0.7818608E-02  0.8851926E-01
          1   -1    0    0  501    0  0.00000000000E+00  0.00000000000E+00  0.43106742416E+03  0.43106742416E+03  0.00000000000E+00 0. -1.
         -1   -1    0    0    0  501 -0.00000000000E+00 -0.00000000000E+00 -0.13931783868E+04  0.13931783868E+04  0.00000000000E+00 0.  1.
         23    2    1    2    0    0  0.19163927504E+03  0.40151393687E+03 -0.60609734989E+03  0.75800509827E+03  0.96325895931E+02 0.  0.
        254    2    1    2    0    0 -0.19163927504E+03 -0.40151393687E+03 -0.35601361270E+03  0.10662407126E+04  0.90121280040E+03 0.  0.
         23    2    4    4    0    0  0.40725769228E+02 -0.64662332765E+03 -0.24810700187E+03  0.69980412916E+03  0.91588310814E+02 0.  0.
         23    2    4    4    0    0 -0.23236504427E+03  0.24510939078E+03 -0.10790661083E+03  0.36643658347E+03  0.92519218547E+02 0.  0.
         11    1    3    3    0    0  0.19582762276E+03  0.34325509897E+03 -0.54792209395E+03  0.67556727411E+03  0.00000000000E+00 0.  1.
        -11    1    3    3    0    0 -0.41883477189E+01  0.58258837895E+02 -0.58175255941E+02  0.82437824166E+02  0.00000000000E+00 0. -1.
          1    1    6    6  502    0 -0.40021788872E+02  0.87280173119E+01 -0.33038314296E+02  0.52625583913E+02  0.00000000000E+00 0. -1.
          1    1    5    5  503    0  0.31538509444E+02 -0.10789270653E+03 -0.69526942548E+02  0.13217227183E+03  0.00000000000E+00 0. -1.
         -1    1    5    5    0  503  0.91872597840E+01 -0.53873062112E+03 -0.17858005932E+03  0.56763185733E+03  0.00000000000E+00 0.  1.
         -1    1    6    6    0  502 -0.19234325540E+03  0.23638137347E+03 -0.74868296535E+02  0.31381099956E+03  0.00000000000E+00 0.  1.
<mgrwt>
<rscale>  0 0.15499082E+04</rscale>
<asrwt>0</asrwt>
<pdfrwt beam="1">  1        1 0.66318066E-01 0.15499082E+04</pdfrwt>
<pdfrwt beam="2">  1       -1 0.21433513E+00 0.15499082E+04</pdfrwt>
<totfact> 0.62814726E+00</totfact>
</mgrwt>
</event>
<event>
12    1  0.4802930E-008  0.1139788E+04  0.7818608E-02  0.9167256E-01
         -1   -1    0    0    0  501 -0.00000000000E+00  0.00000000000E+00  0.31295095564E+03  0.31295095564E+03  0.00000000000E+00 0.  1.
          1   -1    0    0  501    0  0.00000000000E+00 -0.00000000000E+00 -0.10377960356E+04  0.10377960356E+04  0.00000000000E+00 0. -1.
         23    2    1    2    0    0  0.18732928452E+03  0.58495637182E+02 -0.13937234541E+03  0.25745299586E+03  0.91342180860E+02 0.  0.
        254    2    1    2    0    0 -0.18732928452E+03 -0.58495637182E+02 -0.58547273458E+03  0.10932939954E+04  0.90221917351E+03 0.  0.
         23    2    4    4    0    0 -0.41385343772E+03  0.51222274405E+02  0.23974913028E+02  0.42755116112E+03  0.91251354002E+02 0.  0.
         23    2    4    4    0    0  0.22652415321E+03 -0.10971791159E+03 -0.60944764760E+03  0.66574283429E+03  0.91847014807E+02 0.  0.
         11    1    3    3    0    0  0.32507780557E+02  0.37566725266E+02 -0.71623369203E+02  0.87166057958E+02  0.00000000000E+00 0. -1.
        -11    1    3    3    0    0  0.15482150396E+03  0.20928911917E+02 -0.67748976211E+02  0.17028693790E+03  0.00000000000E+00 0.  1.
          3    1    6    6  502    0  0.13892714134E+03 -0.16798189290E+02 -0.33414899438E+03  0.36226851948E+03  0.00000000000E+00 0. -1.
          3    1    5    5  503    0 -0.19296197157E+03  0.11167496810E+02 -0.32657535218E+02  0.19602436089E+03  0.00000000000E+00 0. -1.
         -3    1    5    5    0  503 -0.22089146616E+03  0.40054777595E+02  0.56632448246E+02  0.23152680023E+03  0.00000000000E+00 0.  1.
         -3    1    6    6    0  502  0.87597011870E+02 -0.92919722297E+02 -0.27529865323E+03  0.30347431481E+03  0.00000000000E+00 0.  1.
<mgrwt>
<rscale>  0 0.11397882E+04</rscale>
<asrwt>0</asrwt>
<pdfrwt beam="1">  1        1 0.15966093E+00 0.11397882E+04</pdfrwt>
<pdfrwt beam="2">  1       -1 0.48146300E-01 0.11397882E+04</pdfrwt>
<totfact> 0.60588650E+01</totfact>
</mgrwt>
</event>
<event>
12    1  0.4802930E-008  0.1817252E+04  0.7818608E-02  0.8697178E-01
         -1   -1    0    0    0  501 -0.00000000000E+00  0.00000000000E+00  0.45012239551E+03  0.45012239551E+03  0.00000000000E+00 0.  1.
          1   -1    0    0  501    0  0.00000000000E+00 -0.00000000000E+00 -0.18341713954E+04  0.18341713954E+04  0.00000000000E+00 0. -1.
         23    2    1    2    0    0  0.46502117691E+03 -0.11388938780E+03 -0.11398137113E+04  0.12396150766E+04  0.90855676473E+02 0.  0.
        254    2    1    2    0    0 -0.46502117691E+03  0.11388938780E+03 -0.24423528861E+03  0.10446787144E+04  0.89581652833E+03 0.  0.
         23    2    4    4    0    0  0.22352712277E+03  0.20130649578E+03 -0.98642437399E+02  0.32956748401E+03  0.91628140907E+02 0.  0.
         23    2    4    4    0    0 -0.68854829969E+03 -0.87417107977E+02 -0.14559285121E+03  0.71511123036E+03  0.91903654405E+02 0.  0.
         11    1    3    3    0    0  0.27857158954E+03 -0.50978232825E+02 -0.56402260824E+03  0.63112788983E+03  0.00000000000E+00 0. -1.
        -11    1    3    3    0    0  0.18644958738E+03 -0.62911154974E+02 -0.57579110307E+03  0.60848718674E+03  0.00000000000E+00 0.  1.
          1    1    5    5  502    0  0.11618040987E+03  0.15207213379E+03 -0.32207059537E+02  0.19406472167E+03  0.00000000000E+00 0. -1.
          3    1    6    6  503    0 -0.36054086936E+03 -0.88836614447E+02 -0.94336246900E+02  0.38312007259E+03  0.00000000000E+00 0. -1.
         -1    1    5    5    0  502  0.10734671290E+03  0.49234361990E+02 -0.66435377863E+02  0.13550276235E+03  0.00000000000E+00 0.  1.
         -3    1    6    6    0  503 -0.32800743033E+03  0.14195064707E+01 -0.51256604306E+02  0.33199115776E+03  0.00000000000E+00 0.  1.
<mgrwt>
<rscale>  0 0.18172525E+04</rscale>
<asrwt>0</asrwt>
<pdfrwt beam="1">  1        1 0.28218021E+00 0.18172525E+04</pdfrwt>
<pdfrwt beam="2">  1       -1 0.69249600E-01 0.18172525E+04</pdfrwt>
<totfact> 0.76753488E+00</totfact>
</mgrwt>
</event>
<event>
12    1  0.4802930E-008  0.1710178E+04  0.7818608E-02  0.8755581E-01
         -1   -1    0    0    0  501 -0.00000000000E+00  0.00000000000E+00  0.20283319564E+03  0.20283319564E+03  0.00000000000E+00 0.  1.
          1   -1    0    0  501    0  0.00000000000E+00 -0.00000000000E+00 -0.36048196189E+04  0.36048196189E+04  0.00000000000E+00 0. -1.
         23    2    1    2    0    0  0.83637516673E+02  0.48899016303E+03 -0.46446556875E+03  0.68579395313E+03  0.92078596057E+02 0.  0.
        254    2    1    2    0    0 -0.83637516673E+02 -0.48899016303E+03 -0.29375208545E+04  0.31218588614E+04  0.93320274656E+03 0.  0.
         23    2    4    4    0    0 -0.33986794174E+03 -0.35009598321E+03 -0.26700632555E+04  0.27159164356E+04  0.94270257043E+02 0.  0.
         23    2    4    4    0    0  0.25623042507E+03 -0.13889417982E+03 -0.26745759904E+03  0.40594242587E+03  0.91159541031E+02 0.  0.
         11    1    3    3    0    0  0.54163035055E+02  0.45430256065E+03 -0.40590824808E+03  0.61162566725E+03  0.00000000000E+00 0.  1.
        -11    1    3    3    0    0  0.29474481618E+02  0.34687602381E+02 -0.58557320670E+02  0.74168285875E+02  0.00000000000E+00 0. -1.
          1    1    5    5  502    0 -0.29928797704E+03 -0.34360840505E+03 -0.24687515819E+04  0.25104530273E+04  0.00000000000E+00 0. -1.
          3    1    6    6  503    0  0.15020338251E+03 -0.46106517032E+02 -0.96424097361E+02  0.18434878243E+03  0.00000000000E+00 0. -1.
         -1    1    5    5    0  502 -0.40579964703E+02 -0.64875781647E+01 -0.20131167357E+03  0.20546340823E+03  0.00000000000E+00 0.  1.
         -3    1    6    6    0  503  0.10602704256E+03 -0.92787662786E+02 -0.17103350168E+03  0.22159364345E+03  0.00000000000E+00 0.  1.
<mgrwt>
<rscale>  0 0.17101779E+04</rscale>
<asrwt>0</asrwt>
<pdfrwt beam="1">  1        1 0.55458763E+00 0.17101779E+04</pdfrwt>
<pdfrwt beam="2">  1       -1 0.31205107E-01 0.17101779E+04</pdfrwt>
<totfact> 0.18827823E+00</totfact>
</mgrwt>
</event>
<event>
12    1  0.4802930E-008  0.1781709E+04  0.7818608E-02  0.8716087E-01
          2   -1    0    0  501    0  0.00000000000E+00  0.00000000000E+00  0.72039313761E+03  0.72039313761E+03  0.00000000000E+00 0.  1.
         -2   -1    0    0    0  501 -0.00000000000E+00 -0.00000000000E+00 -0.11016505995E+04  0.11016505995E+04  0.00000000000E+00 0. -1.
         23    2    1    2    0    0  0.21403888795E+03  0.51696835894E+03  0.22118973839E+03  0.60854260805E+03  0.91270344299E+02 0.  0.
        254    2    1    2    0    0 -0.21403888795E+03 -0.51696835894E+03 -0.60244720027E+03  0.12135011291E+04  0.89250962539E+03 0.  0.
         23    2    4    4    0    0  0.24040395763E+03 -0.93048134618E+02 -0.50941617270E+03  0.57837566219E+03  0.92528651809E+02 0.  0.
         23    2    4    4    0    0 -0.45444284558E+03 -0.42392022432E+03 -0.93031027567E+02  0.63512546686E+03  0.92211333807E+02 0.  0.
         11    1    3    3    0    0  0.80521120696E+02  0.28910861949E+03  0.87922419095E+02  0.31272639243E+03  0.00000000000E+00 0.  1.
        -11    1    3    3    0    0  0.13351776725E+03  0.22785973944E+03  0.13326731930E+03  0.29581621562E+03  0.00000000000E+00 0. -1.
          2    1    5    5  502    0  0.27568436159E+02 -0.45513724528E+02 -0.71125005172E+02  0.88827271451E+02  0.00000000000E+00 0. -1.
          2    1    6    6  503    0 -0.15906719305E+02 -0.23179027690E+02  0.14152352596E+02  0.31473482930E+02  0.00000000000E+00 0. -1.
         -2    1    5    5    0  502  0.21283552147E+03 -0.47534410089E+02 -0.43829116753E+03  0.48954839074E+03  0.00000000000E+00 0.  1.
         -2    1    6    6    0  503 -0.43853612628E+03 -0.40074119663E+03 -0.10718338016E+03  0.60365198393E+03  0.00000000000E+00 0.  1.
<mgrwt>
<rscale>  0 0.17817088E+04</rscale>
<asrwt>0</asrwt>
<pdfrwt beam="1">  1        2 0.11082971E+00 0.17817088E+04</pdfrwt>
<pdfrwt beam="2">  1       -2 0.16948471E+00 0.17817088E+04</pdfrwt>
<totfact> 0.80218625E+00</totfact>
</mgrwt>
</event>
<event>
12    1  0.4802930E-008  0.1531256E+04  0.7818608E-02  0.8863930E-01
          2   -1    0    0  501    0  0.00000000000E+00  0.00000000000E+00  0.24162401021E+04  0.24162401021E+04  0.00000000000E+00 0.  1.
         -2   -1    0    0    0  501 -0.00000000000E+00 -0.00000000000E+00 -0.24260257477E+03  0.24260257477E+03  0.00000000000E+00 0. -1.
         23    2    1    2    0    0 -0.51582064690E+02 -0.21286808496E+02  0.16561026572E+04  0.16596267633E+04  0.92580477180E+02 0.  0.
        254    2    1    2    0    0  0.51582064690E+02  0.21286808496E+02  0.51753487012E+03  0.99921591353E+03  0.85292219015E+03 0.  0.
         23    2    4    4    0    0  0.11684811584E+03  0.15456998389E+03  0.70624938382E+03  0.73789605626E+03  0.90316308607E+02 0.  0.
         23    2    4    4    0    0 -0.65266051150E+02 -0.13328317540E+03 -0.18871451370E+03  0.26131985727E+03  0.10320289650E+03 0.  0.
         11    1    3    3    0    0 -0.29584653795E+02 -0.57460827260E+02  0.11141360964E+04  0.11160090680E+04  0.00000000000E+00 0.  1.
        -11    1    3    3    0    0 -0.21997410896E+02  0.36174018764E+02  0.54196656075E+03  0.54361769534E+03  0.00000000000E+00 0. -1.
          1    1    5    5  502    0  0.12278041255E+03  0.15249457400E+03  0.59321021599E+03  0.62468230739E+03  0.00000000000E+00 0. -1.
          3    1    6    6  503    0 -0.66223324873E+02 -0.13555095234E+03 -0.19957750035E+03  0.25018147030E+03  0.00000000000E+00 0. -1.
         -1    1    5    5    0  502 -0.59322967073E+01  0.20754098924E+01  0.11303916783E+03  0.11321374887E+03  0.00000000000E+00 0.  1.
         -3    1    6    6    0  503  0.95727372348E+00  0.22677769423E+01  0.10862986651E+02  0.11138386967E+02  0.00000000000E+00 0.  1.
<mgrwt>
<rscale>  0 0.15312558E+04</rscale>
<asrwt>0</asrwt>
<pdfrwt beam="1">  1        2 0.37172923E+00 0.15312558E+04</pdfrwt>
<pdfrwt beam="2">  1       -2 0.37323475E-01 0.15312558E+04</pdfrwt>
<totfact> 0.25439512E+01</totfact>
</mgrwt>
</event>
<event>
12    1  0.4802930E-008  0.1789440E+04  0.7818608E-02  0.8711935E-01
          2   -1    0    0  501    0  0.00000000000E+00  0.00000000000E+00  0.13105885197E+04  0.13105885197E+04  0.00000000000E+00 0. -1.
         -2   -1    0    0    0  501 -0.00000000000E+00 -0.00000000000E+00 -0.61081266517E+03  0.61081266517E+03  0.00000000000E+00 0.  1.
         23    2    1    2    0    0 -0.31462854549E+03  0.42851252871E+03 -0.17648200734E+03  0.56765248763E+03  0.92029011154E+02 0.  0.
        254    2    1    2    0    0  0.31462854549E+03 -0.42851252871E+03  0.87625786191E+03  0.13537486973E+04  0.88441708822E+03 0.  0.
         23    2    4    4    0    0  0.18762454764E+03 -0.68278771660E+03  0.73037006470E+03  0.10212859467E+04  0.90457264432E+02 0.  0.
         23    2    4    4    0    0  0.12700399786E+03  0.25427518788E+03  0.14588779722E+03  0.33246275060E+03  0.91991002350E+02 0.  0.
         13    1    3    3    0    0  0.26557243762E+01  0.12968088968E+02  0.51091479726E+01  0.14188995611E+02  0.00000000000E+00 0. -1.
        -13    1    3    3    0    0 -0.31728426987E+03  0.41554443975E+03 -0.18159115531E+03  0.55346349202E+03  0.00000000000E+00 0.  1.
          1    1    5    5  502    0  0.68118175611E+02 -0.24292565917E+03  0.32390621773E+03  0.41057057812E+03  0.00000000000E+00 0. -1.
          3    1    6    6  503    0  0.70010915018E+02  0.68534159141E+02  0.17329899468E+02  0.99492635941E+02  0.00000000000E+00 0. -1.
         -1    1    5    5    0  502  0.11950637203E+03 -0.43986205743E+03  0.40646384697E+03  0.61071536857E+03  0.00000000000E+00 0.  1.
         -3    1    6    6    0  503  0.56993082837E+02  0.18574102874E+03  0.12855789775E+03  0.23297011466E+03  0.00000000000E+00 0.  1.
<mgrwt>
<rscale>  0 0.17894402E+04</rscale>
<asrwt>0</asrwt>
<pdfrwt beam="1">  1        2 0.20162900E+00 0.17894402E+04</pdfrwt>
<pdfrwt beam="2">  1       -2 0.93971179E-01 0.17894402E+04</pdfrwt>
<totfact> 0.14724091E+01</totfact>
</mgrwt>
</event>
<event>
12    1  0.4802930E-008  0.1771143E+04  0.7818608E-02  0.8721797E-01
          1   -1    0    0  501    0  0.00000000000E+00  0.00000000000E+00  0.24724676230E+04  0.24724676230E+04  0.00000000000E+00 0. -1.
         -1   -1    0    0    0  501 -0.00000000000E+00 -0.00000000000E+00 -0.31718800562E+03  0.31718800562E+03  0.00000000000E+00 0.  1.
         23    2    1    2    0    0 -0.17083184276E+03 -0.21904804392E+03 -0.12678230090E+03  0.32110169175E+03  0.99332676308E+02 0.  0.
        254    2    1    2    0    0  0.17083184276E+03  0.21904804392E+03  0.22820619183E+04  0.24685539368E+04  0.89932551186E+03 0.  0.
         23    2    4    4    0    0  0.33977841975E+03  0.47808283899E+03  0.17237743149E+04  0.18229000821E+04  0.86915160877E+02 0.  0.
         23    2    4    4    0    0 -0.16894657700E+03 -0.25903479507E+03  0.55828760338E+03  0.64565385475E+03  0.97682552829E+02 0.  0.
         11    1    3    3    0    0 -0.15011656908E+03 -0.17000464211E+03 -0.13963243984E+03  0.26633396499E+03  0.00000000000E+00 0.  1.
        -11    1    3    3    0    0 -0.20715273677E+02 -0.49043401808E+02  0.12850138938E+02  0.54767726766E+02  0.00000000000E+00 0. -1.
          4    1    5    5  502    0  0.33678675910E+03  0.47241836174E+03  0.17205350517E+04  0.18157217005E+04  0.00000000000E+00 0. -1.
          3    1    6    6  503    0 -0.12055849955E+03 -0.24158335119E+03  0.43382335823E+03  0.51097903434E+03  0.00000000000E+00 0. -1.
         -4    1    5    5    0  502  0.29916606495E+01  0.56644772470E+01  0.32392631645E+01  0.71783815566E+01  0.00000000000E+00 0.  1.
         -3    1    6    6    0  503 -0.48388077446E+02 -0.17451443885E+02  0.12446424515E+03  0.13467482041E+03  0.00000000000E+00 0.  1.
<mgrwt>
<rscale>  0 0.17711432E+04</rscale>
<asrwt>0</asrwt>
<pdfrwt beam="1">  1        1 0.38037962E+00 0.17711432E+04</pdfrwt>
<pdfrwt beam="2">  1       -1 0.48798156E-01 0.17711432E+04</pdfrwt>
<totfact> 0.56359800E+00</totfact>
</mgrwt>
</event>
<event>
12    1  0.4802930E-008  0.1214762E+04  0.7818608E-02  0.9100033E-01
         -4   -1    0    0    0  501 -0.00000000000E+00  0.00000000000E+00  0.43548232482E+03  0.43548232482E+03  0.00000000000E+00 0.  1.
          4   -1    0    0  501    0  0.00000000000E+00 -0.00000000000E+00 -0.84713290817E+03  0.84713290817E+03  0.00000000000E+00 0. -1.
         23    2    1    2    0    0  0.11736027665E+03 -0.26036441735E+02 -0.34425991411E+03  0.37612913600E+03  0.92232898939E+02 0.  0.
        254    2    1    2    0    0 -0.11736027665E+03  0.26036441735E+02 -0.67390669239E+02  0.90648609699E+03  0.89594877695E+03 0.  0.
         23    2    4    4    0    0  0.16544352197E+03 -0.20258221422E+03 -0.34411726715E+03  0.44136923465E+03  0.89325221869E+02 0.  0.
         23    2    4    4    0    0 -0.28280379862E+03  0.22861865595E+03  0.27672659791E+03  0.46511686235E+03  0.86669529155E+02 0.  0.
         11    1    3    3    0    0  0.11361953690E+03 -0.35690113199E+02 -0.20959547519E+03  0.24106730713E+03  0.00000000000E+00 0.  1.
        -11    1    3    3    0    0  0.37407397464E+01  0.96536714645E+01 -0.13466443893E+03  0.13506182887E+03  0.00000000000E+00 0. -1.
          1    1    5    5  502    0  0.88010329237E+02 -0.10035966977E+03 -0.10423387903E+03  0.16935933073E+03  0.00000000000E+00 0. -1.
          3    1    6    6  503    0 -0.19002080988E+03  0.13700620192E+03  0.12663838085E+03  0.26630036999E+03  0.00000000000E+00 0. -1.
         -1    1    5    5    0  502  0.77433192738E+02 -0.10222254445E+03 -0.23988338812E+03  0.27200990392E+03  0.00000000000E+00 0.  1.
         -3    1    6    6    0  503 -0.92782988745E+02  0.91612454028E+02  0.15008821706E+03  0.19881649236E+03  0.00000000000E+00 0.  1.
<mgrwt>
<rscale>  0 0.12147616E+04</rscale>
<asrwt>0</asrwt>
<pdfrwt beam="1">  1        4 0.13032814E+00 0.12147616E+04</pdfrwt>
<pdfrwt beam="2">  1       -4 0.66997282E-01 0.12147616E+04</pdfrwt>
<totfact> 0.17428550E+00</totfact>
</mgrwt>
</event>
<event>
12    1  0.4802930E-008  0.2078242E+04  0.7818608E-02  0.8570889E-01
         -2   -1    0    0    0  501 -0.00000000000E+00  0.00000000000E+00  0.39885112960E+03  0.39885112960E+03  0.00000000000E+00 0.  1.
          2   -1    0    0  501    0  0.00000000000E+00 -0.00000000000E+00 -0.27072075233E+04  0.27072075233E+04  0.00000000000E+00 0. -1.
         23    2    1    2    0    0 -0.53283657645E+03 -0.41458641023E+03 -0.17019645634E+04  0.18332339843E+04  0.90921709807E+02 0.  0.
        254    2    1    2    0    0  0.53283657645E+03  0.41458641023E+03 -0.60639183025E+03  0.12728246686E+04  0.89251043489E+03 0.  0.
         23    2    4    4    0    0 -0.14008958579E+02  0.54026390754E+03 -0.34277842183E+03  0.64617478479E+03  0.89238250278E+02 0.  0.
         23    2    4    4    0    0  0.54684553503E+03 -0.12567749731E+03 -0.26361340842E+03  0.62664988379E+03  0.91450397703E+02 0.  0.
         13    1    3    3    0    0 -0.49202218296E+03 -0.36264463947E+03 -0.15870778139E+04  0.17007095433E+04  0.00000000000E+00 0. -1.
        -13    1    3    3    0    0 -0.40814393492E+02 -0.51941770765E+02 -0.11488674950E+03  0.13252444106E+03  0.00000000000E+00 0.  1.
          3    1    6    6  502    0  0.20504401120E+02 -0.75337082241E+01  0.72647253773E+01  0.23020935248E+02  0.00000000000E+00 0. -1.
          3    1    5    5  503    0  0.10819327301E+02  0.28182790414E+03 -0.22637350955E+03  0.36164760641E+03  0.00000000000E+00 0. -1.
         -3    1    5    5    0  503 -0.24828285880E+02  0.25843600340E+03 -0.11640491228E+03  0.28452717837E+03  0.00000000000E+00 0.  1.
         -3    1    6    6    0  502  0.52634113391E+03 -0.11814378908E+03 -0.27087813380E+03  0.60362894854E+03  0.00000000000E+00 0.  1.
<mgrwt>
<rscale>  0 0.20782423E+04</rscale>
<asrwt>0</asrwt>
<pdfrwt beam="1">  1        2 0.41649346E+00 0.20782423E+04</pdfrwt>
<pdfrwt beam="2">  1       -2 0.61361713E-01 0.20782423E+04</pdfrwt>
<totfact> 0.59995487E+00</totfact>
</mgrwt>
</event>
<event>
12    1  0.4802930E-008  0.1370986E+04  0.7818608E-02  0.8975092E-01
         -1   -1    0    0    0  501 -0.00000000000E+00  0.00000000000E+00  0.45606714911E+03  0.45606714911E+03  0.00000000000E+00 0.  1.
          1   -1    0    0  501    0  0.00000000000E+00 -0.00000000000E+00 -0.10303323826E+04  0.10303323826E+04  0.00000000000E+00 0. -1.
         23    2    1    2    0    0  0.26372044507E+03 -0.22348574039E+03 -0.34037414392E+03  0.49314219194E+03  0.88545549382E+02 0.  0.
        254    2    1    2    0    0 -0.26372044507E+03  0.22348574039E+03 -0.23389108954E+03  0.99325733974E+03  0.90131057460E+03 0.  0.
         23    2    4    4    0    0 -0.45785675142E+03  0.32240815580E+03 -0.40915222108E+03  0.69978391545E+03  0.93338976585E+02 0.  0.
         23    2    4    4    0    0  0.19413630635E+03 -0.98922415416E+02  0.17526113155E+03  0.29347342430E+03  0.89082191379E+02 0.  0.
         13    1    3    3    0    0  0.24309112611E+03 -0.21642858454E+03 -0.34091019908E+03  0.47133257010E+03  0.00000000000E+00 0. -1.
        -13    1    3    3    0    0  0.20629318962E+02 -0.70571558405E+01  0.53605516401E+00  0.21809621834E+02  0.00000000000E+00 0.  1.
          2    1    5    5  502    0 -0.24450044690E+03  0.20841521463E+03 -0.18925340386E+03  0.37287292889E+03  0.00000000000E+00 0. -1.
          4    1    6    6  503    0  0.16511849187E+03 -0.10389549695E+03  0.17776072481E+03  0.26392662982E+03  0.00000000000E+00 0.  1.
         -2    1    5    5    0  502 -0.21335630452E+03  0.11399294117E+03 -0.21989881723E+03  0.32691098656E+03  0.00000000000E+00 0.  1.
         -4    1    6    6    0  503  0.29017814479E+02  0.49730815384E+01 -0.24995932599E+01  0.29546794473E+02  0.00000000000E+00 0. -1.
<mgrwt>
<rscale>  0 0.13709861E+04</rscale>
<asrwt>0</asrwt>
<pdfrwt beam="1">  1        1 0.15851267E+00 0.13709861E+04</pdfrwt>
<pdfrwt beam="2">  1       -1 0.70164177E-01 0.13709861E+04</pdfrwt>
<totfact> 0.28760242E+01</totfact>
</mgrwt>
</event>
<event>
12    1  0.4802930E-008  0.1501374E+04  0.7818608E-02  0.8883540E-01
          2   -1    0    0  501    0  0.00000000000E+00  0.00000000000E+00  0.11921199977E+04  0.11921199977E+04  0.00000000000E+00 0. -1.
         -2   -1    0    0    0  501 -0.00000000000E+00 -0.00000000000E+00 -0.47271305577E+03  0.47271305577E+03  0.00000000000E+00 0.  1.
         23    2    1    2    0    0 -0.45509091095E+03  0.10804755338E+03  0.34070609268E+03  0.58565257592E+03  0.90145921017E+02 0.  0.
        254    2    1    2    0    0  0.45509091095E+03 -0.10804755338E+03  0.37870084927E+03  0.10791804776E+04  0.89578689370E+03 0.  0.
         23    2    4    4    0    0  0.48498126422E+02  0.26872440856E+03 -0.13419461235E+03  0.31778422539E+03  0.91726462394E+02 0.  0.
         23    2    4    4    0    0  0.40659278452E+03 -0.37677196193E+03  0.51289546162E+03  0.76139625218E+03  0.96890115899E+02 0.  0.
         11    1    3    3    0    0 -0.22290915084E+03  0.29794677431E+02  0.11529669735E+03  0.25272423855E+03  0.00000000000E+00 0. -1.
        -11    1    3    3    0    0 -0.23218176010E+03  0.78252875945E+02  0.22540939533E+03  0.33292833737E+03  0.00000000000E+00 0.  1.
          2    1    5    5  502    0  0.21409715666E+02  0.35395937136E+02  0.94710238959E+01  0.42437584571E+02  0.00000000000E+00 0. -1.
          1    1    6    6  503    0  0.99985991254E+02 -0.88499506940E+02  0.71248041573E+02  0.15134610865E+03  0.00000000000E+00 0. -1.
         -2    1    5    5    0  502  0.27088410756E+02  0.23332847142E+03 -0.14366563625E+03  0.27534664082E+03  0.00000000000E+00 0.  1.
         -1    1    6    6    0  503  0.30660679327E+03 -0.28827245499E+03  0.44164742005E+03  0.61005014353E+03  0.00000000000E+00 0.  1.
<mgrwt>
<rscale>  0 0.15013736E+04</rscale>
<asrwt>0</asrwt>
<pdfrwt beam="1">  1        2 0.18340308E+00 0.15013736E+04</pdfrwt>
<pdfrwt beam="2">  1       -2 0.72725086E-01 0.15013736E+04</pdfrwt>
<totfact> 0.31625018E+01</totfact>
</mgrwt>
</event>
<event>
12    1  0.4802930E-008  0.1391197E+04  0.7818608E-02  0.8960215E-01
          3   -1    0    0  501    0  0.00000000000E+00  0.00000000000E+00  0.14446700066E+04  0.14446700066E+04  0.00000000000E+00 0. -1.
         -3   -1    0    0    0  501 -0.00000000000E+00 -0.00000000000E+00 -0.33492573036E+03  0.33492573036E+03  0.00000000000E+00 0.  1.
         23    2    1    2    0    0  0.39317552889E+03  0.34600670920E+02  0.30461371122E+03  0.50670388602E+03  0.90416326485E+02 0.  0.
        254    2    1    2    0    0 -0.39317552889E+03 -0.34600670920E+02  0.80513056501E+03  0.12728918509E+04  0.90345682492E+03 0.  0.
         23    2    4    4    0    0 -0.36700528640E+03 -0.59347985175E+02 -0.73226367349E+02  0.38928973067E+03  0.89271103610E+02 0.  0.
         23    2    4    4    0    0 -0.26170242486E+02  0.24747314256E+02  0.87835693236E+03  0.88360212025E+03  0.89131897462E+02 0.  0.
         11    1    3    3    0    0  0.28591372847E+03  0.46304563844E+02  0.26245251214E+03  0.39086070906E+03  0.00000000000E+00 0. -1.
        -11    1    3    3    0    0  0.10726180042E+03 -0.11703892924E+02  0.42161199080E+02  0.11584317695E+03  0.00000000000E+00 0.  1.
          1    1    5    5  502    0 -0.85156320016E+02  0.20367795087E+02 -0.79525637867E+00  0.87561854412E+02  0.00000000000E+00 0. -1.
          3    1    6    6  503    0 -0.44031650236E+02  0.31917040161E+02  0.29771033854E+03  0.30263662922E+03  0.00000000000E+00 0. -1.
         -1    1    5    5    0  502 -0.28184896639E+03 -0.79715780262E+02 -0.72431110970E+02  0.30172787626E+03  0.00000000000E+00 0.  1.
         -3    1    6    6    0  503  0.17861407750E+02 -0.71697259055E+01  0.58064659382E+03  0.58096549103E+03  0.00000000000E+00 0.  1.
<mgrwt>
<rscale>  0 0.13911968E+04</rscale>
<asrwt>0</asrwt>
<pdfrwt beam="1">  1        3 0.22225692E+00 0.13911968E+04</pdfrwt>
<pdfrwt beam="2">  1       -3 0.51527036E-01 0.13911968E+04</pdfrwt>
<totfact> 0.10246876E+00</totfact>
</mgrwt>
</event>
<event>
12    1  0.4802930E-008  0.1811631E+04  0.7818608E-02  0.8700139E-01
          1   -1    0    0  501    0  0.00000000000E+00  0.00000000000E+00  0.14192997396E+04  0.14192997396E+04  0.00000000000E+00 0. -1.
         -1   -1    0    0    0  501 -0.00000000000E+00 -0.00000000000E+00 -0.57810328056E+03  0.57810328056E+03  0.00000000000E+00 0.  1.
         23    2    1    2    0    0 -0.51381728832E+03 -0.29667877127E+03 -0.38646064197E+02  0.60085172755E+03  0.86618595740E+02 0.  0.
        254    2    1    2    0    0  0.51381728832E+03  0.29667877127E+03  0.87984252320E+03  0.13965512926E+04  0.90785799992E+03 0.  0.
         23    2    4    4    0    0  0.81987226069E+02 -0.19338279638E+03  0.66427294963E+03  0.70279589945E+03  0.92437619508E+02 0.  0.
         23    2    4    4    0    0  0.43183006225E+03  0.49006156765E+03  0.21556957357E+03  0.69375539311E+03  0.90491776836E+02 0.  0.
         13    1    3    3    0    0 -0.34798966140E+03 -0.22996013860E+03 -0.57756060600E+02  0.42108696527E+03  0.00000000000E+00 0.  1.
        -13    1    3    3    0    0 -0.16582762692E+03 -0.66718632663E+02  0.19109996403E+02  0.17976476228E+03  0.00000000000E+00 0. -1.
          2    1    5    5  502    0  0.49594517744E+02 -0.17728187630E+03  0.61301386720E+03  0.64005818582E+03  0.00000000000E+00 0. -1.
          2    1    6    6  503    0  0.32107555455E+03  0.41407350263E+03  0.18771420585E+03  0.55658153076E+03  0.00000000000E+00 0. -1.
         -2    1    5    5    0  502  0.32392708326E+02 -0.16100920076E+02  0.51259082427E+02  0.62737713628E+02  0.00000000000E+00 0.  1.
         -2    1    6    6    0  503  0.11075450770E+03  0.75988065021E+02  0.27855367722E+02  0.13717386235E+03  0.00000000000E+00 0.  1.
<mgrwt>
<rscale>  0 0.18116311E+04</rscale>
<asrwt>0</asrwt>
<pdfrwt beam="1">  1        1 0.21835380E+00 0.18116311E+04</pdfrwt>
<pdfrwt beam="2">  1       -1 0.88938967E-01 0.18116311E+04</pdfrwt>
<totfact> 0.87043643E+00</totfact>
</mgrwt>
</event>
<event>
12    1  0.4802930E-008  0.2167584E+04  0.7818608E-02  0.8532043E-01
         -2   -1    0    0    0  501 -0.00000000000E+00  0.00000000000E+00  0.92354505083E+03  0.92354505083E+03  0.00000000000E+00 0.  1.
          2   -1    0    0  501    0  0.00000000000E+00 -0.00000000000E+00 -0.12718438913E+04  0.12718438913E+04  0.00000000000E+00 0. -1.
         23    2    1    2    0    0 -0.29323843484E+03 -0.77401582593E+03  0.19353778725E+03  0.85522018125E+03  0.94103160717E+02 0.  0.
        254    2    1    2    0    0  0.29323843484E+03  0.77401582593E+03 -0.54183662771E+03  0.13401687609E+04  0.90408854546E+03 0.  0.
         23    2    4    4    0    0  0.53408265393E+03  0.56383739293E+03 -0.10161719649E+03  0.78850861031E+03  0.90900423647E+02 0.  0.
         23    2    4    4    0    0 -0.24084421909E+03  0.21017843301E+03 -0.44021943122E+03  0.55166015056E+03  0.91404937105E+02 0.  0.
         13    1    3    3    0    0 -0.91625676691E+02 -0.23841806711E+03  0.15539184492E+02  0.25589041718E+03  0.00000000000E+00 0. -1.
        -13    1    3    3    0    0 -0.20161275815E+03 -0.53559775883E+03  0.17799860276E+03  0.59932976407E+03  0.00000000000E+00 0.  1.
          1    1    5    5  502    0  0.22322233138E+03  0.17502615455E+03 -0.50060878835E+02  0.28804245449E+03  0.00000000000E+00 0. -1.
          3    1    6    6  503    0 -0.34968262613E+02  0.55823917609E+02 -0.43985348919E+02  0.79207323442E+02  0.00000000000E+00 0. -1.
         -1    1    5    5    0  502  0.31086032255E+03  0.38881123838E+03 -0.51556317656E+02  0.50046615582E+03  0.00000000000E+00 0.  1.
         -3    1    6    6    0  503 -0.20587595647E+03  0.15435451540E+03 -0.39623408230E+03  0.47245282712E+03  0.00000000000E+00 0.  1.
<mgrwt>
<rscale>  0 0.21675840E+04</rscale>
<asrwt>0</asrwt>
<pdfrwt beam="1">  1        2 0.19566829E+00 0.21675840E+04</pdfrwt>
<pdfrwt beam="2">  1       -2 0.14208385E+00 0.21675840E+04</pdfrwt>
<totfact> 0.54393371E+00</totfact>
</mgrwt>
</event>
<event>
12    1  0.4802930E-008  0.2182927E+04  0.7818608E-02  0.8525568E-01
          3   -1    0    0  501    0  0.00000000000E+00  0.00000000000E+00  0.76250067231E+03  0.76250067231E+03  0.00000000000E+00 0. -1.
         -3   -1    0    0    0  501 -0.00000000000E+00 -0.00000000000E+00 -0.15623502501E+04  0.15623502501E+04  0.00000000000E+00 0.  1.
         23    2    1    2    0    0 -0.69585443807E+03  0.32133564435E+03  0.18376244372E+03  0.79349312565E+03  0.91611731881E+02 0.  0.
        254    2    1    2    0    0  0.69585443807E+03 -0.32133564435E+03 -0.98361202151E+03  0.15313577968E+04  0.88887237416E+03 0.  0.
         23    2    4    4    0    0  0.68310738031E+03 -0.52690677577E+02 -0.10332067978E+04  0.12432093462E+04  0.92958005972E+02 0.  0.
         23    2    4    4    0    0  0.12747057766E+02 -0.26864496677E+03  0.49594776314E+02  0.28814845057E+03  0.90759473743E+02 0.  0.
         11    1    3    3    0    0 -0.63808079812E+03  0.29473495980E+03  0.14104144824E+03  0.71687411139E+03  0.00000000000E+00 0.  1.
        -11    1    3    3    0    0 -0.57773639956E+02  0.26600684544E+02  0.42720995477E+02  0.76619014262E+02  0.00000000000E+00 0. -1.
          1    1    5    5  502    0  0.14808392885E+03 -0.32271260034E+02 -0.17313503574E+03  0.23010003218E+03  0.00000000000E+00 0. -1.
          3    1    6    6  503    0  0.18670793108E+02 -0.93505013615E+02 -0.23613448963E+02  0.98231263142E+02  0.00000000000E+00 0. -1.
         -1    1    5    5    0  502  0.53502345145E+03 -0.20419417542E+02 -0.86007176208E+03  0.10131093140E+04  0.00000000000E+00 0.  1.
         -3    1    6    6    0  503 -0.59237353429E+01 -0.17513995316E+03  0.73208225277E+02  0.18991718743E+03  0.00000000000E+00 0.  1.
<mgrwt>
<rscale>  0 0.21829275E+04</rscale>
<asrwt>0</asrwt>
<pdfrwt beam="1">  1        3 0.11730780E+00 0.21829275E+04</pdfrwt>
<pdfrwt beam="2">  1       -3 0.24036157E+00 0.21829275E+04</pdfrwt>
<totfact> 0.11903256E-01</totfact>
</mgrwt>
</event>
<event>
12    1  0.4802930E-008  0.1791167E+04  0.7818608E-02  0.8711011E-01
         -1   -1    0    0    0  501 -0.00000000000E+00  0.00000000000E+00  0.11547714939E+04  0.11547714939E+04  0.00000000000E+00 0.  1.
          1   -1    0    0  501    0  0.00000000000E+00 -0.00000000000E+00 -0.69457046129E+03  0.69457046129E+03  0.00000000000E+00 0. -1.
         23    2    1    2    0    0  0.26597701374E+03 -0.49056967137E+03  0.50649306272E+03  0.75904132322E+03  0.90587711471E+02 0.  0.
        254    2    1    2    0    0 -0.26597701374E+03  0.49056967137E+03 -0.46292030119E+02  0.10903006320E+04  0.93552666541E+03 0.  0.
         23    2    4    4    0    0 -0.43347337450E+03  0.54753643056E+03  0.23776473937E+03  0.74327836870E+03  0.90748845156E+02 0.  0.
         23    2    4    4    0    0  0.16749636076E+03 -0.56966759189E+02 -0.28405676949E+03  0.34702226326E+03  0.91847484382E+02 0.  0.
         13    1    3    3    0    0  0.11269439984E+03 -0.13010080743E+03  0.12959563540E+03  0.21545597361E+03  0.00000000000E+00 0. -1.
        -13    1    3    3    0    0  0.15328261390E+03 -0.36046886394E+03  0.37689742732E+03  0.54358534961E+03  0.00000000000E+00 0.  1.
          1    1    6    6  502    0  0.71465956138E+02 -0.68820751375E+02 -0.11200531728E+03  0.14962910748E+03  0.00000000000E+00 0.  1.
          1    1    5    5  503    0 -0.39075341405E+03  0.52861645068E+03  0.21825206749E+03  0.69264532590E+03  0.00000000000E+00 0. -1.
         -1    1    5    5    0  503 -0.42719960447E+02  0.18919979874E+02  0.19512671878E+02  0.50633042797E+02  0.00000000000E+00 0.  1.
         -1    1    6    6    0  502  0.96030404621E+02  0.11853992186E+02 -0.17205145220E+03  0.19739315578E+03  0.00000000000E+00 0. -1.
<mgrwt>
<rscale>  0 0.17911674E+04</rscale>
<asrwt>0</asrwt>
<pdfrwt beam="1">  1        1 0.10685699E+00 0.17911674E+04</pdfrwt>
<pdfrwt beam="2">  1       -1 0.17765715E+00 0.17911674E+04</pdfrwt>
<totfact> 0.56323008E+00</totfact>
</mgrwt>
</event>
<event>
12    1  0.4802930E-008  0.2386477E+04  0.7818608E-02  0.8444584E-01
         -2   -1    0    0    0  501 -0.00000000000E+00  0.00000000000E+00  0.82838153486E+03  0.82838153486E+03  0.00000000000E+00 0.  1.
          2   -1    0    0  501    0  0.00000000000E+00 -0.00000000000E+00 -0.17187946351E+04  0.17187946351E+04  0.00000000000E+00 0. -1.
         23    2    1    2    0    0  0.13327070018E+03  0.14443965911E+03 -0.13704195779E+04  0.13879612564E+04  0.98806554476E+02 0.  0.
        254    2    1    2    0    0 -0.13327070018E+03 -0.14443965911E+03  0.48000647761E+03  0.11592149136E+04  0.10367010672E+04 0.  0.
         23    2    4    4    0    0 -0.49144407244E+03 -0.18352087403E+03  0.56661765886E+03  0.77764692955E+03  0.92097709862E+02 0.  0.
         23    2    4    4    0    0  0.35817337226E+03  0.39081214923E+02 -0.86611181251E+02  0.38156798402E+03  0.90978699480E+02 0.  0.
         11    1    3    3    0    0  0.10732549424E+03  0.15756544336E+03 -0.11655828780E+04  0.11810711562E+04  0.00000000000E+00 0. -1.
        -11    1    3    3    0    0  0.25945205943E+02 -0.13125784250E+02 -0.20483669989E+03  0.20689010016E+03  0.00000000000E+00 0.  1.
          1    1    5    5  502    0 -0.34708581333E+03 -0.88874663841E+02  0.35254574228E+03  0.50264875220E+03  0.00000000000E+00 0. -1.
          1    1    6    6  503    0  0.69729552157E+02  0.28643809712E+02 -0.50383538849E+02  0.90670718900E+02  0.00000000000E+00 0. -1.
         -1    1    5    5    0  502 -0.14435825911E+03 -0.94646210192E+02  0.21407191658E+03  0.27499817735E+03  0.00000000000E+00 0.  1.
         -1    1    6    6    0  503  0.28844382010E+03  0.10437405211E+02 -0.36227642401E+02  0.29089726512E+03  0.00000000000E+00 0.  1.
<mgrwt>
<rscale>  0 0.23864767E+04</rscale>
<asrwt>0</asrwt>
<pdfrwt beam="1">  1        2 0.26442994E+00 0.23864767E+04</pdfrwt>
<pdfrwt beam="2">  1       -2 0.12744331E+00 0.23864767E+04</pdfrwt>
<totfact> 0.39362734E+00</totfact>
</mgrwt>
</event>
<event>
12    1  0.4802930E-008  0.1323794E+04  0.7818608E-02  0.9010906E-01
         -1   -1    0    0    0  501 -0.00000000000E+00  0.00000000000E+00  0.13183995628E+03  0.13183995628E+03  0.00000000000E+00 0.  1.
          1   -1    0    0  501    0  0.00000000000E+00 -0.00000000000E+00 -0.33230265293E+04  0.33230265293E+04  0.00000000000E+00 0. -1.
         23    2    1    2    0    0 -0.15897577393E+03 -0.19738037639E+03 -0.25894421445E+03  0.37440984930E+03  0.94330903639E+02 0.  0.
        254    2    1    2    0    0  0.15897577393E+03  0.19738037639E+03 -0.29322423586E+04  0.30804566363E+04  0.90935995561E+03 0.  0.
         23    2    4    4    0    0  0.71875960717E+02  0.44138294679E+03 -0.26428800742E+04  0.26820159530E+04  0.91702925055E+02 0.  0.
         23    2    4    4    0    0  0.87099813208E+02 -0.24400257040E+03 -0.28936228441E+03  0.39844068324E+03  0.88886526527E+02 0.  0.
         11    1    3    3    0    0 -0.93158458021E+02 -0.17769287830E+03 -0.17768516683E+03  0.26800238024E+03  0.00000000000E+00 0.  1.
        -11    1    3    3    0    0 -0.65817315905E+02 -0.19687498084E+02 -0.81259047618E+02  0.10640746907E+03  0.00000000000E+00 0. -1.
          3    1    6    6  502    0  0.26078810045E+02 -0.72793454908E+02 -0.15226888823E+03  0.17077706443E+03  0.00000000000E+00 0. -1.
          3    1    5    5  503    0  0.74147646715E+02  0.19533811668E+03 -0.11057401480E+04  0.11253071262E+04  0.00000000000E+00 0. -1.
         -3    1    5    5    0  503 -0.22716859979E+01  0.24604483011E+03 -0.15371399262E+04  0.15567088269E+04  0.00000000000E+00 0.  1.
         -3    1    6    6    0  502  0.61021003164E+02 -0.17120911549E+03 -0.13709339617E+03  0.22766361881E+03  0.00000000000E+00 0.  1.
<mgrwt>
<rscale>  0 0.13237941E+04</rscale>
<asrwt>0</asrwt>
<pdfrwt beam="1">  1        1 0.51123484E+00 0.13237941E+04</pdfrwt>
<pdfrwt beam="2">  1       -1 0.20283071E-01 0.13237941E+04</pdfrwt>
<totfact> 0.68150865E+00</totfact>
</mgrwt>
</event>
<event>
12    1  0.4802930E-008  0.1553636E+04  0.7818608E-02  0.8849549E-01
         -2   -1    0    0    0  501 -0.00000000000E+00  0.00000000000E+00  0.41778769698E+03  0.41778769698E+03  0.00000000000E+00 0.  1.
          2   -1    0    0  501    0  0.00000000000E+00 -0.00000000000E+00 -0.14443839297E+04  0.14443839297E+04  0.00000000000E+00 0. -1.
         23    2    1    2    0    0  0.13358082441E+03 -0.23750794065E+03 -0.86719834579E+03  0.91221446177E+03  0.76474798491E+02 0.  0.
        254    2    1    2    0    0 -0.13358082441E+03  0.23750794065E+03 -0.15939788694E+03  0.94995716492E+03  0.89596711452E+03 0.  0.
         23    2    4    4    0    0 -0.10951198041E+03 -0.32713055453E+03 -0.30876858576E+00  0.35611392674E+03  0.88372846084E+02 0.  0.
         23    2    4    4    0    0 -0.24068843999E+02  0.56463849517E+03 -0.15908911835E+03  0.59384323818E+03  0.89131949758E+02 0.  0.
         13    1    3    3    0    0 -0.94954461587E+01 -0.96815205223E+01 -0.31936095572E+02  0.34695958522E+02  0.00000000000E+00 0.  1.
        -13    1    3    3    0    0  0.14307627056E+03 -0.22782642012E+03 -0.83526225022E+03  0.87751850325E+03  0.00000000000E+00 0. -1.
          2    1    5    5  502    0  0.18931011521E+01 -0.41517581058E+02  0.24999065311E+02  0.48499965312E+02  0.00000000000E+00 0. -1.
          3    1    6    6  503    0 -0.39090684795E+02  0.11493065243E+03 -0.21226307087E+02  0.12323835693E+03  0.00000000000E+00 0. -1.
         -2    1    5    5    0  502 -0.11140508156E+03 -0.28561297347E+03 -0.25307833897E+02  0.30761396143E+03  0.00000000000E+00 0.  1.
         -3    1    6    6    0  503  0.15021840796E+02  0.44970784275E+03 -0.13786281127E+03  0.47060488125E+03  0.00000000000E+00 0.  1.
<mgrwt>
<rscale>  0 0.15536355E+04</rscale>
<asrwt>0</asrwt>
<pdfrwt beam="1">  1        2 0.22221291E+00 0.15536355E+04</pdfrwt>
<pdfrwt beam="2">  1       -2 0.64275030E-01 0.15536355E+04</pdfrwt>
<totfact> 0.29374639E+01</totfact>
</mgrwt>
</event>
<event>
12    1  0.4802930E-008  0.3639558E+04  0.7818608E-02  0.8081490E-01
          2   -1    0    0  501    0  0.00000000000E+00  0.00000000000E+00  0.26582513783E+04  0.26582513783E+04  0.00000000000E+00 0. -1.
         -2   -1    0    0    0  501 -0.00000000000E+00 -0.00000000000E+00 -0.12457795290E+04  0.12457795290E+04  0.00000000000E+00 0.  1.
         23    2    1    2    0    0  0.85696501661E+03  0.16081810268E+03 -0.90862623772E+03  0.12632918106E+04  0.10026493438E+03 0.  0.
        254    2    1    2    0    0 -0.85696501661E+03 -0.16081810268E+03  0.23210980870E+04  0.26407390966E+04  0.90871070479E+03 0.  0.
         23    2    4    4    0    0 -0.45457523758E+03 -0.38141287654E+03  0.19568596038E+04  0.20469675687E+04  0.93071420575E+02 0.  0.
         23    2    4    4    0    0 -0.40238977902E+03  0.22059477385E+03  0.36423848323E+03  0.59377152792E+03  0.96516144727E+02 0.  0.
         13    1    3    3    0    0  0.18239776614E+03  0.26501797636E+02 -0.13725479670E+03  0.22980463352E+03  0.00000000000E+00 0. -1.
        -13    1    3    3    0    0  0.67456725047E+03  0.13431630505E+03 -0.77137144102E+03  0.10334871771E+04  0.00000000000E+00 0.  1.
          3    1    6    6  502    0 -0.19354172294E+03  0.11751450414E+03  0.23942670456E+03  0.32953482981E+03  0.00000000000E+00 0. -1.
          3    1    5    5  503    0  0.34749254378E+01 -0.10457538746E+02  0.29339749782E+02  0.31340965854E+02  0.00000000000E+00 0. -1.
         -3    1    5    5    0  503 -0.45805016302E+03 -0.37095533779E+03  0.19275198540E+04  0.20156266028E+04  0.00000000000E+00 0.  1.
         -3    1    6    6    0  502 -0.20884805609E+03  0.10308026971E+03  0.12481177866E+03  0.26423669811E+03  0.00000000000E+00 0.  1.
<mgrwt>
<rscale>  0 0.36395577E+04</rscale>
<asrwt>0</asrwt>
<pdfrwt beam="1">  1        2 0.40896175E+00 0.36395577E+04</pdfrwt>
<pdfrwt beam="2">  1       -2 0.19165839E+00 0.36395577E+04</pdfrwt>
<totfact> 0.34503209E-01</totfact>
</mgrwt>
</event>
<event>
12    1  0.4802930E-008  0.1196167E+04  0.7818608E-02  0.9116218E-01
          2   -1    0    0  501    0  0.00000000000E+00  0.00000000000E+00  0.72142131055E+03  0.72142131055E+03  0.00000000000E+00 0. -1.
         -2   -1    0    0    0  501 -0.00000000000E+00 -0.00000000000E+00 -0.49583217835E+03  0.49583217835E+03  0.00000000000E+00 0.  1.
         23    2    1    2    0    0  0.80671431923E+02 -0.10996420333E+03  0.26915538143E+03  0.31437659257E+03  0.88249740286E+02 0.  0.
        254    2    1    2    0    0 -0.80671431923E+02  0.10996420333E+03 -0.43566249228E+02  0.90287689634E+03  0.89145312043E+03 0.  0.
         23    2    4    4    0    0 -0.23444014225E+03  0.44878227028E+03 -0.58995839757E+02  0.51755376928E+03  0.89519207839E+02 0.  0.
         23    2    4    4    0    0  0.15376871033E+03 -0.33881806695E+03  0.15429590529E+02  0.38532312705E+03  0.98961311678E+02 0.  0.
         13    1    3    3    0    0  0.61704026743E+02 -0.90776164673E+02  0.26531626620E+03  0.28712439830E+03  0.00000000000E+00 0. -1.
        -13    1    3    3    0    0  0.18967405180E+02 -0.19188038656E+02  0.38391152293E+01  0.27252194269E+02  0.00000000000E+00 0.  1.
          3    1    5    5  502    0 -0.22096801023E+02  0.53158781168E+02 -0.36125033244E+02  0.67964274862E+02  0.00000000000E+00 0. -1.
          3    1    6    6  503    0  0.11424100078E+02 -0.14014459120E+03  0.60564570561E+01  0.14073982086E+03  0.00000000000E+00 0. -1.
         -3    1    5    5    0  502 -0.21234334123E+03  0.39562348911E+03 -0.22870806513E+02  0.44958949442E+03  0.00000000000E+00 0.  1.
         -3    1    6    6    0  503  0.14234461025E+03 -0.19867347575E+03  0.93731334734E+01  0.24458330619E+03  0.00000000000E+00 0.  1.
<mgrwt>
<rscale>  0 0.11961670E+04</rscale>
<asrwt>0</asrwt>
<pdfrwt beam="1">  1        2 0.11098789E+00 0.11961670E+04</pdfrwt>
<pdfrwt beam="2">  1       -2 0.76281874E-01 0.11961670E+04</pdfrwt>
<totfact> 0.59872655E+01</totfact>
</mgrwt>
</event>
<event>
12    1  0.4802930E-008  0.2953714E+04  0.7818608E-02  0.8257073E-01
          1   -1    0    0  501    0  0.00000000000E+00  0.00000000000E+00  0.12896631048E+04  0.12896631048E+04  0.00000000000E+00 0. -1.
         -1   -1    0    0    0  501 -0.00000000000E+00 -0.00000000000E+00 -0.16912225491E+04  0.16912225491E+04  0.00000000000E+00 0.  1.
         23    2    1    2    0    0  0.90070322390E+03  0.98454149550E+03 -0.26356343004E+03  0.13631654565E+04  0.90366621464E+02 0.  0.
        254    2    1    2    0    0 -0.90070322390E+03 -0.98454149550E+03 -0.13799601423E+03  0.16177201974E+04  0.90409484191E+03 0.  0.
         23    2    4    4    0    0 -0.10333761215E+04 -0.77797066926E+03 -0.27006121349E+03  0.13245655142E+04  0.91848634879E+02 0.  0.
         23    2    4    4    0    0  0.13267289758E+03 -0.20657082624E+03  0.13206519926E+03  0.29315468317E+03  0.90690944427E+02 0.  0.
         11    1    3    3    0    0  0.15423426548E+03  0.12255217550E+03 -0.31228086637E+02  0.19945535281E+03  0.00000000000E+00 0.  1.
        -11    1    3    3    0    0  0.74646895842E+03  0.86198932000E+03 -0.23233534341E+03  0.11637101037E+04  0.00000000000E+00 0. -1.
          3    1    5    5  502    0 -0.94594267851E+03 -0.70294544954E+03 -0.21973207865E+03  0.11988419589E+04  0.00000000000E+00 0. -1.
          3    1    6    6  503    0  0.14471935208E+03 -0.20265519040E+03  0.12468168421E+03  0.27849297916E+03  0.00000000000E+00 0. -1.
         -3    1    5    5    0  502 -0.87433442974E+02 -0.75025219721E+02 -0.50329134840E+02  0.12572355530E+03  0.00000000000E+00 0.  1.
         -3    1    6    6    0  503 -0.12046454496E+02 -0.39156358358E+01  0.73835150492E+01  0.14661704008E+02  0.00000000000E+00 0.  1.
<mgrwt>
<rscale>  0 0.29537145E+04</rscale>
<asrwt>0</asrwt>
<pdfrwt beam="1">  1        1 0.19840971E+00 0.29537145E+04</pdfrwt>
<pdfrwt beam="2">  1       -1 0.26018808E+00 0.29537145E+04</pdfrwt>
<totfact> 0.47037321E-01</totfact>
</mgrwt>
</event>
<event>
12    1  0.4802930E-008  0.1869403E+04  0.7818608E-02  0.8670238E-01
          2   -1    0    0  501    0  0.00000000000E+00  0.00000000000E+00  0.22618139920E+04  0.22618139920E+04  0.00000000000E+00 0.  1.
         -2   -1    0    0    0  501 -0.00000000000E+00 -0.00000000000E+00 -0.38626825640E+03  0.38626825640E+03  0.00000000000E+00 0. -1.
         23    2    1    2    0    0  0.13842326767E+03  0.25734845992E+03 -0.20060647738E+03  0.36578913676E+03  0.90385302724E+02 0.  0.
        254    2    1    2    0    0 -0.13842326767E+03 -0.25734845992E+03  0.20761522130E+04  0.22822931116E+04  0.90170095106E+03 0.  0.
         23    2    4    4    0    0 -0.15315758139E+03 -0.52959267147E+03  0.81141433413E+03  0.98522136748E+03  0.91336076679E+02 0.  0.
         23    2    4    4    0    0  0.14734313719E+02  0.27224421155E+03  0.12647378788E+04  0.12970717441E+04  0.92191087334E+02 0.  0.
         11    1    3    3    0    0  0.78927876342E+02  0.16540760854E+03 -0.17482282112E+03  0.25328305394E+03  0.00000000000E+00 0. -1.
        -11    1    3    3    0    0  0.59495391333E+02  0.91940851373E+02 -0.25783656256E+02  0.11250608282E+03  0.00000000000E+00 0.  1.
          2    1    5    5  502    0 -0.37711605080E+02 -0.17346769928E+03  0.19222954243E+03  0.26165894755E+03  0.00000000000E+00 0. -1.
          3    1    6    6  503    0  0.56359936132E+01  0.33415836346E+02  0.34962393658E+03  0.35126240843E+03  0.00000000000E+00 0.  1.
         -2    1    5    5    0  502 -0.11544597631E+03 -0.35612497218E+03  0.61918479170E+03  0.72356241993E+03  0.00000000000E+00 0.  1.
         -3    1    6    6    0  503  0.90983201060E+01  0.23882837521E+03  0.91511394225E+03  0.94580933572E+03  0.00000000000E+00 0. -1.
<mgrwt>
<rscale>  0 0.18694031E+04</rscale>
<asrwt>0</asrwt>
<pdfrwt beam="1">  1        2 0.34797138E+00 0.18694031E+04</pdfrwt>
<pdfrwt beam="2">  1       -2 0.59425887E-01 0.18694031E+04</pdfrwt>
<totfact> 0.11828548E+01</totfact>
</mgrwt>
</event>
<event>
12    1  0.4802930E-008  0.2425652E+04  0.7818608E-02  0.8429962E-01
         -1   -1    0    0    0  501 -0.00000000000E+00  0.00000000000E+00  0.85092271208E+03  0.85092271208E+03  0.00000000000E+00 0.  1.
          1   -1    0    0  501    0  0.00000000000E+00 -0.00000000000E+00 -0.17286498833E+04  0.17286498833E+04  0.00000000000E+00 0. -1.
         23    2    1    2    0    0 -0.59522226897E+03  0.69002987485E+03  0.16929425620E+03  0.93130820720E+03  0.90794569990E+02 0.  0.
        254    2    1    2    0    0  0.59522226897E+03 -0.69002987485E+03 -0.10470214274E+04  0.16482643882E+04  0.88887054526E+03 0.  0.
         23    2    4    4    0    0  0.22010899709E+03  0.97762066324E+02  0.30186811327E+02  0.25901722238E+03  0.90406225991E+02 0.  0.
         23    2    4    4    0    0  0.37511327188E+03 -0.78779194118E+03 -0.10772082388E+04  0.13892471658E+04  0.91126224351E+02 0.  0.
         11    1    3    3    0    0 -0.17912705916E+03  0.17218722603E+03  0.12643621672E+02  0.24878666625E+03  0.00000000000E+00 0.  1.
        -11    1    3    3    0    0 -0.41609520981E+03  0.51784264882E+03  0.15665063452E+03  0.68252154095E+03  0.00000000000E+00 0. -1.
          2    1    5    5  502    0  0.13601117578E+03  0.94563678176E+02 -0.95907126103E+01  0.16593164537E+03  0.00000000000E+00 0. -1.
          1    1    6    6  503    0  0.33413202564E+03 -0.72080880627E+03 -0.93644958689E+03  0.12280665188E+04  0.00000000000E+00 0. -1.
         -2    1    5    5    0  502  0.84097821316E+02  0.31983881478E+01  0.39777523938E+02  0.93085577011E+02  0.00000000000E+00 0.  1.
         -1    1    6    6    0  503  0.40981246241E+02 -0.66983134905E+02 -0.14075865186E+03  0.16118064704E+03  0.00000000000E+00 0.  1.
<mgrwt>
<rscale>  0 0.24256524E+04</rscale>
<asrwt>0</asrwt>
<pdfrwt beam="1">  1        1 0.26594614E+00 0.24256524E+04</pdfrwt>
<pdfrwt beam="2">  1       -1 0.13091119E+00 0.24256524E+04</pdfrwt>
<totfact> 0.20296991E+00</totfact>
</mgrwt>
</event>
<event>
12    1  0.4802930E-008  0.2492430E+04  0.7818608E-02  0.8405687E-01
          1   -1    0    0  501    0  0.00000000000E+00  0.00000000000E+00  0.15382566212E+04  0.15382566212E+04  0.00000000000E+00 0. -1.
         -1   -1    0    0    0  501 -0.00000000000E+00 -0.00000000000E+00 -0.10096181100E+04  0.10096181100E+04  0.00000000000E+00 0.  1.
         23    2    1    2    0    0 -0.53727705090E+03  0.23754196334E+03  0.11559924120E+04  0.12998463703E+04  0.90494839792E+02 0.  0.
        254    2    1    2    0    0  0.53727705090E+03 -0.23754196334E+03 -0.62735390084E+03  0.12480283608E+04  0.90493594175E+03 0.  0.
         23    2    4    4    0    0  0.63177353541E+03 -0.31812882769E+03 -0.76137934437E+03  0.10432174674E+04  0.90886892141E+02 0.  0.
         23    2    4    4    0    0 -0.94496484511E+02  0.80586864346E+02  0.13402544353E+03  0.20481089341E+03  0.92524884514E+02 0.  0.
         11    1    3    3    0    0 -0.20724407536E+03  0.12890474879E+03  0.41523390997E+03  0.48164898113E+03  0.00000000000E+00 0.  1.
        -11    1    3    3    0    0 -0.33003297553E+03  0.10863721455E+03  0.74075850207E+03  0.81819738922E+03  0.00000000000E+00 0. -1.
          2    1    5    5  502    0  0.30886489754E+03 -0.10520417967E+03 -0.34042312036E+03  0.47154357723E+03  0.00000000000E+00 0. -1.
          3    1    6    6  503    0 -0.64065140588E+02  0.56523952278E+02  0.14150918273E+03  0.16530017609E+03  0.00000000000E+00 0. -1.
         -2    1    5    5    0  502  0.32290863787E+03 -0.21292464802E+03 -0.42095622402E+03  0.57167389015E+03  0.00000000000E+00 0.  1.
         -3    1    6    6    0  503 -0.30431343923E+02  0.24062912069E+02 -0.74837391992E+01  0.39510717313E+02  0.00000000000E+00 0.  1.
<mgrwt>
<rscale>  0 0.24924299E+04</rscale>
<asrwt>0</asrwt>
<pdfrwt beam="1">  1        1 0.23665486E+00 0.24924299E+04</pdfrwt>
<pdfrwt beam="2">  1       -1 0.15532586E+00 0.24924299E+04</pdfrwt>
<totfact> 0.17360486E+00</totfact>
</mgrwt>
</event>
<event>
12    1  0.4802930E-008  0.2546790E+04  0.7818608E-02  0.8386503E-01
         -1   -1    0    0    0  501 -0.00000000000E+00  0.00000000000E+00  0.86288616773E+03  0.86288616773E+03  0.00000000000E+00 0.  1.
          1   -1    0    0  501    0  0.00000000000E+00 -0.00000000000E+00 -0.18791995813E+04  0.18791995813E+04  0.00000000000E+00 0. -1.
         23    2    1    2    0    0 -0.10758827865E+04 -0.19975394120E+02 -0.71814619755E+03  0.12969455825E+04  0.91712029032E+02 0.  0.
        254    2    1    2    0    0  0.10758827865E+04  0.19975394120E+02 -0.29816721604E+03  0.14451401666E+04  0.91738957142E+03 0.  0.
         23    2    4    4    0    0  0.10596644458E+04  0.17638901724E+03 -0.48697807417E+03  0.11829225063E+04  0.90311616338E+02 0.  0.
         23    2    4    4    0    0  0.16218340666E+02 -0.15641362312E+03  0.18881085813E+03  0.26221766030E+03  0.91544006654E+02 0.  0.
         13    1    3    3    0    0 -0.27957897087E+03  0.14041384898E+01 -0.14008577655E+03  0.31271456210E+03  0.00000000000E+00 0.  1.
        -13    1    3    3    0    0 -0.79630381560E+03 -0.21379532610E+02 -0.57806042100E+03  0.98423102038E+03  0.00000000000E+00 0. -1.
          4    1    5    5  502    0  0.90842702128E+03  0.16957127531E+03 -0.44582368608E+03  0.10260374406E+04  0.00000000000E+00 0. -1.
          3    1    6    6  503    0  0.44291437718E+02 -0.14158146563E+03  0.13992884322E+03  0.20392921328E+03  0.00000000000E+00 0. -1.
         -4    1    5    5    0  502  0.15123742452E+03  0.68177419284E+01 -0.41154388088E+02  0.15688506570E+03  0.00000000000E+00 0.  1.
         -3    1    6    6    0  503 -0.28073097051E+02 -0.14832157483E+02  0.48882014909E+02  0.58288447013E+02  0.00000000000E+00 0.  1.
<mgrwt>
<rscale>  0 0.25467904E+04</rscale>
<asrwt>0</asrwt>
<pdfrwt beam="1">  1        1 0.28910763E+00 0.25467904E+04</pdfrwt>
<pdfrwt beam="2">  1       -1 0.13275172E+00 0.25467904E+04</pdfrwt>
<totfact> 0.15312457E+00</totfact>
</mgrwt>
</event>
<event>
12    1  0.4802930E-008  0.2148770E+04  0.7818608E-02  0.8540059E-01
         -2   -1    0    0    0  501 -0.00000000000E+00  0.00000000000E+00  0.30436791011E+04  0.30436791011E+04  0.00000000000E+00 0.  1.
          2   -1    0    0  501    0  0.00000000000E+00 -0.00000000000E+00 -0.37924592181E+03  0.37924592181E+03  0.00000000000E+00 0. -1.
         23    2    1    2    0    0  0.26120546585E+03 -0.12825601625E+03 -0.22993325794E+03  0.38089816361E+03  0.86811329011E+02 0.  0.
        254    2    1    2    0    0 -0.26120546585E+03  0.12825601625E+03  0.28943664372E+04  0.30420268593E+04  0.88988338484E+03 0.  0.
         23    2    4    4    0    0 -0.12694294713E+03  0.47468398103E+03  0.11145367349E+04  0.12214297110E+04  0.90879104878E+02 0.  0.
         23    2    4    4    0    0 -0.13426251872E+03 -0.34642796479E+03  0.17798297023E+04  0.18205971483E+04  0.93495713839E+02 0.  0.
         13    1    3    3    0    0  0.25667549030E+03 -0.11852154198E+03 -0.23625592702E+03  0.36843795446E+03  0.00000000000E+00 0. -1.
        -13    1    3    3    0    0  0.45299755447E+01 -0.97344742681E+01  0.63226690838E+01  0.12460209150E+02  0.00000000000E+00 0.  1.
          2    1    5    5  502    0 -0.77032018552E+02  0.14618589423E+03  0.42564559526E+03  0.45659437175E+03  0.00000000000E+00 0. -1.
          3    1    6    6  503    0  0.25739302139E+01 -0.53852964814E+01  0.13876659758E+03  0.13889490681E+03  0.00000000000E+00 0. -1.
         -2    1    5    5    0  502 -0.49910928573E+02  0.32849808681E+03  0.68889113964E+03  0.76483533921E+03  0.00000000000E+00 0.  1.
         -3    1    6    6    0  503 -0.13683644894E+03 -0.34104266831E+03  0.16410631047E+04  0.16817022415E+04  0.00000000000E+00 0.  1.
<mgrwt>
<rscale>  0 0.21487698E+04</rscale>
<asrwt>0</asrwt>
<pdfrwt beam="1">  1        2 0.58345528E-01 0.21487698E+04</pdfrwt>
<pdfrwt beam="2">  1       -2 0.46825831E+00 0.21487698E+04</pdfrwt>
<totfact> 0.20389076E-01</totfact>
</mgrwt>
</event>
<event>
12    1  0.4802930E-008  0.1447029E+04  0.7818608E-02  0.8920463E-01
         -2   -1    0    0    0  501 -0.00000000000E+00  0.00000000000E+00  0.40806945047E+03  0.40806945047E+03  0.00000000000E+00 0.  1.
          2   -1    0    0  501    0  0.00000000000E+00 -0.00000000000E+00 -0.12828035022E+04  0.12828035022E+04  0.00000000000E+00 0. -1.
         23    2    1    2    0    0  0.37230491671E+03  0.22009183033E+03 -0.29581610184E+03  0.53188203938E+03  0.91323452205E+02 0.  0.
        254    2    1    2    0    0 -0.37230491671E+03 -0.22009183033E+03 -0.57891794990E+03  0.11589909133E+04  0.90612503530E+03 0.  0.
         23    2    4    4    0    0  0.23765799065E+03 -0.21001473037E+01 -0.41241183016E+03  0.48392942589E+03  0.87283677994E+02 0.  0.
         23    2    4    4    0    0 -0.60996290736E+03 -0.21799168303E+03 -0.16650611974E+03  0.67506148741E+03  0.91698427708E+02 0.  0.
         11    1    3    3    0    0 -0.27584644183E+01 -0.26509937615E+01  0.13549205401E+01  0.40586578496E+01  0.00000000000E+00 0.  1.
        -11    1    3    3    0    0  0.37506338113E+03  0.22274282409E+03 -0.29717102238E+03  0.52782338153E+03  0.00000000000E+00 0. -1.
          4    1    5    5  502    0  0.18872030642E+03  0.34788462073E+02 -0.31133718034E+03  0.36572726314E+03  0.00000000000E+00 0. -1.
          4    1    6    6  503    0 -0.37542026343E+03 -0.14393326166E+03 -0.14788434441E+03  0.42840044039E+03  0.00000000000E+00 0. -1.
         -4    1    5    5    0  502  0.48937684234E+02 -0.36888609376E+02 -0.10107464983E+03  0.11820216274E+03  0.00000000000E+00 0.  1.
         -4    1    6    6    0  503 -0.23454264393E+03 -0.74058421365E+02 -0.18621775322E+02  0.24666104701E+03  0.00000000000E+00 0.  1.
<mgrwt>
<rscale>  0 0.14470286E+04</rscale>
<asrwt>0</asrwt>
<pdfrwt beam="1">  1        2 0.19735438E+00 0.14470286E+04</pdfrwt>
<pdfrwt beam="2">  1       -2 0.62779917E-01 0.14470286E+04</pdfrwt>
<totfact> 0.38599278E+01</totfact>
</mgrwt>
</event>
<event>
12    1  0.4802930E-008  0.2095321E+04  0.7818608E-02  0.8563308E-01
         -2   -1    0    0    0  501 -0.00000000000E+00  0.00000000000E+00  0.87659244371E+03  0.87659244371E+03  0.00000000000E+00 0. -1.
          2   -1    0    0  501    0  0.00000000000E+00 -0.00000000000E+00 -0.12521121436E+04  0.12521121436E+04  0.00000000000E+00 0.  1.
         23    2    1    2    0    0  0.12478731515E+03  0.63886692772E+03 -0.70679437287E+03  0.96526472336E+03  0.91950395830E+02 0.  0.
        254    2    1    2    0    0 -0.12478731515E+03 -0.63886692772E+03  0.33127467295E+03  0.11634398640E+04  0.90560840476E+03 0.  0.
         23    2    4    4    0    0 -0.12978524589E+03 -0.70599185514E+03  0.55559501337E+03  0.91240292917E+03  0.92328634217E+02 0.  0.
         23    2    4    4    0    0  0.49979307426E+01  0.67124927424E+02 -0.22432034042E+03  0.25103693480E+03  0.90383584311E+02 0.  0.
         11    1    3    3    0    0  0.50653182416E+01  0.65858190353E+01  0.13357994370E+01  0.84151542702E+01  0.00000000000E+00 0. -1.
        -11    1    3    3    0    0  0.11972199691E+03  0.63228110869E+03 -0.70813017231E+03  0.95684956909E+03  0.00000000000E+00 0.  1.
          2    1    5    5  502    0  0.70410106619E+00 -0.59550409045E+02  0.78056045881E+02  0.98180921132E+02  0.00000000000E+00 0. -1.
          4    1    6    6  503    0  0.18648617061E+01 -0.60895358038E+01 -0.13654027553E+03  0.13668872301E+03  0.00000000000E+00 0. -1.
         -2    1    5    5    0  502 -0.13048934696E+03 -0.64644144610E+03  0.47753896749E+03  0.81422200804E+03  0.00000000000E+00 0.  1.
         -4    1    6    6    0  503  0.31330690365E+01  0.73214463228E+02 -0.87780064884E+02  0.11434821178E+03  0.00000000000E+00 0.  1.
<mgrwt>
<rscale>  0 0.20953205E+04</rscale>
<asrwt>0</asrwt>
<pdfrwt beam="1">  1        2 0.19263264E+00 0.20953205E+04</pdfrwt>
<pdfrwt beam="2">  1       -2 0.13486038E+00 0.20953205E+04</pdfrwt>
<totfact> 0.64325608E+00</totfact>
</mgrwt>
</event>
<event>
12    1  0.4802930E-008  0.2171740E+04  0.7818608E-02  0.8530283E-01
          1   -1    0    0  501    0  0.00000000000E+00  0.00000000000E+00  0.17631635711E+04  0.17631635711E+04  0.00000000000E+00 0. -1.
         -1   -1    0    0    0  501 -0.00000000000E+00 -0.00000000000E+00 -0.66874897858E+03  0.66874897858E+03  0.00000000000E+00 0.  1.
         23    2    1    2    0    0  0.42153938336E+03  0.41352413618E+03  0.12110525595E+04  0.13505556193E+04  0.93029650938E+02 0.  0.
        254    2    1    2    0    0 -0.42153938336E+03 -0.41352413618E+03 -0.11663796696E+03  0.10813569304E+04  0.89834889255E+03 0.  0.
         23    2    4    4    0    0  0.10304841143E+03  0.11429395677E+03  0.19738303115E+03  0.26878845480E+03  0.98005554915E+02 0.  0.
         23    2    4    4    0    0 -0.52458779479E+03 -0.52781809295E+03 -0.31402099811E+03  0.81256847564E+03  0.88735825123E+02 0.  0.
         11    1    3    3    0    0  0.36448561696E+03  0.35399611871E+03  0.11050167283E+04  0.12162339359E+04  0.00000000000E+00 0. -1.
        -11    1    3    3    0    0  0.57053766393E+02  0.59528017477E+02  0.10603583122E+03  0.13432168338E+03  0.00000000000E+00 0.  1.
          2    1    5    5  502    0  0.89290380267E+01  0.22548217001E+02  0.10591692939E+03  0.10865792996E+03  0.00000000000E+00 0. -1.
          3    1    6    6  503    0 -0.27326312022E+03 -0.24007871380E+03 -0.19322712917E+03  0.41188256232E+03  0.00000000000E+00 0. -1.
         -2    1    5    5    0  502  0.94119373405E+02  0.91745739769E+02  0.91466101756E+02  0.16013052484E+03  0.00000000000E+00 0.  1.
         -3    1    6    6    0  503 -0.25132467456E+03 -0.28773937916E+03 -0.12079386894E+03  0.40068591332E+03  0.00000000000E+00 0.  1.
<mgrwt>
<rscale>  0 0.21717402E+04</rscale>
<asrwt>0</asrwt>
<pdfrwt beam="1">  1        1 0.27125593E+00 0.21717402E+04</pdfrwt>
<pdfrwt beam="2">  1       -1 0.10288446E+00 0.21717402E+04</pdfrwt>
<totfact> 0.35207477E+00</totfact>
</mgrwt>
</event>
<event>
12    1  0.4802930E-008  0.1658670E+04  0.7818608E-02  0.8785294E-01
         -2   -1    0    0    0  501 -0.00000000000E+00  0.00000000000E+00  0.13214716684E+04  0.13214716684E+04  0.00000000000E+00 0.  1.
          2   -1    0    0  501    0  0.00000000000E+00 -0.00000000000E+00 -0.52047789104E+03  0.52047789104E+03  0.00000000000E+00 0. -1.
         23    2    1    2    0    0 -0.40665959550E+03 -0.35198355872E+03  0.52774165431E+03  0.75980395388E+03  0.97602983668E+02 0.  0.
        254    2    1    2    0    0  0.40665959550E+03  0.35198355872E+03  0.27325212306E+03  0.10821456056E+04  0.89839186141E+03 0.  0.
         23    2    4    4    0    0  0.30319413934E+03  0.54049444090E+03 -0.10772292707E+03  0.63562136940E+03  0.91374884123E+02 0.  0.
         23    2    4    4    0    0  0.10346545617E+03 -0.18851088218E+03  0.38097505013E+03  0.44652423616E+03  0.89445242118E+02 0.  0.
         13    1    3    3    0    0 -0.24334581823E+03 -0.22641958917E+03  0.38783493938E+03  0.51078269138E+03  0.00000000000E+00 0. -1.
        -13    1    3    3    0    0 -0.16331377728E+03 -0.12556396955E+03  0.13990671493E+03  0.24902126250E+03  0.00000000000E+00 0.  1.
          2    1    6    6  502    0  0.11873764273E+03 -0.16650248880E+03  0.31791457810E+03  0.37800976911E+03  0.00000000000E+00 0. -1.
          2    1    5    5  503    0  0.20762499884E+03  0.29333597845E+03 -0.36526407127E+02  0.36123166364E+03  0.00000000000E+00 0. -1.
         -2    1    5    5    0  503  0.95569140493E+02  0.24715846245E+03 -0.71196519939E+02  0.27438970576E+03  0.00000000000E+00 0.  1.
         -2    1    6    6    0  502 -0.15272186570E+02 -0.22008393385E+02  0.63060472031E+02  0.68514467047E+02  0.00000000000E+00 0.  1.
<mgrwt>
<rscale>  0 0.16586703E+04</rscale>
<asrwt>0</asrwt>
<pdfrwt beam="1">  1        2 0.80073522E-01 0.16586703E+04</pdfrwt>
<pdfrwt beam="2">  1       -2 0.20330333E+00 0.16586703E+04</pdfrwt>
<totfact> 0.70909111E+00</totfact>
</mgrwt>
</event>
<event>
12    1  0.4802930E-008  0.3526403E+04  0.7818608E-02  0.8107561E-01
         -2   -1    0    0    0  501 -0.00000000000E+00  0.00000000000E+00  0.19107057871E+04  0.19107057871E+04  0.00000000000E+00 0.  1.
          2   -1    0    0  501    0  0.00000000000E+00 -0.00000000000E+00 -0.16270848293E+04  0.16270848293E+04  0.00000000000E+00 0. -1.
         23    2    1    2    0    0 -0.44238534492E+03 -0.55219622550E+03 -0.13713470388E+04  0.15458259209E+04  0.91430914281E+02 0.  0.
        254    2    1    2    0    0  0.44238534492E+03  0.55219622550E+03  0.16549679966E+04  0.19919646955E+04  0.85345111956E+03 0.  0.
         23    2    4    4    0    0  0.37007908364E+03  0.66269490403E+03  0.16675147617E+04  0.18344990136E+04  0.93048838616E+02 0.  0.
         23    2    4    4    0    0  0.72306261284E+02 -0.11049867853E+03 -0.12546765154E+02  0.15746568187E+03  0.84852025735E+02 0.  0.
         13    1    3    3    0    0 -0.11953292642E+03 -0.15735786999E+03 -0.47620679598E+03  0.51557980205E+03  0.00000000000E+00 0.  1.
        -13    1    3    3    0    0 -0.32285241851E+03 -0.39483835551E+03 -0.89514024283E+03  0.10302461189E+04  0.00000000000E+00 0. -1.
          2    1    5    5  502    0  0.50248843663E+02  0.17013558270E+03  0.38100681743E+03  0.42028235475E+03  0.00000000000E+00 0. -1.
          1    1    6    6  503    0  0.89172010321E+02 -0.71181443960E+02 -0.11425082813E+02  0.11466899278E+03  0.00000000000E+00 0. -1.
         -2    1    5    5    0  502  0.31983023998E+03  0.49255932134E+03  0.12865079443E+04  0.14142166589E+04  0.00000000000E+00 0.  1.
         -1    1    6    6    0  503 -0.16865749037E+02 -0.39317234573E+02 -0.11216823408E+01  0.42796689082E+02  0.00000000000E+00 0.  1.
<mgrwt>
<rscale>  0 0.35264035E+04</rscale>
<asrwt>0</asrwt>
<pdfrwt beam="1">  1        2 0.25032074E+00 0.35264035E+04</pdfrwt>
<pdfrwt beam="2">  1       -2 0.29395474E+00 0.35264035E+04</pdfrwt>
<totfact> 0.30559286E-01</totfact>
</mgrwt>
</event>
<event>
12    1  0.4802930E-008  0.2354386E+04  0.7818608E-02  0.8456781E-01
          2   -1    0    0  501    0  0.00000000000E+00  0.00000000000E+00  0.91895678652E+03  0.91895678652E+03  0.00000000000E+00 0. -1.
         -2   -1    0    0    0  501 -0.00000000000E+00 -0.00000000000E+00 -0.15079964333E+04  0.15079964333E+04  0.00000000000E+00 0.  1.
         23    2    1    2    0    0  0.42557321232E+03  0.34864082774E+03 -0.10784242957E+04  0.12138136470E+04  0.87644863741E+02 0.  0.
        254    2    1    2    0    0 -0.42557321232E+03 -0.34864082774E+03  0.48938464892E+03  0.12131395729E+04  0.96413033500E+03 0.  0.
         23    2    4    4    0    0 -0.67627575429E+02  0.77465016903E+02 -0.24815741262E+03  0.28475757419E+03  0.94501094267E+02 0.  0.
         23    2    4    4    0    0 -0.35794563689E+03 -0.42610584464E+03  0.73754206155E+03  0.92838199868E+03  0.90739038568E+02 0.  0.
         11    1    3    3    0    0  0.60763561492E+01 -0.82853331929E+00 -0.41272646920E+02  0.41725770878E+02  0.00000000000E+00 0. -1.
        -11    1    3    3    0    0  0.41949685617E+03  0.34946936105E+03 -0.10371516488E+04  0.11720878761E+04  0.00000000000E+00 0.  1.
          2    1    5    5  502    0 -0.11839342350E+02  0.81907044826E+02 -0.16387765545E+03  0.18358872508E+03  0.00000000000E+00 0. -1.
          4    1    6    6  503    0 -0.30553029075E+03 -0.30852732257E+03  0.54612814079E+03  0.69770610826E+03  0.00000000000E+00 0. -1.
         -2    1    5    5    0  502 -0.55788233079E+02 -0.44420279233E+01 -0.84279757174E+02  0.10116884912E+03  0.00000000000E+00 0.  1.
         -4    1    6    6    0  503 -0.52415346141E+02 -0.11757852207E+03  0.19141392076E+03  0.23067589043E+03  0.00000000000E+00 0.  1.
<mgrwt>
<rscale>  0 0.23543862E+04</rscale>
<asrwt>0</asrwt>
<pdfrwt beam="1">  1        2 0.14137797E+00 0.23543862E+04</pdfrwt>
<pdfrwt beam="2">  1       -2 0.23199945E+00 0.23543862E+04</pdfrwt>
<totfact> 0.21342824E+00</totfact>
</mgrwt>
</event>
<event>
12    1  0.4802930E-008  0.1329085E+04  0.7818608E-02  0.9006813E-01
         -2   -1    0    0    0  501 -0.00000000000E+00  0.00000000000E+00  0.40901958318E+03  0.40901958318E+03  0.00000000000E+00 0. -1.
          2   -1    0    0  501    0  0.00000000000E+00 -0.00000000000E+00 -0.10796961791E+04  0.10796961791E+04  0.00000000000E+00 0.  1.
         23    2    1    2    0    0  0.62932832643E+01  0.21916815492E+03 -0.48637653311E+03  0.54128027223E+03  0.91366928406E+02 0.  0.
        254    2    1    2    0    0 -0.62932832643E+01 -0.21916815492E+03 -0.18430006283E+03  0.94743549007E+03  0.90310199265E+03 0.  0.
         23    2    4    4    0    0 -0.22434677544E+03  0.28347942600E+03 -0.72756478919E+02  0.38090959242E+03  0.95428254475E+02 0.  0.
         23    2    4    4    0    0  0.21805349218E+03 -0.50264758093E+03 -0.11154358391E+03  0.56652589765E+03  0.91146615582E+02 0.  0.
         11    1    3    3    0    0 -0.27035997395E+02  0.75406871900E+02 -0.10301986691E+03  0.13049994047E+03  0.00000000000E+00 0. -1.
        -11    1    3    3    0    0  0.33329280659E+02  0.14376128302E+03 -0.38335666620E+03  0.41078033176E+03  0.00000000000E+00 0.  1.
          4    1    5    5  502    0 -0.84562041758E+01  0.35659968786E+02 -0.33950481264E+02  0.49957741551E+02  0.00000000000E+00 0. -1.
          3    1    6    6  503    0  0.12798760491E+01 -0.75206753994E+02 -0.26646595875E+02  0.79798088954E+02  0.00000000000E+00 0. -1.
         -4    1    5    5    0  502 -0.21589057127E+03  0.24781945722E+03 -0.38805997656E+02  0.33095185087E+03  0.00000000000E+00 0.  1.
         -3    1    6    6    0  503  0.21677361613E+03 -0.42744082693E+03 -0.84896988035E+02  0.48672780869E+03  0.00000000000E+00 0.  1.
<mgrwt>
<rscale>  0 0.13290852E+04</rscale>
<asrwt>0</asrwt>
<pdfrwt beam="1">  1        2 0.16610710E+00 0.13290852E+04</pdfrwt>
<pdfrwt beam="2">  1       -2 0.62926091E-01 0.13290852E+04</pdfrwt>
<totfact> 0.51350615E+01</totfact>
</mgrwt>
</event>
<event>
12    1  0.4802930E-008  0.1663999E+04  0.7818608E-02  0.8782168E-01
         -2   -1    0    0    0  501 -0.00000000000E+00  0.00000000000E+00  0.22643904805E+03  0.22643904805E+03  0.00000000000E+00 0. -1.
          2   -1    0    0  501    0  0.00000000000E+00 -0.00000000000E+00 -0.30569945593E+04  0.30569945593E+04  0.00000000000E+00 0.  1.
         23    2    1    2    0    0 -0.31420180390E+02  0.38355880108E+03 -0.18801566263E+04  0.19214009173E+04  0.93209247419E+02 0.  0.
        254    2    1    2    0    0  0.31420180390E+02 -0.38355880108E+03 -0.95039888493E+03  0.13620326901E+04  0.89653244599E+03 0.  0.
         23    2    4    4    0    0  0.36125909095E+03 -0.10092392507E+03 -0.81031932741E+03  0.89737999331E+03  0.89329001844E+02 0.  0.
         23    2    4    4    0    0 -0.32983891056E+03 -0.28263487601E+03 -0.14007955752E+03  0.46465269676E+03  0.87199002910E+02 0.  0.
         11    1    3    3    0    0  0.31180215546E+02  0.12533273650E+03 -0.68432204768E+03  0.69640301953E+03  0.00000000000E+00 0. -1.
        -11    1    3    3    0    0 -0.62600395936E+02  0.25822606459E+03 -0.11958345786E+04  0.12249978977E+04  0.00000000000E+00 0.  1.
          4    1    5    5  502    0  0.13229221680E+03 -0.80089287650E+01 -0.36158277580E+03  0.38510709851E+03  0.00000000000E+00 0. -1.
          1    1    6    6  503    0 -0.17338137789E+02 -0.49474277681E+02 -0.25305766641E+02  0.58212515830E+02  0.00000000000E+00 0. -1.
         -4    1    5    5    0  502  0.22896687415E+03 -0.92914996301E+02 -0.44873655161E+03  0.51227289480E+03  0.00000000000E+00 0.  1.
         -1    1    6    6    0  503 -0.31250077277E+03 -0.23316059833E+03 -0.11477379088E+03  0.40644018093E+03  0.00000000000E+00 0.  1.
<mgrwt>
<rscale>  0 0.16639987E+04</rscale>
<asrwt>0</asrwt>
<pdfrwt beam="1">  1        2 0.47030689E+00 0.16639987E+04</pdfrwt>
<pdfrwt beam="2">  1       -2 0.34836774E-01 0.16639987E+04</pdfrwt>
<totfact> 0.11890283E+01</totfact>
</mgrwt>
</event>
<event>
12    1  0.5751091E-008  0.2109983E+04  0.7818608E-02  0.8556859E-01
          1   -1    0    0  501    0  0.00000000000E+00  0.00000000000E+00  0.73772739916E+03  0.73772739916E+03  0.00000000000E+00 0.  1.
         -1   -1    0    0    0  501 -0.00000000000E+00 -0.00000000000E+00 -0.15086967495E+04  0.15086967495E+04  0.00000000000E+00 0. -1.
         23    2    1    2    0    0 -0.17302247899E+03  0.10800731024E+03  0.57243278353E+03  0.61456794294E+03  0.91717542086E+02 0.  0.
        254    2    1    2    0    0  0.17302247899E+03 -0.10800731024E+03 -0.13434021338E+04  0.16318562057E+04  0.90367196788E+03 0.  0.
         23    2    4    4    0    0 -0.17316101684E+03  0.12649050847E+03 -0.11297079410E+04  0.11536782534E+04  0.93535521746E+02 0.  0.
         23    2    4    4    0    0  0.34618349584E+03 -0.23449781870E+03 -0.21369419284E+03  0.47817795233E+03  0.90314485404E+02 0.  0.
         13    1    3    3    0    0 -0.43206382149E+01  0.25303585928E+02  0.25166856288E+02  0.35948713897E+02  0.00000000000E+00 0. -1.
        -13    1    3    3    0    0 -0.16870184078E+03  0.82703724307E+02  0.54726592725E+03  0.57861922905E+03  0.00000000000E+00 0.  1.
          1    1    5    5  502    0 -0.16221923278E+03  0.92510468679E+02 -0.77513040992E+03  0.79730823318E+03  0.00000000000E+00 0. -1.
          3    1    6    6  503    0  0.33396827824E+03 -0.20801856563E+03 -0.21614251355E+03  0.44891438013E+03  0.00000000000E+00 0. -1.
         -1    1    5    5    0  502 -0.10941784064E+02  0.33980039791E+02 -0.35457753107E+03  0.35637002018E+03  0.00000000000E+00 0.  1.
         -3    1    6    6    0  503  0.12215217595E+02 -0.26479253071E+02  0.24483207023E+01  0.29263572207E+02  0.00000000000E+00 0.  1.
<mgrwt>
<rscale>  0 0.21099829E+04</rscale>
<asrwt>0</asrwt>
<pdfrwt beam="1">  1        1 0.11349652E+00 0.21099829E+04</pdfrwt>
<pdfrwt beam="2">  1       -1 0.23210719E+00 0.21099829E+04</pdfrwt>
<totfact> 0.21104908E+00</totfact>
</mgrwt>
</event>
<event>
12    1  0.4802930E-008  0.1652328E+04  0.7818608E-02  0.8789031E-01
          1   -1    0    0  501    0  0.00000000000E+00  0.00000000000E+00  0.64852779813E+03  0.64852779813E+03  0.00000000000E+00 0. -1.
         -1   -1    0    0    0  501 -0.00000000000E+00 -0.00000000000E+00 -0.10524556577E+04  0.10524556577E+04  0.00000000000E+00 0.  1.
         23    2    1    2    0    0 -0.50882081409E+03 -0.27280298119E+03 -0.14165715711E+03  0.60063516365E+03  0.85882258119E+02 0.  0.
        254    2    1    2    0    0  0.50882081409E+03  0.27280298119E+03 -0.26227070247E+03  0.11003482922E+04  0.89925544501E+03 0.  0.
         23    2    4    4    0    0  0.69686323991E+03  0.19507048751E+03  0.33261110422E+02  0.73010745438E+03  0.90992984547E+02 0.  0.
         23    2    4    4    0    0 -0.18804242582E+03  0.77732493675E+02 -0.29553181289E+03  0.37024083782E+03  0.91306796464E+02 0.  0.
         11    1    3    3    0    0 -0.41415948685E+03 -0.24054273082E+03 -0.14548505308E+03  0.50055447912E+03  0.00000000000E+00 0.  1.
        -11    1    3    3    0    0 -0.94661327244E+02 -0.32260250365E+02  0.38278959696E+01  0.10008068453E+03  0.00000000000E+00 0. -1.
          2    1    5    5  502    0  0.45980608398E+03  0.83563627166E+02  0.17704548603E+02  0.46767292598E+03  0.00000000000E+00 0. -1.
          4    1    6    6  503    0  0.60631119992E+01  0.19360512635E+02 -0.24850070925E+02  0.32079850399E+02  0.00000000000E+00 0. -1.
         -2    1    5    5    0  502  0.23705715592E+03  0.11150686035E+03  0.15556561819E+02  0.26243452840E+03  0.00000000000E+00 0.  1.
         -4    1    6    6    0  503 -0.19410553782E+03  0.58371981040E+02 -0.27068174197E+03  0.33816098743E+03  0.00000000000E+00 0.  1.
<mgrwt>
<rscale>  0 0.16523278E+04</rscale>
<asrwt>0</asrwt>
<pdfrwt beam="1">  1        1 0.99773509E-01 0.16523278E+04</pdfrwt>
<pdfrwt beam="2">  1       -1 0.16191625E+00 0.16523278E+04</pdfrwt>
<totfact> 0.82522359E+00</totfact>
</mgrwt>
</event>
<event>
12    1  0.4802930E-008  0.2492319E+04  0.7818608E-02  0.8405727E-01
         -2   -1    0    0    0  501 -0.00000000000E+00  0.00000000000E+00  0.84350251520E+03  0.84350251520E+03  0.00000000000E+00 0.  1.
          2   -1    0    0  501    0  0.00000000000E+00 -0.00000000000E+00 -0.18410304122E+04  0.18410304122E+04  0.00000000000E+00 0. -1.
         23    2    1    2    0    0  0.36411575696E+03 -0.74320804847E+03  0.31526554434E+03  0.89038837023E+03  0.91981512345E+02 0.  0.
        254    2    1    2    0    0 -0.36411575696E+03  0.74320804847E+03 -0.13127934413E+04  0.17941445571E+04  0.90032748741E+03 0.  0.
         23    2    4    4    0    0 -0.27366725158E+03 -0.82327703289E+02 -0.68980941512E+03  0.75203537047E+03  0.89713733205E+02 0.  0.
         23    2    4    4    0    0 -0.90448505380E+02  0.82553575176E+03 -0.62298402621E+03  0.10421091867E+04  0.90511051842E+02 0.  0.
         13    1    3    3    0    0  0.37813852076E+02 -0.86886285662E+02  0.68793981905E+02  0.11709707935E+03  0.00000000000E+00 0. -1.
        -13    1    3    3    0    0  0.32630190489E+03 -0.65632176281E+03  0.24647156244E+03  0.77329129088E+03  0.00000000000E+00 0.  1.
          2    1    5    5  502    0 -0.16930094605E+03 -0.56541005358E+02 -0.53152554624E+03  0.56069519520E+03  0.00000000000E+00 0. -1.
          4    1    6    6  503    0 -0.45607998315E+02  0.21192885251E+03 -0.12242554535E+03  0.24896172837E+03  0.00000000000E+00 0. -1.
         -2    1    5    5    0  502 -0.10436630554E+03 -0.25786697931E+02 -0.15828386888E+03  0.19134017526E+03  0.00000000000E+00 0.  1.
         -4    1    6    6    0  503 -0.44840507064E+02  0.61360689924E+03 -0.50055848086E+03  0.79314745832E+03  0.00000000000E+00 0.  1.
<mgrwt>
<rscale>  0 0.24923192E+04</rscale>
<asrwt>0</asrwt>
<pdfrwt beam="1">  1        2 0.28323545E+00 0.24923192E+04</pdfrwt>
<pdfrwt beam="2">  1       -2 0.12976962E+00 0.24923192E+04</pdfrwt>
<totfact> 0.31881330E+00</totfact>
</mgrwt>
</event>
<event>
12    1  0.4802930E-008  0.2407705E+04  0.7818608E-02  0.8436625E-01
          1   -1    0    0  501    0  0.00000000000E+00  0.00000000000E+00  0.12195893253E+04  0.12195893253E+04  0.00000000000E+00 0. -1.
         -1   -1    0    0    0  501 -0.00000000000E+00 -0.00000000000E+00 -0.11883183138E+04  0.11883183138E+04  0.00000000000E+00 0.  1.
         23    2    1    2    0    0  0.77750688010E+03  0.64823405045E+03  0.22319282987E+03  0.10406292622E+04  0.91487098801E+02 0.  0.
        254    2    1    2    0    0 -0.77750688010E+03 -0.64823405045E+03 -0.19192181842E+03  0.13672783769E+04  0.89882803845E+03 0.  0.
         23    2    4    4    0    0 -0.28471720272E+03 -0.77299854026E+03 -0.19217849397E+03  0.85066715755E+03  0.90063370043E+02 0.  0.
         23    2    4    4    0    0 -0.49278967738E+03  0.12476448981E+03  0.25667554524E+00  0.51661121932E+03  0.92082799647E+02 0.  0.
         11    1    3    3    0    0  0.74706292530E+03  0.60714265424E+03  0.22789510670E+03  0.98927316582E+03  0.00000000000E+00 0. -1.
        -11    1    3    3    0    0  0.30443954801E+02  0.41091396209E+02 -0.47022768353E+01  0.51356096364E+02  0.00000000000E+00 0.  1.
          3    1    5    5  502    0 -0.25189083021E+03 -0.57190274127E+03 -0.14505760423E+03  0.64153210704E+03  0.00000000000E+00 0. -1.
          3    1    6    6  503    0 -0.36556196887E+03  0.13253605083E+03  0.77867351872E+01  0.38892414569E+03  0.00000000000E+00 0. -1.
         -3    1    5    5    0  502 -0.32826372514E+02 -0.20109579899E+03 -0.47120889741E+02  0.20913505052E+03  0.00000000000E+00 0.  1.
         -3    1    6    6    0  503 -0.12722770851E+03 -0.77715610212E+01 -0.75300596419E+01  0.12768707363E+03  0.00000000000E+00 0.  1.
<mgrwt>
<rscale>  0 0.24077046E+04</rscale>
<asrwt>0</asrwt>
<pdfrwt beam="1">  1        1 0.18762913E+00 0.24077046E+04</pdfrwt>
<pdfrwt beam="2">  1       -1 0.18281820E+00 0.24077046E+04</pdfrwt>
<totfact> 0.18394585E+00</totfact>
</mgrwt>
</event>
<event>
12    1  0.4802930E-008  0.2910717E+04  0.7818608E-02  0.8269696E-01
          1   -1    0    0  501    0  0.00000000000E+00  0.00000000000E+00  0.16293440133E+04  0.16293440133E+04  0.00000000000E+00 0. -1.
         -1   -1    0    0    0  501 -0.00000000000E+00 -0.00000000000E+00 -0.12999512816E+04  0.12999512816E+04  0.00000000000E+00 0.  1.
         23    2    1    2    0    0 -0.94362889686E+03 -0.80317417823E+03  0.59720602816E+03  0.13791425697E+04  0.99272009752E+02 0.  0.
        254    2    1    2    0    0  0.94362889686E+03  0.80317417823E+03 -0.26781329641E+03  0.15501527252E+04  0.89203433461E+03 0.  0.
         23    2    4    4    0    0  0.89577466884E+03  0.75851592951E+03  0.84656851748E+02  0.11804541586E+04  0.92447636168E+02 0.  0.
         23    2    4    4    0    0  0.47854228013E+02  0.44658248724E+02 -0.35247014816E+03  0.36969856655E+03  0.90318538818E+02 0.  0.
         13    1    3    3    0    0 -0.41357695871E+03 -0.29605916296E+03  0.27102436530E+03  0.57632554631E+03  0.00000000000E+00 0. -1.
        -13    1    3    3    0    0 -0.53005193815E+03 -0.50711501527E+03  0.32618166286E+03  0.80281702338E+03  0.00000000000E+00 0.  1.
          1    1    5    5  502    0  0.95779031336E+02  0.75794523685E+02  0.37159463622E+02  0.12766854899E+03  0.00000000000E+00 0. -1.
          3    1    6    6  503    0  0.52135182760E+02 -0.12805023486E+02 -0.15802292450E+03  0.16689305131E+03  0.00000000000E+00 0. -1.
         -1    1    5    5    0  502  0.79999563751E+03  0.68272140582E+03  0.47497388126E+02  0.10527856096E+04  0.00000000000E+00 0.  1.
         -3    1    6    6    0  503 -0.42809547471E+01  0.57463272210E+02 -0.19444722365E+03  0.20280551524E+03  0.00000000000E+00 0.  1.
<mgrwt>
<rscale>  0 0.29107166E+04</rscale>
<asrwt>0</asrwt>
<pdfrwt beam="1">  1        1 0.25066831E+00 0.29107166E+04</pdfrwt>
<pdfrwt beam="2">  1       -1 0.19999250E+00 0.29107166E+04</pdfrwt>
<totfact> 0.68769054E-01</totfact>
</mgrwt>
</event>
<event>
12    1  0.4802930E-008  0.1509618E+04  0.7818608E-02  0.8878082E-01
          2   -1    0    0  501    0  0.00000000000E+00  0.00000000000E+00  0.27869988631E+04  0.27869988631E+04  0.00000000000E+00 0. -1.
         -2   -1    0    0    0  501 -0.00000000000E+00 -0.00000000000E+00 -0.20442655523E+03  0.20442655523E+03  0.00000000000E+00 0.  1.
         23    2    1    2    0    0 -0.28844344213E+03  0.30051042164E+01  0.15858465144E+04  0.16148023994E+04  0.97308642578E+02 0.  0.
        254    2    1    2    0    0  0.28844344213E+03 -0.30051042164E+01  0.99672579347E+03  0.13766230189E+04  0.90466567245E+03 0.  0.
         23    2    4    4    0    0 -0.33817261089E+02 -0.98466551511E+02  0.10182409258E+04  0.10275798621E+04  0.90920410131E+02 0.  0.
         23    2    4    4    0    0  0.32226070322E+03  0.95461447295E+02 -0.21515132371E+02  0.34904315685E+03  0.91669927786E+02 0.  0.
         11    1    3    3    0    0 -0.19229120160E+03  0.15050702987E+02  0.79606708769E+03  0.81910026124E+03  0.00000000000E+00 0. -1.
        -11    1    3    3    0    0 -0.96152240534E+02 -0.12045598770E+02  0.78977942673E+03  0.79570213817E+03  0.00000000000E+00 0.  1.
          1    1    5    5  502    0 -0.59644313325E+02 -0.88343753729E+02  0.89080103432E+03  0.89715580904E+03  0.00000000000E+00 0. -1.
          3    1    6    6  503    0  0.64958575324E+02 -0.17338969991E+02 -0.88868053348E+01  0.67817635594E+02  0.00000000000E+00 0. -1.
         -1    1    5    5    0  502  0.25827052236E+02 -0.10122797782E+02  0.12743989152E+03  0.13042405304E+03  0.00000000000E+00 0.  1.
         -3    1    6    6    0  503  0.25730212790E+03  0.11280041729E+03 -0.12628327036E+02  0.28122552125E+03  0.00000000000E+00 0.  1.
<mgrwt>
<rscale>  0 0.15096179E+04</rscale>
<asrwt>0</asrwt>
<pdfrwt beam="1">  1        2 0.42876903E+00 0.15096179E+04</pdfrwt>
<pdfrwt beam="2">  1       -2 0.31450241E-01 0.15096179E+04</pdfrwt>
<totfact> 0.21445092E+01</totfact>
</mgrwt>
</event>
<event>
12    1  0.4802930E-008  0.1588150E+04  0.7818608E-02  0.8827861E-01
         -1   -1    0    0    0  501 -0.00000000000E+00  0.00000000000E+00  0.30957949143E+03  0.30957949143E+03  0.00000000000E+00 0.  1.
          1   -1    0    0  501    0  0.00000000000E+00 -0.00000000000E+00 -0.20368109482E+04  0.20368109482E+04  0.00000000000E+00 0. -1.
         23    2    1    2    0    0  0.15237991624E+03 -0.71117430196E+02  0.15685228477E+03  0.24733122750E+03  0.91064642470E+02 0.  0.
        254    2    1    2    0    0 -0.15237991624E+03  0.71117430196E+02 -0.18840837415E+04  0.20990592121E+04  0.90994543967E+03 0.  0.
         23    2    4    4    0    0 -0.44461368457E+03 -0.21385548212E+03 -0.90583629819E+03  0.10354001169E+04  0.89991706302E+02 0.  0.
         23    2    4    4    0    0  0.29223376833E+03  0.28497291231E+03 -0.97824744333E+03  0.10636590952E+04  0.88274992931E+02 0.  0.
         11    1    3    3    0    0  0.13490436961E+03 -0.19155341661E+02  0.10731370905E+03  0.17344263664E+03  0.00000000000E+00 0.  1.
        -11    1    3    3    0    0  0.17475546626E+02 -0.51962088535E+02  0.49538575720E+02  0.73888590859E+02  0.00000000000E+00 0. -1.
          1    1    5    5  502    0 -0.36032692879E+01 -0.17565862124E+02 -0.45258109697E+02  0.48680997885E+02  0.00000000000E+00 0. -1.
          3    1    6    6  503    0  0.26958246085E+03  0.23277743811E+03 -0.89039272057E+03  0.95898865255E+03  0.00000000000E+00 0.  1.
         -1    1    5    5    0  502 -0.44101041528E+03 -0.19628961999E+03 -0.86057818849E+03  0.98671911901E+03  0.00000000000E+00 0.  1.
         -3    1    6    6    0  503  0.22651307482E+02  0.52195474202E+02 -0.87854722766E+02  0.10467044268E+03  0.00000000000E+00 0. -1.
<mgrwt>
<rscale>  0 0.15881497E+04</rscale>
<asrwt>0</asrwt>
<pdfrwt beam="1">  1        1 0.31335552E+00 0.15881497E+04</pdfrwt>
<pdfrwt beam="2">  1       -1 0.47627616E-01 0.15881497E+04</pdfrwt>
<totfact> 0.11900560E+01</totfact>
</mgrwt>
</event>
<event>
12    1  0.4802930E-008  0.2595209E+04  0.7818608E-02  0.8369830E-01
          1   -1    0    0  501    0  0.00000000000E+00  0.00000000000E+00  0.16854390493E+04  0.16854390493E+04  0.00000000000E+00 0. -1.
         -1   -1    0    0    0  501 -0.00000000000E+00 -0.00000000000E+00 -0.99901433269E+03  0.99901433269E+03  0.00000000000E+00 0.  1.
         23    2    1    2    0    0 -0.60590266292E+03  0.20044466178E+03  0.12825166106E+04  0.14351830122E+04  0.87208500867E+02 0.  0.
        254    2    1    2    0    0  0.60590266292E+03 -0.20044466178E+03 -0.59609189402E+03  0.12492703698E+04  0.89333913568E+03 0.  0.
         23    2    4    4    0    0  0.73939436945E+03 -0.34490249999E+03 -0.28357610833E+03  0.86854674083E+03  0.91083828012E+02 0.  0.
         23    2    4    4    0    0 -0.13349170653E+03  0.14445783821E+03 -0.31251578569E+03  0.38072362895E+03  0.92716032078E+02 0.  0.
         13    1    3    3    0    0 -0.44199960207E+03  0.11412829374E+03  0.85428906261E+03  0.96860658585E+03  0.00000000000E+00 0. -1.
        -13    1    3    3    0    0 -0.16390306085E+03  0.86316368050E+02  0.42822754803E+03  0.46657642637E+03  0.00000000000E+00 0.  1.
          2    1    5    5  502    0  0.45571922501E+03 -0.25130112832E+03 -0.20778526881E+03  0.56036326349E+03  0.00000000000E+00 0. -1.
          4    1    6    6  503    0 -0.11947202827E+03  0.95336872973E+02 -0.16644925701E+03  0.22598238879E+03  0.00000000000E+00 0. -1.
         -2    1    5    5    0  502  0.28367514444E+03 -0.93601371676E+02 -0.75790839522E+02  0.30818347734E+03  0.00000000000E+00 0.  1.
         -4    1    6    6    0  503 -0.14019678262E+02  0.49120965235E+02 -0.14606652868E+03  0.15474124016E+03  0.00000000000E+00 0.  1.
<mgrwt>
<rscale>  0 0.25952093E+04</rscale>
<asrwt>0</asrwt>
<pdfrwt beam="1">  1        1 0.25929832E+00 0.25952093E+04</pdfrwt>
<pdfrwt beam="2">  1       -1 0.15369451E+00 0.25952093E+04</pdfrwt>
<totfact> 0.14032746E+00</totfact>
</mgrwt>
</event>
<event>
12    1  0.4802930E-008  0.1581082E+04  0.7818608E-02  0.8832255E-01
          2   -1    0    0  501    0  0.00000000000E+00  0.00000000000E+00  0.73983890260E+03  0.73983890260E+03  0.00000000000E+00 0. -1.
         -2   -1    0    0    0  501 -0.00000000000E+00 -0.00000000000E+00 -0.84471740893E+03  0.84471740893E+03  0.00000000000E+00 0.  1.
         23    2    1    2    0    0 -0.42614162924E+03 -0.11680545805E+02  0.27609928482E+03  0.51575852790E+03  0.89682332163E+02 0.  0.
        254    2    1    2    0    0  0.42614162924E+03  0.11680545805E+02 -0.38097779114E+03  0.10687977836E+04  0.90302353327E+03 0.  0.
         23    2    4    4    0    0  0.24080202279E+03  0.27847129364E+03  0.17606386790E+03  0.41813482744E+03  0.91139304231E+02 0.  0.
         23    2    4    4    0    0  0.18533960644E+03 -0.26679074783E+03 -0.55704165904E+03  0.65066295619E+03  0.86826262217E+02 0.  0.
         11    1    3    3    0    0 -0.72111291983E+02  0.22323546472E+02  0.78444163881E+02  0.10886627580E+03  0.00000000000E+00 0. -1.
        -11    1    3    3    0    0 -0.35403033725E+03 -0.34004092277E+02  0.19765512094E+03  0.40689225210E+03  0.00000000000E+00 0.  1.
          1    1    5    5  502    0  0.45175738954E+02  0.29986696651E+02  0.60968820484E+02  0.81591950812E+02  0.00000000000E+00 0. -1.
          3    1    6    6  503    0 -0.48158547334E+01 -0.36482594486E+01 -0.37789318540E+02  0.38269241560E+02  0.00000000000E+00 0. -1.
         -1    1    5    5    0  502  0.19562628384E+03  0.24848459699E+03  0.11509504741E+03  0.33654287663E+03  0.00000000000E+00 0.  1.
         -3    1    6    6    0  503  0.19015546118E+03 -0.26314248839E+03 -0.51925234050E+03  0.61239371463E+03  0.00000000000E+00 0.  1.
<mgrwt>
<rscale>  0 0.15810817E+04</rscale>
<asrwt>0</asrwt>
<pdfrwt beam="1">  1        2 0.11382137E+00 0.15810817E+04</pdfrwt>
<pdfrwt beam="2">  1       -2 0.12995652E+00 0.15810817E+04</pdfrwt>
<totfact> 0.15928532E+01</totfact>
</mgrwt>
</event>
<event>
12    1  0.4802930E-008  0.2082247E+04  0.7818608E-02  0.8569104E-01
         -2   -1    0    0    0  501 -0.00000000000E+00  0.00000000000E+00  0.49038127378E+03  0.49038127378E+03  0.00000000000E+00 0.  1.
          2   -1    0    0  501    0  0.00000000000E+00 -0.00000000000E+00 -0.22103984088E+04  0.22103984088E+04  0.00000000000E+00 0. -1.
         23    2    1    2    0    0 -0.24391334805E+02 -0.59365569113E+03  0.74753036701E+02  0.60587684513E+03  0.92069094401E+02 0.  0.
        254    2    1    2    0    0  0.24391334805E+02  0.59365569113E+03 -0.17947701717E+04  0.20949028374E+04  0.90243886897E+03 0.  0.
         23    2    4    4    0    0 -0.39175602772E+03  0.14228730476E+03 -0.48560025514E+03  0.64610419852E+03  0.89020026985E+02 0.  0.
         23    2    4    4    0    0  0.41614736253E+03  0.45136838637E+03 -0.13091699166E+04  0.14487986389E+04  0.90441020111E+02 0.  0.
         11    1    3    3    0    0 -0.13560773282E+02 -0.46185063653E+03  0.19243387666E+02  0.46245022760E+03  0.00000000000E+00 0.  1.
        -11    1    3    3    0    0 -0.10830561523E+02 -0.13180505460E+03  0.55509649035E+02  0.14342661753E+03  0.00000000000E+00 0. -1.
          4    1    5    5  502    0 -0.36336369728E+03  0.13451546107E+03 -0.47872056162E+03  0.61587414451E+03  0.00000000000E+00 0. -1.
          4    1    6    6  503    0  0.40351529804E+03  0.40259339959E+03 -0.12117646843E+04  0.13391339333E+04  0.00000000000E+00 0. -1.
         -4    1    5    5    0  502 -0.28392330447E+02  0.77718436915E+01 -0.68796935253E+01  0.30230054013E+02  0.00000000000E+00 0.  1.
         -4    1    6    6    0  503  0.12632064491E+02  0.48774986784E+02 -0.97405232290E+02  0.10966470566E+03  0.00000000000E+00 0.  1.
<mgrwt>
<rscale>  0 0.20822469E+04</rscale>
<asrwt>0</asrwt>
<pdfrwt beam="1">  1        2 0.34006129E+00 0.20822469E+04</pdfrwt>
<pdfrwt beam="2">  1       -2 0.75443273E-01 0.20822469E+04</pdfrwt>
<totfact> 0.74099244E+00</totfact>
</mgrwt>
</event>
<event>
12    1  0.4802930E-008  0.2190228E+04  0.7818608E-02  0.8522507E-01
         -1   -1    0    0    0  501 -0.00000000000E+00  0.00000000000E+00  0.71779900299E+03  0.71779900299E+03  0.00000000000E+00 0.  1.
          1   -1    0    0  501    0  0.00000000000E+00 -0.00000000000E+00 -0.16707665098E+04  0.16707665098E+04  0.00000000000E+00 0. -1.
         23    2    1    2    0    0  0.76497708813E+03 -0.41445360984E+03 -0.71258776151E+03  0.11291218544E+04  0.10086180729E+03 0.  0.
        254    2    1    2    0    0 -0.76497708813E+03  0.41445360984E+03 -0.24037974535E+03  0.12594436584E+04  0.87832463629E+03 0.  0.
         23    2    4    4    0    0 -0.35596321936E+03 -0.49727194013E+02 -0.46455261571E+03  0.59423691320E+03  0.90143046771E+02 0.  0.
         23    2    4    4    0    0 -0.40901386877E+03  0.46418080385E+03  0.22417287036E+03  0.66520674524E+03  0.97418553658E+02 0.  0.
         11    1    3    3    0    0  0.68796459199E+03 -0.40406285072E+03 -0.65759946347E+03  0.10339241372E+04  0.00000000000E+00 0.  1.
        -11    1    3    3    0    0  0.77012496135E+02 -0.10390759121E+02 -0.54988298037E+02  0.95197717184E+02  0.00000000000E+00 0. -1.
          4    1    5    5  502    0 -0.12660789187E+03 -0.25192868443E+02 -0.23893659207E+03  0.27157859623E+03  0.00000000000E+00 0. -1.
          3    1    6    6  503    0 -0.51220680193E+01 -0.50330375582E+01  0.29843087140E+01  0.77764481839E+01  0.00000000000E+00 0. -1.
         -4    1    5    5    0  502 -0.22935532750E+03 -0.24534325570E+02 -0.22561602364E+03  0.32265831696E+03  0.00000000000E+00 0.  1.
         -3    1    6    6    0  503 -0.40389180075E+03  0.46921384141E+03  0.22118856164E+03  0.65743029705E+03  0.00000000000E+00 0.  1.
<mgrwt>
<rscale>  0 0.21902279E+04</rscale>
<asrwt>0</asrwt>
<pdfrwt beam="1">  1        1 0.25704100E+00 0.21902279E+04</pdfrwt>
<pdfrwt beam="2">  1       -1 0.11043062E+00 0.21902279E+04</pdfrwt>
<totfact> 0.34429665E+00</totfact>
</mgrwt>
</event>
<event>
12    1  0.4802930E-008  0.1301560E+04  0.7818608E-02  0.9028329E-01
          2   -1    0    0  501    0  0.00000000000E+00  0.00000000000E+00  0.15130932453E+04  0.15130932453E+04  0.00000000000E+00 0. -1.
         -2   -1    0    0    0  501 -0.00000000000E+00 -0.00000000000E+00 -0.27989994199E+03  0.27989994199E+03  0.00000000000E+00 0.  1.
         23    2    1    2    0    0  0.11000296292E+03 -0.28315461317E+02 -0.81292876889E+02  0.16523451894E+03  0.88269457993E+02 0.  0.
        254    2    1    2    0    0 -0.11000296292E+03  0.28315461317E+02  0.13144861802E+04  0.16277586683E+04  0.95332153403E+03 0.  0.
         23    2    4    4    0    0 -0.11365561010E+03 -0.43776139805E+03  0.46688482499E+03  0.65623666974E+03  0.90069348693E+02 0.  0.
         23    2    4    4    0    0  0.36526471790E+01  0.46607685937E+03  0.84760135517E+03  0.97152199858E+03  0.90476271867E+02 0.  0.
         13    1    3    3    0    0  0.69065711775E+01 -0.11242069697E+02 -0.56247926051E+02  0.57774683397E+02  0.00000000000E+00 0.  1.
        -13    1    3    3    0    0  0.10309639174E+03 -0.17073391620E+02 -0.25044950838E+02  0.10745983554E+03  0.00000000000E+00 0. -1.
          4    1    5    5  502    0 -0.67638262475E+02 -0.10320505994E+03  0.12046377349E+03  0.17244633853E+03  0.00000000000E+00 0. -1.
          1    1    6    6  503    0  0.75848377128E+01  0.16607444048E+03  0.39440690217E+03  0.42801291338E+03  0.00000000000E+00 0. -1.
         -4    1    5    5    0  502 -0.46017347624E+02 -0.33455633811E+03  0.34642105150E+03  0.48379033121E+03  0.00000000000E+00 0.  1.
         -1    1    6    6    0  503 -0.39321905338E+01  0.30000241889E+03  0.45319445300E+03  0.54350908519E+03  0.00000000000E+00 0.  1.
<mgrwt>
<rscale>  0 0.13015602E+04</rscale>
<asrwt>0</asrwt>
<pdfrwt beam="1">  1        2 0.23278357E+00 0.13015602E+04</pdfrwt>
<pdfrwt beam="2">  1       -2 0.43061530E-01 0.13015602E+04</pdfrwt>
<totfact> 0.62514646E+01</totfact>
</mgrwt>
</event>
<event>
12    1  0.4802930E-008  0.1452081E+04  0.7818608E-02  0.8916959E-01
          1   -1    0    0  501    0  0.00000000000E+00  0.00000000000E+00  0.12323638222E+04  0.12323638222E+04  0.00000000000E+00 0. -1.
         -1   -1    0    0    0  501 -0.00000000000E+00 -0.00000000000E+00 -0.42774302297E+03  0.42774302297E+03  0.00000000000E+00 0.  1.
         23    2    1    2    0    0  0.93633916319E+02 -0.80300851486E+02  0.72528876568E+03  0.74137417611E+03  0.91522337971E+02 0.  0.
        254    2    1    2    0    0 -0.93633916319E+02  0.80300851486E+02  0.79332033540E+02  0.91873266905E+03  0.90695127135E+03 0.  0.
         23    2    4    4    0    0  0.34823948777E+03  0.72025775041E+01  0.24210135468E+03  0.43383828966E+03  0.90994382623E+02 0.  0.
         23    2    4    4    0    0 -0.44187340409E+03  0.73098273982E+02 -0.16276932114E+03  0.48489437939E+03  0.89628368045E+02 0.  0.
         13    1    3    3    0    0  0.69917235827E+01 -0.41412235765E+02  0.40858206727E+03  0.41073490619E+03  0.00000000000E+00 0. -1.
        -13    1    3    3    0    0  0.86642192736E+02 -0.38888615721E+02  0.31670669841E+03  0.33063926992E+03  0.00000000000E+00 0.  1.
          3    1    6    6  502    0 -0.23208836193E+03  0.41131140371E+02 -0.38065366355E+02  0.23875877066E+03  0.00000000000E+00 0. -1.
          3    1    5    5  503    0  0.12940026940E+03 -0.20324187141E+02  0.46376216885E+02  0.13895414998E+03  0.00000000000E+00 0. -1.
         -3    1    5    5    0  503  0.21883921837E+03  0.27526764645E+02  0.19572513780E+03  0.29488413968E+03  0.00000000000E+00 0.  1.
         -3    1    6    6    0  502 -0.20978504216E+03  0.31967133611E+02 -0.12470395479E+03  0.24613560873E+03  0.00000000000E+00 0.  1.
<mgrwt>
<rscale>  0 0.14520813E+04</rscale>
<asrwt>0</asrwt>
<pdfrwt beam="1">  1        1 0.18959443E+00 0.14520813E+04</pdfrwt>
<pdfrwt beam="2">  1       -1 0.65806619E-01 0.14520813E+04</pdfrwt>
<totfact> 0.23002339E+01</totfact>
</mgrwt>
</event>
<event>
12    1  0.4802930E-008  0.1791451E+04  0.7818608E-02  0.8710859E-01
          2   -1    0    0  501    0  0.00000000000E+00  0.00000000000E+00  0.11278819359E+04  0.11278819359E+04  0.00000000000E+00 0. -1.
         -2   -1    0    0    0  501 -0.00000000000E+00 -0.00000000000E+00 -0.71135480363E+03  0.71135480363E+03  0.00000000000E+00 0.  1.
         23    2    1    2    0    0 -0.41582386136E+03 -0.40499912477E+03  0.48249648778E+03  0.76092415120E+03  0.96275274126E+02 0.  0.
        254    2    1    2    0    0  0.41582386136E+03  0.40499912477E+03 -0.65969355550E+02  0.10783125883E+04  0.90635109504E+03 0.  0.
         23    2    4    4    0    0  0.36532406186E+03 -0.21775500308E+03  0.44328223259E+02  0.43732039435E+03  0.91680010924E+02 0.  0.
         23    2    4    4    0    0  0.50499799507E+02  0.62275412785E+03 -0.11029757881E+03  0.64099219395E+03  0.91282546605E+02 0.  0.
         11    1    3    3    0    0 -0.13075041444E+03 -0.12143821504E+03  0.93457863953E+02  0.20143803832E+03  0.00000000000E+00 0.  1.
        -11    1    3    3    0    0 -0.28507344692E+03 -0.28356090972E+03  0.38903862383E+03  0.55948611287E+03  0.00000000000E+00 0. -1.
          2    1    5    5  502    0  0.36539256664E+03 -0.21703091767E+03  0.33323526945E+02  0.42629168937E+03  0.00000000000E+00 0. -1.
          1    1    6    6  503    0  0.73156826314E+02  0.49057912228E+03 -0.69688193805E+02  0.50087547435E+03  0.00000000000E+00 0. -1.
         -2    1    5    5    0  502 -0.68504780940E-01 -0.72408540431E+00  0.11004696314E+02  0.11028704980E+02  0.00000000000E+00 0.  1.
         -1    1    6    6    0  503 -0.22657026807E+02  0.13217500557E+03 -0.40609385004E+02  0.14011671960E+03  0.00000000000E+00 0.  1.
<mgrwt>
<rscale>  0 0.17914511E+04</rscale>
<asrwt>0</asrwt>
<pdfrwt beam="1">  1        2 0.17352030E+00 0.17914511E+04</pdfrwt>
<pdfrwt beam="2">  1       -2 0.10943920E+00 0.17914511E+04</pdfrwt>
<totfact> 0.13163189E+01</totfact>
</mgrwt>
</event>
<event>
12    1  0.4802930E-008  0.1654518E+04  0.7818608E-02  0.8787738E-01
          2   -1    0    0  501    0  0.00000000000E+00  0.00000000000E+00  0.65113214039E+03  0.65113214039E+03  0.00000000000E+00 0.  1.
         -2   -1    0    0    0  501 -0.00000000000E+00 -0.00000000000E+00 -0.10510273747E+04  0.10510273747E+04  0.00000000000E+00 0. -1.
         23    2    1    2    0    0  0.30517278993E+03 -0.19360110866E+02  0.33598871001E+03  0.46352190608E+03  0.91972270560E+02 0.  0.
        254    2    1    2    0    0 -0.30517278993E+03  0.19360110866E+02 -0.73588394429E+03  0.12386376090E+04  0.94825771882E+03 0.  0.
         23    2    4    4    0    0  0.28197009076E+03  0.16663953129E+03 -0.44763995705E+03  0.56177060542E+03  0.89043902055E+02 0.  0.
         23    2    4    4    0    0 -0.58714288069E+03 -0.14727942043E+03 -0.28824398724E+03  0.67686700355E+03  0.92931987501E+02 0.  0.
         13    1    3    3    0    0  0.80765074164E+02 -0.42134345568E+02  0.12493252963E+03  0.15461706646E+03  0.00000000000E+00 0.  1.
        -13    1    3    3    0    0  0.22440771576E+03  0.22774234702E+02  0.21105618038E+03  0.30890483961E+03  0.00000000000E+00 0. -1.
          3    1    6    6  502    0 -0.16751533903E+03 -0.44948700444E+01 -0.57620984866E+02  0.17720544733E+03  0.00000000000E+00 0. -1.
          3    1    5    5  503    0 -0.92410749064E+00  0.20352466455E+02 -0.35318897556E+02  0.40773783121E+02  0.00000000000E+00 0. -1.
         -3    1    5    5    0  503  0.28289419825E+03  0.14628706484E+03 -0.41232105949E+03  0.52099682230E+03  0.00000000000E+00 0.  1.
         -3    1    6    6    0  502 -0.41962754165E+03 -0.14278455038E+03 -0.23062300237E+03  0.49966155622E+03  0.00000000000E+00 0.  1.
<mgrwt>
<rscale>  0 0.16545183E+04</rscale>
<asrwt>0</asrwt>
<pdfrwt beam="1">  1        2 0.10017418E+00 0.16545183E+04</pdfrwt>
<pdfrwt beam="2">  1       -2 0.16169652E+00 0.16545183E+04</pdfrwt>
<totfact> 0.10477574E+01</totfact>
</mgrwt>
</event>
<event>
12    1  0.4802930E-008  0.1560083E+04  0.7818608E-02  0.8845453E-01
          2   -1    0    0  501    0  0.00000000000E+00  0.00000000000E+00  0.10369438219E+04  0.10369438219E+04  0.00000000000E+00 0. -1.
         -2   -1    0    0    0  501 -0.00000000000E+00 -0.00000000000E+00 -0.58678690471E+03  0.58678690471E+03  0.00000000000E+00 0.  1.
         23    2    1    2    0    0  0.43005804431E+03 -0.38616497573E+02  0.43285241381E+03  0.61817362169E+03  0.91303116353E+02 0.  0.
        254    2    1    2    0    0 -0.43005804431E+03  0.38616497573E+02  0.17304503406E+02  0.10055571049E+04  0.90796722963E+03 0.  0.
         23    2    4    4    0    0 -0.29938667786E+03 -0.21977946461E+03 -0.35626485672E+03  0.52324314813E+03  0.94463474374E+02 0.  0.
         23    2    4    4    0    0 -0.13067136645E+03  0.25839596218E+03  0.37356936012E+03  0.48231395681E+03  0.96068760930E+02 0.  0.
         13    1    3    3    0    0  0.16332686351E+03 -0.55957400208E+02  0.19414272788E+03  0.25980433747E+03  0.00000000000E+00 0.  1.
        -13    1    3    3    0    0  0.26673118079E+03  0.17340902635E+02  0.23870968594E+03  0.35836928422E+03  0.00000000000E+00 0. -1.
          1    1    5    5  502    0 -0.21561392103E+03 -0.10160280282E+03 -0.21969906395E+03  0.32416071813E+03  0.00000000000E+00 0. -1.
          3    1    6    6  503    0 -0.16879310792E+02  0.78720442069E+02  0.48929064046E+02  0.94211848728E+02  0.00000000000E+00 0. -1.
         -1    1    5    5    0  502 -0.83772756832E+02 -0.11817666179E+03 -0.13656579277E+03  0.19908243000E+03  0.00000000000E+00 0.  1.
         -3    1    6    6    0  503 -0.11379205566E+03  0.17967552011E+03  0.32464029608E+03  0.38810210808E+03  0.00000000000E+00 0.  1.
<mgrwt>
<rscale>  0 0.15600834E+04</rscale>
<asrwt>0</asrwt>
<pdfrwt beam="1">  1        2 0.15952982E+00 0.15600834E+04</pdfrwt>
<pdfrwt beam="2">  1       -2 0.90274908E-01 0.15600834E+04</pdfrwt>
<totfact> 0.24085388E+01</totfact>
</mgrwt>
</event>
<event>
12    1  0.4802930E-008  0.1899329E+04  0.7818608E-02  0.8655190E-01
          2   -1    0    0  501    0  0.00000000000E+00  0.00000000000E+00  0.14600070201E+04  0.14600070201E+04  0.00000000000E+00 0. -1.
         -2   -1    0    0    0  501 -0.00000000000E+00 -0.00000000000E+00 -0.61771115292E+03  0.61771115292E+03  0.00000000000E+00 0.  1.
         23    2    1    2    0    0  0.11547764412E+03  0.48016793239E+03  0.92501781319E+03  0.10527314597E+04  0.93216103111E+02 0.  0.
        254    2    1    2    0    0 -0.11547764412E+03 -0.48016793239E+03 -0.82721945993E+02  0.10249867134E+04  0.89434809368E+03 0.  0.
         23    2    4    4    0    0 -0.30117018779E+02 -0.87988139989E+02  0.38207917845E+03  0.40402018692E+03  0.92730066502E+02 0.  0.
         23    2    4    4    0    0 -0.85360625345E+02 -0.39217979240E+03 -0.46480112444E+03  0.62096652646E+03  0.92021278914E+02 0.  0.
         11    1    3    3    0    0  0.69391072294E+02  0.25433252130E+03  0.39652822068E+03  0.47616675871E+03  0.00000000000E+00 0.  1.
        -11    1    3    3    0    0  0.46086571830E+02  0.22583541109E+03  0.52848959251E+03  0.57656470096E+03  0.00000000000E+00 0. -1.
          2    1    5    5  502    0 -0.36264031816E+02 -0.75962371657E+02  0.38131245952E+03  0.39049270633E+03  0.00000000000E+00 0.  1.
          3    1    6    6  503    0 -0.76320486757E+02 -0.14033003782E+03 -0.18348491254E+03  0.24327772061E+03  0.00000000000E+00 0. -1.
         -2    1    5    5    0  502  0.61470130376E+01 -0.12025768331E+02  0.76671893362E+00  0.13527480592E+02  0.00000000000E+00 0. -1.
         -3    1    6    6    0  503 -0.90401385880E+01 -0.25184975457E+03 -0.28131621191E+03  0.37768880585E+03  0.00000000000E+00 0.  1.
<mgrwt>
<rscale>  0 0.18993290E+04</rscale>
<asrwt>0</asrwt>
<pdfrwt beam="1">  1        2 0.22461646E+00 0.18993290E+04</pdfrwt>
<pdfrwt beam="2">  1       -2 0.95032485E-01 0.18993290E+04</pdfrwt>
<totfact> 0.11666159E+01</totfact>
</mgrwt>
</event>
<event>
12    1  0.4802930E-008  0.1244368E+04  0.7818608E-02  0.9074884E-01
          2   -1    0    0  501    0  0.00000000000E+00  0.00000000000E+00  0.13366867838E+04  0.13366867838E+04  0.00000000000E+00 0. -1.
         -2   -1    0    0    0  501 -0.00000000000E+00 -0.00000000000E+00 -0.28960619090E+03  0.28960619090E+03  0.00000000000E+00 0.  1.
         23    2    1    2    0    0 -0.21573048478E+03  0.18022239765E+03  0.23461494496E+03  0.37743270868E+03  0.91605253667E+02 0.  0.
        254    2    1    2    0    0  0.21573048478E+03 -0.18022239765E+03  0.81246564793E+03  0.12488602660E+04  0.90583209276E+03 0.  0.
         23    2    4    4    0    0  0.20690216771E+03  0.13802496941E+03 -0.96217352337E+02  0.28164667931E+03  0.90596213454E+02 0.  0.
         23    2    4    4    0    0  0.88283170728E+01 -0.31824736707E+03  0.90868300027E+03  0.96721358670E+03  0.91858595116E+02 0.  0.
         11    1    3    3    0    0 -0.19360842612E+03  0.18543672012E+03  0.23203621898E+03  0.35455860834E+03  0.00000000000E+00 0. -1.
        -11    1    3    3    0    0 -0.22122058665E+02 -0.52143224674E+01  0.25787259836E+01  0.22874100334E+02  0.00000000000E+00 0.  1.
          4    1    5    5  502    0  0.19050682755E+03  0.11037908360E+03 -0.11064908117E+03  0.24641349924E+03  0.00000000000E+00 0. -1.
          4    1    6    6  503    0 -0.16135689951E+02 -0.28732684086E+03  0.83916208701E+03  0.88713588714E+03  0.00000000000E+00 0. -1.
         -4    1    5    5    0  502  0.16395340156E+02  0.27645885811E+02  0.14431728835E+02  0.35233180076E+02  0.00000000000E+00 0.  1.
         -4    1    6    6    0  503  0.24964007024E+02 -0.30920526202E+02  0.69520913256E+02  0.80077699562E+02  0.00000000000E+00 0.  1.
<mgrwt>
<rscale>  0 0.12443677E+04</rscale>
<asrwt>0</asrwt>
<pdfrwt beam="1">  1        2 0.20564412E+00 0.12443677E+04</pdfrwt>
<pdfrwt beam="2">  1       -2 0.44554799E-01 0.12443677E+04</pdfrwt>
<totfact> 0.73942206E+01</totfact>
</mgrwt>
</event>
<event>
12    1  0.4802930E-008  0.1760832E+04  0.7818608E-02  0.8727411E-01
         -2   -1    0    0    0  501 -0.00000000000E+00  0.00000000000E+00  0.14858218633E+04  0.14858218633E+04  0.00000000000E+00 0.  1.
          2   -1    0    0  501    0  0.00000000000E+00 -0.00000000000E+00 -0.52168573491E+03  0.52168573491E+03  0.00000000000E+00 0. -1.
         23    2    1    2    0    0  0.53889961842E+03  0.13936228124E+03  0.73847036337E+03  0.92921043504E+03  0.90878549953E+02 0.  0.
        254    2    1    2    0    0 -0.53889961842E+03 -0.13936228124E+03  0.22566576498E+03  0.10782971631E+04  0.89552503616E+03 0.  0.
         23    2    4    4    0    0 -0.48861179651E+03  0.28749578392E+03 -0.20142178273E+02  0.57450656217E+03  0.90866766071E+02 0.  0.
         23    2    4    4    0    0 -0.50287821910E+02 -0.42685806515E+03  0.24580794325E+03  0.50379060097E+03  0.92987912329E+02 0.  0.
         13    1    3    3    0    0  0.29882569776E+03  0.42663640268E+02  0.34701626461E+03  0.45993181206E+03  0.00000000000E+00 0.  1.
        -13    1    3    3    0    0  0.24007392066E+03  0.96698640968E+02  0.39145409876E+03  0.46927862297E+03  0.00000000000E+00 0. -1.
          1    1    6    6  502    0  0.21255478905E+02 -0.43203779172E+02  0.39907690281E+02  0.62537873819E+02  0.00000000000E+00 0. -1.
          1    1    5    5  503    0 -0.20795390576E+03  0.17486831784E+03 -0.63744296633E+01  0.27178003763E+03  0.00000000000E+00 0. -1.
         -1    1    5    5    0  503 -0.28065789075E+03  0.11262746608E+03 -0.13767748610E+02  0.30272652454E+03  0.00000000000E+00 0.  1.
         -1    1    6    6    0  502 -0.71543300815E+02 -0.38365428598E+03  0.20590025297E+03  0.44125272715E+03  0.00000000000E+00 0.  1.
<mgrwt>
<rscale>  0 0.17608317E+04</rscale>
<asrwt>0</asrwt>
<pdfrwt beam="1">  1        2 0.80259344E-01 0.17608317E+04</pdfrwt>
<pdfrwt beam="2">  1       -2 0.22858798E+00 0.17608317E+04</pdfrwt>
<totfact> 0.48394820E+00</totfact>
</mgrwt>
</event>
<event>
12    1  0.4802930E-008  0.1661499E+04  0.7818608E-02  0.8783633E-01
          2   -1    0    0  501    0  0.00000000000E+00  0.00000000000E+00  0.63180488972E+03  0.63180488972E+03  0.00000000000E+00 0. -1.
         -2   -1    0    0    0  501 -0.00000000000E+00 -0.00000000000E+00 -0.10923385922E+04  0.10923385922E+04  0.00000000000E+00 0.  1.
         23    2    1    2    0    0 -0.44749991164E+03  0.16647141944E+03  0.17466616163E+03  0.51781544566E+03  0.98263234881E+02 0.  0.
        254    2    1    2    0    0  0.44749991164E+03 -0.16647141944E+03 -0.63519986415E+03  0.12063280363E+04  0.90762302710E+03 0.  0.
         23    2    4    4    0    0  0.24179822622E+03  0.25589935594E+03 -0.63016279750E+03  0.72750282630E+03  0.90577857954E+02 0.  0.
         23    2    4    4    0    0  0.20570168542E+03 -0.42237077539E+03 -0.50370666519E+01  0.47882521000E+03  0.92401051951E+02 0.  0.
         13    1    3    3    0    0 -0.42671883439E+03  0.17782595582E+03  0.17452108319E+03  0.49413423547E+03  0.00000000000E+00 0. -1.
        -13    1    3    3    0    0 -0.20781077252E+02 -0.11354536375E+02  0.14507843846E+00  0.23681210184E+02  0.00000000000E+00 0.  1.
          4    1    5    5  502    0  0.10320406853E+03  0.13323210638E+03 -0.38543493286E+03  0.42066846970E+03  0.00000000000E+00 0. -1.
          3    1    6    6  503    0  0.21474049012E+03 -0.41445353679E+03 -0.50653122465E+01  0.46680924332E+03  0.00000000000E+00 0. -1.
         -4    1    5    5    0  502  0.13859415769E+03  0.12266724956E+03 -0.24472786464E+03  0.30683435660E+03  0.00000000000E+00 0.  1.
         -3    1    6    6    0  503 -0.90388047029E+01 -0.79172385952E+01  0.28245594608E-01  0.12015966680E+02  0.00000000000E+00 0.  1.
<mgrwt>
<rscale>  0 0.16614992E+04</rscale>
<asrwt>0</asrwt>
<pdfrwt beam="1">  1        2 0.97200752E-01 0.16614992E+04</pdfrwt>
<pdfrwt beam="2">  1       -2 0.16805209E+00 0.16614992E+04</pdfrwt>
<totfact> 0.97727352E+00</totfact>
</mgrwt>
</event>
<event>
12    1  0.4802930E-008  0.1760613E+04  0.7818608E-02  0.8727530E-01
          2   -1    0    0  501    0  0.00000000000E+00  0.00000000000E+00  0.18340664420E+04  0.18340664420E+04  0.00000000000E+00 0. -1.
         -2   -1    0    0    0  501 -0.00000000000E+00 -0.00000000000E+00 -0.42252512329E+03  0.42252512329E+03  0.00000000000E+00 0.  1.
         23    2    1    2    0    0  0.64575631867E+02  0.50107878906E+01  0.13357691260E+04  0.13405992564E+04  0.93445641815E+02 0.  0.
        254    2    1    2    0    0 -0.64575631867E+02 -0.50107878906E+01  0.75772192676E+02  0.91599230890E+03  0.91055223054E+03 0.  0.
         23    2    4    4    0    0  0.63263424935E+02 -0.89298494803E+02  0.46559658901E+03  0.48699563409E+03  0.91695593242E+02 0.  0.
         23    2    4    4    0    0 -0.12783905680E+03  0.84287706913E+02 -0.38982439633E+03  0.42899667480E+03  0.92886193992E+02 0.  0.
         11    1    3    3    0    0  0.42753984802E+02 -0.40309942156E+02  0.90449835972E+03  0.90640502943E+03  0.00000000000E+00 0.  1.
        -11    1    3    3    0    0  0.21821647065E+02  0.45320730047E+02  0.43127076632E+03  0.43419422697E+03  0.00000000000E+00 0. -1.
          2    1    5    5  502    0  0.46649672758E+02 -0.10678315034E+03  0.41315090058E+03  0.42926972851E+03  0.00000000000E+00 0. -1.
          1    1    6    6  503    0 -0.95868920862E+02  0.10087007105E+03 -0.26822320160E+03  0.30217429920E+03  0.00000000000E+00 0. -1.
         -2    1    5    5    0  502  0.16613752176E+02  0.17484655536E+02  0.52445688429E+02  0.57725905583E+02  0.00000000000E+00 0.  1.
         -1    1    6    6    0  503 -0.31970135940E+02 -0.16582364140E+02 -0.12160119473E+03  0.12682237560E+03  0.00000000000E+00 0.  1.
<mgrwt>
<rscale>  0 0.17606126E+04</rscale>
<asrwt>0</asrwt>
<pdfrwt beam="1">  1        2 0.28216406E+00 0.17606126E+04</pdfrwt>
<pdfrwt beam="2">  1       -2 0.65003866E-01 0.17606126E+04</pdfrwt>
<totfact> 0.17076112E+01</totfact>
</mgrwt>
</event>
<event>
12    1  0.4802930E-008  0.1312030E+04  0.7818608E-02  0.9020079E-01
         -1   -1    0    0    0  501 -0.00000000000E+00  0.00000000000E+00  0.36443798311E+03  0.36443798311E+03  0.00000000000E+00 0.  1.
          1   -1    0    0  501    0  0.00000000000E+00 -0.00000000000E+00 -0.11808753477E+04  0.11808753477E+04  0.00000000000E+00 0. -1.
         23    2    1    2    0    0 -0.17353160745E+03  0.23659417813E+03 -0.49244230692E+03  0.58051450606E+03  0.91693196013E+02 0.  0.
        254    2    1    2    0    0  0.17353160745E+03 -0.23659417813E+03 -0.32399505766E+03  0.96479882474E+03  0.86010112831E+03 0.  0.
         23    2    4    4    0    0 -0.14264482585E+03  0.87215074129E+02  0.19322619659E+03  0.27158227986E+03  0.92013891280E+02 0.  0.
         23    2    4    4    0    0  0.31617643330E+03 -0.32380925225E+03 -0.51722125425E+03  0.69321654488E+03  0.90616684050E+02 0.  0.
         13    1    3    3    0    0 -0.16513237559E+03  0.22009660415E+03 -0.39537513235E+03  0.48169773916E+03  0.00000000000E+00 0.  1.
        -13    1    3    3    0    0 -0.83992318634E+01  0.16497573975E+02 -0.97067174567E+02  0.98816766904E+02  0.00000000000E+00 0. -1.
          4    1    5    5  502    0 -0.12108525994E+02  0.18866756983E+01 -0.97170972378E+01  0.15639626775E+02  0.00000000000E+00 0. -1.
          1    1    6    6  503    0  0.10519203092E+03 -0.90515325486E+02 -0.10162583603E+03  0.17200638961E+03  0.00000000000E+00 0. -1.
         -4    1    5    5    0  502 -0.13053629986E+03  0.85328398431E+02  0.20294329383E+03  0.25594265309E+03  0.00000000000E+00 0.  1.
         -1    1    6    6    0  503  0.21098440238E+03 -0.23329392677E+03 -0.41559541822E+03  0.52121015527E+03  0.00000000000E+00 0.  1.
<mgrwt>
<rscale>  0 0.13120302E+04</rscale>
<asrwt>0</asrwt>
<pdfrwt beam="1">  1        1 0.18167313E+00 0.13120302E+04</pdfrwt>
<pdfrwt beam="2">  1       -1 0.56067382E-01 0.13120302E+04</pdfrwt>
<totfact> 0.34864132E+01</totfact>
</mgrwt>
</event>
<event>
12    1  0.4802930E-008  0.3015691E+04  0.7818608E-02  0.8239264E-01
         -2   -1    0    0    0  501 -0.00000000000E+00  0.00000000000E+00  0.95769730219E+03  0.95769730219E+03  0.00000000000E+00 0.  1.
          2   -1    0    0  501    0  0.00000000000E+00 -0.00000000000E+00 -0.23740255480E+04  0.23740255480E+04  0.00000000000E+00 0. -1.
         23    2    1    2    0    0 -0.12067502775E+04  0.54054214657E+03 -0.25056241595E+03  0.13489488516E+04  0.91920812162E+02 0.  0.
        254    2    1    2    0    0  0.12067502775E+04 -0.54054214657E+03 -0.11657658299E+04  0.19827739985E+04  0.90771731000E+03 0.  0.
         23    2    4    4    0    0  0.10930602514E+04 -0.88722613168E+02 -0.97796903935E+03  0.14721575844E+04  0.90399646645E+02 0.  0.
         23    2    4    4    0    0  0.11369002603E+03 -0.45181953340E+03 -0.18779679051E+03  0.51061641412E+03  0.91625187926E+02 0.  0.
         13    1    3    3    0    0 -0.94323324751E+03  0.46309094795E+03 -0.20225880651E+03  0.10700704697E+04  0.00000000000E+00 0.  1.
        -13    1    3    3    0    0 -0.26351702994E+03  0.77451198616E+02 -0.48303609432E+02  0.27887838195E+03  0.00000000000E+00 0. -1.
          2    1    5    5  502    0  0.81730719439E+03 -0.26759516461E+02 -0.72741065862E+03  0.10944557497E+04  0.00000000000E+00 0. -1.
          1    1    6    6  503    0  0.12225745018E+03 -0.41983577784E+03 -0.15478800260E+03  0.46386236130E+03  0.00000000000E+00 0. -1.
         -2    1    5    5    0  502  0.27575305703E+03 -0.61963096707E+02 -0.25055838073E+03  0.37770183475E+03  0.00000000000E+00 0.  1.
         -1    1    6    6    0  503 -0.85674241494E+01 -0.31983755566E+02 -0.33008787909E+02  0.46754052828E+02  0.00000000000E+00 0.  1.
<mgrwt>
<rscale>  0 0.30156909E+04</rscale>
<asrwt>0</asrwt>
<pdfrwt beam="1">  1        2 0.36523470E+00 0.30156909E+04</pdfrwt>
<pdfrwt beam="2">  1       -2 0.14733805E+00 0.30156909E+04</pdfrwt>
<totfact> 0.11048048E+00</totfact>
</mgrwt>
</event>
<event>
12    1  0.4802930E-008  0.1303320E+04  0.7818608E-02  0.9026936E-01
          2   -1    0    0  501    0  0.00000000000E+00  0.00000000000E+00  0.16099236572E+04  0.16099236572E+04  0.00000000000E+00 0.  1.
         -2   -1    0    0    0  501 -0.00000000000E+00 -0.00000000000E+00 -0.26377708096E+03  0.26377708096E+03  0.00000000000E+00 0. -1.
         23    2    1    2    0    0 -0.31366104100E+03  0.87924369206E+02  0.43397048343E+03  0.55015595627E+03  0.90704202675E+02 0.  0.
        254    2    1    2    0    0  0.31366104100E+03 -0.87924369206E+02  0.91217609281E+03  0.13235447819E+04  0.90199313858E+03 0.  0.
         23    2    4    4    0    0 -0.29116213445E+03  0.18738523530E+02  0.15126645774E+03  0.34090897296E+03  0.90613827890E+02 0.  0.
         23    2    4    4    0    0  0.60482317546E+03 -0.10666289274E+03  0.76090963506E+03  0.98263580893E+03  0.96961920387E+02 0.  0.
         13    1    3    3    0    0 -0.10399177153E+03  0.63061135430E+02  0.11329444193E+03  0.16621259254E+03  0.00000000000E+00 0.  1.
        -13    1    3    3    0    0 -0.20966926948E+03  0.24863233776E+02  0.32067604150E+03  0.38394336372E+03  0.00000000000E+00 0. -1.
          2    1    5    5  502    0 -0.11353156013E+03  0.51776078168E+02  0.58636285905E+02  0.13787092311E+03  0.00000000000E+00 0.  1.
          3    1    6    6  503    0  0.27354194659E+03 -0.91480010995E+02  0.31786531933E+03  0.42922272795E+03  0.00000000000E+00 0. -1.
         -2    1    5    5    0  502 -0.17763057433E+03 -0.33037554639E+02  0.92630171839E+02  0.20303804985E+03  0.00000000000E+00 0. -1.
         -3    1    6    6    0  503  0.33128122886E+03 -0.15182881741E+02  0.44304431574E+03  0.55341308098E+03  0.00000000000E+00 0.  1.
<mgrwt>
<rscale>  0 0.13033203E+04</rscale>
<asrwt>0</asrwt>
<pdfrwt beam="1">  1        2 0.24768056E+00 0.13033203E+04</pdfrwt>
<pdfrwt beam="2">  1       -2 0.40581090E-01 0.13033203E+04</pdfrwt>
<totfact> 0.62011867E+01</totfact>
</mgrwt>
</event>
<event>
12    1  0.4802930E-008  0.1380720E+04  0.7818608E-02  0.8967894E-01
         -1   -1    0    0    0  501 -0.00000000000E+00  0.00000000000E+00  0.80926285262E+03  0.80926285262E+03  0.00000000000E+00 0.  1.
          1   -1    0    0  501    0  0.00000000000E+00 -0.00000000000E+00 -0.58892759242E+03  0.58892759242E+03  0.00000000000E+00 0. -1.
         23    2    1    2    0    0  0.43016124767E+02 -0.14136394079E+03 -0.30195498930E+03  0.34830634887E+03  0.91139159278E+02 0.  0.
        254    2    1    2    0    0 -0.43016124767E+02  0.14136394079E+03  0.52229024950E+03  0.10498840962E+04  0.89868535090E+03 0.  0.
         23    2    4    4    0    0 -0.32116646499E+03  0.35111845843E+03  0.48983308299E+03  0.68803418722E+03  0.83800498248E+02 0.  0.
         23    2    4    4    0    0  0.27815034022E+03 -0.20975451764E+03  0.32457166511E+02  0.36184990895E+03  0.92289325043E+02 0.  0.
         11    1    3    3    0    0 -0.26743379328E+02 -0.19803156271E+02 -0.64341402182E+02  0.72437485951E+02  0.00000000000E+00 0.  1.
        -11    1    3    3    0    0  0.69759504095E+02 -0.12156078452E+03 -0.23761358711E+03  0.27586886292E+03  0.00000000000E+00 0. -1.
          2    1    5    5  502    0 -0.29805438069E+03  0.28551371494E+03  0.40399738929E+03  0.57755379474E+03  0.00000000000E+00 0. -1.
          1    1    6    6  503    0  0.16527586877E+03 -0.67160593779E+02  0.11226263775E+02  0.17875314585E+03  0.00000000000E+00 0. -1.
         -2    1    5    5    0  502 -0.23112084300E+02  0.65604743485E+02  0.85835693706E+02  0.11048039248E+03  0.00000000000E+00 0.  1.
         -1    1    6    6    0  503  0.11287447146E+03 -0.14259392386E+03  0.21230902737E+02  0.18309676310E+03  0.00000000000E+00 0.  1.
<mgrwt>
<rscale>  0 0.13807204E+04</rscale>
<asrwt>0</asrwt>
<pdfrwt beam="1">  1        1 0.90604246E-01 0.13807204E+04</pdfrwt>
<pdfrwt beam="2">  1       -1 0.12450198E+00 0.13807204E+04</pdfrwt>
<totfact> 0.19425345E+01</totfact>
</mgrwt>
</event>
<event>
12    1  0.4802930E-008  0.1697492E+04  0.7818608E-02  0.8762796E-01
         -2   -1    0    0    0  501 -0.00000000000E+00  0.00000000000E+00  0.28337850138E+03  0.28337850138E+03  0.00000000000E+00 0.  1.
          2   -1    0    0  501    0  0.00000000000E+00 -0.00000000000E+00 -0.25420764716E+04  0.25420764716E+04  0.00000000000E+00 0. -1.
         23    2    1    2    0    0 -0.20528126810E+03 -0.20804100498E+03 -0.16934510453E+04  0.17208093126E+04  0.89368834903E+02 0.  0.
        254    2    1    2    0    0  0.20528126810E+03  0.20804100498E+03 -0.56524692495E+03  0.11046456604E+04  0.90294877494E+03 0.  0.
         23    2    4    4    0    0  0.38435463487E+03 -0.69774484803E+02  0.44745174194E+02  0.40454935862E+03  0.95189751890E+02 0.  0.
         23    2    4    4    0    0 -0.17907336677E+03  0.27781548979E+03 -0.60999209915E+03  0.70009630182E+03  0.93785679852E+02 0.  0.
         13    1    3    3    0    0 -0.18450012337E+03 -0.14634497443E+03 -0.11819284135E+04  0.12051605378E+04  0.00000000000E+00 0. -1.
        -13    1    3    3    0    0 -0.20781144732E+02 -0.61696030555E+02 -0.51152263173E+03  0.51564877478E+03  0.00000000000E+00 0.  1.
          1    1    5    5  502    0  0.23907899144E+03 -0.30387712734E+02 -0.17565136349E+02  0.24164170014E+03  0.00000000000E+00 0. -1.
          1    1    6    6  503    0 -0.14945342603E+03  0.20273404332E+03 -0.37589798116E+03  0.45247840955E+03  0.00000000000E+00 0. -1.
         -1    1    5    5    0  502  0.14527564343E+03 -0.39386772069E+02  0.62310310544E+02  0.16290765847E+03  0.00000000000E+00 0.  1.
         -1    1    6    6    0  503 -0.29619940743E+02  0.75081446471E+02 -0.23409411799E+03  0.24761789227E+03  0.00000000000E+00 0.  1.
<mgrwt>
<rscale>  0 0.16974921E+04</rscale>
<asrwt>0</asrwt>
<pdfrwt beam="1">  1        2 0.39108868E+00 0.16974921E+04</pdfrwt>
<pdfrwt beam="2">  1       -2 0.43596693E-01 0.16974921E+04</pdfrwt>
<totfact> 0.15652515E+01</totfact>
</mgrwt>
</event>
<event>
12    1  0.4802930E-008  0.1418848E+04  0.7818608E-02  0.8940287E-01
         -1   -1    0    0    0  501 -0.00000000000E+00  0.00000000000E+00  0.60080152516E+03  0.60080152516E+03  0.00000000000E+00 0.  1.
          1   -1    0    0  501    0  0.00000000000E+00 -0.00000000000E+00 -0.83768511300E+03  0.83768511300E+03  0.00000000000E+00 0. -1.
         23    2    1    2    0    0 -0.31997384671E+03 -0.26400128182E+03 -0.11942244844E+03  0.44339136404E+03  0.10126322693E+03 0.  0.
        254    2    1    2    0    0  0.31997384671E+03  0.26400128182E+03 -0.11746113940E+03  0.99509527413E+03  0.89684867505E+03 0.  0.
         23    2    4    4    0    0  0.11637139171E+03 -0.28900262378E+03 -0.21717013645E+03  0.39073192076E+03  0.91889870898E+02 0.  0.
         23    2    4    4    0    0  0.20360245500E+03  0.55300390560E+03  0.99708997043E+02  0.60436335337E+03  0.89698938187E+02 0.  0.
         13    1    3    3    0    0 -0.22617567432E+03 -0.20365682747E+03 -0.13081866174E+03  0.33127792153E+03  0.00000000000E+00 0. -1.
        -13    1    3    3    0    0 -0.93798172390E+02 -0.60344454350E+02  0.11396213301E+02  0.11211344251E+03  0.00000000000E+00 0.  1.
          2    1    5    5  502    0  0.80430377206E+02 -0.17870790305E+03 -0.18698277902E+03  0.27086550138E+03  0.00000000000E+00 0. -1.
          1    1    6    6  503    0  0.28848649128E+02  0.16387432851E+03  0.55983351797E+02  0.17555960748E+03  0.00000000000E+00 0. -1.
         -2    1    5    5    0  502  0.35941014506E+02 -0.11029472073E+03 -0.30187357426E+02  0.11986641938E+03  0.00000000000E+00 0.  1.
         -1    1    6    6    0  503  0.17475380587E+03  0.38912957710E+03  0.43725645245E+02  0.42880374589E+03  0.00000000000E+00 0.  1.
<mgrwt>
<rscale>  0 0.14188481E+04</rscale>
<asrwt>0</asrwt>
<pdfrwt beam="1">  1        1 0.12887463E+00 0.14188481E+04</pdfrwt>
<pdfrwt beam="2">  1       -1 0.92431004E-01 0.14188481E+04</pdfrwt>
<totfact> 0.22750497E+01</totfact>
</mgrwt>
</event>
<event>
12    1  0.4868629E-008  0.2655156E+04  0.7818608E-02  0.8349704E-01
          2   -1    0    0  501    0  0.00000000000E+00  0.00000000000E+00  0.13932363609E+04  0.13932363609E+04  0.00000000000E+00 0. -1.
         -2   -1    0    0    0  501 -0.00000000000E+00 -0.00000000000E+00 -0.12650137828E+04  0.12650137828E+04  0.00000000000E+00 0.  1.
         23    2    1    2    0    0  0.19790959916E+03  0.74550453020E+03 -0.82942558707E+03  0.11370503293E+04  0.99957155627E+02 0.  0.
        254    2    1    2    0    0 -0.19790959916E+03 -0.74550453020E+03  0.95764816515E+03  0.15211998144E+04  0.89555214987E+03 0.  0.
         23    2    4    4    0    0 -0.12193230817E+03 -0.29507753821E+03  0.10000103080E+04  0.10537030538E+04  0.91275780868E+02 0.  0.
         23    2    4    4    0    0 -0.75977290997E+02 -0.45042699200E+03 -0.42362142814E+02  0.46749676063E+03  0.90009145046E+02 0.  0.
         13    1    3    3    0    0  0.20739221665E+03  0.68487021786E+03 -0.77730906228E+03  0.10565359081E+04  0.00000000000E+00 0.  1.
        -13    1    3    3    0    0 -0.94826174898E+01  0.60634312341E+02 -0.52116524785E+02  0.80514421212E+02  0.00000000000E+00 0. -1.
          1    1    5    5  502    0 -0.88624120552E+02 -0.18340204602E+03  0.49201951492E+03  0.53251643007E+03  0.00000000000E+00 0. -1.
          3    1    6    6  503    0  0.26018734160E+01 -0.17637027251E+03 -0.46319240779E+02  0.18236972017E+03  0.00000000000E+00 0. -1.
         -1    1    5    5    0  502 -0.33308187614E+02 -0.11167549219E+03  0.50799079304E+03  0.52118662370E+03  0.00000000000E+00 0.  1.
         -3    1    6    6    0  503 -0.78579164413E+02 -0.27405671949E+03  0.39570979647E+01  0.28512704046E+03  0.00000000000E+00 0.  1.
<mgrwt>
<rscale>  0 0.26551559E+04</rscale>
<asrwt>0</asrwt>
<pdfrwt beam="1">  1        2 0.21434406E+00 0.26551559E+04</pdfrwt>
<pdfrwt beam="2">  1       -2 0.19461751E+00 0.26551559E+04</pdfrwt>
<totfact> 0.18561213E+00</totfact>
</mgrwt>
</event>
<event>
12    1  0.4802930E-008  0.1235195E+04  0.7818608E-02  0.9082596E-01
          2   -1    0    0  501    0  0.00000000000E+00  0.00000000000E+00  0.43951106130E+04  0.43951106130E+04  0.00000000000E+00 0. -1.
         -2   -1    0    0    0  501 -0.00000000000E+00 -0.00000000000E+00 -0.86784285063E+02  0.86784285063E+02  0.00000000000E+00 0.  1.
         23    2    1    2    0    0 -0.22505400130E+03  0.97557221053E+02  0.56196135564E+03  0.62024358357E+03  0.93460274174E+02 0.  0.
        254    2    1    2    0    0  0.22505400130E+03 -0.97557221053E+02  0.37463649723E+04  0.38616513145E+04  0.90384382179E+03 0.  0.
         23    2    4    4    0    0  0.32330582845E+03 -0.44726140512E+02  0.45672038020E+03  0.56868084112E+03  0.90979706611E+02 0.  0.
         23    2    4    4    0    0 -0.98251827151E+02 -0.52831080541E+02  0.32896445921E+04  0.32929704733E+04  0.97203145912E+02 0.  0.
         13    1    3    3    0    0 -0.13032812267E+03  0.10515431958E+03  0.35769352574E+03  0.39495253998E+03  0.00000000000E+00 0.  1.
        -13    1    3    3    0    0 -0.94725878628E+02 -0.75970985258E+01  0.20426782991E+03  0.22529104359E+03  0.00000000000E+00 0. -1.
          4    1    5    5  502    0  0.39024849314E+00 -0.13677452277E+02  0.11909753845E+02  0.18140210343E+02  0.00000000000E+00 0. -1.
          1    1    6    6  503    0 -0.57124474448E+02 -0.35270993557E+02  0.76784615658E+03  0.77077556314E+03  0.00000000000E+00 0. -1.
         -4    1    5    5    0  502  0.32291557995E+03 -0.31048688235E+02  0.44481062636E+03  0.55054063078E+03  0.00000000000E+00 0.  1.
         -1    1    6    6    0  503 -0.41127352702E+02 -0.17560086984E+02  0.25217984355E+04  0.25221949102E+04  0.00000000000E+00 0.  1.
<mgrwt>
<rscale>  0 0.12351948E+04</rscale>
<asrwt>0</asrwt>
<pdfrwt beam="1">  1        2 0.67617069E+00 0.12351948E+04</pdfrwt>
<pdfrwt beam="2">  1       -2 0.13351432E-01 0.12351948E+04</pdfrwt>
<totfact> 0.68614040E+00</totfact>
</mgrwt>
</event>
<event>
12    1  0.4802930E-008  0.1247719E+04  0.7818608E-02  0.9072084E-01
          2   -1    0    0  501    0  0.00000000000E+00  0.00000000000E+00  0.10801459348E+04  0.10801459348E+04  0.00000000000E+00 0.  1.
         -2   -1    0    0    0  501 -0.00000000000E+00 -0.00000000000E+00 -0.36032254151E+03  0.36032254151E+03  0.00000000000E+00 0. -1.
         23    2    1    2    0    0  0.21134907806E+03 -0.20083360966E+03  0.18510541232E+03  0.35767902782E+03  0.93100492510E+02 0.  0.
        254    2    1    2    0    0 -0.21134907806E+03  0.20083360966E+03  0.53471798093E+03  0.10827894485E+04  0.89526928854E+03 0.  0.
         23    2    4    4    0    0  0.66040656394E+02 -0.15197430104E+03 -0.16203983056E+03  0.24922484166E+03  0.91643649745E+02 0.  0.
         23    2    4    4    0    0 -0.27738973445E+03  0.35280791071E+03  0.69675781150E+03  0.83356460680E+03  0.89106785313E+02 0.  0.
         11    1    3    3    0    0  0.10647948254E+03 -0.13814517158E+03  0.15133323349E+03  0.23091928501E+03  0.00000000000E+00 0.  1.
        -11    1    3    3    0    0  0.10486959552E+03 -0.62688438085E+02  0.33772178832E+02  0.12675974281E+03  0.00000000000E+00 0. -1.
          4    1    5    5  502    0  0.80936162054E+02 -0.15387752548E+03 -0.15362032732E+03  0.23200896565E+03  0.00000000000E+00 0. -1.
          3    1    6    6  503    0 -0.23085632928E+03  0.29930070709E+03  0.63758084486E+03  0.74120502681E+03  0.00000000000E+00 0. -1.
         -4    1    5    5    0  502 -0.14895505660E+02  0.19032244347E+01 -0.84195032452E+01  0.17215876016E+02  0.00000000000E+00 0.  1.
         -3    1    6    6    0  503 -0.46533405170E+02  0.53507203614E+02  0.59176966636E+02  0.92359579988E+02  0.00000000000E+00 0.  1.
<mgrwt>
<rscale>  0 0.12477194E+04</rscale>
<asrwt>0</asrwt>
<pdfrwt beam="1">  1        2 0.16617630E+00 0.12477194E+04</pdfrwt>
<pdfrwt beam="2">  1       -2 0.55434238E-01 0.12477194E+04</pdfrwt>
<totfact> 0.67424653E+01</totfact>
</mgrwt>
</event>
<event>
12    1  0.4802930E-008  0.1553398E+04  0.7818608E-02  0.8849700E-01
         -4   -1    0    0    0  501 -0.00000000000E+00  0.00000000000E+00  0.81092305663E+03  0.81092305663E+03  0.00000000000E+00 0.  1.
          4   -1    0    0  501    0  0.00000000000E+00 -0.00000000000E+00 -0.74391925965E+03  0.74391925965E+03  0.00000000000E+00 0. -1.
         23    2    1    2    0    0 -0.22527957960E+02  0.14818730035E+03 -0.46852422147E+03  0.50179457252E+03  0.99075032304E+02 0.  0.
        254    2    1    2    0    0  0.22527957960E+02 -0.14818730035E+03  0.53552801845E+03  0.10530477438E+04  0.89423280371E+03 0.  0.
         23    2    4    4    0    0 -0.19107949613E+03  0.20754781217E+03  0.55405905484E+03  0.62811867672E+03  0.89242185173E+02 0.  0.
         23    2    4    4    0    0  0.21360745409E+03 -0.35573511252E+03 -0.18531036393E+02  0.42492906704E+03  0.89697814848E+02 0.  0.
         11    1    3    3    0    0 -0.61884863788E+01  0.14903842971E+03 -0.32805847325E+03  0.36037912365E+03  0.00000000000E+00 0. -1.
        -11    1    3    3    0    0 -0.16339471581E+02 -0.85112936711E+00 -0.14046574823E+03  0.14141544887E+03  0.00000000000E+00 0.  1.
          2    1    5    5  502    0 -0.69886568004E+02  0.20316391766E+02  0.14266031699E+03  0.16015259663E+03  0.00000000000E+00 0. -1.
          4    1    6    6  503    0  0.71649969153E+02 -0.71518642948E+02 -0.34173698452E+02  0.10684791076E+03  0.00000000000E+00 0. -1.
         -2    1    5    5    0  502 -0.12119292813E+03  0.18723142040E+03  0.41139873785E+03  0.46796608010E+03  0.00000000000E+00 0.  1.
         -4    1    6    6    0  503  0.14195748494E+03 -0.28421646957E+03  0.15642662060E+02  0.31808115628E+03  0.00000000000E+00 0.  1.
<mgrwt>
<rscale>  0 0.15533979E+04</rscale>
<asrwt>0</asrwt>
<pdfrwt beam="1">  1        4 0.11444912E+00 0.15533979E+04</pdfrwt>
<pdfrwt beam="2">  1       -4 0.12475739E+00 0.15533979E+04</pdfrwt>
<totfact> 0.55003369E-01</totfact>
</mgrwt>
</event>
<event>
12    1  0.4802930E-008  0.1393511E+04  0.7818608E-02  0.8958529E-01
          2   -1    0    0  501    0  0.00000000000E+00  0.00000000000E+00  0.21197586658E+04  0.21197586658E+04  0.00000000000E+00 0. -1.
         -2   -1    0    0    0  501 -0.00000000000E+00 -0.00000000000E+00 -0.22902040770E+03  0.22902040770E+03  0.00000000000E+00 0.  1.
         23    2    1    2    0    0  0.44571591509E+02  0.39685254336E+03  0.68454880951E+03  0.79764685188E+03  0.90304262167E+02 0.  0.
        254    2    1    2    0    0 -0.44571591509E+02 -0.39685254336E+03  0.12061894485E+04  0.15511322216E+04  0.88974131923E+03 0.  0.
         23    2    4    4    0    0  0.18396212202E+02 -0.33683804632E+03  0.11270537768E+02  0.34957673452E+03  0.90986692601E+02 0.  0.
         23    2    4    4    0    0 -0.62967803712E+02 -0.60014497041E+02  0.11949189108E+04  0.12015554871E+04  0.91311012516E+02 0.  0.
         13    1    3    3    0    0  0.12472460956E+02  0.36135716902E+03  0.60385358582E+03  0.70382790439E+03  0.00000000000E+00 0. -1.
        -13    1    3    3    0    0  0.32099130553E+02  0.35495374339E+02  0.80695223690E+02  0.93818947490E+02  0.00000000000E+00 0.  1.
          4    1    5    5  502    0  0.56906634182E+01 -0.31560416162E+03 -0.11618087542E+02  0.31586919831E+03  0.00000000000E+00 0. -1.
          1    1    6    6  503    0 -0.31712863652E+02 -0.10084209750E+02  0.91013715270E+03  0.91074531771E+03  0.00000000000E+00 0. -1.
         -4    1    5    5    0  502  0.12705548784E+02 -0.21233884694E+02  0.22888625310E+02  0.33707536215E+02  0.00000000000E+00 0.  1.
         -1    1    6    6    0  503 -0.31254940060E+02 -0.49930287291E+02  0.28478175808E+03  0.29081016936E+03  0.00000000000E+00 0.  1.
<mgrwt>
<rscale>  0 0.13935107E+04</rscale>
<asrwt>0</asrwt>
<pdfrwt beam="1">  1        2 0.32611670E+00 0.13935107E+04</pdfrwt>
<pdfrwt beam="2">  1       -2 0.35233910E-01 0.13935107E+04</pdfrwt>
<totfact> 0.42237436E+01</totfact>
</mgrwt>
</event>
<event>
12    1  0.4802930E-008  0.1424764E+04  0.7818608E-02  0.8936085E-01
         -2   -1    0    0    0  501 -0.00000000000E+00  0.00000000000E+00  0.20735546976E+03  0.20735546976E+03  0.00000000000E+00 0.  1.
          2   -1    0    0  501    0  0.00000000000E+00 -0.00000000000E+00 -0.24474314885E+04  0.24474314885E+04  0.00000000000E+00 0. -1.
         23    2    1    2    0    0  0.32589676137E+03 -0.12533982566E+03 -0.11230309375E+04  0.11795979216E+04  0.91290738944E+02 0.  0.
        254    2    1    2    0    0 -0.32589676137E+03  0.12533982566E+03 -0.11170450812E+04  0.14751890366E+04  0.89803909127E+03 0.  0.
         23    2    4    4    0    0  0.16575830886E+03 -0.97780198700E+02 -0.83112249493E+03  0.85802294496E+03  0.91662360279E+02 0.  0.
         23    2    4    4    0    0 -0.49165507022E+03  0.22312002436E+03 -0.28592258624E+03  0.61716609166E+03  0.87378521545E+02 0.  0.
         11    1    3    3    0    0  0.17994325627E+03 -0.34596223479E+02 -0.47363457073E+03  0.50784464233E+03  0.00000000000E+00 0.  1.
        -11    1    3    3    0    0  0.14595350510E+03 -0.90743602181E+02 -0.64939636681E+03  0.67175327928E+03  0.00000000000E+00 0. -1.
          2    1    5    5  502    0  0.44941868730E+02  0.11123059175E+02 -0.26430358359E+03  0.26832793055E+03  0.00000000000E+00 0. -1.
          1    1    6    6  503    0 -0.17458855670E+03  0.42179388714E+02 -0.68295588414E+02  0.19215762373E+03  0.00000000000E+00 0. -1.
         -2    1    5    5    0  502  0.12081644013E+03 -0.10890325788E+03 -0.56681891133E+03  0.58969501441E+03  0.00000000000E+00 0.  1.
         -1    1    6    6    0  503 -0.31706651353E+03  0.18094063565E+03 -0.21762699783E+03  0.42500846793E+03  0.00000000000E+00 0.  1.
<mgrwt>
<rscale>  0 0.14247643E+04</rscale>
<asrwt>0</asrwt>
<pdfrwt beam="1">  1        2 0.37652792E+00 0.14247643E+04</pdfrwt>
<pdfrwt beam="2">  1       -2 0.31900841E-01 0.14247643E+04</pdfrwt>
<totfact> 0.33245149E+01</totfact>
</mgrwt>
</event>
<event>
12    1  0.4802930E-008  0.2034439E+04  0.7818608E-02  0.8590686E-01
          2   -1    0    0  501    0  0.00000000000E+00  0.00000000000E+00  0.25646354142E+04  0.25646354142E+04  0.00000000000E+00 0. -1.
         -2   -1    0    0    0  501 -0.00000000000E+00 -0.00000000000E+00 -0.40346318446E+03  0.40346318446E+03  0.00000000000E+00 0.  1.
         23    2    1    2    0    0  0.18080720369E+03 -0.71692009348E+03  0.13511331279E+04  0.15432477987E+04  0.96888459196E+02 0.  0.
        254    2    1    2    0    0 -0.18080720369E+03  0.71692009348E+03  0.81003910187E+03  0.14248508000E+04  0.90959924713E+03 0.  0.
         23    2    4    4    0    0 -0.28590056268E+03 -0.29793805276E+02  0.54058382092E+03  0.61899918814E+03  0.91117094436E+02 0.  0.
         23    2    4    4    0    0  0.10509335899E+03  0.74671389875E+03  0.26945528095E+03  0.80585161186E+03  0.90357131539E+02 0.  0.
         11    1    3    3    0    0  0.85122152860E+02 -0.18637476237E+03  0.32703792633E+03  0.38592115544E+03  0.00000000000E+00 0.  1.
        -11    1    3    3    0    0  0.95685050831E+02 -0.53054533111E+03  0.10240952016E+04  0.11573266432E+04  0.00000000000E+00 0. -1.
          2    1    5    5  502    0 -0.11312954639E+03  0.94582342094E+01  0.29570082680E+03  0.31674395248E+03  0.00000000000E+00 0. -1.
          1    1    6    6  503    0 -0.32579102298E+01  0.12658233657E+03  0.17715678813E+02  0.12785752691E+03  0.00000000000E+00 0. -1.
         -2    1    5    5    0  502 -0.17277101629E+03 -0.39252039485E+02  0.24488299412E+03  0.30225523566E+03  0.00000000000E+00 0.  1.
         -1    1    6    6    0  503  0.10835126922E+03  0.62013156218E+03  0.25173960213E+03  0.67799408496E+03  0.00000000000E+00 0.  1.
<mgrwt>
<rscale>  0 0.20344395E+04</rscale>
<asrwt>0</asrwt>
<pdfrwt beam="1">  1        2 0.39455928E+00 0.20344395E+04</pdfrwt>
<pdfrwt beam="2">  1       -2 0.62071261E-01 0.20344395E+04</pdfrwt>
<totfact> 0.71309275E+00</totfact>
</mgrwt>
</event>
<event>
12    1  0.4802930E-008  0.1413437E+04  0.7818608E-02  0.8944149E-01
          2   -1    0    0  501    0  0.00000000000E+00  0.00000000000E+00  0.25927233278E+04  0.25927233278E+04  0.00000000000E+00 0. -1.
         -2   -1    0    0    0  501 -0.00000000000E+00 -0.00000000000E+00 -0.19263574989E+03  0.19263574989E+03  0.00000000000E+00 0.  1.
         23    2    1    2    0    0 -0.37529064769E+02  0.30022230061E+02  0.15352133293E+04  0.15389379093E+04  0.95604170711E+02 0.  0.
        254    2    1    2    0    0  0.37529064769E+02 -0.30022230061E+02  0.86487424862E+03  0.12464211683E+04  0.89624131678E+03 0.  0.
         23    2    4    4    0    0 -0.31716501002E+03 -0.29713533426E+03  0.43889280000E+03  0.62476541474E+03  0.93924880185E+02 0.  0.
         23    2    4    4    0    0  0.35469407479E+03  0.26711310420E+03  0.42598144862E+03  0.62165575358E+03  0.88534650096E+02 0.  0.
         11    1    3    3    0    0 -0.16158257474E+02  0.29583538794E+02  0.14684369275E+04  0.14688237760E+04  0.00000000000E+00 0. -1.
        -11    1    3    3    0    0 -0.21370807294E+02  0.43869126646E+00  0.66776401794E+02  0.70114133318E+02  0.00000000000E+00 0.  1.
          2    1    5    5  502    0 -0.79416954324E+02 -0.10611650978E+03  0.84392406266E+02  0.15713002424E+03  0.00000000000E+00 0.  1.
          4    1    6    6  503    0  0.35088548560E+02  0.25457497944E+02  0.10827104641E+02  0.44682397390E+02  0.00000000000E+00 0.  1.
         -2    1    5    5    0  502 -0.23774805569E+03 -0.19101882448E+03  0.35450039373E+03  0.46763539050E+03  0.00000000000E+00 0. -1.
         -4    1    6    6    0  503  0.31960552623E+03  0.24165560625E+03  0.41515434398E+03  0.57697335619E+03  0.00000000000E+00 0. -1.
<mgrwt>
<rscale>  0 0.14134372E+04</rscale>
<asrwt>0</asrwt>
<pdfrwt beam="1">  1        2 0.39888049E+00 0.14134372E+04</pdfrwt>
<pdfrwt beam="2">  1       -2 0.29636271E-01 0.14134372E+04</pdfrwt>
<totfact> 0.31487043E+01</totfact>
</mgrwt>
</event>
<event>
12    1  0.4802930E-008  0.1599268E+04  0.7818608E-02  0.8820998E-01
         -1   -1    0    0    0  501 -0.00000000000E+00  0.00000000000E+00  0.36373136187E+03  0.36373136187E+03  0.00000000000E+00 0.  1.
          1   -1    0    0  501    0  0.00000000000E+00 -0.00000000000E+00 -0.17579306617E+04  0.17579306617E+04  0.00000000000E+00 0. -1.
         23    2    1    2    0    0  0.16663778003E+03  0.46808786121E+03 -0.84394038487E+03  0.98377276644E+03  0.93268897488E+02 0.  0.
        254    2    1    2    0    0 -0.16663778003E+03 -0.46808786121E+03 -0.55025891492E+03  0.11378892571E+04  0.86321068832E+03 0.  0.
         23    2    4    4    0    0 -0.32552814854E+03  0.10444237897E+03 -0.36601658771E+03  0.50902927924E+03  0.90916877580E+02 0.  0.
         23    2    4    4    0    0  0.15889036851E+03 -0.57253024018E+03 -0.18424232722E+03  0.62885997786E+03  0.92101093824E+02 0.  0.
         13    1    3    3    0    0  0.11485231369E+02  0.62490868525E+02 -0.17559243650E+03  0.18673436466E+03  0.00000000000E+00 0.  1.
        -13    1    3    3    0    0  0.15515254866E+03  0.40559699268E+03 -0.66834794837E+03  0.79703840178E+03  0.00000000000E+00 0. -1.
          2    1    5    5  502    0 -0.16323777501E+03  0.15117252624E+02 -0.13142124893E+03  0.21011103537E+03  0.00000000000E+00 0. -1.
          3    1    6    6  503    0  0.93801619788E+02 -0.19223471682E+03 -0.44294486201E+02  0.21843747786E+03  0.00000000000E+00 0. -1.
         -2    1    5    5    0  502 -0.16229037353E+03  0.89325126349E+02 -0.23459533878E+03  0.29891824387E+03  0.00000000000E+00 0.  1.
         -3    1    6    6    0  503  0.65088748725E+02 -0.38029552336E+03 -0.13994784102E+03  0.41042250000E+03  0.00000000000E+00 0.  1.
<mgrwt>
<rscale>  0 0.15992680E+04</rscale>
<asrwt>0</asrwt>
<pdfrwt beam="1">  1        1 0.27045087E+00 0.15992680E+04</pdfrwt>
<pdfrwt beam="2">  1       -1 0.55958671E-01 0.15992680E+04</pdfrwt>
<totfact> 0.13490946E+01</totfact>
</mgrwt>
</event>
<event>
12    1  0.4802930E-008  0.2114027E+04  0.7818608E-02  0.8555089E-01
         -1   -1    0    0    0  501 -0.00000000000E+00  0.00000000000E+00  0.57932867238E+03  0.57932867238E+03  0.00000000000E+00 0.  1.
          1   -1    0    0  501    0  0.00000000000E+00 -0.00000000000E+00 -0.19285730240E+04  0.19285730240E+04  0.00000000000E+00 0. -1.
         23    2    1    2    0    0  0.60829794965E+03 -0.58423108007E+03 -0.33508267211E+03  0.91225190191E+03  0.92578533770E+02 0.  0.
        254    2    1    2    0    0 -0.60829794965E+03  0.58423108007E+03 -0.10141616795E+04  0.15956497944E+04  0.89789866017E+03 0.  0.
         23    2    4    4    0    0 -0.54214937042E+03  0.42070649473E+03 -0.11584551335E+04  0.13496499727E+04  0.92827032383E+02 0.  0.
         23    2    4    4    0    0 -0.66148579235E+02  0.16352458534E+03  0.14429345406E+03  0.24599982171E+03  0.92624979630E+02 0.  0.
         13    1    3    3    0    0  0.50149281523E+03 -0.50877286542E+03 -0.25303949629E+03  0.75787456680E+03  0.00000000000E+00 0.  1.
        -13    1    3    3    0    0  0.10680513442E+03 -0.75458214649E+02 -0.82043175823E+02  0.15437733511E+03  0.00000000000E+00 0. -1.
          1    1    5    5  502    0 -0.32829215594E+03  0.26867767631E+03 -0.79874201278E+03  0.90440711872E+03  0.00000000000E+00 0. -1.
          3    1    6    6  503    0 -0.41016911350E+02  0.64766545680E+02  0.11806862910E+03  0.14077390964E+03  0.00000000000E+00 0. -1.
         -1    1    5    5    0  502 -0.21385721448E+03  0.15202881842E+03 -0.35971312075E+03  0.44524285402E+03  0.00000000000E+00 0.  1.
         -3    1    6    6    0  503 -0.25131667884E+02  0.98758039655E+02  0.26224824958E+02  0.10522591207E+03  0.00000000000E+00 0.  1.
<mgrwt>
<rscale>  0 0.21140271E+04</rscale>
<asrwt>0</asrwt>
<pdfrwt beam="1">  1        1 0.29670353E+00 0.21140271E+04</pdfrwt>
<pdfrwt beam="2">  1       -1 0.89127491E-01 0.21140271E+04</pdfrwt>
<totfact> 0.37768337E+00</totfact>
</mgrwt>
</event>
<event>
12    1  0.5166853E-008  0.1817452E+04  0.7818608E-02  0.8697074E-01
         -2   -1    0    0    0  501 -0.00000000000E+00  0.00000000000E+00  0.72165121870E+03  0.72165121870E+03  0.00000000000E+00 0.  1.
          2   -1    0    0  501    0  0.00000000000E+00 -0.00000000000E+00 -0.11442959162E+04  0.11442959162E+04  0.00000000000E+00 0. -1.
         23    2    1    2    0    0  0.32989170024E+03  0.56710454640E+03 -0.35089507616E+03  0.74868957953E+03  0.83502284920E+02 0.  0.
        254    2    1    2    0    0 -0.32989170024E+03 -0.56710454640E+03 -0.71749621318E+02  0.11172575553E+04  0.90148784595E+03 0.  0.
         23    2    4    4    0    0 -0.27990157728E+03 -0.38771634020E+03 -0.46445519968E+03  0.67282523585E+03  0.91138971180E+02 0.  0.
         23    2    4    4    0    0 -0.49990122962E+02 -0.17938820620E+03  0.39270557836E+03  0.44443231950E+03  0.92861587434E+02 0.  0.
         11    1    3    3    0    0  0.16564069278E+03  0.28024553927E+03 -0.22131976159E+03  0.39364557442E+03  0.00000000000E+00 0.  1.
        -11    1    3    3    0    0  0.16425100745E+03  0.28685900713E+03 -0.12957531458E+03  0.35504400511E+03  0.00000000000E+00 0. -1.
          4    1    5    5  502    0 -0.28606983296E+03 -0.38576933070E+03 -0.45951314517E+03  0.66468508063E+03  0.00000000000E+00 0. -1.
          1    1    6    6  503    0 -0.37044545585E+02 -0.16568148964E+03  0.39004566801E+03  0.42539191048E+03  0.00000000000E+00 0. -1.
         -4    1    5    5    0  502  0.61682556818E+01 -0.19470095040E+01 -0.49420545142E+01  0.81401552188E+01  0.00000000000E+00 0.  1.
         -1    1    6    6    0  503 -0.12945577377E+02 -0.13706716558E+02  0.26599103477E+01  0.19040409015E+02  0.00000000000E+00 0.  1.
<mgrwt>
<rscale>  0 0.18174516E+04</rscale>
<asrwt>0</asrwt>
<pdfrwt beam="1">  1        2 0.17604553E+00 0.18174516E+04</pdfrwt>
<pdfrwt beam="2">  1       -2 0.11102326E+00 0.18174516E+04</pdfrwt>
<totfact> 0.12396807E+01</totfact>
</mgrwt>
</event>
<event>
12    1  0.4802930E-008  0.2130477E+04  0.7818608E-02  0.8547935E-01
         -2   -1    0    0    0  501 -0.00000000000E+00  0.00000000000E+00  0.49263664665E+03  0.49263664665E+03  0.00000000000E+00 0. -1.
          2   -1    0    0  501    0  0.00000000000E+00 -0.00000000000E+00 -0.23033884366E+04  0.23033884366E+04  0.00000000000E+00 0.  1.
         23    2    1    2    0    0 -0.36777561096E+03  0.66869096707E+02 -0.17721708932E+04  0.18135906619E+04  0.93760536665E+02 0.  0.
        254    2    1    2    0    0  0.36777561096E+03 -0.66869096707E+02 -0.38580896734E+02  0.98243442131E+03  0.90772161507E+03 0.  0.
         23    2    4    4    0    0  0.28071537365E+03  0.56138888204E+02 -0.44580232681E+03  0.53752096725E+03  0.90754503344E+02 0.  0.
         23    2    4    4    0    0  0.87060237308E+02 -0.12300798491E+03  0.40722143007E+03  0.44491345406E+03  0.96996078356E+02 0.  0.
         11    1    3    3    0    0 -0.13972639589E+03  0.52647468603E+01 -0.86189092290E+03  0.87315929030E+03  0.00000000000E+00 0.  1.
        -11    1    3    3    0    0 -0.22804921507E+03  0.61604349847E+02 -0.91027997028E+03  0.94043137161E+03  0.00000000000E+00 0. -1.
          2    1    5    5  502    0  0.35129322065E+02 -0.23182805717E+02 -0.56820137480E+02  0.70710959355E+02  0.00000000000E+00 0. -1.
          1    1    6    6  503    0 -0.95412327794E+01 -0.16395322524E+01  0.58957268576E+00  0.96990094809E+01  0.00000000000E+00 0. -1.
         -2    1    5    5    0  502  0.24558605158E+03  0.79321693921E+02 -0.38898218933E+03  0.46681000790E+03  0.00000000000E+00 0.  1.
         -1    1    6    6    0  503  0.96601470088E+02 -0.12136845266E+03  0.40663185739E+03  0.43521444458E+03  0.00000000000E+00 0.  1.
<mgrwt>
<rscale>  0 0.21304775E+04</rscale>
<asrwt>0</asrwt>
<pdfrwt beam="1">  1        2 0.35436746E+00 0.21304775E+04</pdfrwt>
<pdfrwt beam="2">  1       -2 0.75790253E-01 0.21304775E+04</pdfrwt>
<totfact> 0.64727858E+00</totfact>
</mgrwt>
</event>
<event>
12    1  0.4802930E-008  0.1671512E+04  0.7818608E-02  0.8777781E-01
          2   -1    0    0  501    0  0.00000000000E+00  0.00000000000E+00  0.28899678272E+04  0.28899678272E+04  0.00000000000E+00 0. -1.
         -2   -1    0    0    0  501 -0.00000000000E+00 -0.00000000000E+00 -0.24169408608E+03  0.24169408608E+03  0.00000000000E+00 0.  1.
         23    2    1    2    0    0  0.28752501460E+03  0.68858161634E+02  0.19023638689E+04  0.19273611568E+04  0.91217643940E+02 0.  0.
        254    2    1    2    0    0 -0.28752501460E+03 -0.68858161634E+02  0.74590987223E+03  0.12043007565E+04  0.89807944760E+03 0.  0.
         23    2    4    4    0    0 -0.14307504734E+03 -0.76920370980E+02  0.93282821003E+03  0.95115977537E+03  0.90273120079E+02 0.  0.
         23    2    4    4    0    0 -0.14444996726E+03  0.80622093453E+01 -0.18691833779E+03  0.25314098115E+03  0.90615115036E+02 0.  0.
         13    1    3    3    0    0  0.12012745057E+03  0.74646683233E+02  0.92455246064E+03  0.93530742762E+03  0.00000000000E+00 0. -1.
        -13    1    3    3    0    0  0.16739756403E+03 -0.57885215983E+01  0.97781140829E+03  0.99205372919E+03  0.00000000000E+00 0.  1.
          1    1    5    5  502    0 -0.62779085262E+02 -0.82271787240E+02  0.59049961307E+03  0.59949950255E+03  0.00000000000E+00 0. -1.
          3    1    6    6  503    0 -0.77429000769E+02  0.92327262100E+00 -0.16499993178E+03  0.18226650839E+03  0.00000000000E+00 0. -1.
         -1    1    5    5    0  502 -0.80295962083E+02  0.53514162602E+01  0.34232859696E+03  0.35166027282E+03  0.00000000000E+00 0.  1.
         -3    1    6    6    0  503 -0.67020966488E+02  0.71389367243E+01 -0.21918406009E+02  0.70874472757E+02  0.00000000000E+00 0.  1.
<mgrwt>
<rscale>  0 0.16715120E+04</rscale>
<asrwt>0</asrwt>
<pdfrwt beam="1">  1        2 0.44461041E+00 0.16715120E+04</pdfrwt>
<pdfrwt beam="2">  1       -2 0.37183708E-01 0.16715120E+04</pdfrwt>
<totfact> 0.13306777E+01</totfact>
</mgrwt>
</event>
<event>
12    1  0.4802930E-008  0.1439326E+04  0.7818608E-02  0.8925834E-01
         -1   -1    0    0    0  501 -0.00000000000E+00  0.00000000000E+00  0.15369637730E+03  0.15369637730E+03  0.00000000000E+00 0.  1.
          1   -1    0    0  501    0  0.00000000000E+00 -0.00000000000E+00 -0.33697274826E+04  0.33697274826E+04  0.00000000000E+00 0. -1.
         23    2    1    2    0    0 -0.17123301215E+03 -0.38214733965E+03 -0.12396428308E+04  0.13116889591E+04  0.91957837711E+02 0.  0.
        254    2    1    2    0    0  0.17123301215E+03  0.38214733965E+03 -0.19763882746E+04  0.22117349008E+04  0.90016849867E+03 0.  0.
         23    2    4    4    0    0  0.11661854751E+03  0.11251736052E+03 -0.19031614911E+04  0.19120731767E+04  0.87978008868E+02 0.  0.
         23    2    4    4    0    0  0.54614464641E+02  0.26962997913E+03 -0.73226783497E+02  0.29966172409E+03  0.93551705850E+02 0.  0.
         11    1    3    3    0    0 -0.16522975187E+03 -0.35640962651E+03 -0.12089990557E+04  0.12712228009E+04  0.00000000000E+00 0. -1.
        -11    1    3    3    0    0 -0.60032602834E+01 -0.25737713139E+02 -0.30643775051E+02  0.40466158219E+02  0.00000000000E+00 0.  1.
          1    1    5    5  502    0  0.40173202005E+02  0.84709276932E+02 -0.13113745634E+04  0.13147215649E+04  0.00000000000E+00 0. -1.
          1    1    6    6  503    0  0.61047428891E+02  0.27469694335E+03 -0.75128361724E+02  0.29125499136E+03  0.00000000000E+00 0. -1.
         -1    1    5    5    0  502  0.76445345508E+02  0.27808083586E+02 -0.59178692772E+03  0.59735161185E+03  0.00000000000E+00 0.  1.
         -1    1    6    6    0  503 -0.64329642495E+01 -0.50669642139E+01  0.19015782270E+01  0.84067327265E+01  0.00000000000E+00 0.  1.
<mgrwt>
<rscale>  0 0.14393261E+04</rscale>
<asrwt>0</asrwt>
<pdfrwt beam="1">  1        1 0.51841960E+00 0.14393261E+04</pdfrwt>
<pdfrwt beam="2">  1       -1 0.23645597E-01 0.14393261E+04</pdfrwt>
<totfact> 0.47844486E+00</totfact>
</mgrwt>
</event>
<event>
12    1  0.4802930E-008  0.1757902E+04  0.7818608E-02  0.8729013E-01
          2   -1    0    0  501    0  0.00000000000E+00  0.00000000000E+00  0.22827262374E+04  0.22827262374E+04  0.00000000000E+00 0. -1.
         -2   -1    0    0    0  501 -0.00000000000E+00 -0.00000000000E+00 -0.33843498925E+03  0.33843498925E+03  0.00000000000E+00 0.  1.
         23    2    1    2    0    0  0.18109163242E+03  0.48162582864E+03  0.13239414105E+04  0.14220893024E+04  0.68989182342E+02 0.  0.
        254    2    1    2    0    0 -0.18109163242E+03 -0.48162582864E+03  0.62034983766E+03  0.11990719243E+04  0.88779611423E+03 0.  0.
         23    2    4    4    0    0  0.21219276551E+03 -0.36341613246E+03  0.64793257797E+03  0.77789179166E+03  0.90564666772E+02 0.  0.
         23    2    4    4    0    0 -0.39328439793E+03 -0.11820969618E+03 -0.27582740311E+02  0.42118013265E+03  0.89363004965E+02 0.  0.
         11    1    3    3    0    0  0.39891864872E+02  0.92466720094E+02  0.19176146359E+03  0.21659620063E+03  0.00000000000E+00 0.  1.
        -11    1    3    3    0    0  0.14119976755E+03  0.38915910855E+03  0.11321799469E+04  0.12054931018E+04  0.00000000000E+00 0. -1.
          1    1    5    5  502    0  0.13677190868E+03 -0.29471926598E+03  0.53290394055E+03  0.62414149886E+03  0.00000000000E+00 0. -1.
          3    1    6    6  503    0 -0.36416179945E+03 -0.12815125056E+03 -0.10967399430E+02  0.38620828972E+03  0.00000000000E+00 0. -1.
         -1    1    5    5    0  502  0.75420856831E+02 -0.68696866483E+02  0.11502863742E+03  0.15375029280E+03  0.00000000000E+00 0.  1.
         -3    1    6    6    0  503 -0.29122598474E+02  0.99415543814E+01 -0.16615340881E+02  0.34971842931E+02  0.00000000000E+00 0.  1.
<mgrwt>
<rscale>  0 0.17579015E+04</rscale>
<asrwt>0</asrwt>
<pdfrwt beam="1">  1        2 0.35118864E+00 0.17579015E+04</pdfrwt>
<pdfrwt beam="2">  1       -2 0.52066923E-01 0.17579015E+04</pdfrwt>
<totfact> 0.15305680E+01</totfact>
</mgrwt>
</event>
<event>
12    1  0.7429883E-008  0.1889297E+04  0.7818608E-02  0.8660202E-01
         -2   -1    0    0    0  501 -0.00000000000E+00  0.00000000000E+00  0.10923452115E+04  0.10923452115E+04  0.00000000000E+00 0. -1.
          2   -1    0    0  501    0  0.00000000000E+00 -0.00000000000E+00 -0.81692227218E+03  0.81692227218E+03  0.00000000000E+00 0.  1.
         23    2    1    2    0    0  0.18716912019E+03  0.11952182722E+03  0.80778640542E+03  0.84299102866E+03  0.93793661261E+02 0.  0.
        254    2    1    2    0    0 -0.18716912019E+03 -0.11952182722E+03 -0.53236346607E+03  0.10662764550E+04  0.89678139578E+03 0.  0.
         23    2    4    4    0    0  0.27460541315E+03 -0.24570530653E+02  0.65034557908E+02  0.29965116034E+03  0.97721442170E+02 0.  0.
         23    2    4    4    0    0 -0.46177453334E+03 -0.94951296568E+02 -0.59739802398E+03  0.76662529470E+03  0.92620057538E+02 0.  0.
         13    1    3    3    0    0  0.11357981230E+02  0.90480542956E+01  0.77729233700E+01  0.16470864030E+02  0.00000000000E+00 0.  1.
        -13    1    3    3    0    0  0.17581113896E+03  0.11047377293E+03  0.80001348205E+03  0.82652016463E+03  0.00000000000E+00 0. -1.
          2    1    5    5  502    0  0.14795297586E+03 -0.38277130758E+02  0.78040461088E+02  0.17159701446E+03  0.00000000000E+00 0. -1.
          1    1    6    6  503    0 -0.48605197577E+02 -0.16731770689E+01 -0.11381560563E+03  0.12377098544E+03  0.00000000000E+00 0. -1.
         -2    1    5    5    0  502  0.12665243730E+03  0.13706600104E+02 -0.13005903180E+02  0.12805414588E+03  0.00000000000E+00 0.  1.
         -1    1    6    6    0  503 -0.41316933577E+03 -0.93278119499E+02 -0.48358241835E+03  0.64285430926E+03  0.00000000000E+00 0.  1.
<mgrwt>
<rscale>  0 0.18892974E+04</rscale>
<asrwt>0</asrwt>
<pdfrwt beam="1">  1        2 0.12568035E+00 0.18892974E+04</pdfrwt>
<pdfrwt beam="2">  1       -2 0.16805311E+00 0.18892974E+04</pdfrwt>
<totfact> 0.69062327E+00</totfact>
</mgrwt>
</event>
<event>
12    1  0.4802930E-008  0.1949807E+04  0.7818608E-02  0.8630454E-01
         -2   -1    0    0    0  501 -0.00000000000E+00  0.00000000000E+00  0.42784395903E+03  0.42784395903E+03  0.00000000000E+00 0.  1.
          2   -1    0    0  501    0  0.00000000000E+00 -0.00000000000E+00 -0.22214571449E+04  0.22214571449E+04  0.00000000000E+00 0. -1.
         23    2    1    2    0    0 -0.26901232370E+02  0.15577467008E+03 -0.17322502829E+04  0.17417623395E+04  0.89752887481E+02 0.  0.
        254    2    1    2    0    0  0.26901232370E+02 -0.15577467008E+03 -0.61362902977E+02  0.90753876437E+03  0.89155581924E+03 0.  0.
         23    2    4    4    0    0 -0.34191477140E+03 -0.15003439648E+03  0.21321116824E+03  0.43935810221E+03  0.90335533942E+02 0.  0.
         23    2    4    4    0    0  0.36881600377E+03 -0.57402736045E+01 -0.27457407121E+03  0.46818066215E+03  0.88000093495E+02 0.  0.
         11    1    3    3    0    0 -0.57377545326E+02  0.69519929997E+02 -0.82293828199E+03  0.82786026559E+03  0.00000000000E+00 0.  1.
        -11    1    3    3    0    0  0.30476312956E+02  0.86254740083E+02 -0.90931200087E+03  0.91390207395E+03  0.00000000000E+00 0. -1.
          4    1    5    5  502    0 -0.27057949647E+03 -0.89175662297E+02  0.19099563745E+03  0.34299401771E+03  0.00000000000E+00 0. -1.
          1    1    6    6  503    0  0.33490380046E+03  0.21522488228E+02 -0.24652951535E+03  0.41641394670E+03  0.00000000000E+00 0. -1.
         -4    1    5    5    0  502 -0.71335274924E+02 -0.60858734179E+02  0.22215530788E+02  0.96364084505E+02  0.00000000000E+00 0.  1.
         -1    1    6    6    0  503  0.33912203309E+02 -0.27262761832E+02 -0.28044555861E+02  0.51766715459E+02  0.00000000000E+00 0.  1.
<mgrwt>
<rscale>  0 0.19498072E+04</rscale>
<asrwt>0</asrwt>
<pdfrwt beam="1">  1        2 0.34176263E+00 0.19498072E+04</pdfrwt>
<pdfrwt beam="2">  1       -2 0.65822148E-01 0.19498072E+04</pdfrwt>
<totfact> 0.99551497E+00</totfact>
</mgrwt>
</event>
<event>
12    1  0.4802930E-008  0.2018941E+04  0.7818608E-02  0.8597816E-01
          2   -1    0    0  501    0  0.00000000000E+00  0.00000000000E+00  0.25515744298E+04  0.25515744298E+04  0.00000000000E+00 0.  1.
         -2   -1    0    0    0  501 -0.00000000000E+00 -0.00000000000E+00 -0.39937348987E+03  0.39937348987E+03  0.00000000000E+00 0. -1.
         23    2    1    2    0    0  0.10390116657E+03 -0.76408398216E+03  0.55843702826E+03  0.95642053826E+03  0.90931552636E+02 0.  0.
        254    2    1    2    0    0 -0.10390116657E+03  0.76408398216E+03  0.15937639117E+04  0.19945273814E+04  0.91838787279E+03 0.  0.
         23    2    4    4    0    0 -0.42107113638E+03  0.69030131388E+03  0.84564303676E+03  0.11735270201E+04  0.90756352648E+02 0.  0.
         23    2    4    4    0    0  0.31716996981E+03  0.73782668285E+02  0.74812087492E+03  0.82100036128E+03  0.91192531779E+02 0.  0.
         11    1    3    3    0    0  0.46007065888E+02 -0.50884338783E+03  0.32354359551E+03  0.60474680788E+03  0.00000000000E+00 0. -1.
        -11    1    3    3    0    0  0.57894100680E+02 -0.25524059433E+03  0.23489343275E+03  0.35167373038E+03  0.00000000000E+00 0.  1.
          4    1    5    5  502    0 -0.10530782147E+03  0.22912882082E+03  0.22067298773E+03  0.33509151184E+03  0.00000000000E+00 0. -1.
          3    1    6    6  503    0  0.15143821912E+03  0.65730983200E+02  0.45712657888E+03  0.48602346186E+03  0.00000000000E+00 0. -1.
         -4    1    5    5    0  502 -0.31576331491E+03  0.46117249306E+03  0.62497004903E+03  0.83843550830E+03  0.00000000000E+00 0.  1.
         -3    1    6    6    0  503  0.16573175069E+03  0.80516850848E+01  0.29099429604E+03  0.33497689942E+03  0.00000000000E+00 0.  1.
<mgrwt>
<rscale>  0 0.20189415E+04</rscale>
<asrwt>0</asrwt>
<pdfrwt beam="1">  1        2 0.39254990E+00 0.20189415E+04</pdfrwt>
<pdfrwt beam="2">  1       -2 0.61442077E-01 0.20189415E+04</pdfrwt>
<totfact> 0.74259649E+00</totfact>
</mgrwt>
</event>
<event>
12    1  0.4802930E-008  0.1387630E+04  0.7818608E-02  0.8962821E-01
          2   -1    0    0  501    0  0.00000000000E+00  0.00000000000E+00  0.40832389025E+03  0.40832389025E+03  0.00000000000E+00 0. -1.
         -2   -1    0    0    0  501 -0.00000000000E+00 -0.00000000000E+00 -0.11789158785E+04  0.11789158785E+04  0.00000000000E+00 0.  1.
         23    2    1    2    0    0 -0.10896058995E+03 -0.12493902361E+03  0.18675113116E+03  0.26245668161E+03  0.80779669181E+02 0.  0.
        254    2    1    2    0    0  0.10896058995E+03  0.12493902361E+03 -0.95734311940E+03  0.13247830871E+04  0.90058992327E+03 0.  0.
         23    2    4    4    0    0  0.40443148516E+03 -0.16206630476E+03 -0.70550894988E+03  0.83418390249E+03  0.91047193730E+02 0.  0.
         23    2    4    4    0    0 -0.29547089521E+03  0.28700532836E+03 -0.25183416952E+03  0.49059918464E+03  0.87132098626E+02 0.  0.
         13    1    3    3    0    0 -0.10211180329E+03 -0.62282151887E+02  0.13903025932E+03  0.18339929068E+03  0.00000000000E+00 0. -1.
        -13    1    3    3    0    0 -0.68487866562E+01 -0.62656871718E+02  0.47720871842E+02  0.79057390936E+02  0.00000000000E+00 0.  1.
          1    1    5    5  502    0  0.94890784918E+02 -0.10432322992E+02 -0.10600292437E+03  0.14265242514E+03  0.00000000000E+00 0. -1.
          3    1    6    6  503    0 -0.13247213668E+03  0.18911402502E+03 -0.13816180482E+03  0.26907557631E+03  0.00000000000E+00 0. -1.
         -1    1    5    5    0  502  0.30954070024E+03 -0.15163398176E+03 -0.59950602552E+03  0.69153147735E+03  0.00000000000E+00 0.  1.
         -3    1    6    6    0  503 -0.16299875853E+03  0.97891303341E+02 -0.11367236470E+03  0.22152360833E+03  0.00000000000E+00 0.  1.
<mgrwt>
<rscale>  0 0.13876304E+04</rscale>
<asrwt>0</asrwt>
<pdfrwt beam="1">  1        2 0.62819061E-01 0.13876304E+04</pdfrwt>
<pdfrwt beam="2">  1       -2 0.18137167E+00 0.13876304E+04</pdfrwt>
<totfact> 0.13411481E+01</totfact>
</mgrwt>
</event>
<event>
12    1  0.4802930E-008  0.6431680E+04  0.7818608E-02  0.7639067E-01
         -2   -1    0    0    0  501 -0.00000000000E+00  0.00000000000E+00  0.37995784293E+04  0.37995784293E+04  0.00000000000E+00 0. -1.
          2   -1    0    0  501    0  0.00000000000E+00 -0.00000000000E+00 -0.27217828606E+04  0.27217828606E+04  0.00000000000E+00 0.  1.
         23    2    1    2    0    0  0.14769157780E+03 -0.25262663751E+04  0.24349089710E+04  0.35129793378E+04  0.91692587186E+02 0.  0.
        254    2    1    2    0    0 -0.14769157780E+03  0.25262663751E+04 -0.13571134024E+04  0.30083819522E+04  0.89709006430E+03 0.  0.
         23    2    4    4    0    0  0.16566468309E+03  0.21547093204E+04 -0.12602934786E+04  0.25032848864E+04  0.88761070956E+02 0.  0.
         23    2    4    4    0    0 -0.31335626089E+03  0.37155705468E+03 -0.96819923778E+02  0.50509706580E+03  0.97479008588E+02 0.  0.
         11    1    3    3    0    0  0.60637689605E+02 -0.53237898179E+03  0.48363056915E+03  0.72180526257E+03  0.00000000000E+00 0.  1.
        -11    1    3    3    0    0  0.87053888192E+02 -0.19938873933E+04  0.19512784019E+04  0.27911740752E+04  0.00000000000E+00 0. -1.
          1    1    5    5  502    0  0.13699314706E+03  0.20252697438E+04 -0.11945979638E+04  0.23553235346E+04  0.00000000000E+00 0. -1.
          1    1    6    6  503    0 -0.31113467437E+03  0.34439883821E+03 -0.10648045182E+03  0.47618634165E+03  0.00000000000E+00 0. -1.
         -1    1    5    5    0  502  0.28671536028E+02  0.12943957654E+03 -0.65695514788E+02  0.14796135176E+03  0.00000000000E+00 0.  1.
         -1    1    6    6    0  503 -0.22215865141E+01  0.27158216469E+02  0.96605280392E+01  0.28910724142E+02  0.00000000000E+00 0.  1.
<mgrwt>
<rscale>  0 0.64316802E+04</rscale>
<asrwt>0</asrwt>
<pdfrwt beam="1">  1        2 0.41873583E+00 0.64316802E+04</pdfrwt>
<pdfrwt beam="2">  1       -2 0.58455052E+00 0.64316802E+04</pdfrwt>
<totfact> 0.10096368E-03</totfact>
</mgrwt>
</event>
<event>
12    1  0.4802930E-008  0.1244145E+04  0.7818608E-02  0.9075071E-01
         -2   -1    0    0    0  501 -0.00000000000E+00  0.00000000000E+00  0.24620000814E+03  0.24620000814E+03  0.00000000000E+00 0.  1.
          2   -1    0    0  501    0  0.00000000000E+00 -0.00000000000E+00 -0.15717868717E+04  0.15717868717E+04  0.00000000000E+00 0. -1.
         23    2    1    2    0    0  0.75266633603E+02  0.66844186662E+02  0.73986372825E+02  0.15195829462E+03  0.86510857787E+02 0.  0.
        254    2    1    2    0    0 -0.75266633603E+02 -0.66844186662E+02 -0.13995732364E+04  0.16660285852E+04  0.89817191637E+03 0.  0.
         23    2    4    4    0    0  0.36326643739E+03 -0.21094995618E+03 -0.60031006855E+03  0.73833703224E+03  0.91142779334E+02 0.  0.
         23    2    4    4    0    0 -0.43853307099E+03  0.14410576952E+03 -0.79926316785E+03  0.92769155300E+03  0.93339588953E+02 0.  0.
         11    1    3    3    0    0  0.76610857165E+02  0.73735334000E+02  0.86857621825E+02  0.13729664739E+03  0.00000000000E+00 0.  1.
        -11    1    3    3    0    0 -0.13442235618E+01 -0.68911473380E+01 -0.12871249000E+02  0.14661647228E+02  0.00000000000E+00 0. -1.
          4    1    5    5  502    0  0.32670431193E+03 -0.19042481113E+03 -0.57835380172E+03  0.69100682781E+03  0.00000000000E+00 0. -1.
          3    1    6    6  503    0 -0.40448061607E+03  0.10859153299E+03 -0.74337840020E+03  0.85323392789E+03  0.00000000000E+00 0. -1.
         -4    1    5    5    0  502  0.36562125461E+02 -0.20525145055E+02 -0.21956266839E+02  0.47330204428E+02  0.00000000000E+00 0.  1.
         -3    1    6    6    0  503 -0.34052454916E+02  0.35514236528E+02 -0.55884767653E+02  0.74457625115E+02  0.00000000000E+00 0.  1.
<mgrwt>
<rscale>  0 0.12441446E+04</rscale>
<asrwt>0</asrwt>
<pdfrwt beam="1">  1        2 0.24181336E+00 0.12441446E+04</pdfrwt>
<pdfrwt beam="2">  1       -2 0.37876925E-01 0.12441446E+04</pdfrwt>
<totfact> 0.74823858E+01</totfact>
</mgrwt>
</event>
<event>
12    1  0.4802930E-008  0.1578671E+04  0.7818608E-02  0.8833759E-01
         -1   -1    0    0    0  501 -0.00000000000E+00  0.00000000000E+00  0.91354515670E+03  0.91354515670E+03  0.00000000000E+00 0.  1.
          1   -1    0    0  501    0  0.00000000000E+00 -0.00000000000E+00 -0.68201386733E+03  0.68201386733E+03  0.00000000000E+00 0. -1.
         23    2    1    2    0    0  0.60430637105E+02 -0.15267743186E+03 -0.42610694319E+03  0.46485738583E+03  0.86965522031E+02 0.  0.
        254    2    1    2    0    0 -0.60430637105E+02  0.15267743186E+03  0.65763823257E+03  0.11307016382E+04  0.90500601634E+03 0.  0.
         23    2    4    4    0    0 -0.46704658120E+03  0.10479539113E+02  0.29272323522E+03  0.55860402128E+03  0.90051265420E+02 0.  0.
         23    2    4    4    0    0  0.40661594409E+03  0.14219789275E+03  0.36491499734E+03  0.57209761692E+03  0.92606486324E+02 0.  0.
         11    1    3    3    0    0  0.48484558839E+02 -0.10553701602E+03 -0.38178447477E+03  0.39905914270E+03  0.00000000000E+00 0. -1.
        -11    1    3    3    0    0  0.11946078267E+02 -0.47140415845E+02 -0.44322468421E+02  0.65798243129E+02  0.00000000000E+00 0.  1.
          3    1    5    5  502    0 -0.68494186765E+02 -0.30588109745E+02  0.50107014394E+02  0.90209749860E+02  0.00000000000E+00 0. -1.
          3    1    6    6  503    0  0.29675467703E+03  0.12694002923E+03  0.22451533311E+03  0.39317202871E+03  0.00000000000E+00 0. -1.
         -3    1    5    5    0  502 -0.39855239443E+03  0.41067648858E+02  0.24261622083E+03  0.46839427142E+03  0.00000000000E+00 0.  1.
         -3    1    6    6    0  503  0.10986126706E+03  0.15257863525E+02  0.14039966423E+03  0.17892558821E+03  0.00000000000E+00 0.  1.
<mgrwt>
<rscale>  0 0.15786709E+04</rscale>
<asrwt>0</asrwt>
<pdfrwt beam="1">  1        1 0.10492521E+00 0.15786709E+04</pdfrwt>
<pdfrwt beam="2">  1       -1 0.14054541E+00 0.15786709E+04</pdfrwt>
<totfact> 0.11304482E+01</totfact>
</mgrwt>
</event>
<event>
12    1  0.4802930E-008  0.2267712E+04  0.7818608E-02  0.8490762E-01
         -2   -1    0    0    0  501 -0.00000000000E+00  0.00000000000E+00  0.86524569028E+03  0.86524569028E+03  0.00000000000E+00 0. -1.
          2   -1    0    0  501    0  0.00000000000E+00 -0.00000000000E+00 -0.14858550990E+04  0.14858550990E+04  0.00000000000E+00 0.  1.
         23    2    1    2    0    0  0.87060255845E+03 -0.17827906686E+03  0.94403290514E+02  0.89849370091E+03  0.92987681153E+02 0.  0.
        254    2    1    2    0    0 -0.87060255845E+03  0.17827906686E+03 -0.71501269922E+03  0.14526070884E+04  0.89949538779E+03 0.  0.
         23    2    4    4    0    0 -0.63220350469E+03 -0.28963710489E+03 -0.55960417574E+03  0.89738291586E+03  0.92565329846E+02 0.  0.
         23    2    4    4    0    0 -0.23839905376E+03  0.46791617175E+03 -0.15540852348E+03  0.55522417251E+03  0.91336848800E+02 0.  0.
         13    1    3    3    0    0  0.59031975163E+03 -0.15595251203E+03  0.90896491249E+02  0.61730119658E+03  0.00000000000E+00 0. -1.
        -13    1    3    3    0    0  0.28028280682E+03 -0.22326554828E+02  0.35067992653E+01  0.28119250433E+03  0.00000000000E+00 0.  1.
          2    1    5    5  502    0 -0.56372164936E+02 -0.90282094608E+01 -0.22234946596E+02  0.61267629265E+02  0.00000000000E+00 0.  1.
          4    1    6    6  503    0 -0.15748494453E+03  0.24428551040E+03 -0.49270921433E+02  0.29479576328E+03  0.00000000000E+00 0. -1.
         -2    1    5    5    0  502 -0.57583133976E+03 -0.28060889543E+03 -0.53736922915E+03  0.83611528659E+03  0.00000000000E+00 0. -1.
         -4    1    6    6    0  503 -0.80914109226E+02  0.22363066135E+03 -0.10613760205E+03  0.26042840923E+03  0.00000000000E+00 0.  1.
<mgrwt>
<rscale>  0 0.22677123E+04</rscale>
<asrwt>0</asrwt>
<pdfrwt beam="1">  1        2 0.22859309E+00 0.22677123E+04</pdfrwt>
<pdfrwt beam="2">  1       -2 0.13311472E+00 0.22677123E+04</pdfrwt>
<totfact> 0.48072172E+00</totfact>
</mgrwt>
</event>
<event>
12    1  0.4802930E-008  0.1637392E+04  0.7818608E-02  0.8797900E-01
         -2   -1    0    0    0  501 -0.00000000000E+00  0.00000000000E+00  0.69865480026E+03  0.69865480026E+03  0.00000000000E+00 0.  1.
          2   -1    0    0  501    0  0.00000000000E+00 -0.00000000000E+00 -0.95936286872E+03  0.95936286872E+03  0.00000000000E+00 0. -1.
         23    2    1    2    0    0 -0.50632366338E+03 -0.10095416151E+03 -0.32750156340E+03  0.61846973708E+03  0.93231683626E+02 0.  0.
        254    2    1    2    0    0  0.50632366338E+03  0.10095416151E+03  0.66793494941E+02  0.10395479319E+04  0.89980172089E+03 0.  0.
         23    2    4    4    0    0  0.24689433284E+03 -0.35969422633E+03  0.19691724774E+03  0.48720139737E+03  0.90840800867E+02 0.  0.
         23    2    4    4    0    0  0.25942933054E+03  0.46064838784E+03 -0.13012375280E+03  0.55234653452E+03  0.93026815455E+02 0.  0.
         11    1    3    3    0    0 -0.16394429252E+03 -0.56154150775E+01 -0.14502994700E+03  0.21895878485E+03  0.00000000000E+00 0.  1.
        -11    1    3    3    0    0 -0.34237937085E+03 -0.95338746428E+02 -0.18247161640E+03  0.39951095223E+03  0.00000000000E+00 0. -1.
          2    1    5    5  502    0  0.44518030520E+02 -0.13131786544E+03  0.82294058241E+02  0.16124065507E+03  0.00000000000E+00 0. -1.
          4    1    6    6  503    0  0.89657123144E+01  0.13455142010E+02 -0.23969672054E+02  0.28913146183E+02  0.00000000000E+00 0. -1.
         -2    1    5    5    0  502  0.20237630232E+03 -0.22837636089E+03  0.11462318950E+03  0.32596074231E+03  0.00000000000E+00 0.  1.
         -4    1    6    6    0  503  0.25046361823E+03  0.44719324583E+03 -0.10615408074E+03  0.52343338834E+03  0.00000000000E+00 0.  1.
<mgrwt>
<rscale>  0 0.16373924E+04</rscale>
<asrwt>0</asrwt>
<pdfrwt beam="1">  1        2 0.14759429E+00 0.16373924E+04</pdfrwt>
<pdfrwt beam="2">  1       -2 0.10748535E+00 0.16373924E+04</pdfrwt>
<totfact> 0.17786226E+01</totfact>
</mgrwt>
</event>
<event>
12    1  0.4802930E-008  0.1721918E+04  0.7818608E-02  0.8748962E-01
          1   -1    0    0  501    0  0.00000000000E+00  0.00000000000E+00  0.18609275178E+04  0.18609275178E+04  0.00000000000E+00 0. -1.
         -1   -1    0    0    0  501 -0.00000000000E+00 -0.00000000000E+00 -0.39832300323E+03  0.39832300323E+03  0.00000000000E+00 0.  1.
         23    2    1    2    0    0 -0.46527915159E+03 -0.40737307794E+03  0.73304578485E+03  0.96384967811E+03  0.95982111770E+02 0.  0.
        254    2    1    2    0    0  0.46527915159E+03  0.40737307794E+03  0.72955872972E+03  0.12954008429E+04  0.87371041551E+03 0.  0.
         23    2    4    4    0    0  0.28363637637E+03  0.19761188199E+03  0.89243405634E+03  0.96153606208E+03  0.92806270634E+02 0.  0.
         23    2    4    4    0    0  0.18164277522E+03  0.20976119595E+03 -0.16287532662E+03  0.33386478083E+03  0.89126105837E+02 0.  0.
         13    1    3    3    0    0 -0.42518940674E+03 -0.33630110782E+03  0.66209153987E+03  0.85571588386E+03  0.00000000000E+00 0. -1.
        -13    1    3    3    0    0 -0.40089744857E+02 -0.71071970119E+02  0.70954244972E+02  0.10813379425E+03  0.00000000000E+00 0.  1.
          4    1    5    5  502    0  0.21422119244E+03  0.13801313425E+03  0.75130713575E+03  0.79334781574E+03  0.00000000000E+00 0. -1.
          3    1    6    6  503    0  0.13245188443E+03  0.19899834653E+03 -0.11877801116E+03  0.26693081415E+03  0.00000000000E+00 0. -1.
         -4    1    5    5    0  502  0.69415183935E+02  0.59598747733E+02  0.14112692059E+03  0.16818824634E+03  0.00000000000E+00 0.  1.
         -3    1    6    6    0  503  0.49190890789E+02  0.10762849423E+02 -0.44097315457E+02  0.66933966675E+02  0.00000000000E+00 0.  1.
<mgrwt>
<rscale>  0 0.17219178E+04</rscale>
<asrwt>0</asrwt>
<pdfrwt beam="1">  1        1 0.28629654E+00 0.17219178E+04</pdfrwt>
<pdfrwt beam="2">  1       -1 0.61280463E-01 0.17219178E+04</pdfrwt>
<totfact> 0.95016590E+00</totfact>
</mgrwt>
</event>
<event>
12    1  0.4802930E-008  0.1058541E+04  0.7818608E-02  0.9246570E-01
          2   -1    0    0  501    0  0.00000000000E+00  0.00000000000E+00  0.15566495023E+03  0.15566495023E+03  0.00000000000E+00 0. -1.
         -2   -1    0    0    0  501 -0.00000000000E+00 -0.00000000000E+00 -0.17995527323E+04  0.17995527323E+04  0.00000000000E+00 0.  1.
         23    2    1    2    0    0  0.55754044777E+02 -0.42944740122E+01 -0.31900166388E+02  0.11085894766E+03  0.90250371991E+02 0.  0.
        254    2    1    2    0    0 -0.55754044777E+02  0.42944740122E+01 -0.16119876157E+04  0.18443587348E+04  0.89444290694E+03 0.  0.
         23    2    4    4    0    0  0.13554678671E+03 -0.28346498516E+03 -0.19020330139E+03  0.37816982339E+03  0.90054373916E+02 0.  0.
         23    2    4    4    0    0 -0.19130083149E+03  0.28775945917E+03 -0.14217843143E+04  0.14661889115E+04  0.94009432150E+02 0.  0.
         11    1    3    3    0    0  0.82806971182E+01 -0.95636595417E+01 -0.55963192754E+02  0.57375190386E+02  0.00000000000E+00 0.  1.
        -11    1    3    3    0    0  0.47473347659E+02  0.52691855295E+01  0.24063026367E+02  0.53483757273E+02  0.00000000000E+00 0. -1.
          2    1    5    5  502    0 -0.13301833686E+02 -0.17530285975E+02 -0.10591259597E+02  0.24421803488E+02  0.00000000000E+00 0.  1.
          1    1    6    6  503    0 -0.18771336086E+03  0.26560363452E+03 -0.13882269775E+04  0.14258175682E+04  0.00000000000E+00 0. -1.
         -2    1    5    5    0  502  0.14884862040E+03 -0.26593469918E+03 -0.17961204180E+03  0.35374801990E+03  0.00000000000E+00 0. -1.
         -1    1    6    6    0  503 -0.35874706301E+01  0.22155824657E+02 -0.33557336729E+02  0.40371343303E+02  0.00000000000E+00 0.  1.
<mgrwt>
<rscale>  0 0.10585410E+04</rscale>
<asrwt>0</asrwt>
<pdfrwt beam="1">  1        2 0.23948454E-01 0.10585410E+04</pdfrwt>
<pdfrwt beam="2">  1       -2 0.27685427E+00 0.10585410E+04</pdfrwt>
<totfact> 0.10191156E+01</totfact>
</mgrwt>
</event>
<event>
12    1  0.4802930E-008  0.2636571E+04  0.7818608E-02  0.8355884E-01
         -2   -1    0    0    0  501 -0.00000000000E+00  0.00000000000E+00  0.90841033785E+03  0.90841033785E+03  0.00000000000E+00 0.  1.
          2   -1    0    0  501    0  0.00000000000E+00 -0.00000000000E+00 -0.19130970203E+04  0.19130970203E+04  0.00000000000E+00 0. -1.
         23    2    1    2    0    0 -0.54827452415E+03  0.22117574751E+03  0.62581082410E+03  0.86528113182E+03  0.86882589719E+02 0.  0.
        254    2    1    2    0    0  0.54827452415E+03 -0.22117574751E+03 -0.16304975065E+04  0.19562262263E+04  0.90486201415E+03 0.  0.
         23    2    4    4    0    0 -0.58296148265E+02  0.10702133034E+03  0.30400692626E+02  0.15536188929E+03  0.91439097104E+02 0.  0.
         23    2    4    4    0    0  0.60657067242E+03 -0.32819707786E+03 -0.16608981992E+04  0.18008643371E+04  0.94277409336E+02 0.  0.
         11    1    3    3    0    0 -0.11992516356E+03  0.15366936145E+02  0.10378301964E+03  0.15933958311E+03  0.00000000000E+00 0. -1.
        -11    1    3    3    0    0 -0.42834936060E+03  0.20580881137E+03  0.52202780446E+03  0.70594154871E+03  0.00000000000E+00 0.  1.
          4    1    5    5  502    0 -0.40536235508E+02  0.97802571839E+02 -0.13873844743E+02  0.10677552629E+03  0.00000000000E+00 0. -1.
          1    1    6    6  503    0  0.27255749381E+03 -0.98939045055E+02 -0.74083112187E+03  0.79555469529E+03  0.00000000000E+00 0.  1.
         -4    1    5    5    0  502 -0.17759912757E+02  0.92187585044E+01  0.44274537369E+02  0.48586362991E+02  0.00000000000E+00 0.  1.
         -1    1    6    6    0  503  0.33401317861E+03 -0.22925803280E+03 -0.92006707731E+03  0.10053096418E+04  0.00000000000E+00 0. -1.
<mgrwt>
<rscale>  0 0.26365713E+04</rscale>
<asrwt>0</asrwt>
<pdfrwt beam="1">  1        2 0.29432261E+00 0.26365713E+04</pdfrwt>
<pdfrwt beam="2">  1       -2 0.13975544E+00 0.26365713E+04</pdfrwt>
<totfact> 0.23762133E+00</totfact>
</mgrwt>
</event>
<event>
12    1  0.4802930E-008  0.1517789E+04  0.7818608E-02  0.8872709E-01
          2   -1    0    0  501    0  0.00000000000E+00  0.00000000000E+00  0.14804295702E+04  0.14804295702E+04  0.00000000000E+00 0. -1.
         -2   -1    0    0    0  501 -0.00000000000E+00 -0.00000000000E+00 -0.38902299501E+03  0.38902299501E+03  0.00000000000E+00 0.  1.
         23    2    1    2    0    0 -0.10130039863E+03 -0.28430990863E+03  0.83188279454E+03  0.88954872819E+03  0.90410514162E+02 0.  0.
        254    2    1    2    0    0  0.10130039863E+03  0.28430990863E+03  0.25952378062E+03  0.97990383699E+03  0.89541333591E+03 0.  0.
         23    2    4    4    0    0  0.38922874200E+03 -0.13572607628E+03  0.64317873590E+02  0.42701754179E+03  0.91030823078E+02 0.  0.
         23    2    4    4    0    0 -0.28792834337E+03  0.42003598491E+03  0.19520590703E+03  0.55288629520E+03  0.90801705620E+02 0.  0.
         13    1    3    3    0    0 -0.54861146572E+02 -0.19969604063E+03  0.44533754400E+03  0.49113519742E+03  0.00000000000E+00 0.  1.
        -13    1    3    3    0    0 -0.46439252060E+02 -0.84613867995E+02  0.38654525054E+03  0.39841353077E+03  0.00000000000E+00 0. -1.
          4    1    5    5  502    0  0.36404073790E+03 -0.11065307726E+03  0.78937052036E+02  0.38858824035E+03  0.00000000000E+00 0. -1.
          3    1    6    6  503    0 -0.17337794429E+03  0.32405816076E+03  0.14742654919E+03  0.39599013943E+03  0.00000000000E+00 0. -1.
         -4    1    5    5    0  502  0.25188004108E+02 -0.25072999019E+02 -0.14619178446E+02  0.38429301440E+02  0.00000000000E+00 0.  1.
         -3    1    6    6    0  503 -0.11455039908E+03  0.95977824143E+02  0.47779357842E+02  0.15689615576E+03  0.00000000000E+00 0.  1.
<mgrwt>
<rscale>  0 0.15177894E+04</rscale>
<asrwt>0</asrwt>
<pdfrwt beam="1">  1        2 0.22775839E+00 0.15177894E+04</pdfrwt>
<pdfrwt beam="2">  1       -2 0.59849692E-01 0.15177894E+04</pdfrwt>
<totfact> 0.32710818E+01</totfact>
</mgrwt>
</event>
<event>
12    1  0.4802930E-008  0.1701353E+04  0.7818608E-02  0.8760593E-01
         -2   -1    0    0    0  501 -0.00000000000E+00  0.00000000000E+00  0.36203624676E+03  0.36203624676E+03  0.00000000000E+00 0.  1.
          2   -1    0    0  501    0  0.00000000000E+00 -0.00000000000E+00 -0.19988339927E+04  0.19988339927E+04  0.00000000000E+00 0. -1.
         23    2    1    2    0    0  0.28740711083E+03  0.42445376505E+03 -0.14581986432E+03  0.54063607210E+03  0.90885002116E+02 0.  0.
        254    2    1    2    0    0 -0.28740711083E+03 -0.42445376505E+03 -0.14909778816E+04  0.18202341674E+04  0.90965572310E+03 0.  0.
         23    2    4    4    0    0 -0.39218938912E+03  0.70267284887E+02 -0.25616706499E+03  0.48272122527E+03  0.92995741153E+02 0.  0.
         23    2    4    4    0    0  0.10478227830E+03 -0.49472104994E+03 -0.12348108167E+04  0.13375129421E+04  0.91950390527E+02 0.  0.
         11    1    3    3    0    0  0.47886457369E+02  0.13900372436E+03 -0.56084699522E+02  0.15735514515E+03  0.00000000000E+00 0. -1.
        -11    1    3    3    0    0  0.23952065346E+03  0.28545004069E+03 -0.89735164802E+02  0.38328092695E+03  0.00000000000E+00 0.  1.
          4    1    5    5  502    0 -0.37926544337E+01 -0.10652397424E+02 -0.18162855042E+01  0.11452366199E+02  0.00000000000E+00 0.  1.
          3    1    6    6  503    0  0.86569070776E+02 -0.48471468853E+03 -0.11679596233E+04  0.12675062978E+04  0.00000000000E+00 0. -1.
         -4    1    5    5    0  502 -0.38839673469E+03  0.80919682311E+02 -0.25435077948E+03  0.47126885907E+03  0.00000000000E+00 0. -1.
         -3    1    6    6    0  503  0.18213207522E+02 -0.10006361406E+02 -0.66851193339E+02  0.70006644311E+02  0.00000000000E+00 0.  1.
<mgrwt>
<rscale>  0 0.17013528E+04</rscale>
<asrwt>0</asrwt>
<pdfrwt beam="1">  1        2 0.30751293E+00 0.17013528E+04</pdfrwt>
<pdfrwt beam="2">  1       -2 0.55697883E-01 0.17013528E+04</pdfrwt>
<totfact> 0.19281379E+01</totfact>
</mgrwt>
</event>
<event>
12    1  0.4802930E-008  0.1300970E+04  0.7818608E-02  0.9028797E-01
          1   -1    0    0  501    0  0.00000000000E+00  0.00000000000E+00  0.10468922436E+04  0.10468922436E+04  0.00000000000E+00 0. -1.
         -1   -1    0    0    0  501 -0.00000000000E+00 -0.00000000000E+00 -0.40417770793E+03  0.40417770793E+03  0.00000000000E+00 0.  1.
         23    2    1    2    0    0  0.14501444488E+03  0.22198179632E+03  0.33324448121E+03  0.43511410394E+03  0.89259688920E+02 0.  0.
        254    2    1    2    0    0 -0.14501444488E+03 -0.22198179632E+03  0.30947005449E+03  0.10159558476E+04  0.93063927628E+03 0.  0.
         23    2    4    4    0    0  0.38086065135E+03 -0.15948275851E+03  0.20086238173E+03  0.46787152797E+03  0.89824742050E+02 0.  0.
         23    2    4    4    0    0 -0.52587509622E+03 -0.62499037808E+02  0.10860767276E+03  0.54808431965E+03  0.90277617961E+02 0.  0.
         13    1    3    3    0    0  0.15132635931E+03  0.19590188473E+03  0.32166678439E+03  0.40589005364E+03  0.00000000000E+00 0. -1.
        -13    1    3    3    0    0 -0.63119144313E+01  0.26079911588E+02  0.11577696827E+02  0.29224050302E+02  0.00000000000E+00 0.  1.
          4    1    5    5  502    0  0.99378375602E+02 -0.86418737013E+02  0.66065427285E+02  0.14733940521E+03  0.00000000000E+00 0. -1.
          3    1    6    6  503    0 -0.26498311717E+03 -0.48524620908E+00  0.87658479594E+02  0.27910624661E+03  0.00000000000E+00 0. -1.
         -4    1    5    5    0  502  0.28148227574E+03 -0.73064021499E+02  0.13479695444E+03  0.32053212276E+03  0.00000000000E+00 0.  1.
         -3    1    6    6    0  503 -0.26089197905E+03 -0.62013791599E+02  0.20949193167E+02  0.26897807304E+03  0.00000000000E+00 0.  1.
<mgrwt>
<rscale>  0 0.13009696E+04</rscale>
<asrwt>0</asrwt>
<pdfrwt beam="1">  1        1 0.16106034E+00 0.13009696E+04</pdfrwt>
<pdfrwt beam="2">  1       -1 0.62181186E-01 0.13009696E+04</pdfrwt>
<totfact> 0.35864859E+01</totfact>
</mgrwt>
</event>
<event>
12    1  0.4802930E-008  0.1240464E+04  0.7818608E-02  0.9078158E-01
         -2   -1    0    0    0  501 -0.00000000000E+00  0.00000000000E+00  0.30242705892E+03  0.30242705892E+03  0.00000000000E+00 0.  1.
          2   -1    0    0  501    0  0.00000000000E+00 -0.00000000000E+00 -0.12720006866E+04  0.12720006866E+04  0.00000000000E+00 0. -1.
         23    2    1    2    0    0  0.25187645354E+02  0.66817762101E+02 -0.58090254024E+03  0.59099045565E+03  0.81993454610E+02 0.  0.
        254    2    1    2    0    0 -0.25187645354E+02 -0.66817762101E+02 -0.38867108745E+03  0.98343728987E+03  0.90054686612E+03 0.  0.
         23    2    4    4    0    0  0.89399000270E+02 -0.41153565121E+03  0.15734751667E+02  0.43181017553E+03  0.94120517474E+02 0.  0.
         23    2    4    4    0    0 -0.11458664562E+03  0.34471788911E+03 -0.40440583911E+03  0.55162711434E+03  0.93743629861E+02 0.  0.
         13    1    3    3    0    0  0.10499780195E+01  0.77286484863E+02 -0.34103962842E+03  0.34968890653E+03  0.00000000000E+00 0. -1.
        -13    1    3    3    0    0  0.24137667335E+02 -0.10468722762E+02 -0.23986291182E+03  0.24130154912E+03  0.00000000000E+00 0.  1.
          3    1    6    6  502    0 -0.77442242620E+02  0.20608275077E+03 -0.17593959152E+03  0.28181934102E+03  0.00000000000E+00 0. -1.
          3    1    5    5  503    0  0.72619926830E+02 -0.20341886802E+03 -0.30004426091E+02  0.21806685953E+03  0.00000000000E+00 0. -1.
         -3    1    5    5    0  503  0.16779073440E+02 -0.20811678319E+03  0.45739177758E+02  0.21374331600E+03  0.00000000000E+00 0.  1.
         -3    1    6    6    0  502 -0.37144403004E+02  0.13863513834E+03 -0.22846624759E+03  0.26980777332E+03  0.00000000000E+00 0.  1.
<mgrwt>
<rscale>  0 0.12404635E+04</rscale>
<asrwt>0</asrwt>
<pdfrwt beam="1">  1        2 0.19569241E+00 0.12404635E+04</pdfrwt>
<pdfrwt beam="2">  1       -2 0.46527240E-01 0.12404635E+04</pdfrwt>
<totfact> 0.73962022E+01</totfact>
</mgrwt>
</event>
<event>
12    1  0.4802930E-008  0.1657509E+04  0.7818608E-02  0.8785976E-01
         -2   -1    0    0    0  501 -0.00000000000E+00  0.00000000000E+00  0.16889977381E+04  0.16889977381E+04  0.00000000000E+00 0.  1.
          2   -1    0    0  501    0  0.00000000000E+00 -0.00000000000E+00 -0.40665203942E+03  0.40665203942E+03  0.00000000000E+00 0. -1.
         23    2    1    2    0    0  0.28238160996E+03  0.14846885944E+03 -0.15683722240E+03  0.36696235418E+03  0.91000435087E+02 0.  0.
        254    2    1    2    0    0 -0.28238160996E+03 -0.14846885944E+03  0.14391829210E+04  0.17286874233E+04  0.90295645047E+03 0.  0.
         23    2    4    4    0    0  0.17997365809E+03  0.23102500927E+03  0.25670896818E+03  0.40041767877E+03  0.93122234796E+02 0.  0.
         23    2    4    4    0    0 -0.46235526804E+03 -0.37949386871E+03  0.11824739529E+04  0.13282697445E+04  0.90927854886E+02 0.  0.
         13    1    3    3    0    0  0.11650146307E+03  0.10501440345E+03 -0.48687174011E+02  0.16422867211E+03  0.00000000000E+00 0.  1.
        -13    1    3    3    0    0  0.16588014689E+03  0.43454455985E+02 -0.10815004839E+03  0.20273368207E+03  0.00000000000E+00 0. -1.
          2    1    5    5  502    0  0.10058044619E+03  0.18896907835E+03  0.15254862889E+03  0.26286274537E+03  0.00000000000E+00 0. -1.
          3    1    6    6  503    0 -0.44020932227E+03 -0.34874470167E+03  0.11431684644E+04  0.12736723489E+04  0.00000000000E+00 0. -1.
         -2    1    5    5    0  502  0.79393211898E+02  0.42055930920E+02  0.10416033929E+03  0.13755493340E+03  0.00000000000E+00 0.  1.
         -3    1    6    6    0  503 -0.22145945770E+02 -0.30749167039E+02  0.39305488472E+02  0.54597395649E+02  0.00000000000E+00 0.  1.
<mgrwt>
<rscale>  0 0.16575094E+04</rscale>
<asrwt>0</asrwt>
<pdfrwt beam="1">  1        2 0.62561853E-01 0.16575094E+04</pdfrwt>
<pdfrwt beam="2">  1       -2 0.25984580E+00 0.16575094E+04</pdfrwt>
<totfact> 0.41686516E+00</totfact>
</mgrwt>
</event>
<event>
12    1  0.4802930E-008  0.1904629E+04  0.7818608E-02  0.8652556E-01
         -2   -1    0    0    0  501 -0.00000000000E+00  0.00000000000E+00  0.25978045299E+03  0.25978045299E+03  0.00000000000E+00 0.  1.
          2   -1    0    0  501    0  0.00000000000E+00 -0.00000000000E+00 -0.34910349991E+04  0.34910349991E+04  0.00000000000E+00 0. -1.
         23    2    1    2    0    0  0.46142231760E+03  0.45367801415E+03 -0.17523170459E+04  0.18701723223E+04  0.90527287535E+02 0.  0.
        254    2    1    2    0    0 -0.46142231760E+03 -0.45367801415E+03 -0.14789375002E+04  0.18806431298E+04  0.96479435976E+03 0.  0.
         23    2    4    4    0    0 -0.43736037500E+03  0.16450102812E+03 -0.35312687661E+03  0.59266747602E+03  0.90617108110E+02 0.  0.
         23    2    4    4    0    0 -0.24061942608E+02 -0.61817904227E+03 -0.11258106236E+04  0.12879756538E+04  0.93313553509E+02 0.  0.
         11    1    3    3    0    0  0.14741219664E+03  0.13712091964E+03 -0.67040524193E+03  0.69998263602E+03  0.00000000000E+00 0. -1.
        -11    1    3    3    0    0  0.31401012096E+03  0.31655709451E+03 -0.10819118040E+04  0.11701896863E+04  0.00000000000E+00 0.  1.
          1    1    5    5  502    0 -0.20592920229E+03  0.10975371863E+03 -0.13290496538E+03  0.26854505196E+03  0.00000000000E+00 0. -1.
          3    1    6    6  503    0  0.18422951422E+01 -0.23589078587E+03 -0.34124987625E+03  0.41484856870E+03  0.00000000000E+00 0.  1.
         -1    1    5    5    0  502 -0.23143117271E+03  0.54747309495E+02 -0.22022191123E+03  0.32412242407E+03  0.00000000000E+00 0.  1.
         -3    1    6    6    0  503 -0.25904237750E+02 -0.38228825640E+03 -0.78456074731E+03  0.87312708510E+03  0.00000000000E+00 0. -1.
<mgrwt>
<rscale>  0 0.19046287E+04</rscale>
<asrwt>0</asrwt>
<pdfrwt beam="1">  1        2 0.53708223E+00 0.19046287E+04</pdfrwt>
<pdfrwt beam="2">  1       -2 0.39966229E-01 0.19046287E+04</pdfrwt>
<totfact> 0.46053307E+00</totfact>
</mgrwt>
</event>
<event>
12    1  0.4802930E-008  0.1626291E+04  0.7818608E-02  0.8804557E-01
         -2   -1    0    0    0  501 -0.00000000000E+00  0.00000000000E+00  0.20048988134E+04  0.20048988134E+04  0.00000000000E+00 0.  1.
          2   -1    0    0  501    0  0.00000000000E+00 -0.00000000000E+00 -0.32979502289E+03  0.32979502289E+03  0.00000000000E+00 0. -1.
         23    2    1    2    0    0 -0.33712149590E+02  0.55090006732E+03  0.73838192704E+03  0.92637295612E+03  0.91277546261E+02 0.  0.
        254    2    1    2    0    0  0.33712149590E+02 -0.55090006732E+03  0.93672186343E+03  0.14083208801E+04  0.89514940582E+03 0.  0.
         23    2    4    4    0    0 -0.32278464101E+03 -0.47302237393E+03  0.83876249335E+03  0.10198107335E+04  0.92473353464E+02 0.  0.
         23    2    4    4    0    0  0.35649679060E+03 -0.77877693392E+02  0.97959370078E+02  0.38851014667E+03  0.90494193428E+02 0.  0.
         13    1    3    3    0    0 -0.46960031788E+02  0.32148958408E+03  0.37217466205E+03  0.49403924574E+03  0.00000000000E+00 0. -1.
        -13    1    3    3    0    0  0.13247882198E+02  0.22941048324E+03  0.36620726499E+03  0.43233371038E+03  0.00000000000E+00 0.  1.
          1    1    5    5  502    0 -0.21437341655E+03 -0.33694651654E+03  0.50903527904E+03  0.64699755181E+03  0.00000000000E+00 0. -1.
          3    1    6    6  503    0  0.24934199975E+03 -0.86003673753E+02  0.97044037047E+02  0.28104378638E+03  0.00000000000E+00 0. -1.
         -1    1    5    5    0  502 -0.10841122445E+03 -0.13607585739E+03  0.32972721431E+03  0.37281318164E+03  0.00000000000E+00 0.  1.
         -3    1    6    6    0  503  0.10715479085E+03  0.81259803614E+01  0.91533303094E+00  0.10746636028E+03  0.00000000000E+00 0.  1.
<mgrwt>
<rscale>  0 0.16262911E+04</rscale>
<asrwt>0</asrwt>
<pdfrwt beam="1">  1        2 0.50737697E-01 0.16262911E+04</pdfrwt>
<pdfrwt beam="2">  1       -2 0.30844596E+00 0.16262911E+04</pdfrwt>
<totfact> 0.26749366E+00</totfact>
</mgrwt>
</event>
<event>
12    1  0.4802930E-008  0.2152264E+04  0.7818608E-02  0.8538564E-01
         -2   -1    0    0    0  501 -0.00000000000E+00  0.00000000000E+00  0.10540541183E+04  0.10540541183E+04  0.00000000000E+00 0.  1.
          2   -1    0    0  501    0  0.00000000000E+00 -0.00000000000E+00 -0.10986722921E+04  0.10986722921E+04  0.00000000000E+00 0. -1.
         23    2    1    2    0    0 -0.75234379224E+02  0.71120784781E+03 -0.53782918158E+03  0.89870200155E+03  0.83236076456E+02 0.  0.
        254    2    1    2    0    0  0.75234379224E+02 -0.71120784781E+03  0.49321100783E+03  0.12540244089E+04  0.90434689429E+03 0.  0.
         23    2    4    4    0    0 -0.96281490585E+02 -0.82483197131E+03  0.57507058601E+03  0.10142883946E+04  0.91961199295E+02 0.  0.
         23    2    4    4    0    0  0.17151586981E+03  0.11362412350E+03 -0.81859578179E+02  0.23973601430E+03  0.91892496834E+02 0.  0.
         13    1    3    3    0    0 -0.30232561289E+02  0.58589249565E+03 -0.44607994829E+03  0.73700159056E+03  0.00000000000E+00 0. -1.
        -13    1    3    3    0    0 -0.45001817935E+02  0.12531535216E+03 -0.91749233283E+02  0.16170041098E+03  0.00000000000E+00 0.  1.
          2    1    5    5  502    0 -0.10190871921E+03 -0.57608336937E+03  0.37368251737E+03  0.69418733733E+03  0.00000000000E+00 0.  1.
          3    1    6    6  503    0  0.39030055221E+02  0.78381605775E+02 -0.22931138157E+02  0.90514410077E+02  0.00000000000E+00 0. -1.
         -2    1    5    5    0  502  0.56272286259E+01 -0.24874860194E+03  0.20138806864E+03  0.32010105726E+03  0.00000000000E+00 0. -1.
         -3    1    6    6    0  503  0.13248581459E+03  0.35242517721E+02 -0.58928440023E+02  0.14922160422E+03  0.00000000000E+00 0.  1.
<mgrwt>
<rscale>  0 0.21522640E+04</rscale>
<asrwt>0</asrwt>
<pdfrwt beam="1">  1        2 0.16902651E+00 0.21522640E+04</pdfrwt>
<pdfrwt beam="2">  1       -2 0.16216217E+00 0.21522640E+04</pdfrwt>
<totfact> 0.48633293E+00</totfact>
</mgrwt>
</event>
<event>
12    1  0.4802930E-008  0.2063594E+04  0.7818608E-02  0.8577452E-01
          2   -1    0    0  501    0  0.00000000000E+00  0.00000000000E+00  0.11941655300E+04  0.11941655300E+04  0.00000000000E+00 0. -1.
         -2   -1    0    0    0  501 -0.00000000000E+00 -0.00000000000E+00 -0.89150521590E+03  0.89150521590E+03  0.00000000000E+00 0.  1.
         23    2    1    2    0    0  0.23331536058E+03  0.49886970946E+03  0.84878526930E+03  0.10155338954E+04  0.86980543238E+02 0.  0.
        254    2    1    2    0    0 -0.23331536058E+03 -0.49886970946E+03 -0.54612495521E+03  0.10701368505E+04  0.73731497171E+03 0.  0.
         23    2    4    4    0    0 -0.37784874440E+03 -0.12816225248E+03 -0.28015120212E+02  0.41027528674E+03  0.91354952477E+02 0.  0.
         23    2    4    4    0    0  0.14453338382E+03 -0.37070745698E+03 -0.51810983500E+03  0.65986156372E+03  0.93089013613E+02 0.  0.
         11    1    3    3    0    0  0.78318249764E+01  0.18464920855E+02  0.72244579465E+02  0.74977130158E+02  0.00000000000E+00 0.  1.
        -11    1    3    3    0    0  0.22548353561E+03  0.48040478861E+03  0.77654068983E+03  0.94055676528E+03  0.00000000000E+00 0. -1.
          4    1    5    5  502    0 -0.30513075530E+03 -0.13780222433E+03 -0.34797512953E+02  0.33660822594E+03  0.00000000000E+00 0. -1.
          3    1    6    6  503    0  0.43188889470E+02 -0.28928893515E+02 -0.59903110464E+02  0.79312947852E+02  0.00000000000E+00 0. -1.
         -4    1    5    5    0  502 -0.72717989098E+02  0.96399718489E+01  0.67823927417E+01  0.73667060801E+02  0.00000000000E+00 0.  1.
         -3    1    6    6    0  503  0.10134449435E+03 -0.34177856347E+03 -0.45820672453E+03  0.58054861587E+03  0.00000000000E+00 0.  1.
<mgrwt>
<rscale>  0 0.20635938E+04</rscale>
<asrwt>0</asrwt>
<pdfrwt beam="1">  1        2 0.18371777E+00 0.20635938E+04</pdfrwt>
<pdfrwt beam="2">  1       -2 0.13715465E+00 0.20635938E+04</pdfrwt>
<totfact> 0.66859608E+00</totfact>
</mgrwt>
</event>
<event>
12    1  0.4802930E-008  0.2848235E+04  0.7818608E-02  0.8288448E-01
         -2   -1    0    0    0  501 -0.00000000000E+00  0.00000000000E+00  0.54897966616E+03  0.54897966616E+03  0.00000000000E+00 0.  1.
          2   -1    0    0  501    0  0.00000000000E+00 -0.00000000000E+00 -0.36943273273E+04  0.36943273273E+04  0.00000000000E+00 0. -1.
         23    2    1    2    0    0  0.55631101509E+03  0.11352673299E+04 -0.11060095278E+04  0.16821204284E+04  0.89208767852E+02 0.  0.
        254    2    1    2    0    0 -0.55631101509E+03 -0.11352673299E+04 -0.20393381333E+04  0.25611865650E+04  0.89580284838E+03 0.  0.
         23    2    4    4    0    0 -0.35817427926E+03 -0.12295657435E+04 -0.15192195415E+04  0.19893445361E+04  0.96658865437E+02 0.  0.
         23    2    4    4    0    0 -0.19813673582E+03  0.94298413614E+02 -0.52011859180E+03  0.57184202890E+03  0.91266640058E+02 0.  0.
         11    1    3    3    0    0  0.24108791040E+03  0.39976971108E+03 -0.42657026482E+03  0.63237757176E+03  0.00000000000E+00 0. -1.
        -11    1    3    3    0    0  0.31522310469E+03  0.73549761879E+03 -0.67943926299E+03  0.10497428566E+04  0.00000000000E+00 0.  1.
          2    1    5    5  502    0 -0.36016801191E+03 -0.11579341881E+04 -0.14344501929E+04  0.18783449993E+04  0.00000000000E+00 0. -1.
          1    1    6    6  503    0 -0.18950127459E+03  0.93431282038E+02 -0.40866764623E+03  0.46005367362E+03  0.00000000000E+00 0. -1.
         -2    1    5    5    0  502  0.19937326418E+01 -0.71631555422E+02 -0.84769348640E+02  0.11099953681E+03  0.00000000000E+00 0.  1.
         -1    1    6    6    0  503 -0.86354612285E+01  0.86713157610E+00 -0.11145094557E+03  0.11178835528E+03  0.00000000000E+00 0.  1.
<mgrwt>
<rscale>  0 0.28482350E+04</rscale>
<asrwt>0</asrwt>
<pdfrwt beam="1">  1        2 0.56835806E+00 0.28482350E+04</pdfrwt>
<pdfrwt beam="2">  1       -2 0.84458409E-01 0.28482350E+04</pdfrwt>
<totfact> 0.62443321E-01</totfact>
</mgrwt>
</event>
<event>
12    1  0.4802930E-008  0.1562381E+04  0.7818608E-02  0.8843998E-01
         -1   -1    0    0    0  501 -0.00000000000E+00  0.00000000000E+00  0.49530775070E+03  0.49530775070E+03  0.00000000000E+00 0.  1.
          1   -1    0    0  501    0  0.00000000000E+00 -0.00000000000E+00 -0.12320796526E+04  0.12320796526E+04  0.00000000000E+00 0. -1.
         23    2    1    2    0    0  0.38401369942E+03  0.34268024409E+03 -0.25231595709E+03  0.58047613451E+03  0.91612933016E+02 0.  0.
        254    2    1    2    0    0 -0.38401369942E+03 -0.34268024409E+03 -0.48445594485E+03  0.11469112688E+04  0.90322290993E+03 0.  0.
         23    2    4    4    0    0 -0.35973256129E+03 -0.43024507427E+03  0.74775994828E+02  0.57292624948E+03  0.90192562663E+02 0.  0.
         23    2    4    4    0    0 -0.24281138139E+02  0.87564830178E+02 -0.55923193968E+03  0.57398501934E+03  0.91985145107E+02 0.  0.
         11    1    3    3    0    0  0.34631090273E+03  0.30226090300E+03 -0.25400252254E+03  0.52517632876E+03  0.00000000000E+00 0. -1.
        -11    1    3    3    0    0  0.37702796695E+02  0.40419341095E+02  0.16865654503E+01  0.55299805752E+02  0.00000000000E+00 0.  1.
          3    1    5    5  502    0 -0.35323619380E+03 -0.38975690985E+03  0.78141956563E+02  0.53178230768E+03  0.00000000000E+00 0. -1.
          3    1    6    6  503    0  0.24191942386E+02 -0.77452950706E+00 -0.60240699945E+02  0.64921428683E+02  0.00000000000E+00 0. -1.
         -3    1    5    5    0  502 -0.64963674886E+01 -0.40488164423E+02 -0.33659617349E+01  0.41143941806E+02  0.00000000000E+00 0.  1.
         -3    1    6    6    0  503 -0.48473080525E+02  0.88339359685E+02 -0.49899123974E+03  0.50906359066E+03  0.00000000000E+00 0.  1.
<mgrwt>
<rscale>  0 0.15623810E+04</rscale>
<asrwt>0</asrwt>
<pdfrwt beam="1">  1        1 0.18955072E+00 0.15623810E+04</pdfrwt>
<pdfrwt beam="2">  1       -1 0.76201192E-01 0.15623810E+04</pdfrwt>
<totfact> 0.16853057E+01</totfact>
</mgrwt>
</event>
<event>
12    1  0.4802930E-008  0.2014327E+04  0.7818608E-02  0.8599951E-01
         -2   -1    0    0    0  501 -0.00000000000E+00  0.00000000000E+00  0.13743915093E+04  0.13743915093E+04  0.00000000000E+00 0. -1.
          2   -1    0    0  501    0  0.00000000000E+00 -0.00000000000E+00 -0.73805651893E+03  0.73805651893E+03  0.00000000000E+00 0.  1.
         23    2    1    2    0    0 -0.65193685564E+03 -0.56653952157E+01  0.69496119573E+03  0.95711700106E+03  0.89711368844E+02 0.  0.
        254    2    1    2    0    0  0.65193685564E+03  0.56653952157E+01 -0.58626205377E+02  0.11553310272E+04  0.95199736866E+03 0.  0.
         23    2    4    4    0    0  0.64185543789E+03  0.26750153944E+03  0.24604065632E+03  0.74312735047E+03  0.90370225752E+02 0.  0.
         23    2    4    4    0    0  0.10081417747E+02 -0.26183614422E+03 -0.30466686170E+03  0.41220367669E+03  0.91815973852E+02 0.  0.
         11    1    3    3    0    0 -0.47382244968E+03 -0.18164261460E+02  0.44772263100E+03  0.65214508242E+03  0.00000000000E+00 0.  1.
        -11    1    3    3    0    0 -0.17811440596E+03  0.12498866245E+02  0.24723856474E+03  0.30497191864E+03  0.00000000000E+00 0. -1.
          1    1    5    5  502    0  0.49684769996E+03  0.16786349179E+03  0.16834789667E+03  0.55079651701E+03  0.00000000000E+00 0. -1.
          1    1    6    6  503    0  0.21363623479E+02 -0.26185418227E+03 -0.27436036516E+03  0.37986527500E+03  0.00000000000E+00 0. -1.
         -1    1    5    5    0  502  0.14500773793E+03  0.99638047647E+02  0.77692759658E+02  0.19233083346E+03  0.00000000000E+00 0.  1.
         -1    1    6    6    0  503 -0.11282205733E+02  0.18038042832E-01 -0.30306496541E+02  0.32338401694E+02  0.00000000000E+00 0.  1.
<mgrwt>
<rscale>  0 0.20143273E+04</rscale>
<asrwt>0</asrwt>
<pdfrwt beam="1">  1        2 0.11354716E+00 0.20143273E+04</pdfrwt>
<pdfrwt beam="2">  1       -2 0.21144485E+00 0.20143273E+04</pdfrwt>
<totfact> 0.39801966E+00</totfact>
</mgrwt>
</event>
<event>
12    1  0.4802930E-008  0.1939233E+04  0.7818608E-02  0.8635570E-01
         -2   -1    0    0    0  501 -0.00000000000E+00  0.00000000000E+00  0.62238427985E+03  0.62238427985E+03  0.00000000000E+00 0.  1.
          2   -1    0    0  501    0  0.00000000000E+00 -0.00000000000E+00 -0.15105720803E+04  0.15105720803E+04  0.00000000000E+00 0. -1.
         23    2    1    2    0    0  0.40311203651E+03 -0.44159769390E+03  0.16407084851E+03  0.62741176666E+03  0.96012730254E+02 0.  0.
        254    2    1    2    0    0 -0.40311203651E+03  0.44159769390E+03 -0.10522586490E+04  0.15055445935E+04  0.89549339555E+03 0.  0.
         23    2    4    4    0    0  0.10788899453E+03 -0.97637946370E+02 -0.61651191732E+03  0.63981247825E+03  0.89999218978E+02 0.  0.
         23    2    4    4    0    0 -0.51100103105E+03  0.53923564027E+03 -0.43574673169E+03  0.86573211528E+03  0.87862118062E+02 0.  0.
         11    1    3    3    0    0  0.18093663495E+03 -0.24270061625E+03  0.43811791702E+02  0.30587763581E+03  0.00000000000E+00 0. -1.
        -11    1    3    3    0    0  0.22217540156E+03 -0.19889707765E+03  0.12025905681E+03  0.32153413085E+03  0.00000000000E+00 0.  1.
          4    1    5    5  502    0  0.11077950684E+03 -0.11129288415E+03 -0.55966394262E+03  0.58127612532E+03  0.00000000000E+00 0. -1.
          3    1    6    6  503    0 -0.54393715680E+02  0.79765533182E+02 -0.87448839771E+02  0.13026325716E+03  0.00000000000E+00 0. -1.
         -4    1    5    5    0  502 -0.28905123086E+01  0.13654937777E+02 -0.56847974702E+02  0.58536352934E+02  0.00000000000E+00 0.  1.
         -3    1    6    6    0  503 -0.45660731537E+03  0.45947010709E+03 -0.34829789192E+03  0.73546885812E+03  0.00000000000E+00 0.  1.
<mgrwt>
<rscale>  0 0.19392332E+04</rscale>
<asrwt>0</asrwt>
<pdfrwt beam="1">  1        2 0.23239570E+00 0.19392332E+04</pdfrwt>
<pdfrwt beam="2">  1       -2 0.95751429E-01 0.19392332E+04</pdfrwt>
<totfact> 0.10696341E+01</totfact>
</mgrwt>
</event>
<event>
12    1  0.4802930E-008  0.1046099E+04  0.7818608E-02  0.9259381E-01
         -1   -1    0    0    0  501 -0.00000000000E+00  0.00000000000E+00  0.50208893275E+03  0.50208893275E+03  0.00000000000E+00 0.  1.
          1   -1    0    0  501    0  0.00000000000E+00 -0.00000000000E+00 -0.54488484111E+03  0.54488484111E+03  0.00000000000E+00 0. -1.
         23    2    1    2    0    0 -0.98439862194E+02  0.52319720195E+01  0.28980681074E+02  0.13853759948E+03  0.92924736181E+02 0.  0.
        254    2    1    2    0    0  0.98439862194E+02 -0.52319720195E+01 -0.71776589436E+02  0.90843617438E+03  0.90021476556E+03 0.  0.
         23    2    4    4    0    0  0.29827835528E+03  0.36166545405E+03 -0.51952332228E+02  0.48037566176E+03  0.91048633775E+02 0.  0.
         23    2    4    4    0    0 -0.19983849309E+03 -0.36689742607E+03 -0.19824257207E+02  0.42806051262E+03  0.91069515861E+02 0.  0.
         11    1    3    3    0    0 -0.34507393179E+02 -0.55735076153E+01 -0.33556106343E+02  0.48454478060E+02  0.00000000000E+00 0. -1.
        -11    1    3    3    0    0 -0.63932469015E+02  0.10805479635E+02  0.62536787416E+02  0.90083121420E+02  0.00000000000E+00 0.  1.
          4    1    5    5  502    0  0.26508774068E+03  0.33924682654E+03 -0.70445751659E+02  0.43625969732E+03  0.00000000000E+00 0. -1.
          1    1    6    6  503    0 -0.94897100186E+02 -0.13296483144E+03 -0.47647123719E+02  0.17016272924E+03  0.00000000000E+00 0. -1.
         -4    1    5    5    0  502  0.33190614599E+02  0.22418627504E+02  0.18493419431E+02  0.44115964444E+02  0.00000000000E+00 0.  1.
         -1    1    6    6    0  503 -0.10494139290E+03 -0.23393259463E+03  0.27822866512E+02  0.25789778338E+03  0.00000000000E+00 0.  1.
<mgrwt>
<rscale>  0 0.10460987E+04</rscale>
<asrwt>0</asrwt>
<pdfrwt beam="1">  1        1 0.83828437E-01 0.10460987E+04</pdfrwt>
<pdfrwt beam="2">  1       -1 0.77244451E-01 0.10460987E+04</pdfrwt>
<totfact> 0.66078042E+01</totfact>
</mgrwt>
</event>
<event>
12    1  0.4802930E-008  0.2381723E+04  0.7818608E-02  0.8446378E-01
         -2   -1    0    0    0  501 -0.00000000000E+00  0.00000000000E+00  0.42290053634E+04  0.42290053634E+04  0.00000000000E+00 0.  1.
          2   -1    0    0  501    0  0.00000000000E+00 -0.00000000000E+00 -0.33533908741E+03  0.33533908741E+03  0.00000000000E+00 0. -1.
         23    2    1    2    0    0 -0.62395100481E+03 -0.62302438808E+03  0.26492575002E+04  0.27937895726E+04  0.96024106525E+02 0.  0.
        254    2    1    2    0    0  0.62395100481E+03  0.62302438808E+03  0.12444087757E+04  0.17705548782E+04  0.89935372957E+03 0.  0.
         23    2    4    4    0    0  0.29555205665E+03  0.29923123766E+03  0.12273224033E+04  0.13007006417E+04  0.92798306733E+02 0.  0.
         23    2    4    4    0    0  0.32839894816E+03  0.32379315042E+03  0.17086372412E+02  0.46985423650E+03  0.88222366913E+02 0.  0.
         11    1    3    3    0    0 -0.42674919307E+03 -0.42028223979E+03  0.16533018886E+04  0.17584536302E+04  0.00000000000E+00 0. -1.
        -11    1    3    3    0    0 -0.19720181174E+03 -0.20274214829E+03  0.99595561165E+03  0.10353359424E+04  0.00000000000E+00 0.  1.
          4    1    5    5  502    0  0.24172628932E+03  0.27642237115E+03  0.11175448831E+04  0.11763279695E+04  0.00000000000E+00 0. -1.
          3    1    6    6  503    0  0.22556326692E+03  0.16502952146E+03  0.24423971880E+02  0.28055313354E+03  0.00000000000E+00 0. -1.
         -4    1    5    5    0  502  0.53825767324E+02  0.22808866511E+02  0.10977752025E+03  0.12437267213E+03  0.00000000000E+00 0.  1.
         -3    1    6    6    0  503  0.10283568124E+03  0.15876362895E+03 -0.73375994674E+01  0.18930110296E+03  0.00000000000E+00 0.  1.
<mgrwt>
<rscale>  0 0.23817227E+04</rscale>
<asrwt>0</asrwt>
<pdfrwt beam="1">  1        2 0.51590632E-01 0.23817227E+04</pdfrwt>
<pdfrwt beam="2">  1       -2 0.65061617E+00 0.23817227E+04</pdfrwt>
<totfact> 0.28703029E-02</totfact>
</mgrwt>
</event>
<event>
12    1  0.4802930E-008  0.2154664E+04  0.7818608E-02  0.8537538E-01
          2   -1    0    0  501    0  0.00000000000E+00  0.00000000000E+00  0.38675270500E+04  0.38675270500E+04  0.00000000000E+00 0. -1.
         -2   -1    0    0    0  501 -0.00000000000E+00 -0.00000000000E+00 -0.30009996693E+03  0.30009996693E+03  0.00000000000E+00 0.  1.
         23    2    1    2    0    0 -0.41621960973E+03  0.77844192887E+03  0.16646427032E+04  0.18864201797E+04  0.91297124563E+02 0.  0.
        254    2    1    2    0    0  0.41621960973E+03 -0.77844192887E+03  0.19027843799E+04  0.22812068372E+04  0.89671937511E+03 0.  0.
         23    2    4    4    0    0  0.39430895681E+02 -0.79194062192E+03  0.16033533450E+04  0.17909740718E+04  0.90118992100E+02 0.  0.
         23    2    4    4    0    0  0.37678871405E+03  0.13498693047E+02  0.29943103483E+03  0.49023276538E+03  0.92289056142E+02 0.  0.
         13    1    3    3    0    0 -0.18997431165E+03  0.36553661121E+03  0.68111992956E+03  0.79600980626E+03  0.00000000000E+00 0.  1.
        -13    1    3    3    0    0 -0.22624529809E+03  0.41290531767E+03  0.98352277364E+03  0.10904103735E+04  0.00000000000E+00 0. -1.
          1    1    5    5  502    0  0.44075232585E+02 -0.59857596796E+03  0.11271777222E+04  0.12770142649E+04  0.00000000000E+00 0. -1.
          3    1    6    6  503    0  0.23862231198E+03  0.17099467721E+02  0.24282546687E+03  0.34087711412E+03  0.00000000000E+00 0. -1.
         -1    1    5    5    0  502 -0.46443369034E+01 -0.19336465396E+03  0.47617562286E+03  0.51395980687E+03  0.00000000000E+00 0.  1.
         -3    1    6    6    0  503  0.13816640207E+03 -0.36007746736E+01  0.56605567963E+02  0.14935565126E+03  0.00000000000E+00 0.  1.
<mgrwt>
<rscale>  0 0.21546645E+04</rscale>
<asrwt>0</asrwt>
<pdfrwt beam="1">  1        2 0.59500413E+00 0.21546645E+04</pdfrwt>
<pdfrwt beam="2">  1       -2 0.46169228E-01 0.21546645E+04</pdfrwt>
<totfact> 0.17903673E+00</totfact>
</mgrwt>
</event>
<event>
12    1  0.4802930E-008  0.1313838E+04  0.7818608E-02  0.9018663E-01
         -3   -1    0    0    0  501 -0.00000000000E+00  0.00000000000E+00  0.16274207393E+04  0.16274207393E+04  0.00000000000E+00 0.  1.
          3   -1    0    0  501    0  0.00000000000E+00 -0.00000000000E+00 -0.26516977849E+03  0.26516977849E+03  0.00000000000E+00 0. -1.
         23    2    1    2    0    0 -0.19097865296E+03 -0.10735840968E+03 -0.72556304295E+01  0.23935143689E+03  0.96113433770E+02 0.  0.
        254    2    1    2    0    0  0.19097865296E+03  0.10735840968E+03  0.13695065912E+04  0.16532390809E+04  0.89980691326E+03 0.  0.
         23    2    4    4    0    0  0.31032441946E+03 -0.63459215518E+02  0.71486439642E+02  0.33547615419E+03  0.84294849372E+02 0.  0.
         23    2    4    4    0    0 -0.11934576650E+03  0.17081762520E+03  0.12980201516E+04  0.13177629267E+04  0.90668318545E+02 0.  0.
         11    1    3    3    0    0 -0.35126079642E+02  0.93783223326E+01  0.21920681766E+02  0.42453629879E+02  0.00000000000E+00 0.  1.
        -11    1    3    3    0    0 -0.15585257332E+03 -0.11673673202E+03 -0.29176312195E+02  0.19689780701E+03  0.00000000000E+00 0. -1.
          2    1    5    5  502    0  0.14277437050E+03 -0.70157640429E+02  0.47940115042E+02  0.16614713363E+03  0.00000000000E+00 0. -1.
          1    1    6    6  503    0 -0.65436530192E+02  0.14274998172E+03  0.74225931009E+03  0.75868859236E+03  0.00000000000E+00 0. -1.
         -2    1    5    5    0  502  0.16755004896E+03  0.66984249119E+01  0.23546324600E+02  0.16932902057E+03  0.00000000000E+00 0.  1.
         -1    1    6    6    0  503 -0.53909236311E+02  0.28067643483E+02  0.55576084150E+03  0.55907433434E+03  0.00000000000E+00 0.  1.
<mgrwt>
<rscale>  0 0.13138383E+04</rscale>
<asrwt>0</asrwt>
<pdfrwt beam="1">  1        3 0.40795352E-01 0.13138383E+04</pdfrwt>
<pdfrwt beam="2">  1       -3 0.25037242E+00 0.13138383E+04</pdfrwt>
<totfact> 0.11199059E+00</totfact>
</mgrwt>
</event>
<event>
12    1  0.4802930E-008  0.1538240E+04  0.7818608E-02  0.8859415E-01
          1   -1    0    0  501    0  0.00000000000E+00  0.00000000000E+00  0.16124898537E+04  0.16124898537E+04  0.00000000000E+00 0. -1.
         -1   -1    0    0    0  501 -0.00000000000E+00 -0.00000000000E+00 -0.36685217082E+03  0.36685217082E+03  0.00000000000E+00 0.  1.
         23    2    1    2    0    0  0.30417467829E+03  0.37790060531E+03  0.54630736858E+03  0.73639028121E+03  0.92129272715E+02 0.  0.
        254    2    1    2    0    0 -0.30417467829E+03 -0.37790060531E+03  0.69933031433E+03  0.12429517433E+04  0.90583389499E+03 0.  0.
         23    2    4    4    0    0 -0.19739644737E+03 -0.66799259964E+03  0.42829025079E+03  0.82269295197E+03  0.90618340838E+02 0.  0.
         23    2    4    4    0    0 -0.10677823091E+03  0.29009199433E+03  0.27104006354E+03  0.42025879136E+03  0.87176716509E+02 0.  0.
         11    1    3    3    0    0  0.13827682719E+03  0.11444339543E+03  0.23937132527E+03  0.29919291946E+03  0.00000000000E+00 0. -1.
        -11    1    3    3    0    0  0.16589785110E+03  0.26345720988E+03  0.30693604331E+03  0.43719736175E+03  0.00000000000E+00 0.  1.
          4    1    5    5  502    0 -0.62751527430E+02 -0.18725333632E+03  0.17008488986E+03  0.26063467903E+03  0.00000000000E+00 0. -1.
          1    1    6    6  503    0 -0.34333347658E+02  0.15931429950E+03  0.92508393675E+02  0.18739697886E+03  0.00000000000E+00 0. -1.
         -4    1    5    5    0  502 -0.13464491994E+03 -0.48073926332E+03  0.25820536093E+03  0.56205827294E+03  0.00000000000E+00 0.  1.
         -1    1    6    6    0  503 -0.72444883256E+02  0.13077769483E+03  0.17853166987E+03  0.23286181250E+03  0.00000000000E+00 0.  1.
<mgrwt>
<rscale>  0 0.15382398E+04</rscale>
<asrwt>0</asrwt>
<pdfrwt beam="1">  1        1 0.24807536E+00 0.15382398E+04</pdfrwt>
<pdfrwt beam="2">  1       -1 0.56438796E-01 0.15382398E+04</pdfrwt>
<totfact> 0.16761934E+01</totfact>
</mgrwt>
</event>
<event>
12    1  0.4802930E-008  0.2988866E+04  0.7818608E-02  0.8246917E-01
         -3   -1    0    0    0  501 -0.00000000000E+00  0.00000000000E+00  0.20098820682E+04  0.20098820682E+04  0.00000000000E+00 0.  1.
          3   -1    0    0  501    0  0.00000000000E+00 -0.00000000000E+00 -0.11111747245E+04  0.11111747245E+04  0.00000000000E+00 0. -1.
         23    2    1    2    0    0  0.12183439627E+04  0.58524030674E+03  0.54308331780E+03  0.14596590230E+04  0.93790966617E+02 0.  0.
        254    2    1    2    0    0 -0.12183439627E+04 -0.58524030674E+03  0.35562402594E+03  0.16613977697E+04  0.89827939606E+03 0.  0.
         23    2    4    4    0    0 -0.79525670904E+03 -0.74129430100E+03  0.46903155560E+03  0.11873404606E+04  0.88522851505E+02 0.  0.
         23    2    4    4    0    0 -0.42308725363E+03  0.15605399426E+03 -0.11340752966E+03  0.47405730912E+03  0.92268040185E+02 0.  0.
         11    1    3    3    0    0  0.42785966161E+03  0.23501591227E+03  0.23539303382E+03  0.54194672195E+03  0.00000000000E+00 0.  1.
        -11    1    3    3    0    0  0.79048430105E+03  0.35022439447E+03  0.30769028398E+03  0.91771230108E+03  0.00000000000E+00 0. -1.
          3    1    6    6  502    0 -0.35196038430E+03  0.11056423257E+03 -0.12346740859E+03  0.38903054202E+03  0.00000000000E+00 0. -1.
          3    1    5    5  503    0 -0.65716989295E+03 -0.58618010210E+03  0.41039836580E+03  0.97154835132E+03  0.00000000000E+00 0. -1.
         -3    1    5    5    0  503 -0.13808681609E+03 -0.15511419890E+03  0.58633189800E+02  0.21579210927E+03  0.00000000000E+00 0.  1.
         -3    1    6    6    0  502 -0.71126869333E+02  0.45489761695E+02  0.10059878933E+02  0.85026767105E+02  0.00000000000E+00 0.  1.
<mgrwt>
<rscale>  0 0.29888661E+04</rscale>
<asrwt>0</asrwt>
<pdfrwt beam="1">  1        3 0.17094996E+00 0.29888661E+04</pdfrwt>
<pdfrwt beam="2">  1       -3 0.30921263E+00 0.29888661E+04</pdfrwt>
<totfact> 0.17159076E-02</totfact>
</mgrwt>
</event>
<event>
12    1  0.4802930E-008  0.2103780E+04  0.7818608E-02  0.8559580E-01
          2   -1    0    0  501    0  0.00000000000E+00  0.00000000000E+00  0.16890885812E+04  0.16890885812E+04  0.00000000000E+00 0.  1.
         -2   -1    0    0    0  501 -0.00000000000E+00 -0.00000000000E+00 -0.65507094703E+03  0.65507094703E+03  0.00000000000E+00 0. -1.
         23    2    1    2    0    0 -0.54399291291E+03  0.24043489247E+03  0.11100164085E+04  0.12626628452E+04  0.91890188209E+02 0.  0.
        254    2    1    2    0    0  0.54399291291E+03 -0.24043489247E+03 -0.75998774337E+02  0.10814966830E+04  0.90006779459E+03 0.  0.
         23    2    4    4    0    0  0.86629824942E+02  0.29400684284E+03 -0.17599024844E+03  0.36506953326E+03  0.91424539160E+02 0.  0.
         23    2    4    4    0    0  0.45736308797E+03 -0.53444173531E+03  0.99991474103E+02  0.71642714976E+03  0.91981538075E+02 0.  0.
         13    1    3    3    0    0 -0.26158184512E+03  0.71274525748E+02  0.45726056717E+03  0.53159415535E+03  0.00000000000E+00 0. -1.
        -13    1    3    3    0    0 -0.28241106778E+03  0.16916036672E+03  0.65275584131E+03  0.73106868982E+03  0.00000000000E+00 0.  1.
          4    1    6    6  502    0  0.22525784172E+02 -0.31339767818E+02 -0.15322213320E+02  0.41525440641E+02  0.00000000000E+00 0.  1.
          4    1    5    5  503    0  0.33567303668E+02  0.14133077870E+03 -0.13502426797E+03  0.19832474839E+03  0.00000000000E+00 0. -1.
         -4    1    5    5    0  503  0.53062521274E+02  0.15267606414E+03 -0.40965980474E+02  0.16674478487E+03  0.00000000000E+00 0.  1.
         -4    1    6    6    0  502  0.43483730379E+03 -0.50310196749E+03  0.11531368742E+03  0.67490170912E+03  0.00000000000E+00 0. -1.
<mgrwt>
<rscale>  0 0.21037803E+04</rscale>
<asrwt>0</asrwt>
<pdfrwt beam="1">  1        2 0.25985978E+00 0.21037803E+04</pdfrwt>
<pdfrwt beam="2">  1       -2 0.10078015E+00 0.21037803E+04</pdfrwt>
<totfact> 0.74297234E+00</totfact>
</mgrwt>
</event>
<event>
12    1  0.4802930E-008  0.1354399E+04  0.7818608E-02  0.8987505E-01
         -2   -1    0    0    0  501 -0.00000000000E+00  0.00000000000E+00  0.52680749151E+03  0.52680749151E+03  0.00000000000E+00 0.  1.
          2   -1    0    0  501    0  0.00000000000E+00 -0.00000000000E+00 -0.87052450515E+03  0.87052450515E+03  0.00000000000E+00 0. -1.
         23    2    1    2    0    0 -0.19805470700E+03  0.23175418178E+03  0.11658650176E+03  0.33827782466E+03  0.88903355013E+02 0.  0.
        254    2    1    2    0    0  0.19805470700E+03 -0.23175418178E+03 -0.46030351540E+03  0.10590541720E+04  0.90375922967E+03 0.  0.
         23    2    4    4    0    0  0.36667747109E+03 -0.37940279860E+03  0.43189788045E+01  0.53558409453E+03  0.91830372639E+02 0.  0.
         23    2    4    4    0    0 -0.16862276409E+03  0.14764861683E+03 -0.46462249420E+03  0.52347007747E+03  0.88955659019E+02 0.  0.
         13    1    3    3    0    0 -0.91036356779E+01 -0.33843706951E+01  0.18823100560E+02  0.21181106256E+02  0.00000000000E+00 0. -1.
        -13    1    3    3    0    0 -0.18895107132E+03  0.23513855247E+03  0.97763401198E+02  0.31709671841E+03  0.00000000000E+00 0.  1.
          2    1    5    5  502    0  0.29068509139E+03 -0.28230263819E+03  0.40125304704E+02  0.40718870559E+03  0.00000000000E+00 0. -1.
          4    1    6    6  503    0 -0.15510825078E+03  0.84794578437E+02 -0.33494472041E+03  0.37873032057E+03  0.00000000000E+00 0. -1.
         -2    1    5    5    0  502  0.75992379699E+02 -0.97100160416E+02 -0.35806325899E+02  0.12839538893E+03  0.00000000000E+00 0.  1.
         -4    1    6    6    0  503 -0.13514513316E+02  0.62854038388E+02 -0.12967777379E+03  0.14473975690E+03  0.00000000000E+00 0.  1.
<mgrwt>
<rscale>  0 0.13543985E+04</rscale>
<asrwt>0</asrwt>
<pdfrwt beam="1">  1        2 0.13392685E+00 0.13543985E+04</pdfrwt>
<pdfrwt beam="2">  1       -2 0.81047308E-01 0.13543985E+04</pdfrwt>
<totfact> 0.40273604E+01</totfact>
</mgrwt>
</event>
<event>
12    1  0.4802930E-008  0.1775050E+04  0.7818608E-02  0.8719681E-01
          1   -1    0    0  501    0  0.00000000000E+00  0.00000000000E+00  0.21464331720E+04  0.21464331720E+04  0.00000000000E+00 0. -1.
         -1   -1    0    0    0  501 -0.00000000000E+00 -0.00000000000E+00 -0.36698129617E+03  0.36698129617E+03  0.00000000000E+00 0.  1.
         23    2    1    2    0    0  0.59951936309E+03  0.25294259562E+03  0.74023388078E+03  0.98984119853E+03  0.91847572925E+02 0.  0.
        254    2    1    2    0    0 -0.59951936309E+03 -0.25294259562E+03  0.10392179951E+04  0.15235732697E+04  0.90437715769E+03 0.  0.
         23    2    4    4    0    0 -0.73915355785E+03 -0.26122511916E+03  0.44388911620E+03  0.90519698389E+03  0.88076598484E+02 0.  0.
         23    2    4    4    0    0  0.13963419476E+03  0.82825235493E+01  0.59532887888E+03  0.61837628578E+03  0.91686685189E+02 0.  0.
         11    1    3    3    0    0  0.54943025044E+03  0.21157535931E+03  0.63312970508E+03  0.86457559313E+03  0.00000000000E+00 0. -1.
        -11    1    3    3    0    0  0.50089112649E+02  0.41367236305E+02  0.10710417570E+03  0.12526560541E+03  0.00000000000E+00 0.  1.
          4    1    6    6  502    0  0.17443347196E+02 -0.48355591467E+01  0.27005876709E+03  0.27066472005E+03  0.00000000000E+00 0. -1.
          4    1    5    5  503    0 -0.40025259724E+03 -0.96610077387E+02  0.24573321428E+03  0.47950022028E+03  0.00000000000E+00 0. -1.
         -4    1    5    5    0  503 -0.33890096061E+03 -0.16461504178E+03  0.19815590192E+03  0.42569676361E+03  0.00000000000E+00 0.  1.
         -4    1    6    6    0  502  0.12219084756E+03  0.13118082696E+02  0.32527011179E+03  0.34771156574E+03  0.00000000000E+00 0.  1.
<mgrwt>
<rscale>  0 0.17750502E+04</rscale>
<asrwt>0</asrwt>
<pdfrwt beam="1">  1        1 0.33022048E+00 0.17750502E+04</pdfrwt>
<pdfrwt beam="2">  1       -1 0.56458662E-01 0.17750502E+04</pdfrwt>
<totfact> 0.71167160E+00</totfact>
</mgrwt>
</event>
<event>
12    1  0.4802930E-008  0.1820224E+04  0.7818608E-02  0.8695618E-01
          1   -1    0    0  501    0  0.00000000000E+00  0.00000000000E+00  0.30294933882E+04  0.30294933882E+04  0.00000000000E+00 0. -1.
         -1   -1    0    0    0  501 -0.00000000000E+00 -0.00000000000E+00 -0.27341330445E+03  0.27341330445E+03  0.00000000000E+00 0.  1.
         23    2    1    2    0    0  0.45897815467E+03 -0.36315210947E+03  0.16709289383E+04  0.17731020452E+04  0.96679599016E+02 0.  0.
        254    2    1    2    0    0 -0.45897815467E+03  0.36315210947E+03  0.10851511454E+04  0.15298046474E+04  0.90565382441E+03 0.  0.
         23    2    4    4    0    0 -0.13748766678E+03  0.16276104025E+03 -0.12160727316E+03  0.26122899514E+03  0.89767724005E+02 0.  0.
         23    2    4    4    0    0 -0.32149048789E+03  0.20039106922E+03  0.12067584186E+04  0.12685756523E+04  0.97496616515E+02 0.  0.
         11    1    3    3    0    0  0.72953945852E+02 -0.82541204429E+02  0.22636697417E+03  0.25174855637E+03  0.00000000000E+00 0.  1.
        -11    1    3    3    0    0  0.38602420882E+03 -0.28061090505E+03  0.14445619641E+04  0.15213534889E+04  0.00000000000E+00 0. -1.
          2    1    5    5  502    0 -0.10051462693E+03  0.15560691574E+03 -0.12490929750E+03  0.22342568128E+03  0.00000000000E+00 0. -1.
          3    1    6    6  503    0 -0.13123619803E+03  0.12810806809E+03  0.47949418255E+03  0.51337051715E+03  0.00000000000E+00 0. -1.
         -2    1    5    5    0  502 -0.36973039855E+02  0.71541245098E+01  0.33020243441E+01  0.37803313854E+02  0.00000000000E+00 0.  1.
         -3    1    6    6    0  503 -0.19025428986E+03  0.72283001134E+02  0.72726423604E+03  0.75520513510E+03  0.00000000000E+00 0.  1.
<mgrwt>
<rscale>  0 0.18202239E+04</rscale>
<asrwt>0</asrwt>
<pdfrwt beam="1">  1        1 0.46607588E+00 0.18202239E+04</pdfrwt>
<pdfrwt beam="2">  1       -1 0.42063587E-01 0.18202239E+04</pdfrwt>
<totfact> 0.29840376E+00</totfact>
</mgrwt>
</event>
<event>
12    1  0.4802930E-008  0.1941650E+04  0.7818608E-02  0.8634398E-01
         -1   -1    0    0    0  501 -0.00000000000E+00  0.00000000000E+00  0.21016777858E+03  0.21016777858E+03  0.00000000000E+00 0.  1.
          1   -1    0    0  501    0  0.00000000000E+00 -0.00000000000E+00 -0.44845177215E+04  0.44845177215E+04  0.00000000000E+00 0. -1.
         23    2    1    2    0    0  0.28799744823E+03  0.48570632017E+03 -0.45203106390E+03  0.72945555092E+03  0.94446590189E+02 0.  0.
        254    2    1    2    0    0 -0.28799744823E+03 -0.48570632017E+03 -0.38223188791E+04  0.39652299492E+04  0.89110817370E+03 0.  0.
         23    2    4    4    0    0  0.30432115098E+03 -0.27072197149E+03 -0.15948152715E+04  0.16484532091E+04  0.89780196427E+02 0.  0.
         23    2    4    4    0    0 -0.59231859920E+03 -0.21498434868E+03 -0.22275036076E+04  0.23167767401E+04  0.92857679110E+02 0.  0.
         13    1    3    3    0    0  0.28133656581E+03  0.42071651046E+03 -0.41392154403E+03  0.65382236888E+03  0.00000000000E+00 0.  1.
        -13    1    3    3    0    0  0.66608824166E+01  0.64989809710E+02 -0.38109519872E+02  0.75633182041E+02  0.00000000000E+00 0. -1.
          2    1    5    5  502    0  0.20940834735E+02 -0.60929712605E+02 -0.25777692530E+03  0.26570640123E+03  0.00000000000E+00 0. -1.
          3    1    6    6  503    0 -0.11927490023E+03 -0.63801207587E+02 -0.36701697389E+03  0.39115029725E+03  0.00000000000E+00 0. -1.
         -2    1    5    5    0  502  0.28338031624E+03 -0.20979225888E+03 -0.13370383462E+04  0.13827468079E+04  0.00000000000E+00 0.  1.
         -3    1    6    6    0  503 -0.47304369898E+03 -0.15118314109E+03 -0.18604866337E+04  0.19256264428E+04  0.00000000000E+00 0.  1.
<mgrwt>
<rscale>  0 0.19416499E+04</rscale>
<asrwt>0</asrwt>
<pdfrwt beam="1">  1        1 0.68992581E+00 0.19416499E+04</pdfrwt>
<pdfrwt beam="2">  1       -1 0.32333504E-01 0.19416499E+04</pdfrwt>
<totfact> 0.28261840E-01</totfact>
</mgrwt>
</event>
<event>
12    1  0.4802930E-008  0.1771211E+04  0.7818608E-02  0.8721761E-01
         -1   -1    0    0    0  501 -0.00000000000E+00  0.00000000000E+00  0.31164896476E+03  0.31164896476E+03  0.00000000000E+00 0.  1.
          1   -1    0    0  501    0  0.00000000000E+00 -0.00000000000E+00 -0.25166035157E+04  0.25166035157E+04  0.00000000000E+00 0. -1.
         23    2    1    2    0    0  0.18215718929E+03 -0.58010302485E+03 -0.44194257321E+03  0.75717248279E+03  0.91083311447E+02 0.  0.
        254    2    1    2    0    0 -0.18215718929E+03  0.58010302485E+03 -0.17630119777E+04  0.20710799977E+04  0.90081094691E+03 0.  0.
         23    2    4    4    0    0  0.19726680479E+03 -0.15326049390E+02 -0.60318545581E+02  0.22550587402E+03  0.89808085453E+02 0.  0.
         23    2    4    4    0    0 -0.37942399408E+03  0.59542907424E+03 -0.17026934322E+04  0.18455741237E+04  0.92090022671E+02 0.  0.
         13    1    3    3    0    0  0.11696589268E+03 -0.41583925123E+03 -0.36023984967E+03  0.56247315687E+03  0.00000000000E+00 0.  1.
        -13    1    3    3    0    0  0.65191296603E+02 -0.16426377362E+03 -0.81702723546E+02  0.19469932592E+03  0.00000000000E+00 0. -1.
          3    1    5    5  502    0  0.93902056847E+02 -0.50012955290E+02 -0.15039314273E+02  0.10744800115E+03  0.00000000000E+00 0. -1.
          3    1    6    6  503    0 -0.22529587936E+03  0.41527887325E+03 -0.12044578463E+04  0.12938058121E+04  0.00000000000E+00 0. -1.
         -3    1    5    5    0  502  0.10336474794E+03  0.34686905900E+02 -0.45279231307E+02  0.11805787287E+03  0.00000000000E+00 0.  1.
         -3    1    6    6    0  503 -0.15412811471E+03  0.18015020099E+03 -0.49823558586E+03  0.55176831160E+03  0.00000000000E+00 0.  1.
<mgrwt>
<rscale>  0 0.17712108E+04</rscale>
<asrwt>0</asrwt>
<pdfrwt beam="1">  1        1 0.38716977E+00 0.17712108E+04</pdfrwt>
<pdfrwt beam="2">  1       -1 0.47945995E-01 0.17712108E+04</pdfrwt>
<totfact> 0.54311567E+00</totfact>
</mgrwt>
</event>
<event>
12    1  0.4802930E-008  0.1419712E+04  0.7818608E-02  0.8939672E-01
         -2   -1    0    0    0  501 -0.00000000000E+00  0.00000000000E+00  0.26287651174E+03  0.26287651174E+03  0.00000000000E+00 0.  1.
          2   -1    0    0  501    0  0.00000000000E+00 -0.00000000000E+00 -0.19168539668E+04  0.19168539668E+04  0.00000000000E+00 0. -1.
         23    2    1    2    0    0  0.19329188652E+03 -0.28087383139E+03 -0.13016562501E+03  0.37654111275E+03  0.92672849875E+02 0.  0.
        254    2    1    2    0    0 -0.19329188652E+03  0.28087383139E+03 -0.15238118300E+04  0.18031893658E+04  0.90179683576E+03 0.  0.
         23    2    4    4    0    0 -0.37629237500E+03  0.45120655643E+03 -0.13749955496E+04  0.14976000312E+04  0.83724452485E+02 0.  0.
         23    2    4    4    0    0  0.18300048848E+03 -0.17033272505E+03 -0.14881628041E+03  0.30558933458E+03  0.93467320946E+02 0.  0.
         11    1    3    3    0    0  0.16958206151E+03 -0.17541984056E+03 -0.10464748890E+03  0.26548313126E+03  0.00000000000E+00 0.  1.
        -11    1    3    3    0    0  0.23709825011E+02 -0.10545399082E+03 -0.25518136109E+02  0.11105798149E+03  0.00000000000E+00 0. -1.
          3    1    6    6  502    0  0.94591814591E+02 -0.11493355425E+03 -0.38501205114E+02  0.15375199536E+03  0.00000000000E+00 0. -1.
          3    1    5    5  503    0 -0.18998550108E+03  0.23040639619E+03 -0.80420298749E+03  0.85786015359E+03  0.00000000000E+00 0. -1.
         -3    1    5    5    0  503 -0.18630687392E+03  0.22080016024E+03 -0.57079256214E+03  0.63973987763E+03  0.00000000000E+00 0.  1.
         -3    1    6    6    0  502  0.88408673890E+02 -0.55399170797E+02 -0.11031507530E+03  0.15183733922E+03  0.00000000000E+00 0.  1.
<mgrwt>
<rscale>  0 0.14197125E+04</rscale>
<asrwt>0</asrwt>
<pdfrwt beam="1">  1        2 0.29490061E+00 0.14197125E+04</pdfrwt>
<pdfrwt beam="2">  1       -2 0.40442541E-01 0.14197125E+04</pdfrwt>
<totfact> 0.41818047E+01</totfact>
</mgrwt>
</event>
<event>
12    1  0.4802930E-008  0.1400526E+04  0.7818608E-02  0.8953438E-01
         -2   -1    0    0    0  501 -0.00000000000E+00  0.00000000000E+00  0.38712535525E+03  0.38712535525E+03  0.00000000000E+00 0.  1.
          2   -1    0    0  501    0  0.00000000000E+00 -0.00000000000E+00 -0.12666913865E+04  0.12666913865E+04  0.00000000000E+00 0. -1.
         23    2    1    2    0    0 -0.16632916696E+03  0.33986405812E+03 -0.44238371522E+03  0.58861791359E+03  0.87147730474E+02 0.  0.
        254    2    1    2    0    0  0.16632916696E+03 -0.33986405812E+03 -0.43718231606E+03  0.10651988282E+04  0.89462125858E+03 0.  0.
         23    2    4    4    0    0  0.15370844127E+03 -0.51552328867E+03  0.41288714446E+02  0.54728284164E+03  0.91778018809E+02 0.  0.
         23    2    4    4    0    0  0.12620725689E+02  0.17565923055E+03 -0.47847103050E+03  0.51791598654E+03  0.91032928593E+02 0.  0.
         11    1    3    3    0    0 -0.12998592888E+03  0.31960914946E+03 -0.37638945660E+03  0.51060295060E+03  0.00000000000E+00 0. -1.
        -11    1    3    3    0    0 -0.36343238086E+02  0.20254908657E+02 -0.65994258625E+02  0.78014962993E+02  0.00000000000E+00 0.  1.
          2    1    5    5  502    0 -0.23142368294E+01 -0.12564998398E+03  0.47188128979E+01  0.12575985592E+03  0.00000000000E+00 0. -1.
          1    1    6    6  503    0 -0.83910675151E+01  0.23658092916E+01 -0.10829562839E+03  0.10864598564E+03  0.00000000000E+00 0. -1.
         -2    1    5    5    0  502  0.15602267810E+03 -0.38987330469E+03  0.36569901548E+02  0.42152298572E+03  0.00000000000E+00 0.  1.
         -1    1    6    6    0  503  0.21011793205E+02  0.17329342126E+03 -0.37017540211E+03  0.40927000090E+03  0.00000000000E+00 0.  1.
<mgrwt>
<rscale>  0 0.14005261E+04</rscale>
<asrwt>0</asrwt>
<pdfrwt beam="1">  1        2 0.19487560E+00 0.14005261E+04</pdfrwt>
<pdfrwt beam="2">  1       -2 0.59557748E-01 0.14005261E+04</pdfrwt>
<totfact> 0.44271969E+01</totfact>
</mgrwt>
</event>
<event>
12    1  0.4802930E-008  0.2319083E+04  0.7818608E-02  0.8470435E-01
          1   -1    0    0  501    0  0.00000000000E+00  0.00000000000E+00  0.21181035142E+04  0.21181035142E+04  0.00000000000E+00 0. -1.
         -1   -1    0    0    0  501 -0.00000000000E+00 -0.00000000000E+00 -0.63478320716E+03  0.63478320716E+03  0.00000000000E+00 0.  1.
         23    2    1    2    0    0 -0.49140853868E+03 -0.26822083788E+03 -0.32548732956E+03  0.65397456926E+03  0.91191917201E+02 0.  0.
        254    2    1    2    0    0  0.49140853868E+03  0.26822083788E+03  0.18088076366E+04  0.20989121521E+04  0.90566129774E+03 0.  0.
         23    2    4    4    0    0  0.26269874975E+03  0.55314794405E+03  0.73806521233E+03  0.96368305415E+03  0.94665147076E+02 0.  0.
         23    2    4    4    0    0  0.22870978894E+03 -0.28492710618E+03  0.10707424243E+04  0.11352290980E+04  0.93616997910E+02 0.  0.
         13    1    3    3    0    0 -0.11077369358E+03 -0.86237477120E+02 -0.45305940358E+02  0.14751387013E+03  0.00000000000E+00 0. -1.
        -13    1    3    3    0    0 -0.38063484511E+03 -0.18198336076E+03 -0.28018138921E+03  0.50646069913E+03  0.00000000000E+00 0.  1.
          4    1    5    5  502    0  0.26834831455E+03  0.51922923828E+03  0.68516433737E+03  0.90058869026E+03  0.00000000000E+00 0. -1.
          3    1    6    6  503    0  0.17050280951E+03 -0.21924145344E+03  0.67567321935E+03  0.73052879635E+03  0.00000000000E+00 0. -1.
         -4    1    5    5    0  502 -0.56495648050E+01  0.33918705770E+02  0.52900874953E+02  0.63094363888E+02  0.00000000000E+00 0.  1.
         -3    1    6    6    0  503  0.58206979426E+02 -0.65685652739E+02  0.39506920495E+03  0.40470030161E+03  0.00000000000E+00 0.  1.
<mgrwt>
<rscale>  0 0.23190830E+04</rscale>
<asrwt>0</asrwt>
<pdfrwt beam="1">  1        1 0.32586208E+00 0.23190830E+04</pdfrwt>
<pdfrwt beam="2">  1       -1 0.97658956E-01 0.23190830E+04</pdfrwt>
<totfact> 0.22483905E+00</totfact>
</mgrwt>
</event>
<event>
12    1  0.4802930E-008  0.1564763E+04  0.7818608E-02  0.8842493E-01
          4   -1    0    0  501    0  0.00000000000E+00  0.00000000000E+00  0.13594065664E+04  0.13594065664E+04  0.00000000000E+00 0. -1.
         -4   -1    0    0    0  501 -0.00000000000E+00 -0.00000000000E+00 -0.45028523339E+03  0.45028523339E+03  0.00000000000E+00 0.  1.
         23    2    1    2    0    0 -0.18341144686E+03  0.38392508023E+02 -0.25488121616E+03  0.32909705927E+03  0.90701138678E+02 0.  0.
        254    2    1    2    0    0  0.18341144686E+03 -0.38392508023E+02  0.11640025492E+04  0.14805947406E+04  0.89562553989E+03 0.  0.
         23    2    4    4    0    0 -0.27883102964E+03  0.13207127792E+03  0.79553215723E+03  0.85856687141E+03  0.95268536035E+02 0.  0.
         23    2    4    4    0    0  0.46224247650E+03 -0.17046378594E+03  0.36847039199E+03  0.62202786915E+03  0.91772712909E+02 0.  0.
         13    1    3    3    0    0 -0.10263519222E+03 -0.10828504643E+02 -0.81166104581E+02  0.13129804160E+03  0.00000000000E+00 0. -1.
        -13    1    3    3    0    0 -0.80776254645E+02  0.49221012667E+02 -0.17371511158E+03  0.19779901768E+03  0.00000000000E+00 0.  1.
          3    1    5    5  502    0 -0.13492106013E+03  0.94873121700E+02  0.51954867010E+03  0.54510129544E+03  0.00000000000E+00 0. -1.
          3    1    6    6  503    0  0.31252525425E+03 -0.14668494541E+03  0.21724279125E+03  0.40790064734E+03  0.00000000000E+00 0. -1.
         -3    1    5    5    0  502 -0.14390996952E+03  0.37198156216E+02  0.27598348713E+03  0.31346557597E+03  0.00000000000E+00 0.  1.
         -3    1    6    6    0  503  0.14971722226E+03 -0.23778840533E+02  0.15122760074E+03  0.21412722182E+03  0.00000000000E+00 0.  1.
<mgrwt>
<rscale>  0 0.15647629E+04</rscale>
<asrwt>0</asrwt>
<pdfrwt beam="1">  1        4 0.20913947E+00 0.15647629E+04</pdfrwt>
<pdfrwt beam="2">  1       -4 0.69274652E-01 0.15647629E+04</pdfrwt>
<totfact> 0.42251415E-01</totfact>
</mgrwt>
</event>
<event>
12    1  0.4802930E-008  0.2668681E+04  0.7818608E-02  0.8345239E-01
         -1   -1    0    0    0  501 -0.00000000000E+00  0.00000000000E+00  0.97680213546E+03  0.97680213546E+03  0.00000000000E+00 0.  1.
          1   -1    0    0  501    0  0.00000000000E+00 -0.00000000000E+00 -0.18227478941E+04  0.18227478941E+04  0.00000000000E+00 0. -1.
         23    2    1    2    0    0 -0.11550090099E+04 -0.92765103052E+02 -0.13556336368E+03  0.11699760990E+04  0.88405143554E+02 0.  0.
        254    2    1    2    0    0  0.11550090099E+04  0.92765103052E+02 -0.71038239493E+03  0.16295739305E+04  0.89900882691E+03 0.  0.
         23    2    4    4    0    0  0.93464234208E+03  0.17692809103E+03 -0.90321689733E+02  0.95989170081E+03  0.91510724188E+02 0.  0.
         23    2    4    4    0    0  0.22036666778E+03 -0.84162987975E+02 -0.62006070520E+03  0.66968222973E+03  0.91400951164E+02 0.  0.
         13    1    3    3    0    0 -0.76528228517E+03 -0.94970603949E+02 -0.64793767000E+02  0.77386990112E+03  0.00000000000E+00 0. -1.
        -13    1    3    3    0    0 -0.38972672469E+03  0.22055008966E+01 -0.70769596680E+02  0.39610619787E+03  0.00000000000E+00 0.  1.
          1    1    5    5  502    0  0.26354240717E+03  0.81975323216E+02  0.88333892667E+00  0.27599879399E+03  0.00000000000E+00 0. -1.
          3    1    6    6  503    0  0.13939303303E+03 -0.29964603874E+02 -0.25839488819E+03  0.29512067597E+03  0.00000000000E+00 0. -1.
         -1    1    5    5    0  502  0.67109993491E+03  0.94952767811E+02 -0.91205028659E+02  0.68389290682E+03  0.00000000000E+00 0.  1.
         -3    1    6    6    0  503  0.80973634753E+02 -0.54198384101E+02 -0.36166581700E+03  0.37456155376E+03  0.00000000000E+00 0.  1.
<mgrwt>
<rscale>  0 0.26686806E+04</rscale>
<asrwt>0</asrwt>
<pdfrwt beam="1">  1        1 0.28042275E+00 0.26686806E+04</pdfrwt>
<pdfrwt beam="2">  1       -1 0.15027725E+00 0.26686806E+04</pdfrwt>
<totfact> 0.11949163E+00</totfact>
</mgrwt>
</event>
<event>
12    1  0.4802930E-008  0.2249289E+04  0.7818608E-02  0.8498189E-01
          2   -1    0    0  501    0  0.00000000000E+00  0.00000000000E+00  0.10999601718E+04  0.10999601718E+04  0.00000000000E+00 0. -1.
         -2   -1    0    0    0  501 -0.00000000000E+00 -0.00000000000E+00 -0.11498826963E+04  0.11498826963E+04  0.00000000000E+00 0.  1.
         23    2    1    2    0    0 -0.69150685122E+02  0.23763176484E+03  0.89161401510E+03  0.92969050888E+03  0.89990096496E+02 0.  0.
        254    2    1    2    0    0  0.69150685122E+02 -0.23763176484E+03 -0.94153653955E+03  0.13201523592E+04  0.89166166416E+03 0.  0.
         23    2    4    4    0    0  0.36958210088E+03 -0.37874122729E+03 -0.36662129448E+03  0.64997464869E+03  0.89554585782E+02 0.  0.
         23    2    4    4    0    0 -0.30043141575E+03  0.14110946245E+03 -0.57491524506E+03  0.67017771052E+03  0.91867887287E+02 0.  0.
         11    1    3    3    0    0 -0.86015643674E+02  0.21056894349E+03  0.71785379593E+03  0.75302858063E+03  0.00000000000E+00 0. -1.
        -11    1    3    3    0    0  0.16864958552E+02  0.27062821351E+02  0.17376021917E+03  0.17666192825E+03  0.00000000000E+00 0.  1.
          2    1    5    5  502    0  0.13085173022E+03 -0.19771134807E+03 -0.15986026510E+03  0.28594974527E+03  0.00000000000E+00 0. -1.
          1    1    6    6  503    0 -0.46740964728E+02  0.10653560493E+02 -0.34405677853E+02  0.59008192681E+02  0.00000000000E+00 0. -1.
         -2    1    5    5    0  502  0.23873037066E+03 -0.18102987921E+03 -0.20676102938E+03  0.36402490342E+03  0.00000000000E+00 0.  1.
         -1    1    6    6    0  503 -0.25369045102E+03  0.13045590196E+03 -0.54050956721E+03  0.61116951784E+03  0.00000000000E+00 0.  1.
<mgrwt>
<rscale>  0 0.22492889E+04</rscale>
<asrwt>0</asrwt>
<pdfrwt beam="1">  1        2 0.16922464E+00 0.22492889E+04</pdfrwt>
<pdfrwt beam="2">  1       -2 0.17690503E+00 0.22492889E+04</pdfrwt>
<totfact> 0.37788395E+00</totfact>
</mgrwt>
</event>
<event>
12    1  0.4802930E-008  0.1407563E+04  0.7818608E-02  0.8948362E-01
         -1   -1    0    0    0  501 -0.00000000000E+00  0.00000000000E+00  0.56133570329E+03  0.56133570329E+03  0.00000000000E+00 0.  1.
          1   -1    0    0  501    0  0.00000000000E+00 -0.00000000000E+00 -0.88237416112E+03  0.88237416112E+03  0.00000000000E+00 0. -1.
         23    2    1    2    0    0 -0.21062815165E+03 -0.71694207264E+02 -0.42712110001E+03  0.49114183742E+03  0.96351402521E+02 0.  0.
        254    2    1    2    0    0  0.21062815165E+03  0.71694207264E+02  0.10608264218E+03  0.95256802700E+03  0.92012392723E+03 0.  0.
         23    2    4    4    0    0 -0.27923257425E+02 -0.37350417768E+03 -0.10162012063E+03  0.39899377481E+03  0.92651521115E+02 0.  0.
         23    2    4    4    0    0  0.23855140908E+03  0.44519838495E+03  0.20770276282E+03  0.55357425219E+03  0.90529764568E+02 0.  0.
         11    1    3    3    0    0 -0.82218594950E+02 -0.28797353489E+02 -0.78924444112E+02  0.11755106466E+03  0.00000000000E+00 0.  1.
        -11    1    3    3    0    0 -0.12840955670E+03 -0.42896853775E+02 -0.34819665590E+03  0.37359077276E+03  0.00000000000E+00 0. -1.
          2    1    5    5  502    0  0.32271325198E+02 -0.90644050858E+02 -0.33526215686E+02  0.10189106695E+03  0.00000000000E+00 0. -1.
          4    1    6    6  503    0  0.46778571029E+02  0.12287232840E+03  0.94117677008E+02  0.16169100445E+03  0.00000000000E+00 0. -1.
         -2    1    5    5    0  502 -0.60194582623E+02 -0.28286012683E+03 -0.68093904946E+02  0.29710270786E+03  0.00000000000E+00 0.  1.
         -4    1    6    6    0  503  0.19177283805E+03  0.32232605654E+03  0.11358508581E+03  0.39188324774E+03  0.00000000000E+00 0.  1.
<mgrwt>
<rscale>  0 0.14075626E+04</rscale>
<asrwt>0</asrwt>
<pdfrwt beam="1">  1        1 0.13574987E+00 0.14075626E+04</pdfrwt>
<pdfrwt beam="2">  1       -1 0.86359339E-01 0.14075626E+04</pdfrwt>
<totfact> 0.24260212E+01</totfact>
</mgrwt>
</event>
<event>
12    1  0.4802930E-008  0.1135081E+04  0.7818608E-02  0.9171658E-01
          2   -1    0    0  501    0  0.00000000000E+00  0.00000000000E+00  0.90070387269E+03  0.90070387269E+03  0.00000000000E+00 0. -1.
         -2   -1    0    0    0  501 -0.00000000000E+00 -0.00000000000E+00 -0.35761157498E+03  0.35761157498E+03  0.00000000000E+00 0.  1.
         23    2    1    2    0    0  0.73010337076E+02  0.44618459559E+02 -0.90090751671E+02  0.15342725541E+03  0.90012570853E+02 0.  0.
        254    2    1    2    0    0 -0.73010337076E+02 -0.44618459559E+02  0.63318304938E+03  0.11048881923E+04  0.90140769197E+03 0.  0.
         23    2    4    4    0    0  0.39542854441E+03 -0.53622814118E+02  0.18209625368E+03  0.44810523277E+03  0.91652136358E+02 0.  0.
         23    2    4    4    0    0 -0.46843888149E+03  0.90043545582E+01  0.45108679570E+03  0.65678295950E+03  0.91479476088E+02 0.  0.
         11    1    3    3    0    0  0.65060522723E+02  0.48227190497E+02 -0.10712108944E+03  0.13428946840E+03  0.00000000000E+00 0.  1.
        -11    1    3    3    0    0  0.79498143531E+01 -0.36087309378E+01  0.17030337765E+02  0.19137787010E+02  0.00000000000E+00 0. -1.
          3    1    6    6  502    0 -0.14424572691E+03 -0.28456922575E+02  0.10223022135E+03  0.17907441005E+03  0.00000000000E+00 0. -1.
          3    1    5    5  503    0  0.78321091418E+02  0.16682847258E+02  0.10521932159E+02  0.80766464637E+02  0.00000000000E+00 0. -1.
         -3    1    5    5    0  503  0.31710745299E+03 -0.70305661376E+02  0.17157432152E+03  0.36733876813E+03  0.00000000000E+00 0.  1.
         -3    1    6    6    0  502 -0.32419315457E+03  0.37461277133E+02  0.34885657435E+03  0.47770854945E+03  0.00000000000E+00 0.  1.
<mgrwt>
<rscale>  0 0.11350808E+04</rscale>
<asrwt>0</asrwt>
<pdfrwt beam="1">  1        2 0.13856983E+00 0.11350808E+04</pdfrwt>
<pdfrwt beam="2">  1       -2 0.55017166E-01 0.11350808E+04</pdfrwt>
<totfact> 0.90169374E+01</totfact>
</mgrwt>
</event>
<event>
12    1  0.4802930E-008  0.1390177E+04  0.7818608E-02  0.8960960E-01
         -2   -1    0    0    0  501 -0.00000000000E+00  0.00000000000E+00  0.23371275712E+03  0.23371275712E+03  0.00000000000E+00 0. -1.
          2   -1    0    0  501    0  0.00000000000E+00 -0.00000000000E+00 -0.20672735165E+04  0.20672735165E+04  0.00000000000E+00 0.  1.
         23    2    1    2    0    0  0.49626750586E+02 -0.20662000704E+03  0.77825987223E+01  0.23036937893E+03  0.88627536461E+02 0.  0.
        254    2    1    2    0    0 -0.49626750586E+02  0.20662000704E+03 -0.18413433582E+04  0.20706168947E+04  0.92290536920E+03 0.  0.
         23    2    4    4    0    0  0.93294387630E+02  0.49628666022E+02 -0.18341697596E+04  0.18395037550E+04  0.91806918633E+02 0.  0.
         23    2    4    4    0    0 -0.14292113822E+03  0.15699134102E+03 -0.71735985752E+01  0.23111313978E+03  0.91044439478E+02 0.  0.
         11    1    3    3    0    0  0.15906408650E+02 -0.18543557255E+03  0.23424640055E+02  0.18758485857E+03  0.00000000000E+00 0. -1.
        -11    1    3    3    0    0  0.33720341937E+02 -0.21184434497E+02 -0.15642041332E+02  0.42784520359E+02  0.00000000000E+00 0.  1.
          4    1    5    5  502    0  0.28710706112E+02  0.17324797606E+02 -0.14645638167E+03  0.15024621456E+03  0.00000000000E+00 0. -1.
          1    1    6    6  503    0 -0.35319402868E+02 -0.55119017599E+01  0.35309087421E+01  0.35920865754E+02  0.00000000000E+00 0. -1.
         -4    1    5    5    0  502  0.64583681518E+02  0.32303868417E+02 -0.16877133779E+04  0.16892575404E+04  0.00000000000E+00 0.  1.
         -1    1    6    6    0  503 -0.10760173535E+03  0.16250324278E+03 -0.10704507317E+02  0.19519227403E+03  0.00000000000E+00 0.  1.
<mgrwt>
<rscale>  0 0.13901772E+04</rscale>
<asrwt>0</asrwt>
<pdfrwt beam="1">  1        2 0.31804208E+00 0.13901772E+04</pdfrwt>
<pdfrwt beam="2">  1       -2 0.35955809E-01 0.13901772E+04</pdfrwt>
<totfact> 0.43462913E+01</totfact>
</mgrwt>
</event>
<event>
12    1  0.4802930E-008  0.3892178E+04  0.7818608E-02  0.8026658E-01
         -2   -1    0    0    0  501 -0.00000000000E+00  0.00000000000E+00  0.27532709373E+04  0.27532709373E+04  0.00000000000E+00 0.  1.
          2   -1    0    0  501    0  0.00000000000E+00 -0.00000000000E+00 -0.13755500222E+04  0.13755500222E+04  0.00000000000E+00 0. -1.
         23    2    1    2    0    0 -0.41393093721E+03 -0.96351461694E+03  0.22608532595E+04  0.24939485286E+04  0.92857766881E+02 0.  0.
        254    2    1    2    0    0  0.41393093721E+03  0.96351461694E+03 -0.88313234436E+03  0.16348724309E+04  0.89060984152E+03 0.  0.
         23    2    4    4    0    0 -0.12149177104E+03 -0.94736347682E+02 -0.17205809402E+03  0.24900824017E+03  0.93090761895E+02 0.  0.
         23    2    4    4    0    0  0.53542270825E+03  0.10582509646E+04 -0.71107425034E+03  0.13858641907E+04  0.91762655839E+02 0.  0.
         11    1    3    3    0    0 -0.83322138315E+01 -0.72699955332E+02  0.13414143685E+03  0.15280259937E+03  0.00000000000E+00 0. -1.
        -11    1    3    3    0    0 -0.40559872337E+03 -0.89081466161E+03  0.21267118226E+04  0.23411459293E+04  0.00000000000E+00 0.  1.
          4    1    5    5  502    0 -0.82823925159E+02 -0.10853563494E+02 -0.55497877202E+02  0.10028767019E+03  0.00000000000E+00 0. -1.
          1    1    6    6  503    0  0.31396999036E+03  0.54419445638E+03 -0.41113620273E+03  0.75083802407E+03  0.00000000000E+00 0. -1.
         -4    1    5    5    0  502 -0.38667845885E+02 -0.83882784188E+02 -0.11656021682E+03  0.14872056997E+03  0.00000000000E+00 0.  1.
         -1    1    6    6    0  503  0.22145271789E+03  0.51405650825E+03 -0.29993804761E+03  0.63502616665E+03  0.00000000000E+00 0.  1.
<mgrwt>
<rscale>  0 0.38921777E+04</rscale>
<asrwt>0</asrwt>
<pdfrwt beam="1">  1        2 0.21162308E+00 0.38921777E+04</pdfrwt>
<pdfrwt beam="2">  1       -2 0.42358014E+00 0.38921777E+04</pdfrwt>
<totfact> 0.61721866E-02</totfact>
</mgrwt>
</event>
<event>
12    1  0.4802930E-008  0.1399915E+04  0.7818608E-02  0.8953880E-01
          2   -1    0    0  501    0  0.00000000000E+00  0.00000000000E+00  0.50316956057E+03  0.50316956057E+03  0.00000000000E+00 0. -1.
         -2   -1    0    0    0  501 -0.00000000000E+00 -0.00000000000E+00 -0.97370912402E+03  0.97370912402E+03  0.00000000000E+00 0.  1.
         23    2    1    2    0    0 -0.33386611590E+02 -0.38585461376E+02 -0.56008236173E+03  0.56955493056E+03  0.89983683736E+02 0.  0.
        254    2    1    2    0    0  0.33386611590E+02  0.38585461376E+02  0.89542798275E+02  0.90732375404E+03  0.90145159507E+03 0.  0.
         23    2    4    4    0    0 -0.27659558263E+01 -0.24841311664E+03  0.39609022395E+03  0.47576411131E+03  0.88018731369E+02 0.  0.
         23    2    4    4    0    0  0.36152567416E+02  0.28699857802E+03 -0.30654742568E+03  0.43155964272E+03  0.92721136335E+02 0.  0.
         13    1    3    3    0    0 -0.52731810024E+02  0.39805384931E+01 -0.21961327219E+03  0.22589041103E+03  0.00000000000E+00 0.  1.
        -13    1    3    3    0    0  0.19345198435E+02 -0.42565999869E+02 -0.34046908954E+03  0.34366451953E+03  0.00000000000E+00 0. -1.
          2    1    6    6  502    0  0.20655433407E+02  0.94580554055E+02 -0.16817194832E+03  0.19404621185E+03  0.00000000000E+00 0. -1.
          2    1    5    5  503    0 -0.32575500791E+02 -0.14568237675E+03  0.28387969585E+03  0.32073696367E+03  0.00000000000E+00 0. -1.
         -2    1    5    5    0  503  0.29809544965E+02 -0.10273073989E+03  0.11221052810E+03  0.15502714764E+03  0.00000000000E+00 0.  1.
         -2    1    6    6    0  502  0.15497134009E+02  0.19241802396E+03 -0.13837547736E+03  0.23751343087E+03  0.00000000000E+00 0.  1.
<mgrwt>
<rscale>  0 0.13999154E+04</rscale>
<asrwt>0</asrwt>
<pdfrwt beam="1">  1        2 0.77410702E-01 0.13999154E+04</pdfrwt>
<pdfrwt beam="2">  1       -2 0.14980140E+00 0.13999154E+04</pdfrwt>
<totfact> 0.17873193E+01</totfact>
</mgrwt>
</event>
<event>
12    1  0.4802930E-008  0.2597325E+04  0.7818608E-02  0.8369110E-01
         -2   -1    0    0    0  501 -0.00000000000E+00  0.00000000000E+00  0.12418912507E+04  0.12418912507E+04  0.00000000000E+00 0.  1.
          2   -1    0    0  501    0  0.00000000000E+00 -0.00000000000E+00 -0.13580294498E+04  0.13580294498E+04  0.00000000000E+00 0. -1.
         23    2    1    2    0    0  0.10951168668E+04 -0.17380888782E+03 -0.15068422196E+03  0.11228061373E+04  0.92181374457E+02 0.  0.
        254    2    1    2    0    0 -0.10951168668E+04  0.17380888782E+03  0.34546022769E+02  0.14771145632E+04  0.97528638024E+03 0.  0.
         23    2    4    4    0    0 -0.11335219913E+04  0.20017442919E+03  0.29954456670E+03  0.11927216157E+04  0.88971895840E+02 0.  0.
         23    2    4    4    0    0  0.38405124452E+02 -0.26365541376E+02 -0.26499854393E+03  0.28439294747E+03  0.92114195031E+02 0.  0.
         13    1    3    3    0    0  0.53792489956E+03 -0.99016998397E+02 -0.11878965547E+03  0.55971291372E+03  0.00000000000E+00 0. -1.
        -13    1    3    3    0    0  0.55719196728E+03 -0.74791889420E+02 -0.31894566494E+02  0.56309322363E+03  0.00000000000E+00 0.  1.
          2    1    5    5  502    0 -0.37546394434E+03  0.53181242266E+02  0.14002855317E+03  0.40423930255E+03  0.00000000000E+00 0.  1.
          4    1    6    6  503    0  0.44064680863E+02 -0.43953208682E+02 -0.96143681472E+02  0.11453029355E+03  0.00000000000E+00 0. -1.
         -2    1    5    5    0  502 -0.75805804695E+03  0.14699318693E+03  0.15951601353E+03  0.78848231314E+03  0.00000000000E+00 0. -1.
         -4    1    6    6    0  503 -0.56595564111E+01  0.17587667306E+02 -0.16885486246E+03  0.16986265392E+03  0.00000000000E+00 0.  1.
<mgrwt>
<rscale>  0 0.25973255E+04</rscale>
<asrwt>0</asrwt>
<pdfrwt beam="1">  1        2 0.20892761E+00 0.25973255E+04</pdfrwt>
<pdfrwt beam="2">  1       -2 0.19106019E+00 0.25973255E+04</pdfrwt>
<totfact> 0.20639814E+00</totfact>
</mgrwt>
</event>
<event>
12    1  0.4802930E-008  0.2465306E+04  0.7818608E-02  0.8415451E-01
         -1   -1    0    0    0  501 -0.00000000000E+00  0.00000000000E+00  0.12199222559E+04  0.12199222559E+04  0.00000000000E+00 0.  1.
          1   -1    0    0  501    0  0.00000000000E+00 -0.00000000000E+00 -0.12455167246E+04  0.12455167246E+04  0.00000000000E+00 0. -1.
         23    2    1    2    0    0  0.90146290916E+03  0.53348702643E+02  0.53646992953E+03  0.10543803970E+04  0.91850833569E+02 0.  0.
        254    2    1    2    0    0 -0.90146290916E+03 -0.53348702643E+02 -0.56206439818E+03  0.14110585835E+04  0.92719387276E+03 0.  0.
         23    2    4    4    0    0 -0.22690888953E+03 -0.39156938576E+03 -0.44824033407E+03  0.64291834424E+03  0.87237447594E+02 0.  0.
         23    2    4    4    0    0 -0.67455401962E+03  0.33822068312E+03 -0.11382406411E+03  0.76814023925E+03  0.87562284692E+02 0.  0.
         11    1    3    3    0    0  0.14448800299E+03 -0.23155556436E+02  0.73411874853E+02  0.16371397671E+03  0.00000000000E+00 0. -1.
        -11    1    3    3    0    0  0.75697490617E+03  0.76504259079E+02  0.46305805468E+03  0.89066642029E+03  0.00000000000E+00 0.  1.
          1    1    5    5  502    0 -0.11972051102E+02 -0.36707052548E+02 -0.10945460303E+02  0.40131543898E+02  0.00000000000E+00 0. -1.
          3    1    6    6  503    0 -0.52157118715E+02  0.54716420798E+02 -0.15810048735E+02  0.77228293899E+02  0.00000000000E+00 0. -1.
         -1    1    5    5    0  502 -0.21493683843E+03 -0.35486233321E+03 -0.43729487377E+03  0.60278680035E+03  0.00000000000E+00 0.  1.
         -3    1    6    6    0  503 -0.62239690091E+03  0.28350426232E+03 -0.98014015378E+02  0.69091194535E+03  0.00000000000E+00 0.  1.
<mgrwt>
<rscale>  0 0.24653061E+04</rscale>
<asrwt>0</asrwt>
<pdfrwt beam="1">  1        1 0.19161796E+00 0.24653061E+04</pdfrwt>
<pdfrwt beam="2">  1       -1 0.18768035E+00 0.24653061E+04</pdfrwt>
<totfact> 0.16186982E+00</totfact>
</mgrwt>
</event>
<event>
12    1  0.4802930E-008  0.1115014E+04  0.7818608E-02  0.9190680E-01
          2   -1    0    0  501    0  0.00000000000E+00  0.00000000000E+00  0.92907883101E+03  0.92907883101E+03  0.00000000000E+00 0. -1.
         -2   -1    0    0    0  501 -0.00000000000E+00 -0.00000000000E+00 -0.33454021707E+03  0.33454021707E+03  0.00000000000E+00 0.  1.
         23    2    1    2    0    0  0.24800381201E+02  0.77294297515E+02 -0.62808282192E+02  0.13609240837E+03  0.89368875837E+02 0.  0.
        254    2    1    2    0    0 -0.24800381201E+02 -0.77294297515E+02  0.65734689614E+03  0.11275266397E+04  0.91248118559E+03 0.  0.
         23    2    4    4    0    0  0.41974052961E+03 -0.98124454963E+02  0.44518869955E+03  0.62609583356E+03  0.89400747919E+02 0.  0.
         23    2    4    4    0    0 -0.44454091081E+03  0.20830157448E+02  0.21215819658E+03  0.50143080615E+03  0.91494459630E+02 0.  0.
         11    1    3    3    0    0  0.16436104460E+02  0.20671302576E+02 -0.73290152652E+02  0.77903111335E+02  0.00000000000E+00 0.  1.
        -11    1    3    3    0    0  0.83642767413E+01  0.56622994939E+02  0.10481870459E+02  0.58189297036E+02  0.00000000000E+00 0. -1.
          4    1    5    5  502    0  0.33720099403E+03 -0.40913997299E+02  0.33718191404E+03  0.47861269175E+03  0.00000000000E+00 0.  1.
          3    1    6    6  503    0  0.27826514014E+01 -0.50837496620E+01  0.31919143519E+00  0.58042693442E+01  0.00000000000E+00 0. -1.
         -4    1    5    5    0  502  0.82539535577E+02 -0.57210457664E+02  0.10800678551E+03  0.14748314180E+03  0.00000000000E+00 0. -1.
         -3    1    6    6    0  503 -0.44732356221E+03  0.25913907110E+02  0.21183900515E+03  0.49562653681E+03  0.00000000000E+00 0.  1.
<mgrwt>
<rscale>  0 0.11150143E+04</rscale>
<asrwt>0</asrwt>
<pdfrwt beam="1">  1        2 0.14293520E+00 0.11150143E+04</pdfrwt>
<pdfrwt beam="2">  1       -2 0.51467726E-01 0.11150143E+04</pdfrwt>
<totfact> 0.99162354E+01</totfact>
</mgrwt>
</event>
<event>
12    1  0.4802930E-008  0.1621600E+04  0.7818608E-02  0.8807387E-01
         -2   -1    0    0    0  501 -0.00000000000E+00  0.00000000000E+00  0.17312576713E+03  0.17312576713E+03  0.00000000000E+00 0.  1.
          2   -1    0    0  501    0  0.00000000000E+00 -0.00000000000E+00 -0.37972189376E+04  0.37972189376E+04  0.00000000000E+00 0. -1.
         23    2    1    2    0    0 -0.34643356271E+03  0.20756571964E+03 -0.32988329490E+03  0.53088171566E+03  0.99562374524E+02 0.  0.
        254    2    1    2    0    0  0.34643356271E+03 -0.20756571964E+03 -0.32942098755E+04  0.34394629890E+04  0.90276641915E+03 0.  0.
         23    2    4    4    0    0 -0.24995079635E+03 -0.27175583606E+03 -0.11360516316E+04  0.11976103929E+04  0.85619557848E+02 0.  0.
         23    2    4    4    0    0  0.59638435906E+03  0.64190116419E+02 -0.21581582440E+04  0.22418525961E+04  0.91985769530E+02 0.  0.
         11    1    3    3    0    0 -0.26298207179E+03  0.20069102354E+03 -0.24507360083E+03  0.41170077342E+03  0.00000000000E+00 0. -1.
        -11    1    3    3    0    0 -0.83451490923E+02  0.68746960999E+01 -0.84809694071E+02  0.11918094224E+03  0.00000000000E+00 0.  1.
          2    1    5    5  502    0 -0.19244755371E+03 -0.15066854922E+03 -0.70198661629E+03  0.74331842577E+03  0.00000000000E+00 0. -1.
          3    1    6    6  503    0  0.45517469636E+03  0.60693210334E+02 -0.17766396060E+04  0.18350247845E+04  0.00000000000E+00 0. -1.
         -2    1    5    5    0  502 -0.57503242643E+02 -0.12108728684E+03 -0.43406501528E+03  0.45429196717E+03  0.00000000000E+00 0.  1.
         -3    1    6    6    0  503  0.14120966271E+03  0.34969060848E+01 -0.38151863794E+03  0.40682781160E+03  0.00000000000E+00 0.  1.
<mgrwt>
<rscale>  0 0.16215998E+04</rscale>
<asrwt>0</asrwt>
<pdfrwt beam="1">  1        2 0.58418752E+00 0.16215998E+04</pdfrwt>
<pdfrwt beam="2">  1       -2 0.26634734E-01 0.16215998E+04</pdfrwt>
<totfact> 0.61355743E+00</totfact>
</mgrwt>
</event>
<event>
12    1  0.4802930E-008  0.2568488E+04  0.7818608E-02  0.8378985E-01
         -2   -1    0    0    0  501 -0.00000000000E+00  0.00000000000E+00  0.13301301891E+04  0.13301301891E+04  0.00000000000E+00 0.  1.
          2   -1    0    0  501    0  0.00000000000E+00 -0.00000000000E+00 -0.12399403923E+04  0.12399403923E+04  0.00000000000E+00 0. -1.
         23    2    1    2    0    0  0.98988029335E+03  0.50368891909E+03 -0.13465350633E+03  0.11224215220E+04  0.90183057454E+02 0.  0.
        254    2    1    2    0    0 -0.98988029335E+03 -0.50368891909E+03  0.22484330314E+03  0.14476490595E+04  0.90087056007E+03 0.  0.
         23    2    4    4    0    0 -0.25558016011E+03  0.59750939174E+01 -0.30288129019E+03  0.40546543347E+03  0.85488138369E+02 0.  0.
         23    2    4    4    0    0 -0.73430013325E+03 -0.50966401301E+03  0.52772459333E+03  0.10421836260E+04  0.93270424234E+02 0.  0.
         11    1    3    3    0    0  0.86050533248E+03  0.42287450035E+03 -0.87613840136E+02  0.96279201038E+03  0.00000000000E+00 0. -1.
        -11    1    3    3    0    0  0.12937496087E+03  0.80814418736E+02 -0.47039666192E+02  0.15962951160E+03  0.00000000000E+00 0.  1.
          2    1    5    5  502    0 -0.20168311157E+03  0.37981632484E+02 -0.25005223966E+03  0.32348849200E+03  0.00000000000E+00 0. -1.
          3    1    6    6  503    0 -0.50840742486E+03 -0.33946288877E+03  0.31113308440E+03  0.68594238732E+03  0.00000000000E+00 0. -1.
         -2    1    5    5    0  502 -0.53897048536E+02 -0.32006538567E+02 -0.52829050528E+02  0.81976941463E+02  0.00000000000E+00 0.  1.
         -3    1    6    6    0  503 -0.22589270839E+03 -0.17020112424E+03  0.21659150893E+03  0.35624123868E+03  0.00000000000E+00 0.  1.
<mgrwt>
<rscale>  0 0.25684876E+04</rscale>
<asrwt>0</asrwt>
<pdfrwt beam="1">  1        2 0.19076006E+00 0.25684876E+04</pdfrwt>
<pdfrwt beam="2">  1       -2 0.20463541E+00 0.25684876E+04</pdfrwt>
<totfact> 0.19725197E+00</totfact>
</mgrwt>
</event>
<event>
12    1  0.4802930E-008  0.1791302E+04  0.7818608E-02  0.8710939E-01
         -3   -1    0    0    0  501 -0.00000000000E+00  0.00000000000E+00  0.94461660601E+03  0.94461660601E+03  0.00000000000E+00 0.  1.
          3   -1    0    0  501    0  0.00000000000E+00 -0.00000000000E+00 -0.84922351234E+03  0.84922351234E+03  0.00000000000E+00 0. -1.
         23    2    1    2    0    0 -0.51194427307E+03  0.12211959927E+03 -0.37823240781E+03  0.65479304464E+03  0.93241845416E+02 0.  0.
        254    2    1    2    0    0  0.51194427307E+03 -0.12211959927E+03  0.47362550149E+03  0.11390470737E+04  0.89224827554E+03 0.  0.
         23    2    4    4    0    0  0.64479376763E+03  0.16665790089E+03  0.44863788231E+03  0.80743669807E+03  0.84523447867E+02 0.  0.
         23    2    4    4    0    0 -0.13284949456E+03 -0.28877750015E+03  0.24987619173E+02  0.33161037564E+03  0.91102290415E+02 0.  0.
         13    1    3    3    0    0  0.57370302332E+00  0.62314627973E+01  0.15623872791E+01  0.64499083531E+01  0.00000000000E+00 0.  1.
        -13    1    3    3    0    0 -0.51251797610E+03  0.11588813647E+03 -0.37979479509E+03  0.64834313629E+03  0.00000000000E+00 0. -1.
          4    1    5    5  502    0  0.58296377948E+03  0.13359391501E+03  0.37583931927E+03  0.70636343070E+03  0.00000000000E+00 0.  1.
          1    1    6    6  503    0 -0.60862701827E+02 -0.17033218554E+03 -0.28367960101E+02  0.18309031396E+03  0.00000000000E+00 0. -1.
         -4    1    5    5    0  502  0.61829988150E+02  0.33063985874E+02  0.72798563040E+02  0.10107326737E+03  0.00000000000E+00 0. -1.
         -1    1    6    6    0  503 -0.71986792733E+02 -0.11844531461E+03  0.53355579274E+02  0.14852006168E+03  0.00000000000E+00 0.  1.
<mgrwt>
<rscale>  0 0.17913019E+04</rscale>
<asrwt>0</asrwt>
<pdfrwt beam="1">  1        3 0.13064977E+00 0.17913019E+04</pdfrwt>
<pdfrwt beam="2">  1       -3 0.14532563E+00 0.17913019E+04</pdfrwt>
<totfact> 0.39739100E-01</totfact>
</mgrwt>
</event>
<event>
12    1  0.4802930E-008  0.1623792E+04  0.7818608E-02  0.8806064E-01
          1   -1    0    0  501    0  0.00000000000E+00  0.00000000000E+00  0.59203161703E+03  0.59203161703E+03  0.00000000000E+00 0. -1.
         -1   -1    0    0    0  501 -0.00000000000E+00 -0.00000000000E+00 -0.11134119469E+04  0.11134119469E+04  0.00000000000E+00 0.  1.
         23    2    1    2    0    0  0.53464131464E+03  0.44164405583E+02 -0.33899996781E+03  0.64161104058E+03  0.94614582276E+02 0.  0.
        254    2    1    2    0    0 -0.53464131464E+03 -0.44164405583E+02 -0.18238036209E+03  0.10638325234E+04  0.90038059246E+03 0.  0.
         23    2    4    4    0    0 -0.57015361039E+02 -0.38085427245E+03  0.10143783491E+03  0.40778006015E+03  0.87716673850E+02 0.  0.
         23    2    4    4    0    0 -0.47762595361E+03  0.33668986686E+03 -0.28381819700E+03  0.65605246323E+03  0.91462820607E+02 0.  0.
         11    1    3    3    0    0  0.10625227482E+02 -0.11916579909E+02 -0.19943725187E+02  0.25547064609E+02  0.00000000000E+00 0.  1.
        -11    1    3    3    0    0  0.52401608716E+03  0.56080985491E+02 -0.31905624262E+03  0.61606397598E+03  0.00000000000E+00 0. -1.
          3    1    5    5  502    0 -0.12616046772E+02 -0.23143422740E+03  0.21975018976E+02  0.23281724100E+03  0.00000000000E+00 0. -1.
          3    1    6    6  503    0 -0.44871925438E+03  0.33600411362E+03 -0.25725501775E+03  0.61678835736E+03  0.00000000000E+00 0. -1.
         -3    1    5    5    0  502 -0.44399314267E+02 -0.14942004505E+03  0.79462815936E+02  0.17496281915E+03  0.00000000000E+00 0.  1.
         -3    1    6    6    0  503 -0.28906699222E+02  0.68575324575E+00 -0.26563179250E+02  0.39264105864E+02  0.00000000000E+00 0.  1.
<mgrwt>
<rscale>  0 0.16237920E+04</rscale>
<asrwt>0</asrwt>
<pdfrwt beam="1">  1        1 0.91081787E-01 0.16237920E+04</pdfrwt>
<pdfrwt beam="2">  1       -1 0.17129415E+00 0.16237920E+04</pdfrwt>
<totfact> 0.80490916E+00</totfact>
</mgrwt>
</event>
<event>
12    1  0.4802930E-008  0.1383833E+04  0.7818608E-02  0.8965605E-01
         -1   -1    0    0    0  501 -0.00000000000E+00  0.00000000000E+00  0.48647122975E+03  0.48647122975E+03  0.00000000000E+00 0.  1.
          1   -1    0    0  501    0  0.00000000000E+00 -0.00000000000E+00 -0.98412474262E+03  0.98412474262E+03  0.00000000000E+00 0. -1.
         23    2    1    2    0    0  0.29304556457E+03 -0.13256753007E+03 -0.38117142809E+03  0.50696165160E+03  0.90931873725E+02 0.  0.
        254    2    1    2    0    0 -0.29304556457E+03  0.13256753007E+03 -0.11648208478E+03  0.96363432076E+03  0.90087356223E+03 0.  0.
         23    2    4    4    0    0 -0.60562375454E+03  0.14851324048E+03 -0.77271180994E+02  0.63519200001E+03  0.93068398511E+02 0.  0.
         23    2    4    4    0    0  0.31257818997E+03 -0.15945710410E+02 -0.39210903783E+02  0.32844232075E+03  0.91528534114E+02 0.  0.
         11    1    3    3    0    0  0.32836323283E+02 -0.44373376736E+02 -0.97539820485E+02  0.11207692568E+03  0.00000000000E+00 0.  1.
        -11    1    3    3    0    0  0.26020924129E+03 -0.88194153337E+02 -0.28363160761E+03  0.39488472592E+03  0.00000000000E+00 0. -1.
          3    1    5    5  502    0 -0.57221169933E+02 -0.10252214287E+02  0.51124786596E+01  0.58356727327E+02  0.00000000000E+00 0. -1.
          3    1    6    6  503    0  0.95966731934E+02  0.37240005019E+02 -0.16333652302E+02  0.10422677108E+03  0.00000000000E+00 0. -1.
         -3    1    5    5    0  502 -0.54840258461E+03  0.15876545477E+03 -0.82383659653E+02  0.57683527268E+03  0.00000000000E+00 0.  1.
         -3    1    6    6    0  503  0.21661145804E+03 -0.53185715428E+02 -0.22877251481E+02  0.22421554967E+03  0.00000000000E+00 0.  1.
<mgrwt>
<rscale>  0 0.13838329E+04</rscale>
<asrwt>0</asrwt>
<pdfrwt beam="1">  1        1 0.15140381E+00 0.13838329E+04</pdfrwt>
<pdfrwt beam="2">  1       -1 0.74841728E-01 0.13838329E+04</pdfrwt>
<totfact> 0.27307190E+01</totfact>
</mgrwt>
</event>
<event>
12    1  0.4802930E-008  0.1942994E+04  0.7818608E-02  0.8633747E-01
          2   -1    0    0  501    0  0.00000000000E+00  0.00000000000E+00  0.90731985769E+03  0.90731985769E+03  0.00000000000E+00 0. -1.
         -2   -1    0    0    0  501 -0.00000000000E+00 -0.00000000000E+00 -0.10402130400E+04  0.10402130400E+04  0.00000000000E+00 0.  1.
         23    2    1    2    0    0 -0.43883570353E+03  0.60602461219E+03  0.71765272208E+02  0.75804396684E+03  0.98172277652E+02 0.  0.
        254    2    1    2    0    0  0.43883570353E+03 -0.60602461219E+03 -0.20465845456E+03  0.11894889309E+04  0.90175175541E+03 0.  0.
         23    2    4    4    0    0 -0.77262644151E+02  0.53223032888E+01  0.24095908836E+03  0.26939890963E+03  0.92285682266E+02 0.  0.
         23    2    4    4    0    0  0.51609834768E+03 -0.61134691548E+03 -0.44561754292E+03  0.92009002125E+03  0.88814959902E+02 0.  0.
         13    1    3    3    0    0 -0.28204798922E+03  0.33076718669E+03  0.72035185159E+01  0.43475267762E+03  0.00000000000E+00 0.  1.
        -13    1    3    3    0    0 -0.15678771431E+03  0.27525742550E+03  0.64561753692E+02  0.32329128923E+03  0.00000000000E+00 0. -1.
          2    1    5    5  502    0 -0.95971558306E+01 -0.38295234629E+02  0.68194057718E+02  0.78797588182E+02  0.00000000000E+00 0.  1.
          1    1    6    6  503    0  0.22648909950E+03 -0.29687476204E+03 -0.25395676675E+03  0.45158163814E+03  0.00000000000E+00 0. -1.
         -2    1    5    5    0  502 -0.67665488321E+02  0.43617537918E+02  0.17276503064E+03  0.19060132144E+03  0.00000000000E+00 0. -1.
         -1    1    6    6    0  503  0.28960924819E+03 -0.31447215343E+03 -0.19166077616E+03  0.46850838310E+03  0.00000000000E+00 0.  1.
<mgrwt>
<rscale>  0 0.19429935E+04</rscale>
<asrwt>0</asrwt>
<pdfrwt beam="1">  1        2 0.13958767E+00 0.19429935E+04</pdfrwt>
<pdfrwt beam="2">  1       -2 0.16003278E+00 0.19429935E+04</pdfrwt>
<totfact> 0.68096802E+00</totfact>
</mgrwt>
</event>
<event>
12    1  0.4802930E-008  0.2803707E+04  0.7818608E-02  0.8302118E-01
          1   -1    0    0  501    0  0.00000000000E+00  0.00000000000E+00  0.36206310544E+04  0.36206310544E+04  0.00000000000E+00 0. -1.
         -1   -1    0    0    0  501 -0.00000000000E+00 -0.00000000000E+00 -0.54277634639E+03  0.54277634639E+03  0.00000000000E+00 0.  1.
         23    2    1    2    0    0  0.23887566365E+03 -0.75549573506E+03  0.27760810361E+04  0.28884215645E+04  0.92292074029E+02 0.  0.
        254    2    1    2    0    0 -0.23887566365E+03  0.75549573506E+03  0.30177367191E+03  0.12749858363E+04  0.95220068541E+03 0.  0.
         23    2    4    4    0    0 -0.65510729025E+02 -0.21014277012E+03  0.13683745845E+03  0.27591189453E+03  0.94611014473E+02 0.  0.
         23    2    4    4    0    0 -0.17336493462E+03  0.96563850518E+03  0.16493621346E+03  0.99907394176E+03  0.91824089108E+02 0.  0.
         11    1    3    3    0    0  0.26560449425E+02 -0.13787716450E+03  0.61423555595E+03  0.63008006488E+03  0.00000000000E+00 0.  1.
        -11    1    3    3    0    0  0.21231521422E+03 -0.61761857056E+03  0.21618454801E+04  0.22583414996E+04  0.00000000000E+00 0. -1.
          4    1    5    5  502    0 -0.69597715548E+02 -0.21902208069E+03  0.13131768051E+03  0.26468631822E+03  0.00000000000E+00 0. -1.
          1    1    6    6  503    0 -0.90753270521E+02  0.41863920153E+03  0.28586099148E+02  0.42931585369E+03  0.00000000000E+00 0. -1.
         -4    1    5    5    0  502  0.40869865231E+01  0.88793105704E+01  0.55197779356E+01  0.11225576310E+02  0.00000000000E+00 0.  1.
         -1    1    6    6    0  503 -0.82611664104E+02  0.54699930365E+03  0.13635011431E+03  0.56975808806E+03  0.00000000000E+00 0.  1.
<mgrwt>
<rscale>  0 0.28037068E+04</rscale>
<asrwt>0</asrwt>
<pdfrwt beam="1">  1        1 0.55702015E+00 0.28037068E+04</pdfrwt>
<pdfrwt beam="2">  1       -1 0.83504056E-01 0.28037068E+04</pdfrwt>
<totfact> 0.24647087E-01</totfact>
</mgrwt>
</event>
<event>
12    1  0.4802930E-008  0.1452137E+04  0.7818608E-02  0.8916920E-01
          2   -1    0    0  501    0  0.00000000000E+00  0.00000000000E+00  0.23743046984E+04  0.23743046984E+04  0.00000000000E+00 0.  1.
         -2   -1    0    0    0  501 -0.00000000000E+00 -0.00000000000E+00 -0.22203364065E+03  0.22203364065E+03  0.00000000000E+00 0. -1.
         23    2    1    2    0    0 -0.40948268619E+03  0.11173999081E+03  0.45305530678E+03  0.62752550763E+03  0.91472705673E+02 0.  0.
        254    2    1    2    0    0  0.40948268619E+03 -0.11173999081E+03  0.16992157509E+04  0.19688128314E+04  0.89929300064E+03 0.  0.
         23    2    4    4    0    0 -0.15930580095E+03  0.25291644788E+03  0.55864872562E+03  0.63999916147E+03  0.90362936084E+02 0.  0.
         23    2    4    4    0    0  0.56878848714E+03 -0.36465643869E+03  0.11405670253E+04  0.13288136699E+04  0.91421927143E+02 0.  0.
         13    1    3    3    0    0 -0.20679410431E+03  0.42491018440E+02  0.28813195607E+03  0.35719646182E+03  0.00000000000E+00 0.  1.
        -13    1    3    3    0    0 -0.20268858187E+03  0.69248972371E+02  0.16492335071E+03  0.27032904581E+03  0.00000000000E+00 0. -1.
          3    1    6    6  502    0  0.26948461012E+03 -0.22502821671E+03  0.61171354055E+03  0.70530355812E+03  0.00000000000E+00 0. -1.
          3    1    5    5  503    0 -0.51207346241E+01  0.47313365242E+02  0.14895604459E+03  0.15637352613E+03  0.00000000000E+00 0. -1.
         -3    1    5    5    0  503 -0.15418506633E+03  0.20560308264E+03  0.40969268103E+03  0.48362563534E+03  0.00000000000E+00 0.  1.
         -3    1    6    6    0  502  0.29930387702E+03 -0.13962822198E+03  0.52885348477E+03  0.62351011181E+03  0.00000000000E+00 0.  1.
<mgrwt>
<rscale>  0 0.14521371E+04</rscale>
<asrwt>0</asrwt>
<pdfrwt beam="1">  1        2 0.36527763E+00 0.14521371E+04</pdfrwt>
<pdfrwt beam="2">  1       -2 0.34159023E-01 0.14521371E+04</pdfrwt>
<totfact> 0.32075816E+01</totfact>
</mgrwt>
</event>
<event>
12    1  0.4802930E-008  0.1484867E+04  0.7818608E-02  0.8894579E-01
         -2   -1    0    0    0  501 -0.00000000000E+00  0.00000000000E+00  0.61463295602E+03  0.61463295602E+03  0.00000000000E+00 0.  1.
          2   -1    0    0  501    0  0.00000000000E+00 -0.00000000000E+00 -0.89680735322E+03  0.89680735322E+03  0.00000000000E+00 0. -1.
         23    2    1    2    0    0  0.15145322642E+03  0.36168214247E+03 -0.34470695462E+03  0.52990323303E+03  0.90678000880E+02 0.  0.
        254    2    1    2    0    0 -0.15145322642E+03 -0.36168214247E+03  0.62532557422E+02  0.98153707621E+03  0.89763726486E+03 0.  0.
         23    2    4    4    0    0 -0.51681656608E+03 -0.17825786159E+03 -0.16402575848E+02  0.55444416135E+03  0.90906849935E+02 0.  0.
         23    2    4    4    0    0  0.36536333966E+03 -0.18342428087E+03  0.78935133271E+02  0.42709291486E+03  0.95093458623E+02 0.  0.
         11    1    3    3    0    0  0.10903874773E+03  0.24271250594E+03 -0.28596173748E+03  0.39060584270E+03  0.00000000000E+00 0. -1.
        -11    1    3    3    0    0  0.42414478689E+02  0.11896963652E+03 -0.58745217135E+02  0.13929739033E+03  0.00000000000E+00 0.  1.
          3    1    6    6  502    0  0.31789892105E+03 -0.11865638995E+03  0.59869977865E+02  0.34456273323E+03  0.00000000000E+00 0. -1.
          3    1    5    5  503    0 -0.49298198025E+03 -0.18326845283E+03 -0.29534397224E+02  0.52677399259E+03  0.00000000000E+00 0. -1.
         -3    1    5    5    0  503 -0.23834585831E+02  0.50105912392E+01  0.13131821376E+02  0.27670168755E+02  0.00000000000E+00 0.  1.
         -3    1    6    6    0  502  0.47464418615E+02 -0.64767890924E+02  0.19065155406E+02  0.82530181630E+02  0.00000000000E+00 0.  1.
<mgrwt>
<rscale>  0 0.14848668E+04</rscale>
<asrwt>0</asrwt>
<pdfrwt beam="1">  1        2 0.13797036E+00 0.14848668E+04</pdfrwt>
<pdfrwt beam="2">  1       -2 0.94558917E-01 0.14848668E+04</pdfrwt>
<totfact> 0.26863409E+01</totfact>
</mgrwt>
</event>
<event>
12    1  0.4802930E-008  0.1773478E+04  0.7818608E-02  0.8720532E-01
         -2   -1    0    0    0  501 -0.00000000000E+00  0.00000000000E+00  0.25569259655E+03  0.25569259655E+03  0.00000000000E+00 0.  1.
          2   -1    0    0  501    0  0.00000000000E+00 -0.00000000000E+00 -0.30752024409E+04  0.30752024409E+04  0.00000000000E+00 0. -1.
         23    2    1    2    0    0 -0.35262721837E+03  0.55485068456E+03 -0.10224566303E+04  0.12187734783E+04  0.88238275144E+02 0.  0.
        254    2    1    2    0    0  0.35262721837E+03 -0.55485068456E+03 -0.17970532140E+04  0.21121215591E+04  0.89412079125E+03 0.  0.
         23    2    4    4    0    0  0.32523964348E+03  0.12447734870E+03 -0.98112545847E+03  0.10452660620E+04  0.93265959376E+02 0.  0.
         23    2    4    4    0    0  0.27387574888E+02 -0.67932803326E+03 -0.81592775554E+03  0.10668554971E+04  0.10102422187E+03 0.  0.
         13    1    3    3    0    0 -0.29066492679E+03  0.44851363804E+03 -0.76254456696E+03  0.93119536069E+03  0.00000000000E+00 0. -1.
        -13    1    3    3    0    0 -0.61962291576E+02  0.10633704653E+03 -0.25991206335E+03  0.28757811759E+03  0.00000000000E+00 0.  1.
          4    1    5    5  502    0  0.98545652281E+02  0.78952591662E+02 -0.28430677199E+03  0.31108696198E+03  0.00000000000E+00 0. -1.
          1    1    6    6  503    0 -0.16583290319E+02 -0.23323939645E+03 -0.34428569740E+03  0.41618296818E+03  0.00000000000E+00 0. -1.
         -4    1    5    5    0  502  0.22669399120E+03  0.45524757036E+02 -0.69681868648E+03  0.73417910007E+03  0.00000000000E+00 0.  1.
         -1    1    6    6    0  503  0.43970865207E+02 -0.44608863681E+03 -0.47164205814E+03  0.65067252891E+03  0.00000000000E+00 0.  1.
<mgrwt>
<rscale>  0 0.17734785E+04</rscale>
<asrwt>0</asrwt>
<pdfrwt beam="1">  1        2 0.47310806E+00 0.17734785E+04</pdfrwt>
<pdfrwt beam="2">  1       -2 0.39337323E-01 0.17734785E+04</pdfrwt>
<totfact> 0.90651163E+00</totfact>
</mgrwt>
</event>
<event>
12    1  0.4802930E-008  0.1745896E+04  0.7818608E-02  0.8735613E-01
          2   -1    0    0  501    0  0.00000000000E+00  0.00000000000E+00  0.43995344381E+04  0.43995344381E+04  0.00000000000E+00 0.  1.
         -2   -1    0    0    0  501 -0.00000000000E+00 -0.00000000000E+00 -0.17320875934E+03  0.17320875934E+03  0.00000000000E+00 0. -1.
         23    2    1    2    0    0  0.33542795827E+03  0.29993152599E+02  0.29793938602E+04  0.29997139018E+04  0.89912255815E+02 0.  0.
        254    2    1    2    0    0 -0.33542795827E+03 -0.29993152599E+02  0.12469318186E+04  0.15730292957E+04  0.89787009116E+03 0.  0.
         23    2    4    4    0    0  0.41386386894E+02 -0.29171916638E+03  0.84010493991E+02  0.31937580076E+03  0.90167809980E+02 0.  0.
         23    2    4    4    0    0 -0.37681434517E+03  0.26172601379E+03  0.11629213246E+04  0.12536534950E+04  0.93656399705E+02 0.  0.
         13    1    3    3    0    0  0.12854265601E+03  0.43522714698E+02  0.14487680567E+04  0.14551104162E+04  0.00000000000E+00 0. -1.
        -13    1    3    3    0    0  0.20688530226E+03 -0.13529562099E+02  0.15306258035E+04  0.15446034856E+04  0.00000000000E+00 0.  1.
          2    1    5    5  502    0  0.43023505392E+02 -0.15855254653E+03  0.87537383151E+02  0.18615242538E+03  0.00000000000E+00 0. -1.
          4    1    6    6  503    0 -0.36723514169E+03  0.26370893416E+03  0.11570525109E+04  0.12422457745E+04  0.00000000000E+00 0.  1.
         -2    1    5    5    0  502 -0.16371184981E+01 -0.13316661985E+03 -0.35268891595E+01  0.13322337538E+03  0.00000000000E+00 0.  1.
         -4    1    6    6    0  503 -0.95792034797E+01 -0.19829203707E+01  0.58688137256E+01  0.11407720502E+02  0.00000000000E+00 0. -1.
<mgrwt>
<rscale>  0 0.17458956E+04</rscale>
<asrwt>0</asrwt>
<pdfrwt beam="1">  1        2 0.67685137E+00 0.17458956E+04</pdfrwt>
<pdfrwt beam="2">  1       -2 0.26647505E-01 0.17458956E+04</pdfrwt>
<totfact> 0.19027533E+00</totfact>
</mgrwt>
</event>
<event>
12    1  0.4802930E-008  0.2290994E+04  0.7818608E-02  0.8481481E-01
         -1   -1    0    0    0  501 -0.00000000000E+00  0.00000000000E+00  0.34117458696E+04  0.34117458696E+04  0.00000000000E+00 0.  1.
          1   -1    0    0  501    0  0.00000000000E+00 -0.00000000000E+00 -0.38460163160E+03  0.38460163160E+03  0.00000000000E+00 0. -1.
         23    2    1    2    0    0 -0.41816057758E+03  0.87048345759E+03  0.12322350723E+04  0.15682711053E+04  0.92039490658E+02 0.  0.
        254    2    1    2    0    0  0.41816057758E+03 -0.87048345759E+03  0.17949091657E+04  0.22280763958E+04  0.90001432992E+03 0.  0.
         23    2    4    4    0    0  0.38645323354E+03  0.22624140756E+02  0.36543582364E+03  0.53995895892E+03  0.90301620477E+02 0.  0.
         23    2    4    4    0    0  0.31707344045E+02 -0.89310759834E+03  0.14294733420E+04  0.16881174369E+04  0.87749115872E+02 0.  0.
         13    1    3    3    0    0 -0.39675969330E+03  0.83951106830E+03  0.12074493216E+04  0.15231976077E+04  0.00000000000E+00 0. -1.
        -13    1    3    3    0    0 -0.21400884287E+02  0.30972389283E+02  0.24785750685E+02  0.45073497570E+02  0.00000000000E+00 0.  1.
          1    1    5    5  502    0  0.22060590687E+03  0.41222930324E+02  0.16176987814E+03  0.27665102495E+03  0.00000000000E+00 0. -1.
          3    1    6    6  503    0 -0.37552106168E+01 -0.85288746686E+02  0.18881768181E+03  0.20722062851E+03  0.00000000000E+00 0. -1.
         -1    1    5    5    0  502  0.16584732667E+03 -0.18598789568E+02  0.20366594550E+03  0.26330793397E+03  0.00000000000E+00 0.  1.
         -3    1    6    6    0  503  0.35462554661E+02 -0.80781885166E+03  0.12406556602E+04  0.14808968084E+04  0.00000000000E+00 0.  1.
<mgrwt>
<rscale>  0 0.22909937E+04</rscale>
<asrwt>0</asrwt>
<pdfrwt beam="1">  1        1 0.59169484E-01 0.22909937E+04</pdfrwt>
<pdfrwt beam="2">  1       -1 0.52488396E+00 0.22909937E+04</pdfrwt>
<totfact> 0.59140496E-02</totfact>
</mgrwt>
</event>
<event>
12    1  0.4802930E-008  0.2302450E+04  0.7818608E-02  0.8476956E-01
          2   -1    0    0  501    0  0.00000000000E+00  0.00000000000E+00  0.14203943443E+04  0.14203943443E+04  0.00000000000E+00 0. -1.
         -2   -1    0    0    0  501 -0.00000000000E+00 -0.00000000000E+00 -0.93306432713E+03  0.93306432713E+03  0.00000000000E+00 0.  1.
         23    2    1    2    0    0 -0.94940259898E+03  0.66289556838E+02  0.39447463276E+03  0.10343338338E+04  0.92068688895E+02 0.  0.
        254    2    1    2    0    0  0.94940259898E+03 -0.66289556838E+02  0.92855384434E+02  0.13191248377E+04  0.90868510205E+03 0.  0.
         23    2    4    4    0    0  0.30665689084E+03 -0.42143956941E+01 -0.39228476488E+03  0.50627555431E+03  0.91495302060E+02 0.  0.
         23    2    4    4    0    0  0.64274570814E+03 -0.62075161144E+02  0.48514014931E+03  0.81284928338E+03  0.91583961778E+02 0.  0.
         13    1    3    3    0    0 -0.12928974416E+03  0.38291234719E+02  0.69924403905E+02  0.15189298490E+03  0.00000000000E+00 0.  1.
        -13    1    3    3    0    0 -0.82011285482E+03  0.27998322119E+02  0.32455022885E+03  0.88244084886E+03  0.00000000000E+00 0. -1.
          4    1    5    5  502    0  0.50351338509E+02 -0.56083173971E+01 -0.13012298621E+03  0.13963775297E+03  0.00000000000E+00 0. -1.
          1    1    6    6  503    0  0.46003362419E+03 -0.22275897919E+02  0.29971733164E+03  0.54950671506E+03  0.00000000000E+00 0. -1.
         -4    1    5    5    0  502  0.25630555233E+03  0.13939217030E+01 -0.26216177867E+03  0.36663780133E+03  0.00000000000E+00 0.  1.
         -1    1    6    6    0  503  0.18271208395E+03 -0.39799263225E+02  0.18542281768E+03  0.26334256832E+03  0.00000000000E+00 0.  1.
<mgrwt>
<rscale>  0 0.23024503E+04</rscale>
<asrwt>0</asrwt>
<pdfrwt beam="1">  1        2 0.21852221E+00 0.23024503E+04</pdfrwt>
<pdfrwt beam="2">  1       -2 0.14354836E+00 0.23024503E+04</pdfrwt>
<totfact> 0.42967505E+00</totfact>
</mgrwt>
</event>
<event>
12    1  0.4802930E-008  0.1124127E+04  0.7818608E-02  0.9181990E-01
          1   -1    0    0  501    0  0.00000000000E+00  0.00000000000E+00  0.27924547448E+03  0.27924547448E+03  0.00000000000E+00 0. -1.
         -1   -1    0    0    0  501 -0.00000000000E+00 -0.00000000000E+00 -0.11313168914E+04  0.11313168914E+04  0.00000000000E+00 0.  1.
         23    2    1    2    0    0 -0.16693059636E+03  0.56970060018E+02 -0.79820783440E+02  0.21526730697E+03  0.94112933447E+02 0.  0.
        254    2    1    2    0    0  0.16693059636E+03 -0.56970060018E+02 -0.77225063351E+03  0.11952950589E+04  0.89512447473E+03 0.  0.
         23    2    4    4    0    0  0.17185636111E+03  0.24274418850E+03  0.50138535438E+02  0.31520731631E+03  0.91555609422E+02 0.  0.
         23    2    4    4    0    0 -0.49257647577E+01 -0.29971424852E+03 -0.82238916894E+03  0.88008774263E+03  0.91529206347E+02 0.  0.
         13    1    3    3    0    0  0.53957960711E+01  0.16585768971E+02 -0.24020088938E+02  0.29684457552E+02  0.00000000000E+00 0. -1.
        -13    1    3    3    0    0 -0.17232639243E+03  0.40384291048E+02 -0.55800694502E+02  0.18558284942E+03  0.00000000000E+00 0.  1.
          1    1    6    6  502    0  0.21254045922E+02 -0.27958849655E+03 -0.73520655910E+03  0.78686094478E+03  0.00000000000E+00 0. -1.
          1    1    5    5  503    0  0.16506840831E+03  0.20094869481E+03  0.68699059589E+02  0.26897493964E+03  0.00000000000E+00 0. -1.
         -1    1    5    5    0  503  0.67879528050E+01  0.41795493685E+02 -0.18560524150E+02  0.46232376668E+02  0.00000000000E+00 0.  1.
         -1    1    6    6    0  502 -0.26179810680E+02 -0.20125751970E+02 -0.87182609843E+02  0.93226797857E+02  0.00000000000E+00 0.  1.
<mgrwt>
<rscale>  0 0.11241265E+04</rscale>
<asrwt>0</asrwt>
<pdfrwt beam="1">  1        1 0.42960842E-01 0.11241265E+04</pdfrwt>
<pdfrwt beam="2">  1       -1 0.17404875E+00 0.11241265E+04</pdfrwt>
<totfact> 0.22017569E+01</totfact>
</mgrwt>
</event>
<event>
12    1  0.4802930E-008  0.1077726E+04  0.7818608E-02  0.9227178E-01
         -1   -1    0    0    0  501 -0.00000000000E+00  0.00000000000E+00  0.17676484316E+03  0.17676484316E+03  0.00000000000E+00 0.  1.
          1   -1    0    0  501    0  0.00000000000E+00 -0.00000000000E+00 -0.16427093846E+04  0.16427093846E+04  0.00000000000E+00 0. -1.
         23    2    1    2    0    0  0.99592888260E+02  0.77566159369E+02 -0.31218113668E+03  0.34921663233E+03  0.92519953127E+02 0.  0.
        254    2    1    2    0    0 -0.99592888260E+02 -0.77566159369E+02 -0.11537634048E+04  0.14702575955E+04  0.90252542919E+03 0.  0.
         23    2    4    4    0    0  0.25488323755E+03 -0.28978390011E+03 -0.88338083116E+03  0.96831828580E+03  0.91315038237E+02 0.  0.
         23    2    4    4    0    0 -0.35447612581E+03  0.21221774074E+03 -0.27038257364E+03  0.50193930968E+03  0.90258745935E+02 0.  0.
         13    1    3    3    0    0  0.43197429701E+02 -0.16848269785E+02 -0.85342618674E+02  0.97124892225E+02  0.00000000000E+00 0.  1.
        -13    1    3    3    0    0  0.56395458559E+02  0.94414429155E+02 -0.22683851800E+03  0.25209174010E+03  0.00000000000E+00 0. -1.
          2    1    5    5  502    0  0.19452779939E+03 -0.26069662173E+03 -0.78023527300E+03  0.84532294098E+03  0.00000000000E+00 0. -1.
          4    1    6    6  503    0 -0.60066480172E+02  0.80212166656E+02 -0.61477111285E+02  0.11756448840E+03  0.00000000000E+00 0. -1.
         -2    1    5    5    0  502  0.60355438158E+02 -0.29087278383E+02 -0.10314555816E+03  0.12299534482E+03  0.00000000000E+00 0.  1.
         -4    1    6    6    0  503 -0.29440964563E+03  0.13200557409E+03 -0.20890546236E+03  0.38437482128E+03  0.00000000000E+00 0.  1.
<mgrwt>
<rscale>  0 0.10777259E+04</rscale>
<asrwt>0</asrwt>
<pdfrwt beam="1">  1        1 0.25272451E+00 0.10777259E+04</pdfrwt>
<pdfrwt beam="2">  1       -1 0.27194593E-01 0.10777259E+04</pdfrwt>
<totfact> 0.63077360E+01</totfact>
</mgrwt>
</event>
<event>
12    1  0.4802930E-008  0.1864101E+04  0.7818608E-02  0.8672935E-01
          2   -1    0    0  501    0  0.00000000000E+00  0.00000000000E+00  0.13280953457E+04  0.13280953457E+04  0.00000000000E+00 0. -1.
         -2   -1    0    0    0  501 -0.00000000000E+00 -0.00000000000E+00 -0.65410830042E+03  0.65410830042E+03  0.00000000000E+00 0.  1.
         23    2    1    2    0    0  0.29396286565E+03  0.34976940870E+03  0.83668055951E+03  0.95782454268E+03  0.92955313233E+02 0.  0.
        254    2    1    2    0    0 -0.29396286565E+03 -0.34976940870E+03 -0.16269351427E+03  0.10243791034E+04  0.90229183873E+03 0.  0.
         23    2    4    4    0    0 -0.39009188218E+03 -0.22076310716E+03  0.28549302083E+03  0.53952589866E+03  0.93133798159E+02 0.  0.
         23    2    4    4    0    0  0.96129016532E+02 -0.12900630154E+03 -0.44818653510E+03  0.48485320473E+03  0.91258129688E+02 0.  0.
         13    1    3    3    0    0  0.22893365105E+03  0.26654355053E+03  0.71521088556E+03  0.79685801228E+03  0.00000000000E+00 0. -1.
        -13    1    3    3    0    0  0.65029214600E+02  0.83225858173E+02  0.12146967395E+03  0.16096653040E+03  0.00000000000E+00 0.  1.
          4    1    5    5  502    0 -0.99109433025E+02 -0.41241924897E+02  0.11553635984E+03  0.15770931022E+03  0.00000000000E+00 0. -1.
          1    1    6    6  503    0  0.10127367815E+02 -0.16855650043E+02 -0.58927489914E+01  0.20528054168E+02  0.00000000000E+00 0. -1.
         -4    1    5    5    0  502 -0.29098244916E+03 -0.17952118226E+03  0.16995666098E+03  0.38181658845E+03  0.00000000000E+00 0.  1.
         -1    1    6    6    0  503  0.86001648717E+02 -0.11215065150E+03 -0.44229378611E+03  0.46432515056E+03  0.00000000000E+00 0.  1.
<mgrwt>
<rscale>  0 0.18641011E+04</rscale>
<asrwt>0</asrwt>
<pdfrwt beam="1">  1        2 0.20432236E+00 0.18641011E+04</pdfrwt>
<pdfrwt beam="2">  1       -2 0.10063205E+00 0.18641011E+04</pdfrwt>
<totfact> 0.12169721E+01</totfact>
</mgrwt>
</event>
<event>
12    1  0.4802930E-008  0.2398584E+04  0.7818608E-02  0.8440034E-01
          2   -1    0    0  501    0  0.00000000000E+00  0.00000000000E+00  0.16165488996E+04  0.16165488996E+04  0.00000000000E+00 0. -1.
         -2   -1    0    0    0  501 -0.00000000000E+00 -0.00000000000E+00 -0.88973570290E+03  0.88973570290E+03  0.00000000000E+00 0.  1.
         23    2    1    2    0    0  0.58714020602E+03  0.82947513678E+03  0.16791648190E+03  0.10339774021E+04  0.90281222014E+02 0.  0.
        254    2    1    2    0    0 -0.58714020602E+03 -0.82947513678E+03  0.55889671476E+03  0.14723072004E+04  0.90695111802E+03 0.  0.
         23    2    4    4    0    0 -0.80167068475E+03 -0.70403817549E+03  0.32631120998E+03  0.11198446246E+04  0.96059034770E+02 0.  0.
         23    2    4    4    0    0  0.21453047873E+03 -0.12543696129E+03  0.23258550478E+03  0.35246257578E+03  0.91520996129E+02 0.  0.
         13    1    3    3    0    0  0.43069484189E+03  0.60156778321E+03  0.81389698793E+02  0.74431587897E+03  0.00000000000E+00 0. -1.
        -13    1    3    3    0    0  0.15644536413E+03  0.22790735358E+03  0.86526783112E+02  0.28966152310E+03  0.00000000000E+00 0.  1.
          1    1    5    5  502    0 -0.70047193442E+03 -0.64958283390E+03  0.30616042393E+03  0.10031714680E+04  0.00000000000E+00 0. -1.
          3    1    6    6  503    0  0.22307009858E+03 -0.11623955582E+03  0.21528056740E+03  0.33108552659E+03  0.00000000000E+00 0. -1.
         -1    1    5    5    0  502 -0.10119875033E+03 -0.54455341594E+02  0.20150786052E+02  0.11667315662E+03  0.00000000000E+00 0.  1.
         -3    1    6    6    0  503 -0.85396198479E+01 -0.91974054727E+01  0.17304937381E+02  0.21377049196E+02  0.00000000000E+00 0.  1.
<mgrwt>
<rscale>  0 0.23985840E+04</rscale>
<asrwt>0</asrwt>
<pdfrwt beam="1">  1        2 0.24869983E+00 0.23985840E+04</pdfrwt>
<pdfrwt beam="2">  1       -2 0.13688242E+00 0.23985840E+04</pdfrwt>
<totfact> 0.37387425E+00</totfact>
</mgrwt>
</event>
<event>
12    1  0.4802930E-008  0.1469039E+04  0.7818608E-02  0.8905306E-01
         -2   -1    0    0    0  501 -0.00000000000E+00  0.00000000000E+00  0.41473019144E+03  0.41473019144E+03  0.00000000000E+00 0.  1.
          2   -1    0    0  501    0  0.00000000000E+00 -0.00000000000E+00 -0.13008919931E+04  0.13008919931E+04  0.00000000000E+00 0. -1.
         23    2    1    2    0    0  0.44903132803E+03 -0.58458331341E+02 -0.21928931588E+03  0.51147025440E+03  0.92019057935E+02 0.  0.
        254    2    1    2    0    0 -0.44903132803E+03  0.58458331341E+02 -0.66687248578E+03  0.12041519301E+04  0.89454818121E+03 0.  0.
         23    2    4    4    0    0  0.25646136674E+03 -0.34481294823E+02 -0.11128201083E+03  0.29676174378E+03  0.93394080722E+02 0.  0.
         23    2    4    4    0    0 -0.70549269477E+03  0.92939626165E+02 -0.55559047495E+03  0.90739018636E+03  0.91205580713E+02 0.  0.
         11    1    3    3    0    0  0.28554844135E+02 -0.25290876967E+02 -0.53051394555E+01  0.38511713620E+02  0.00000000000E+00 0.  1.
        -11    1    3    3    0    0  0.42047648390E+03 -0.33167454375E+02 -0.21398417642E+03  0.47295854078E+03  0.00000000000E+00 0. -1.
          1    1    5    5  502    0  0.23407335287E+03 -0.32000448031E+02 -0.64590684120E+02  0.24492104784E+03  0.00000000000E+00 0. -1.
          1    1    6    6  503    0 -0.63642505648E+03  0.58682806446E+02 -0.47884254597E+03  0.79860547715E+03  0.00000000000E+00 0. -1.
         -1    1    5    5    0  502  0.22388013869E+02 -0.24808467928E+01 -0.46691326711E+02  0.51840695943E+02  0.00000000000E+00 0.  1.
         -1    1    6    6    0  503 -0.69067638286E+02  0.34256819718E+02 -0.76747928975E+02  0.10878470921E+03  0.00000000000E+00 0.  1.
<mgrwt>
<rscale>  0 0.14690394E+04</rscale>
<asrwt>0</asrwt>
<pdfrwt beam="1">  1        2 0.20013723E+00 0.14690394E+04</pdfrwt>
<pdfrwt beam="2">  1       -2 0.63804646E-01 0.14690394E+04</pdfrwt>
<totfact> 0.36328121E+01</totfact>
</mgrwt>
</event>
<event>
12    1  0.4802930E-008  0.1279989E+04  0.7818608E-02  0.9045586E-01
          2   -1    0    0  501    0  0.00000000000E+00  0.00000000000E+00  0.12965507387E+04  0.12965507387E+04  0.00000000000E+00 0. -1.
         -2   -1    0    0    0  501 -0.00000000000E+00 -0.00000000000E+00 -0.31590987959E+03  0.31590987959E+03  0.00000000000E+00 0.  1.
         23    2    1    2    0    0  0.12162268043E+03 -0.20190131218E+02  0.62634861281E+03  0.64640717360E+03  0.10163627069E+03 0.  0.
        254    2    1    2    0    0 -0.12162268043E+03  0.20190131218E+02  0.35429224631E+03  0.96605344470E+03  0.89024521590E+03 0.  0.
         23    2    4    4    0    0 -0.44001653496E+03 -0.14346954612E+03  0.25261163310E+02  0.47163920459E+03  0.87220130934E+02 0.  0.
         23    2    4    4    0    0  0.31839385453E+03  0.16365967733E+03  0.32903108301E+03  0.49441424011E+03  0.89581530730E+02 0.  0.
         11    1    3    3    0    0  0.61337023851E+02 -0.16659990189E+01  0.10781847507E+03  0.12405575204E+03  0.00000000000E+00 0.  1.
        -11    1    3    3    0    0  0.60285656576E+02 -0.18524132199E+02  0.51853013774E+03  0.52235142156E+03  0.00000000000E+00 0. -1.
          1    1    5    5  502    0 -0.12128608727E+03 -0.58016664406E+02 -0.28135018569E+02  0.13736021106E+03  0.00000000000E+00 0. -1.
          1    1    6    6  503    0  0.42026742906E+02  0.44401120149E+02  0.23438356493E+02  0.65475668342E+02  0.00000000000E+00 0. -1.
         -1    1    5    5    0  502 -0.31873044769E+03 -0.85452881711E+02  0.53396181878E+02  0.33427899353E+03  0.00000000000E+00 0.  1.
         -1    1    6    6    0  503  0.27636711163E+03  0.11925855719E+03  0.30559272651E+03  0.42893857176E+03  0.00000000000E+00 0.  1.
<mgrwt>
<rscale>  0 0.12799894E+04</rscale>
<asrwt>0</asrwt>
<pdfrwt beam="1">  1        2 0.19946934E+00 0.12799894E+04</pdfrwt>
<pdfrwt beam="2">  1       -2 0.48601521E-01 0.12799894E+04</pdfrwt>
<totfact> 0.65338409E+01</totfact>
</mgrwt>
</event>
<event>
12    1  0.4802930E-008  0.3467832E+04  0.7818608E-02  0.8121456E-01
          2   -1    0    0  501    0  0.00000000000E+00  0.00000000000E+00  0.15353840286E+04  0.15353840286E+04  0.00000000000E+00 0. -1.
         -2   -1    0    0    0  501 -0.00000000000E+00 -0.00000000000E+00 -0.19581185760E+04  0.19581185760E+04  0.00000000000E+00 0.  1.
         23    2    1    2    0    0 -0.13651568797E+04  0.40798980524E+03 -0.95361595749E+03  0.17170485763E+04  0.93613201462E+02 0.  0.
        254    2    1    2    0    0  0.13651568797E+04 -0.40798980524E+03  0.53088141013E+03  0.17764540284E+04  0.91861028513E+03 0.  0.
         23    2    4    4    0    0  0.13340508525E+04 -0.58856146610E+03  0.34773294716E+03  0.15018826078E+04  0.92934862368E+02 0.  0.
         23    2    4    4    0    0  0.31106027240E+02  0.18057166085E+03  0.18314846298E+03  0.27457142061E+03  0.90952712401E+02 0.  0.
         11    1    3    3    0    0 -0.11532727488E+04  0.36540956095E+03 -0.84071468948E+03  0.14732153167E+04  0.00000000000E+00 0.  1.
        -11    1    3    3    0    0 -0.21188413093E+03  0.42580244293E+02 -0.11290126801E+03  0.24383325955E+03  0.00000000000E+00 0. -1.
          2    1    5    5  502    0  0.10047425399E+04 -0.41757076139E+03  0.29294087882E+03  0.11268040073E+04  0.00000000000E+00 0. -1.
          1    1    6    6  503    0  0.34930440836E+02  0.14916571222E+02  0.24700056479E+02  0.45307091985E+02  0.00000000000E+00 0.  1.
         -2    1    5    5    0  502  0.32930831252E+03 -0.17099070470E+03  0.54792068338E+02  0.37507860048E+03  0.00000000000E+00 0.  1.
         -1    1    6    6    0  503 -0.38244135959E+01  0.16565508963E+03  0.15844840650E+03  0.22926432863E+03  0.00000000000E+00 0. -1.
<mgrwt>
<rscale>  0 0.34678316E+04</rscale>
<asrwt>0</asrwt>
<pdfrwt beam="1">  1        2 0.23621293E+00 0.34678316E+04</pdfrwt>
<pdfrwt beam="2">  1       -2 0.30124901E+00 0.34678316E+04</pdfrwt>
<totfact> 0.31188731E-01</totfact>
</mgrwt>
</event>
<event>
12    1  0.4802930E-008  0.1090809E+04  0.7818608E-02  0.9214197E-01
         -1   -1    0    0    0  501 -0.00000000000E+00  0.00000000000E+00  0.45943029251E+03  0.45943029251E+03  0.00000000000E+00 0.  1.
          1   -1    0    0  501    0  0.00000000000E+00 -0.00000000000E+00 -0.64746703328E+03  0.64746703328E+03  0.00000000000E+00 0. -1.
         23    2    1    2    0    0 -0.12859622197E+03  0.43358255825E+02  0.43530924734E+02  0.16810641782E+03  0.89150993558E+02 0.  0.
        254    2    1    2    0    0  0.12859622197E+03 -0.43358255825E+02 -0.23156766551E+03  0.93879090796E+03  0.89960427884E+03 0.  0.
         23    2    4    4    0    0 -0.83967469197E+02 -0.34904271676E+03  0.14792556145E+03  0.39926947249E+03  0.93020352201E+02 0.  0.
         23    2    4    4    0    0  0.21256369117E+03  0.30568446094E+03 -0.37949322695E+03  0.53952143547E+03  0.91880126093E+02 0.  0.
         13    1    3    3    0    0 -0.61357317443E+01  0.26658810478E+02 -0.15170384650E+02  0.31280664164E+02  0.00000000000E+00 0. -1.
        -13    1    3    3    0    0 -0.12246049023E+03  0.16699445347E+02  0.58701309384E+02  0.13682575366E+03  0.00000000000E+00 0.  1.
          2    1    5    5  502    0 -0.40628311030E+02 -0.40628349842E+02  0.38489083302E+02  0.69157298974E+02  0.00000000000E+00 0.  1.
          1    1    6    6  503    0  0.40802968142E+02  0.86822041349E+02 -0.49667403875E+02  0.10802684889E+03  0.00000000000E+00 0. -1.
         -2    1    5    5    0  502 -0.43339158168E+02 -0.30841436692E+03  0.10943647815E+03  0.33011217351E+03  0.00000000000E+00 0. -1.
         -1    1    6    6    0  503  0.17176072303E+03  0.21886241959E+03 -0.32982582308E+03  0.43149458658E+03  0.00000000000E+00 0.  1.
<mgrwt>
<rscale>  0 0.10908088E+04</rscale>
<asrwt>0</asrwt>
<pdfrwt beam="1">  1        1 0.99610313E-01 0.10908088E+04</pdfrwt>
<pdfrwt beam="2">  1       -1 0.70681583E-01 0.10908088E+04</pdfrwt>
<totfact> 0.61799223E+01</totfact>
</mgrwt>
</event>
<event>
12    1  0.4802930E-008  0.2435280E+04  0.7818608E-02  0.8426412E-01
          2   -1    0    0  501    0  0.00000000000E+00  0.00000000000E+00  0.12231824316E+04  0.12231824316E+04  0.00000000000E+00 0. -1.
         -2   -1    0    0    0  501 -0.00000000000E+00 -0.00000000000E+00 -0.12121231774E+04  0.12121231774E+04  0.00000000000E+00 0.  1.
         23    2    1    2    0    0  0.94095718863E+02 -0.49900012030E+03  0.92287557582E+03  0.10571644137E+04  0.89678005833E+02 0.  0.
        254    2    1    2    0    0 -0.94095718863E+02  0.49900012030E+03 -0.91181632165E+03  0.13781411953E+04  0.90000501402E+03 0.  0.
         23    2    4    4    0    0  0.10661072063E+03 -0.21949225908E+03 -0.36859759540E+03  0.45089678879E+03  0.88887734010E+02 0.  0.
         23    2    4    4    0    0 -0.20070643949E+03  0.71849237938E+03 -0.54321872625E+03  0.92724440647E+03  0.90450155861E+02 0.  0.
         13    1    3    3    0    0  0.77238480764E+02 -0.25468855725E+03  0.55079893414E+03  0.61172829750E+03  0.00000000000E+00 0. -1.
        -13    1    3    3    0    0  0.16857238099E+02 -0.24431156305E+03  0.37207664168E+03  0.44543611618E+03  0.00000000000E+00 0.  1.
          2    1    5    5  502    0 -0.88597845021E+01 -0.53191287077E+02 -0.10969724950E+03  0.12223459147E+03  0.00000000000E+00 0. -1.
          4    1    6    6  503    0 -0.21680334255E+02  0.17554956175E+02 -0.17026758541E+02  0.32682164649E+02  0.00000000000E+00 0. -1.
         -2    1    5    5    0  502  0.11547050513E+03 -0.16630097200E+03 -0.25890034589E+03  0.32866219732E+03  0.00000000000E+00 0.  1.
         -4    1    6    6    0  503 -0.17902610523E+03  0.70093742321E+03 -0.52619196771E+03  0.89456224182E+03  0.00000000000E+00 0.  1.
<mgrwt>
<rscale>  0 0.24352805E+04</rscale>
<asrwt>0</asrwt>
<pdfrwt beam="1">  1        2 0.18818191E+00 0.24352805E+04</pdfrwt>
<pdfrwt beam="2">  1       -2 0.18648049E+00 0.24352805E+04</pdfrwt>
<totfact> 0.26932173E+00</totfact>
</mgrwt>
</event>
<event>
12    1  0.4802930E-008  0.1644552E+04  0.7818608E-02  0.8793636E-01
          2   -1    0    0  501    0  0.00000000000E+00  0.00000000000E+00  0.16270709771E+04  0.16270709771E+04  0.00000000000E+00 0. -1.
         -2   -1    0    0    0  501 -0.00000000000E+00 -0.00000000000E+00 -0.41555498132E+03  0.41555498132E+03  0.00000000000E+00 0.  1.
         23    2    1    2    0    0  0.67551374341E+02 -0.24884842086E+03 -0.21311272585E+03  0.34664529359E+03  0.90869141683E+02 0.  0.
        254    2    1    2    0    0 -0.67551374341E+02  0.24884842086E+03  0.14246287217E+04  0.16959806649E+04  0.88334290978E+03 0.  0.
         23    2    4    4    0    0 -0.99129540647E+00  0.55298201672E+03  0.11115171145E+04  0.12448794560E+04  0.92002558831E+02 0.  0.
         23    2    4    4    0    0 -0.66560078934E+02 -0.30413359586E+03  0.31311160720E+03  0.45110120883E+03  0.92335983252E+02 0.  0.
         13    1    3    3    0    0  0.79964509597E+02 -0.24551382653E+03 -0.21133992409E+03  0.33367038425E+03  0.00000000000E+00 0.  1.
        -13    1    3    3    0    0 -0.12413135257E+02 -0.33345943225E+01 -0.17728017634E+01  0.12974909336E+02  0.00000000000E+00 0. -1.
          4    1    5    5  502    0 -0.14329620555E+01  0.35763879121E+03  0.61671494148E+03  0.71291295219E+03  0.00000000000E+00 0. -1.
          3    1    6    6  503    0 -0.88747643504E+02 -0.21790694631E+03  0.23714208287E+03  0.33405979845E+03  0.00000000000E+00 0. -1.
         -4    1    5    5    0  502  0.44166664907E+00  0.19534322551E+03  0.49480217299E+03  0.53196650385E+03  0.00000000000E+00 0.  1.
         -3    1    6    6    0  503  0.22187564570E+02 -0.86226649557E+02  0.75969524334E+02  0.11704141038E+03  0.00000000000E+00 0.  1.
<mgrwt>
<rscale>  0 0.16445515E+04</rscale>
<asrwt>0</asrwt>
<pdfrwt beam="1">  1        2 0.25031861E+00 0.16445515E+04</pdfrwt>
<pdfrwt beam="2">  1       -2 0.63931536E-01 0.16445515E+04</pdfrwt>
<totfact> 0.23281375E+01</totfact>
</mgrwt>
</event>
<event>
12    1  0.4936418E-008  0.1627418E+04  0.7818608E-02  0.8803879E-01
         -2   -1    0    0    0  501 -0.00000000000E+00  0.00000000000E+00  0.27680002224E+03  0.27680002224E+03  0.00000000000E+00 0.  1.
          2   -1    0    0  501    0  0.00000000000E+00 -0.00000000000E+00 -0.23920588775E+04  0.23920588775E+04  0.00000000000E+00 0. -1.
         23    2    1    2    0    0  0.51784615307E+03  0.20170658047E+02 -0.40007452028E+03  0.66101947058E+03  0.91190048874E+02 0.  0.
        254    2    1    2    0    0 -0.51784615307E+03 -0.20170658047E+02 -0.17151843350E+04  0.20078394291E+04  0.90608519281E+03 0.  0.
         23    2    4    4    0    0  0.10504851490E+02  0.26835600934E+03 -0.13364114187E+03  0.31320906299E+03  0.90081422526E+02 0.  0.
         23    2    4    4    0    0 -0.52835100456E+03 -0.28852666739E+03 -0.15815431931E+04  0.16946303661E+04  0.89948788063E+02 0.  0.
         13    1    3    3    0    0  0.12487840587E+03  0.18469261154E+02 -0.53693414980E+02  0.13718131313E+03  0.00000000000E+00 0. -1.
        -13    1    3    3    0    0  0.39296774720E+03  0.17013968933E+01 -0.34638110530E+03  0.52383815745E+03  0.00000000000E+00 0.  1.
          2    1    5    5  502    0 -0.11495595475E+02 -0.13153970019E+01 -0.31250810355E+00  0.11574828116E+02  0.00000000000E+00 0. -1.
          1    1    6    6  503    0 -0.26403295417E+02 -0.36642408717E+02 -0.86403370962E+02  0.97495346756E+02  0.00000000000E+00 0. -1.
         -2    1    5    5    0  502  0.22000446965E+02  0.26967140634E+03 -0.13332863377E+03  0.30163423488E+03  0.00000000000E+00 0.  1.
         -1    1    6    6    0  503 -0.50194770914E+03 -0.25188425867E+03 -0.14951398221E+04  0.15971350194E+04  0.00000000000E+00 0.  1.
<mgrwt>
<rscale>  0 0.16274175E+04</rscale>
<asrwt>0</asrwt>
<pdfrwt beam="1">  1        2 0.36800906E+00 0.16274175E+04</pdfrwt>
<pdfrwt beam="2">  1       -2 0.42584619E-01 0.16274175E+04</pdfrwt>
<totfact> 0.20125153E+01</totfact>
</mgrwt>
</event>
<event>
12    1  0.4802930E-008  0.1385667E+04  0.7818608E-02  0.8964259E-01
         -1   -1    0    0    0  501 -0.00000000000E+00  0.00000000000E+00  0.57703053894E+03  0.57703053894E+03  0.00000000000E+00 0.  1.
          1   -1    0    0  501    0  0.00000000000E+00 -0.00000000000E+00 -0.83187671518E+03  0.83187671518E+03  0.00000000000E+00 0. -1.
         23    2    1    2    0    0  0.10598029475E+03  0.29099089352E+03 -0.31428794873E+03  0.45069258469E+03  0.91866033924E+02 0.  0.
        254    2    1    2    0    0 -0.10598029475E+03 -0.29099089352E+03  0.59441772495E+02  0.95821466942E+03  0.90483949151E+03 0.  0.
         23    2    4    4    0    0 -0.45429078177E+03 -0.35322359995E+03 -0.25814906780E+02  0.58207710341E+03  0.83667908670E+02 0.  0.
         23    2    4    4    0    0  0.34831048702E+03  0.62232706431E+02  0.85256679275E+02  0.37613756601E+03  0.94961371546E+02 0.  0.
         11    1    3    3    0    0 -0.15389718385E+02  0.56715788028E+02 -0.66312190379E+02  0.88604913162E+02  0.00000000000E+00 0.  1.
        -11    1    3    3    0    0  0.12137001313E+03  0.23427510549E+03 -0.24797575836E+03  0.36208767153E+03  0.00000000000E+00 0. -1.
          1    1    5    5  502    0 -0.16013939297E+03 -0.17661923666E+03 -0.10366888625E+02  0.23863455810E+03  0.00000000000E+00 0. -1.
          1    1    6    6  503    0  0.18149128105E+03  0.72774671548E+02  0.19468997555E+02  0.19650516477E+03  0.00000000000E+00 0. -1.
         -1    1    5    5    0  502 -0.29415138880E+03 -0.17660436329E+03 -0.15448018155E+02  0.34344254531E+03  0.00000000000E+00 0.  1.
         -1    1    6    6    0  503  0.16681920597E+03 -0.10541965117E+02  0.65787681720E+02  0.17963240124E+03  0.00000000000E+00 0.  1.
<mgrwt>
<rscale>  0 0.13856670E+04</rscale>
<asrwt>0</asrwt>
<pdfrwt beam="1">  1        1 0.12798103E+00 0.13856670E+04</pdfrwt>
<pdfrwt beam="2">  1       -1 0.88773929E-01 0.13856670E+04</pdfrwt>
<totfact> 0.25229509E+01</totfact>
</mgrwt>
</event>
<event>
12    1  0.4802930E-008  0.1444197E+04  0.7818608E-02  0.8922433E-01
          3   -1    0    0  501    0  0.00000000000E+00  0.00000000000E+00  0.37746524211E+03  0.37746524211E+03  0.00000000000E+00 0. -1.
         -3   -1    0    0    0  501 -0.00000000000E+00 -0.00000000000E+00 -0.13813896531E+04  0.13813896531E+04  0.00000000000E+00 0.  1.
         23    2    1    2    0    0 -0.35083756570E+03  0.42606752386E+02 -0.62211690354E+03  0.72209829057E+03  0.97438014739E+02 0.  0.
        254    2    1    2    0    0  0.35083756570E+03 -0.42606752386E+02 -0.38180750746E+03  0.10367566047E+04  0.89676359855E+03 0.  0.
         23    2    4    4    0    0  0.46400010291E+03 -0.44834896452E+02 -0.60562294382E+03  0.76972434995E+03  0.91597824105E+02 0.  0.
         23    2    4    4    0    0 -0.11316253721E+03  0.22281440661E+01  0.22381543636E+03  0.26703225470E+03  0.91663248052E+02 0.  0.
         11    1    3    3    0    0 -0.43674457589E+02 -0.96123826582E+01 -0.32703884692E+02  0.55402168009E+02  0.00000000000E+00 0. -1.
        -11    1    3    3    0    0 -0.30716310811E+03  0.52219135045E+02 -0.58941301885E+03  0.66669612256E+03  0.00000000000E+00 0.  1.
          3    1    6    6  502    0 -0.10292937009E+03  0.28267985203E+02  0.12520289882E+03  0.16452750556E+03  0.00000000000E+00 0. -1.
          3    1    5    5  503    0  0.40420763552E+03 -0.45649875777E+02 -0.47051278511E+03  0.62197267201E+03  0.00000000000E+00 0.  1.
         -3    1    5    5    0  503  0.59792467393E+02  0.81497932499E+00 -0.13511015871E+03  0.14775167794E+03  0.00000000000E+00 0. -1.
         -3    1    6    6    0  502 -0.10233167127E+02 -0.26039841137E+02  0.98612537541E+02  0.10250474914E+03  0.00000000000E+00 0.  1.
<mgrwt>
<rscale>  0 0.14441975E+04</rscale>
<asrwt>0</asrwt>
<pdfrwt beam="1">  1        3 0.58071577E-01 0.14441975E+04</pdfrwt>
<pdfrwt beam="2">  1       -3 0.21252148E+00 0.14441975E+04</pdfrwt>
<totfact> 0.90492197E-01</totfact>
</mgrwt>
</event>
<event>
12    1  0.4802930E-008  0.1775612E+04  0.7818608E-02  0.8719378E-01
         -2   -1    0    0    0  501 -0.00000000000E+00  0.00000000000E+00  0.55618499590E+03  0.55618499590E+03  0.00000000000E+00 0.  1.
          2   -1    0    0  501    0  0.00000000000E+00 -0.00000000000E+00 -0.14171528316E+04  0.14171528316E+04  0.00000000000E+00 0. -1.
         23    2    1    2    0    0 -0.30357287556E+03  0.20035685714E+03 -0.10550857753E+04  0.11211620904E+04  0.10723375726E+03 0.  0.
        254    2    1    2    0    0  0.30357287556E+03 -0.20035685714E+03  0.19411793961E+03  0.85217573710E+03  0.74580315864E+03 0.  0.
         23    2    4    4    0    0  0.49544606001E+02 -0.38055129958E+03  0.31556283014E+03  0.50565299434E+03  0.93973886410E+02 0.  0.
         23    2    4    4    0    0  0.25402826956E+03  0.18019444243E+03 -0.12144489053E+03  0.34652274276E+03  0.91261990944E+02 0.  0.
         13    1    3    3    0    0 -0.76782838707E+02  0.97369709998E+02 -0.45110130397E+03  0.46783421336E+03  0.00000000000E+00 0.  1.
        -13    1    3    3    0    0 -0.22679003686E+03  0.10298714714E+03 -0.60398447134E+03  0.65332787704E+03  0.00000000000E+00 0. -1.
          2    1    5    5  502    0 -0.24006901498E+02 -0.41678823320E+02  0.32813330035E+02  0.58225168620E+02  0.00000000000E+00 0. -1.
          1    1    6    6  503    0 -0.19208986322E+01 -0.27239826664E+01  0.61844694684E+01  0.70254961197E+01  0.00000000000E+00 0. -1.
         -2    1    5    5    0  502  0.73551507499E+02 -0.33887247626E+03  0.28274950011E+03  0.44742782572E+03  0.00000000000E+00 0.  1.
         -1    1    6    6    0  503  0.25594916819E+03  0.18291842510E+03 -0.12762936000E+03  0.33949724664E+03  0.00000000000E+00 0.  1.
<mgrwt>
<rscale>  0 0.17756116E+04</rscale>
<asrwt>0</asrwt>
<pdfrwt beam="1">  1        2 0.21802351E+00 0.17756116E+04</pdfrwt>
<pdfrwt beam="2">  1       -2 0.85566922E-01 0.17756116E+04</pdfrwt>
<totfact> 0.15882125E+01</totfact>
</mgrwt>
</event>
<event>
12    1  0.4802930E-008  0.1463385E+04  0.7818608E-02  0.8909174E-01
          1   -1    0    0  501    0  0.00000000000E+00  0.00000000000E+00  0.18773775343E+04  0.18773775343E+04  0.00000000000E+00 0. -1.
         -1   -1    0    0    0  501 -0.00000000000E+00 -0.00000000000E+00 -0.28517102506E+03  0.28517102506E+03  0.00000000000E+00 0.  1.
         23    2    1    2    0    0  0.37361929324E+03 -0.35103519252E+02  0.14551937623E+03  0.41263120047E+03  0.90911965110E+02 0.  0.
        254    2    1    2    0    0 -0.37361929324E+03  0.35103519252E+02  0.14466871330E+04  0.17499173589E+04  0.91021067274E+03 0.  0.
         23    2    4    4    0    0  0.27448842119E+03 -0.33794167494E+01  0.23596062953E+03  0.37309952957E+03  0.90390964452E+02 0.  0.
         23    2    4    4    0    0 -0.64810771443E+03  0.38482936001E+02  0.12107265035E+04  0.13768178293E+04  0.90797153183E+02 0.  0.
         13    1    3    3    0    0  0.25868897228E+03 -0.58640667802E+02  0.12617019652E+03  0.29373054112E+03  0.00000000000E+00 0.  1.
        -13    1    3    3    0    0  0.11493032096E+03  0.23537148550E+02  0.19349179707E+02  0.11890065935E+03  0.00000000000E+00 0. -1.
          3    1    5    5  502    0  0.27888556063E+03  0.85019496836E+00  0.21754646372E+03  0.35370092258E+03  0.00000000000E+00 0. -1.
          3    1    6    6  503    0 -0.56490331290E+03  0.28340318458E+02  0.11098080546E+04  0.12456294973E+04  0.00000000000E+00 0. -1.
         -3    1    5    5    0  502 -0.43971394428E+01 -0.42296117177E+01  0.18414165811E+02  0.19398606988E+02  0.00000000000E+00 0.  1.
         -3    1    6    6    0  503 -0.83204401530E+02  0.10142617543E+02  0.10091844891E+03  0.13118833201E+03  0.00000000000E+00 0.  1.
<mgrwt>
<rscale>  0 0.14633847E+04</rscale>
<asrwt>0</asrwt>
<pdfrwt beam="1">  1        1 0.28882731E+00 0.14633847E+04</pdfrwt>
<pdfrwt beam="2">  1       -1 0.43872467E-01 0.14633847E+04</pdfrwt>
<totfact> 0.17989615E+01</totfact>
</mgrwt>
</event>
<event>
12    1  0.4802930E-008  0.1678642E+04  0.7818608E-02  0.8773640E-01
         -2   -1    0    0    0  501 -0.00000000000E+00  0.00000000000E+00  0.39452855774E+03  0.39452855774E+03  0.00000000000E+00 0.  1.
          2   -1    0    0  501    0  0.00000000000E+00 -0.00000000000E+00 -0.17855736336E+04  0.17855736336E+04  0.00000000000E+00 0. -1.
         23    2    1    2    0    0 -0.50635192542E+03 -0.22403053657E+03 -0.19533141096E+03  0.59529578822E+03  0.98187380413E+02 0.  0.
        254    2    1    2    0    0  0.50635192542E+03  0.22403053657E+03 -0.11957136649E+04  0.15848064031E+04  0.88051020053E+03 0.  0.
         23    2    4    4    0    0 -0.23172238647E+03 -0.39036165815E+02 -0.27130314361E+03  0.36963489918E+03  0.88348606815E+02 0.  0.
         23    2    4    4    0    0  0.73807431189E+03  0.26306670238E+03 -0.92441052128E+03  0.12151715039E+04  0.90272876995E+02 0.  0.
         11    1    3    3    0    0 -0.20001065066E+02 -0.34364301820E+02 -0.20760019964E+02  0.44854501137E+02  0.00000000000E+00 0. -1.
        -11    1    3    3    0    0 -0.48635086035E+03 -0.18966623475E+03 -0.17457139100E+03  0.55044128708E+03  0.00000000000E+00 0.  1.
          2    1    5    5  502    0 -0.16963211287E+03 -0.61879121186E+02 -0.22680102327E+03  0.28990133410E+03  0.00000000000E+00 0.  1.
          3    1    6    6  503    0  0.76947229120E+02  0.56856762039E+01 -0.11928028449E+03  0.14205980871E+03  0.00000000000E+00 0. -1.
         -2    1    5    5    0  502 -0.62090273605E+02  0.22842955371E+02 -0.44502120340E+02  0.79733565085E+02  0.00000000000E+00 0. -1.
         -3    1    6    6    0  503  0.66112708277E+03  0.25738102618E+03 -0.80513023679E+03  0.10731116952E+04  0.00000000000E+00 0.  1.
<mgrwt>
<rscale>  0 0.16786421E+04</rscale>
<asrwt>0</asrwt>
<pdfrwt beam="1">  1        2 0.27470364E+00 0.16786421E+04</pdfrwt>
<pdfrwt beam="2">  1       -2 0.60696701E-01 0.16786421E+04</pdfrwt>
<totfact> 0.21170924E+01</totfact>
</mgrwt>
</event>
<event>
12    1  0.4802930E-008  0.1499959E+04  0.7818608E-02  0.8884480E-01
         -2   -1    0    0    0  501 -0.00000000000E+00  0.00000000000E+00  0.68598321325E+03  0.68598321325E+03  0.00000000000E+00 0.  1.
          2   -1    0    0  501    0  0.00000000000E+00 -0.00000000000E+00 -0.81994652985E+03  0.81994652985E+03  0.00000000000E+00 0. -1.
         23    2    1    2    0    0 -0.39938215385E+03 -0.21931313398E+03  0.91131324565E+02  0.47348037360E+03  0.90963675793E+02 0.  0.
        254    2    1    2    0    0  0.39938215385E+03  0.21931313398E+03 -0.22509464117E+03  0.10324493695E+04  0.89871004643E+03 0.  0.
         23    2    4    4    0    0  0.63721249411E+03  0.17390475065E+02 -0.27945466624E+03  0.70307499431E+03  0.99384837207E+02 0.  0.
         23    2    4    4    0    0 -0.23783034026E+03  0.20192265891E+03  0.54360025074E+02  0.32937437519E+03  0.90534169119E+02 0.  0.
         11    1    3    3    0    0 -0.21227419231E+03 -0.79674783690E+02  0.12325816337E+02  0.22706899750E+03  0.00000000000E+00 0. -1.
        -11    1    3    3    0    0 -0.18710796154E+03 -0.13963835029E+03  0.78805508228E+02  0.24641137610E+03  0.00000000000E+00 0.  1.
          1    1    5    5  502    0  0.46196460893E+03  0.45102632470E+02 -0.23454181599E+03  0.52005327689E+03  0.00000000000E+00 0. -1.
          3    1    6    6  503    0 -0.22195848168E+03  0.14385196539E+03  0.40254161874E+02  0.26754317985E+03  0.00000000000E+00 0. -1.
         -1    1    5    5    0  502  0.17524788518E+03 -0.27712157404E+02 -0.44912850248E+02  0.18302171742E+03  0.00000000000E+00 0.  1.
         -3    1    6    6    0  503 -0.15871858579E+02  0.58070693521E+02  0.14105863200E+02  0.61831195342E+02  0.00000000000E+00 0.  1.
<mgrwt>
<rscale>  0 0.14999594E+04</rscale>
<asrwt>0</asrwt>
<pdfrwt beam="1">  1        2 0.12614562E+00 0.14999594E+04</pdfrwt>
<pdfrwt beam="2">  1       -2 0.10553588E+00 0.14999594E+04</pdfrwt>
<totfact> 0.23386413E+01</totfact>
</mgrwt>
</event>
<event>
12    1  0.4802930E-008  0.2347983E+04  0.7818608E-02  0.8459239E-01
          1   -1    0    0  501    0  0.00000000000E+00  0.00000000000E+00  0.26867673816E+04  0.26867673816E+04  0.00000000000E+00 0. -1.
         -1   -1    0    0    0  501 -0.00000000000E+00 -0.00000000000E+00 -0.51297940757E+03  0.51297940757E+03  0.00000000000E+00 0.  1.
         23    2    1    2    0    0 -0.19303279071E+02 -0.29870558100E+03  0.20729446894E+04  0.20968176566E+04  0.99734441207E+02 0.  0.
        254    2    1    2    0    0  0.19303279071E+02  0.29870558100E+03  0.10084328463E+03  0.11029291326E+04  0.10567334871E+04 0.  0.
         23    2    4    4    0    0  0.14423357079E+03  0.63803580351E+03  0.24555721641E+03  0.70395470407E+03  0.85795508862E+02 0.  0.
         23    2    4    4    0    0 -0.12493029172E+03 -0.33933022251E+03 -0.14471393178E+03  0.39897442856E+03  0.86521066182E+02 0.  0.
         11    1    3    3    0    0  0.72877357150E+01 -0.23338826861E+03  0.17923674101E+04  0.18075132441E+04  0.00000000000E+00 0. -1.
        -11    1    3    3    0    0 -0.26591014786E+02 -0.65317312389E+02  0.28057727936E+03  0.28930441244E+03  0.00000000000E+00 0.  1.
          1    1    5    5  502    0  0.88795331919E+02  0.51767378244E+03  0.17370447220E+03  0.55321243628E+03  0.00000000000E+00 0.  1.
          3    1    6    6  503    0 -0.73119567548E+02 -0.12193746202E+03 -0.92034252206E+02  0.16936799987E+03  0.00000000000E+00 0. -1.
         -1    1    5    5    0  502  0.55438238876E+02  0.12036202107E+03  0.71852744213E+02  0.15074226779E+03  0.00000000000E+00 0. -1.
         -3    1    6    6    0  503 -0.51810724175E+02 -0.21739276049E+03 -0.52679679579E+02  0.22960642869E+03  0.00000000000E+00 0.  1.
<mgrwt>
<rscale>  0 0.23479833E+04</rscale>
<asrwt>0</asrwt>
<pdfrwt beam="1">  1        1 0.41334882E+00 0.23479833E+04</pdfrwt>
<pdfrwt beam="2">  1       -1 0.78919910E-01 0.23479833E+04</pdfrwt>
<totfact> 0.14492635E+00</totfact>
</mgrwt>
</event>
<event>
12    1  0.4802930E-008  0.1064585E+04  0.7818608E-02  0.9240414E-01
         -2   -1    0    0    0  501 -0.00000000000E+00  0.00000000000E+00  0.17026559668E+03  0.17026559668E+03  0.00000000000E+00 0.  1.
          2   -1    0    0  501    0  0.00000000000E+00 -0.00000000000E+00 -0.16640783696E+04  0.16640783696E+04  0.00000000000E+00 0. -1.
         23    2    1    2    0    0 -0.15139379802E+02  0.78534142136E+02 -0.51809505782E+02  0.13278714740E+03  0.92473722341E+02 0.  0.
        254    2    1    2    0    0  0.15139379802E+02 -0.78534142136E+02 -0.14420032671E+04  0.17015568189E+04  0.89973627977E+03 0.  0.
         23    2    4    4    0    0 -0.65317393871E+02 -0.29682738401E+03 -0.14162358566E+04  0.14510316574E+04  0.86000065389E+02 0.  0.
         23    2    4    4    0    0  0.80456773673E+02  0.21829324187E+03 -0.25767410473E+02  0.25052516148E+03  0.89295381817E+02 0.  0.
         11    1    3    3    0    0 -0.34912326227E+01  0.71189245897E+02  0.77144648863E+01  0.71691076189E+02  0.00000000000E+00 0.  1.
        -11    1    3    3    0    0 -0.11648147179E+02  0.73448962392E+01 -0.59523970668E+02  0.61096071212E+02  0.00000000000E+00 0. -1.
          2    1    5    5  502    0 -0.79923122264E+02 -0.28622547686E+03 -0.13110134170E+04  0.13442726318E+04  0.00000000000E+00 0.  1.
          4    1    6    6  503    0  0.90251162980E+02  0.21887462255E+03 -0.31995243024E+02  0.23890388944E+03  0.00000000000E+00 0.  1.
         -2    1    5    5    0  502  0.14605728393E+02 -0.10601907148E+02 -0.10522243966E+03  0.10675902559E+03  0.00000000000E+00 0. -1.
         -4    1    6    6    0  503 -0.97943893069E+01 -0.58138067700E+00  0.62278325513E+01  0.11621272033E+02  0.00000000000E+00 0. -1.
<mgrwt>
<rscale>  0 0.10645850E+04</rscale>
<asrwt>0</asrwt>
<pdfrwt beam="1">  1        2 0.25601206E+00 0.10645850E+04</pdfrwt>
<pdfrwt beam="2">  1       -2 0.26194707E-01 0.10645850E+04</pdfrwt>
<totfact> 0.13460434E+02</totfact>
</mgrwt>
</event>
<event>
12    1  0.4802930E-008  0.1330033E+04  0.7818608E-02  0.9006082E-01
          2   -1    0    0  501    0  0.00000000000E+00  0.00000000000E+00  0.85649733025E+03  0.85649733025E+03  0.00000000000E+00 0. -1.
         -2   -1    0    0    0  501 -0.00000000000E+00 -0.00000000000E+00 -0.51634330732E+03  0.51634330732E+03  0.00000000000E+00 0.  1.
         23    2    1    2    0    0 -0.28677772823E+03  0.10636416984E+03 -0.83408527798E+02  0.32997750444E+03  0.91506113940E+02 0.  0.
        254    2    1    2    0    0  0.28677772823E+03 -0.10636416984E+03  0.42356255073E+03  0.10428631331E+04  0.90255386433E+03 0.  0.
         23    2    4    4    0    0 -0.69209498980E+02  0.34880579769E+03  0.17543825909E+03  0.40746483759E+03  0.93774046883E+02 0.  0.
         23    2    4    4    0    0  0.35598722721E+03 -0.45516996753E+03  0.24812429164E+03  0.63539829554E+03  0.90877525210E+02 0.  0.
         11    1    3    3    0    0 -0.28243355567E+03  0.10479378179E+03 -0.96314033582E+02  0.31627020589E+03  0.00000000000E+00 0.  1.
        -11    1    3    3    0    0 -0.43441725662E+01  0.15703880509E+01  0.12905505784E+02  0.13707298547E+02  0.00000000000E+00 0. -1.
          4    1    5    5  502    0 -0.74897395123E+02  0.28428441949E+03  0.17609408650E+03  0.34268991561E+03  0.00000000000E+00 0. -1.
          1    1    6    6  503    0  0.15614260770E+03 -0.17756331417E+03  0.14815152145E+03  0.27903067535E+03  0.00000000000E+00 0.  1.
         -4    1    5    5    0  502  0.56878961431E+01  0.64521378204E+02 -0.65582741671E+00  0.64774921980E+02  0.00000000000E+00 0.  1.
         -1    1    6    6    0  503  0.19984461951E+03 -0.27760665336E+03  0.99972770194E+02  0.35636762019E+03  0.00000000000E+00 0. -1.
<mgrwt>
<rscale>  0 0.13300326E+04</rscale>
<asrwt>0</asrwt>
<pdfrwt beam="1">  1        2 0.13176882E+00 0.13300326E+04</pdfrwt>
<pdfrwt beam="2">  1       -2 0.79437432E-01 0.13300326E+04</pdfrwt>
<totfact> 0.43163597E+01</totfact>
</mgrwt>
</event>
<event>
12    1  0.4802930E-008  0.2518111E+04  0.7818608E-02  0.8396562E-01
          2   -1    0    0  501    0  0.00000000000E+00  0.00000000000E+00  0.36844872655E+04  0.36844872655E+04  0.00000000000E+00 0. -1.
         -2   -1    0    0    0  501 -0.00000000000E+00 -0.00000000000E+00 -0.43024205681E+03  0.43024205681E+03  0.00000000000E+00 0.  1.
         23    2    1    2    0    0 -0.93435097337E+03  0.57599710965E+03  0.14512454700E+04  0.18214829000E+04  0.83079051550E+02 0.  0.
        254    2    1    2    0    0  0.93435097337E+03 -0.57599710965E+03  0.18029997386E+04  0.22932464223E+04  0.89631840560E+03 0.  0.
         23    2    4    4    0    0  0.37048343785E+03 -0.57653671642E+03  0.45040465368E+03  0.82505308647E+03  0.90529996914E+02 0.  0.
         23    2    4    4    0    0  0.56386753551E+03  0.53960676972E+00  0.13525950850E+04  0.14681933359E+04  0.90173825449E+02 0.  0.
         13    1    3    3    0    0 -0.11531219487E+03  0.44762633431E+02  0.18650461448E+03  0.22379581511E+03  0.00000000000E+00 0.  1.
        -13    1    3    3    0    0 -0.81903877850E+03  0.53123447622E+03  0.12647408556E+04  0.15976870849E+04  0.00000000000E+00 0. -1.
          1    1    5    5  502    0  0.17403671550E+03 -0.22843434623E+03  0.14302805069E+03  0.32082402056E+03  0.00000000000E+00 0. -1.
          1    1    6    6  503    0  0.29541571117E+03 -0.14797456287E+02  0.81690809298E+03  0.86880851716E+03  0.00000000000E+00 0. -1.
         -1    1    5    5    0  502  0.19644672235E+03 -0.34810237018E+03  0.30737660298E+03  0.50422906591E+03  0.00000000000E+00 0.  1.
         -1    1    6    6    0  503  0.26845182435E+03  0.15337063057E+02  0.53568699199E+03  0.59938481870E+03  0.00000000000E+00 0.  1.
<mgrwt>
<rscale>  0 0.25181115E+04</rscale>
<asrwt>0</asrwt>
<pdfrwt beam="1">  1        2 0.56684417E+00 0.25181115E+04</pdfrwt>
<pdfrwt beam="2">  1       -2 0.66191088E-01 0.25181115E+04</pdfrwt>
<totfact> 0.11224444E+00</totfact>
</mgrwt>
</event>
<event>
12    1  0.4802930E-008  0.1198334E+04  0.7818608E-02  0.9114316E-01
         -1   -1    0    0    0  501 -0.00000000000E+00  0.00000000000E+00  0.52196793111E+03  0.52196793111E+03  0.00000000000E+00 0. -1.
          1   -1    0    0  501    0  0.00000000000E+00 -0.00000000000E+00 -0.68778369596E+03  0.68778369596E+03  0.00000000000E+00 0.  1.
         23    2    1    2    0    0  0.23435415682E+03  0.31899263759E+02  0.37345432625E+02  0.25570292014E+03  0.89721057617E+02 0.  0.
        254    2    1    2    0    0 -0.23435415682E+03 -0.31899263759E+02 -0.20316119747E+03  0.95404870693E+03  0.90166236984E+03 0.  0.
         23    2    4    4    0    0 -0.13619946404E+01 -0.98989635605E+02  0.33374924852E+03  0.35764675380E+03  0.81986807673E+02 0.  0.
         23    2    4    4    0    0 -0.23299216218E+03  0.67090371847E+02 -0.53691044599E+03  0.59640195313E+03  0.92930065384E+02 0.  0.
         13    1    3    3    0    0  0.76600444992E+02  0.29079799906E+02  0.52320902392E+02  0.97214915330E+02  0.00000000000E+00 0. -1.
        -13    1    3    3    0    0  0.15775371183E+03  0.28194638530E+01 -0.14975469766E+02  0.15848800481E+03  0.00000000000E+00 0.  1.
          1    1    5    5  502    0  0.18326024805E+02  0.17722173221E+01  0.18498205399E+02  0.26099186623E+02  0.00000000000E+00 0. -1.
          3    1    6    6  503    0 -0.12494381934E+03  0.45520248603E+01 -0.18752867732E+03  0.22538563339E+03  0.00000000000E+00 0. -1.
         -1    1    5    5    0  502 -0.19688019446E+02 -0.10076185293E+03  0.31525104312E+03  0.33154756718E+03  0.00000000000E+00 0.  1.
         -3    1    6    6    0  503 -0.10804834284E+03  0.62538346987E+02 -0.34938176867E+03  0.37101631974E+03  0.00000000000E+00 0.  1.
<mgrwt>
<rscale>  0 0.11983339E+04</rscale>
<asrwt>0</asrwt>
<pdfrwt beam="1">  1        1 0.10581288E+00 0.11983339E+04</pdfrwt>
<pdfrwt beam="2">  1       -1 0.80302759E-01 0.11983339E+04</pdfrwt>
<totfact> 0.42880462E+01</totfact>
</mgrwt>
</event>
<event>
12    1  0.4802930E-008  0.1231406E+04  0.7818608E-02  0.9085802E-01
          1   -1    0    0  501    0  0.00000000000E+00  0.00000000000E+00  0.10468930841E+04  0.10468930841E+04  0.00000000000E+00 0. -1.
         -1   -1    0    0    0  501 -0.00000000000E+00 -0.00000000000E+00 -0.36210976689E+03  0.36210976689E+03  0.00000000000E+00 0.  1.
         23    2    1    2    0    0 -0.25045478823E+02  0.25354831290E+03  0.51098126616E+02  0.27538969538E+03  0.91183566464E+02 0.  0.
        254    2    1    2    0    0  0.25045478823E+02 -0.25354831290E+03  0.63368519057E+03  0.11336131556E+04  0.90476949704E+03 0.  0.
         23    2    4    4    0    0  0.36798448995E+03 -0.21600228481E+03  0.37254002428E+02  0.43847614605E+03  0.93829089690E+02 0.  0.
         23    2    4    4    0    0 -0.34293901113E+03 -0.37546028091E+02  0.59643118815E+03  0.69513700953E+03  0.92024074264E+02 0.  0.
         13    1    3    3    0    0 -0.34670974299E+02  0.25155059634E+03  0.61299086354E+02  0.26122281096E+03  0.00000000000E+00 0. -1.
        -13    1    3    3    0    0  0.96254954764E+01  0.19977165623E+01 -0.10200959738E+02  0.14166884421E+02  0.00000000000E+00 0.  1.
          2    1    5    5  502    0  0.26582459457E+03 -0.15623890580E+03  0.68937564974E+02  0.31595205116E+03  0.00000000000E+00 0. -1.
          1    1    6    6  503    0 -0.34020194845E+03 -0.23224393540E+02  0.58251075288E+03  0.67497815920E+03  0.00000000000E+00 0. -1.
         -2    1    5    5    0  502  0.10215989538E+03 -0.59763379006E+02 -0.31683562546E+02  0.12252409489E+03  0.00000000000E+00 0.  1.
         -1    1    6    6    0  503 -0.27370626759E+01 -0.14321634551E+02  0.13920435270E+02  0.20158850325E+02  0.00000000000E+00 0.  1.
<mgrwt>
<rscale>  0 0.12314060E+04</rscale>
<asrwt>0</asrwt>
<pdfrwt beam="1">  1        1 0.16106047E+00 0.12314060E+04</pdfrwt>
<pdfrwt beam="2">  1       -1 0.55709195E-01 0.12314060E+04</pdfrwt>
<totfact> 0.44775565E+01</totfact>
</mgrwt>
</event>
<event>
12    1  0.4802930E-008  0.1687451E+04  0.7818608E-02  0.8768554E-01
          1   -1    0    0  501    0  0.00000000000E+00  0.00000000000E+00  0.54028639138E+03  0.54028639138E+03  0.00000000000E+00 0. -1.
         -1   -1    0    0    0  501 -0.00000000000E+00 -0.00000000000E+00 -0.13175833285E+04  0.13175833285E+04  0.00000000000E+00 0.  1.
         23    2    1    2    0    0  0.12199629980E+03  0.13894363451E+03  0.35091202042E+03  0.40728384247E+03  0.92479465408E+02 0.  0.
        254    2    1    2    0    0 -0.12199629980E+03 -0.13894363451E+03 -0.11282089576E+04  0.14505858774E+04  0.89283565407E+03 0.  0.
         23    2    4    4    0    0 -0.18546038635E+03 -0.22401536650E+03  0.90137519693E+01  0.30483302676E+03  0.90903724613E+02 0.  0.
         23    2    4    4    0    0  0.63464086545E+02  0.85071731996E+02 -0.11372227095E+04  0.11457528507E+04  0.90604712318E+02 0.  0.
         11    1    3    3    0    0  0.51329663976E+02  0.73876324395E+02  0.25961816480E+03  0.27476178265E+03  0.00000000000E+00 0.  1.
        -11    1    3    3    0    0  0.70666635827E+02  0.65067310111E+02  0.91293855623E+02  0.13252205982E+03  0.00000000000E+00 0. -1.
          2    1    6    6  502    0  0.43461740323E+02  0.29344908397E+02 -0.20327921976E+03  0.20993448432E+03  0.00000000000E+00 0.  1.
          2    1    5    5  503    0 -0.28803970201E+02 -0.66944064145E+02  0.36130919735E+02  0.81342607436E+02  0.00000000000E+00 0. -1.
         -2    1    5    5    0  503 -0.15665641615E+03 -0.15707130236E+03 -0.27117167765E+02  0.22349041933E+03  0.00000000000E+00 0.  1.
         -2    1    6    6    0  502  0.20002346221E+02  0.55726823599E+02 -0.93394348978E+03  0.93581836637E+03  0.00000000000E+00 0. -1.
<mgrwt>
<rscale>  0 0.16874506E+04</rscale>
<asrwt>0</asrwt>
<pdfrwt beam="1">  1        1 0.83120984E-01 0.16874506E+04</pdfrwt>
<pdfrwt beam="2">  1       -1 0.20270513E+00 0.16874506E+04</pdfrwt>
<totfact> 0.54627383E+00</totfact>
</mgrwt>
</event>
<event>
12    1  0.4802930E-008  0.1379087E+04  0.7818608E-02  0.8969097E-01
         -2   -1    0    0    0  501 -0.00000000000E+00  0.00000000000E+00  0.94176180201E+03  0.94176180201E+03  0.00000000000E+00 0.  1.
          2   -1    0    0  501    0  0.00000000000E+00 -0.00000000000E+00 -0.50487313447E+03  0.50487313447E+03  0.00000000000E+00 0. -1.
         23    2    1    2    0    0  0.17033168136E+03 -0.76851947919E+02  0.42034756383E+03  0.46780640090E+03  0.85039112934E+02 0.  0.
        254    2    1    2    0    0 -0.17033168136E+03  0.76851947919E+02  0.16541103709E+02  0.97882853558E+03  0.96068339758E+03 0.  0.
         23    2    4    4    0    0 -0.17087384374E+03 -0.21213874407E+03 -0.38123437096E+03  0.47886497848E+03  0.98849910464E+02 0.  0.
         23    2    4    4    0    0  0.54216238248E+00  0.28899069199E+03  0.39777547467E+03  0.49996355711E+03  0.90676988213E+02 0.  0.
         13    1    3    3    0    0  0.50461484619E+01  0.13430053018E+02  0.54128317598E+02  0.55997363370E+02  0.00000000000E+00 0. -1.
        -13    1    3    3    0    0  0.16528553289E+03 -0.90282000938E+02  0.36621924623E+03  0.41180903753E+03  0.00000000000E+00 0.  1.
          2    1    5    5  502    0 -0.15151409636E+03 -0.19095936929E+03 -0.26899422831E+03  0.36301500930E+03  0.00000000000E+00 0. -1.
          4    1    6    6  503    0  0.40203809429E+02  0.98843159999E+02  0.11475735202E+03  0.15670215829E+03  0.00000000000E+00 0. -1.
         -2    1    5    5    0  502 -0.19359747373E+02 -0.21179374783E+02 -0.11224014265E+03  0.11584996917E+03  0.00000000000E+00 0.  1.
         -4    1    6    6    0  503 -0.39661647047E+02  0.19014753200E+03  0.28301812265E+03  0.34326139882E+03  0.00000000000E+00 0.  1.
<mgrwt>
<rscale>  0 0.13790870E+04</rscale>
<asrwt>0</asrwt>
<pdfrwt beam="1">  1        2 0.77672790E-01 0.13790870E+04</pdfrwt>
<pdfrwt beam="2">  1       -2 0.14488643E+00 0.13790870E+04</pdfrwt>
<totfact> 0.19472223E+01</totfact>
</mgrwt>
</event>
<event>
12    1  0.4802930E-008  0.1434960E+04  0.7818608E-02  0.8928895E-01
          2   -1    0    0  501    0  0.00000000000E+00  0.00000000000E+00  0.16294036481E+04  0.16294036481E+04  0.00000000000E+00 0. -1.
         -2   -1    0    0    0  501 -0.00000000000E+00 -0.00000000000E+00 -0.31592990320E+03  0.31592990320E+03  0.00000000000E+00 0.  1.
         23    2    1    2    0    0  0.86081126513E+02 -0.35581819953E+03  0.94582530899E+02  0.38906367668E+03  0.91695899049E+02 0.  0.
        254    2    1    2    0    0 -0.86081126513E+02  0.35581819953E+03  0.12188912140E+04  0.15562698746E+04  0.89569167666E+03 0.  0.
         23    2    4    4    0    0  0.10002502082E+03  0.53122442210E+03  0.36064867639E+03  0.65618122766E+03  0.91115006056E+02 0.  0.
         23    2    4    4    0    0 -0.18610614733E+03 -0.17540622258E+03  0.85824253764E+03  0.90008864698E+03  0.90423879710E+02 0.  0.
         13    1    3    3    0    0  0.60194507339E+02 -0.26416371632E+03  0.26990783297E+02  0.27227623862E+03  0.00000000000E+00 0.  1.
        -13    1    3    3    0    0  0.25886619174E+02 -0.91654483204E+02  0.67591747602E+02  0.11678743806E+03  0.00000000000E+00 0. -1.
          2    1    5    5  502    0  0.70555799797E+02  0.37257419698E+03  0.30102330252E+03  0.48415357254E+03  0.00000000000E+00 0. -1.
          3    1    6    6  503    0 -0.16431544078E+03 -0.15853940530E+03  0.62832502128E+03  0.66852572088E+03  0.00000000000E+00 0. -1.
         -2    1    5    5    0  502  0.29469221018E+02  0.15865022512E+03  0.59625373865E+02  0.17202765512E+03  0.00000000000E+00 0.  1.
         -3    1    6    6    0  503 -0.21790706551E+02 -0.16866817279E+02  0.22991751636E+03  0.23156292610E+03  0.00000000000E+00 0.  1.
<mgrwt>
<rscale>  0 0.14349597E+04</rscale>
<asrwt>0</asrwt>
<pdfrwt beam="1">  1        2 0.25067748E+00 0.14349597E+04</pdfrwt>
<pdfrwt beam="2">  1       -2 0.48604601E-01 0.14349597E+04</pdfrwt>
<totfact> 0.41783368E+01</totfact>
</mgrwt>
</event>
<event>
12    1  0.4802930E-008  0.3029634E+04  0.7818608E-02  0.8235319E-01
          1   -1    0    0  501    0  0.00000000000E+00  0.00000000000E+00  0.26965711787E+04  0.26965711787E+04  0.00000000000E+00 0. -1.
         -1   -1    0    0    0  501 -0.00000000000E+00 -0.00000000000E+00 -0.85095883272E+03  0.85095883272E+03  0.00000000000E+00 0.  1.
         23    2    1    2    0    0 -0.58645624424E+03 -0.52603729895E+03  0.21727048669E+04  0.23129144218E+04  0.90997350837E+02 0.  0.
        254    2    1    2    0    0  0.58645624424E+03  0.52603729895E+03 -0.32709252088E+03  0.12346155896E+04  0.89254690106E+03 0.  0.
         23    2    4    4    0    0  0.51665955304E+03  0.56987731169E+03 -0.57049529157E+03  0.96195101597E+03  0.90485553004E+02 0.  0.
         23    2    4    4    0    0  0.69796691191E+02 -0.43840012743E+02  0.24340277069E+03  0.27266457363E+03  0.91145686221E+02 0.  0.
         13    1    3    3    0    0 -0.31630167159E+03 -0.34341501858E+03  0.12634979386E+04  0.13469995038E+04  0.00000000000E+00 0. -1.
        -13    1    3    3    0    0 -0.27015457264E+03 -0.18262228036E+03  0.90920692827E+03  0.96591491801E+03  0.00000000000E+00 0.  1.
          2    1    5    5  502    0  0.12389607917E+03  0.10024065443E+03 -0.85206943743E+02  0.18071704540E+03  0.00000000000E+00 0. -1.
          1    1    6    6  503    0  0.20923926028E+01 -0.29002431373E+02  0.12619918579E+02  0.31698288240E+02  0.00000000000E+00 0. -1.
         -2    1    5    5    0  502  0.39276347387E+03  0.46963665726E+03 -0.48528834782E+03  0.78123397058E+03  0.00000000000E+00 0.  1.
         -1    1    6    6    0  503  0.67704298588E+02 -0.14837581369E+02  0.23078285211E+03  0.24096628539E+03  0.00000000000E+00 0.  1.
<mgrwt>
<rscale>  0 0.30296343E+04</rscale>
<asrwt>0</asrwt>
<pdfrwt beam="1">  1        1 0.41485710E+00 0.30296343E+04</pdfrwt>
<pdfrwt beam="2">  1       -1 0.13091674E+00 0.30296343E+04</pdfrwt>
<totfact> 0.41713879E-01</totfact>
</mgrwt>
</event>
<event>
12    1  0.4802930E-008  0.1462429E+04  0.7818608E-02  0.8909829E-01
          3   -1    0    0  501    0  0.00000000000E+00  0.00000000000E+00  0.33239442744E+03  0.33239442744E+03  0.00000000000E+00 0. -1.
         -3   -1    0    0    0  501 -0.00000000000E+00 -0.00000000000E+00 -0.16085539052E+04  0.16085539052E+04  0.00000000000E+00 0.  1.
         23    2    1    2    0    0  0.28108349934E+02 -0.45344399792E+03 -0.37727234672E+03  0.59733480609E+03  0.89849364932E+02 0.  0.
        254    2    1    2    0    0 -0.28108349934E+02  0.45344399792E+03 -0.89888713103E+03  0.13436135265E+04  0.88932429168E+03 0.  0.
         23    2    4    4    0    0 -0.44266518161E+03  0.16172849066E+03 -0.48395825540E+03  0.68196470563E+03  0.93550516030E+02 0.  0.
         23    2    4    4    0    0  0.41455683168E+03  0.29171550726E+03 -0.41492887563E+03  0.66164882091E+03  0.93047764696E+02 0.  0.
         11    1    3    3    0    0  0.56177179022E+02 -0.37221063856E+03 -0.29360576240E+03  0.47738975546E+03  0.00000000000E+00 0.  1.
        -11    1    3    3    0    0 -0.28068829087E+02 -0.81233359362E+02 -0.83666584322E+02  0.11994505063E+03  0.00000000000E+00 0. -1.
          1    1    5    5  502    0 -0.33326591350E+02  0.22200725189E+02 -0.11938203761E+02  0.41785818156E+02  0.00000000000E+00 0. -1.
          3    1    6    6  503    0  0.15044774384E+03  0.16192433624E+03 -0.18336454395E+03  0.28718734351E+03  0.00000000000E+00 0. -1.
         -1    1    5    5    0  502 -0.40933859026E+03  0.13952776547E+03 -0.47202005164E+03  0.64017888747E+03  0.00000000000E+00 0.  1.
         -3    1    6    6    0  503  0.26410908783E+03  0.12979117102E+03 -0.23156433169E+03  0.37446147741E+03  0.00000000000E+00 0.  1.
<mgrwt>
<rscale>  0 0.14624286E+04</rscale>
<asrwt>0</asrwt>
<pdfrwt beam="1">  1        3 0.51137604E-01 0.14624286E+04</pdfrwt>
<pdfrwt beam="2">  1       -3 0.24746983E+00 0.14624286E+04</pdfrwt>
<totfact> 0.72881046E-01</totfact>
</mgrwt>
</event>
<event>
12    1  0.4802930E-008  0.1777438E+04  0.7818608E-02  0.8718391E-01
          1   -1    0    0  501    0  0.00000000000E+00  0.00000000000E+00  0.53396249761E+03  0.53396249761E+03  0.00000000000E+00 0. -1.
         -1   -1    0    0    0  501 -0.00000000000E+00 -0.00000000000E+00 -0.14791702437E+04  0.14791702437E+04  0.00000000000E+00 0.  1.
         23    2    1    2    0    0  0.73388436227E+02  0.14241116642E+03 -0.10847756095E+04  0.11003456994E+04  0.91409694920E+02 0.  0.
        254    2    1    2    0    0 -0.73388436227E+02 -0.14241116642E+03  0.13956786344E+03  0.91278704188E+03  0.88771289978E+03 0.  0.
         23    2    4    4    0    0 -0.40098563856E+03 -0.31677252354E+03  0.68200228348E+02  0.52384893494E+03  0.92909210975E+02 0.  0.
         23    2    4    4    0    0  0.32759720234E+03  0.17436135712E+03  0.71367635096E+02  0.38893810695E+03  0.91965764599E+02 0.  0.
         13    1    3    3    0    0  0.56175022076E+02  0.68479934626E+02 -0.82399760496E+03  0.82874434390E+03  0.00000000000E+00 0.  1.
        -13    1    3    3    0    0  0.17213414151E+02  0.73931231793E+02 -0.26077800452E+03  0.27160135549E+03  0.00000000000E+00 0. -1.
          4    1    5    5  502    0 -0.22947501871E+03 -0.15414552940E+03 -0.47844868165E+01  0.27648240407E+03  0.00000000000E+00 0. -1.
          3    1    6    6  503    0  0.24477247302E+03  0.91838152252E+02  0.74945927786E+02  0.27196452314E+03  0.00000000000E+00 0. -1.
         -4    1    5    5    0  502 -0.17151061985E+03 -0.16262699415E+03  0.72984715164E+02  0.24736653087E+03  0.00000000000E+00 0.  1.
         -3    1    6    6    0  503  0.82824729318E+02  0.82523204873E+02 -0.35782926906E+01  0.11697358380E+03  0.00000000000E+00 0.  1.
<mgrwt>
<rscale>  0 0.17774380E+04</rscale>
<asrwt>0</asrwt>
<pdfrwt beam="1">  1        1 0.82148079E-01 0.17774380E+04</pdfrwt>
<pdfrwt beam="2">  1       -1 0.22756465E+00 0.17774380E+04</pdfrwt>
<totfact> 0.37457483E+00</totfact>
</mgrwt>
</event>
<event>
12    1  0.4802930E-008  0.1512757E+04  0.7818608E-02  0.8876014E-01
          2   -1    0    0  501    0  0.00000000000E+00  0.00000000000E+00  0.21885845479E+04  0.21885845479E+04  0.00000000000E+00 0. -1.
         -2   -1    0    0    0  501 -0.00000000000E+00 -0.00000000000E+00 -0.26140559251E+03  0.26140559251E+03  0.00000000000E+00 0.  1.
         23    2    1    2    0    0 -0.43991379940E+03 -0.31311815667E+02  0.90069274784E+03  0.10064133374E+04  0.84355195146E+02 0.  0.
        254    2    1    2    0    0  0.43991379940E+03  0.31311815667E+02  0.10264862076E+04  0.14435768031E+04  0.91418568752E+03 0.  0.
         23    2    4    4    0    0 -0.14569564006E+03  0.24726867332E+03  0.63077885812E+03  0.69892054536E+03  0.90768631895E+02 0.  0.
         23    2    4    4    0    0  0.58560943945E+03 -0.21595685765E+03  0.39570734947E+03  0.74465625770E+03  0.91393959115E+02 0.  0.
         11    1    3    3    0    0 -0.31867575663E+03 -0.24956248877E+02  0.56098292206E+03  0.64566159175E+03  0.00000000000E+00 0. -1.
        -11    1    3    3    0    0 -0.12123804277E+03 -0.63555667903E+01  0.33970982578E+03  0.36075174563E+03  0.00000000000E+00 0.  1.
          4    1    5    5  502    0 -0.21392265052E+02  0.12299574127E+03  0.24436436850E+03  0.27440759095E+03  0.00000000000E+00 0. -1.
          3    1    6    6  503    0  0.39123169222E+02 -0.31012496025E+02  0.56485220823E+02  0.75385525475E+02  0.00000000000E+00 0. -1.
         -4    1    5    5    0  502 -0.12430337501E+03  0.12427293205E+03  0.38641448962E+03  0.42451295442E+03  0.00000000000E+00 0.  1.
         -3    1    6    6    0  503  0.54648627023E+03 -0.18494436163E+03  0.33922212865E+03  0.66927073223E+03  0.00000000000E+00 0.  1.
<mgrwt>
<rscale>  0 0.15127567E+04</rscale>
<asrwt>0</asrwt>
<pdfrwt beam="1">  1        2 0.33670530E+00 0.15127567E+04</pdfrwt>
<pdfrwt beam="2">  1       -2 0.40216246E-01 0.15127567E+04</pdfrwt>
<totfact> 0.29633324E+01</totfact>
</mgrwt>
</event>
<event>
12    1  0.4802930E-008  0.2425041E+04  0.7818608E-02  0.8430188E-01
         -2   -1    0    0    0  501 -0.00000000000E+00  0.00000000000E+00  0.39756219423E+03  0.39756219423E+03  0.00000000000E+00 0.  1.
          2   -1    0    0  501    0  0.00000000000E+00 -0.00000000000E+00 -0.36980527049E+04  0.36980527049E+04  0.00000000000E+00 0. -1.
         23    2    1    2    0    0 -0.79741816222E+03 -0.98623039179E+02 -0.30541382718E+03  0.86449582485E+03  0.92049964955E+02 0.  0.
        254    2    1    2    0    0  0.79741816222E+03  0.98623039179E+02 -0.29950766834E+04  0.32311190742E+04  0.90776863949E+03 0.  0.
         23    2    4    4    0    0  0.10831234439E+02 -0.13023448724E+03 -0.42342310225E+02  0.16548239662E+03  0.92267085410E+02 0.  0.
         23    2    4    4    0    0  0.78658692779E+03  0.22885752642E+03 -0.29527343732E+04  0.30656366776E+04  0.91614398184E+02 0.  0.
         13    1    3    3    0    0 -0.27347531885E+03 -0.56204937420E+02 -0.14678053499E+03  0.31542395353E+03  0.00000000000E+00 0. -1.
        -13    1    3    3    0    0 -0.52394284338E+03 -0.42418101759E+02 -0.15863329219E+03  0.54907187132E+03  0.00000000000E+00 0.  1.
          4    1    5    5  502    0  0.34073086677E+02 -0.34049468029E+02  0.15820649668E+02  0.50701424681E+02  0.00000000000E+00 0. -1.
          3    1    6    6  503    0  0.28243309551E+03  0.46221737592E+02 -0.11288395326E+04  0.11645529583E+04  0.00000000000E+00 0. -1.
         -4    1    5    5    0  502 -0.23241852237E+02 -0.96185019211E+02 -0.58162959893E+02  0.11478097194E+03  0.00000000000E+00 0.  1.
         -3    1    6    6    0  503  0.50415383228E+03  0.18263578883E+03 -0.18238948406E+04  0.19010837193E+04  0.00000000000E+00 0.  1.
<mgrwt>
<rscale>  0 0.24250410E+04</rscale>
<asrwt>0</asrwt>
<pdfrwt beam="1">  1        2 0.56893119E+00 0.24250410E+04</pdfrwt>
<pdfrwt beam="2">  1       -2 0.61163414E-01 0.24250410E+04</pdfrwt>
<totfact> 0.13102563E+00</totfact>
</mgrwt>
</event>
<event>
12    1  0.4802930E-008  0.1465734E+04  0.7818608E-02  0.8907565E-01
         -2   -1    0    0    0  501 -0.00000000000E+00  0.00000000000E+00  0.46566207701E+03  0.46566207701E+03  0.00000000000E+00 0.  1.
          2   -1    0    0  501    0  0.00000000000E+00 -0.00000000000E+00 -0.11533989282E+04  0.11533989282E+04  0.00000000000E+00 0. -1.
         23    2    1    2    0    0 -0.28395305399E+03  0.17805691604E+03 -0.55217648715E+03  0.65412229219E+03  0.10316732990E+03 0.  0.
        254    2    1    2    0    0  0.28395305399E+03 -0.17805691604E+03 -0.13556036406E+03  0.96493871304E+03  0.89464881680E+03 0.  0.
         23    2    4    4    0    0 -0.80687464138E+02 -0.17590664223E+03  0.31337181827E+03  0.37930068641E+03  0.90628365183E+02 0.  0.
         23    2    4    4    0    0  0.36464051813E+03 -0.21502738027E+01 -0.44893218233E+03  0.58563802663E+03  0.92002515011E+02 0.  0.
         13    1    3    3    0    0 -0.10217314277E+03  0.14790698662E+02 -0.12621653210E+03  0.16306050670E+03  0.00000000000E+00 0.  1.
        -13    1    3    3    0    0 -0.18177991122E+03  0.16326621738E+03 -0.42595995505E+03  0.49106178549E+03  0.00000000000E+00 0. -1.
          3    1    6    6  502    0  0.11539933618E+03 -0.35001472459E+02 -0.10687803657E+03  0.16113666425E+03  0.00000000000E+00 0. -1.
          3    1    5    5  503    0 -0.21923455998E+02  0.20519811495E+01  0.61729127563E+02  0.65538795680E+02  0.00000000000E+00 0. -1.
         -3    1    5    5    0  503 -0.58764008140E+02 -0.17795862338E+03  0.25164269070E+03  0.31376189073E+03  0.00000000000E+00 0.  1.
         -3    1    6    6    0  502  0.24924118195E+03  0.32851198656E+02 -0.34205414576E+03  0.42450136238E+03  0.00000000000E+00 0.  1.
<mgrwt>
<rscale>  0 0.14657341E+04</rscale>
<asrwt>0</asrwt>
<pdfrwt beam="1">  1        2 0.17744599E+00 0.14657341E+04</pdfrwt>
<pdfrwt beam="2">  1       -2 0.71640321E-01 0.14657341E+04</pdfrwt>
<totfact> 0.34587410E+01</totfact>
</mgrwt>
</event>
<event>
12    1  0.4802930E-008  0.1387221E+04  0.7818608E-02  0.8963121E-01
          2   -1    0    0  501    0  0.00000000000E+00  0.00000000000E+00  0.13264242144E+04  0.13264242144E+04  0.00000000000E+00 0. -1.
         -2   -1    0    0    0  501 -0.00000000000E+00 -0.00000000000E+00 -0.36270124285E+03  0.36270124285E+03  0.00000000000E+00 0.  1.
         23    2    1    2    0    0 -0.37488190705E+02  0.35805235225E+03  0.77115137672E+02  0.37922665031E+03  0.90880451439E+02 0.  0.
        254    2    1    2    0    0  0.37488190705E+02 -0.35805235225E+03  0.88660783392E+03  0.13098988070E+04  0.89451360079E+03 0.  0.
         23    2    4    4    0    0 -0.41336801846E+03 -0.24110742972E+03  0.49010785570E+03  0.69101146233E+03  0.91023181149E+02 0.  0.
         23    2    4    4    0    0  0.45085620916E+03 -0.11694492253E+03  0.39649997822E+03  0.61888734466E+03  0.94137539802E+02 0.  0.
         11    1    3    3    0    0 -0.26049565794E+02  0.20908045334E+02  0.10507014402E+01  0.33419009729E+02  0.00000000000E+00 0. -1.
        -11    1    3    3    0    0 -0.11438624911E+02  0.33714430691E+03  0.76064436232E+02  0.34580764058E+03  0.00000000000E+00 0.  1.
          2    1    5    5  502    0 -0.35543491411E+03 -0.21819211480E+03  0.37858019543E+03  0.56326258663E+03  0.00000000000E+00 0.  1.
          3    1    6    6  503    0  0.27566772591E+03 -0.11835095461E+03  0.25072584603E+03  0.39097710090E+03  0.00000000000E+00 0. -1.
         -2    1    5    5    0  502 -0.57933104349E+02 -0.22915314921E+02  0.11152766027E+03  0.12774887570E+03  0.00000000000E+00 0. -1.
         -3    1    6    6    0  503  0.17518848325E+03  0.14060320762E+01  0.14577413219E+03  0.22791024375E+03  0.00000000000E+00 0.  1.
<mgrwt>
<rscale>  0 0.13872213E+04</rscale>
<asrwt>0</asrwt>
<pdfrwt beam="1">  1        2 0.20406526E+00 0.13872213E+04</pdfrwt>
<pdfrwt beam="2">  1       -2 0.55800192E-01 0.13872213E+04</pdfrwt>
<totfact> 0.46886957E+01</totfact>
</mgrwt>
</event>
<event>
12    1  0.4802930E-008  0.2404678E+04  0.7818608E-02  0.8437754E-01
          2   -1    0    0  501    0  0.00000000000E+00  0.00000000000E+00  0.38586984899E+04  0.38586984899E+04  0.00000000000E+00 0.  1.
         -2   -1    0    0    0  501 -0.00000000000E+00 -0.00000000000E+00 -0.37463890042E+03  0.37463890042E+03  0.00000000000E+00 0. -1.
         23    2    1    2    0    0 -0.60352501286E+03  0.82390999300E+03  0.17785709242E+04  0.20529621122E+04  0.90932854060E+02 0.  0.
        254    2    1    2    0    0  0.60352501286E+03 -0.82390999300E+03  0.17054886652E+04  0.21803752781E+04  0.89569785551E+03 0.  0.
         23    2    4    4    0    0  0.17945143196E+03 -0.38444137582E+03  0.14474797211E+04  0.15111356831E+04  0.91299079005E+02 0.  0.
         23    2    4    4    0    0  0.42407358090E+03 -0.43946861718E+03  0.25800894409E+03  0.66923959496E+03  0.91334291117E+02 0.  0.
         13    1    3    3    0    0 -0.24783056392E+03  0.36333116397E+03  0.68128580744E+03  0.81091298827E+03  0.00000000000E+00 0.  1.
        -13    1    3    3    0    0 -0.35569444894E+03  0.46057882904E+03  0.10972851168E+04  0.12420491240E+04  0.00000000000E+00 0. -1.
          3    1    5    5  502    0  0.10437773929E+03 -0.13074409172E+03  0.48988748249E+03  0.51766637468E+03  0.00000000000E+00 0. -1.
          3    1    6    6  503    0  0.13374144118E+02 -0.48905371943E+02  0.23474515382E+02  0.55871781860E+02  0.00000000000E+00 0. -1.
         -3    1    5    5    0  502  0.75073692674E+02 -0.25369728410E+03  0.95759223864E+03  0.99346930843E+03  0.00000000000E+00 0.  1.
         -3    1    6    6    0  503  0.41069943678E+03 -0.39056324524E+03  0.23453442870E+03  0.61336781310E+03  0.00000000000E+00 0.  1.
<mgrwt>
<rscale>  0 0.24046776E+04</rscale>
<asrwt>0</asrwt>
<pdfrwt beam="1">  1        2 0.59364589E+00 0.24046776E+04</pdfrwt>
<pdfrwt beam="2">  1       -2 0.57636757E-01 0.24046776E+04</pdfrwt>
<totfact> 0.11259374E+00</totfact>
</mgrwt>
</event>
<event>
12    1  0.4802930E-008  0.1627735E+04  0.7818608E-02  0.8803688E-01
          2   -1    0    0  501    0  0.00000000000E+00  0.00000000000E+00  0.17160014135E+04  0.17160014135E+04  0.00000000000E+00 0. -1.
         -2   -1    0    0    0  501 -0.00000000000E+00 -0.00000000000E+00 -0.38600202148E+03  0.38600202148E+03  0.00000000000E+00 0.  1.
         23    2    1    2    0    0 -0.44053756138E+03  0.33799256861E+03  0.39444138637E+03  0.68724252891E+03  0.91684059904E+02 0.  0.
        254    2    1    2    0    0  0.44053756138E+03 -0.33799256861E+03  0.93555800562E+03  0.14147609060E+04  0.90441545762E+03 0.  0.
         23    2    4    4    0    0 -0.16785458653E+03  0.60818962665E+02  0.55087335997E+03  0.58639449345E+03  0.92319742130E+02 0.  0.
         23    2    4    4    0    0  0.60839214792E+03 -0.39881153127E+03  0.38468464565E+03  0.82836641260E+03  0.94957852735E+02 0.  0.
         13    1    3    3    0    0 -0.23882928785E+03  0.15450374640E+03  0.15274937468E+03  0.32286716750E+03  0.00000000000E+00 0. -1.
        -13    1    3    3    0    0 -0.20170827354E+03  0.18348882220E+03  0.24169201169E+03  0.36437536141E+03  0.00000000000E+00 0.  1.
          3    1    6    6  502    0  0.51605185705E+03 -0.33778444049E+03  0.36272111982E+03  0.71552390468E+03  0.00000000000E+00 0.  1.
          3    1    5    5  503    0 -0.68844215837E+02  0.14779177332E+02  0.98813659827E+02  0.12133461792E+03  0.00000000000E+00 0. -1.
         -3    1    5    5    0  503 -0.99010370695E+02  0.46039785333E+02  0.45205970014E+03  0.46505987553E+03  0.00000000000E+00 0.  1.
         -3    1    6    6    0  502  0.92340290863E+02 -0.61027090777E+02  0.21963525832E+02  0.11284250791E+03  0.00000000000E+00 0. -1.
<mgrwt>
<rscale>  0 0.16277346E+04</rscale>
<asrwt>0</asrwt>
<pdfrwt beam="1">  1        2 0.26400021E+00 0.16277346E+04</pdfrwt>
<pdfrwt beam="2">  1       -2 0.59384927E-01 0.16277346E+04</pdfrwt>
<totfact> 0.24333146E+01</totfact>
</mgrwt>
</event>
<event>
12    1  0.4802930E-008  0.1805652E+04  0.7818608E-02  0.8703300E-01
          2   -1    0    0  501    0  0.00000000000E+00  0.00000000000E+00  0.74952566406E+03  0.74952566406E+03  0.00000000000E+00 0. -1.
         -2   -1    0    0    0  501 -0.00000000000E+00 -0.00000000000E+00 -0.10874803029E+04  0.10874803029E+04  0.00000000000E+00 0.  1.
         23    2    1    2    0    0 -0.35856392062E+03 -0.42731680510E+03  0.26551562735E+03  0.62472855711E+03  0.92841179463E+02 0.  0.
        254    2    1    2    0    0  0.35856392062E+03  0.42731680510E+03 -0.60347026618E+03  0.12122774098E+04  0.89121962454E+03 0.  0.
         23    2    4    4    0    0  0.32485454784E+03 -0.10243888321E+03  0.59562543854E+02  0.35806569047E+03  0.92946974239E+02 0.  0.
         23    2    4    4    0    0  0.33709372785E+02  0.52975568831E+03 -0.66303281003E+03  0.85421171937E+03  0.91037043114E+02 0.  0.
         11    1    3    3    0    0 -0.23110638742E+03 -0.25868593814E+03  0.11581470748E+03  0.36570701848E+03  0.00000000000E+00 0.  1.
        -11    1    3    3    0    0 -0.12745753320E+03 -0.16863086697E+03  0.14970091987E+03  0.25902153863E+03  0.00000000000E+00 0. -1.
          2    1    5    5  502    0  0.13613124949E+03 -0.77819547238E+01 -0.74440549005E+01  0.13655654456E+03  0.00000000000E+00 0. -1.
          4    1    6    6  503    0 -0.68704437263E+01  0.75124056009E+02 -0.52442840227E+02  0.91875340975E+02  0.00000000000E+00 0. -1.
         -2    1    5    5    0  502  0.18872329834E+03 -0.94656928484E+02  0.67006598754E+02  0.22150914591E+03  0.00000000000E+00 0.  1.
         -4    1    6    6    0  503  0.40579816512E+02  0.45463163230E+03 -0.61058996980E+03  0.76233637839E+03  0.00000000000E+00 0.  1.
<mgrwt>
<rscale>  0 0.18056516E+04</rscale>
<asrwt>0</asrwt>
<pdfrwt beam="1">  1        2 0.11531164E+00 0.18056516E+04</pdfrwt>
<pdfrwt beam="2">  1       -2 0.16730466E+00 0.18056516E+04</pdfrwt>
<totfact> 0.78864307E+00</totfact>
</mgrwt>
</event>
<event>
12    1  0.4802930E-008  0.1426257E+04  0.7818608E-02  0.8935029E-01
          1   -1    0    0  501    0  0.00000000000E+00  0.00000000000E+00  0.17750479581E+04  0.17750479581E+04  0.00000000000E+00 0. -1.
         -1   -1    0    0    0  501 -0.00000000000E+00 -0.00000000000E+00 -0.28650049774E+03  0.28650049774E+03  0.00000000000E+00 0.  1.
         23    2    1    2    0    0  0.11002395901E+03  0.24123553677E+03  0.91623546665E+03  0.95820454228E+03  0.91480373579E+02 0.  0.
        254    2    1    2    0    0 -0.11002395901E+03 -0.24123553677E+03  0.57231199369E+03  0.11033439135E+04  0.90527726011E+03 0.  0.
         23    2    4    4    0    0 -0.10323734381E+03  0.21687259272E+03  0.58164062540E+03  0.63585833674E+03  0.91204915723E+02 0.  0.
         23    2    4    4    0    0 -0.67866151962E+01 -0.45810812949E+03 -0.93286317111E+01  0.46748557680E+03  0.92447956694E+02 0.  0.
         13    1    3    3    0    0  0.65031635910E+01  0.92895788150E+02  0.22092632142E+03  0.23975061645E+03  0.00000000000E+00 0.  1.
        -13    1    3    3    0    0  0.10352079542E+03  0.14833974862E+03  0.69530914522E+03  0.71845392583E+03  0.00000000000E+00 0. -1.
          4    1    5    5  502    0 -0.82645300685E+01  0.29087111151E+02  0.17906597030E+03  0.18160116798E+03  0.00000000000E+00 0.  1.
          3    1    6    6  503    0 -0.94391391517E+01 -0.45220521017E+03 -0.22444278747E+02  0.45286023794E+03  0.00000000000E+00 0. -1.
         -4    1    5    5    0  502 -0.94972813745E+02  0.18778548157E+03  0.40257465510E+03  0.45425716876E+03  0.00000000000E+00 0. -1.
         -3    1    6    6    0  503  0.26525239555E+01 -0.59029193205E+01  0.13115647036E+02  0.14625338868E+02  0.00000000000E+00 0.  1.
<mgrwt>
<rscale>  0 0.14262568E+04</rscale>
<asrwt>0</asrwt>
<pdfrwt beam="1">  1        1 0.27308429E+00 0.14262568E+04</pdfrwt>
<pdfrwt beam="2">  1       -1 0.44077001E-01 0.14262568E+04</pdfrwt>
<totfact> 0.20990222E+01</totfact>
</mgrwt>
</event>
<event>
12    1  0.4802930E-008  0.2158143E+04  0.7818608E-02  0.8536055E-01
         -2   -1    0    0    0  501 -0.00000000000E+00  0.00000000000E+00  0.75996628263E+03  0.75996628263E+03  0.00000000000E+00 0.  1.
          2   -1    0    0  501    0  0.00000000000E+00 -0.00000000000E+00 -0.15321671612E+04  0.15321671612E+04  0.00000000000E+00 0. -1.
         23    2    1    2    0    0  0.27004527737E+03  0.82998165346E+03 -0.20545633879E+03  0.90329557915E+03  0.10925474474E+03 0.  0.
        254    2    1    2    0    0 -0.27004527737E+03 -0.82998165346E+03 -0.56674453978E+03  0.13888378647E+04  0.91971584966E+03 0.  0.
         23    2    4    4    0    0 -0.28636023361E+03 -0.90258764786E+03 -0.15900504622E+03  0.96500215924E+03  0.96332326594E+02 0.  0.
         23    2    4    4    0    0  0.16314956240E+02  0.72605994400E+02 -0.40773949355E+03  0.42383570545E+03  0.88585565354E+02 0.  0.
         11    1    3    3    0    0  0.72298794447E+02  0.32114705348E+03 -0.12189601494E+03  0.35102875110E+03  0.00000000000E+00 0. -1.
        -11    1    3    3    0    0  0.19774648292E+03  0.50883459997E+03 -0.83560323854E+02  0.55226682805E+03  0.00000000000E+00 0.  1.
          2    1    5    5  502    0 -0.91088109555E+02 -0.28896317236E+03 -0.55795210258E+01  0.30303116958E+03  0.00000000000E+00 0. -1.
          3    1    6    6  503    0 -0.25217138779E+02  0.21456404488E+01 -0.41777322285E+02  0.48845189307E+02  0.00000000000E+00 0. -1.
         -2    1    5    5    0  502 -0.19527212406E+03 -0.61362447550E+03 -0.15342552520E+03  0.66197098966E+03  0.00000000000E+00 0.  1.
         -3    1    6    6    0  503  0.41532095020E+02  0.70460353951E+02 -0.36596217127E+03  0.37499051614E+03  0.00000000000E+00 0.  1.
<mgrwt>
<rscale>  0 0.21581431E+04</rscale>
<asrwt>0</asrwt>
<pdfrwt beam="1">  1        2 0.23571802E+00 0.21581431E+04</pdfrwt>
<pdfrwt beam="2">  1       -2 0.11691789E+00 0.21581431E+04</pdfrwt>
<totfact> 0.63237438E+00</totfact>
</mgrwt>
</event>
<event>
12    1  0.4802930E-008  0.2033693E+04  0.7818608E-02  0.8591028E-01
         -2   -1    0    0    0  501 -0.00000000000E+00  0.00000000000E+00  0.58313662964E+03  0.58313662964E+03  0.00000000000E+00 0.  1.
          2   -1    0    0  501    0  0.00000000000E+00 -0.00000000000E+00 -0.17731288216E+04  0.17731288216E+04  0.00000000000E+00 0. -1.
         23    2    1    2    0    0  0.77613083567E+03 -0.17667330924E+03 -0.28003403670E+03  0.84856015656E+03  0.89681354328E+02 0.  0.
        254    2    1    2    0    0 -0.77613083567E+03  0.17667330924E+03 -0.90995815522E+03  0.15077052946E+04  0.90086562759E+03 0.  0.
         23    2    4    4    0    0 -0.74551593840E+03 -0.17885006658E+03 -0.82381177316E+03  0.11290768521E+04  0.91473163473E+02 0.  0.
         23    2    4    4    0    0 -0.30614897277E+02  0.35552337581E+03 -0.86146382058E+02  0.37862844254E+03  0.92758588148E+02 0.  0.
         11    1    3    3    0    0  0.71154902467E+03 -0.17572743127E+03 -0.23447377722E+03  0.76951939339E+03  0.00000000000E+00 0.  1.
        -11    1    3    3    0    0  0.64581811008E+02 -0.94587796144E+00 -0.45560259484E+02  0.79040763169E+02  0.00000000000E+00 0. -1.
          4    1    5    5  502    0 -0.50092302634E+03 -0.13864277043E+03 -0.61291783889E+03  0.80362551810E+03  0.00000000000E+00 0. -1.
          4    1    6    6  503    0  0.17900842520E+02  0.84566710908E+02  0.10083874621E+02  0.87026738903E+02  0.00000000000E+00 0.  1.
         -4    1    5    5    0  502 -0.24459291206E+03 -0.40207296151E+02 -0.21089393427E+03  0.32545133401E+03  0.00000000000E+00 0.  1.
         -4    1    6    6    0  503 -0.48515739796E+02  0.27095666490E+03 -0.96230256679E+02  0.29160170364E+03  0.00000000000E+00 0. -1.
<mgrwt>
<rscale>  0 0.20336926E+04</rscale>
<asrwt>0</asrwt>
<pdfrwt beam="1">  1        2 0.27278904E+00 0.20336926E+04</pdfrwt>
<pdfrwt beam="2">  1       -2 0.89713330E-01 0.20336926E+04</pdfrwt>
<totfact> 0.88087674E+00</totfact>
</mgrwt>
</event>
<event>
12    1  0.4802930E-008  0.2361026E+04  0.7818608E-02  0.8454241E-01
          1   -1    0    0  501    0  0.00000000000E+00  0.00000000000E+00  0.16400639812E+04  0.16400639812E+04  0.00000000000E+00 0. -1.
         -1   -1    0    0    0  501 -0.00000000000E+00 -0.00000000000E+00 -0.84972941476E+03  0.84972941476E+03  0.00000000000E+00 0.  1.
         23    2    1    2    0    0  0.67055911661E+02 -0.80586618383E+03 -0.29492930606E+03  0.86525361605E+03  0.88111991078E+02 0.  0.
        254    2    1    2    0    0 -0.67055911661E+02  0.80586618383E+03  0.10852638725E+04  0.16245397799E+04  0.89856275355E+03 0.  0.
         23    2    4    4    0    0  0.17001760782E+03  0.28997623374E+03  0.98065014487E+03  0.10406317362E+04  0.90815750743E+02 0.  0.
         23    2    4    4    0    0 -0.23707351948E+03  0.51588995009E+03  0.10461372766E+03  0.58390804378E+03  0.87511583976E+02 0.  0.
         13    1    3    3    0    0  0.31433893414E+02 -0.77213222687E+02 -0.40047746160E+02  0.92486720048E+02  0.00000000000E+00 0. -1.
        -13    1    3    3    0    0  0.35622018248E+02 -0.72865296115E+03 -0.25488155991E+03  0.77276689600E+03  0.00000000000E+00 0.  1.
          1    1    5    5  502    0  0.99273825146E+02  0.10759653334E+03  0.51883722299E+03  0.53909588229E+03  0.00000000000E+00 0. -1.
          3    1    6    6  503    0 -0.85159291277E+02  0.10262946648E+03  0.37436763388E+02  0.13851506609E+03  0.00000000000E+00 0. -1.
         -1    1    5    5    0  502  0.70743782671E+02  0.18237970041E+03  0.46181292188E+03  0.50153585388E+03  0.00000000000E+00 0.  1.
         -3    1    6    6    0  503 -0.15191422820E+03  0.41326048361E+03  0.67176964275E+02  0.44539297769E+03  0.00000000000E+00 0.  1.
<mgrwt>
<rscale>  0 0.23610257E+04</rscale>
<asrwt>0</asrwt>
<pdfrwt beam="1">  1        1 0.25231754E+00 0.23610257E+04</pdfrwt>
<pdfrwt beam="2">  1       -1 0.13072760E+00 0.23610257E+04</pdfrwt>
<totfact> 0.23548181E+00</totfact>
</mgrwt>
</event>
<event>
12    1  0.4802930E-008  0.3795362E+04  0.7818608E-02  0.8047151E-01
          1   -1    0    0  501    0  0.00000000000E+00  0.00000000000E+00  0.20331343579E+04  0.20331343579E+04  0.00000000000E+00 0. -1.
         -1   -1    0    0    0  501 -0.00000000000E+00 -0.00000000000E+00 -0.17712519315E+04  0.17712519315E+04  0.00000000000E+00 0.  1.
         23    2    1    2    0    0  0.53821771650E+03  0.17511733640E+03 -0.15940383802E+04  0.16947824825E+04  0.10480893731E+03 0.  0.
        254    2    1    2    0    0 -0.53821771650E+03 -0.17511733640E+03  0.18559208066E+04  0.21096038068E+04  0.82803489630E+03 0.  0.
         23    2    4    4    0    0 -0.73444200073E+03 -0.31554366629E+02  0.14144799056E+04  0.15973012824E+04  0.10108042777E+03 0.  0.
         23    2    4    4    0    0  0.19622428423E+03 -0.14356296977E+03  0.44144090102E+03  0.51230252444E+03  0.92029948623E+02 0.  0.
         11    1    3    3    0    0  0.99874469744E+02 -0.76137699798E+01 -0.25071420847E+03  0.26998239485E+03  0.00000000000E+00 0. -1.
        -11    1    3    3    0    0  0.43834324675E+03  0.18273110638E+03 -0.13433241718E+04  0.14248000876E+04  0.00000000000E+00 0.  1.
          1    1    6    6  502    0  0.97183132910E+02 -0.16635244676E+02  0.18118683779E+03  0.20627642346E+03  0.00000000000E+00 0. -1.
          1    1    5    5  503    0  0.22962732567E+01  0.11081631618E+01  0.16851552309E+02  0.17043348019E+02  0.00000000000E+00 0. -1.
         -1    1    5    5    0  503 -0.73673827399E+03 -0.32662529791E+02  0.13976283533E+04  0.15802579344E+04  0.00000000000E+00 0.  1.
         -1    1    6    6    0  502  0.99041151324E+02 -0.12692772510E+03  0.26025406323E+03  0.30602610098E+03  0.00000000000E+00 0.  1.
<mgrwt>
<rscale>  0 0.37953620E+04</rscale>
<asrwt>0</asrwt>
<pdfrwt beam="1">  1        1 0.31278990E+00 0.37953620E+04</pdfrwt>
<pdfrwt beam="2">  1       -1 0.27250030E+00 0.37953620E+04</pdfrwt>
<totfact> 0.11211235E-01</totfact>
</mgrwt>
</event>
<event>
12    1  0.4802930E-008  0.1952685E+04  0.7818608E-02  0.8629067E-01
          1   -1    0    0  501    0  0.00000000000E+00  0.00000000000E+00  0.48123897305E+03  0.48123897305E+03  0.00000000000E+00 0. -1.
         -1   -1    0    0    0  501 -0.00000000000E+00 -0.00000000000E+00 -0.19808139504E+04  0.19808139504E+04  0.00000000000E+00 0.  1.
         23    2    1    2    0    0 -0.26656881527E+03  0.43305976593E+02  0.31276960055E+03  0.42308192543E+03  0.90769773136E+02 0.  0.
        254    2    1    2    0    0  0.26656881527E+03 -0.43305976593E+02 -0.18123445779E+04  0.20389709980E+04  0.89435760229E+03 0.  0.
         23    2    4    4    0    0  0.31415454507E+03  0.36765457104E+03 -0.11812771322E+04  0.12794625024E+04  0.88009488448E+02 0.  0.
         23    2    4    4    0    0 -0.47585729800E+02 -0.41096054764E+03 -0.63106744562E+03  0.75950849559E+03  0.86336901443E+02 0.  0.
         13    1    3    3    0    0 -0.18019873691E+02  0.23856329953E+02  0.11495952126E+02  0.32031191704E+02  0.00000000000E+00 0.  1.
        -13    1    3    3    0    0 -0.24854894158E+03  0.19449646641E+02  0.30127364843E+03  0.39105073373E+03  0.00000000000E+00 0. -1.
          1    1    5    5  502    0  0.12462529451E+02  0.93360408549E+01 -0.11411413835E+02  0.19305353270E+02  0.00000000000E+00 0. -1.
          3    1    6    6  503    0  0.13871432870E+02 -0.60155991503E+02 -0.13886410262E+03  0.15196841435E+03  0.00000000000E+00 0. -1.
         -1    1    5    5    0  502  0.30169201562E+03  0.35831853019E+03 -0.11698657184E+04  0.12601571491E+04  0.00000000000E+00 0.  1.
         -3    1    6    6    0  503 -0.61457162670E+02 -0.35080455613E+03 -0.49220334300E+03  0.60754008124E+03  0.00000000000E+00 0.  1.
<mgrwt>
<rscale>  0 0.19526852E+04</rscale>
<asrwt>0</asrwt>
<pdfrwt beam="1">  1        1 0.74036765E-01 0.19526852E+04</pdfrwt>
<pdfrwt beam="2">  1       -1 0.30474061E+00 0.19526852E+04</pdfrwt>
<totfact> 0.13400204E+00</totfact>
</mgrwt>
</event>
<event>
12    1  0.5483059E-008  0.2323284E+04  0.7818608E-02  0.8468797E-01
         -2   -1    0    0    0  501 -0.00000000000E+00  0.00000000000E+00  0.66964922289E+03  0.66964922289E+03  0.00000000000E+00 0. -1.
          2   -1    0    0  501    0  0.00000000000E+00 -0.00000000000E+00 -0.20151030679E+04  0.20151030679E+04  0.00000000000E+00 0.  1.
         23    2    1    2    0    0 -0.16737085165E+03  0.77144276919E+03 -0.12565515080E+04  0.14866994298E+04  0.90645211712E+02 0.  0.
        254    2    1    2    0    0  0.16737085165E+03 -0.77144276919E+03 -0.88902337083E+02  0.11980528610E+04  0.89682221429E+03 0.  0.
         23    2    4    4    0    0  0.49712258982E+03 -0.57033978282E+03  0.80654355673E+02  0.76679414043E+03  0.95130392290E+02 0.  0.
         23    2    4    4    0    0 -0.32975173817E+03 -0.20110298638E+03 -0.16955669276E+03  0.43125872055E+03  0.89755178337E+02 0.  0.
         13    1    3    3    0    0 -0.17042076317E+03  0.63251315697E+03 -0.10151551595E+04  0.12081622938E+04  0.00000000000E+00 0.  1.
        -13    1    3    3    0    0  0.30499115229E+01  0.13892961223E+03 -0.24139634845E+03  0.27853713605E+03  0.00000000000E+00 0. -1.
          4    1    5    5  502    0  0.49369585795E+03 -0.55646572979E+03  0.66808039955E+02  0.74689559029E+03  0.00000000000E+00 0. -1.
          1    1    6    6  503    0 -0.28216445078E+03 -0.19498377889E+03 -0.12290068895E+03  0.36433505275E+03  0.00000000000E+00 0. -1.
         -4    1    5    5    0  502  0.34267318617E+01 -0.13874053025E+02  0.13846315718E+02  0.19898550137E+02  0.00000000000E+00 0.  1.
         -1    1    6    6    0  503 -0.47587287385E+02 -0.61192074855E+01 -0.46656003809E+02  0.66923667804E+02  0.00000000000E+00 0.  1.
<mgrwt>
<rscale>  0 0.23232841E+04</rscale>
<asrwt>0</asrwt>
<pdfrwt beam="1">  1        2 0.31001585E+00 0.23232841E+04</pdfrwt>
<pdfrwt beam="2">  1       -2 0.10302296E+00 0.23232841E+04</pdfrwt>
<totfact> 0.45619425E+00</totfact>
</mgrwt>
</event>
<event>
12    1  0.4802930E-008  0.1469807E+04  0.7818608E-02  0.8904783E-01
          3   -1    0    0  501    0  0.00000000000E+00  0.00000000000E+00  0.30002496528E+03  0.30002496528E+03  0.00000000000E+00 0. -1.
         -3   -1    0    0    0  501 -0.00000000000E+00 -0.00000000000E+00 -0.18001262928E+04  0.18001262928E+04  0.00000000000E+00 0.  1.
         23    2    1    2    0    0 -0.28346024630E+03 -0.30552540509E+03 -0.71995235748E+03  0.84074590646E+03  0.12176533907E+03 0.  0.
        254    2    1    2    0    0  0.28346024630E+03  0.30552540509E+03 -0.78014897006E+03  0.12594053516E+04  0.89653440528E+03 0.  0.
         23    2    4    4    0    0  0.50999187594E+03  0.44039335162E+03 -0.40225647121E+03  0.78983500886E+03  0.89392700577E+02 0.  0.
         23    2    4    4    0    0 -0.22653162963E+03 -0.13486794654E+03 -0.37789249885E+03  0.46957034278E+03  0.90485490001E+02 0.  0.
         13    1    3    3    0    0 -0.12292714511E+03 -0.54852148090E+02 -0.26189175055E+03  0.29446074468E+03  0.00000000000E+00 0. -1.
        -13    1    3    3    0    0 -0.16053310119E+03 -0.25067325700E+03 -0.45806060693E+03  0.54628516177E+03  0.00000000000E+00 0.  1.
          2    1    5    5  502    0  0.26624883883E+03  0.23821918540E+03 -0.26436169301E+03  0.44443664251E+03  0.00000000000E+00 0.  1.
          4    1    6    6  503    0  0.51860000390E+01 -0.14265984887E+01 -0.31611649279E+02  0.32065965599E+02  0.00000000000E+00 0.  1.
         -2    1    5    5    0  502  0.24374303710E+03  0.20217416622E+03 -0.13789477820E+03  0.34539836635E+03  0.00000000000E+00 0. -1.
         -4    1    6    6    0  503 -0.23171762967E+03 -0.13344134805E+03 -0.34628084957E+03  0.43750437718E+03  0.00000000000E+00 0. -1.
<mgrwt>
<rscale>  0 0.14698066E+04</rscale>
<asrwt>0</asrwt>
<pdfrwt beam="1">  1        3 0.46157689E-01 0.14698066E+04</pdfrwt>
<pdfrwt beam="2">  1       -3 0.27694249E+00 0.14698066E+04</pdfrwt>
<totfact> 0.60902706E-01</totfact>
</mgrwt>
</event>
<event>
12    1  0.4802930E-008  0.1221544E+04  0.7818608E-02  0.9094206E-01
          2   -1    0    0  501    0  0.00000000000E+00  0.00000000000E+00  0.58014027604E+03  0.58014027604E+03  0.00000000000E+00 0. -1.
         -2   -1    0    0    0  501 -0.00000000000E+00 -0.00000000000E+00 -0.64302072612E+03  0.64302072612E+03  0.00000000000E+00 0.  1.
         23    2    1    2    0    0 -0.61395230073E+02 -0.14599302454E+03  0.20247616841E+03  0.27328761961E+03  0.92769535772E+02 0.  0.
        254    2    1    2    0    0  0.61395230073E+02  0.14599302454E+03 -0.26535661849E+03  0.94987338256E+03  0.89819929327E+03 0.  0.
         23    2    4    4    0    0 -0.26399004986E+03 -0.21471074933E+03 -0.28725803832E+03  0.45422329953E+03  0.89499569541E+02 0.  0.
         23    2    4    4    0    0  0.32538527994E+03  0.36070377387E+03  0.21901419827E+02  0.49565008303E+03  0.95950715134E+02 0.  0.
         13    1    3    3    0    0 -0.39821278406E+02 -0.10970290434E+03  0.74332327735E+02  0.13836819137E+03  0.00000000000E+00 0. -1.
        -13    1    3    3    0    0 -0.21573951667E+02 -0.36290120196E+02  0.12814384067E+03  0.13491942824E+03  0.00000000000E+00 0.  1.
          1    1    6    6  502    0  0.92302284726E+01  0.53228003459E+02  0.58999314945E+01  0.54343598165E+02  0.00000000000E+00 0. -1.
          1    1    5    5  503    0 -0.60979826165E+02 -0.10885954794E+02 -0.32467134177E+02  0.69936814430E+02  0.00000000000E+00 0. -1.
         -1    1    5    5    0  503 -0.20301022370E+03 -0.20382479454E+03 -0.25479090414E+03  0.38428648510E+03  0.00000000000E+00 0.  1.
         -1    1    6    6    0  502  0.31615505146E+03  0.30747577041E+03  0.16001488332E+02  0.44130648487E+03  0.00000000000E+00 0.  1.
<mgrwt>
<rscale>  0 0.12215436E+04</rscale>
<asrwt>0</asrwt>
<pdfrwt beam="1">  1        2 0.89252350E-01 0.12215436E+04</pdfrwt>
<pdfrwt beam="2">  1       -2 0.98926265E-01 0.12215436E+04</pdfrwt>
<totfact> 0.43140102E+01</totfact>
</mgrwt>
</event>
<event>
12    1  0.4802930E-008  0.2994399E+04  0.7818608E-02  0.8245332E-01
          2   -1    0    0  501    0  0.00000000000E+00  0.00000000000E+00  0.18087925421E+04  0.18087925421E+04  0.00000000000E+00 0. -1.
         -2   -1    0    0    0  501 -0.00000000000E+00 -0.00000000000E+00 -0.12392831636E+04  0.12392831636E+04  0.00000000000E+00 0.  1.
         23    2    1    2    0    0 -0.51515151544E+03 -0.22650581246E+03 -0.99751059042E+03  0.11491193071E+04  0.93604684882E+02 0.  0.
        254    2    1    2    0    0  0.51515151544E+03  0.22650581246E+03  0.15670199689E+04  0.18989563986E+04  0.91312532213E+03 0.  0.
         23    2    4    4    0    0  0.31495768111E+03 -0.29907781500E+03  0.38731406093E+03  0.58891088389E+03  0.90321465088E+02 0.  0.
         23    2    4    4    0    0  0.20019383433E+03  0.52558362746E+03  0.11797059080E+04  0.13100455147E+04  0.90540049427E+02 0.  0.
         11    1    3    3    0    0 -0.16084156139E+03 -0.90935016252E+02 -0.41088954502E+03  0.45052125728E+03  0.00000000000E+00 0. -1.
        -11    1    3    3    0    0 -0.35430995405E+03 -0.13557079621E+03 -0.58662104539E+03  0.69859804983E+03  0.00000000000E+00 0.  1.
          2    1    5    5  502    0  0.35419075336E+02 -0.52481687087E+02  0.99628497143E+02  0.11804522786E+03  0.00000000000E+00 0. -1.
          1    1    6    6  503    0  0.95680964954E+02  0.26323487993E+03  0.48384664474E+03  0.55906620779E+03  0.00000000000E+00 0. -1.
         -2    1    5    5    0  502  0.27953860577E+03 -0.24659612791E+03  0.28768556379E+03  0.47086565603E+03  0.00000000000E+00 0.  1.
         -1    1    6    6    0  503  0.10451286938E+03  0.26234874753E+03  0.69585926326E+03  0.75097930695E+03  0.00000000000E+00 0.  1.
<mgrwt>
<rscale>  0 0.29943989E+04</rscale>
<asrwt>0</asrwt>
<pdfrwt beam="1">  1        2 0.27827578E+00 0.29943989E+04</pdfrwt>
<pdfrwt beam="2">  1       -2 0.19065895E+00 0.29943989E+04</pdfrwt>
<totfact> 0.11212818E+00</totfact>
</mgrwt>
</event>
<event>
12    1  0.4802930E-008  0.1382207E+04  0.7818608E-02  0.8966800E-01
         -2   -1    0    0    0  501 -0.00000000000E+00  0.00000000000E+00  0.99051013259E+03  0.99051013259E+03  0.00000000000E+00 0. -1.
          2   -1    0    0  501    0  0.00000000000E+00 -0.00000000000E+00 -0.48220002869E+03  0.48220002869E+03  0.00000000000E+00 0.  1.
         23    2    1    2    0    0  0.26076362708E+02 -0.36247464364E+03 -0.41094075305E+02  0.37749230258E+03  0.93508670771E+02 0.  0.
        254    2    1    2    0    0 -0.26076362708E+02  0.36247464364E+03  0.54940417921E+03  0.10952178587E+04  0.87497963514E+03 0.  0.
         23    2    4    4    0    0  0.29587704854E+02 -0.13338385164E+03  0.56476265326E+03  0.58794485549E+03  0.89753074684E+02 0.  0.
         23    2    4    4    0    0 -0.55664067562E+02  0.49585849528E+03 -0.15358474057E+02  0.50727300321E+03  0.90088186258E+02 0.  0.
         11    1    3    3    0    0  0.42775842607E+02 -0.21898357588E+03 -0.61881979178E+02  0.23154472260E+03  0.00000000000E+00 0. -1.
        -11    1    3    3    0    0 -0.16699479898E+02 -0.14349106776E+03  0.20787903873E+02  0.14594757998E+03  0.00000000000E+00 0.  1.
          2    1    5    5  502    0  0.53748108727E+02 -0.39968933552E+02  0.23073440051E+03  0.24025973117E+03  0.00000000000E+00 0. -1.
          1    1    6    6  503    0  0.24232673952E+02  0.10992284435E+03 -0.11356396961E+02  0.11313364641E+03  0.00000000000E+00 0.  1.
         -2    1    5    5    0  502 -0.24160403873E+02 -0.93414918087E+02  0.33402825275E+03  0.34768512432E+03  0.00000000000E+00 0.  1.
         -1    1    6    6    0  503 -0.79896741514E+02  0.38593565092E+03 -0.40020770960E+01  0.39413935680E+03  0.00000000000E+00 0. -1.
<mgrwt>
<rscale>  0 0.13822070E+04</rscale>
<asrwt>0</asrwt>
<pdfrwt beam="1">  1        2 0.74184620E-01 0.13822070E+04</pdfrwt>
<pdfrwt beam="2">  1       -2 0.15238617E+00 0.13822070E+04</pdfrwt>
<totfact> 0.17965692E+01</totfact>
</mgrwt>
</event>
<event>
12    1  0.4802930E-008  0.1982449E+04  0.7818608E-02  0.8614871E-01
         -3   -1    0    0    0  501 -0.00000000000E+00  0.00000000000E+00  0.38255500587E+03  0.38255500587E+03  0.00000000000E+00 0.  1.
          3   -1    0    0  501    0  0.00000000000E+00 -0.00000000000E+00 -0.25683262486E+04  0.25683262486E+04  0.00000000000E+00 0. -1.
         23    2    1    2    0    0 -0.23154881442E+03  0.72311788057E+03 -0.10388732383E+04  0.12904580453E+04  0.97519427784E+02 0.  0.
        254    2    1    2    0    0  0.23154881442E+03 -0.72311788057E+03 -0.11468980045E+04  0.16604232092E+04  0.93011605636E+03 0.  0.
         23    2    4    4    0    0  0.50717167976E+03 -0.12483822014E+03 -0.58015998272E+03  0.78713018416E+03  0.10089909466E+03 0.  0.
         23    2    4    4    0    0 -0.27562286534E+03 -0.59827966043E+03 -0.56673802176E+03  0.87329302503E+03  0.86845876609E+02 0.  0.
         13    1    3    3    0    0 -0.17922163085E+03  0.61394019986E+03 -0.81545265580E+03  0.10363426054E+04  0.00000000000E+00 0.  1.
        -13    1    3    3    0    0 -0.52327183576E+02  0.10917768072E+03 -0.22342058247E+03  0.25411543987E+03  0.00000000000E+00 0. -1.
          2    1    5    5  502    0 -0.10010978805E+01 -0.21580068560E+01 -0.22975799909E+02  0.23098627059E+02  0.00000000000E+00 0. -1.
          2    1    6    6  503    0 -0.12095384377E+03 -0.20066106069E+03 -0.24447477408E+03  0.33861867751E+03  0.00000000000E+00 0. -1.
         -2    1    5    5    0  502  0.50817277764E+03 -0.12268021328E+03 -0.55718418281E+03  0.76403155710E+03  0.00000000000E+00 0.  1.
         -2    1    6    6    0  503 -0.15466902157E+03 -0.39761859974E+03 -0.32226324768E+03  0.53467434752E+03  0.00000000000E+00 0.  1.
<mgrwt>
<rscale>  0 0.19824491E+04</rscale>
<asrwt>0</asrwt>
<pdfrwt beam="1">  1        3 0.39512713E+00 0.19824491E+04</pdfrwt>
<pdfrwt beam="2">  1       -3 0.58854614E-01 0.19824491E+04</pdfrwt>
<totfact> 0.81473839E-02</totfact>
</mgrwt>
</event>
<event>
12    1  0.4802930E-008  0.1334976E+04  0.7818608E-02  0.9002279E-01
         -1   -1    0    0    0  501 -0.00000000000E+00  0.00000000000E+00  0.16529446269E+03  0.16529446269E+03  0.00000000000E+00 0.  1.
          1   -1    0    0  501    0  0.00000000000E+00 -0.00000000000E+00 -0.26954343328E+04  0.26954343328E+04  0.00000000000E+00 0. -1.
         23    2    1    2    0    0  0.25540853501E+03  0.22570342280E+03 -0.94116670642E+03  0.10058336804E+04  0.98646178454E+02 0.  0.
        254    2    1    2    0    0 -0.25540853501E+03 -0.22570342280E+03 -0.15889731637E+04  0.18548951151E+04  0.89421732161E+03 0.  0.
         23    2    4    4    0    0 -0.28939926256E+03 -0.31151692567E+03 -0.16538159021E+04  0.17100605892E+04  0.91681256182E+02 0.  0.
         23    2    4    4    0    0  0.33990727550E+02  0.85813502876E+02  0.64842738329E+02  0.14483452591E+03  0.90846751989E+02 0.  0.
         13    1    3    3    0    0  0.14727780902E+03  0.10740335197E+03 -0.62967280136E+03  0.65552579646E+03  0.00000000000E+00 0. -1.
        -13    1    3    3    0    0  0.10813072599E+03  0.11830007083E+03 -0.31149390505E+03  0.35030788393E+03  0.00000000000E+00 0.  1.
          2    1    5    5  502    0 -0.10257368181E+03 -0.16122721388E+03 -0.85174071197E+03  0.87291340643E+03  0.00000000000E+00 0.  1.
          1    1    6    6  503    0  0.53725064933E+02  0.15814586181E+02  0.20407099971E+02  0.59606488467E+02  0.00000000000E+00 0. -1.
         -2    1    5    5    0  502 -0.18682558074E+03 -0.15028971179E+03 -0.80207519010E+03  0.83714718280E+03  0.00000000000E+00 0. -1.
         -1    1    6    6    0  503 -0.19734337383E+02  0.69998916695E+02  0.44435638359E+02  0.85228037445E+02  0.00000000000E+00 0.  1.
<mgrwt>
<rscale>  0 0.13349762E+04</rscale>
<asrwt>0</asrwt>
<pdfrwt beam="1">  1        1 0.41468223E+00 0.13349762E+04</pdfrwt>
<pdfrwt beam="2">  1       -1 0.25429916E-01 0.13349762E+04</pdfrwt>
<totfact> 0.13257564E+01</totfact>
</mgrwt>
</event>
<event>
12    1  0.4802930E-008  0.3775337E+04  0.7818608E-02  0.8051468E-01
          1   -1    0    0  501    0  0.00000000000E+00  0.00000000000E+00  0.32874060434E+04  0.32874060434E+04  0.00000000000E+00 0. -1.
         -1   -1    0    0    0  501 -0.00000000000E+00 -0.00000000000E+00 -0.10839221211E+04  0.10839221211E+04  0.00000000000E+00 0.  1.
         23    2    1    2    0    0 -0.64235209273E+03 -0.20428550644E+03  0.29450853874E+04  0.30226184813E+04  0.91355160333E+02 0.  0.
        254    2    1    2    0    0  0.64235209273E+03  0.20428550644E+03 -0.74160146508E+03  0.13487096831E+04  0.90260528316E+03 0.  0.
         23    2    4    4    0    0  0.23571065341E+03  0.44519348460E+03 -0.69926700639E+03  0.86550488568E+03  0.79797306033E+02 0.  0.
         23    2    4    4    0    0  0.40664143932E+03 -0.24090797816E+03 -0.42334458687E+02  0.48320479745E+03  0.91108483528E+02 0.  0.
         11    1    3    3    0    0 -0.11087363676E+03 -0.40880475871E+02  0.37956566009E+03  0.39753523989E+03  0.00000000000E+00 0.  1.
        -11    1    3    3    0    0 -0.53147845597E+03 -0.16340503057E+03  0.25655197273E+04  0.26250832414E+04  0.00000000000E+00 0. -1.
          2    1    5    5  502    0  0.10178038365E+02  0.60930970821E+00 -0.67921054450E+01  0.12251384397E+02  0.00000000000E+00 0. -1.
          3    1    6    6  503    0  0.16602139512E+02  0.13511386902E+01  0.12451125435E+02  0.20796325078E+02  0.00000000000E+00 0. -1.
         -2    1    5    5    0  502  0.22553261504E+03  0.44458417490E+03 -0.69247490095E+03  0.85325350129E+03  0.00000000000E+00 0.  1.
         -3    1    6    6    0  503  0.39003929981E+03 -0.24225911685E+03 -0.54785584123E+02  0.46240847237E+03  0.00000000000E+00 0.  1.
<mgrwt>
<rscale>  0 0.37753369E+04</rscale>
<asrwt>0</asrwt>
<pdfrwt beam="1">  1        1 0.50575477E+00 0.37753369E+04</pdfrwt>
<pdfrwt beam="2">  1       -1 0.16675725E+00 0.37753369E+04</pdfrwt>
<totfact> 0.75607334E-02</totfact>
</mgrwt>
</event>
<event>
12    1  0.4802930E-008  0.1805863E+04  0.7818608E-02  0.8703188E-01
          1   -1    0    0  501    0  0.00000000000E+00  0.00000000000E+00  0.17088254069E+04  0.17088254069E+04  0.00000000000E+00 0. -1.
         -1   -1    0    0    0  501 -0.00000000000E+00 -0.00000000000E+00 -0.47710283613E+03  0.47710283613E+03  0.00000000000E+00 0.  1.
         23    2    1    2    0    0  0.15219605564E+03  0.15244779772E+03  0.12469483655E+04  0.12687155901E+04  0.91405972825E+02 0.  0.
        254    2    1    2    0    0 -0.15219605564E+03 -0.15244779772E+03 -0.15225794685E+02  0.91721265301E+03  0.89142765025E+03 0.  0.
         23    2    4    4    0    0 -0.22911882634E+03  0.51013293645E+02 -0.39602272682E+03  0.46933264297E+03  0.91330919703E+02 0.  0.
         23    2    4    4    0    0  0.76922770704E+02 -0.20346109137E+03  0.38079693213E+03  0.44788001003E+03  0.90976214010E+02 0.  0.
         11    1    3    3    0    0  0.48024962425E+02  0.98978781251E+02  0.45233507410E+03  0.46552144464E+03  0.00000000000E+00 0.  1.
        -11    1    3    3    0    0  0.10417109321E+03  0.53469016473E+02  0.79461329140E+03  0.80319414543E+03  0.00000000000E+00 0. -1.
          2    1    5    5  502    0 -0.15360028982E+03  0.27308768012E+02 -0.17438163087E+03  0.23398241607E+03  0.00000000000E+00 0. -1.
          1    1    6    6  503    0  0.74089104993E+01 -0.68184268229E+02  0.53544800429E+02  0.87011677616E+02  0.00000000000E+00 0. -1.
         -2    1    5    5    0  502 -0.75518536519E+02  0.23704525633E+02 -0.22164109594E+03  0.23535022690E+03  0.00000000000E+00 0.  1.
         -1    1    6    6    0  503  0.69513860204E+02 -0.13527682314E+03  0.32725213170E+03  0.36086833242E+03  0.00000000000E+00 0.  1.
<mgrwt>
<rscale>  0 0.18058632E+04</rscale>
<asrwt>0</asrwt>
<pdfrwt beam="1">  1        1 0.26289621E+00 0.18058632E+04</pdfrwt>
<pdfrwt beam="2">  1       -1 0.73400437E-01 0.18058632E+04</pdfrwt>
<totfact> 0.82904254E+00</totfact>
</mgrwt>
</event>
<event>
12    1  0.4802930E-008  0.2637203E+04  0.7818608E-02  0.8355673E-01
          2   -1    0    0  501    0  0.00000000000E+00  0.00000000000E+00  0.15216661956E+04  0.15216661956E+04  0.00000000000E+00 0.  1.
         -2   -1    0    0    0  501 -0.00000000000E+00 -0.00000000000E+00 -0.11426358540E+04  0.11426358540E+04  0.00000000000E+00 0. -1.
         23    2    1    2    0    0  0.64149425252E+03  0.92293696713E+02  0.11451983329E+04  0.13192183864E+04  0.93941081821E+02 0.  0.
        254    2    1    2    0    0 -0.64149425252E+03 -0.92293696713E+02 -0.76616799130E+03  0.13450836631E+04  0.89565823140E+03 0.  0.
         23    2    4    4    0    0 -0.39778458935E+03 -0.42721018453E+03 -0.17267513852E+03  0.61535970175E+03  0.90054082549E+02 0.  0.
         23    2    4    4    0    0 -0.24370966316E+03  0.33491648781E+03 -0.59349285278E+03  0.72972396138E+03  0.93272931699E+02 0.  0.
         13    1    3    3    0    0  0.41207651350E+02 -0.15540757608E+02  0.96291749538E+02  0.10588525254E+03  0.00000000000E+00 0. -1.
        -13    1    3    3    0    0  0.60028660117E+03  0.10783445432E+03  0.10489065834E+04  0.12133331339E+04  0.00000000000E+00 0.  1.
          2    1    5    5  502    0 -0.26890831942E+03 -0.29985949203E+03 -0.16113056976E+03  0.43380924348E+03  0.00000000000E+00 0.  1.
          3    1    6    6  503    0 -0.15643450260E+03  0.13784443243E+03 -0.31023397981E+03  0.37378866139E+03  0.00000000000E+00 0. -1.
         -2    1    5    5    0  502 -0.12887626993E+03 -0.12735069249E+03 -0.11544568757E+02  0.18155045827E+03  0.00000000000E+00 0. -1.
         -3    1    6    6    0  503 -0.87275160564E+02  0.19707205538E+03 -0.28325887297E+03  0.35593529999E+03  0.00000000000E+00 0.  1.
<mgrwt>
<rscale>  0 0.26372033E+04</rscale>
<asrwt>0</asrwt>
<pdfrwt beam="1">  1        2 0.23410249E+00 0.26372033E+04</pdfrwt>
<pdfrwt beam="2">  1       -2 0.17579013E+00 0.26372033E+04</pdfrwt>
<totfact> 0.21114960E+00</totfact>
</mgrwt>
</event>
<event>
12    1  0.4802930E-008  0.1629299E+04  0.7818608E-02  0.8802748E-01
         -1   -1    0    0    0  501 -0.00000000000E+00  0.00000000000E+00  0.86543140950E+03  0.86543140950E+03  0.00000000000E+00 0.  1.
          1   -1    0    0  501    0  0.00000000000E+00 -0.00000000000E+00 -0.76684738403E+03  0.76684738403E+03  0.00000000000E+00 0. -1.
         23    2    1    2    0    0  0.32752353049E+03  0.12767347801E+03  0.47670857493E+03  0.59900891994E+03  0.89378077520E+02 0.  0.
        254    2    1    2    0    0 -0.32752353049E+03 -0.12767347801E+03 -0.37812454946E+03  0.10332698736E+04  0.89503981854E+03 0.  0.
         23    2    4    4    0    0  0.77098990978E+02  0.37312045052E+02  0.23996751957E+03  0.27090544004E+03  0.92026647646E+02 0.  0.
         23    2    4    4    0    0 -0.40462252147E+03 -0.16498552307E+03 -0.61809206903E+03  0.76236443356E+03  0.90675884698E+02 0.  0.
         11    1    3    3    0    0  0.49167088852E+02  0.48084990748E+02  0.58038948031E+02  0.89989379651E+02  0.00000000000E+00 0. -1.
        -11    1    3    3    0    0  0.27835644164E+03  0.79588487266E+02  0.41866962690E+03  0.50901954029E+03  0.00000000000E+00 0.  1.
          1    1    5    5  502    0  0.85556610948E+02  0.34848452138E+02  0.12413273626E+03  0.15473617710E+03  0.00000000000E+00 0. -1.
          3    1    6    6  503    0 -0.33823109476E+03 -0.13072100147E+03 -0.56245781651E+03  0.66921375438E+03  0.00000000000E+00 0. -1.
         -1    1    5    5    0  502 -0.84576199704E+01  0.24635929139E+01  0.11583478331E+03  0.11616926294E+03  0.00000000000E+00 0.  1.
         -3    1    6    6    0  503 -0.66391426706E+02 -0.34264521592E+02 -0.55634252515E+02  0.93150679186E+02  0.00000000000E+00 0.  1.
<mgrwt>
<rscale>  0 0.16292990E+04</rscale>
<asrwt>0</asrwt>
<pdfrwt beam="1">  1        1 0.11797652E+00 0.16292990E+04</pdfrwt>
<pdfrwt beam="2">  1       -1 0.13314329E+00 0.16292990E+04</pdfrwt>
<totfact> 0.10807806E+01</totfact>
</mgrwt>
</event>
<event>
12    1  0.4802930E-008  0.1195235E+04  0.7818608E-02  0.9117037E-01
          1   -1    0    0  501    0  0.00000000000E+00  0.00000000000E+00  0.84714426856E+03  0.84714426856E+03  0.00000000000E+00 0. -1.
         -1   -1    0    0    0  501 -0.00000000000E+00 -0.00000000000E+00 -0.42158907882E+03  0.42158907882E+03  0.00000000000E+00 0.  1.
         23    2    1    2    0    0  0.54537581516E+01 -0.24681970201E+03  0.63120910090E+02  0.26903317040E+03  0.86283768492E+02 0.  0.
        254    2    1    2    0    0 -0.54537581516E+01  0.24681970201E+03  0.36243427965E+03  0.99970017698E+03  0.89838306307E+03 0.  0.
         23    2    4    4    0    0  0.32302898646E+03  0.40388740359E+03  0.33629556378E+03  0.62342276637E+03  0.89935969164E+02 0.  0.
         23    2    4    4    0    0 -0.32848274461E+03 -0.15706770158E+03  0.26138715871E+02  0.37627741061E+03  0.91270372415E+02 0.  0.
         13    1    3    3    0    0 -0.72260928367E+01 -0.34491759622E+02  0.42677511799E+02  0.55346796771E+02  0.00000000000E+00 0. -1.
        -13    1    3    3    0    0  0.12679850988E+02 -0.21232794239E+03  0.20443398292E+02  0.21368637363E+03  0.00000000000E+00 0.  1.
          1    1    5    5  502    0  0.14468532162E+03  0.14253377151E+03  0.17590985202E+03  0.26868940126E+03  0.00000000000E+00 0. -1.
          3    1    6    6  503    0 -0.25838310308E+03 -0.86318092483E+02 -0.32365718617E+01  0.27243919770E+03  0.00000000000E+00 0. -1.
         -1    1    5    5    0  502  0.17834366484E+03  0.26135363208E+03  0.16038571175E+03  0.35473336511E+03  0.00000000000E+00 0.  1.
         -3    1    6    6    0  503 -0.70099641526E+02 -0.70749609097E+02  0.29375287733E+02  0.10383821290E+03  0.00000000000E+00 0.  1.
<mgrwt>
<rscale>  0 0.11952352E+04</rscale>
<asrwt>0</asrwt>
<pdfrwt beam="1">  1        1 0.13032989E+00 0.11952352E+04</pdfrwt>
<pdfrwt beam="2">  1       -1 0.64859858E-01 0.11952352E+04</pdfrwt>
<totfact> 0.48065626E+01</totfact>
</mgrwt>
</event>
<event>
12    1  0.4802930E-008  0.2102780E+04  0.7818608E-02  0.8560020E-01
          2   -1    0    0  501    0  0.00000000000E+00  0.00000000000E+00  0.13061021638E+04  0.13061021638E+04  0.00000000000E+00 0. -1.
         -2   -1    0    0    0  501 -0.00000000000E+00 -0.00000000000E+00 -0.84635127405E+03  0.84635127405E+03  0.00000000000E+00 0.  1.
         23    2    1    2    0    0 -0.51249922811E+03 -0.31157069741E+03  0.80578079006E+03  0.10092019768E+04  0.97335451374E+02 0.  0.
        254    2    1    2    0    0  0.51249922811E+03  0.31157069741E+03 -0.34602990030E+03  0.11432514610E+04  0.90970074913E+03 0.  0.
         23    2    4    4    0    0 -0.43883755950E+02 -0.59539696863E+02  0.22850416923E+03  0.25686147347E+03  0.91065370240E+02 0.  0.
         23    2    4    4    0    0  0.55638298406E+03  0.37111039427E+03 -0.57453406953E+03  0.88638998757E+03  0.91174905144E+02 0.  0.
         13    1    3    3    0    0 -0.37080956790E+03 -0.18345601219E+03  0.50409515718E+03  0.65212557958E+03  0.00000000000E+00 0. -1.
        -13    1    3    3    0    0 -0.14168966022E+03 -0.12811468522E+03  0.30168563287E+03  0.35707639724E+03  0.00000000000E+00 0.  1.
          1    1    5    5  502    0 -0.20020575793E+02 -0.24504209719E+02  0.84365697800E+01  0.32748365741E+02  0.00000000000E+00 0. -1.
          3    1    6    6  503    0  0.85231768230E+02  0.35628253573E+02 -0.47403852958E+02  0.10383136349E+03  0.00000000000E+00 0. -1.
         -1    1    5    5    0  502 -0.23863180157E+02 -0.35035487144E+02  0.22006759945E+03  0.22411310773E+03  0.00000000000E+00 0.  1.
         -3    1    6    6    0  503  0.47115121583E+03  0.33548214070E+03 -0.52713021657E+03  0.78255862408E+03  0.00000000000E+00 0.  1.
<mgrwt>
<rscale>  0 0.21027803E+04</rscale>
<asrwt>0</asrwt>
<pdfrwt beam="1">  1        2 0.20093879E+00 0.21027803E+04</pdfrwt>
<pdfrwt beam="2">  1       -2 0.13020789E+00 0.21027803E+04</pdfrwt>
<totfact> 0.65354528E+00</totfact>
</mgrwt>
</event>
<event>
12    1  0.4802930E-008  0.2051516E+04  0.7818608E-02  0.8582907E-01
         -1   -1    0    0    0  501 -0.00000000000E+00  0.00000000000E+00  0.86399185016E+03  0.86399185016E+03  0.00000000000E+00 0.  1.
          1   -1    0    0  501    0  0.00000000000E+00 -0.00000000000E+00 -0.12178123890E+04  0.12178123890E+04  0.00000000000E+00 0. -1.
         23    2    1    2    0    0 -0.63074528397E+03 -0.14835348163E+03 -0.65975592597E+03  0.92906206930E+03  0.89610702475E+02 0.  0.
        254    2    1    2    0    0  0.63074528397E+03  0.14835348163E+03  0.30593538711E+03  0.11527421699E+04  0.90297822809E+03 0.  0.
         23    2    4    4    0    0 -0.10494784116E+03  0.16440909801E+02 -0.20037242105E+03  0.24530608067E+03  0.93496594672E+02 0.  0.
         23    2    4    4    0    0  0.73569312513E+03  0.13191257183E+03  0.50630780816E+03  0.90743608922E+03  0.91909512333E+02 0.  0.
         13    1    3    3    0    0 -0.23428051700E+03 -0.86286878859E+02 -0.20938124188E+03  0.32584243210E+03  0.00000000000E+00 0.  1.
        -13    1    3    3    0    0 -0.39646476697E+03 -0.62066602767E+02 -0.45037468410E+03  0.60321963720E+03  0.00000000000E+00 0. -1.
          4    1    5    5  502    0 -0.53172980606E+02  0.53375704231E+02 -0.13154996637E+03  0.15159724707E+03  0.00000000000E+00 0. -1.
          3    1    6    6  503    0  0.45018594517E+03  0.12414623407E+03  0.29882299333E+03  0.55441397349E+03  0.00000000000E+00 0. -1.
         -4    1    5    5    0  502 -0.51774860555E+02 -0.36934794431E+02 -0.68822454686E+02  0.93708833597E+02  0.00000000000E+00 0.  1.
         -3    1    6    6    0  503  0.28550717995E+03  0.77663377537E+01  0.20748481484E+03  0.35302211573E+03  0.00000000000E+00 0.  1.
<mgrwt>
<rscale>  0 0.20515165E+04</rscale>
<asrwt>0</asrwt>
<pdfrwt beam="1">  1        1 0.18735575E+00 0.20515165E+04</pdfrwt>
<pdfrwt beam="2">  1       -1 0.13292182E+00 0.20515165E+04</pdfrwt>
<totfact> 0.45908093E+00</totfact>
</mgrwt>
</event>
<event>
12    1  0.4802930E-008  0.1156507E+04  0.7818608E-02  0.9151801E-01
          1   -1    0    0  501    0  0.00000000000E+00  0.00000000000E+00  0.49928956517E+03  0.49928956517E+03  0.00000000000E+00 0. -1.
         -1   -1    0    0    0  501 -0.00000000000E+00 -0.00000000000E+00 -0.66970616688E+03  0.66970616688E+03  0.00000000000E+00 0.  1.
         23    2    1    2    0    0 -0.11887402387E+03 -0.16224317190E+03 -0.88527380204E+01  0.22187649680E+03  0.93257324000E+02 0.  0.
        254    2    1    2    0    0  0.11887402387E+03  0.16224317190E+03 -0.16156386369E+03  0.94711923526E+03  0.91130570248E+03 0.  0.
         23    2    4    4    0    0 -0.41497867371E+02 -0.36171038277E+03 -0.99553394990E+02  0.38843321087E+03  0.91722444665E+02 0.  0.
         23    2    4    4    0    0  0.16037189124E+03  0.52395355467E+03 -0.62010468700E+02  0.55868602439E+03  0.89656593001E+02 0.  0.
         13    1    3    3    0    0  0.10285527448E+02 -0.34297371801E+02  0.14397996342E+02  0.38592798370E+02  0.00000000000E+00 0.  1.
        -13    1    3    3    0    0 -0.12915955132E+03 -0.12794580010E+03 -0.23250734362E+02  0.18328369843E+03  0.00000000000E+00 0. -1.
          2    1    5    5  502    0 -0.32041459028E+02 -0.31170599712E+02 -0.14503334734E+02  0.46995830681E+02  0.00000000000E+00 0.  1.
          3    1    6    6  503    0  0.13383532340E+03  0.42062441591E+03 -0.85104875620E+02  0.44953268280E+03  0.00000000000E+00 0. -1.
         -2    1    5    5    0  502 -0.94564083430E+01 -0.33053978306E+03 -0.85050060256E+02  0.34143738019E+03  0.00000000000E+00 0. -1.
         -3    1    6    6    0  503  0.26536567836E+02  0.10332913876E+03  0.23094406920E+02  0.10915334159E+03  0.00000000000E+00 0.  1.
<mgrwt>
<rscale>  0 0.11565073E+04</rscale>
<asrwt>0</asrwt>
<pdfrwt beam="1">  1        1 0.76813779E-01 0.11565073E+04</pdfrwt>
<pdfrwt beam="2">  1       -1 0.10303172E+00 0.11565073E+04</pdfrwt>
<totfact> 0.39244029E+01</totfact>
</mgrwt>
</event>
<event>
12    1  0.4802930E-008  0.1371319E+04  0.7818608E-02  0.8974845E-01
          1   -1    0    0  501    0  0.00000000000E+00  0.00000000000E+00  0.46037670994E+03  0.46037670994E+03  0.00000000000E+00 0. -1.
         -1   -1    0    0    0  501 -0.00000000000E+00 -0.00000000000E+00 -0.10211837953E+04  0.10211837953E+04  0.00000000000E+00 0.  1.
         23    2    1    2    0    0 -0.33326260749E+03  0.96293826869E+02 -0.29499649742E+03  0.46676813477E+03  0.10253336773E+03 0.  0.
        254    2    1    2    0    0  0.33326260749E+03 -0.96293826869E+02 -0.26581058791E+03  0.10147923705E+04  0.91586670419E+03 0.  0.
         23    2    4    4    0    0 -0.27474296787E+03 -0.15446637034E+03  0.31670559070E+02  0.32939678410E+03  0.90308687886E+02 0.  0.
         23    2    4    4    0    0  0.60800557536E+03  0.58172543472E+02 -0.29748114698E+03  0.68539558635E+03  0.90649062327E+02 0.  0.
         13    1    3    3    0    0 -0.30870664495E+03  0.66751034520E+02 -0.22799397602E+03  0.38953401180E+03  0.00000000000E+00 0.  1.
        -13    1    3    3    0    0 -0.24555962537E+02  0.29542792349E+02 -0.67002521408E+02  0.77234122970E+02  0.00000000000E+00 0. -1.
          2    1    5    5  502    0 -0.10244783288E+02  0.51566947283E+01  0.16497527203E+02  0.20092672518E+02  0.00000000000E+00 0. -1.
          1    1    6    6  503    0  0.28242956036E+02 -0.13453945025E+02 -0.36662349896E+01  0.31497848838E+02  0.00000000000E+00 0. -1.
         -2    1    5    5    0  502 -0.26449818458E+03 -0.15962306507E+03  0.15173031868E+02  0.30930411159E+03  0.00000000000E+00 0.  1.
         -1    1    6    6    0  503  0.57976261932E+03  0.71626488498E+02 -0.29381491199E+03  0.65389773751E+03  0.00000000000E+00 0.  1.
<mgrwt>
<rscale>  0 0.13713194E+04</rscale>
<asrwt>0</asrwt>
<pdfrwt beam="1">  1        1 0.70827187E-01 0.13713194E+04</pdfrwt>
<pdfrwt beam="2">  1       -1 0.15710520E+00 0.13713194E+04</pdfrwt>
<totfact> 0.14915438E+01</totfact>
</mgrwt>
</event>
<event>
12    1  0.4802930E-008  0.1315585E+04  0.7818608E-02  0.9017297E-01
          2   -1    0    0  501    0  0.00000000000E+00  0.00000000000E+00  0.41243003623E+03  0.41243003623E+03  0.00000000000E+00 0. -1.
         -2   -1    0    0    0  501 -0.00000000000E+00 -0.00000000000E+00 -0.10491259897E+04  0.10491259897E+04  0.00000000000E+00 0.  1.
         23    2    1    2    0    0  0.31581762510E+03 -0.14456568787E+03 -0.17111021793E+03  0.39779857425E+03  0.91241375287E+02 0.  0.
        254    2    1    2    0    0 -0.31581762510E+03  0.14456568787E+03 -0.46558573556E+03  0.10637574517E+04  0.89116206632E+03 0.  0.
         23    2    4    4    0    0  0.80004759479E+02  0.42180481469E+03 -0.96683114164E+02  0.44960011924E+03  0.92046615514E+02 0.  0.
         23    2    4    4    0    0 -0.39582238458E+03 -0.27723912681E+03 -0.36890262140E+03  0.61415733245E+03  0.86966610622E+02 0.  0.
         11    1    3    3    0    0  0.66531928107E+02  0.76128814090E+01 -0.28541730299E+02  0.72794806060E+02  0.00000000000E+00 0. -1.
        -11    1    3    3    0    0  0.24928569699E+03 -0.15217856928E+03 -0.14256848763E+03  0.32500376819E+03  0.00000000000E+00 0.  1.
          4    1    5    5  502    0  0.65539389033E+02  0.36256432866E+03 -0.11492648715E+03  0.38594870304E+03  0.00000000000E+00 0. -1.
          1    1    6    6  503    0 -0.23505806336E+03 -0.20083451577E+03 -0.19634883894E+03  0.36625081902E+03  0.00000000000E+00 0. -1.
         -4    1    5    5    0  502  0.14465370446E+02  0.59240486029E+02  0.18243372982E+02  0.63651416205E+02  0.00000000000E+00 0.  1.
         -1    1    6    6    0  503 -0.16076432122E+03 -0.76404611038E+02 -0.17255378245E+03  0.24790651344E+03  0.00000000000E+00 0.  1.
<mgrwt>
<rscale>  0 0.13155851E+04</rscale>
<asrwt>0</asrwt>
<pdfrwt beam="1">  1        2 0.63450777E-01 0.13155851E+04</pdfrwt>
<pdfrwt beam="2">  1       -2 0.16140399E+00 0.13155851E+04</pdfrwt>
<totfact> 0.18476735E+01</totfact>
</mgrwt>
</event>
<event>
12    1  0.4802930E-008  0.3036284E+04  0.7818608E-02  0.8233445E-01
         -2   -1    0    0    0  501 -0.00000000000E+00  0.00000000000E+00  0.21709252539E+04  0.21709252539E+04  0.00000000000E+00 0. -1.
          2   -1    0    0  501    0  0.00000000000E+00 -0.00000000000E+00 -0.10616465233E+04  0.10616465233E+04  0.00000000000E+00 0.  1.
         23    2    1    2    0    0 -0.94780690519E+03  0.10008035481E+04  0.62607478217E+03  0.15166447890E+04  0.91082994243E+02 0.  0.
        254    2    1    2    0    0  0.94780690519E+03 -0.10008035481E+04  0.48320394837E+03  0.17159269881E+04  0.90054078279E+03 0.  0.
         23    2    4    4    0    0  0.82670543984E+03 -0.43941408396E+03 -0.29448198233E+02  0.94109720927E+03  0.90940307279E+02 0.  0.
         23    2    4    4    0    0  0.12110146536E+03 -0.56138946413E+03  0.51265214661E+03  0.77482977886E+03  0.87893500544E+02 0.  0.
         13    1    3    3    0    0 -0.26702172165E+03  0.28208750519E+03  0.22203083341E+03  0.44740546644E+03  0.00000000000E+00 0.  1.
        -13    1    3    3    0    0 -0.68078518354E+03  0.71871604290E+03  0.40404394876E+03  0.10692393226E+04  0.00000000000E+00 0. -1.
          3    1    5    5  502    0  0.65949866963E+02 -0.46880138409E+02  0.20873664907E+02  0.83563402374E+02  0.00000000000E+00 0. -1.
          3    1    6    6  503    0 -0.43162336209E+01 -0.15605791602E+03  0.12276887105E+03  0.19860739847E+03  0.00000000000E+00 0. -1.
         -3    1    5    5    0  502  0.76075557287E+03 -0.39253394555E+03 -0.50321863139E+02  0.85753380690E+03  0.00000000000E+00 0.  1.
         -3    1    6    6    0  503  0.12541769898E+03 -0.40533154811E+03  0.38988327556E+03  0.57622238039E+03  0.00000000000E+00 0.  1.
<mgrwt>
<rscale>  0 0.30362841E+04</rscale>
<asrwt>0</asrwt>
<pdfrwt beam="1">  1        2 0.16333024E+00 0.30362841E+04</pdfrwt>
<pdfrwt beam="2">  1       -2 0.33398850E+00 0.30362841E+04</pdfrwt>
<totfact> 0.38505162E-01</totfact>
</mgrwt>
</event>
<event>
12    1  0.4802930E-008  0.2322794E+04  0.7818608E-02  0.8468988E-01
         -1   -1    0    0    0  501 -0.00000000000E+00  0.00000000000E+00  0.99183854496E+03  0.99183854496E+03  0.00000000000E+00 0.  1.
          1   -1    0    0  501    0  0.00000000000E+00 -0.00000000000E+00 -0.13599420191E+04  0.13599420191E+04  0.00000000000E+00 0. -1.
         23    2    1    2    0    0  0.55338432828E+03 -0.11270563137E+03  0.66163207795E+03  0.87476128372E+03  0.92268753073E+02 0.  0.
        254    2    1    2    0    0 -0.55338432828E+03  0.11270563137E+03 -0.10297355521E+04  0.14770192803E+04  0.89570858716E+03 0.  0.
         23    2    4    4    0    0  0.16167742580E+03 -0.17257274220E+03 -0.41931059039E+03  0.49023124351E+03  0.92651818880E+02 0.  0.
         23    2    4    4    0    0 -0.71506175408E+03  0.28527837357E+03 -0.61042496168E+03  0.98678803680E+03  0.91841892194E+02 0.  0.
         13    1    3    3    0    0  0.15019270501E+03 -0.54885754237E+02  0.13696769884E+03  0.21054796409E+03  0.00000000000E+00 0. -1.
        -13    1    3    3    0    0  0.40319162327E+03 -0.57819877129E+02  0.52466437912E+03  0.66421331964E+03  0.00000000000E+00 0.  1.
          2    1    5    5  502    0  0.16853519776E+03 -0.15095433287E+03 -0.34530137741E+03  0.41282485964E+03  0.00000000000E+00 0. -1.
          4    1    6    6  503    0 -0.29506300359E+03  0.16477988982E+03 -0.28252400076E+03  0.44049335884E+03  0.00000000000E+00 0. -1.
         -2    1    5    5    0  502 -0.68577719657E+01 -0.21618409331E+02 -0.74009212980E+02  0.77406383873E+02  0.00000000000E+00 0.  1.
         -4    1    6    6    0  503 -0.41999875049E+03  0.12049848375E+03 -0.32790096092E+03  0.54629467797E+03  0.00000000000E+00 0.  1.
<mgrwt>
<rscale>  0 0.23227939E+04</rscale>
<asrwt>0</asrwt>
<pdfrwt beam="1">  1        1 0.20922185E+00 0.23227939E+04</pdfrwt>
<pdfrwt beam="2">  1       -1 0.15259055E+00 0.23227939E+04</pdfrwt>
<totfact> 0.24638633E+00</totfact>
</mgrwt>
</event>
<event>
12    1  0.4802930E-008  0.2693564E+04  0.7818608E-02  0.8337096E-01
         -2   -1    0    0    0  501 -0.00000000000E+00  0.00000000000E+00  0.75097894239E+03  0.75097894239E+03  0.00000000000E+00 0.  1.
          2   -1    0    0  501    0  0.00000000000E+00 -0.00000000000E+00 -0.24152759467E+04  0.24152759467E+04  0.00000000000E+00 0. -1.
         23    2    1    2    0    0  0.11755668542E+03  0.97908643740E+03 -0.15120500651E+04  0.18074944373E+04  0.91164221039E+02 0.  0.
        254    2    1    2    0    0 -0.11755668542E+03 -0.97908643740E+03 -0.15224693918E+03  0.13587604518E+04  0.92229117347E+03 0.  0.
         23    2    4    4    0    0 -0.23079878055E+03 -0.11774833934E+03  0.27272220567E+03  0.38722468545E+03  0.91830316535E+02 0.  0.
         23    2    4    4    0    0  0.11324209512E+03 -0.86133809806E+03 -0.42496914485E+03  0.97153576634E+03  0.92497999620E+02 0.  0.
         13    1    3    3    0    0 -0.33494433465E+01 -0.38376627129E+00 -0.41816039496E+01  0.53713926382E+01  0.00000000000E+00 0.  1.
        -13    1    3    3    0    0  0.12090612877E+03  0.97947020367E+03 -0.15078684612E+04  0.18021230446E+04  0.00000000000E+00 0. -1.
          4    1    5    5  502    0 -0.86330607052E+02 -0.22229276355E+02  0.41500935858E+02  0.98333321505E+02  0.00000000000E+00 0. -1.
          3    1    6    6  503    0  0.52794915260E+02 -0.13882677959E+03 -0.66806281413E+02  0.16285962374E+03  0.00000000000E+00 0. -1.
         -4    1    5    5    0  502 -0.14446817349E+03 -0.95519062987E+02  0.23122126981E+03  0.28889136394E+03  0.00000000000E+00 0.  1.
         -3    1    6    6    0  503  0.60447179862E+02 -0.72251131847E+03 -0.35816286343E+03  0.80867614260E+03  0.00000000000E+00 0.  1.
<mgrwt>
<rscale>  0 0.26935637E+04</rscale>
<asrwt>0</asrwt>
<pdfrwt beam="1">  1        2 0.37158091E+00 0.26935637E+04</pdfrwt>
<pdfrwt beam="2">  1       -2 0.11553522E+00 0.26935637E+04</pdfrwt>
<totfact> 0.19933109E+00</totfact>
</mgrwt>
</event>
<event>
12    1  0.4802930E-008  0.1476092E+04  0.7818608E-02  0.8900509E-01
         -2   -1    0    0    0  501 -0.00000000000E+00  0.00000000000E+00  0.16518149902E+03  0.16518149902E+03  0.00000000000E+00 0.  1.
          2   -1    0    0  501    0  0.00000000000E+00 -0.00000000000E+00 -0.32976576208E+04  0.32976576208E+04  0.00000000000E+00 0. -1.
         23    2    1    2    0    0 -0.12190120382E+03 -0.37066577668E+03 -0.16266846904E+04  0.16751752205E+04  0.88633603605E+02 0.  0.
        254    2    1    2    0    0  0.12190120382E+03  0.37066577668E+03 -0.15057914314E+04  0.17876638994E+04  0.88095480067E+03 0.  0.
         23    2    4    4    0    0 -0.27725950465E+03  0.35651486396E+03 -0.40618169516E+03  0.61427425099E+03  0.91507402976E+02 0.  0.
         23    2    4    4    0    0  0.39916070847E+03  0.14150912719E+02 -0.10996097362E+04  0.11733896484E+04  0.90400085421E+02 0.  0.
         13    1    3    3    0    0 -0.10993157299E+03 -0.23606604697E+03 -0.94482021293E+03  0.98004967427E+03  0.00000000000E+00 0. -1.
        -13    1    3    3    0    0 -0.11969630830E+02 -0.13459972971E+03 -0.68186447749E+03  0.69512554619E+03  0.00000000000E+00 0.  1.
          4    1    5    5  502    0 -0.22396297959E+03  0.31754870975E+03 -0.30744899285E+03  0.49550124369E+03  0.00000000000E+00 0. -1.
          1    1    6    6  503    0  0.23630714808E+03  0.52616427035E+01 -0.77287016985E+03  0.80820607060E+03  0.00000000000E+00 0. -1.
         -4    1    5    5    0  502 -0.53296525061E+02  0.38966154207E+02 -0.98732702311E+02  0.11877300730E+03  0.00000000000E+00 0.  1.
         -1    1    6    6    0  503  0.16285356039E+03  0.88892700159E+01 -0.32673956635E+03  0.36518357777E+03  0.00000000000E+00 0.  1.
<mgrwt>
<rscale>  0 0.14760922E+04</rscale>
<asrwt>0</asrwt>
<pdfrwt beam="1">  1        2 0.50733186E+00 0.14760922E+04</pdfrwt>
<pdfrwt beam="2">  1       -2 0.25412542E-01 0.14760922E+04</pdfrwt>
<totfact> 0.15244630E+01</totfact>
</mgrwt>
</event>
<event>
12    1  0.4802930E-008  0.1627899E+04  0.7818608E-02  0.8803590E-01
         -2   -1    0    0    0  501 -0.00000000000E+00  0.00000000000E+00  0.55648127624E+03  0.55648127624E+03  0.00000000000E+00 0.  1.
          2   -1    0    0  501    0  0.00000000000E+00 -0.00000000000E+00 -0.11905408591E+04  0.11905408591E+04  0.00000000000E+00 0. -1.
         23    2    1    2    0    0  0.16569645282E+03 -0.25595354231E+03 -0.73488398931E+03  0.80078860172E+03  0.90776520074E+02 0.  0.
        254    2    1    2    0    0 -0.16569645282E+03  0.25595354231E+03  0.10082440646E+03  0.94623353362E+03  0.89007011460E+03 0.  0.
         23    2    4    4    0    0  0.34259476486E+03  0.24214763979E+02 -0.54506238813E+02  0.35933538515E+03  0.90517739976E+02 0.  0.
         23    2    4    4    0    0 -0.50829121767E+03  0.23173877834E+03  0.15533064528E+03  0.58689814847E+03  0.90879062297E+02 0.  0.
         11    1    3    3    0    0  0.16714455249E+03 -0.23132122308E+03 -0.60958271809E+03  0.67308090143E+03  0.00000000000E+00 0. -1.
        -11    1    3    3    0    0 -0.14480996722E+01 -0.24632319230E+02 -0.12530127122E+03  0.12770770029E+03  0.00000000000E+00 0.  1.
          4    1    5    5  502    0  0.98650536063E+01 -0.16026802135E+02 -0.97822550103E+01  0.21210143385E+02  0.00000000000E+00 0. -1.
          1    1    6    6  503    0 -0.85659058139E+02  0.78939643682E+02  0.35933261012E+02  0.12190217731E+03  0.00000000000E+00 0. -1.
         -4    1    5    5    0  502  0.33272971125E+03  0.40241566114E+02 -0.44723983803E+02  0.33812524176E+03  0.00000000000E+00 0.  1.
         -1    1    6    6    0  503 -0.42263215953E+03  0.15279913465E+03  0.11939738427E+03  0.46499597116E+03  0.00000000000E+00 0.  1.
<mgrwt>
<rscale>  0 0.16278989E+04</rscale>
<asrwt>0</asrwt>
<pdfrwt beam="1">  1        2 0.18316013E+00 0.16278989E+04</pdfrwt>
<pdfrwt beam="2">  1       -2 0.85612504E-01 0.16278989E+04</pdfrwt>
<totfact> 0.21768816E+01</totfact>
</mgrwt>
</event>
<event>
12    1  0.4802930E-008  0.2042700E+04  0.7818608E-02  0.8586913E-01
         -3   -1    0    0    0  501 -0.00000000000E+00  0.00000000000E+00  0.10799735572E+04  0.10799735572E+04  0.00000000000E+00 0.  1.
          3   -1    0    0  501    0  0.00000000000E+00 -0.00000000000E+00 -0.96590881063E+03  0.96590881063E+03  0.00000000000E+00 0. -1.
         23    2    1    2    0    0 -0.32853883811E+03  0.12933802367E+02  0.83780562521E+03  0.90477138942E+03  0.92671193394E+02 0.  0.
        254    2    1    2    0    0  0.32853883811E+03 -0.12933802367E+02 -0.72374087867E+03  0.11411109784E+04  0.81867475478E+03 0.  0.
         23    2    4    4    0    0  0.42050914695E+03 -0.31050718611E+03 -0.58260149662E+03  0.78790749002E+03  0.90172355346E+02 0.  0.
         23    2    4    4    0    0 -0.91970308840E+02  0.29757338374E+03 -0.14113938205E+03  0.35320348835E+03  0.88452940022E+02 0.  0.
         11    1    3    3    0    0 -0.11054152909E+03 -0.65936113176E+01  0.17823945820E+03  0.20983853274E+03  0.00000000000E+00 0.  1.
        -11    1    3    3    0    0 -0.21799730903E+03  0.19527413684E+02  0.65956616701E+03  0.69493285668E+03  0.00000000000E+00 0. -1.
          2    1    5    5  502    0  0.32227977538E+03 -0.26789380112E+03 -0.42082892528E+03  0.59390935896E+03  0.00000000000E+00 0.  1.
          3    1    6    6  503    0 -0.39487483392E+01  0.14724605718E+03 -0.43907738029E+02  0.15370388228E+03  0.00000000000E+00 0. -1.
         -2    1    5    5    0  502  0.98229371572E+02 -0.42613384985E+02 -0.16177257134E+03  0.19399813106E+03  0.00000000000E+00 0. -1.
         -3    1    6    6    0  503 -0.88021560501E+02  0.15032732656E+03 -0.97231644021E+02  0.19949960607E+03  0.00000000000E+00 0.  1.
<mgrwt>
<rscale>  0 0.20427001E+04</rscale>
<asrwt>0</asrwt>
<pdfrwt beam="1">  1        3 0.14860136E+00 0.20427001E+04</pdfrwt>
<pdfrwt beam="2">  1       -3 0.16614978E+00 0.20427001E+04</pdfrwt>
<totfact> 0.19727296E-01</totfact>
</mgrwt>
</event>
<event>
12    1  0.4802930E-008  0.1160430E+04  0.7818608E-02  0.9148215E-01
          2   -1    0    0  501    0  0.00000000000E+00  0.00000000000E+00  0.58855194217E+03  0.58855194217E+03  0.00000000000E+00 0. -1.
         -2   -1    0    0    0  501 -0.00000000000E+00 -0.00000000000E+00 -0.57199646106E+03  0.57199646106E+03  0.00000000000E+00 0.  1.
         23    2    1    2    0    0  0.10284822842E+03  0.21826294034E+03 -0.24032265134E+02  0.25878388007E+03  0.90416135728E+02 0.  0.
        254    2    1    2    0    0 -0.10284822842E+03 -0.21826294034E+03  0.40587746249E+02  0.90176452316E+03  0.86793745217E+03 0.  0.
         23    2    4    4    0    0 -0.43448672301E+03 -0.12999791840E+03  0.21100909101E+03  0.50820601321E+03  0.89835094003E+02 0.  0.
         23    2    4    4    0    0  0.33163849459E+03 -0.88265021939E+02 -0.17042134476E+03  0.39355850995E+03  0.89833517196E+02 0.  0.
         11    1    3    3    0    0 -0.24595486460E+01 -0.78515708547E+01 -0.53324716058E+00  0.82450528781E+01  0.00000000000E+00 0. -1.
        -11    1    3    3    0    0  0.10530777706E+03  0.22611451119E+03 -0.23499017973E+02  0.25053882719E+03  0.00000000000E+00 0.  1.
          2    1    5    5  502    0 -0.25523038174E+03 -0.12165225673E+03  0.12299330704E+03  0.30833289301E+03  0.00000000000E+00 0. -1.
          3    1    6    6  503    0  0.33290973345E+03 -0.85636267815E+02 -0.15363223057E+03  0.37651736117E+03  0.00000000000E+00 0. -1.
         -2    1    5    5    0  502 -0.17925634127E+03 -0.83456616709E+01  0.88015783969E+02  0.19987312020E+03  0.00000000000E+00 0.  1.
         -3    1    6    6    0  503 -0.12712388591E+01 -0.26287541237E+01 -0.16789114192E+02  0.17041148783E+02  0.00000000000E+00 0.  1.
<mgrwt>
<rscale>  0 0.11604303E+04</rscale>
<asrwt>0</asrwt>
<pdfrwt beam="1">  1        2 0.90546453E-01 0.11604303E+04</pdfrwt>
<pdfrwt beam="2">  1       -2 0.87999455E-01 0.11604303E+04</pdfrwt>
<totfact> 0.55918885E+01</totfact>
</mgrwt>
</event>
<event>
12    1  0.4802930E-008  0.1357794E+04  0.7818608E-02  0.8984949E-01
         -1   -1    0    0    0  501 -0.00000000000E+00  0.00000000000E+00  0.49419684481E+03  0.49419684481E+03  0.00000000000E+00 0.  1.
          1   -1    0    0  501    0  0.00000000000E+00 -0.00000000000E+00 -0.93262603854E+03  0.93262603854E+03  0.00000000000E+00 0. -1.
         23    2    1    2    0    0  0.29467147162E+03  0.18206343907E+03 -0.25511960665E+03  0.43963134666E+03  0.90616418140E+02 0.  0.
        254    2    1    2    0    0 -0.29467147162E+03 -0.18206343907E+03 -0.18330958709E+03  0.98719153669E+03  0.90607193609E+03 0.  0.
         23    2    4    4    0    0 -0.73630382853E+02  0.27636776505E+03  0.18357125580E+03  0.35290447640E+03  0.95092526885E+02 0.  0.
         23    2    4    4    0    0 -0.22104108877E+03 -0.45843120412E+03 -0.36688084289E+03  0.63428706029E+03  0.93274809803E+02 0.  0.
         13    1    3    3    0    0  0.13519541178E+03  0.13582686366E+03 -0.12697578375E+03  0.22989037804E+03  0.00000000000E+00 0.  1.
        -13    1    3    3    0    0  0.15947605985E+03  0.46236575403E+02 -0.12814382290E+03  0.20974096862E+03  0.00000000000E+00 0. -1.
          1    1    6    6  502    0 -0.38771935948E+02 -0.13563745961E+03 -0.14478770475E+03  0.20214911060E+03  0.00000000000E+00 0. -1.
          1    1    5    5  503    0 -0.29606997450E+02  0.13944854193E+03  0.36407510228E+02  0.14713251492E+03  0.00000000000E+00 0.  1.
         -1    1    5    5    0  503 -0.44023385404E+02  0.13691922312E+03  0.14716374557E+03  0.20577196148E+03  0.00000000000E+00 0. -1.
         -1    1    6    6    0  502 -0.18226915282E+03 -0.32279374450E+03 -0.22209313814E+03  0.43213794970E+03  0.00000000000E+00 0.  1.
<mgrwt>
<rscale>  0 0.13577936E+04</rscale>
<asrwt>0</asrwt>
<pdfrwt beam="1">  1        1 0.14348093E+00 0.13577936E+04</pdfrwt>
<pdfrwt beam="2">  1       -1 0.76030284E-01 0.13577936E+04</pdfrwt>
<totfact> 0.29099831E+01</totfact>
</mgrwt>
</event>
<event>
12    1  0.4802930E-008  0.1427139E+04  0.7818608E-02  0.8934405E-01
         -2   -1    0    0    0  501 -0.00000000000E+00  0.00000000000E+00  0.26141525532E+03  0.26141525532E+03  0.00000000000E+00 0.  1.
          2   -1    0    0  501    0  0.00000000000E+00 -0.00000000000E+00 -0.19477886029E+04  0.19477886029E+04  0.00000000000E+00 0. -1.
         23    2    1    2    0    0 -0.32221721787E+03 -0.29874542109E+02 -0.87111021006E+02  0.34736460405E+03  0.91418895238E+02 0.  0.
        254    2    1    2    0    0  0.32221721787E+03  0.29874542109E+02 -0.15992623266E+04  0.18618392542E+04  0.89671009553E+03 0.  0.
         23    2    4    4    0    0 -0.21083529282E+02 -0.37900955684E+03 -0.47901461982E+03  0.61754334463E+03  0.88385616010E+02 0.  0.
         23    2    4    4    0    0  0.34330074715E+03  0.40888409895E+03 -0.11202477068E+04  0.12442959096E+04  0.90971295724E+02 0.  0.
         13    1    3    3    0    0 -0.13011154184E+03  0.20032328848E+02 -0.67428980597E+02  0.14790867095E+03  0.00000000000E+00 0.  1.
        -13    1    3    3    0    0 -0.19210567603E+03 -0.49906870957E+02 -0.19682040409E+02  0.19945593309E+03  0.00000000000E+00 0. -1.
          2    1    6    6  502    0  0.20390569341E+03  0.17572920537E+03 -0.59052206838E+03  0.64897965967E+03  0.00000000000E+00 0. -1.
          2    1    5    5  503    0 -0.26474416508E+02 -0.36378945522E+03 -0.41960414256E+03  0.55597778635E+03  0.00000000000E+00 0. -1.
         -2    1    5    5    0  503  0.53908872262E+01 -0.15220101613E+02 -0.59410477264E+02  0.61565558285E+02  0.00000000000E+00 0.  1.
         -2    1    6    6    0  502  0.13939505374E+03  0.23315489358E+03 -0.52972563839E+03  0.59531624988E+03  0.00000000000E+00 0.  1.
<mgrwt>
<rscale>  0 0.14271393E+04</rscale>
<asrwt>0</asrwt>
<pdfrwt beam="1">  1        2 0.29965979E+00 0.14271393E+04</pdfrwt>
<pdfrwt beam="2">  1       -2 0.40217731E-01 0.14271393E+04</pdfrwt>
<totfact> 0.40619060E+01</totfact>
</mgrwt>
</event>
<event>
12    1  0.4802930E-008  0.1152175E+04  0.7818608E-02  0.9155779E-01
          2   -1    0    0  501    0  0.00000000000E+00  0.00000000000E+00  0.16491846456E+04  0.16491846456E+04  0.00000000000E+00 0. -1.
         -2   -1    0    0    0  501 -0.00000000000E+00 -0.00000000000E+00 -0.20123686098E+03  0.20123686098E+03  0.00000000000E+00 0.  1.
         23    2    1    2    0    0  0.63989018324E+02 -0.80310960911E+02  0.52127589735E+03  0.53903087169E+03  0.91001508583E+02 0.  0.
        254    2    1    2    0    0 -0.63989018324E+02  0.80310960911E+02  0.92667188722E+03  0.13113906349E+04  0.92221481538E+03 0.  0.
         23    2    4    4    0    0 -0.17144689810E+02  0.27795479259E+03  0.10266166951E+04  0.10675005935E+04  0.89793492305E+02 0.  0.
         23    2    4    4    0    0 -0.46844328513E+02 -0.19764383168E+03 -0.99944807928E+02  0.24389004135E+03  0.90751927381E+02 0.  0.
         11    1    3    3    0    0 -0.19107471775E+02 -0.70014164547E+01  0.36881208080E+02  0.42122901365E+02  0.00000000000E+00 0.  1.
        -11    1    3    3    0    0  0.83096490099E+02 -0.73309544457E+02  0.48439468928E+03  0.49690797033E+03  0.00000000000E+00 0. -1.
          2    1    5    5  502    0  0.34463690465E+02  0.14608962004E+03  0.48641438509E+03  0.50904702834E+03  0.00000000000E+00 0.  1.
          3    1    6    6  503    0 -0.41628635996E+00  0.92622898368E+01  0.43139183811E+00  0.92816704462E+01  0.00000000000E+00 0. -1.
         -2    1    5    5    0  502 -0.51608380276E+02  0.13186517255E+03  0.54020231006E+03  0.55845356516E+03  0.00000000000E+00 0. -1.
         -3    1    6    6    0  503 -0.46428042153E+02 -0.20690612151E+03 -0.10037619977E+03  0.23460837090E+03  0.00000000000E+00 0.  1.
<mgrwt>
<rscale>  0 0.11521749E+04</rscale>
<asrwt>0</asrwt>
<pdfrwt beam="1">  1        2 0.25372071E+00 0.11521749E+04</pdfrwt>
<pdfrwt beam="2">  1       -2 0.30959518E-01 0.11521749E+04</pdfrwt>
<totfact> 0.10012659E+02</totfact>
</mgrwt>
</event>
<event>
12    1  0.4802930E-008  0.1970385E+04  0.7818608E-02  0.8620593E-01
          1   -1    0    0  501    0  0.00000000000E+00  0.00000000000E+00  0.30317163221E+04  0.30317163221E+04  0.00000000000E+00 0. -1.
         -1   -1    0    0    0  501 -0.00000000000E+00 -0.00000000000E+00 -0.32015003878E+03  0.32015003878E+03  0.00000000000E+00 0.  1.
         23    2    1    2    0    0 -0.41435527004E+03 -0.51066892048E+02  0.22431045818E+04  0.22834216281E+04  0.90543080979E+02 0.  0.
        254    2    1    2    0    0  0.41435527004E+03  0.51066892048E+02  0.46846170151E+03  0.10684447328E+04  0.86476566995E+03 0.  0.
         23    2    4    4    0    0  0.55001402773E+02 -0.28487116337E+03  0.48005232525E+03  0.56796754013E+03  0.89219715474E+02 0.  0.
         23    2    4    4    0    0  0.35935386726E+03  0.33593805542E+03 -0.11590623748E+02  0.50047719264E+03  0.91397476972E+02 0.  0.
         13    1    3    3    0    0 -0.26810962682E+03 -0.72104575700E+02  0.15610821017E+04  0.15855784969E+04  0.00000000000E+00 0. -1.
        -13    1    3    3    0    0 -0.14624564322E+03  0.21037683652E+02  0.68202248013E+03  0.69784313115E+03  0.00000000000E+00 0.  1.
          4    1    5    5  502    0 -0.68836495543E+01 -0.14861927722E+03  0.29126272847E+03  0.32706123462E+03  0.00000000000E+00 0. -1.
          3    1    6    6  503    0  0.17373131289E+03  0.10406581995E+03 -0.18669182733E+02  0.20337355370E+03  0.00000000000E+00 0. -1.
         -4    1    5    5    0  502  0.61885052328E+02 -0.13625188615E+03  0.18878959678E+03  0.24090630551E+03  0.00000000000E+00 0.  1.
         -3    1    6    6    0  503  0.18562255437E+03  0.23187223547E+03  0.70785589846E+01  0.29710363894E+03  0.00000000000E+00 0.  1.
<mgrwt>
<rscale>  0 0.19703848E+04</rscale>
<asrwt>0</asrwt>
<pdfrwt beam="1">  1        1 0.46641788E+00 0.19703848E+04</pdfrwt>
<pdfrwt beam="2">  1       -1 0.49253854E-01 0.19703848E+04</pdfrwt>
<totfact> 0.21814297E+00</totfact>
</mgrwt>
</event>
<event>
12    1  0.4802930E-008  0.1543576E+04  0.7818608E-02  0.8855982E-01
         -2   -1    0    0    0  501 -0.00000000000E+00  0.00000000000E+00  0.20818144251E+03  0.20818144251E+03  0.00000000000E+00 0.  1.
          2   -1    0    0  501    0  0.00000000000E+00 -0.00000000000E+00 -0.28612379624E+04  0.28612379624E+04  0.00000000000E+00 0. -1.
         23    2    1    2    0    0 -0.46471332110E+03 -0.93623854691E+02 -0.53672354371E+03  0.72185330355E+03  0.90973251558E+02 0.  0.
        254    2    1    2    0    0  0.46471332110E+03  0.93623854691E+02 -0.21163329762E+04  0.23475661014E+04  0.89859748343E+03 0.  0.
         23    2    4    4    0    0  0.40388796475E+03  0.34218285989E+03 -0.19624594976E+04  0.20345539935E+04  0.89151977446E+02 0.  0.
         23    2    4    4    0    0  0.60825356351E+02 -0.24855900520E+03 -0.15387347860E+03  0.31301210788E+03  0.93905427025E+02 0.  0.
         11    1    3    3    0    0 -0.26707166777E+03 -0.80161912171E+02 -0.25791484587E+03  0.37983322078E+03  0.00000000000E+00 0.  1.
        -11    1    3    3    0    0 -0.19764165333E+03 -0.13461942520E+02 -0.27880869784E+03  0.34202008277E+03  0.00000000000E+00 0. -1.
          2    1    5    5  502    0  0.37292861967E+03  0.28009647453E+03 -0.16631681859E+04  0.17273268958E+04  0.00000000000E+00 0.  1.
          1    1    6    6  503    0 -0.89836262504E+01 -0.13831215276E+02 -0.39352555532E+02  0.42668860818E+02  0.00000000000E+00 0. -1.
         -2    1    5    5    0  502  0.30959345082E+02  0.62086385352E+02 -0.29929131171E+03  0.30722709770E+03  0.00000000000E+00 0. -1.
         -1    1    6    6    0  503  0.69808982602E+02 -0.23472778992E+03 -0.11452092307E+03  0.27034324706E+03  0.00000000000E+00 0.  1.
<mgrwt>
<rscale>  0 0.15435759E+04</rscale>
<asrwt>0</asrwt>
<pdfrwt beam="1">  1        2 0.44019043E+00 0.15435759E+04</pdfrwt>
<pdfrwt beam="2">  1       -2 0.32027916E-01 0.15435759E+04</pdfrwt>
<totfact> 0.18633990E+01</totfact>
</mgrwt>
</event>
<event>
12    1  0.4802930E-008  0.2104672E+04  0.7818608E-02  0.8559188E-01
         -2   -1    0    0    0  501 -0.00000000000E+00  0.00000000000E+00  0.29726156497E+03  0.29726156497E+03  0.00000000000E+00 0.  1.
          2   -1    0    0  501    0  0.00000000000E+00 -0.00000000000E+00 -0.37253757165E+04  0.37253757165E+04  0.00000000000E+00 0. -1.
         23    2    1    2    0    0  0.42889964528E+03  0.71080818122E+03 -0.17856841547E+04  0.19718145513E+04  0.10090365725E+03 0.  0.
        254    2    1    2    0    0 -0.42889964528E+03 -0.71080818122E+03 -0.16424299968E+04  0.20508227302E+04  0.90503834171E+03 0.  0.
         23    2    4    4    0    0  0.19493989521E+03  0.12196310653E+02 -0.58479732883E+03  0.62311805060E+03  0.90210179265E+02 0.  0.
         23    2    4    4    0    0 -0.62383954049E+03 -0.72300449187E+03 -0.10576326680E+04  0.14277046796E+04  0.88558027005E+02 0.  0.
         13    1    3    3    0    0  0.28427547923E+03  0.45006407384E+03 -0.12523750230E+04  0.13608135129E+04  0.00000000000E+00 0. -1.
        -13    1    3    3    0    0  0.14462416605E+03  0.26074410738E+03 -0.53330913172E+03  0.61100103839E+03  0.00000000000E+00 0.  1.
          2    1    5    5  502    0  0.10344814731E+03  0.85957243244E+01 -0.43778593679E+03  0.44992436266E+03  0.00000000000E+00 0.  1.
          4    1    6    6  503    0 -0.28469575804E+03 -0.26905108999E+03 -0.45872538151E+03  0.60321566567E+03  0.00000000000E+00 0. -1.
         -2    1    5    5    0  502  0.91491747901E+02  0.36005863288E+01 -0.14701139204E+03  0.17319368795E+03  0.00000000000E+00 0. -1.
         -4    1    6    6    0  503 -0.33914378245E+03 -0.45395340188E+03 -0.59890728649E+03  0.82448901391E+03  0.00000000000E+00 0.  1.
<mgrwt>
<rscale>  0 0.21046720E+04</rscale>
<asrwt>0</asrwt>
<pdfrwt beam="1">  1        2 0.57313472E+00 0.21046720E+04</pdfrwt>
<pdfrwt beam="2">  1       -2 0.45732549E-01 0.21046720E+04</pdfrwt>
<totfact> 0.23490026E+00</totfact>
</mgrwt>
</event>
<event>
12    1  0.4802930E-008  0.1442767E+04  0.7818608E-02  0.8923431E-01
          2   -1    0    0  501    0  0.00000000000E+00  0.00000000000E+00  0.14375974694E+04  0.14375974694E+04  0.00000000000E+00 0. -1.
         -2   -1    0    0    0  501 -0.00000000000E+00 -0.00000000000E+00 -0.36198860751E+03  0.36198860751E+03  0.00000000000E+00 0.  1.
         23    2    1    2    0    0 -0.34699465844E+03  0.22853417529E+03  0.17699875027E+03  0.46055992570E+03  0.90297980632E+02 0.  0.
        254    2    1    2    0    0  0.34699465844E+03 -0.22853417529E+03  0.89861011164E+03  0.13390261512E+04  0.90158623476E+03 0.  0.
         23    2    4    4    0    0 -0.20342944766E+03  0.18118721987E+03  0.37500404645E+03  0.47189234766E+03  0.88555090809E+02 0.  0.
         23    2    4    4    0    0  0.55042410609E+03 -0.40972139516E+03  0.52360606519E+03  0.86713380358E+03  0.83182952535E+02 0.  0.
         11    1    3    3    0    0 -0.30606246897E+03  0.22395577173E+03  0.17890216393E+03  0.41932851902E+03  0.00000000000E+00 0. -1.
        -11    1    3    3    0    0 -0.40932189462E+02  0.45784035552E+01 -0.19034136545E+01  0.41231406680E+02  0.00000000000E+00 0.  1.
          1    1    5    5  502    0 -0.42392106271E+02  0.61169511058E+01  0.27949897548E+02  0.51143958958E+02  0.00000000000E+00 0. -1.
          1    1    6    6  503    0  0.49070499848E+02 -0.37853803387E+02  0.20070967325E+02  0.65143442614E+02  0.00000000000E+00 0. -1.
         -1    1    5    5    0  502 -0.16103734138E+03  0.17507026877E+03  0.34705414890E+03  0.42074838870E+03  0.00000000000E+00 0.  1.
         -1    1    6    6    0  503  0.50135360624E+03 -0.37186759177E+03  0.50353509787E+03  0.80199036097E+03  0.00000000000E+00 0.  1.
<mgrwt>
<rscale>  0 0.14427667E+04</rscale>
<asrwt>0</asrwt>
<pdfrwt beam="1">  1        2 0.22116884E+00 0.14427667E+04</pdfrwt>
<pdfrwt beam="2">  1       -2 0.55690556E-01 0.14427667E+04</pdfrwt>
<totfact> 0.40472487E+01</totfact>
</mgrwt>
</event>
<event>
12    1  0.4802930E-008  0.5740980E+04  0.7818608E-02  0.7723374E-01
         -2   -1    0    0    0  501 -0.00000000000E+00  0.00000000000E+00  0.37177333427E+04  0.37177333427E+04  0.00000000000E+00 0.  1.
          2   -1    0    0  501    0  0.00000000000E+00 -0.00000000000E+00 -0.22163268399E+04  0.22163268399E+04  0.00000000000E+00 0. -1.
         23    2    1    2    0    0 -0.10258233995E+04  0.89842608381E+03  0.32563452662E+04  0.35315212918E+04  0.91515390652E+02 0.  0.
        254    2    1    2    0    0  0.10258233995E+04 -0.89842608381E+03 -0.17549387633E+04  0.24025388908E+04  0.91263354284E+03 0.  0.
         23    2    4    4    0    0  0.91874983751E+03 -0.27829370903E+03 -0.79324222653E+03  0.12486492708E+04  0.91340676482E+02 0.  0.
         23    2    4    4    0    0  0.10707356202E+03 -0.62013237478E+03 -0.96169653682E+03  0.11538896199E+04  0.10282079636E+03 0.  0.
         11    1    3    3    0    0 -0.87379445914E+03  0.72117125430E+03  0.27229574630E+04  0.29492544957E+04  0.00000000000E+00 0.  1.
        -11    1    3    3    0    0 -0.15202894038E+03  0.17725482951E+03  0.53338780320E+03  0.58226679616E+03  0.00000000000E+00 0. -1.
          4    1    5    5  502    0  0.78720045115E+03 -0.22937734219E+03 -0.63456288415E+03  0.10368069103E+04  0.00000000000E+00 0. -1.
          3    1    6    6  503    0  0.10908548696E+03 -0.35024893933E+03 -0.52325684760E+03  0.63903966350E+03  0.00000000000E+00 0. -1.
         -4    1    5    5    0  502  0.13154938635E+03 -0.48916366836E+02 -0.15867934237E+03  0.21184236047E+03  0.00000000000E+00 0.  1.
         -3    1    6    6    0  503 -0.20119249461E+01 -0.26988343545E+03 -0.43843968922E+03  0.51484995645E+03  0.00000000000E+00 0.  1.
<mgrwt>
<rscale>  0 0.57409798E+04</rscale>
<asrwt>0</asrwt>
<pdfrwt beam="1">  1        2 0.34097336E+00 0.57409798E+04</pdfrwt>
<pdfrwt beam="2">  1       -2 0.57195898E+00 0.57409798E+04</pdfrwt>
<totfact> 0.23593872E-03</totfact>
</mgrwt>
</event>
<event>
12    1  0.4802930E-008  0.2274596E+04  0.7818608E-02  0.8488006E-01
         -2   -1    0    0    0  501 -0.00000000000E+00  0.00000000000E+00  0.69969723870E+03  0.69969723870E+03  0.00000000000E+00 0.  1.
          2   -1    0    0  501    0  0.00000000000E+00 -0.00000000000E+00 -0.18485799214E+04  0.18485799214E+04  0.00000000000E+00 0. -1.
         23    2    1    2    0    0  0.58036884480E+03 -0.30244002326E+03  0.29534467579E+03  0.72360286363E+03  0.89859128928E+02 0.  0.
        254    2    1    2    0    0 -0.58036884480E+03  0.30244002326E+03 -0.14442273584E+04  0.18246742964E+04  0.90296492817E+03 0.  0.
         23    2    4    4    0    0 -0.66104357158E+03  0.11188973648E+02 -0.51436249347E+03  0.84265020091E+03  0.91579417720E+02 0.  0.
         23    2    4    4    0    0  0.80674726784E+02  0.29125104962E+03 -0.92986486498E+03  0.98202409553E+03  0.91580956677E+02 0.  0.
         13    1    3    3    0    0  0.47604181660E+02 -0.43738540941E+02  0.74233969454E+01  0.65071690446E+02  0.00000000000E+00 0. -1.
        -13    1    3    3    0    0  0.53276466314E+03 -0.25870148232E+03  0.28792127884E+03  0.65853117318E+03  0.00000000000E+00 0.  1.
          2    1    5    5  502    0 -0.62711017486E+03 -0.28228049273E+01 -0.46299633398E+03  0.77951314609E+03  0.00000000000E+00 0. -1.
          4    1    6    6  503    0  0.44213168238E+02  0.21227986921E+03 -0.77093504946E+03  0.80084854848E+03  0.00000000000E+00 0. -1.
         -2    1    5    5    0  502 -0.33933396723E+02  0.14011778575E+02 -0.51366159482E+02  0.63137054824E+02  0.00000000000E+00 0.  1.
         -4    1    6    6    0  503  0.36461558546E+02  0.78971180402E+02 -0.15892981552E+03  0.18117554704E+03  0.00000000000E+00 0.  1.
<mgrwt>
<rscale>  0 0.22745956E+04</rscale>
<asrwt>0</asrwt>
<pdfrwt beam="1">  1        2 0.28439691E+00 0.22745956E+04</pdfrwt>
<pdfrwt beam="2">  1       -2 0.10764573E+00 0.22745956E+04</pdfrwt>
<totfact> 0.51005551E+00</totfact>
</mgrwt>
</event>
<event>
12    1  0.4802930E-008  0.1472684E+04  0.7818608E-02  0.8902824E-01
         -1   -1    0    0    0  501 -0.00000000000E+00  0.00000000000E+00  0.44705179275E+03  0.44705179275E+03  0.00000000000E+00 0.  1.
          1   -1    0    0  501    0  0.00000000000E+00 -0.00000000000E+00 -0.12128331661E+04  0.12128331661E+04  0.00000000000E+00 0. -1.
         23    2    1    2    0    0  0.16016858700E+03 -0.34265343256E+03  0.23812955829E+02  0.39054952773E+03  0.94321395431E+02 0.  0.
        254    2    1    2    0    0 -0.16016858700E+03  0.34265343256E+03 -0.78959432920E+03  0.12693354311E+04  0.91906902948E+03 0.  0.
         23    2    4    4    0    0  0.17673157114E+02  0.38079288435E+03  0.59502984067E+02  0.39667142191E+03  0.92152322776E+02 0.  0.
         23    2    4    4    0    0 -0.17784174411E+03 -0.38139451787E+02 -0.84909731327E+03  0.87266400924E+03  0.86567441309E+02 0.  0.
         13    1    3    3    0    0  0.59964952179E+02 -0.21921548875E+03  0.39911581000E+02  0.23074696162E+03  0.00000000000E+00 0.  1.
        -13    1    3    3    0    0  0.10020363482E+03 -0.12343794381E+03 -0.16098625171E+02  0.15980256611E+03  0.00000000000E+00 0. -1.
          4    1    6    6  502    0 -0.21409298454E+02  0.22924549990E+02 -0.18641837811E+03  0.18903889745E+03  0.00000000000E+00 0. -1.
          4    1    5    5  503    0  0.26581901348E+02  0.29196148246E+03  0.82353799804E+02  0.30451642495E+03  0.00000000000E+00 0. -1.
         -4    1    5    5    0  503 -0.89087442342E+01  0.88831401887E+02 -0.22850815737E+02  0.92154996961E+02  0.00000000000E+00 0.  1.
         -4    1    6    6    0  502 -0.15643244566E+03 -0.61064001777E+02 -0.66267893516E+03  0.68362511179E+03  0.00000000000E+00 0.  1.
<mgrwt>
<rscale>  0 0.14726836E+04</rscale>
<asrwt>0</asrwt>
<pdfrwt beam="1">  1        1 0.18658972E+00 0.14726836E+04</pdfrwt>
<pdfrwt beam="2">  1       -1 0.68777200E-01 0.14726836E+04</pdfrwt>
<totfact> 0.21688645E+01</totfact>
</mgrwt>
</event>
<event>
12    1  0.4802930E-008  0.1460896E+04  0.7818608E-02  0.8910881E-01
         -2   -1    0    0    0  501 -0.00000000000E+00  0.00000000000E+00  0.13876098142E+04  0.13876098142E+04  0.00000000000E+00 0.  1.
          2   -1    0    0  501    0  0.00000000000E+00 -0.00000000000E+00 -0.38451323727E+03  0.38451323727E+03  0.00000000000E+00 0. -1.
         23    2    1    2    0    0 -0.78846251029E+02 -0.41308150853E+03  0.48459756308E+03  0.64862469934E+03  0.95005991749E+02 0.  0.
        254    2    1    2    0    0  0.78846251029E+02  0.41308150853E+03  0.51849901387E+03  0.11234983521E+04  0.90363391697E+03 0.  0.
         23    2    4    4    0    0  0.53829813572E+02  0.62050817631E+03  0.61112594944E+03  0.87723839436E+03  0.90245380860E+02 0.  0.
         23    2    4    4    0    0  0.25016437457E+02 -0.20742666778E+03 -0.92626935565E+02  0.24625995779E+03  0.91720079424E+02 0.  0.
         13    1    3    3    0    0 -0.59012040350E+02 -0.40307850991E+03  0.47031942020E+03  0.62221785821E+03  0.00000000000E+00 0. -1.
        -13    1    3    3    0    0 -0.19834210679E+02 -0.10002998622E+02  0.14278142872E+02  0.26406841132E+02  0.00000000000E+00 0.  1.
          1    1    5    5  502    0  0.46069150573E+02  0.58188738643E+03  0.59815278291E+03  0.83576435006E+03  0.00000000000E+00 0. -1.
          3    1    6    6  503    0  0.25254868855E+02 -0.20297102213E+03 -0.10726542749E+03  0.23095652439E+03  0.00000000000E+00 0. -1.
         -1    1    5    5    0  502  0.77606629993E+01  0.38620789877E+02  0.12973166524E+02  0.41474044300E+02  0.00000000000E+00 0.  1.
         -3    1    6    6    0  503 -0.23843139813E+00 -0.44556456461E+01  0.14638491928E+02  0.15303433392E+02  0.00000000000E+00 0.  1.
<mgrwt>
<rscale>  0 0.14608961E+04</rscale>
<asrwt>0</asrwt>
<pdfrwt beam="1">  1        2 0.59155883E-01 0.14608961E+04</pdfrwt>
<pdfrwt beam="2">  1       -2 0.21347843E+00 0.14608961E+04</pdfrwt>
<totfact> 0.87561499E+00</totfact>
</mgrwt>
</event>
<event>
12    1  0.4802930E-008  0.1730351E+04  0.7818608E-02  0.8744241E-01
         -1   -1    0    0    0  501 -0.00000000000E+00  0.00000000000E+00  0.55048279834E+03  0.55048279834E+03  0.00000000000E+00 0.  1.
          1   -1    0    0  501    0  0.00000000000E+00 -0.00000000000E+00 -0.13597680653E+04  0.13597680653E+04  0.00000000000E+00 0. -1.
         23    2    1    2    0    0  0.48851848338E+03 -0.52732178202E+02  0.13480542524E+03  0.51734113827E+03  0.89656898518E+02 0.  0.
        254    2    1    2    0    0 -0.48851848338E+03  0.52732178202E+02 -0.94409069219E+03  0.13929097254E+04  0.89858737845E+03 0.  0.
         23    2    4    4    0    0  0.23344215512E+03 -0.11984865471E+03 -0.26366590374E+03  0.38088433475E+03  0.81818261022E+02 0.  0.
         23    2    4    4    0    0 -0.72196063850E+03  0.17258083291E+03 -0.68042478845E+03  0.10120253906E+04  0.10102569517E+03 0.  0.
         11    1    3    3    0    0  0.47231078312E+03 -0.61743737529E+02  0.14261240432E+03  0.49722033631E+03  0.00000000000E+00 0.  1.
        -11    1    3    3    0    0  0.16207700259E+02  0.90115593273E+01 -0.78069790774E+01  0.20120801960E+02  0.00000000000E+00 0. -1.
          2    1    5    5  502    0  0.23257174657E+03 -0.11500231083E+03 -0.26892585069E+03  0.37367935716E+03  0.00000000000E+00 0. -1.
          3    1    6    6  503    0 -0.27994105463E+03  0.19538353546E+02 -0.27735054775E+03  0.39455299728E+03  0.00000000000E+00 0. -1.
         -2    1    5    5    0  502  0.87040855264E+00 -0.48463438823E+01  0.52599469517E+01  0.72049775856E+01  0.00000000000E+00 0.  1.
         -3    1    6    6    0  503 -0.44201958387E+03  0.15304247937E+03 -0.40307424070E+03  0.61747239333E+03  0.00000000000E+00 0.  1.
<mgrwt>
<rscale>  0 0.17303513E+04</rscale>
<asrwt>0</asrwt>
<pdfrwt beam="1">  1        1 0.20919508E+00 0.17303513E+04</pdfrwt>
<pdfrwt beam="2">  1       -1 0.84689662E-01 0.17303513E+04</pdfrwt>
<totfact> 0.10743484E+01</totfact>
</mgrwt>
</event>
<event>
12    1  0.4802930E-008  0.2121981E+04  0.7818608E-02  0.8551622E-01
         -2   -1    0    0    0  501 -0.00000000000E+00  0.00000000000E+00  0.78469193674E+03  0.78469193674E+03  0.00000000000E+00 0.  1.
          2   -1    0    0  501    0  0.00000000000E+00 -0.00000000000E+00 -0.14345768137E+04  0.14345768137E+04  0.00000000000E+00 0. -1.
         23    2    1    2    0    0 -0.53943369439E+03  0.30665222522E+03  0.36812519206E+03  0.72715096674E+03  0.90598419026E+02 0.  0.
        254    2    1    2    0    0  0.53943369439E+03 -0.30665222522E+03 -0.10180100690E+04  0.14921177837E+04  0.89724393669E+03 0.  0.
         23    2    4    4    0    0 -0.17002444619E+02  0.82151263810E+02 -0.74468336745E+03  0.75481729180E+03  0.90321165678E+02 0.  0.
         23    2    4    4    0    0  0.55643613901E+03 -0.38880348903E+03 -0.27332670157E+03  0.73730049190E+03  0.90084403150E+02 0.  0.
         13    1    3    3    0    0 -0.76343475727E+02  0.14531704840E+02  0.28131653088E+02  0.82649178078E+02  0.00000000000E+00 0. -1.
        -13    1    3    3    0    0 -0.46309021866E+03  0.29212052038E+03  0.33999353897E+03  0.64450178866E+03  0.00000000000E+00 0.  1.
          2    1    5    5  502    0 -0.23352513813E+02  0.77063463789E+02 -0.74184061598E+03  0.74619810833E+03  0.00000000000E+00 0. -1.
          3    1    6    6  503    0  0.36811675121E+03 -0.24270959426E+03 -0.13225124621E+03  0.46033496694E+03  0.00000000000E+00 0. -1.
         -2    1    5    5    0  502  0.63500691938E+01  0.50878000202E+01 -0.28427514743E+01  0.86191834738E+01  0.00000000000E+00 0.  1.
         -3    1    6    6    0  503  0.18831938780E+03 -0.14609389476E+03 -0.14107545536E+03  0.27696552495E+03  0.00000000000E+00 0.  1.
<mgrwt>
<rscale>  0 0.21219810E+04</rscale>
<asrwt>0</asrwt>
<pdfrwt beam="1">  1        2 0.22070412E+00 0.21219810E+04</pdfrwt>
<pdfrwt beam="2">  1       -2 0.12072184E+00 0.21219810E+04</pdfrwt>
<totfact> 0.66550783E+00</totfact>
</mgrwt>
</event>
<event>
12    1  0.4802930E-008  0.2622432E+04  0.7818608E-02  0.8360621E-01
          1   -1    0    0  501    0  0.00000000000E+00  0.00000000000E+00  0.18795502252E+04  0.18795502252E+04  0.00000000000E+00 0. -1.
         -1   -1    0    0    0  501 -0.00000000000E+00 -0.00000000000E+00 -0.91473339826E+03  0.91473339826E+03  0.00000000000E+00 0.  1.
         23    2    1    2    0    0  0.58333224059E+02 -0.10627046842E+04  0.89028919926E+03  0.13908545864E+04  0.95486183597E+02 0.  0.
        254    2    1    2    0    0 -0.58333224059E+02  0.10627046842E+04  0.74527627696E+02  0.14034290371E+04  0.91176459902E+03 0.  0.
         23    2    4    4    0    0  0.29114968194E+03  0.81670682595E+03  0.28550883868E+03  0.91763823077E+03  0.93629315709E+02 0.  0.
         23    2    4    4    0    0 -0.34948290600E+03  0.24599785825E+03 -0.21098121098E+03  0.48579080633E+03  0.93948859911E+02 0.  0.
         11    1    3    3    0    0 -0.19929409637E+02 -0.16999450239E+03  0.11844037565E+03  0.20814282307E+03  0.00000000000E+00 0. -1.
        -11    1    3    3    0    0  0.78262633696E+02 -0.89271018182E+03  0.77184882361E+03  0.11827117633E+04  0.00000000000E+00 0.  1.
          1    1    5    5  502    0  0.13129290307E+03  0.35007728052E+03  0.74956732416E+02  0.38132720918E+03  0.00000000000E+00 0. -1.
          1    1    6    6  503    0 -0.23913174065E+03  0.18413137153E+03 -0.10130116888E+03  0.31835558450E+03  0.00000000000E+00 0. -1.
         -1    1    5    5    0  502  0.15985677887E+03  0.46662954544E+03  0.21055210626E+03  0.53631102159E+03  0.00000000000E+00 0.  1.
         -1    1    6    6    0  503 -0.11035116535E+03  0.61866486720E+02 -0.10968004210E+03  0.16743522183E+03  0.00000000000E+00 0.  1.
<mgrwt>
<rscale>  0 0.26224320E+04</rscale>
<asrwt>0</asrwt>
<pdfrwt beam="1">  1        1 0.28916157E+00 0.26224320E+04</pdfrwt>
<pdfrwt beam="2">  1       -1 0.14072822E+00 0.26224320E+04</pdfrwt>
<totfact> 0.13074152E+00</totfact>
</mgrwt>
</event>
<event>
12    1  0.4802930E-008  0.3160008E+04  0.7818608E-02  0.8199460E-01
         -2   -1    0    0    0  501 -0.00000000000E+00  0.00000000000E+00  0.16213957308E+04  0.16213957308E+04  0.00000000000E+00 0.  1.
          2   -1    0    0  501    0  0.00000000000E+00 -0.00000000000E+00 -0.15396688950E+04  0.15396688950E+04  0.00000000000E+00 0. -1.
         23    2    1    2    0    0 -0.28590238752E+02  0.76707653774E+03  0.12777126918E+04  0.14933428437E+04  0.91100546143E+02 0.  0.
        254    2    1    2    0    0  0.28590238752E+02 -0.76707653774E+03 -0.11959858560E+04  0.16677217821E+04  0.87274850807E+03 0.  0.
         23    2    4    4    0    0  0.20395694093E+02 -0.89148858809E+02 -0.92110343233E+03  0.93046994934E+03  0.94759116775E+02 0.  0.
         23    2    4    4    0    0  0.81945446590E+01 -0.67792767893E+03 -0.27488242362E+03  0.73725183275E+03  0.91251463908E+02 0.  0.
         11    1    3    3    0    0  0.18748574135E+02  0.38154039982E+02  0.67490930015E+02  0.79763810299E+02  0.00000000000E+00 0. -1.
        -11    1    3    3    0    0 -0.47338812887E+02  0.72892249775E+03  0.12102217618E+04  0.14135790334E+04  0.00000000000E+00 0.  1.
          2    1    5    5  502    0 -0.64744857248E+01 -0.10102216085E+03 -0.65979319827E+03  0.66751364064E+03  0.00000000000E+00 0. -1.
          2    1    6    6  503    0  0.29784130922E+02 -0.59983928140E+03 -0.22098678391E+03  0.63994485436E+03  0.00000000000E+00 0. -1.
         -2    1    5    5    0  502  0.26870179818E+02  0.11873302040E+02 -0.26131023406E+03  0.26295630870E+03  0.00000000000E+00 0.  1.
         -2    1    6    6    0  503 -0.21589586263E+02 -0.78088397530E+02 -0.53895639712E+02  0.97306978392E+02  0.00000000000E+00 0.  1.
<mgrwt>
<rscale>  0 0.31600080E+04</rscale>
<asrwt>0</asrwt>
<pdfrwt beam="1">  1        2 0.23687214E+00 0.31600080E+04</pdfrwt>
<pdfrwt beam="2">  1       -2 0.24944550E+00 0.31600080E+04</pdfrwt>
<totfact> 0.65973541E-01</totfact>
</mgrwt>
</event>
<event>
12    1  0.4802930E-008  0.1260555E+04  0.7818608E-02  0.9061444E-01
         -2   -1    0    0    0  501 -0.00000000000E+00  0.00000000000E+00  0.33865794770E+03  0.33865794770E+03  0.00000000000E+00 0.  1.
          2   -1    0    0  501    0  0.00000000000E+00 -0.00000000000E+00 -0.11730118227E+04  0.11730118227E+04  0.00000000000E+00 0. -1.
         23    2    1    2    0    0 -0.24298408009E+03 -0.15877766253E+03 -0.22280232535E+03  0.37785219082E+03  0.94232651632E+02 0.  0.
        254    2    1    2    0    0  0.24298408009E+03  0.15877766253E+03 -0.61155154970E+03  0.11338175796E+04  0.90955780279E+03 0.  0.
         23    2    4    4    0    0  0.29864705336E+03 -0.32057568396E+03 -0.18856247094E+03  0.48565760563E+03  0.91371072179E+02 0.  0.
         23    2    4    4    0    0 -0.55662973263E+02  0.47935334649E+03 -0.42298907876E+03  0.64815997399E+03  0.91178910685E+02 0.  0.
         11    1    3    3    0    0 -0.24872394269E+03 -0.14870604599E+03 -0.22389993033E+03  0.36620795538E+03  0.00000000000E+00 0. -1.
        -11    1    3    3    0    0  0.57398625953E+01 -0.10071616538E+02  0.10976049894E+01  0.11644235442E+02  0.00000000000E+00 0.  1.
          2    1    5    5  502    0  0.34519937968E+01  0.62403852396E+01 -0.37155126498E+01  0.80413744698E+01  0.00000000000E+00 0. -1.
          1    1    6    6  503    0 -0.52259002958E+02  0.22476042485E+03 -0.15198944613E+03  0.27631330714E+03  0.00000000000E+00 0.  1.
         -2    1    5    5    0  502  0.29519505956E+03 -0.32681606920E+03 -0.18484695829E+03  0.47761623116E+03  0.00000000000E+00 0.  1.
         -1    1    6    6    0  503 -0.34039703044E+01  0.25459292163E+03 -0.27099963262E+03  0.37184666684E+03  0.00000000000E+00 0. -1.
<mgrwt>
<rscale>  0 0.12605551E+04</rscale>
<asrwt>0</asrwt>
<pdfrwt beam="1">  1        2 0.18046336E+00 0.12605551E+04</pdfrwt>
<pdfrwt beam="2">  1       -2 0.52101223E-01 0.12605551E+04</pdfrwt>
<totfact> 0.67190518E+01</totfact>
</mgrwt>
</event>
<event>
12    1  0.4802930E-008  0.2187033E+04  0.7818608E-02  0.8523845E-01
          2   -1    0    0  501    0  0.00000000000E+00  0.00000000000E+00  0.18479958791E+04  0.18479958791E+04  0.00000000000E+00 0. -1.
         -2   -1    0    0    0  501 -0.00000000000E+00 -0.00000000000E+00 -0.64706777850E+03  0.64706777850E+03  0.00000000000E+00 0.  1.
         23    2    1    2    0    0 -0.89217796751E+03  0.21633597350E+02  0.67970444470E+03  0.11250079455E+04  0.84824565750E+02 0.  0.
        254    2    1    2    0    0  0.89217796751E+03 -0.21633597350E+02  0.52122365590E+03  0.13700557121E+04  0.89940481243E+03 0.  0.
         23    2    4    4    0    0  0.10488967801E+04 -0.12315827043E+03  0.43667544808E+03  0.11463926261E+04  0.90433352960E+02 0.  0.
         23    2    4    4    0    0 -0.15671881260E+03  0.10152467308E+03  0.84548207817E+02  0.22366308602E+03  0.89491514331E+02 0.  0.
         11    1    3    3    0    0 -0.73861528120E+02 -0.18683274412E+02  0.43837595230E+02  0.87899515553E+02  0.00000000000E+00 0. -1.
        -11    1    3    3    0    0 -0.81831643939E+03  0.40316871762E+02  0.63586684947E+03  0.10371084299E+04  0.00000000000E+00 0.  1.
          4    1    5    5  502    0  0.43755650541E+03 -0.11256524191E+02  0.15901114881E+03  0.46568975747E+03  0.00000000000E+00 0.  1.
          3    1    6    6  503    0 -0.13390916720E+03  0.10430776974E+03  0.99015646948E+02  0.19650922174E+03  0.00000000000E+00 0. -1.
         -4    1    5    5    0  502  0.61134027471E+03 -0.11190174623E+03  0.27766429927E+03  0.68070286864E+03  0.00000000000E+00 0. -1.
         -3    1    6    6    0  503 -0.22809645398E+02 -0.27830966653E+01 -0.14467439131E+02  0.27153864279E+02  0.00000000000E+00 0.  1.
<mgrwt>
<rscale>  0 0.21870332E+04</rscale>
<asrwt>0</asrwt>
<pdfrwt beam="1">  1        2 0.28430706E+00 0.21870332E+04</pdfrwt>
<pdfrwt beam="2">  1       -2 0.99548889E-01 0.21870332E+04</pdfrwt>
<totfact> 0.61996384E+00</totfact>
</mgrwt>
</event>
<event>
12    1  0.4802930E-008  0.1892325E+04  0.7818608E-02  0.8658686E-01
          1   -1    0    0  501    0  0.00000000000E+00  0.00000000000E+00  0.47601368084E+04  0.47601368084E+04  0.00000000000E+00 0. -1.
         -1   -1    0    0    0  501 -0.00000000000E+00 -0.00000000000E+00 -0.18806681575E+03  0.18806681575E+03  0.00000000000E+00 0.  1.
         23    2    1    2    0    0 -0.47414255891E+03  0.21252941324E+02  0.32497262738E+04  0.32855906111E+04  0.95508927510E+02 0.  0.
        254    2    1    2    0    0  0.47414255891E+03 -0.21252941324E+02  0.13223437188E+04  0.16626130131E+04  0.88905920319E+03 0.  0.
         23    2    4    4    0    0  0.76741930842E+02 -0.42021705148E+03  0.55017177368E+03  0.70261103119E+03  0.92204047015E+02 0.  0.
         23    2    4    4    0    0  0.39740062807E+03  0.39896411015E+03  0.77217194516E+03  0.96000198188E+03  0.90855225209E+02 0.  0.
         13    1    3    3    0    0 -0.42556434108E+03  0.35855915638E+02  0.30380734460E+04  0.30679440866E+04  0.00000000000E+00 0. -1.
        -13    1    3    3    0    0 -0.48578217838E+02 -0.14602974314E+02  0.21165282777E+03  0.21764652446E+03  0.00000000000E+00 0.  1.
          4    1    5    5  502    0  0.47393745152E+00 -0.94101909297E+02  0.70478746848E+02  0.11756975677E+03  0.00000000000E+00 0. -1.
          1    1    6    6  503    0  0.38417263388E+02  0.85659430002E+02  0.12276392248E+03  0.15454580142E+03  0.00000000000E+00 0. -1.
         -4    1    5    5    0  502  0.76267993391E+02 -0.32611514218E+03  0.47969302684E+03  0.58504127441E+03  0.00000000000E+00 0.  1.
         -1    1    6    6    0  503  0.35898336468E+03  0.31330468015E+03  0.64940802268E+03  0.80545618046E+03  0.00000000000E+00 0.  1.
<mgrwt>
<rscale>  0 0.18923253E+04</rscale>
<asrwt>0</asrwt>
<pdfrwt beam="1">  1        1 0.73232865E+00 0.18923253E+04</pdfrwt>
<pdfrwt beam="2">  1       -1 0.28933360E-01 0.18923253E+04</pdfrwt>
<totfact> 0.17505569E-01</totfact>
</mgrwt>
</event>
<event>
12    1  0.4802930E-008  0.1152205E+04  0.7818608E-02  0.9155752E-01
          1   -1    0    0  501    0  0.00000000000E+00  0.00000000000E+00  0.14328393585E+04  0.14328393585E+04  0.00000000000E+00 0. -1.
         -1   -1    0    0    0  501 -0.00000000000E+00 -0.00000000000E+00 -0.23163379412E+03  0.23163379412E+03  0.00000000000E+00 0.  1.
         23    2    1    2    0    0  0.18009689112E+03 -0.13331357456E+03  0.28155535241E+03  0.37133353658E+03  0.91693945101E+02 0.  0.
        254    2    1    2    0    0 -0.18009689112E+03  0.13331357456E+03  0.91965021196E+03  0.12931396160E+04  0.88104832718E+03 0.  0.
         23    2    4    4    0    0 -0.42926940085E+03 -0.18467138164E+03  0.36202434214E+03  0.59841326906E+03  0.93064915933E+02 0.  0.
         23    2    4    4    0    0  0.24917250973E+03  0.31798495620E+03  0.55762586983E+03  0.69472634697E+03  0.92177624759E+02 0.  0.
         11    1    3    3    0    0  0.91699446715E+02 -0.12086674014E+03  0.19416174766E+03  0.24640686202E+03  0.00000000000E+00 0. -1.
        -11    1    3    3    0    0  0.88397444410E+02 -0.12446834420E+02  0.87393604750E+02  0.12492667456E+03  0.00000000000E+00 0.  1.
          2    1    5    5  502    0 -0.39559425015E+03 -0.15909345052E+03  0.35646197666E+03  0.55576134947E+03  0.00000000000E+00 0. -1.
          1    1    6    6  503    0  0.94799626248E+02  0.13031425217E+03  0.30022285574E+03  0.34073822293E+03  0.00000000000E+00 0. -1.
         -2    1    5    5    0  502 -0.33675150701E+02 -0.25577931119E+02  0.55623654704E+01  0.42651919590E+02  0.00000000000E+00 0.  1.
         -1    1    6    6    0  503  0.15437288348E+03  0.18767070403E+03  0.25740301409E+03  0.35398812405E+03  0.00000000000E+00 0.  1.
<mgrwt>
<rscale>  0 0.11522049E+04</rscale>
<asrwt>0</asrwt>
<pdfrwt beam="1">  1        1 0.22043682E+00 0.11522049E+04</pdfrwt>
<pdfrwt beam="2">  1       -1 0.35635969E-01 0.11522049E+04</pdfrwt>
<totfact> 0.54333288E+01</totfact>
</mgrwt>
</event>
<event>
12    1  0.4802930E-008  0.1990758E+04  0.7818608E-02  0.8610954E-01
          2   -1    0    0  501    0  0.00000000000E+00  0.00000000000E+00  0.13784712317E+04  0.13784712317E+04  0.00000000000E+00 0.  1.
         -2   -1    0    0    0  501 -0.00000000000E+00 -0.00000000000E+00 -0.71875199047E+03  0.71875199047E+03  0.00000000000E+00 0. -1.
         23    2    1    2    0    0 -0.21502297409E+03 -0.17679436262E+03 -0.51634039663E+03  0.59385026845E+03  0.92518160900E+02 0.  0.
        254    2    1    2    0    0  0.21502297409E+03  0.17679436262E+03  0.11760596379E+04  0.15033729537E+04  0.89416041074E+03 0.  0.
         23    2    4    4    0    0  0.41536136167E+03 -0.56074439424E+02  0.10905672736E+04  0.11720069381E+04  0.92703188856E+02 0.  0.
         23    2    4    4    0    0 -0.20033838757E+03  0.23286880204E+03  0.85492364273E+02  0.33136601562E+03  0.90172853219E+02 0.  0.
         13    1    3    3    0    0 -0.93004583782E+02 -0.74679999176E+02 -0.31763918488E+03  0.33929575101E+03  0.00000000000E+00 0. -1.
        -13    1    3    3    0    0 -0.12201839031E+03 -0.10211436344E+03 -0.19870121175E+03  0.25455451743E+03  0.00000000000E+00 0.  1.
          1    1    5    5  502    0  0.30623437949E+03  0.71868271646E+00  0.77609970751E+03  0.83433252825E+03  0.00000000000E+00 0. -1.
          3    1    6    6  503    0 -0.14527598505E+03  0.10016047067E+03  0.45686660621E+02  0.18227589713E+03  0.00000000000E+00 0. -1.
         -1    1    5    5    0  502  0.10912698218E+03 -0.56793122140E+02  0.31446756608E+03  0.33767440986E+03  0.00000000000E+00 0.  1.
         -3    1    6    6    0  503 -0.55062402528E+02  0.13270833137E+03  0.39805703652E+02  0.14909011849E+03  0.00000000000E+00 0.  1.
<mgrwt>
<rscale>  0 0.19907576E+04</rscale>
<asrwt>0</asrwt>
<pdfrwt beam="1">  1        2 0.21207250E+00 0.19907576E+04</pdfrwt>
<pdfrwt beam="2">  1       -2 0.11057723E+00 0.19907576E+04</pdfrwt>
<totfact> 0.89816119E+00</totfact>
</mgrwt>
</event>
<event>
12    1  0.4802930E-008  0.1474915E+04  0.7818608E-02  0.8901308E-01
          2   -1    0    0  501    0  0.00000000000E+00  0.00000000000E+00  0.88239755495E+03  0.88239755495E+03  0.00000000000E+00 0. -1.
         -2   -1    0    0    0  501 -0.00000000000E+00 -0.00000000000E+00 -0.61632472856E+03  0.61632472856E+03  0.00000000000E+00 0.  1.
         23    2    1    2    0    0 -0.88971572189E+02 -0.15346985334E+03 -0.34366214758E+03  0.39740022344E+03  0.91402020580E+02 0.  0.
        254    2    1    2    0    0  0.88971572189E+02  0.15346985334E+03  0.60973497398E+03  0.11013220601E+04  0.89981365014E+03 0.  0.
         23    2    4    4    0    0 -0.79647724399E+02 -0.32317138293E+03  0.62518794099E+02  0.35079447367E+03  0.91458517347E+02 0.  0.
         23    2    4    4    0    0  0.16861929659E+03  0.47664123627E+03  0.54721617988E+03  0.75052758641E+03  0.90701571904E+02 0.  0.
         13    1    3    3    0    0 -0.34697338015E+02 -0.28414526378E+02 -0.17435728737E+03  0.18003264768E+03  0.00000000000E+00 0. -1.
        -13    1    3    3    0    0 -0.54274234174E+02 -0.12505532696E+03 -0.16930486022E+03  0.21736757575E+03  0.00000000000E+00 0.  1.
          1    1    6    6  502    0  0.16854685559E+03  0.36655378907E+03  0.43662128047E+03  0.59448117327E+03  0.00000000000E+00 0. -1.
          1    1    5    5  503    0 -0.22758980802E+02 -0.25528933742E+03  0.39955221841E+02  0.25939744941E+03  0.00000000000E+00 0. -1.
         -1    1    5    5    0  503 -0.56888743597E+02 -0.67882045508E+02  0.22563572258E+02  0.91397024259E+02  0.00000000000E+00 0.  1.
         -1    1    6    6    0  502  0.72440994316E-01  0.11008744720E+03  0.11059489940E+03  0.15604641314E+03  0.00000000000E+00 0.  1.
<mgrwt>
<rscale>  0 0.14749148E+04</rscale>
<asrwt>0</asrwt>
<pdfrwt beam="1">  1        2 0.13575347E+00 0.14749148E+04</pdfrwt>
<pdfrwt beam="2">  1       -2 0.94819189E-01 0.14749148E+04</pdfrwt>
<totfact> 0.27322383E+01</totfact>
</mgrwt>
</event>
<event>
12    1  0.4802930E-008  0.1304123E+04  0.7818608E-02  0.9026302E-01
         -1   -1    0    0    0  501 -0.00000000000E+00  0.00000000000E+00  0.69633047251E+03  0.69633047251E+03  0.00000000000E+00 0.  1.
          1   -1    0    0  501    0  0.00000000000E+00 -0.00000000000E+00 -0.61060688388E+03  0.61060688388E+03  0.00000000000E+00 0. -1.
         23    2    1    2    0    0  0.10915904336E+03  0.18935993936E+03  0.26897435978E+03  0.35908739635E+03  0.93934384620E+02 0.  0.
        254    2    1    2    0    0 -0.10915904336E+03 -0.18935993936E+03 -0.18325077115E+03  0.94784996004E+03  0.90391693105E+03 0.  0.
         23    2    4    4    0    0 -0.46787476915E+03  0.62131648886E+02 -0.65454674026E+02  0.48518174559E+03  0.91377625848E+02 0.  0.
         23    2    4    4    0    0  0.35871572578E+03 -0.25149158825E+03 -0.11779609712E+03  0.46266821445E+03  0.90889852446E+02 0.  0.
         11    1    3    3    0    0  0.76630527351E+02  0.10532562208E+03  0.88819741307E+02  0.15765364200E+03  0.00000000000E+00 0. -1.
        -11    1    3    3    0    0  0.32528516013E+02  0.84034317279E+02  0.18015461848E+03  0.20143375435E+03  0.00000000000E+00 0.  1.
          4    1    5    5  502    0 -0.11817704626E+01 -0.69915952919E+01  0.42637366166E+01  0.82739613298E+01  0.00000000000E+00 0. -1.
          3    1    6    6  503    0  0.14411509472E+02 -0.16855160731E+02  0.13323352163E+02  0.25870828386E+02  0.00000000000E+00 0. -1.
         -4    1    5    5    0  502 -0.46669299869E+03  0.69123244178E+02 -0.69718410642E+02  0.47690778426E+03  0.00000000000E+00 0.  1.
         -3    1    6    6    0  503  0.34430421631E+03 -0.23463642752E+03 -0.13111944929E+03  0.43679738606E+03  0.00000000000E+00 0.  1.
<mgrwt>
<rscale>  0 0.13041230E+04</rscale>
<asrwt>0</asrwt>
<pdfrwt beam="1">  1        1 0.93939521E-01 0.13041230E+04</pdfrwt>
<pdfrwt beam="2">  1       -1 0.10712776E+00 0.13041230E+04</pdfrwt>
<totfact> 0.26652350E+01</totfact>
</mgrwt>
</event>
<event>
12    1  0.4802930E-008  0.2550140E+04  0.7818608E-02  0.8385337E-01
         -1   -1    0    0    0  501 -0.00000000000E+00  0.00000000000E+00  0.11487292362E+04  0.11487292362E+04  0.00000000000E+00 0. -1.
          1   -1    0    0  501    0  0.00000000000E+00 -0.00000000000E+00 -0.14153065069E+04  0.14153065069E+04  0.00000000000E+00 0.  1.
         23    2    1    2    0    0  0.46731952971E+03 -0.69136320938E+03 -0.84959393024E+03  0.11944271723E+04  0.92064072640E+02 0.  0.
        254    2    1    2    0    0 -0.46731952971E+03  0.69136320938E+03  0.58301665953E+03  0.13696085708E+04  0.91626883713E+03 0.  0.
         23    2    4    4    0    0  0.21455786829E+03  0.34974239334E+03  0.27285779980E+02  0.42125711404E+03  0.91423310994E+02 0.  0.
         23    2    4    4    0    0 -0.68187739800E+03  0.34162081603E+03  0.55573087955E+03  0.94835145680E+03  0.94191864213E+02 0.  0.
         13    1    3    3    0    0  0.79670643358E+02 -0.18820849068E+03 -0.20909522706E+03  0.29238786116E+03  0.00000000000E+00 0. -1.
        -13    1    3    3    0    0  0.38764888636E+03 -0.50315471870E+03 -0.64049870319E+03  0.90203931113E+03  0.00000000000E+00 0.  1.
          4    1    5    5  502    0  0.21145461534E+03  0.34749583686E+03  0.13554489318E+02  0.40700139455E+03  0.00000000000E+00 0. -1.
          3    1    6    6  503    0 -0.59813270639E+03  0.26278395064E+03  0.46615837615E+03  0.80257197236E+03  0.00000000000E+00 0. -1.
         -4    1    5    5    0  502  0.31032529471E+01  0.22465564804E+01  0.13731290661E+02  0.14255719487E+02  0.00000000000E+00 0.  1.
         -3    1    6    6    0  503 -0.83744691610E+02  0.78836865399E+02  0.89572503404E+02  0.14577948444E+03  0.00000000000E+00 0.  1.
<mgrwt>
<rscale>  0 0.25501404E+04</rscale>
<asrwt>0</asrwt>
<pdfrwt beam="1">  1        1 0.21773946E+00 0.25501404E+04</pdfrwt>
<pdfrwt beam="2">  1       -1 0.17672758E+00 0.25501404E+04</pdfrwt>
<totfact> 0.14569395E+00</totfact>
</mgrwt>
</event>
<event>
12    1  0.4802930E-008  0.2560765E+04  0.7818608E-02  0.8381652E-01
         -1   -1    0    0    0  501 -0.00000000000E+00  0.00000000000E+00  0.10943141857E+04  0.10943141857E+04  0.00000000000E+00 0.  1.
          1   -1    0    0  501    0  0.00000000000E+00 -0.00000000000E+00 -0.14980878256E+04  0.14980878256E+04  0.00000000000E+00 0. -1.
         23    2    1    2    0    0  0.17581609836E+03 -0.31855768545E+03 -0.12504807764E+04  0.13055058355E+04  0.90846106596E+02 0.  0.
        254    2    1    2    0    0 -0.17581609836E+03  0.31855768545E+03  0.84670713645E+03  0.12868961757E+04  0.89821962388E+03 0.  0.
         23    2    4    4    0    0 -0.43674049861E+03  0.42419477797E+03  0.76083304172E+03  0.97910166299E+03  0.95339793970E+02 0.  0.
         23    2    4    4    0    0  0.26092440026E+03 -0.10563709252E+03  0.85874094734E+02  0.30779451272E+03  0.90124158505E+02 0.  0.
         13    1    3    3    0    0  0.10157925841E+03 -0.98324590630E+02 -0.52549773304E+03  0.54418189817E+03  0.00000000000E+00 0.  1.
        -13    1    3    3    0    0  0.74236839947E+02 -0.22023309482E+03 -0.72498304332E+03  0.76132393734E+03  0.00000000000E+00 0. -1.
          4    1    5    5  502    0 -0.31883271593E+03  0.27208033487E+03  0.46346023907E+03  0.62488191090E+03  0.00000000000E+00 0. -1.
          1    1    6    6  503    0  0.32602641075E+02 -0.17620077451E+02  0.47275169798E+02  0.60069468234E+02  0.00000000000E+00 0. -1.
         -4    1    5    5    0  502 -0.11790778269E+03  0.15211444310E+03  0.29737280265E+03  0.35421975209E+03  0.00000000000E+00 0.  1.
         -1    1    6    6    0  503  0.22832175918E+03 -0.88017015070E+02  0.38598924936E+02  0.24772504448E+03  0.00000000000E+00 0.  1.
<mgrwt>
<rscale>  0 0.25607645E+04</rscale>
<asrwt>0</asrwt>
<pdfrwt beam="1">  1        1 0.23047505E+00 0.25607645E+04</pdfrwt>
<pdfrwt beam="2">  1       -1 0.16835603E+00 0.25607645E+04</pdfrwt>
<totfact> 0.14673642E+00</totfact>
</mgrwt>
</event>
<event>
12    1  0.4802930E-008  0.1956666E+04  0.7818608E-02  0.8627153E-01
         -2   -1    0    0    0  501 -0.00000000000E+00  0.00000000000E+00  0.10428606817E+04  0.10428606817E+04  0.00000000000E+00 0.  1.
          2   -1    0    0  501    0  0.00000000000E+00 -0.00000000000E+00 -0.91779840497E+03  0.91779840497E+03  0.00000000000E+00 0. -1.
         23    2    1    2    0    0 -0.13633556559E+03  0.20451845118E+03  0.78636761274E+03  0.82871065790E+03  0.89286890562E+02 0.  0.
        254    2    1    2    0    0  0.13633556559E+03 -0.20451845118E+03 -0.66130533605E+03  0.11319484287E+04  0.88519337690E+03 0.  0.
         23    2    4    4    0    0 -0.18086810670E+03 -0.44289276173E+03 -0.48826532528E+03  0.68972765284E+03  0.91945292457E+02 0.  0.
         23    2    4    4    0    0  0.31720367228E+03  0.23837431055E+03 -0.17304001077E+03  0.44222077589E+03  0.90420615253E+02 0.  0.
         13    1    3    3    0    0 -0.11703627434E+03  0.19813440872E+03  0.76645472589E+03  0.80025469712E+03  0.00000000000E+00 0.  1.
        -13    1    3    3    0    0 -0.19299291245E+02  0.63840424631E+01  0.19912886849E+02  0.28455960771E+02  0.00000000000E+00 0. -1.
          3    1    6    6  502    0  0.11309832423E+03  0.13524445363E+03 -0.53847215706E+02  0.18434157377E+03  0.00000000000E+00 0. -1.
          3    1    5    5  503    0 -0.16369455057E+03 -0.39225165335E+03 -0.38520395800E+03  0.57361952085E+03  0.00000000000E+00 0. -1.
         -3    1    5    5    0  503 -0.17173556124E+02 -0.50641108383E+02 -0.10306136728E+03  0.11610813199E+03  0.00000000000E+00 0.  1.
         -3    1    6    6    0  502  0.20410534805E+03  0.10312985693E+03 -0.11919279506E+03  0.25787920212E+03  0.00000000000E+00 0.  1.
<mgrwt>
<rscale>  0 0.19566664E+04</rscale>
<asrwt>0</asrwt>
<pdfrwt beam="1">  1        2 0.14119975E+00 0.19566664E+04</pdfrwt>
<pdfrwt beam="2">  1       -2 0.16044011E+00 0.19566664E+04</pdfrwt>
<totfact> 0.66465026E+00</totfact>
</mgrwt>
</event>
<event>
12    1  0.4802930E-008  0.2493242E+04  0.7818608E-02  0.8405397E-01
          2   -1    0    0  501    0  0.00000000000E+00  0.00000000000E+00  0.10453787199E+04  0.10453787199E+04  0.00000000000E+00 0. -1.
         -2   -1    0    0    0  501 -0.00000000000E+00 -0.00000000000E+00 -0.14866033289E+04  0.14866033289E+04  0.00000000000E+00 0.  1.
         23    2    1    2    0    0  0.71970068220E+03 -0.10462201969E+03  0.61405263434E+03  0.95641304818E+03  0.93543797412E+02 0.  0.
        254    2    1    2    0    0 -0.71970068220E+03  0.10462201969E+03 -0.10552772434E+04  0.15755690006E+04  0.91645664173E+03 0.  0.
         23    2    4    4    0    0  0.17472316953E+03 -0.22106656590E+02 -0.23556879713E+02  0.20128981020E+03  0.94582085366E+02 0.  0.
         23    2    4    4    0    0 -0.89442385173E+03  0.12672867628E+03 -0.10317203637E+04  0.13742791904E+04  0.90234141709E+02 0.  0.
         13    1    3    3    0    0 -0.27828239474E+01  0.10818272980E+01  0.15879532236E+01  0.33817236530E+01  0.00000000000E+00 0.  1.
        -13    1    3    3    0    0  0.72248350615E+03 -0.10570384698E+03  0.61246468111E+03  0.95303132453E+03  0.00000000000E+00 0. -1.
          4    1    5    5  502    0 -0.10310439693E+02  0.65065650972E+01 -0.48634106260E+01  0.13126054965E+02  0.00000000000E+00 0. -1.
          3    1    6    6  503    0 -0.29777527970E+03  0.48062270971E-01 -0.34936098752E+03  0.45904598801E+03  0.00000000000E+00 0. -1.
         -4    1    5    5    0  502  0.18503360922E+03 -0.28613221687E+02 -0.18693469087E+02  0.18816375523E+03  0.00000000000E+00 0.  1.
         -3    1    6    6    0  503 -0.59664857204E+03  0.12668061401E+03 -0.68235937615E+03  0.91523320236E+03  0.00000000000E+00 0.  1.
<mgrwt>
<rscale>  0 0.24932417E+04</rscale>
<asrwt>0</asrwt>
<pdfrwt beam="1">  1        2 0.16082749E+00 0.24932417E+04</pdfrwt>
<pdfrwt beam="2">  1       -2 0.22870821E+00 0.24932417E+04</pdfrwt>
<totfact> 0.18315950E+00</totfact>
</mgrwt>
</event>
<event>
12    1  0.4802930E-008  0.1036418E+04  0.7818608E-02  0.9269480E-01
         -1   -1    0    0    0  501 -0.00000000000E+00  0.00000000000E+00  0.59889309047E+03  0.59889309047E+03  0.00000000000E+00 0.  1.
          1   -1    0    0  501    0  0.00000000000E+00 -0.00000000000E+00 -0.44839441358E+03  0.44839441358E+03  0.00000000000E+00 0. -1.
         23    2    1    2    0    0 -0.37666140779E+02 -0.15923839241E+03 -0.14354472730E+03  0.23682169477E+03  0.93294279558E+02 0.  0.
        254    2    1    2    0    0  0.37666140779E+02  0.15923839241E+03  0.29404340420E+03  0.81046580928E+03  0.73730434739E+03 0.  0.
         23    2    4    4    0    0  0.21244844976E+03 -0.14233705700E+03 -0.88727432121E+02  0.28470626480E+03  0.88266179262E+02 0.  0.
         23    2    4    4    0    0 -0.17478230899E+03  0.30157544941E+03  0.38277083632E+03  0.52575954449E+03  0.91722288803E+02 0.  0.
         11    1    3    3    0    0 -0.24650517945E+01 -0.10741984687E+02  0.13775343703E+02  0.17641621510E+02  0.00000000000E+00 0.  1.
        -11    1    3    3    0    0 -0.35201088984E+02 -0.14849640773E+03 -0.15732007100E+03  0.21918007326E+03  0.00000000000E+00 0. -1.
          2    1    5    5  502    0  0.18644082810E+02  0.11947798729E+02 -0.19520545934E+01  0.22229760130E+02  0.00000000000E+00 0. -1.
          1    1    6    6  503    0 -0.30292444856E+01  0.48244914674E+02  0.23361301700E+02  0.53688905103E+02  0.00000000000E+00 0. -1.
         -2    1    5    5    0  502  0.19380436695E+03 -0.15428485572E+03 -0.86775377527E+02  0.26247650467E+03  0.00000000000E+00 0.  1.
         -1    1    6    6    0  503 -0.17175306450E+03  0.25333053474E+03  0.35940953462E+03  0.47207063938E+03  0.00000000000E+00 0.  1.
<mgrwt>
<rscale>  0 0.10364175E+04</rscale>
<asrwt>0</asrwt>
<pdfrwt beam="1">  1        1 0.68983756E-01 0.10364175E+04</pdfrwt>
<pdfrwt beam="2">  1       -1 0.92137399E-01 0.10364175E+04</pdfrwt>
<totfact> 0.59062532E+01</totfact>
</mgrwt>
</event>
<event>
12    1  0.4802930E-008  0.1102971E+04  0.7818608E-02  0.9202300E-01
         -1   -1    0    0    0  501 -0.00000000000E+00  0.00000000000E+00  0.87535201343E+03  0.87535201343E+03  0.00000000000E+00 0.  1.
          1   -1    0    0  501    0  0.00000000000E+00 -0.00000000000E+00 -0.34744483089E+03  0.34744483089E+03  0.00000000000E+00 0. -1.
         23    2    1    2    0    0  0.13310384439E+03  0.10792122134E+03  0.24296521552E+03  0.31096315839E+03  0.91117322830E+02 0.  0.
        254    2    1    2    0    0 -0.13310384439E+03 -0.10792122134E+03  0.28494196702E+03  0.91183368593E+03  0.84904954085E+03 0.  0.
         23    2    4    4    0    0  0.69461307303E+02 -0.14068969377E+03 -0.26265796635E+03  0.31938439954E+03  0.91644553770E+02 0.  0.
         23    2    4    4    0    0 -0.20256515169E+03  0.32768472437E+02  0.54759993337E+03  0.59244928639E+03  0.94995033841E+02 0.  0.
         13    1    3    3    0    0  0.79171534786E+02  0.94352057968E+02  0.21715361008E+03  0.24965202409E+03  0.00000000000E+00 0.  1.
        -13    1    3    3    0    0  0.53932309603E+02  0.13569163368E+02  0.25811605435E+02  0.61311134297E+02  0.00000000000E+00 0. -1.
          3    1    5    5  502    0  0.71819053708E+02 -0.10219013230E+03 -0.24881182408E+03  0.27840280784E+03  0.00000000000E+00 0. -1.
          3    1    6    6  503    0 -0.16910893159E+03  0.49130160418E+02  0.35496317290E+03  0.39624545111E+03  0.00000000000E+00 0. -1.
         -3    1    5    5    0  502 -0.23577464059E+01 -0.38499561476E+02 -0.13846142270E+02  0.40981591693E+02  0.00000000000E+00 0.  1.
         -3    1    6    6    0  503 -0.33456220099E+02 -0.16361687981E+02  0.19263676047E+03  0.19620383528E+03  0.00000000000E+00 0.  1.
<mgrwt>
<rscale>  0 0.11029715E+04</rscale>
<asrwt>0</asrwt>
<pdfrwt beam="1">  1        1 0.53453051E-01 0.11029715E+04</pdfrwt>
<pdfrwt beam="2">  1       -1 0.13466954E+00 0.11029715E+04</pdfrwt>
<totfact> 0.33403956E+01</totfact>
</mgrwt>
</event>
<event>
12    1  0.4802930E-008  0.1511900E+04  0.7818608E-02  0.8876578E-01
          1   -1    0    0  501    0  0.00000000000E+00  0.00000000000E+00  0.93820147180E+03  0.93820147180E+03  0.00000000000E+00 0. -1.
         -1   -1    0    0    0  501 -0.00000000000E+00 -0.00000000000E+00 -0.60910190694E+03  0.60910190694E+03  0.00000000000E+00 0.  1.
         23    2    1    2    0    0  0.10369605786E+03 -0.99800230930E+01 -0.37519955387E+03  0.40207068604E+03  0.10016814900E+03 0.  0.
        254    2    1    2    0    0 -0.10369605786E+03  0.99800230930E+01  0.70429911874E+03  0.11452326927E+04  0.89703299744E+03 0.  0.
         23    2    4    4    0    0 -0.36030000272E+03  0.20564485704E+03  0.68891163948E+03  0.80938794805E+03  0.91671720044E+02 0.  0.
         23    2    4    4    0    0  0.25660394486E+03 -0.19566483395E+03  0.15387479250E+02  0.33584474464E+03  0.91785653706E+02 0.  0.
         13    1    3    3    0    0  0.24327370710E+02 -0.42247391557E+02 -0.71656630327E+02  0.86667962529E+02  0.00000000000E+00 0. -1.
        -13    1    3    3    0    0  0.79368687146E+02  0.32267368464E+02 -0.30354292354E+03  0.31540272351E+03  0.00000000000E+00 0.  1.
          4    1    5    5  502    0 -0.17374295502E+03  0.51857002120E+02  0.25907451691E+03  0.31622044273E+03  0.00000000000E+00 0. -1.
          3    1    6    6  503    0  0.18959222498E+03 -0.89359435211E+02  0.15669905029E+02  0.21018055656E+03  0.00000000000E+00 0. -1.
         -4    1    5    5    0  502 -0.18655704770E+03  0.15378785492E+03  0.42983712258E+03  0.49316750533E+03  0.00000000000E+00 0.  1.
         -3    1    6    6    0  503  0.67011719882E+02 -0.10630539873E+03 -0.28242577864E+00  0.12566418808E+03  0.00000000000E+00 0.  1.
<mgrwt>
<rscale>  0 0.15118999E+04</rscale>
<asrwt>0</asrwt>
<pdfrwt beam="1">  1        1 0.14433869E+00 0.15118999E+04</pdfrwt>
<pdfrwt beam="2">  1       -1 0.93707985E-01 0.15118999E+04</pdfrwt>
<totfact> 0.18082321E+01</totfact>
</mgrwt>
</event>
<event>
12    1  0.4802930E-008  0.2581621E+04  0.7818608E-02  0.8374471E-01
         -1   -1    0    0    0  501 -0.00000000000E+00  0.00000000000E+00  0.81180030441E+03  0.81180030441E+03  0.00000000000E+00 0.  1.
          1   -1    0    0  501    0  0.00000000000E+00 -0.00000000000E+00 -0.20524652109E+04  0.20524652109E+04  0.00000000000E+00 0. -1.
         23    2    1    2    0    0  0.74985611786E+03 -0.61754727965E+03 -0.11898907735E+04  0.15385854833E+04  0.88070407311E+02 0.  0.
        254    2    1    2    0    0 -0.74985611786E+03  0.61754727965E+03 -0.50774132965E+02  0.13256800319E+04  0.90066680542E+03 0.  0.
         23    2    4    4    0    0 -0.12731317260E+03 -0.21868565769E+03 -0.73405380144E+02  0.27891509383E+03  0.91505294587E+02 0.  0.
         23    2    4    4    0    0 -0.62254294526E+03  0.83623293734E+03  0.22631247179E+02  0.10467649381E+04  0.91429853377E+02 0.  0.
         13    1    3    3    0    0  0.19208022347E+03 -0.13785222908E+03 -0.23718103557E+03  0.33489236024E+03  0.00000000000E+00 0. -1.
        -13    1    3    3    0    0  0.55777589439E+03 -0.47969505056E+03 -0.95270973791E+03  0.12036931231E+04  0.00000000000E+00 0.  1.
          4    1    5    5  502    0 -0.12912871161E+03 -0.14213592735E+03 -0.44922035283E+02  0.19721773566E+03  0.00000000000E+00 0. -1.
          3    1    6    6  503    0 -0.45936288970E+03  0.67949054401E+03  0.13160560616E+02  0.82030169095E+03  0.00000000000E+00 0. -1.
         -4    1    5    5    0  502  0.18155390165E+01 -0.76549730344E+02 -0.28483344861E+02  0.81697358171E+02  0.00000000000E+00 0.  1.
         -3    1    6    6    0  503 -0.16318005556E+03  0.15674239333E+03  0.94706865628E+01  0.22646324714E+03  0.00000000000E+00 0.  1.
<mgrwt>
<rscale>  0 0.25816211E+04</rscale>
<asrwt>0</asrwt>
<pdfrwt beam="1">  1        1 0.31576388E+00 0.25816211E+04</pdfrwt>
<pdfrwt beam="2">  1       -1 0.12489235E+00 0.25816211E+04</pdfrwt>
<totfact> 0.13579256E+00</totfact>
</mgrwt>
</event>
<event>
12    1  0.4802930E-008  0.1566472E+04  0.7818608E-02  0.8841414E-01
          2   -1    0    0  501    0  0.00000000000E+00  0.00000000000E+00  0.80401067826E+03  0.80401067826E+03  0.00000000000E+00 0. -1.
         -2   -1    0    0    0  501 -0.00000000000E+00 -0.00000000000E+00 -0.76299837231E+03  0.76299837231E+03  0.00000000000E+00 0.  1.
         23    2    1    2    0    0  0.39644093124E+03 -0.21676502282E+03 -0.24458000320E+03  0.52251740833E+03  0.95145031196E+02 0.  0.
        254    2    1    2    0    0 -0.39644093124E+03  0.21676502282E+03  0.28559230915E+03  0.10444916422E+04  0.89735574694E+03 0.  0.
         23    2    4    4    0    0 -0.65039940133E+03  0.24309620942E+01  0.14830348234E+03  0.67340741540E+03  0.91969198187E+02 0.  0.
         23    2    4    4    0    0  0.25395847008E+03  0.21433406072E+03  0.13728882682E+03  0.37108422684E+03  0.91767572308E+02 0.  0.
         11    1    3    3    0    0  0.31736853089E+03 -0.17490640513E+03 -0.14961526978E+03  0.39204561457E+03  0.00000000000E+00 0. -1.
        -11    1    3    3    0    0  0.79072400349E+02 -0.41858617690E+02 -0.94964733423E+02  0.13047179376E+03  0.00000000000E+00 0.  1.
          2    1    5    5  502    0 -0.13599755619E+03 -0.45837854048E+01 -0.63251629711E+01  0.13622170923E+03  0.00000000000E+00 0. -1.
          3    1    6    6  503    0  0.16598150199E+03  0.87426297904E+02  0.98416573768E+02  0.21184673365E+03  0.00000000000E+00 0. -1.
         -2    1    5    5    0  502 -0.51440184513E+03  0.70147474989E+01  0.15462864531E+03  0.53718570617E+03  0.00000000000E+00 0.  1.
         -3    1    6    6    0  503  0.87976968094E+02  0.12690776282E+03  0.38872253049E+02  0.15923749319E+03  0.00000000000E+00 0.  1.
<mgrwt>
<rscale>  0 0.15664723E+04</rscale>
<asrwt>0</asrwt>
<pdfrwt beam="1">  1        2 0.12369395E+00 0.15664723E+04</pdfrwt>
<pdfrwt beam="2">  1       -2 0.11738436E+00 0.15664723E+04</pdfrwt>
<totfact> 0.18445741E+01</totfact>
</mgrwt>
</event>
<event>
12    1  0.4802930E-008  0.1841814E+04  0.7818608E-02  0.8684374E-01
          1   -1    0    0  501    0  0.00000000000E+00  0.00000000000E+00  0.12649349057E+04  0.12649349057E+04  0.00000000000E+00 0. -1.
         -1   -1    0    0    0  501 -0.00000000000E+00 -0.00000000000E+00 -0.67044562143E+03  0.67044562143E+03  0.00000000000E+00 0.  1.
         23    2    1    2    0    0 -0.59226797355E+03  0.23169690110E+03 -0.11595148316E+03  0.65369871584E+03  0.97017824020E+02 0.  0.
        254    2    1    2    0    0  0.59226797355E+03 -0.23169690110E+03  0.71044076747E+03  0.12816818113E+04  0.85645628899E+03 0.  0.
         23    2    4    4    0    0  0.36047316291E+03 -0.17526085872E+03 -0.10753335629E+03  0.42469845788E+03  0.90266758175E+02 0.  0.
         23    2    4    4    0    0  0.23179481064E+03 -0.56436042384E+02  0.81797412376E+03  0.85698335345E+03  0.91787471005E+02 0.  0.
         11    1    3    3    0    0 -0.35586551932E+03  0.87888622888E+02 -0.61375616184E+02  0.37166065724E+03  0.00000000000E+00 0.  1.
        -11    1    3    3    0    0 -0.23640245423E+03  0.14380827821E+03 -0.54575866974E+02  0.28203805861E+03  0.00000000000E+00 0. -1.
          3    1    6    6  502    0 -0.53246873256E+01 -0.13609868118E+02  0.50605561207E+02  0.52673557222E+02  0.00000000000E+00 0. -1.
          3    1    5    5  503    0  0.22068870175E+03 -0.59116861981E+02 -0.71740662034E+02  0.23946822135E+03  0.00000000000E+00 0. -1.
         -3    1    5    5    0  503  0.13978446116E+03 -0.11614399674E+03 -0.35792694259E+02  0.18523023652E+03  0.00000000000E+00 0.  1.
         -3    1    6    6    0  502  0.23711949796E+03 -0.42826174266E+02  0.76736856256E+03  0.80430979623E+03  0.00000000000E+00 0.  1.
<mgrwt>
<rscale>  0 0.18418144E+04</rscale>
<asrwt>0</asrwt>
<pdfrwt beam="1">  1        1 0.19460537E+00 0.18418144E+04</pdfrwt>
<pdfrwt beam="2">  1       -1 0.10314548E+00 0.18418144E+04</pdfrwt>
<totfact> 0.79986158E+00</totfact>
</mgrwt>
</event>
<event>
12    1  0.4802930E-008  0.1692862E+04  0.7818608E-02  0.8765446E-01
         -1   -1    0    0    0  501 -0.00000000000E+00  0.00000000000E+00  0.64928945185E+03  0.64928945185E+03  0.00000000000E+00 0.  1.
          1   -1    0    0  501    0  0.00000000000E+00 -0.00000000000E+00 -0.11034299921E+04  0.11034299921E+04  0.00000000000E+00 0. -1.
         23    2    1    2    0    0  0.52420876104E+03 -0.27362746668E+03 -0.53868253690E+02  0.60064149445E+03  0.90562687805E+02 0.  0.
        254    2    1    2    0    0 -0.52420876104E+03  0.27362746668E+03 -0.40027228655E+03  0.11520779495E+04  0.90410114625E+03 0.  0.
         23    2    4    4    0    0 -0.39327416300E+03 -0.28669134525E+03 -0.14793416853E+03  0.51684902648E+03  0.91607331729E+02 0.  0.
         23    2    4    4    0    0 -0.13093459804E+03  0.56031881193E+03 -0.25233811802E+03  0.63522892301E+03  0.93489137660E+02 0.  0.
         13    1    3    3    0    0  0.72073010162E+02 -0.17685202039E+02  0.17404526670E+02  0.76224685723E+02  0.00000000000E+00 0. -1.
        -13    1    3    3    0    0  0.45213575088E+03 -0.25594226464E+03 -0.71272780359E+02  0.52441680872E+03  0.00000000000E+00 0.  1.
          1    1    5    5  502    0 -0.33799502865E+03 -0.26849080362E+03 -0.10421636839E+03  0.44405968345E+03  0.00000000000E+00 0. -1.
          3    1    6    6  503    0 -0.13618766167E+03  0.53902159014E+03 -0.22399083445E+03  0.59938572534E+03  0.00000000000E+00 0. -1.
         -1    1    5    5    0  502 -0.55279134353E+02 -0.18200541630E+02 -0.43717800136E+02  0.72789343033E+02  0.00000000000E+00 0.  1.
         -3    1    6    6    0  503  0.52530636309E+01  0.21297221793E+02 -0.28347283568E+02  0.35843197671E+02  0.00000000000E+00 0.  1.
<mgrwt>
<rscale>  0 0.16928620E+04</rscale>
<asrwt>0</asrwt>
<pdfrwt beam="1">  1        1 0.16975846E+00 0.16928620E+04</pdfrwt>
<pdfrwt beam="2">  1       -1 0.99890686E-01 0.16928620E+04</pdfrwt>
<totfact> 0.11468872E+01</totfact>
</mgrwt>
</event>
<event>
12    1  0.4802930E-008  0.1178057E+04  0.7818608E-02  0.9132283E-01
         -2   -1    0    0    0  501 -0.00000000000E+00  0.00000000000E+00  0.32879699446E+03  0.32879699446E+03  0.00000000000E+00 0.  1.
          2   -1    0    0  501    0  0.00000000000E+00 -0.00000000000E+00 -0.10552250839E+04  0.10552250839E+04  0.00000000000E+00 0. -1.
         23    2    1    2    0    0 -0.35317695861E+02  0.23213869701E+03 -0.91849896578E+02  0.26839922216E+03  0.92011002975E+02 0.  0.
        254    2    1    2    0    0  0.35317695861E+02 -0.23213869701E+03 -0.63457819288E+03  0.11156228562E+04  0.88701136415E+03 0.  0.
         23    2    4    4    0    0  0.86108267087E+02 -0.30836133039E+03 -0.82277759453E+03  0.88678904834E+03  0.83249639436E+02 0.  0.
         23    2    4    4    0    0 -0.50790571226E+02  0.76222633379E+02  0.18819940165E+03  0.22883380787E+03  0.92500404758E+02 0.  0.
         11    1    3    3    0    0 -0.98801592994E+01  0.26667398426E+02  0.18362848105E+02  0.33852058683E+02  0.00000000000E+00 0.  1.
        -11    1    3    3    0    0 -0.25437536561E+02  0.20547129858E+03 -0.11021274468E+03  0.23454716348E+03  0.00000000000E+00 0. -1.
          2    1    5    5  502    0  0.51630055253E+02 -0.27607593205E+03 -0.65946454058E+03  0.71678243781E+03  0.00000000000E+00 0. -1.
          4    1    6    6  503    0 -0.18029300945E+02  0.85525300461E+02  0.16762680259E+03  0.18904596705E+03  0.00000000000E+00 0. -1.
         -2    1    5    5    0  502  0.34478211834E+02 -0.32285398335E+02 -0.16331305395E+03  0.17000661054E+03  0.00000000000E+00 0.  1.
         -4    1    6    6    0  503 -0.32761270282E+02 -0.93026670814E+01  0.20572599056E+02  0.39787840821E+02  0.00000000000E+00 0.  1.
<mgrwt>
<rscale>  0 0.11780574E+04</rscale>
<asrwt>0</asrwt>
<pdfrwt beam="1">  1        2 0.16234232E+00 0.11780574E+04</pdfrwt>
<pdfrwt beam="2">  1       -2 0.50584153E-01 0.11780574E+04</pdfrwt>
<totfact> 0.84815204E+01</totfact>
</mgrwt>
</event>
<event>
12    1  0.4802930E-008  0.1304699E+04  0.7818608E-02  0.9025847E-01
         -1   -1    0    0    0  501 -0.00000000000E+00  0.00000000000E+00  0.27718715325E+03  0.27718715325E+03  0.00000000000E+00 0.  1.
          1   -1    0    0  501    0  0.00000000000E+00 -0.00000000000E+00 -0.15352794636E+04  0.15352794636E+04  0.00000000000E+00 0. -1.
         23    2    1    2    0    0  0.17289178695E+01 -0.15617901420E+03 -0.73970112810E+03  0.76166140170E+03  0.92603770398E+02 0.  0.
        254    2    1    2    0    0 -0.17289178695E+01  0.15617901420E+03 -0.51839118222E+03  0.10508052151E+04  0.90059275407E+03 0.  0.
         23    2    4    4    0    0 -0.35276610400E+03  0.31320760526E+03 -0.13116192603E+03  0.49773933933E+03  0.89431934724E+02 0.  0.
         23    2    4    4    0    0  0.35103718613E+03 -0.15702859106E+03 -0.38722925619E+03  0.55306587580E+03  0.89723361850E+02 0.  0.
         11    1    3    3    0    0  0.36769113040E+02 -0.64354172989E+02 -0.44158675932E+03  0.44776365782E+03  0.00000000000E+00 0. -1.
        -11    1    3    3    0    0 -0.35040195171E+02 -0.91824841210E+02 -0.29811436878E+03  0.31389774388E+03  0.00000000000E+00 0.  1.
          4    1    6    6  502    0  0.82258097376E+01 -0.12222234320E+02 -0.45500851230E+02  0.47826503325E+02  0.00000000000E+00 0. -1.
          4    1    5    5  503    0 -0.65016121041E+02  0.17771638908E+02 -0.12025688514E+02  0.68465643420E+02  0.00000000000E+00 0. -1.
         -4    1    5    5    0  503 -0.28774998296E+03  0.29543596635E+03 -0.11913623751E+03  0.42927369590E+03  0.00000000000E+00 0.  1.
         -4    1    6    6    0  502  0.34281137639E+03 -0.14480635674E+03 -0.34172840496E+03  0.50523937247E+03  0.00000000000E+00 0.  1.
<mgrwt>
<rscale>  0 0.13046988E+04</rscale>
<asrwt>0</asrwt>
<pdfrwt beam="1">  1        1 0.23619684E+00 0.13046988E+04</pdfrwt>
<pdfrwt beam="2">  1       -1 0.42644177E-01 0.13046988E+04</pdfrwt>
<totfact> 0.32873151E+01</totfact>
</mgrwt>
</event>
<event>
12    1  0.4802930E-008  0.1545464E+04  0.7818608E-02  0.8854771E-01
          1   -1    0    0  501    0  0.00000000000E+00  0.00000000000E+00  0.13124449193E+04  0.13124449193E+04  0.00000000000E+00 0. -1.
         -1   -1    0    0    0  501 -0.00000000000E+00 -0.00000000000E+00 -0.45496339448E+03  0.45496339448E+03  0.00000000000E+00 0.  1.
         23    2    1    2    0    0 -0.35825151441E+03 -0.74829839230E+02  0.67608495158E+03  0.77417383781E+03  0.91162585403E+02 0.  0.
        254    2    1    2    0    0  0.35825151441E+03  0.74829839230E+02  0.18139657324E+03  0.99323447597E+03  0.90535427046E+03 0.  0.
         23    2    4    4    0    0 -0.78237337920E+02 -0.18149642327E+03 -0.24300033133E+03  0.32649613062E+03  0.92133216481E+02 0.  0.
         23    2    4    4    0    0  0.43648885233E+03  0.25632626250E+03  0.42439690457E+03  0.66673834535E+03  0.90562782030E+02 0.  0.
         13    1    3    3    0    0 -0.19882502984E+03 -0.30312585496E+02  0.27868402961E+03  0.34367867797E+03  0.00000000000E+00 0.  1.
        -13    1    3    3    0    0 -0.15942648457E+03 -0.44517253733E+02  0.39740092197E+03  0.43049515984E+03  0.00000000000E+00 0. -1.
          4    1    5    5  502    0 -0.93799084361E+02 -0.17585033425E+03 -0.23492596715E+03  0.30807761737E+03  0.00000000000E+00 0. -1.
          3    1    6    6  503    0  0.14094634080E+03  0.84852166257E+02  0.19529663721E+03  0.25535570800E+03  0.00000000000E+00 0.  1.
         -4    1    5    5    0  502  0.15561746441E+02 -0.56460890203E+01 -0.80743641827E+01  0.18418513253E+02  0.00000000000E+00 0.  1.
         -3    1    6    6    0  503  0.29554251153E+03  0.17147409624E+03  0.22910026737E+03  0.41138263735E+03  0.00000000000E+00 0. -1.
<mgrwt>
<rscale>  0 0.15454635E+04</rscale>
<asrwt>0</asrwt>
<pdfrwt beam="1">  1        1 0.20191460E+00 0.15454635E+04</pdfrwt>
<pdfrwt beam="2">  1       -1 0.69994369E-01 0.15454635E+04</pdfrwt>
<totfact> 0.17625837E+01</totfact>
</mgrwt>
</event>
<event>
12    1  0.4802930E-008  0.1812198E+04  0.7818608E-02  0.8699839E-01
          2   -1    0    0  501    0  0.00000000000E+00  0.00000000000E+00  0.31800428885E+04  0.31800428885E+04  0.00000000000E+00 0. -1.
         -2   -1    0    0    0  501 -0.00000000000E+00 -0.00000000000E+00 -0.25817759381E+03  0.25817759381E+03  0.00000000000E+00 0.  1.
         23    2    1    2    0    0 -0.42392016518E+03  0.15872173079E+03  0.20646686835E+04  0.21162045304E+04  0.10278106525E+03 0.  0.
        254    2    1    2    0    0  0.42392016518E+03 -0.15872173079E+03  0.85719661113E+03  0.13220159519E+04  0.89891003592E+03 0.  0.
         23    2    4    4    0    0  0.22957192864E+03 -0.22104777501E+03  0.10022261509E+04  0.10555983504E+04  0.90913313025E+02 0.  0.
         23    2    4    4    0    0  0.19434823655E+03  0.62326044221E+02 -0.14502953981E+03  0.26641760150E+03  0.91043935175E+02 0.  0.
         11    1    3    3    0    0 -0.38136327842E+03  0.16089137612E+03  0.17296220879E+04  0.17784590386E+04  0.00000000000E+00 0. -1.
        -11    1    3    3    0    0 -0.42556886758E+02 -0.21696453267E+01  0.33504659564E+03  0.33774549179E+03  0.00000000000E+00 0.  1.
          2    1    5    5  502    0  0.32815099872E+02 -0.11562853670E+02  0.49762203617E+02  0.60719084919E+02  0.00000000000E+00 0. -1.
          4    1    6    6  503    0  0.19158158551E+02  0.13707999861E+02 -0.62422825337E+02  0.66719962697E+02  0.00000000000E+00 0. -1.
         -2    1    5    5    0  502  0.19675682876E+03 -0.20948492134E+03  0.95246394733E+03  0.99487926549E+03  0.00000000000E+00 0.  1.
         -4    1    6    6    0  503  0.17519007800E+03  0.48618044360E+02 -0.82606714474E+02  0.19969763880E+03  0.00000000000E+00 0.  1.
<mgrwt>
<rscale>  0 0.18121985E+04</rscale>
<asrwt>0</asrwt>
<pdfrwt beam="1">  1        2 0.48923734E+00 0.18121985E+04</pdfrwt>
<pdfrwt beam="2">  1       -2 0.39719632E-01 0.18121985E+04</pdfrwt>
<totfact> 0.75953438E+00</totfact>
</mgrwt>
</event>
<event>
12    1  0.4802930E-008  0.1814522E+04  0.7818608E-02  0.8698615E-01
          2   -1    0    0  501    0  0.00000000000E+00  0.00000000000E+00  0.12171017383E+04  0.12171017383E+04  0.00000000000E+00 0. -1.
         -2   -1    0    0    0  501 -0.00000000000E+00 -0.00000000000E+00 -0.67629756906E+03  0.67629756906E+03  0.00000000000E+00 0.  1.
         23    2    1    2    0    0  0.22944841467E+03  0.46228861679E+03 -0.25479450259E+03  0.58274434210E+03  0.91177790541E+02 0.  0.
        254    2    1    2    0    0 -0.22944841467E+03 -0.46228861679E+03  0.79559867183E+03  0.13106549653E+04  0.90469986798E+03 0.  0.
         23    2    4    4    0    0 -0.37905527491E+03  0.78608867409E+02  0.93831352202E+02  0.40783360331E+03  0.87530965160E+02 0.  0.
         23    2    4    4    0    0  0.14960686024E+03 -0.54089748420E+03  0.70176731963E+03  0.90282136194E+03  0.87502797859E+02 0.  0.
         13    1    3    3    0    0  0.12167457758E+03  0.17019540489E+03 -0.69611407498E+02  0.22049246411E+03  0.00000000000E+00 0. -1.
        -13    1    3    3    0    0  0.10777383710E+03  0.29209321190E+03 -0.18518309509E+03  0.36225187799E+03  0.00000000000E+00 0.  1.
          2    1    6    6  502    0  0.34663344676E+02 -0.11472615061E+03  0.97448499919E+02  0.15446633042E+03  0.00000000000E+00 0. -1.
          2    1    5    5  503    0 -0.15430761962E+03  0.13303376484E+02  0.77587584270E+02  0.17322717607E+03  0.00000000000E+00 0. -1.
         -2    1    5    5    0  503 -0.22474765529E+03  0.65305490925E+02  0.16243767933E+02  0.23460642724E+03  0.00000000000E+00 0.  1.
         -2    1    6    6    0  502  0.11494351556E+03 -0.42617133360E+03  0.60431881971E+03  0.74835503152E+03  0.00000000000E+00 0.  1.
<mgrwt>
<rscale>  0 0.18145225E+04</rscale>
<asrwt>0</asrwt>
<pdfrwt beam="1">  1        2 0.18724642E+00 0.18145225E+04</pdfrwt>
<pdfrwt beam="2">  1       -2 0.10404578E+00 0.18145225E+04</pdfrwt>
<totfact> 0.13110467E+01</totfact>
</mgrwt>
</event>
<event>
12    1  0.4802930E-008  0.1913496E+04  0.7818608E-02  0.8648168E-01
          1   -1    0    0  501    0  0.00000000000E+00  0.00000000000E+00  0.20771954346E+04  0.20771954346E+04  0.00000000000E+00 0. -1.
         -1   -1    0    0    0  501 -0.00000000000E+00 -0.00000000000E+00 -0.44067413227E+03  0.44067413227E+03  0.00000000000E+00 0.  1.
         23    2    1    2    0    0  0.85651461369E+02 -0.70705262497E+03  0.36645001614E+03  0.80656326063E+03  0.94863542894E+02 0.  0.
        254    2    1    2    0    0 -0.85651461369E+02  0.70705262497E+03  0.12700712862E+04  0.17113063062E+04  0.89901535828E+03 0.  0.
         23    2    4    4    0    0 -0.93865012552E+02  0.18227849071E+03 -0.95737881476E+02  0.24521667296E+03  0.94495428420E+02 0.  0.
         23    2    4    4    0    0  0.82135511832E+01  0.52477413426E+03  0.13658091676E+04  0.14660896332E+04  0.92351371939E+02 0.  0.
         13    1    3    3    0    0  0.18446322927E+02 -0.82007765675E+02  0.12094371750E+02  0.84922401570E+02  0.00000000000E+00 0. -1.
        -13    1    3    3    0    0  0.67205138443E+02 -0.62504485929E+03  0.35435564439E+03  0.72164085906E+03  0.00000000000E+00 0.  1.
          2    1    5    5  502    0 -0.67083051829E+02  0.17821645396E+03 -0.10390059206E+03  0.21692527132E+03  0.00000000000E+00 0.  1.
          1    1    6    6  503    0 -0.12090120096E+02  0.13201545764E+03  0.45687635809E+03  0.47572077802E+03  0.00000000000E+00 0. -1.
         -2    1    5    5    0  502 -0.26781960723E+02  0.40620367456E+01  0.81627105887E+01  0.28291401641E+02  0.00000000000E+00 0. -1.
         -1    1    6    6    0  503  0.20303671279E+02  0.39275867662E+03  0.90893280954E+03  0.99036885522E+03  0.00000000000E+00 0.  1.
<mgrwt>
<rscale>  0 0.19134955E+04</rscale>
<asrwt>0</asrwt>
<pdfrwt beam="1">  1        1 0.31956852E+00 0.19134955E+04</pdfrwt>
<pdfrwt beam="2">  1       -1 0.67796022E-01 0.19134955E+04</pdfrwt>
<totfact> 0.54377818E+00</totfact>
</mgrwt>
</event>
<event>
12    1  0.4802930E-008  0.1474208E+04  0.7818608E-02  0.8901788E-01
          2   -1    0    0  501    0  0.00000000000E+00  0.00000000000E+00  0.16252730336E+04  0.16252730336E+04  0.00000000000E+00 0. -1.
         -2   -1    0    0    0  501 -0.00000000000E+00 -0.00000000000E+00 -0.33429609858E+03  0.33429609858E+03  0.00000000000E+00 0.  1.
         23    2    1    2    0    0 -0.85645276993E+02  0.34369083822E+03  0.80549811798E+03  0.88455890907E+03  0.90325742769E+02 0.  0.
        254    2    1    2    0    0  0.85645276993E+02 -0.34369083822E+03  0.48547881699E+03  0.10750102231E+04  0.89134661731E+03 0.  0.
         23    2    4    4    0    0 -0.21050205296E+03 -0.38640858900E+03  0.59321784335E+03  0.74424406271E+03  0.91482803111E+02 0.  0.
         23    2    4    4    0    0  0.29614732995E+03  0.42717750780E+02 -0.10773902636E+03  0.33076616035E+03  0.90942332060E+02 0.  0.
         11    1    3    3    0    0 -0.57783572424E+02  0.32375066859E+03  0.75521007435E+03  0.82370850005E+03  0.00000000000E+00 0. -1.
        -11    1    3    3    0    0 -0.27861704569E+02  0.19940169628E+02  0.50288043629E+02  0.60850409023E+02  0.00000000000E+00 0.  1.
          2    1    5    5  502    0 -0.27775302276E+02 -0.94444121334E+01  0.53622668168E+02  0.61123276079E+02  0.00000000000E+00 0. -1.
          1    1    6    6  503    0  0.86322096750E+02  0.23833256691E+02  0.88422988267E+01  0.89987303329E+02  0.00000000000E+00 0. -1.
         -2    1    5    5    0  502 -0.18272675068E+03 -0.37696417686E+03  0.53959517518E+03  0.68312078663E+03  0.00000000000E+00 0.  1.
         -1    1    6    6    0  503  0.20982523320E+03  0.18884494089E+02 -0.11658132518E+03  0.24077885702E+03  0.00000000000E+00 0.  1.
<mgrwt>
<rscale>  0 0.14742082E+04</rscale>
<asrwt>0</asrwt>
<pdfrwt beam="1">  1        2 0.25004200E+00 0.14742082E+04</pdfrwt>
<pdfrwt beam="2">  1       -2 0.51430170E-01 0.14742082E+04</pdfrwt>
<totfact> 0.37318369E+01</totfact>
</mgrwt>
</event>
<event>
12    1  0.4802930E-008  0.1779519E+04  0.7818608E-02  0.8717268E-01
          1   -1    0    0  501    0  0.00000000000E+00  0.00000000000E+00  0.20200379737E+04  0.20200379737E+04  0.00000000000E+00 0. -1.
         -1   -1    0    0    0  501 -0.00000000000E+00 -0.00000000000E+00 -0.39190940702E+03  0.39190940702E+03  0.00000000000E+00 0.  1.
         23    2    1    2    0    0  0.38392253735E+03  0.43082531118E+03  0.18353451682E+03  0.61254089812E+03  0.92273883457E+02 0.  0.
        254    2    1    2    0    0 -0.38392253735E+03 -0.43082531118E+03  0.14445940499E+04  0.17994064826E+04  0.90443615436E+03 0.  0.
         23    2    4    4    0    0 -0.64342436376E+03 -0.19194127890E+03  0.11353865418E+04  0.13218519172E+04  0.85752697457E+02 0.  0.
         23    2    4    4    0    0  0.25950182641E+03 -0.23888403228E+03  0.30920750806E+03  0.47755456547E+03  0.89678878057E+02 0.  0.
         11    1    3    3    0    0  0.11002421125E+03  0.14194401327E+03  0.10080469392E+03  0.20594906235E+03  0.00000000000E+00 0. -1.
        -11    1    3    3    0    0  0.27389832610E+03  0.28888129791E+03  0.82729822894E+02  0.40659183577E+03  0.00000000000E+00 0.  1.
          3    1    6    6  502    0  0.20478827702E+03 -0.22931465264E+03  0.24892707854E+03  0.39558581717E+03  0.00000000000E+00 0. -1.
          3    1    5    5  503    0 -0.62387015007E+03 -0.19713674792E+03  0.10781439375E+04  0.12611388550E+04  0.00000000000E+00 0. -1.
         -3    1    5    5    0  503 -0.19554213690E+02  0.51954690283E+01  0.57242604331E+02  0.60713062203E+02  0.00000000000E+00 0.  1.
         -3    1    6    6    0  502  0.54713549390E+02 -0.95693796452E+01  0.60280429530E+02  0.81968748300E+02  0.00000000000E+00 0.  1.
<mgrwt>
<rscale>  0 0.17795189E+04</rscale>
<asrwt>0</asrwt>
<pdfrwt beam="1">  1        1 0.31077507E+00 0.17795189E+04</pdfrwt>
<pdfrwt beam="2">  1       -1 0.60293756E-01 0.17795189E+04</pdfrwt>
<totfact> 0.76162076E+00</totfact>
</mgrwt>
</event>
<event>
12    1  0.4802930E-008  0.2302810E+04  0.7818608E-02  0.8476814E-01
          2   -1    0    0  501    0  0.00000000000E+00  0.00000000000E+00  0.63491509030E+03  0.63491509030E+03  0.00000000000E+00 0.  1.
         -2   -1    0    0    0  501 -0.00000000000E+00 -0.00000000000E+00 -0.20880491960E+04  0.20880491960E+04  0.00000000000E+00 0. -1.
         23    2    1    2    0    0 -0.26544997836E+03 -0.89380341512E+03 -0.29168951956E+03  0.98130956202E+03  0.92398294348E+02 0.  0.
        254    2    1    2    0    0  0.26544997836E+03  0.89380341512E+03 -0.11614445862E+04  0.17416547243E+04  0.90280641119E+03 0.  0.
         23    2    4    4    0    0 -0.20957343466E+03  0.21796810078E+03 -0.75084231834E+03  0.81471782520E+03  0.92573377460E+02 0.  0.
         23    2    4    4    0    0  0.47502341302E+03  0.67583531434E+03 -0.41060226781E+03  0.92693689910E+03  0.90648648944E+02 0.  0.
         13    1    3    3    0    0 -0.61703526617E+02 -0.26564106235E+03 -0.45228698599E+02  0.27643830122E+03  0.00000000000E+00 0. -1.
        -13    1    3    3    0    0 -0.20374645174E+03 -0.62816235277E+03 -0.24646082096E+03  0.70487126080E+03  0.00000000000E+00 0.  1.
          4    1    5    5  502    0 -0.19766770484E+03  0.15677236601E+03 -0.56709930509E+03  0.62068648940E+03  0.00000000000E+00 0. -1.
          1    1    6    6  503    0  0.44026215012E+03  0.59096179558E+03 -0.38636409149E+03  0.83207200160E+03  0.00000000000E+00 0. -1.
         -4    1    5    5    0  502 -0.11905729819E+02  0.61195734770E+02 -0.18374301325E+03  0.19403133581E+03  0.00000000000E+00 0.  1.
         -1    1    6    6    0  503  0.34761262902E+02  0.84873518764E+02 -0.24238176320E+02  0.94864897498E+02  0.00000000000E+00 0.  1.
<mgrwt>
<rscale>  0 0.23028104E+04</rscale>
<asrwt>0</asrwt>
<pdfrwt beam="1">  1        2 0.97679244E-01 0.23028104E+04</pdfrwt>
<pdfrwt beam="2">  1       -2 0.32123834E+00 0.23028104E+04</pdfrwt>
<totfact> 0.98767838E-01</totfact>
</mgrwt>
</event>
<event>
12    1  0.4802930E-008  0.1767735E+04  0.7818608E-02  0.8723648E-01
         -3   -1    0    0    0  501 -0.00000000000E+00  0.00000000000E+00  0.23351101964E+04  0.23351101964E+04  0.00000000000E+00 0.  1.
          3   -1    0    0  501    0  0.00000000000E+00 -0.00000000000E+00 -0.33455445402E+03  0.33455445402E+03  0.00000000000E+00 0. -1.
         23    2    1    2    0    0  0.31676513907E+03 -0.24485593163E+03  0.15196925617E+04  0.15742300334E+04  0.91870210699E+02 0.  0.
        254    2    1    2    0    0 -0.31676513907E+03  0.24485593163E+03  0.48086318070E+03  0.10954346170E+04  0.89914015644E+03 0.  0.
         23    2    4    4    0    0 -0.13518824593E+03  0.77081326331E+00  0.69402909884E+03  0.71294901715E+03  0.91342514861E+02 0.  0.
         23    2    4    4    0    0 -0.18157689314E+03  0.24408511836E+03 -0.21316591814E+03  0.38248559982E+03  0.91147201196E+02 0.  0.
         13    1    3    3    0    0  0.77598705502E+01 -0.30805916269E+02  0.75346030977E+02  0.81769459165E+02  0.00000000000E+00 0. -1.
        -13    1    3    3    0    0  0.30900526852E+03 -0.21405001536E+03  0.14443465307E+04  0.14924605743E+04  0.00000000000E+00 0.  1.
          1    1    5    5  502    0 -0.10522885724E+03  0.24718478247E+02  0.33808524785E+03  0.35494471454E+03  0.00000000000E+00 0. -1.
          1    1    6    6  503    0 -0.16009718522E+03  0.24768159214E+03 -0.20525553875E+03  0.35931478676E+03  0.00000000000E+00 0. -1.
         -1    1    5    5    0  502 -0.29959388685E+02 -0.23947664984E+02  0.35594385099E+03  0.35800430261E+03  0.00000000000E+00 0.  1.
         -1    1    6    6    0  503 -0.21479707911E+02 -0.35964737756E+01 -0.79103793984E+01  0.23170813058E+02  0.00000000000E+00 0.  1.
<mgrwt>
<rscale>  0 0.17677347E+04</rscale>
<asrwt>0</asrwt>
<pdfrwt beam="1">  1        3 0.51469917E-01 0.17677347E+04</pdfrwt>
<pdfrwt beam="2">  1       -3 0.35924771E+00 0.17677347E+04</pdfrwt>
<totfact> 0.16536270E-01</totfact>
</mgrwt>
</event>
<event>
12    1  0.4802930E-008  0.1939428E+04  0.7818608E-02  0.8635476E-01
         -2   -1    0    0    0  501 -0.00000000000E+00  0.00000000000E+00  0.75916874035E+03  0.75916874035E+03  0.00000000000E+00 0. -1.
          2   -1    0    0  501    0  0.00000000000E+00 -0.00000000000E+00 -0.12386508671E+04  0.12386508671E+04  0.00000000000E+00 0.  1.
         23    2    1    2    0    0 -0.62628618591E+03  0.41646982100E+03 -0.15439398202E+03  0.77309465557E+03  0.90312492643E+02 0.  0.
        254    2    1    2    0    0  0.62628618591E+03 -0.41646982100E+03 -0.32508814475E+03  0.12247249519E+04  0.91026776689E+03 0.  0.
         23    2    4    4    0    0 -0.10548702025E+03 -0.36029421664E+03 -0.29159253630E+03  0.48450191116E+03  0.93682766344E+02 0.  0.
         23    2    4    4    0    0  0.73177320616E+03 -0.56175604358E+02 -0.33495608450E+02  0.74022304072E+03  0.90335322230E+02 0.  0.
         13    1    3    3    0    0 -0.54838478680E+03  0.35964328633E+03 -0.10302555482E+03  0.66383991499E+03  0.00000000000E+00 0. -1.
        -13    1    3    3    0    0 -0.77901399116E+02  0.56826534669E+02 -0.51368427199E+02  0.10925474058E+03  0.00000000000E+00 0.  1.
          2    1    5    5  502    0  0.10694525251E+02 -0.10614637399E+03 -0.66876808737E+02  0.12591240260E+03  0.00000000000E+00 0. -1.
          1    1    6    6  503    0  0.70106333347E+03 -0.67610954550E+02 -0.44327030699E+02  0.70570951840E+03  0.00000000000E+00 0. -1.
         -2    1    5    5    0  502 -0.11618154550E+03 -0.25414784266E+03 -0.22471572756E+03  0.35858950857E+03  0.00000000000E+00 0.  1.
         -1    1    6    6    0  503  0.30709872691E+02  0.11435350192E+02  0.10831422249E+02  0.34513522316E+02  0.00000000000E+00 0.  1.
<mgrwt>
<rscale>  0 0.19394278E+04</rscale>
<asrwt>0</asrwt>
<pdfrwt beam="1">  1        2 0.19056167E+00 0.19394278E+04</pdfrwt>
<pdfrwt beam="2">  1       -2 0.11679519E+00 0.19394278E+04</pdfrwt>
<totfact> 0.95225318E+00</totfact>
</mgrwt>
</event>
<event>
12    1  0.4802930E-008  0.1182300E+04  0.7818608E-02  0.9128492E-01
         -2   -1    0    0    0  501 -0.00000000000E+00  0.00000000000E+00  0.13915843616E+04  0.13915843616E+04  0.00000000000E+00 0.  1.
          2   -1    0    0  501    0  0.00000000000E+00 -0.00000000000E+00 -0.25112263400E+03  0.25112263400E+03  0.00000000000E+00 0. -1.
         23    2    1    2    0    0 -0.99794521800E+02 -0.19305243283E+03  0.28204171625E+03  0.36811314338E+03  0.93442860729E+02 0.  0.
        254    2    1    2    0    0  0.99794521800E+02  0.19305243283E+03  0.85842001140E+03  0.12745938523E+04  0.91677499087E+03 0.  0.
         23    2    4    4    0    0  0.48866925023E+03 -0.17874692182E+01  0.45868478072E+03  0.67657507532E+03  0.92527149058E+02 0.  0.
         23    2    4    4    0    0 -0.38887472843E+03  0.19483990205E+03  0.39973523068E+03  0.59801877695E+03  0.93016456072E+02 0.  0.
         13    1    3    3    0    0  0.10767912090E+02 -0.65931875269E+02  0.63486913700E+02  0.92160448775E+02  0.00000000000E+00 0. -1.
        -13    1    3    3    0    0 -0.11056243389E+03 -0.12712055756E+03  0.21855480255E+03  0.27595269460E+03  0.00000000000E+00 0.  1.
          4    1    5    5  502    0  0.38240821031E+03 -0.14891003077E+02  0.30549320286E+03  0.48967732057E+03  0.00000000000E+00 0. -1.
          1    1    6    6  503    0 -0.17022436586E+03  0.58042972971E+02  0.21745053944E+03  0.28218798441E+03  0.00000000000E+00 0. -1.
         -4    1    5    5    0  502  0.10626103992E+03  0.13103533859E+02  0.15319157786E+03  0.18689775475E+03  0.00000000000E+00 0.  1.
         -1    1    6    6    0  503 -0.21865036258E+03  0.13679692907E+03  0.18228469124E+03  0.31583079255E+03  0.00000000000E+00 0.  1.
<mgrwt>
<rscale>  0 0.11823000E+04</rscale>
<asrwt>0</asrwt>
<pdfrwt beam="1">  1        2 0.38634252E-01 0.11823000E+04</pdfrwt>
<pdfrwt beam="2">  1       -2 0.21408990E+00 0.11823000E+04</pdfrwt>
<totfact> 0.14262468E+01</totfact>
</mgrwt>
</event>
<event>
12    1  0.4802930E-008  0.1334367E+04  0.7818608E-02  0.9002747E-01
          2   -1    0    0  501    0  0.00000000000E+00  0.00000000000E+00  0.13170543812E+04  0.13170543812E+04  0.00000000000E+00 0. -1.
         -2   -1    0    0    0  501 -0.00000000000E+00 -0.00000000000E+00 -0.33797684686E+03  0.33797684686E+03  0.00000000000E+00 0.  1.
         23    2    1    2    0    0  0.10584406533E+03 -0.22536697713E+03  0.58009076654E+03  0.63780189920E+03  0.91064398363E+02 0.  0.
        254    2    1    2    0    0 -0.10584406533E+03  0.22536697713E+03  0.39898676785E+03  0.10172293289E+04  0.90198216508E+03 0.  0.
         23    2    4    4    0    0  0.37872157018E+03  0.59801878594E+02  0.27555077922E+03  0.48282734241E+03  0.10093422737E+03 0.  0.
         23    2    4    4    0    0 -0.48456563551E+03  0.16556509853E+03  0.12343598863E+03  0.53440198650E+03  0.90185269944E+02 0.  0.
         11    1    3    3    0    0  0.31557666008E+02 -0.13767312718E+03  0.39958475610E+03  0.42381334752E+03  0.00000000000E+00 0. -1.
        -11    1    3    3    0    0  0.74286399321E+02 -0.87693849943E+02  0.18050601045E+03  0.21398855168E+03  0.00000000000E+00 0.  1.
          1    1    6    6  502    0 -0.11570463708E+02 -0.77131844397E+01  0.12271360651E+02  0.18546027522E+02  0.00000000000E+00 0. -1.
          1    1    5    5  503    0  0.18426298055E+02 -0.12321718215E+02 -0.21195108827E+01  0.22267589142E+02  0.00000000000E+00 0. -1.
         -1    1    5    5    0  503  0.36029527212E+03  0.72123596809E+02  0.27767029010E+03  0.46055975327E+03  0.00000000000E+00 0.  1.
         -1    1    6    6    0  502 -0.47299517180E+03  0.17327828297E+03  0.11116462798E+03  0.51585595897E+03  0.00000000000E+00 0.  1.
<mgrwt>
<rscale>  0 0.13343671E+04</rscale>
<asrwt>0</asrwt>
<pdfrwt beam="1">  1        2 0.20262375E+00 0.13343671E+04</pdfrwt>
<pdfrwt beam="2">  1       -2 0.51996439E-01 0.13343671E+04</pdfrwt>
<totfact> 0.55163730E+01</totfact>
</mgrwt>
</event>
<event>
12    1  0.4802930E-008  0.1678431E+04  0.7818608E-02  0.8773762E-01
          1   -1    0    0  501    0  0.00000000000E+00  0.00000000000E+00  0.20071117121E+04  0.20071117121E+04  0.00000000000E+00 0. -1.
         -1   -1    0    0    0  501 -0.00000000000E+00 -0.00000000000E+00 -0.35089378115E+03  0.35089378115E+03  0.00000000000E+00 0.  1.
         23    2    1    2    0    0  0.51456171539E+03 -0.23630537431E+03  0.33311493247E+03  0.66340378436E+03  0.92331110632E+02 0.  0.
        254    2    1    2    0    0 -0.51456171539E+03  0.23630537431E+03  0.13231029985E+04  0.16946017089E+04  0.89468397681E+03 0.  0.
         23    2    4    4    0    0 -0.67123620138E+03  0.12934167258E+02  0.55641599056E+03  0.87700617815E+03  0.93892231999E+02 0.  0.
         23    2    4    4    0    0  0.15667448599E+03  0.22337120705E+03  0.76668700796E+03  0.81759553078E+03  0.78815563733E+02 0.  0.
         11    1    3    3    0    0  0.23294600073E+03 -0.77994899773E+02  0.18752269372E+03  0.30904984113E+03  0.00000000000E+00 0.  1.
        -11    1    3    3    0    0  0.28161571466E+03 -0.15831047453E+03  0.14559223875E+03  0.35435394322E+03  0.00000000000E+00 0. -1.
          4    1    5    5  502    0 -0.67027721498E+02 -0.22422277695E+02  0.38898781967E+02  0.80675828008E+02  0.00000000000E+00 0. -1.
          1    1    6    6  503    0  0.39844576047E+02  0.91058604601E+02  0.18897298364E+03  0.21351826212E+03  0.00000000000E+00 0. -1.
         -4    1    5    5    0  502 -0.60420847989E+03  0.35356444953E+02  0.51751720859E+03  0.79633035014E+03  0.00000000000E+00 0.  1.
         -1    1    6    6    0  503  0.11682990994E+03  0.13231260245E+03  0.57771402432E+03  0.60407726866E+03  0.00000000000E+00 0.  1.
<mgrwt>
<rscale>  0 0.16784314E+04</rscale>
<asrwt>0</asrwt>
<pdfrwt beam="1">  1        1 0.30878641E+00 0.16784314E+04</pdfrwt>
<pdfrwt beam="2">  1       -1 0.53983660E-01 0.16784314E+04</pdfrwt>
<totfact> 0.97356803E+00</totfact>
</mgrwt>
</event>
<event>
12    1  0.4802930E-008  0.1915820E+04  0.7818608E-02  0.8647022E-01
         -2   -1    0    0    0  501 -0.00000000000E+00  0.00000000000E+00  0.49850305594E+03  0.49850305594E+03  0.00000000000E+00 0.  1.
          2   -1    0    0  501    0  0.00000000000E+00 -0.00000000000E+00 -0.18406939636E+04  0.18406939636E+04  0.00000000000E+00 0. -1.
         23    2    1    2    0    0 -0.28930564324E+03 -0.49921509263E+03  0.29502874894E+02  0.58496317676E+03  0.91640791217E+02 0.  0.
        254    2    1    2    0    0  0.28930564324E+03  0.49921509263E+03 -0.13716937825E+04  0.17542338427E+04  0.92891284741E+03 0.  0.
         23    2    4    4    0    0 -0.18006387443E+03 -0.17072138038E+03 -0.41804173314E+03  0.49461511342E+03  0.91194469038E+02 0.  0.
         23    2    4    4    0    0  0.46936951766E+03  0.66993647302E+03 -0.95365204938E+03  0.12596187293E+04  0.89802505382E+02 0.  0.
         13    1    3    3    0    0 -0.12681500481E+03 -0.17176636574E+03 -0.26511022267E+02  0.21514777282E+03  0.00000000000E+00 0. -1.
        -13    1    3    3    0    0 -0.16249063842E+03 -0.32744872689E+03  0.56013897161E+02  0.36981540395E+03  0.00000000000E+00 0.  1.
          4    1    5    5  502    0  0.35771737812E+01 -0.29392814311E+00 -0.45636907973E+02  0.45777832357E+02  0.00000000000E+00 0. -1.
          3    1    6    6  503    0  0.33091948598E+02  0.16743881811E+02 -0.35885096679E+02  0.51605957057E+02  0.00000000000E+00 0. -1.
         -4    1    5    5    0  502 -0.18364104821E+03 -0.17042745224E+03 -0.37240482517E+03  0.44883728106E+03  0.00000000000E+00 0.  1.
         -3    1    6    6    0  503  0.43627756907E+03  0.65319259120E+03 -0.91776695270E+03  0.12080127723E+04  0.00000000000E+00 0.  1.
<mgrwt>
<rscale>  0 0.19158200E+04</rscale>
<asrwt>0</asrwt>
<pdfrwt beam="1">  1        2 0.28318368E+00 0.19158200E+04</pdfrwt>
<pdfrwt beam="2">  1       -2 0.76692778E-01 0.19158200E+04</pdfrwt>
<totfact> 0.11641074E+01</totfact>
</mgrwt>
</event>
<event>
12    1  0.4802930E-008  0.1642703E+04  0.7818608E-02  0.8794735E-01
          1   -1    0    0  501    0  0.00000000000E+00  0.00000000000E+00  0.15678971707E+04  0.15678971707E+04  0.00000000000E+00 0. -1.
         -1   -1    0    0    0  501 -0.00000000000E+00 -0.00000000000E+00 -0.43026949871E+03  0.43026949871E+03  0.00000000000E+00 0.  1.
         23    2    1    2    0    0  0.46897439142E+03 -0.28857993807E+03  0.61786086343E+03  0.83298353796E+03  0.94308894037E+02 0.  0.
        254    2    1    2    0    0 -0.46897439142E+03  0.28857993807E+03  0.51976680854E+03  0.11651831314E+04  0.88559518632E+03 0.  0.
         23    2    4    4    0    0 -0.54351788475E+03  0.35676504630E+03  0.68644676772E+03  0.94984391806E+03  0.91111549501E+02 0.  0.
         23    2    4    4    0    0  0.74543493332E+02 -0.68185108230E+02 -0.16667995919E+03  0.21533921336E+03  0.91557777576E+02 0.  0.
         13    1    3    3    0    0  0.46157717976E+03 -0.27821688301E+03  0.61833600534E+03  0.82024236806E+03  0.00000000000E+00 0. -1.
        -13    1    3    3    0    0  0.73972116581E+01 -0.10363055063E+02 -0.47514191078E+00  0.12741169898E+02  0.00000000000E+00 0.  1.
          2    1    5    5  502    0 -0.84284728078E+02  0.61086719935E+02  0.16250069544E+03  0.19298180939E+03  0.00000000000E+00 0. -1.
          3    1    6    6  503    0 -0.16515915012E+02 -0.19762073551E+02 -0.67532416129E+02  0.72276844341E+02  0.00000000000E+00 0. -1.
         -2    1    5    5    0  502 -0.45923315667E+03  0.29567832637E+03  0.52394607229E+03  0.75686210867E+03  0.00000000000E+00 0.  1.
         -3    1    6    6    0  503  0.91059408344E+02 -0.48423034679E+02 -0.99147543057E+02  0.14306236902E+03  0.00000000000E+00 0.  1.
<mgrwt>
<rscale>  0 0.16427031E+04</rscale>
<asrwt>0</asrwt>
<pdfrwt beam="1">  1        1 0.24121495E+00 0.16427031E+04</pdfrwt>
<pdfrwt beam="2">  1       -1 0.66195308E-01 0.16427031E+04</pdfrwt>
<totfact> 0.12983286E+01</totfact>
</mgrwt>
</event>
<event>
12    1  0.4802930E-008  0.1765222E+04  0.7818608E-02  0.8725016E-01
         -1   -1    0    0    0  501 -0.00000000000E+00  0.00000000000E+00  0.94290508904E+03  0.94290508904E+03  0.00000000000E+00 0.  1.
          1   -1    0    0  501    0  0.00000000000E+00 -0.00000000000E+00 -0.82617250001E+03  0.82617250001E+03  0.00000000000E+00 0. -1.
         23    2    1    2    0    0  0.10442982657E+03 -0.51763342239E+03  0.42446998384E+03  0.68364976660E+03  0.91390850414E+02 0.  0.
        254    2    1    2    0    0 -0.10442982657E+03  0.51763342239E+03 -0.30773739481E+03  0.10854278224E+04  0.89699571065E+03 0.  0.
         23    2    4    4    0    0 -0.32151019649E+03  0.65657998751E+03 -0.33704985390E+03  0.81039820094E+03  0.93148019992E+02 0.  0.
         23    2    4    4    0    0  0.21708036992E+03 -0.13894656512E+03  0.29312459088E+02  0.27502962150E+03  0.91389482346E+02 0.  0.
         11    1    3    3    0    0  0.64669046478E+02 -0.41972890092E+03  0.29779628248E+03  0.51868782682E+03  0.00000000000E+00 0.  1.
        -11    1    3    3    0    0  0.39760780092E+02 -0.97904521472E+02  0.12667370136E+03  0.16496193977E+03  0.00000000000E+00 0. -1.
          2    1    5    5  502    0 -0.10857521894E+03  0.27325443726E+03 -0.17928854064E+03  0.34438488128E+03  0.00000000000E+00 0. -1.
          1    1    6    6  503    0  0.14266147186E+03 -0.91763428777E+02  0.62639485575E+02  0.18082181164E+03  0.00000000000E+00 0. -1.
         -2    1    5    5    0  502 -0.21293497754E+03  0.38332555025E+03 -0.15776131325E+03  0.46601331966E+03  0.00000000000E+00 0.  1.
         -1    1    6    6    0  503  0.74418898062E+02 -0.47183136347E+02 -0.33327026486E+02  0.94207809860E+02  0.00000000000E+00 0.  1.
<mgrwt>
<rscale>  0 0.17652221E+04</rscale>
<asrwt>0</asrwt>
<pdfrwt beam="1">  1        1 0.12710346E+00 0.17652221E+04</pdfrwt>
<pdfrwt beam="2">  1       -1 0.14506232E+00 0.17652221E+04</pdfrwt>
<totfact> 0.75805945E+00</totfact>
</mgrwt>
</event>
<event>
12    1  0.4802930E-008  0.1268199E+04  0.7818608E-02  0.9055171E-01
          1   -1    0    0  501    0  0.00000000000E+00  0.00000000000E+00  0.13190293527E+04  0.13190293527E+04  0.00000000000E+00 0.  1.
         -1   -1    0    0    0  501 -0.00000000000E+00 -0.00000000000E+00 -0.30483176387E+03  0.30483176387E+03  0.00000000000E+00 0. -1.
         23    2    1    2    0    0  0.31063494421E+02 -0.12620908554E+03  0.62500670645E+03  0.64447321091E+03  0.88423201197E+02 0.  0.
        254    2    1    2    0    0 -0.31063494421E+02  0.12620908554E+03  0.38919088237E+03  0.97938790565E+03  0.88929042098E+03 0.  0.
         23    2    4    4    0    0 -0.91599043599E+02 -0.18944949337E+02  0.64996117136E+03  0.66321543829E+03  0.93037075455E+02 0.  0.
         23    2    4    4    0    0  0.60535549178E+02  0.14515403488E+03 -0.26077028899E+03  0.31617246736E+03  0.85027283496E+02 0.  0.
         13    1    3    3    0    0  0.60873787914E+02 -0.67475838481E+02  0.38638047663E+03  0.39692377046E+03  0.00000000000E+00 0. -1.
        -13    1    3    3    0    0 -0.29810293493E+02 -0.58733247058E+02  0.23862622983E+03  0.24754944045E+03  0.00000000000E+00 0.  1.
          4    1    5    5  502    0 -0.41864732185E+02  0.30517583492E+02  0.15794540033E+03  0.16622493251E+03  0.00000000000E+00 0. -1.
          3    1    6    6  503    0  0.19025276497E+02 -0.24101209414E+01 -0.84925045906E+01  0.20973613493E+02  0.00000000000E+00 0. -1.
         -4    1    5    5    0  502 -0.49734311414E+02 -0.49462532829E+02  0.49201577103E+03  0.49699050577E+03  0.00000000000E+00 0.  1.
         -3    1    6    6    0  503  0.41510272681E+02  0.14756415582E+03 -0.25227778440E+03  0.29519885386E+03  0.00000000000E+00 0.  1.
<mgrwt>
<rscale>  0 0.12681988E+04</rscale>
<asrwt>0</asrwt>
<pdfrwt beam="1">  1        1 0.20292759E+00 0.12681988E+04</pdfrwt>
<pdfrwt beam="2">  1       -1 0.46897195E-01 0.12681988E+04</pdfrwt>
<totfact> 0.39119386E+01</totfact>
</mgrwt>
</event>
<event>
12    1  0.4802930E-008  0.1288664E+04  0.7818608E-02  0.9038603E-01
          1   -1    0    0  501    0  0.00000000000E+00  0.00000000000E+00  0.61341198866E+03  0.61341198866E+03  0.00000000000E+00 0. -1.
         -1   -1    0    0    0  501 -0.00000000000E+00 -0.00000000000E+00 -0.67681098440E+03  0.67681098440E+03  0.00000000000E+00 0.  1.
         23    2    1    2    0    0 -0.61739354085E+02  0.32127749512E+03  0.10437387918E+01  0.33999436396E+03  0.92542430354E+02 0.  0.
        254    2    1    2    0    0  0.61739354085E+02 -0.32127749512E+03 -0.64442734540E+02  0.95022860910E+03  0.88980366756E+03 0.  0.
         23    2    4    4    0    0  0.34060059418E+03  0.87042938040E+02  0.16176467127E+03  0.39761793518E+03  0.91361784607E+02 0.  0.
         23    2    4    4    0    0 -0.27886124010E+03 -0.40832043316E+03 -0.22620740581E+03  0.55261067392E+03  0.98588027288E+02 0.  0.
         11    1    3    3    0    0 -0.40185238296E+02  0.21448008318E+03  0.44488441305E+02  0.22270110208E+03  0.00000000000E+00 0.  1.
        -11    1    3    3    0    0 -0.21554115788E+02  0.10679741194E+03 -0.43444702513E+02  0.11729326188E+03  0.00000000000E+00 0. -1.
          4    1    5    5  502    0  0.34630256320E+03  0.88166498364E+02  0.15821365857E+03  0.39080731629E+03  0.00000000000E+00 0. -1.
          3    1    6    6  503    0 -0.21485461056E+03 -0.35963268551E+03 -0.15998581542E+03  0.44843464775E+03  0.00000000000E+00 0. -1.
         -4    1    5    5    0  502 -0.57019690143E+01 -0.11235603241E+01  0.35510126969E+01  0.68106188864E+01  0.00000000000E+00 0.  1.
         -3    1    6    6    0  503 -0.64006629538E+02 -0.48687747656E+02 -0.66221590386E+02  0.10417602618E+03  0.00000000000E+00 0.  1.
<mgrwt>
<rscale>  0 0.12886644E+04</rscale>
<asrwt>0</asrwt>
<pdfrwt beam="1">  1        1 0.94371076E-01 0.12886644E+04</pdfrwt>
<pdfrwt beam="2">  1       -1 0.10412477E+00 0.12886644E+04</pdfrwt>
<totfact> 0.28327213E+01</totfact>
</mgrwt>
</event>
<event>
12    1  0.4802930E-008  0.2738743E+04  0.7818608E-02  0.8322543E-01
         -1   -1    0    0    0  501 -0.00000000000E+00  0.00000000000E+00  0.22116143886E+04  0.22116143886E+04  0.00000000000E+00 0.  1.
          1   -1    0    0  501    0  0.00000000000E+00 -0.00000000000E+00 -0.84787733280E+03  0.84787733280E+03  0.00000000000E+00 0. -1.
         23    2    1    2    0    0  0.94666046464E+03 -0.76674550523E+03  0.71977150021E+03  0.14178480086E+04  0.90317538831E+02 0.  0.
        254    2    1    2    0    0 -0.94666046464E+03  0.76674550523E+03  0.64396555559E+03  0.16416437128E+04  0.89232154403E+03 0.  0.
         23    2    4    4    0    0 -0.64656500480E+03  0.77249324767E+03  0.80180373679E+03  0.12908511408E+04  0.92818706549E+02 0.  0.
         23    2    4    4    0    0 -0.30009545984E+03 -0.57477424409E+01 -0.15783818120E+03  0.35079257200E+03  0.89734138261E+02 0.  0.
         13    1    3    3    0    0  0.22399668515E+03 -0.22802407296E+03  0.16974036106E+03  0.36191336392E+03  0.00000000000E+00 0.  1.
        -13    1    3    3    0    0  0.72266377949E+03 -0.53872143227E+03  0.55003113915E+03  0.10559346447E+04  0.00000000000E+00 0. -1.
          1    1    5    5  502    0 -0.50142360219E+01  0.29136801790E+02  0.27313568969E+02  0.40250799138E+02  0.00000000000E+00 0. -1.
          3    1    6    6  503    0 -0.34248741587E+02 -0.30659312344E+02 -0.17861739427E+02  0.49315428307E+02  0.00000000000E+00 0. -1.
         -1    1    5    5    0  502 -0.64155076878E+03  0.74335644588E+03  0.77449016782E+03  0.12506003417E+04  0.00000000000E+00 0.  1.
         -3    1    6    6    0  503 -0.26584671825E+03  0.24911569903E+02 -0.13997644177E+03  0.30147714370E+03  0.00000000000E+00 0.  1.
<mgrwt>
<rscale>  0 0.27387426E+04</rscale>
<asrwt>0</asrwt>
<pdfrwt beam="1">  1        1 0.13044267E+00 0.27387426E+04</pdfrwt>
<pdfrwt beam="2">  1       -1 0.34024836E+00 0.27387426E+04</pdfrwt>
<totfact> 0.31546763E-01</totfact>
</mgrwt>
</event>
<event>
12    1  0.4802930E-008  0.1362663E+04  0.7818608E-02  0.8981298E-01
         -1   -1    0    0    0  501 -0.00000000000E+00  0.00000000000E+00  0.18248136849E+04  0.18248136849E+04  0.00000000000E+00 0.  1.
          1   -1    0    0  501    0  0.00000000000E+00 -0.00000000000E+00 -0.25438887927E+03  0.25438887927E+03  0.00000000000E+00 0. -1.
         23    2    1    2    0    0  0.87178638304E+02  0.21091847022E+03 -0.30771466248E+01  0.24600569921E+03  0.91774828541E+02 0.  0.
        254    2    1    2    0    0 -0.87178638304E+02 -0.21091847022E+03  0.15735019522E+04  0.18331968649E+04  0.91247774542E+03 0.  0.
         23    2    4    4    0    0 -0.21244885407E+03 -0.40175941118E+03  0.33890038799E+03  0.57408770257E+03  0.90432721935E+02 0.  0.
         23    2    4    4    0    0  0.12527021577E+03  0.19084094096E+03  0.12346015643E+04  0.12591091624E+04  0.94878704764E+02 0.  0.
         11    1    3    3    0    0  0.96165507726E+02  0.17061734740E+03 -0.27897341939E+02  0.19782908229E+03  0.00000000000E+00 0. -1.
        -11    1    3    3    0    0 -0.89868694224E+01  0.40301122818E+02  0.24820195314E+02  0.48176616920E+02  0.00000000000E+00 0.  1.
          2    1    5    5  502    0 -0.36534034993E+02 -0.80448508663E+02  0.25391706103E+02  0.91931697460E+02  0.00000000000E+00 0. -1.
          3    1    6    6  503    0  0.11032291682E+03  0.96186101901E+02  0.61736333659E+03  0.63447647832E+03  0.00000000000E+00 0. -1.
         -2    1    5    5    0  502 -0.17591481908E+03 -0.32131090252E+03  0.31350868188E+03  0.48215600511E+03  0.00000000000E+00 0.  1.
         -3    1    6    6    0  503  0.14947298947E+02  0.94654839059E+02  0.61723822766E+03  0.62463268405E+03  0.00000000000E+00 0.  1.
<mgrwt>
<rscale>  0 0.13626626E+04</rscale>
<asrwt>0</asrwt>
<pdfrwt beam="1">  1        1 0.39136752E-01 0.13626626E+04</pdfrwt>
<pdfrwt beam="2">  1       -1 0.28074056E+00 0.13626626E+04</pdfrwt>
<totfact> 0.46923614E+00</totfact>
</mgrwt>
</event>
<event>
12    1  0.6338600E-008  0.1808360E+04  0.7818608E-02  0.8701867E-01
         -2   -1    0    0    0  501 -0.00000000000E+00  0.00000000000E+00  0.60349059683E+03  0.60349059683E+03  0.00000000000E+00 0.  1.
          2   -1    0    0  501    0  0.00000000000E+00 -0.00000000000E+00 -0.13546874855E+04  0.13546874855E+04  0.00000000000E+00 0. -1.
         23    2    1    2    0    0  0.31841970653E+03 -0.60394110533E+03 -0.29030361358E+03  0.74744861895E+03  0.90924593512E+02 0.  0.
        254    2    1    2    0    0 -0.31841970653E+03  0.60394110533E+03 -0.46089327509E+03  0.12107294634E+04  0.88730336090E+03 0.  0.
         23    2    4    4    0    0 -0.22849884149E+03  0.41560997193E+02  0.20998344242E+03  0.32599007345E+03  0.90760370462E+02 0.  0.
         23    2    4    4    0    0 -0.89920865033E+02  0.56238010814E+03 -0.67087671751E+03  0.88473938993E+03  0.91274695314E+02 0.  0.
         11    1    3    3    0    0  0.27450337315E+03 -0.55720951049E+03 -0.23986177269E+03  0.66585900193E+03  0.00000000000E+00 0.  1.
        -11    1    3    3    0    0  0.43916333375E+02 -0.46731594834E+02 -0.50441840892E+02  0.81589617019E+02  0.00000000000E+00 0. -1.
          2    1    5    5  502    0 -0.23457375419E+03  0.45350843150E+02  0.21100821447E+03  0.31875697907E+03  0.00000000000E+00 0. -1.
          3    1    6    6  503    0 -0.77667785403E+02  0.55856623647E+03 -0.65696744761E+03  0.86581450244E+03  0.00000000000E+00 0. -1.
         -2    1    5    5    0  502  0.60749126939E+01 -0.37898459571E+01 -0.10247720535E+01  0.72330943848E+01  0.00000000000E+00 0.  1.
         -3    1    6    6    0  503 -0.12253079631E+02  0.38138716686E+01 -0.13909269894E+02  0.18924887491E+02  0.00000000000E+00 0.  1.
<mgrwt>
<rscale>  0 0.18083597E+04</rscale>
<asrwt>0</asrwt>
<pdfrwt beam="1">  1        2 0.20841346E+00 0.18083597E+04</pdfrwt>
<pdfrwt beam="2">  1       -2 0.92844708E-01 0.18083597E+04</pdfrwt>
<totfact> 0.14255700E+01</totfact>
</mgrwt>
</event>
<event>
12    1  0.4802930E-008  0.2216386E+04  0.7818608E-02  0.8511639E-01
         -2   -1    0    0    0  501 -0.00000000000E+00  0.00000000000E+00  0.10807431439E+04  0.10807431439E+04  0.00000000000E+00 0.  1.
          2   -1    0    0  501    0  0.00000000000E+00 -0.00000000000E+00 -0.11363403437E+04  0.11363403437E+04  0.00000000000E+00 0. -1.
         23    2    1    2    0    0 -0.72400805071E+02  0.21721300339E+03  0.87138497573E+03  0.90565768904E+03  0.92090761663E+02 0.  0.
        254    2    1    2    0    0  0.72400805071E+02 -0.21721300339E+03 -0.92698217557E+03  0.13114257985E+04  0.89895400652E+03 0.  0.
         23    2    4    4    0    0  0.12377326375E+03  0.19559008616E+03  0.42472066188E+02  0.25275319229E+03  0.92222541629E+02 0.  0.
         23    2    4    4    0    0 -0.51372458683E+02 -0.41280308955E+03 -0.96945424176E+03  0.10586726062E+04  0.88885544972E+02 0.  0.
         11    1    3    3    0    0 -0.86230880728E+02  0.21534273924E+03  0.83698686290E+03  0.86853627950E+03  0.00000000000E+00 0.  1.
        -11    1    3    3    0    0  0.13830075656E+02  0.18702641490E+01  0.34398112826E+02  0.37121409545E+02  0.00000000000E+00 0. -1.
          4    1    6    6  502    0  0.21724334169E+02 -0.16525290656E+03 -0.35353961403E+03  0.39085896243E+03  0.00000000000E+00 0. -1.
          4    1    5    5  503    0  0.10066222265E+02  0.74624286095E+02 -0.15548101020E+02  0.76888597016E+02  0.00000000000E+00 0. -1.
         -4    1    5    5    0  503  0.11370704149E+03  0.12096580006E+03  0.58020167207E+02  0.17586459528E+03  0.00000000000E+00 0.  1.
         -4    1    6    6    0  502 -0.73096792852E+02 -0.24755018299E+03 -0.61591462772E+03  0.66781364382E+03  0.00000000000E+00 0.  1.
<mgrwt>
<rscale>  0 0.22163863E+04</rscale>
<asrwt>0</asrwt>
<pdfrwt beam="1">  1        2 0.17482159E+00 0.22163863E+04</pdfrwt>
<pdfrwt beam="2">  1       -2 0.16626818E+00 0.22163863E+04</pdfrwt>
<totfact> 0.42820020E+00</totfact>
</mgrwt>
</event>
<event>
12    1  0.4802930E-008  0.1699402E+04  0.7818608E-02  0.8761705E-01
          2   -1    0    0  501    0  0.00000000000E+00  0.00000000000E+00  0.13822693747E+04  0.13822693747E+04  0.00000000000E+00 0. -1.
         -2   -1    0    0    0  501 -0.00000000000E+00 -0.00000000000E+00 -0.52232363096E+03  0.52232363096E+03  0.00000000000E+00 0.  1.
         23    2    1    2    0    0 -0.10137217677E+03  0.59464930815E+03  0.21170295212E+03  0.64597597783E+03  0.92642895507E+02 0.  0.
        254    2    1    2    0    0  0.10137217677E+03 -0.59464930815E+03  0.64824279159E+03  0.12586170278E+04  0.89443501045E+03 0.  0.
         23    2    4    4    0    0 -0.25279851374E+03 -0.54843305861E+03  0.64667761886E+03  0.88934529618E+03  0.89761933881E+02 0.  0.
         23    2    4    4    0    0  0.35417069051E+03 -0.46216249540E+02  0.15651727360E+01  0.36927173163E+03  0.93735491015E+02 0.  0.
         11    1    3    3    0    0 -0.49336085941E+02  0.18656355331E+03  0.26383213187E+02  0.19477187358E+03  0.00000000000E+00 0.  1.
        -11    1    3    3    0    0 -0.52036090832E+02  0.40808575484E+03  0.18531973894E+03  0.45120410425E+03  0.00000000000E+00 0. -1.
          2    1    5    5  502    0 -0.22735168064E+03 -0.48534598128E+03  0.52679314529E+03  0.75150550640E+03  0.00000000000E+00 0. -1.
          3    1    6    6  503    0  0.33465854326E+03 -0.45363638313E+02 -0.22274898850E+02  0.33845290866E+03  0.00000000000E+00 0. -1.
         -2    1    5    5    0  502 -0.25446833092E+02 -0.63087077331E+02  0.11988447357E+03  0.13783978977E+03  0.00000000000E+00 0.  1.
         -3    1    6    6    0  503  0.19512147248E+02 -0.85261122741E+00  0.23840071586E+02  0.30818822971E+02  0.00000000000E+00 0.  1.
<mgrwt>
<rscale>  0 0.16994022E+04</rscale>
<asrwt>0</asrwt>
<pdfrwt beam="1">  1        2 0.21265683E+00 0.16994022E+04</pdfrwt>
<pdfrwt beam="2">  1       -2 0.80357482E-01 0.16994022E+04</pdfrwt>
<totfact> 0.19291819E+01</totfact>
</mgrwt>
</event>
<event>
12    1  0.4802930E-008  0.1711465E+04  0.7818608E-02  0.8754852E-01
         -2   -1    0    0    0  501 -0.00000000000E+00  0.00000000000E+00  0.53334409042E+03  0.53334409042E+03  0.00000000000E+00 0.  1.
          2   -1    0    0  501    0  0.00000000000E+00 -0.00000000000E+00 -0.13729935609E+04  0.13729935609E+04  0.00000000000E+00 0. -1.
         23    2    1    2    0    0  0.40594943697E+03  0.39950820658E+03 -0.57939070310E+03  0.81762597184E+03  0.91743612757E+02 0.  0.
        254    2    1    2    0    0 -0.40594943697E+03 -0.39950820658E+03 -0.26025876737E+03  0.10887116795E+04  0.89059347772E+03 0.  0.
         23    2    4    4    0    0 -0.42977004159E+03 -0.62230570771E+02 -0.49576784464E+03  0.66517411597E+03  0.89977309322E+02 0.  0.
         23    2    4    4    0    0  0.23820604616E+02 -0.33727763581E+03  0.23550907727E+03  0.42353756351E+03  0.97958753600E+02 0.  0.
         11    1    3    3    0    0  0.29456445952E+03  0.25995548060E+03 -0.44849415913E+03  0.59623156867E+03  0.00000000000E+00 0.  1.
        -11    1    3    3    0    0  0.11138497746E+03  0.13955272597E+03 -0.13089654397E+03  0.22139440316E+03  0.00000000000E+00 0. -1.
          2    1    5    5  502    0 -0.41175076995E+03 -0.39521478037E+02 -0.45227811296E+03  0.61290793374E+03  0.00000000000E+00 0. -1.
          3    1    6    6  503    0  0.56250564308E+02 -0.22847012813E+03  0.18480958164E+03  0.29919442992E+03  0.00000000000E+00 0. -1.
         -2    1    5    5    0  502 -0.18019271638E+02 -0.22709092734E+02 -0.43489731681E+02  0.52266182230E+02  0.00000000000E+00 0.  1.
         -3    1    6    6    0  503 -0.32429959692E+02 -0.10880750768E+03  0.50699495637E+02  0.12434313359E+03  0.00000000000E+00 0.  1.
<mgrwt>
<rscale>  0 0.17114649E+04</rscale>
<asrwt>0</asrwt>
<pdfrwt beam="1">  1        2 0.21122978E+00 0.17114649E+04</pdfrwt>
<pdfrwt beam="2">  1       -2 0.82052938E-01 0.17114649E+04</pdfrwt>
<totfact> 0.18613344E+01</totfact>
</mgrwt>
</event>
<event>
12    1  0.4802930E-008  0.1310701E+04  0.7818608E-02  0.9021122E-01
         -2   -1    0    0    0  501 -0.00000000000E+00  0.00000000000E+00  0.23073328795E+04  0.23073328795E+04  0.00000000000E+00 0.  1.
          2   -1    0    0  501    0  0.00000000000E+00 -0.00000000000E+00 -0.18613872710E+03  0.18613872710E+03  0.00000000000E+00 0. -1.
         23    2    1    2    0    0 -0.20217612569E+03  0.33353012499E+02  0.10773659200E+04  0.11005949671E+04  0.92759618345E+02 0.  0.
        254    2    1    2    0    0  0.20217612569E+03 -0.33353012499E+02  0.10438282324E+04  0.13928766395E+04  0.89918871482E+03 0.  0.
         23    2    4    4    0    0  0.42233909606E+03  0.28271790888E+03  0.47936166997E+03  0.70467071214E+03  0.92051473893E+02 0.  0.
         23    2    4    4    0    0 -0.22016297037E+03 -0.31607092138E+03  0.56446656240E+03  0.68820592734E+03  0.81439164363E+02 0.  0.
         13    1    3    3    0    0 -0.15666751102E+03  0.64688556975E+02  0.83081249841E+03  0.84792613235E+03  0.00000000000E+00 0.  1.
        -13    1    3    3    0    0 -0.45508614675E+02 -0.31335544476E+02  0.24655342160E+03  0.25266883477E+03  0.00000000000E+00 0. -1.
          1    1    5    5  502    0  0.16251837572E+03  0.58164343206E+02  0.17477904351E+03  0.24564817792E+03  0.00000000000E+00 0. -1.
          3    1    6    6  503    0 -0.27589449449E+02 -0.24537628255E+02  0.22069843934E+02  0.43015705649E+02  0.00000000000E+00 0. -1.
         -1    1    5    5    0  502  0.25982072034E+03  0.22455356567E+03  0.30458262646E+03  0.45902253422E+03  0.00000000000E+00 0.  1.
         -3    1    6    6    0  503 -0.19257352092E+03 -0.29153329312E+03  0.54239671846E+03  0.64519022169E+03  0.00000000000E+00 0.  1.
<mgrwt>
<rscale>  0 0.13107006E+04</rscale>
<asrwt>0</asrwt>
<pdfrwt beam="1">  1        2 0.28636729E-01 0.13107006E+04</pdfrwt>
<pdfrwt beam="2">  1       -2 0.35497427E+00 0.13107006E+04</pdfrwt>
<totfact> 0.26922831E+00</totfact>
</mgrwt>
</event>
<event>
12    1  0.4802930E-008  0.2543651E+04  0.7818608E-02  0.8387598E-01
         -1   -1    0    0    0  501 -0.00000000000E+00  0.00000000000E+00  0.10817306673E+04  0.10817306673E+04  0.00000000000E+00 0.  1.
          1   -1    0    0  501    0  0.00000000000E+00 -0.00000000000E+00 -0.14953257284E+04  0.14953257284E+04  0.00000000000E+00 0. -1.
         23    2    1    2    0    0  0.96774447127E+03 -0.14440122500E+03  0.40062822854E+03  0.10607190340E+04  0.85092985696E+02 0.  0.
        254    2    1    2    0    0 -0.96774447127E+03  0.14440122500E+03 -0.81422328963E+03  0.15163373617E+04  0.82397715609E+03 0.  0.
         23    2    4    4    0    0 -0.20960508997E+03 -0.12667315462E+03  0.11369782165E+03  0.28446059762E+03  0.89500028533E+02 0.  0.
         23    2    4    4    0    0 -0.75813938131E+03  0.27107437962E+03 -0.92792111128E+03  0.12318767641E+04  0.90698028839E+02 0.  0.
         13    1    3    3    0    0  0.77201120651E+03 -0.14946356029E+03  0.31921074801E+03  0.84866728491E+03  0.00000000000E+00 0.  1.
        -13    1    3    3    0    0  0.19573326476E+03  0.50623352978E+01  0.81417480527E+02  0.21205174913E+03  0.00000000000E+00 0. -1.
          2    1    5    5  502    0 -0.38275511976E+02  0.25431231819E+01 -0.58662804312E+01  0.38805869899E+02  0.00000000000E+00 0. -1.
          3    1    6    6  503    0 -0.19382242547E+03  0.10473109855E+03 -0.21912029709E+03  0.31072405799E+03  0.00000000000E+00 0. -1.
         -2    1    5    5    0  502 -0.17132957799E+03 -0.12921627780E+03  0.11956410208E+03  0.24565472772E+03  0.00000000000E+00 0.  1.
         -3    1    6    6    0  503 -0.56431695584E+03  0.16634328107E+03 -0.70880081419E+03  0.92115270613E+03  0.00000000000E+00 0.  1.
<mgrwt>
<rscale>  0 0.25436507E+04</rscale>
<asrwt>0</asrwt>
<pdfrwt beam="1">  1        1 0.23005011E+00 0.25436507E+04</pdfrwt>
<pdfrwt beam="2">  1       -1 0.16642010E+00 0.25436507E+04</pdfrwt>
<totfact> 0.15256473E+00</totfact>
</mgrwt>
</event>
<event>
12    1  0.4802930E-008  0.2501506E+04  0.7818608E-02  0.8402449E-01
         -1   -1    0    0    0  501 -0.00000000000E+00  0.00000000000E+00  0.50618104989E+03  0.50618104989E+03  0.00000000000E+00 0.  1.
          1   -1    0    0  501    0  0.00000000000E+00 -0.00000000000E+00 -0.30905596721E+04  0.30905596721E+04  0.00000000000E+00 0. -1.
         23    2    1    2    0    0  0.89540153727E+02 -0.10749472474E+04 -0.13563850666E+04  0.17353295245E+04  0.89772413417E+02 0.  0.
        254    2    1    2    0    0 -0.89540153727E+02  0.10749472474E+04 -0.12279935556E+04  0.18614111974E+04  0.89070446809E+03 0.  0.
         23    2    4    4    0    0  0.10323433019E+03  0.22535555513E+02 -0.60225932802E+03  0.61860360776E+03  0.93749384834E+02 0.  0.
         23    2    4    4    0    0 -0.19277448392E+03  0.10524116918E+04 -0.62573422757E+03  0.12428075896E+04  0.91076948261E+02 0.  0.
         11    1    3    3    0    0  0.79706847309E+02 -0.94186572960E+03 -0.12326377930E+04  0.15533383929E+04  0.00000000000E+00 0. -1.
        -11    1    3    3    0    0  0.98333064183E+01 -0.13308151775E+03 -0.12374727356E+03  0.18199113164E+03  0.00000000000E+00 0.  1.
          3    1    5    5  502    0 -0.31953122688E+01  0.27771172963E+02 -0.63096276630E+02  0.69011507684E+02  0.00000000000E+00 0. -1.
          3    1    6    6  503    0 -0.59663166199E+01  0.90261157822E+02 -0.27519271156E+02  0.94551487721E+02  0.00000000000E+00 0. -1.
         -3    1    5    5    0  502  0.10642964246E+03 -0.52356174493E+01 -0.53916305139E+03  0.54959210008E+03  0.00000000000E+00 0.  1.
         -3    1    6    6    0  503 -0.18680816730E+03  0.96215053402E+03 -0.59821495642E+03  0.11482561019E+04  0.00000000000E+00 0.  1.
<mgrwt>
<rscale>  0 0.25015057E+04</rscale>
<asrwt>0</asrwt>
<pdfrwt beam="1">  1        1 0.47547071E+00 0.25015057E+04</pdfrwt>
<pdfrwt beam="2">  1       -1 0.77874009E-01 0.25015057E+04</pdfrwt>
<totfact> 0.75253740E-01</totfact>
</mgrwt>
</event>
<event>
12    1  0.4802930E-008  0.1680954E+04  0.7818608E-02  0.8772302E-01
          2   -1    0    0  501    0  0.00000000000E+00  0.00000000000E+00  0.17948454620E+04  0.17948454620E+04  0.00000000000E+00 0. -1.
         -2   -1    0    0    0  501 -0.00000000000E+00 -0.00000000000E+00 -0.39357237323E+03  0.39357237323E+03  0.00000000000E+00 0.  1.
         23    2    1    2    0    0  0.41865434176E+03  0.19632128962E+03  0.89527971774E+01  0.47144997236E+03  0.91495449226E+02 0.  0.
        254    2    1    2    0    0 -0.41865434176E+03 -0.19632128962E+03  0.13923202916E+04  0.17169678628E+04  0.89196936108E+03 0.  0.
         23    2    4    4    0    0  0.94914357264E+02 -0.41656882432E+03  0.55700257077E+03  0.70782565381E+03  0.90702655607E+02 0.  0.
         23    2    4    4    0    0 -0.51356869902E+03  0.22024753470E+03  0.83531772079E+03  0.10091422090E+04  0.91381170013E+02 0.  0.
         11    1    3    3    0    0  0.32554449262E+03  0.17326286495E+03  0.39232478518E+02  0.37086173221E+03  0.00000000000E+00 0. -1.
        -11    1    3    3    0    0  0.93109849136E+02  0.23058424675E+02 -0.30279681341E+02  0.10058824015E+03  0.00000000000E+00 0.  1.
          4    1    5    5  502    0  0.28524045470E+02 -0.30064095798E+03  0.36156707934E+03  0.47109379072E+03  0.00000000000E+00 0. -1.
          3    1    6    6  503    0 -0.42876162111E+03  0.19756029341E+03  0.75328523214E+03  0.88899113507E+03  0.00000000000E+00 0. -1.
         -4    1    5    5    0  502  0.66390311794E+02 -0.11592786634E+03  0.19543549143E+03  0.23673186310E+03  0.00000000000E+00 0.  1.
         -3    1    6    6    0  503 -0.84807077912E+02  0.22687241285E+02  0.82032488653E+02  0.12015107397E+03  0.00000000000E+00 0.  1.
<mgrwt>
<rscale>  0 0.16809540E+04</rscale>
<asrwt>0</asrwt>
<pdfrwt beam="1">  1        2 0.27613007E+00 0.16809540E+04</pdfrwt>
<pdfrwt beam="2">  1       -2 0.60549597E-01 0.16809540E+04</pdfrwt>
<totfact> 0.21025712E+01</totfact>
</mgrwt>
</event>
<event>
12    1  0.4802930E-008  0.1680569E+04  0.7818608E-02  0.8772525E-01
         -2   -1    0    0    0  501 -0.00000000000E+00  0.00000000000E+00  0.19046333796E+03  0.19046333796E+03  0.00000000000E+00 0.  1.
          2   -1    0    0  501    0  0.00000000000E+00 -0.00000000000E+00 -0.37071607055E+04  0.37071607055E+04  0.00000000000E+00 0. -1.
         23    2    1    2    0    0  0.32743719810E+03  0.29954489823E+03 -0.21797655702E+04  0.22263874277E+04  0.92091108596E+02 0.  0.
        254    2    1    2    0    0 -0.32743719810E+03 -0.29954489823E+03 -0.13369317973E+04  0.16712366158E+04  0.89927911711E+03 0.  0.
         23    2    4    4    0    0  0.13644329578E+03 -0.43635500139E+03 -0.40332297855E+03  0.61583856243E+03  0.86978444116E+02 0.  0.
         23    2    4    4    0    0 -0.46388049388E+03  0.13681010317E+03 -0.93360881878E+03  0.10553980534E+04  0.91309953402E+02 0.  0.
         11    1    3    3    0    0  0.21139174012E+03  0.24904029030E+03 -0.15793483595E+04  0.16127767280E+04  0.00000000000E+00 0. -1.
        -11    1    3    3    0    0  0.11604545797E+03  0.50504607923E+02 -0.60041721076E+03  0.61361069964E+03  0.00000000000E+00 0.  1.
          1    1    5    5  502    0 -0.61406478195E+01 -0.97952250024E+02 -0.82192986558E+02  0.12801577200E+03  0.00000000000E+00 0. -1.
          3    1    6    6  503    0 -0.10558097258E+03  0.21721610686E+02 -0.13659175129E+03  0.17400136971E+03  0.00000000000E+00 0. -1.
         -1    1    5    5    0  502  0.14258394360E+03 -0.33840275137E+03 -0.32112999199E+03  0.48782279043E+03  0.00000000000E+00 0.  1.
         -3    1    6    6    0  503 -0.35829952130E+03  0.11508849248E+03 -0.79701706749E+03  0.88139668364E+03  0.00000000000E+00 0.  1.
<mgrwt>
<rscale>  0 0.16805692E+04</rscale>
<asrwt>0</asrwt>
<pdfrwt beam="1">  1        2 0.57033240E+00 0.16805692E+04</pdfrwt>
<pdfrwt beam="2">  1       -2 0.29302053E-01 0.16805692E+04</pdfrwt>
<totfact> 0.59656694E+00</totfact>
</mgrwt>
</event>
<event>
12    1  0.4802930E-008  0.1146970E+04  0.7818608E-02  0.9160583E-01
          2   -1    0    0  501    0  0.00000000000E+00  0.00000000000E+00  0.32614063751E+04  0.32614063751E+04  0.00000000000E+00 0.  1.
         -2   -1    0    0    0  501 -0.00000000000E+00 -0.00000000000E+00 -0.10084150398E+03  0.10084150398E+03  0.00000000000E+00 0. -1.
         23    2    1    2    0    0  0.13458704111E+03  0.96745569247E+02  0.99778403537E+03  0.10155937611E+04  0.91565984808E+02 0.  0.
        254    2    1    2    0    0 -0.13458704111E+03 -0.96745569247E+02  0.21627808357E+04  0.23466541179E+04  0.89537211766E+03 0.  0.
         23    2    4    4    0    0 -0.42179464112E+03 -0.28701303978E+03  0.94571274420E+03  0.10784481538E+04  0.91600335716E+02 0.  0.
         23    2    4    4    0    0  0.28720760001E+03  0.19026747053E+03  0.12170680915E+04  0.12682059642E+04  0.91660855150E+02 0.  0.
         11    1    3    3    0    0  0.40994106334E+01  0.21440107733E+02  0.34329764884E+03  0.34399092879E+03  0.00000000000E+00 0. -1.
        -11    1    3    3    0    0  0.13048763048E+03  0.75305461514E+02  0.65448638652E+03  0.67160283232E+03  0.00000000000E+00 0.  1.
          2    1    5    5  502    0 -0.13889624481E+03 -0.13082240511E+03  0.28547840307E+03  0.34337237385E+03  0.00000000000E+00 0. -1.
          3    1    6    6  503    0  0.94046044224E+02  0.16368266717E+02  0.28393604959E+03  0.29955343238E+03  0.00000000000E+00 0.  1.
         -2    1    5    5    0  502 -0.28289839631E+03 -0.15619063467E+03  0.66023434113E+03  0.73507577991E+03  0.00000000000E+00 0.  1.
         -3    1    6    6    0  503  0.19316155578E+03  0.17389920381E+03  0.93313204193E+03  0.96865253181E+03  0.00000000000E+00 0. -1.
<mgrwt>
<rscale>  0 0.11469701E+04</rscale>
<asrwt>0</asrwt>
<pdfrwt beam="1">  1        2 0.50175475E+00 0.11469701E+04</pdfrwt>
<pdfrwt beam="2">  1       -2 0.15514080E-01 0.11469701E+04</pdfrwt>
<totfact> 0.39684089E+01</totfact>
</mgrwt>
</event>
<event>
12    1  0.4802930E-008  0.2891720E+04  0.7818608E-02  0.8275345E-01
          2   -1    0    0  501    0  0.00000000000E+00  0.00000000000E+00  0.24639392451E+04  0.24639392451E+04  0.00000000000E+00 0.  1.
         -2   -1    0    0    0  501 -0.00000000000E+00 -0.00000000000E+00 -0.84844259131E+03  0.84844259131E+03  0.00000000000E+00 0. -1.
         23    2    1    2    0    0  0.71438084533E+03  0.69533692350E+03  0.16906136517E+04  0.19647468939E+04  0.90677497144E+02 0.  0.
        254    2    1    2    0    0 -0.71438084533E+03 -0.69533692350E+03 -0.75116997833E+02  0.13476349426E+04  0.90368354288E+03 0.  0.
         23    2    4    4    0    0 -0.17081168617E+03 -0.70971783227E+03 -0.23688442879E+03  0.77301416108E+03  0.92523656677E+02 0.  0.
         23    2    4    4    0    0 -0.54356915916E+03  0.14380908764E+02  0.16176743096E+03  0.57462078148E+03  0.91356989146E+02 0.  0.
         11    1    3    3    0    0  0.37350226554E+03  0.30076701065E+03  0.82036372555E+03  0.95024280016E+03  0.00000000000E+00 0. -1.
        -11    1    3    3    0    0  0.34087857979E+03  0.39456991285E+03  0.87024992611E+03  0.10145040937E+04  0.00000000000E+00 0.  1.
          2    1    5    5  502    0 -0.17018493126E+03 -0.58683826474E+03 -0.17590113221E+03  0.63583273595E+03  0.00000000000E+00 0. -1.
          1    1    6    6  503    0 -0.51581599755E+03  0.16303818986E+02  0.17345830183E+03  0.54444443272E+03  0.00000000000E+00 0. -1.
         -2    1    5    5    0  502 -0.62675491304E+00 -0.12287956753E+03 -0.60983296582E+02  0.13718142513E+03  0.00000000000E+00 0.  1.
         -1    1    6    6    0  503 -0.27753161607E+02 -0.19229102217E+01 -0.11690870872E+02  0.30176348763E+02  0.00000000000E+00 0.  1.
<mgrwt>
<rscale>  0 0.28917199E+04</rscale>
<asrwt>0</asrwt>
<pdfrwt beam="1">  1        2 0.37906757E+00 0.28917199E+04</pdfrwt>
<pdfrwt beam="2">  1       -2 0.13052963E+00 0.28917199E+04</pdfrwt>
<totfact> 0.13556787E+00</totfact>
</mgrwt>
</event>
<event>
12    1  0.4802930E-008  0.3026185E+04  0.7818608E-02  0.8236293E-01
          2   -1    0    0  501    0  0.00000000000E+00  0.00000000000E+00  0.14634514994E+04  0.14634514994E+04  0.00000000000E+00 0.  1.
         -2   -1    0    0    0  501 -0.00000000000E+00 -0.00000000000E+00 -0.15644175024E+04  0.15644175024E+04  0.00000000000E+00 0. -1.
         23    2    1    2    0    0  0.10889991827E+03  0.13141953803E+04 -0.27566608386E+03  0.13500172866E+04  0.87098763169E+02 0.  0.
        254    2    1    2    0    0 -0.10889991827E+03 -0.13141953803E+04  0.17470008081E+03  0.16778517151E+04  0.10225935507E+04 0.  0.
         23    2    4    4    0    0 -0.21980548059E+03 -0.32770305234E+03 -0.36405727833E+03  0.54474376982E+03  0.92218940777E+02 0.  0.
         23    2    4    4    0    0  0.11090556232E+03 -0.98649232796E+03  0.53875735914E+03  0.11331079453E+04  0.90592311292E+02 0.  0.
         13    1    3    3    0    0  0.57058617342E+02  0.91831637756E+03 -0.22805827270E+03  0.94792997149E+03  0.00000000000E+00 0. -1.
        -13    1    3    3    0    0  0.51841300925E+02  0.39587900274E+03 -0.47607811163E+02  0.40208731512E+03  0.00000000000E+00 0.  1.
          1    1    5    5  502    0  0.11932342905E+01 -0.50375742489E+02 -0.51405582967E+02  0.71983839850E+02  0.00000000000E+00 0. -1.
          3    1    6    6  503    0  0.64440061948E+02 -0.47819557322E+03  0.21183439991E+03  0.52696996197E+03  0.00000000000E+00 0. -1.
         -1    1    5    5    0  502 -0.22099871488E+03 -0.27732730985E+03 -0.31265169536E+03  0.47275992997E+03  0.00000000000E+00 0.  1.
         -3    1    6    6    0  503  0.46465500376E+02 -0.50829675475E+03  0.32692295922E+03  0.60613798336E+03  0.00000000000E+00 0.  1.
<mgrwt>
<rscale>  0 0.30261851E+04</rscale>
<asrwt>0</asrwt>
<pdfrwt beam="1">  1        2 0.22514638E+00 0.30261851E+04</pdfrwt>
<pdfrwt beam="2">  1       -2 0.24067962E+00 0.30261851E+04</pdfrwt>
<totfact> 0.83431022E-01</totfact>
</mgrwt>
</event>
<event>
12    1  0.4802930E-008  0.1575762E+04  0.7818608E-02  0.8835578E-01
         -2   -1    0    0    0  501 -0.00000000000E+00  0.00000000000E+00  0.10091549973E+04  0.10091549973E+04  0.00000000000E+00 0.  1.
          2   -1    0    0  501    0  0.00000000000E+00 -0.00000000000E+00 -0.61512523135E+03  0.61512523135E+03  0.00000000000E+00 0. -1.
         23    2    1    2    0    0  0.18503986329E+03  0.54285188639E+02  0.63509609694E+03  0.67054750089E+03  0.95395313769E+02 0.  0.
        254    2    1    2    0    0 -0.18503986329E+03 -0.54285188639E+02 -0.24106633096E+03  0.95373272778E+03  0.90238933249E+03 0.  0.
         23    2    4    4    0    0 -0.40816565041E+03  0.27905930925E+03 -0.20347226149E+03  0.54234153286E+03  0.90884986757E+02 0.  0.
         23    2    4    4    0    0  0.22312578712E+03 -0.33334449789E+03 -0.37594069476E+02  0.41139119492E+03  0.83220971181E+02 0.  0.
         11    1    3    3    0    0  0.12383547900E+03  0.69670458261E+02  0.52246156040E+03  0.54143815963E+03  0.00000000000E+00 0.  1.
        -11    1    3    3    0    0  0.61204384289E+02 -0.15385269622E+02  0.11263453654E+03  0.12910934125E+03  0.00000000000E+00 0. -1.
          2    1    5    5  502    0 -0.45588089949E+02  0.60807306287E+02 -0.55164519973E+02  0.93909140699E+02  0.00000000000E+00 0. -1.
          1    1    6    6  503    0  0.99677389391E+02 -0.22203799393E+03 -0.18716491254E+02  0.24410399372E+03  0.00000000000E+00 0. -1.
         -2    1    5    5    0  502 -0.36257756046E+03  0.21825200296E+03 -0.14830774152E+03  0.44843239216E+03  0.00000000000E+00 0.  1.
         -1    1    6    6    0  503  0.12344839773E+03 -0.11130650396E+03 -0.18877578222E+02  0.16728720120E+03  0.00000000000E+00 0.  1.
<mgrwt>
<rscale>  0 0.15757623E+04</rscale>
<asrwt>0</asrwt>
<pdfrwt beam="1">  1        2 0.94634652E-01 0.15757623E+04</pdfrwt>
<pdfrwt beam="2">  1       -2 0.15525461E+00 0.15757623E+04</pdfrwt>
<totfact> 0.12624677E+01</totfact>
</mgrwt>
</event>
<event>
12    1  0.4802930E-008  0.2010249E+04  0.7818608E-02  0.8601844E-01
         -1   -1    0    0    0  501 -0.00000000000E+00  0.00000000000E+00  0.13351072264E+04  0.13351072264E+04  0.00000000000E+00 0.  1.
          1   -1    0    0  501    0  0.00000000000E+00 -0.00000000000E+00 -0.75669990903E+03  0.75669990903E+03  0.00000000000E+00 0. -1.
         23    2    1    2    0    0 -0.16866879636E+03 -0.16131582790E+02 -0.57038392644E+03  0.60201298668E+03  0.91500938589E+02 0.  0.
        254    2    1    2    0    0  0.16866879636E+03  0.16131582790E+02  0.11487912438E+04  0.14897941487E+04  0.93330375171E+03 0.  0.
         23    2    4    4    0    0  0.45400784781E+03 -0.15640953971E+03  0.30078595871E+03  0.57389228304E+03  0.91066402113E+02 0.  0.
         23    2    4    4    0    0 -0.28533905145E+03  0.17254112250E+03  0.84800528505E+03  0.91590186567E+03  0.92598330523E+02 0.  0.
         13    1    3    3    0    0 -0.15271539193E+03 -0.17444367009E+02 -0.56434723711E+03  0.58490520677E+03  0.00000000000E+00 0. -1.
        -13    1    3    3    0    0 -0.15953404428E+02  0.13127842190E+01 -0.60366893229E+01  0.17107779904E+02  0.00000000000E+00 0.  1.
          2    1    6    6  502    0 -0.25900589392E+03  0.16615797344E+03  0.68886945770E+03  0.75447574843E+03  0.00000000000E+00 0. -1.
          2    1    5    5  503    0  0.25304544868E+03 -0.13387504614E+03  0.18536991961E+03  0.34105209891E+03  0.00000000000E+00 0. -1.
         -2    1    5    5    0  503  0.20096239913E+03 -0.22534493573E+02  0.11541603910E+03  0.23284018413E+03  0.00000000000E+00 0.  1.
         -2    1    6    6    0  502 -0.26333157535E+02  0.63831490601E+01  0.15913582735E+03  0.16142611723E+03  0.00000000000E+00 0.  1.
<mgrwt>
<rscale>  0 0.20102493E+04</rscale>
<asrwt>0</asrwt>
<pdfrwt beam="1">  1        1 0.11641537E+00 0.20102493E+04</pdfrwt>
<pdfrwt beam="2">  1       -1 0.20540111E+00 0.20102493E+04</pdfrwt>
<totfact> 0.30928942E+00</totfact>
</mgrwt>
</event>
<event>
12    1  0.4802930E-008  0.1578074E+04  0.7818608E-02  0.8834133E-01
         -2   -1    0    0    0  501 -0.00000000000E+00  0.00000000000E+00  0.21450784233E+03  0.21450784233E+03  0.00000000000E+00 0.  1.
          2   -1    0    0  501    0  0.00000000000E+00 -0.00000000000E+00 -0.29023601468E+04  0.29023601468E+04  0.00000000000E+00 0. -1.
         23    2    1    2    0    0 -0.92614399895E+02 -0.47066942591E+03 -0.47956138859E+03  0.68617359838E+03  0.10367230168E+03 0.  0.
        254    2    1    2    0    0  0.92614399895E+02  0.47066942591E+03 -0.22082909159E+04  0.24306943907E+04  0.89533195881E+03 0.  0.
         23    2    4    4    0    0 -0.23145374275E+03  0.54043556565E+03 -0.90469864715E+03  0.10825497013E+04  0.88276712282E+02 0.  0.
         23    2    4    4    0    0  0.32406814264E+03 -0.69766139740E+02 -0.13035922687E+04  0.13481446894E+04  0.90850565838E+02 0.  0.
         11    1    3    3    0    0 -0.70636928142E+01  0.20358666381E+01  0.53388399833E-01  0.73514188741E+01  0.00000000000E+00 0. -1.
        -11    1    3    3    0    0 -0.85550707080E+02 -0.47270529254E+03 -0.47961477699E+03  0.67882217950E+03  0.00000000000E+00 0.  1.
          4    1    5    5  502    0 -0.18926819131E+03  0.45399331459E+03 -0.69080184696E+03  0.84802097244E+03  0.00000000000E+00 0. -1.
          4    1    6    6  503    0  0.19238430695E+03 -0.84326432390E+02 -0.74409699751E+03  0.77317721802E+03  0.00000000000E+00 0.  1.
         -4    1    5    5    0  502 -0.42185551439E+02  0.86442251053E+02 -0.21389680020E+03  0.23452872884E+03  0.00000000000E+00 0.  1.
         -4    1    6    6    0  503  0.13168383569E+03  0.14560292650E+02 -0.55949527119E+03  0.57496747142E+03  0.00000000000E+00 0. -1.
<mgrwt>
<rscale>  0 0.15780735E+04</rscale>
<asrwt>0</asrwt>
<pdfrwt beam="1">  1        2 0.44651692E+00 0.15780735E+04</pdfrwt>
<pdfrwt beam="2">  1       -2 0.33001208E-01 0.15780735E+04</pdfrwt>
<totfact> 0.16569843E+01</totfact>
</mgrwt>
</event>
<event>
12    1  0.4802930E-008  0.1128956E+04  0.7818608E-02  0.9177420E-01
          4   -1    0    0  501    0  0.00000000000E+00  0.00000000000E+00  0.47347887595E+03  0.47347887595E+03  0.00000000000E+00 0. -1.
         -4   -1    0    0    0  501 -0.00000000000E+00 -0.00000000000E+00 -0.67296680663E+03  0.67296680663E+03  0.00000000000E+00 0.  1.
         23    2    1    2    0    0  0.11233501190E+02 -0.17129012578E+03  0.71233048245E+02  0.20667841732E+03  0.90417488830E+02 0.  0.
        254    2    1    2    0    0 -0.11233501190E+02  0.17129012578E+03 -0.27072097892E+03  0.93976726526E+03  0.88340600275E+03 0.  0.
         23    2    4    4    0    0 -0.68101549236E+02  0.17613287020E+03  0.29620305710E+03  0.36280935424E+03  0.90740109743E+02 0.  0.
         23    2    4    4    0    0  0.56868048046E+02 -0.48427444241E+01 -0.56692403602E+03  0.57695791102E+03  0.90664995487E+02 0.  0.
         11    1    3    3    0    0 -0.85149519809E+01 -0.16631817218E+03  0.43233661035E+02  0.17205635197E+03  0.00000000000E+00 0. -1.
        -11    1    3    3    0    0  0.19748453171E+02 -0.49719535932E+01  0.27999387211E+02  0.34622065354E+02  0.00000000000E+00 0.  1.
          4    1    5    5  502    0 -0.22899942359E+02  0.17712882508E+02  0.67022105255E+01  0.29716547456E+02  0.00000000000E+00 0.  1.
          1    1    6    6  503    0  0.64950981741E+02  0.17757058364E+02 -0.51909911331E+03  0.52344802281E+03  0.00000000000E+00 0. -1.
         -4    1    5    5    0  502 -0.45201606877E+02  0.15841998769E+03  0.28950084657E+03  0.33309280678E+03  0.00000000000E+00 0. -1.
         -1    1    6    6    0  503 -0.80829336954E+01 -0.22599802788E+02 -0.47824922716E+02  0.53509888208E+02  0.00000000000E+00 0.  1.
<mgrwt>
<rscale>  0 0.11289563E+04</rscale>
<asrwt>0</asrwt>
<pdfrwt beam="1">  1        4 0.72842905E-01 0.11289563E+04</pdfrwt>
<pdfrwt beam="2">  1       -4 0.10353335E+00 0.11289563E+04</pdfrwt>
<totfact> 0.25700928E+00</totfact>
</mgrwt>
</event>
<event>
12    1  0.5892451E-008  0.1677017E+04  0.7818608E-02  0.8774582E-01
          2   -1    0    0  501    0  0.00000000000E+00  0.00000000000E+00  0.18784514353E+04  0.18784514353E+04  0.00000000000E+00 0.  1.
         -2   -1    0    0    0  501 -0.00000000000E+00 -0.00000000000E+00 -0.37429573803E+03  0.37429573803E+03  0.00000000000E+00 0. -1.
         23    2    1    2    0    0 -0.47374813629E+03 -0.24315953260E+03  0.87952292929E+03  0.10323986765E+04  0.93394802399E+02 0.  0.
        254    2    1    2    0    0  0.47374813629E+03  0.24315953260E+03  0.62463276799E+03  0.12203484968E+04  0.90306173874E+03 0.  0.
         23    2    4    4    0    0 -0.82242167634E+02 -0.94276606347E+02  0.53554657178E+03  0.55762383539E+03  0.92099720984E+02 0.  0.
         23    2    4    4    0    0  0.55599030393E+03  0.33743613895E+03  0.89086196207E+02  0.66272466146E+03  0.90990442501E+02 0.  0.
         11    1    3    3    0    0 -0.31534491844E+03 -0.19681906343E+03  0.66362557802E+03  0.76064385169E+03  0.00000000000E+00 0.  1.
        -11    1    3    3    0    0 -0.15840321786E+03 -0.46340469169E+02  0.21589735127E+03  0.27175482479E+03  0.00000000000E+00 0. -1.
          1    1    5    5  502    0 -0.10051695240E+03 -0.66919557785E+02  0.45144669134E+03  0.46731787902E+03  0.00000000000E+00 0. -1.
          1    1    6    6  503    0  0.48277359901E+03  0.25376331548E+03  0.69211111190E+02  0.54977845183E+03  0.00000000000E+00 0. -1.
         -1    1    5    5    0  502  0.18274784771E+02 -0.27357048562E+02  0.84099880439E+02  0.90305956361E+02  0.00000000000E+00 0.  1.
         -1    1    6    6    0  503  0.73216704919E+02  0.83672823466E+02  0.19875085017E+02  0.11294620963E+03  0.00000000000E+00 0.  1.
<mgrwt>
<rscale>  0 0.16770168E+04</rscale>
<asrwt>0</asrwt>
<pdfrwt beam="1">  1        2 0.28899252E+00 0.16770168E+04</pdfrwt>
<pdfrwt beam="2">  1       -2 0.57583961E-01 0.16770168E+04</pdfrwt>
<totfact> 0.21014859E+01</totfact>
</mgrwt>
</event>
<event>
12    1  0.4802930E-008  0.1877173E+04  0.7818608E-02  0.8666303E-01
          2   -1    0    0  501    0  0.00000000000E+00  0.00000000000E+00  0.13036473248E+04  0.13036473248E+04  0.00000000000E+00 0. -1.
         -2   -1    0    0    0  501 -0.00000000000E+00 -0.00000000000E+00 -0.67575383446E+03  0.67575383446E+03  0.00000000000E+00 0.  1.
         23    2    1    2    0    0 -0.32524984118E+03  0.47224658347E+03 -0.21829202011E+03  0.62063837788E+03  0.93468151085E+02 0.  0.
        254    2    1    2    0    0  0.32524984118E+03 -0.47224658347E+03  0.84618551043E+03  0.13587627814E+04  0.89521063621E+03 0.  0.
         23    2    4    4    0    0  0.10347562326E+03 -0.57389853526E+03  0.14151639871E+03  0.60708086815E+03  0.91943221501E+02 0.  0.
         23    2    4    4    0    0  0.22177421792E+03  0.10165195179E+03  0.70466911172E+03  0.75168191322E+03  0.94605595057E+02 0.  0.
         13    1    3    3    0    0 -0.32993610474E+03  0.47073358752E+03 -0.21210016509E+03  0.61272703846E+03  0.00000000000E+00 0.  1.
        -13    1    3    3    0    0  0.46862635535E+01  0.15129959487E+01 -0.61918550220E+01  0.79113394219E+01  0.00000000000E+00 0. -1.
          4    1    5    5  502    0  0.69765363466E+02 -0.31089044237E+03  0.32106569427E+02  0.32023570209E+03  0.00000000000E+00 0. -1.
          1    1    6    6  503    0  0.22846203024E+03  0.10711324075E+03  0.68961263268E+03  0.73432535620E+03  0.00000000000E+00 0. -1.
         -4    1    5    5    0  502  0.33710259791E+02 -0.26300809290E+03  0.10940982929E+03  0.28684516605E+03  0.00000000000E+00 0.  1.
         -1    1    6    6    0  503 -0.66878123124E+01 -0.54612889625E+01  0.15056479037E+02  0.17356557022E+02  0.00000000000E+00 0.  1.
<mgrwt>
<rscale>  0 0.18771731E+04</rscale>
<asrwt>0</asrwt>
<pdfrwt beam="1">  1        2 0.20056113E+00 0.18771731E+04</pdfrwt>
<pdfrwt beam="2">  1       -2 0.10396213E+00 0.18771731E+04</pdfrwt>
<totfact> 0.11621849E+01</totfact>
</mgrwt>
</event>
<event>
12    1  0.4802930E-008  0.2088489E+04  0.7818608E-02  0.8566331E-01
          2   -1    0    0  501    0  0.00000000000E+00  0.00000000000E+00  0.13922451447E+04  0.13922451447E+04  0.00000000000E+00 0. -1.
         -2   -1    0    0    0  501 -0.00000000000E+00 -0.00000000000E+00 -0.78322866620E+03  0.78322866620E+03  0.00000000000E+00 0.  1.
         23    2    1    2    0    0 -0.16710487588E+03  0.32656724341E+03  0.10474991318E+04  0.11134865978E+04  0.89597813614E+02 0.  0.
        254    2    1    2    0    0  0.16710487588E+03 -0.32656724341E+03 -0.43848265337E+03  0.10619872131E+04  0.89497463620E+03 0.  0.
         23    2    4    4    0    0  0.47106243736E+03 -0.15375627382E+03 -0.13274194251E+02  0.50354384975E+03  0.88540345378E+02 0.  0.
         23    2    4    4    0    0 -0.30395756148E+03 -0.17281096959E+03 -0.42520845912E+03  0.55844336333E+03  0.93823909259E+02 0.  0.
         11    1    3    3    0    0 -0.12248613631E+03  0.26549388290E+03  0.71459546732E+03  0.77209878731E+03  0.00000000000E+00 0. -1.
        -11    1    3    3    0    0 -0.44618739571E+02  0.61073360511E+02  0.33290366452E+03  0.34138781047E+03  0.00000000000E+00 0.  1.
          4    1    5    5  502    0  0.27847879260E+03 -0.44796556720E+02 -0.43097047972E+01  0.28209172795E+03  0.00000000000E+00 0. -1.
          3    1    6    6  503    0 -0.32075991266E+01  0.13719555178E+01  0.45532166824E+01  0.57360906772E+01  0.00000000000E+00 0. -1.
         -4    1    5    5    0  502  0.19258364476E+03 -0.10895971710E+03 -0.89644894540E+01  0.22145212181E+03  0.00000000000E+00 0.  1.
         -3    1    6    6    0  503 -0.30074996236E+03 -0.17418292511E+03 -0.42976167581E+03  0.55270727266E+03  0.00000000000E+00 0.  1.
<mgrwt>
<rscale>  0 0.20884887E+04</rscale>
<asrwt>0</asrwt>
<pdfrwt beam="1">  1        2 0.21419156E+00 0.20884887E+04</pdfrwt>
<pdfrwt beam="2">  1       -2 0.12049672E+00 0.20884887E+04</pdfrwt>
<totfact> 0.70887344E+00</totfact>
</mgrwt>
</event>
<event>
12    1  0.4802930E-008  0.1689103E+04  0.7818608E-02  0.8767604E-01
          2   -1    0    0  501    0  0.00000000000E+00  0.00000000000E+00  0.37318022204E+04  0.37318022204E+04  0.00000000000E+00 0. -1.
         -2   -1    0    0    0  501 -0.00000000000E+00 -0.00000000000E+00 -0.19113221047E+03  0.19113221047E+03  0.00000000000E+00 0.  1.
         23    2    1    2    0    0  0.39906215931E+03  0.45029275792E+03  0.12162266550E+04  0.13595620264E+04  0.84778845368E+02 0.  0.
        254    2    1    2    0    0 -0.39906215931E+03 -0.45029275792E+03  0.23244433550E+04  0.25633724045E+04  0.89767867226E+03 0.  0.
         23    2    4    4    0    0 -0.54433941201E+03 -0.12163673819E+03  0.71231690042E+03  0.90900106838E+03  0.88242190266E+02 0.  0.
         23    2    4    4    0    0  0.14527725270E+03 -0.32865601973E+03  0.16121264546E+04  0.16543713361E+04  0.94194228588E+02 0.  0.
         11    1    3    3    0    0  0.35341062749E+03  0.43205242313E+03  0.11061332631E+04  0.12389911879E+04  0.00000000000E+00 0. -1.
        -11    1    3    3    0    0  0.45651531819E+02  0.18240334792E+02  0.11009339184E+03  0.12057083851E+03  0.00000000000E+00 0.  1.
          2    1    5    5  502    0 -0.50718949304E+03 -0.94966172945E+02  0.67695445255E+03  0.85119156873E+03  0.00000000000E+00 0. -1.
          3    1    6    6  503    0  0.29628069975E+02 -0.14536343461E+03  0.51004535504E+03  0.53118228025E+03  0.00000000000E+00 0. -1.
         -2    1    5    5    0  502 -0.37149918975E+02 -0.26670565244E+02  0.35362447874E+02  0.57809499651E+02  0.00000000000E+00 0.  1.
         -3    1    6    6    0  503  0.11564918273E+03 -0.18329258513E+03  0.11020810996E+04  0.11231890559E+04  0.00000000000E+00 0.  1.
<mgrwt>
<rscale>  0 0.16891034E+04</rscale>
<asrwt>0</asrwt>
<pdfrwt beam="1">  1        2 0.57412337E+00 0.16891034E+04</pdfrwt>
<pdfrwt beam="2">  1       -2 0.29404958E-01 0.16891034E+04</pdfrwt>
<totfact> 0.56792623E+00</totfact>
</mgrwt>
</event>
<event>
12    1  0.4802930E-008  0.1210679E+04  0.7818608E-02  0.9103560E-01
         -1   -1    0    0    0  501 -0.00000000000E+00  0.00000000000E+00  0.17088753496E+03  0.17088753496E+03  0.00000000000E+00 0.  1.
          1   -1    0    0  501    0  0.00000000000E+00 -0.00000000000E+00 -0.21443120287E+04  0.21443120287E+04  0.00000000000E+00 0. -1.
         23    2    1    2    0    0 -0.22639233205E+03 -0.97245824585E+02 -0.36409223116E+03  0.44890489070E+03  0.90786616278E+02 0.  0.
        254    2    1    2    0    0  0.22639233205E+03  0.97245824585E+02 -0.16093322625E+04  0.18662946729E+04  0.91235696770E+03 0.  0.
         23    2    4    4    0    0 -0.15043682279E+03 -0.20247523605E+03 -0.11923578715E+04  0.12224122424E+04  0.94588253695E+02 0.  0.
         23    2    4    4    0    0  0.37682915483E+03  0.29972106063E+03 -0.41697439103E+03  0.64388243053E+03  0.94255055290E+02 0.  0.
         11    1    3    3    0    0 -0.10544940347E+03 -0.41638665787E+02 -0.92030597075E+02  0.14602392262E+03  0.00000000000E+00 0. -1.
        -11    1    3    3    0    0 -0.12094292858E+03 -0.55607158798E+02 -0.27206163408E+03  0.30288096808E+03  0.00000000000E+00 0.  1.
          2    1    5    5  502    0 -0.29765122879E+02 -0.29049167448E+02 -0.79979590652E+02  0.90147388150E+02  0.00000000000E+00 0.  1.
          3    1    6    6  503    0  0.24787662124E+03  0.23740154695E+03 -0.25444036879E+03  0.42724959347E+03  0.00000000000E+00 0. -1.
         -2    1    5    5    0  502 -0.12067169991E+03 -0.17342606860E+03 -0.11123782809E+04  0.11322648542E+04  0.00000000000E+00 0. -1.
         -3    1    6    6    0  503  0.12895253359E+03  0.62319513686E+02 -0.16253402224E+03  0.21663283705E+03  0.00000000000E+00 0.  1.
<mgrwt>
<rscale>  0 0.12106795E+04</rscale>
<asrwt>0</asrwt>
<pdfrwt beam="1">  1        1 0.32989417E+00 0.12106795E+04</pdfrwt>
<pdfrwt beam="2">  1       -1 0.26290389E-01 0.12106795E+04</pdfrwt>
<totfact> 0.30284646E+01</totfact>
</mgrwt>
</event>
<event>
12    1  0.4802930E-008  0.1977964E+04  0.7818608E-02  0.8616993E-01
          2   -1    0    0  501    0  0.00000000000E+00  0.00000000000E+00  0.41489423464E+03  0.41489423464E+03  0.00000000000E+00 0. -1.
         -2   -1    0    0    0  501 -0.00000000000E+00 -0.00000000000E+00 -0.23574334274E+04  0.23574334274E+04  0.00000000000E+00 0.  1.
         23    2    1    2    0    0  0.23422417127E+03  0.42934368221E+03  0.78794552397E+02  0.50374696860E+03  0.91408243772E+02 0.  0.
        254    2    1    2    0    0 -0.23422417127E+03 -0.42934368221E+03 -0.20213337451E+04  0.22685806934E+04  0.90635053566E+03 0.  0.
         23    2    4    4    0    0  0.33183103747E+03 -0.88737132843E+02 -0.82910398599E+03  0.90225410655E+03  0.93074900136E+02 0.  0.
         23    2    4    4    0    0 -0.56605520873E+03 -0.34060654937E+03 -0.11922297591E+04  0.13663265869E+04  0.94895851258E+02 0.  0.
         11    1    3    3    0    0  0.14130473557E+03  0.19200057847E+03  0.51950034571E+01  0.23844965609E+03  0.00000000000E+00 0. -1.
        -11    1    3    3    0    0  0.92919435694E+02  0.23734310374E+03  0.73599548940E+02  0.26529731251E+03  0.00000000000E+00 0.  1.
          2    1    5    5  502    0  0.19432759468E+03 -0.92762652240E+02 -0.44750672611E+03  0.49661896220E+03  0.00000000000E+00 0. -1.
          2    1    6    6  503    0 -0.12115758109E+03 -0.30022853925E+02 -0.22082209851E+03  0.25365908302E+03  0.00000000000E+00 0. -1.
         -2    1    5    5    0  502  0.13750344279E+03  0.40255193971E+01 -0.38159725988E+03  0.40563514435E+03  0.00000000000E+00 0.  1.
         -2    1    6    6    0  503 -0.44489762765E+03 -0.31058369544E+03 -0.97140766064E+03  0.11126675038E+04  0.00000000000E+00 0.  1.
<mgrwt>
<rscale>  0 0.19779641E+04</rscale>
<asrwt>0</asrwt>
<pdfrwt beam="1">  1        2 0.63829883E-01 0.19779641E+04</pdfrwt>
<pdfrwt beam="2">  1       -2 0.36268206E+00 0.19779641E+04</pdfrwt>
<totfact> 0.92064494E-01</totfact>
</mgrwt>
</event>
<event>
12    1  0.4802930E-008  0.1362296E+04  0.7818608E-02  0.8981572E-01
         -2   -1    0    0    0  501 -0.00000000000E+00  0.00000000000E+00  0.15312462339E+04  0.15312462339E+04  0.00000000000E+00 0.  1.
          2   -1    0    0  501    0  0.00000000000E+00 -0.00000000000E+00 -0.30299658998E+03  0.30299658998E+03  0.00000000000E+00 0. -1.
         23    2    1    2    0    0 -0.11068523522E+03  0.29999836750E+03  0.75913822081E+02  0.34070470647E+03  0.89813956772E+02 0.  0.
        254    2    1    2    0    0  0.11068523522E+03 -0.29999836750E+03  0.11523358218E+04  0.14935381174E+04  0.89472231450E+03 0.  0.
         23    2    4    4    0    0 -0.10753431943E+03  0.20604474173E+03  0.42726180432E+02  0.25105138105E+03  0.84753784474E+02 0.  0.
         23    2    4    4    0    0  0.21821955465E+03 -0.50604310923E+03  0.11096096414E+04  0.12424867363E+04  0.94023036016E+02 0.  0.
         13    1    3    3    0    0 -0.81898493192E+02  0.18348661218E+03  0.43683366029E+01  0.20098204497E+03  0.00000000000E+00 0.  1.
        -13    1    3    3    0    0 -0.28786742025E+02  0.11651175532E+03  0.71545485478E+02  0.13972266150E+03  0.00000000000E+00 0. -1.
          1    1    5    5  502    0 -0.10143680745E+03  0.13432637118E+03  0.56920984824E+02  0.17768792422E+03  0.00000000000E+00 0. -1.
          3    1    6    6  503    0  0.15002387558E+03 -0.35109457170E+03  0.66610305122E+03  0.76776808762E+03  0.00000000000E+00 0. -1.
         -1    1    5    5    0  502 -0.60975119856E+01  0.71718370548E+02 -0.14194804392E+02  0.73363456831E+02  0.00000000000E+00 0.  1.
         -3    1    6    6    0  503  0.68195679073E+02 -0.15494853752E+03  0.44350659015E+03  0.47471864871E+03  0.00000000000E+00 0.  1.
<mgrwt>
<rscale>  0 0.13622957E+04</rscale>
<asrwt>0</asrwt>
<pdfrwt beam="1">  1        2 0.46614861E-01 0.13622957E+04</pdfrwt>
<pdfrwt beam="2">  1       -2 0.23557634E+00 0.13622957E+04</pdfrwt>
<totfact> 0.83659609E+00</totfact>
</mgrwt>
</event>
<event>
12    1  0.4802930E-008  0.1004236E+04  0.7818608E-02  0.9303911E-01
          1   -1    0    0  501    0  0.00000000000E+00  0.00000000000E+00  0.13954752654E+04  0.13954752654E+04  0.00000000000E+00 0.  1.
         -1   -1    0    0    0  501 -0.00000000000E+00 -0.00000000000E+00 -0.18067139886E+03  0.18067139886E+03  0.00000000000E+00 0. -1.
         23    2    1    2    0    0 -0.31503637147E+02 -0.73207776231E+02  0.92499812151E+02  0.15160592026E+03  0.89868137604E+02 0.  0.
        254    2    1    2    0    0  0.31503637147E+02  0.73207776231E+02  0.11223040543E+04  0.14245407440E+04  0.87372654941E+03 0.  0.
         23    2    4    4    0    0  0.43992176878E+02 -0.25409132392E+03  0.10366400890E+04  0.10722704371E+04  0.92970445201E+02 0.  0.
         23    2    4    4    0    0 -0.12488539730E+02  0.32729910015E+03  0.85663965391E+02  0.35227030688E+03  0.97341612668E+02 0.  0.
         13    1    3    3    0    0  0.14499185857E+02 -0.61541817499E+02  0.81033262693E+02  0.10278137650E+03  0.00000000000E+00 0. -1.
        -13    1    3    3    0    0 -0.46002823005E+02 -0.11665958732E+02  0.11466549458E+02  0.48824543766E+02  0.00000000000E+00 0.  1.
          4    1    5    5  502    0  0.11354288279E+02  0.49094631968E+01  0.65408924795E+02  0.66568386896E+02  0.00000000000E+00 0. -1.
          3    1    6    6  503    0 -0.41856092509E+02  0.23444635508E+03  0.90487580094E+02  0.25476465226E+03  0.00000000000E+00 0. -1.
         -4    1    5    5    0  502  0.32637888599E+02 -0.25900078712E+03  0.97123116416E+03  0.10057020502E+04  0.00000000000E+00 0.  1.
         -3    1    6    6    0  503  0.29367552778E+02  0.92852745076E+02 -0.48236147030E+01  0.97505654621E+02  0.00000000000E+00 0.  1.
<mgrwt>
<rscale>  0 0.10042360E+04</rscale>
<asrwt>0</asrwt>
<pdfrwt beam="1">  1        1 0.21468850E+00 0.10042360E+04</pdfrwt>
<pdfrwt beam="2">  1       -1 0.27795601E-01 0.10042360E+04</pdfrwt>
<totfact> 0.90416076E+01</totfact>
</mgrwt>
</event>
<event>
12    1  0.4802930E-008  0.1183908E+04  0.7818608E-02  0.9127060E-01
          2   -1    0    0  501    0  0.00000000000E+00  0.00000000000E+00  0.80230311040E+03  0.80230311040E+03  0.00000000000E+00 0. -1.
         -2   -1    0    0    0  501 -0.00000000000E+00 -0.00000000000E+00 -0.43675437349E+03  0.43675437349E+03  0.00000000000E+00 0.  1.
         23    2    1    2    0    0 -0.14163096811E+03  0.11082594903E+03  0.22954925732E+03  0.30611833309E+03  0.93133507467E+02 0.  0.
        254    2    1    2    0    0  0.14163096811E+03 -0.11082594903E+03  0.13599947959E+03  0.93293915081E+03  0.90528331397E+03 0.  0.
         23    2    4    4    0    0  0.49374587589E+03  0.41763366667E+02 -0.29389837121E+02  0.50472352019E+03  0.91394204176E+02 0.  0.
         23    2    4    4    0    0 -0.35211490778E+03 -0.15258931570E+03  0.16538931671E+03  0.42821563061E+03  0.93523219961E+02 0.  0.
         11    1    3    3    0    0  0.11316314381E+02  0.19554300487E+02  0.14317083010E+02  0.26747121427E+02  0.00000000000E+00 0.  1.
        -11    1    3    3    0    0 -0.15294728249E+03  0.91271648541E+02  0.21523217431E+03  0.27937121166E+03  0.00000000000E+00 0. -1.
          1    1    5    5  502    0  0.26686399882E+03  0.43783354345E+02  0.24441702176E+02  0.27153410981E+03  0.00000000000E+00 0. -1.
          3    1    6    6  503    0 -0.19699400647E+03 -0.13451495218E+03  0.92073968747E+02  0.25569224991E+03  0.00000000000E+00 0. -1.
         -1    1    5    5    0  502  0.22688187707E+03 -0.20199876777E+01 -0.53831539296E+02  0.23318941039E+03  0.00000000000E+00 0.  1.
         -3    1    6    6    0  503 -0.15512090131E+03 -0.18074363513E+02  0.73315347965E+02  0.17252338070E+03  0.00000000000E+00 0.  1.
<mgrwt>
<rscale>  0 0.11839078E+04</rscale>
<asrwt>0</asrwt>
<pdfrwt beam="1">  1        2 0.12343125E+00 0.11839078E+04</pdfrwt>
<pdfrwt beam="2">  1       -2 0.67192981E-01 0.11839078E+04</pdfrwt>
<totfact> 0.68907833E+01</totfact>
</mgrwt>
</event>
<event>
12    1  0.5452863E-008  0.2127048E+04  0.7818608E-02  0.8549421E-01
         -2   -1    0    0    0  501 -0.00000000000E+00  0.00000000000E+00  0.11124387028E+04  0.11124387028E+04  0.00000000000E+00 0.  1.
          2   -1    0    0  501    0  0.00000000000E+00 -0.00000000000E+00 -0.10167602761E+04  0.10167602761E+04  0.00000000000E+00 0. -1.
         23    2    1    2    0    0  0.64142015389E+03  0.16316447154E+03 -0.52556194094E+03  0.84996278916E+03  0.90437440284E+02 0.  0.
        254    2    1    2    0    0 -0.64142015389E+03 -0.16316447154E+03  0.62124036762E+03  0.12792361897E+04  0.90136739243E+03 0.  0.
         23    2    4    4    0    0 -0.14708338839E+03 -0.13575593033E+03  0.73186956803E+03  0.76412441974E+03  0.90497892108E+02 0.  0.
         23    2    4    4    0    0 -0.49433676550E+03 -0.27408541203E+02 -0.11062920041E+03  0.51511176998E+03  0.89337840444E+02 0.  0.
         11    1    3    3    0    0  0.63292649128E+03  0.17161069348E+03 -0.51899394966E+03  0.83630191514E+03  0.00000000000E+00 0. -1.
        -11    1    3    3    0    0  0.84936626097E+01 -0.84462219407E+01 -0.65679912785E+01  0.13660874022E+02  0.00000000000E+00 0.  1.
          1    1    5    5  502    0 -0.12042225764E+03 -0.11826108110E+03  0.69580723057E+03  0.71598526908E+03  0.00000000000E+00 0. -1.
          1    1    6    6  503    0 -0.40432665739E+03  0.12724071944E+02 -0.87474861896E+02  0.41387655086E+03  0.00000000000E+00 0. -1.
         -1    1    5    5    0  502 -0.26661130752E+02 -0.17494849230E+02  0.36062337462E+02  0.48139150655E+02  0.00000000000E+00 0.  1.
         -1    1    6    6    0  503 -0.90010108108E+02 -0.40132613147E+02 -0.23154338512E+02  0.10123521913E+03  0.00000000000E+00 0.  1.
<mgrwt>
<rscale>  0 0.21270482E+04</rscale>
<asrwt>0</asrwt>
<pdfrwt beam="1">  1        2 0.15642466E+00 0.21270482E+04</pdfrwt>
<pdfrwt beam="2">  1       -2 0.17114442E+00 0.21270482E+04</pdfrwt>
<totfact> 0.47256488E+00</totfact>
</mgrwt>
</event>
<event>
12    1  0.4802930E-008  0.2107125E+04  0.7818608E-02  0.8558111E-01
          2   -1    0    0  501    0  0.00000000000E+00  0.00000000000E+00  0.80548197027E+03  0.80548197027E+03  0.00000000000E+00 0. -1.
         -2   -1    0    0    0  501 -0.00000000000E+00 -0.00000000000E+00 -0.13780499317E+04  0.13780499317E+04  0.00000000000E+00 0.  1.
         23    2    1    2    0    0 -0.23006637376E+03  0.76414318740E+03 -0.45262028256E+03  0.92210283011E+03  0.92537354245E+02 0.  0.
        254    2    1    2    0    0  0.23006637376E+03 -0.76414318740E+03 -0.11994767885E+03  0.12614290718E+04  0.96952076329E+03 0.  0.
         23    2    4    4    0    0  0.60323847462E+02 -0.26627190415E+03  0.41544000537E+03  0.50524837779E+03  0.90254261358E+02 0.  0.
         23    2    4    4    0    0  0.16974252630E+03 -0.49787128325E+03 -0.53538768422E+03  0.75618069405E+03  0.92091963383E+02 0.  0.
         13    1    3    3    0    0 -0.67198336506E+02  0.18902865587E+03 -0.70389759227E+02  0.21260801343E+03  0.00000000000E+00 0.  1.
        -13    1    3    3    0    0 -0.16286803725E+03  0.57511453153E+03 -0.38223052333E+03  0.70949481668E+03  0.00000000000E+00 0. -1.
          4    1    5    5  502    0  0.57273216154E+01 -0.27406470082E+02  0.11087443671E+03  0.11435496287E+03  0.00000000000E+00 0. -1.
          3    1    6    6  503    0  0.12299315712E+03 -0.34445895566E+03 -0.30940746308E+03  0.47907438571E+03  0.00000000000E+00 0. -1.
         -4    1    5    5    0  502  0.54596525847E+02 -0.23886543406E+03  0.30456556865E+03  0.39089341493E+03  0.00000000000E+00 0.  1.
         -3    1    6    6    0  503  0.46749369181E+02 -0.15341232759E+03 -0.22598022114E+03  0.27710630834E+03  0.00000000000E+00 0.  1.
<mgrwt>
<rscale>  0 0.21071254E+04</rscale>
<asrwt>0</asrwt>
<pdfrwt beam="1">  1        2 0.12392030E+00 0.21071254E+04</pdfrwt>
<pdfrwt beam="2">  1       -2 0.21200768E+00 0.21071254E+04</pdfrwt>
<totfact> 0.34927756E+00</totfact>
</mgrwt>
</event>
<event>
12    1  0.4802930E-008  0.1436739E+04  0.7818608E-02  0.8927646E-01
          1   -1    0    0  501    0  0.00000000000E+00  0.00000000000E+00  0.51677858099E+03  0.51677858099E+03  0.00000000000E+00 0. -1.
         -1   -1    0    0    0  501 -0.00000000000E+00 -0.00000000000E+00 -0.99859871894E+03  0.99859871894E+03  0.00000000000E+00 0.  1.
         23    2    1    2    0    0 -0.30694726637E+03  0.25980187070E+03 -0.31155684527E+03  0.51698429383E+03  0.92149095918E+02 0.  0.
        254    2    1    2    0    0  0.30694726637E+03 -0.25980187070E+03 -0.17026329269E+03  0.99839300610E+03  0.89782257125E+03 0.  0.
         23    2    4    4    0    0  0.15131034771E+03  0.31808756089E+01  0.34777559319E+03  0.38987251021E+03  0.90265008225E+02 0.  0.
         23    2    4    4    0    0  0.15563691866E+03 -0.26298274631E+03 -0.51803888588E+03  0.60852049589E+03  0.92466920180E+02 0.  0.
         13    1    3    3    0    0 -0.52998346683E+02  0.56016953037E+02 -0.10898578671E+03  0.13350889665E+03  0.00000000000E+00 0. -1.
        -13    1    3    3    0    0 -0.25394891969E+03  0.20378491767E+03 -0.20257105855E+03  0.38347539718E+03  0.00000000000E+00 0.  1.
          4    1    5    5  502    0  0.15137505060E+03  0.68752498549E+01  0.25217438127E+03  0.29419992110E+03  0.00000000000E+00 0. -1.
          3    1    6    6  503    0  0.11178685436E+03 -0.24948698910E+03 -0.44263973069E+03  0.52025954073E+03  0.00000000000E+00 0. -1.
         -4    1    5    5    0  502 -0.64702898702E-01 -0.36943742461E+01  0.95601211915E+02  0.95672589111E+02  0.00000000000E+00 0.  1.
         -3    1    6    6    0  503  0.43850064304E+02 -0.13495757211E+02 -0.75399155191E+02  0.88260955160E+02  0.00000000000E+00 0.  1.
<mgrwt>
<rscale>  0 0.14367386E+04</rscale>
<asrwt>0</asrwt>
<pdfrwt beam="1">  1        1 0.79504398E-01 0.14367386E+04</pdfrwt>
<pdfrwt beam="2">  1       -1 0.15363057E+00 0.14367386E+04</pdfrwt>
<totfact> 0.13459189E+01</totfact>
</mgrwt>
</event>
<event>
12    1  0.4802930E-008  0.1687596E+04  0.7818608E-02  0.8768471E-01
         -2   -1    0    0    0  501 -0.00000000000E+00  0.00000000000E+00  0.68836218379E+03  0.68836218379E+03  0.00000000000E+00 0.  1.
          2   -1    0    0  501    0  0.00000000000E+00 -0.00000000000E+00 -0.10343322297E+04  0.10343322297E+04  0.00000000000E+00 0. -1.
         23    2    1    2    0    0 -0.37555870024E+03 -0.17524010967E+03  0.31989577615E+03  0.53129979746E+03  0.90513721756E+02 0.  0.
        254    2    1    2    0    0  0.37555870024E+03  0.17524010967E+03 -0.66586582211E+03  0.11913946161E+04  0.89682239311E+03 0.  0.
         23    2    4    4    0    0 -0.28014717054E+03 -0.25630730889E+02 -0.19380172180E+03  0.35392769557E+03  0.92554496317E+02 0.  0.
         23    2    4    4    0    0  0.65570587078E+03  0.20087084056E+03 -0.47206410031E+03  0.83746692050E+03  0.90592740226E+02 0.  0.
         11    1    3    3    0    0 -0.13251450277E+03 -0.22587471833E+02  0.13105791409E+03  0.18774041699E+03  0.00000000000E+00 0. -1.
        -11    1    3    3    0    0 -0.24304419747E+03 -0.15265263783E+03  0.18883786206E+03  0.34355938047E+03  0.00000000000E+00 0.  1.
          3    1    5    5  502    0  0.68150015225E+00  0.10444271984E+02 -0.17491860205E+02  0.20384122084E+02  0.00000000000E+00 0. -1.
          3    1    6    6  503    0  0.34910092751E+03  0.59957669847E+02 -0.23488806512E+03  0.42501621486E+03  0.00000000000E+00 0. -1.
         -3    1    5    5    0  502 -0.28082867069E+03 -0.36075002873E+02 -0.17630986159E+03  0.33354357348E+03  0.00000000000E+00 0.  1.
         -3    1    6    6    0  503  0.30660494327E+03  0.14091317071E+03 -0.23717603519E+03  0.41245070564E+03  0.00000000000E+00 0.  1.
<mgrwt>
<rscale>  0 0.16875962E+04</rscale>
<asrwt>0</asrwt>
<pdfrwt beam="1">  1        2 0.15912804E+00 0.16875962E+04</pdfrwt>
<pdfrwt beam="2">  1       -2 0.10590187E+00 0.16875962E+04</pdfrwt>
<totfact> 0.16428579E+01</totfact>
</mgrwt>
</event>
<event>
12    1  0.4802930E-008  0.1325635E+04  0.7818608E-02  0.9009480E-01
         -1   -1    0    0    0  501 -0.00000000000E+00  0.00000000000E+00  0.74639593364E+03  0.74639593364E+03  0.00000000000E+00 0.  1.
          1   -1    0    0  501    0  0.00000000000E+00 -0.00000000000E+00 -0.58859798748E+03  0.58859798748E+03  0.00000000000E+00 0. -1.
         23    2    1    2    0    0 -0.39320986990E+02  0.34327243336E+03 -0.89184163684E+01  0.35777865292E+03  0.92433342540E+02 0.  0.
        254    2    1    2    0    0  0.39320986990E+02 -0.34327243336E+03  0.16671636252E+03  0.97721526820E+03  0.89876205491E+03 0.  0.
         23    2    4    4    0    0  0.23603650307E+03  0.21812326104E+03  0.17708720176E+03  0.37531705078E+03  0.78816392908E+02 0.  0.
         23    2    4    4    0    0 -0.19671551608E+03 -0.56139569440E+03 -0.10370839234E+02  0.60189821742E+03  0.91169018116E+02 0.  0.
         11    1    3    3    0    0 -0.42022580439E+02  0.73619629211E+02 -0.22715593570E+02  0.87759587871E+02  0.00000000000E+00 0. -1.
        -11    1    3    3    0    0  0.27015934490E+01  0.26965280415E+03  0.13797177201E+02  0.27001906505E+03  0.00000000000E+00 0.  1.
          2    1    5    5  502    0  0.85810017131E+02  0.46110833178E+02  0.84243433056E+02  0.12878867959E+03  0.00000000000E+00 0. -1.
          1    1    6    6  503    0 -0.11486008831E+02 -0.19916247624E+02  0.17563464159E+02  0.28931999439E+02  0.00000000000E+00 0. -1.
         -2    1    5    5    0  502  0.15022648594E+03  0.17201242786E+03  0.92843768701E+02  0.24652837120E+03  0.00000000000E+00 0.  1.
         -1    1    6    6    0  503 -0.18522950725E+03 -0.54147944677E+03 -0.27934303393E+02  0.57296621798E+03  0.00000000000E+00 0.  1.
<mgrwt>
<rscale>  0 0.13256352E+04</rscale>
<asrwt>0</asrwt>
<pdfrwt beam="1">  1        1 0.90553537E-01 0.13256352E+04</pdfrwt>
<pdfrwt beam="2">  1       -1 0.11483014E+00 0.13256352E+04</pdfrwt>
<totfact> 0.23795429E+01</totfact>
</mgrwt>
</event>
<event>
12    1  0.4802930E-008  0.3086508E+04  0.7818608E-02  0.8219450E-01
         -2   -1    0    0    0  501 -0.00000000000E+00  0.00000000000E+00  0.58909666034E+03  0.58909666034E+03  0.00000000000E+00 0.  1.
          2   -1    0    0  501    0  0.00000000000E+00 -0.00000000000E+00 -0.40428570319E+04  0.40428570319E+04  0.00000000000E+00 0. -1.
         23    2    1    2    0    0  0.32440538526E+03  0.38426490340E+03  0.39402964080E+03  0.64535663637E+03  0.91254919345E+02 0.  0.
        254    2    1    2    0    0 -0.32440538526E+03 -0.38426490340E+03 -0.38477900124E+04  0.39865970559E+04  0.91354788415E+03 0.  0.
         23    2    4    4    0    0 -0.61099818607E+03 -0.11038478436E+03 -0.25577555838E+04  0.26338464232E+04  0.97620545497E+02 0.  0.
         23    2    4    4    0    0  0.28659280080E+03 -0.27388011904E+03 -0.12900344286E+04  0.13527506326E+04  0.92734535331E+02 0.  0.
         11    1    3    3    0    0  0.28887450138E+03  0.35378506941E+03  0.38569624096E+03  0.59780761385E+03  0.00000000000E+00 0.  1.
        -11    1    3    3    0    0  0.35530883883E+02  0.30479833989E+02  0.83333998347E+01  0.47549022517E+02  0.00000000000E+00 0. -1.
          1    1    5    5  502    0 -0.56179145089E+03 -0.12602288131E+03 -0.22998121794E+04  0.23707862538E+04  0.00000000000E+00 0. -1.
          3    1    6    6  503    0  0.12505402245E+03 -0.12817518684E+03 -0.43368516923E+03  0.46920167632E+03  0.00000000000E+00 0. -1.
         -1    1    5    5    0  502 -0.49206735176E+02  0.15638096947E+02 -0.25794340438E+03  0.26306016940E+03  0.00000000000E+00 0.  1.
         -3    1    6    6    0  503  0.16153877835E+03 -0.14570493219E+03 -0.85634925936E+03  0.88354895630E+03  0.00000000000E+00 0.  1.
<mgrwt>
<rscale>  0 0.30865084E+04</rscale>
<asrwt>0</asrwt>
<pdfrwt beam="1">  1        2 0.62197804E+00 0.30865084E+04</pdfrwt>
<pdfrwt beam="2">  1       -2 0.90630250E-01 0.30865084E+04</pdfrwt>
<totfact> 0.27868626E-01</totfact>
</mgrwt>
</event>
<event>
12    1  0.4802930E-008  0.1972315E+04  0.7818608E-02  0.8619675E-01
         -2   -1    0    0    0  501 -0.00000000000E+00  0.00000000000E+00  0.75325142418E+03  0.75325142418E+03  0.00000000000E+00 0. -1.
          2   -1    0    0  501    0  0.00000000000E+00 -0.00000000000E+00 -0.12910789740E+04  0.12910789740E+04  0.00000000000E+00 0.  1.
         23    2    1    2    0    0  0.57165366444E+03  0.11407747291E+03 -0.75276877963E+03  0.95657021742E+03  0.92542765149E+02 0.  0.
        254    2    1    2    0    0 -0.57165366444E+03 -0.11407747291E+03  0.21494122978E+03  0.10877601808E+04  0.89287227350E+03 0.  0.
         23    2    4    4    0    0 -0.75460692753E+03 -0.26972540778E+03  0.12936667210E+03  0.81675239816E+03  0.90362234188E+02 0.  0.
         23    2    4    4    0    0  0.18295326310E+03  0.15564793487E+03  0.85574557677E+02  0.27100778264E+03  0.91782554024E+02 0.  0.
         13    1    3    3    0    0  0.20001046998E+03  0.98093067776E+01 -0.20609448809E+03  0.28735926751E+03  0.00000000000E+00 0. -1.
        -13    1    3    3    0    0  0.37164319446E+03  0.10426816613E+03 -0.54667429154E+03  0.66921094992E+03  0.00000000000E+00 0.  1.
          4    1    5    5  502    0 -0.19702993110E+03 -0.32402573478E+02  0.47671406794E+02  0.20528829373E+03  0.00000000000E+00 0. -1.
          4    1    6    6  503    0  0.14411301095E+03  0.68656863333E+02  0.70691638428E+02  0.17458417039E+03  0.00000000000E+00 0. -1.
         -4    1    5    5    0  502 -0.55757699643E+03 -0.23732283430E+03  0.81695265307E+02  0.61146410443E+03  0.00000000000E+00 0.  1.
         -4    1    6    6    0  503  0.38840252147E+02  0.86991071534E+02  0.14882919249E+02  0.96423612247E+02  0.00000000000E+00 0.  1.
<mgrwt>
<rscale>  0 0.19723155E+04</rscale>
<asrwt>0</asrwt>
<pdfrwt beam="1">  1        2 0.19862753E+00 0.19723155E+04</pdfrwt>
<pdfrwt beam="2">  1       -2 0.11588484E+00 0.19723155E+04</pdfrwt>
<totfact> 0.90171404E+00</totfact>
</mgrwt>
</event>
<event>
12    1  0.4802930E-008  0.1887902E+04  0.7818608E-02  0.8660902E-01
          2   -1    0    0  501    0  0.00000000000E+00  0.00000000000E+00  0.16107785680E+04  0.16107785680E+04  0.00000000000E+00 0. -1.
         -2   -1    0    0    0  501 -0.00000000000E+00 -0.00000000000E+00 -0.55317581437E+03  0.55317581437E+03  0.00000000000E+00 0.  1.
         23    2    1    2    0    0 -0.74727938739E+03 -0.74118106333E+01  0.41401415531E+03  0.85933450289E+03  0.92556195362E+02 0.  0.
        254    2    1    2    0    0  0.74727938739E+03  0.74118106333E+01  0.64358859833E+03  0.13046198795E+04  0.85401717096E+03 0.  0.
         23    2    4    4    0    0  0.16306421141E+03  0.10025030486E+03  0.67397263097E+03  0.70639635622E+03  0.90092419854E+02 0.  0.
         23    2    4    4    0    0  0.58421517598E+03 -0.92838494230E+02 -0.30384032636E+02  0.59822352327E+03  0.83796399079E+02 0.  0.
         13    1    3    3    0    0 -0.14973561550E+03 -0.32090262464E+02  0.10919677210E+03  0.18808103183E+03  0.00000000000E+00 0.  1.
        -13    1    3    3    0    0 -0.59754377189E+03  0.24678451831E+02  0.30481738320E+03  0.67125347106E+03  0.00000000000E+00 0. -1.
          4    1    5    5  502    0  0.18279959450E+02 -0.16740328701E+02  0.63145365941E+02  0.67836072722E+02  0.00000000000E+00 0. -1.
          3    1    6    6  503    0  0.27511839387E+03 -0.32050977838E+02  0.26012020531E+02  0.27819780919E+03  0.00000000000E+00 0. -1.
         -4    1    5    5    0  502  0.14478425196E+03  0.11699063356E+03  0.61082726503E+03  0.63856028350E+03  0.00000000000E+00 0.  1.
         -3    1    6    6    0  503  0.30909678211E+03 -0.60787516392E+02 -0.56396053167E+02  0.32002571408E+03  0.00000000000E+00 0.  1.
<mgrwt>
<rscale>  0 0.18879023E+04</rscale>
<asrwt>0</asrwt>
<pdfrwt beam="1">  1        2 0.24781209E+00 0.18879023E+04</pdfrwt>
<pdfrwt beam="2">  1       -2 0.85103972E-01 0.18879023E+04</pdfrwt>
<totfact> 0.12388276E+01</totfact>
</mgrwt>
</event>
<event>
12    1  0.4802930E-008  0.1547137E+04  0.7818608E-02  0.8853698E-01
          1   -1    0    0  501    0  0.00000000000E+00  0.00000000000E+00  0.20087276957E+04  0.20087276957E+04  0.00000000000E+00 0. -1.
         -1   -1    0    0    0  501 -0.00000000000E+00 -0.00000000000E+00 -0.29790425231E+03  0.29790425231E+03  0.00000000000E+00 0.  1.
         23    2    1    2    0    0 -0.36876049394E+03  0.31926477256E+03  0.77615659263E+03  0.92123899457E+03  0.91367017883E+02 0.  0.
        254    2    1    2    0    0  0.36876049394E+03 -0.31926477256E+03  0.93466685078E+03  0.13853929535E+04  0.89877539834E+03 0.  0.
         23    2    4    4    0    0  0.22702879648E+03 -0.59234328426E+03  0.82868067442E+03  0.10473386458E+04  0.88283283147E+02 0.  0.
         23    2    4    4    0    0  0.14173169746E+03  0.27307851170E+03  0.10598617636E+03  0.33805430761E+03  0.91585466631E+02 0.  0.
         11    1    3    3    0    0 -0.29564193672E+03  0.22040157562E+03  0.63247003399E+03  0.73211976696E+03  0.00000000000E+00 0. -1.
        -11    1    3    3    0    0 -0.73118557221E+02  0.98863196937E+02  0.14368655863E+03  0.18911922761E+03  0.00000000000E+00 0.  1.
          1    1    6    6  502    0  0.24745300982E+02  0.13041709213E+02  0.33886472402E+02  0.43939835136E+02  0.00000000000E+00 0. -1.
          1    1    5    5  503    0  0.57553247988E+02 -0.13094131593E+03  0.25045410313E+03  0.28841855409E+03  0.00000000000E+00 0. -1.
         -1    1    5    5    0  503  0.16947554849E+03 -0.46140196833E+03  0.57822657130E+03  0.75892009176E+03  0.00000000000E+00 0.  1.
         -1    1    6    6    0  502  0.11698639648E+03  0.26003680249E+03  0.72099703953E+02  0.29411447248E+03  0.00000000000E+00 0.  1.
<mgrwt>
<rscale>  0 0.15471374E+04</rscale>
<asrwt>0</asrwt>
<pdfrwt beam="1">  1        1 0.30903502E+00 0.15471374E+04</pdfrwt>
<pdfrwt beam="2">  1       -1 0.45831425E-01 0.15471374E+04</pdfrwt>
<totfact> 0.13413050E+01</totfact>
</mgrwt>
</event>
<event>
12    1  0.4802930E-008  0.2461400E+04  0.7818608E-02  0.8416868E-01
          2   -1    0    0  501    0  0.00000000000E+00  0.00000000000E+00  0.62861103603E+03  0.62861103603E+03  0.00000000000E+00 0. -1.
         -2   -1    0    0    0  501 -0.00000000000E+00 -0.00000000000E+00 -0.24094742814E+04  0.24094742814E+04  0.00000000000E+00 0.  1.
         23    2    1    2    0    0  0.95641200792E+03 -0.38879412507E+03 -0.43718173410E+03  0.11250647299E+04  0.93584065111E+02 0.  0.
        254    2    1    2    0    0 -0.95641200792E+03  0.38879412507E+03 -0.13436815112E+04  0.19130205875E+04  0.88785300812E+03 0.  0.
         23    2    4    4    0    0 -0.71716948452E+03  0.10540442378E+02 -0.12534570107E+04  0.14470713501E+04  0.91748810090E+02 0.  0.
         23    2    4    4    0    0 -0.23924252340E+03  0.37825368269E+03 -0.90224500510E+02  0.46594923739E+03  0.93034390735E+02 0.  0.
         13    1    3    3    0    0  0.86499518900E+03 -0.33296355160E+03 -0.41568092271E+03  0.10158110224E+04  0.00000000000E+00 0. -1.
        -13    1    3    3    0    0  0.91416818918E+02 -0.55830573466E+02 -0.21500811393E+02  0.10925370751E+03  0.00000000000E+00 0.  1.
          4    1    5    5  502    0 -0.19117144419E+02 -0.26710790694E+01 -0.11914046068E+02  0.22683570439E+02  0.00000000000E+00 0.  1.
          1    1    6    6  503    0 -0.12842157234E+03  0.17305031668E+03  0.10760455189E+01  0.21549865479E+03  0.00000000000E+00 0. -1.
         -4    1    5    5    0  502 -0.69805234010E+03  0.13211521447E+02 -0.12415429647E+04  0.14243877797E+04  0.00000000000E+00 0. -1.
         -1    1    6    6    0  503 -0.11082095106E+03  0.20520336601E+03 -0.91300546029E+02  0.25045058259E+03  0.00000000000E+00 0.  1.
<mgrwt>
<rscale>  0 0.24613997E+04</rscale>
<asrwt>0</asrwt>
<pdfrwt beam="1">  1        2 0.96709389E-01 0.24613997E+04</pdfrwt>
<pdfrwt beam="2">  1       -2 0.37068836E+00 0.24613997E+04</pdfrwt>
<totfact> 0.48211517E-01</totfact>
</mgrwt>
</event>
<event>
12    1  0.5039522E-008  0.3064623E+04  0.7818608E-02  0.8225514E-01
          1   -1    0    0  501    0  0.00000000000E+00  0.00000000000E+00  0.14719999502E+04  0.14719999502E+04  0.00000000000E+00 0. -1.
         -1   -1    0    0    0  501 -0.00000000000E+00 -0.00000000000E+00 -0.15950938837E+04  0.15950938837E+04  0.00000000000E+00 0.  1.
         23    2    1    2    0    0  0.16976540660E+03  0.36389752515E+03 -0.13945066637E+04  0.14539245652E+04  0.89476835800E+02 0.  0.
        254    2    1    2    0    0 -0.16976540660E+03 -0.36389752515E+03  0.12714127302E+04  0.16131692688E+04  0.90806555778E+03 0.  0.
         23    2    4    4    0    0 -0.44178193761E+03 -0.32282711633E+03  0.36917065042E+03  0.66630839653E+03  0.91056480855E+02 0.  0.
         23    2    4    4    0    0  0.27201653102E+03 -0.41070408819E+02  0.90224207974E+03  0.94686087225E+03  0.82613372544E+02 0.  0.
         11    1    3    3    0    0 -0.90590629392E+01  0.25575672868E+02 -0.64870468668E+02  0.70316138754E+02  0.00000000000E+00 0. -1.
        -11    1    3    3    0    0  0.17882446953E+03  0.33832185228E+03 -0.13296361950E+04  0.13836084264E+04  0.00000000000E+00 0.  1.
          2    1    5    5  502    0 -0.19891933837E+03 -0.19137694560E+03  0.15293942406E+03  0.31557012836E+03  0.00000000000E+00 0. -1.
          4    1    6    6  503    0  0.91393461188E+01 -0.34970586114E+01  0.12745760967E+03  0.12783270055E+03  0.00000000000E+00 0. -1.
         -2    1    5    5    0  502 -0.24286259924E+03 -0.13145017073E+03  0.21623122637E+03  0.35073826816E+03  0.00000000000E+00 0.  1.
         -4    1    6    6    0  503  0.26287718490E+03 -0.37573350208E+02  0.77478447007E+03  0.81902817170E+03  0.00000000000E+00 0.  1.
<mgrwt>
<rscale>  0 0.30646227E+04</rscale>
<asrwt>0</asrwt>
<pdfrwt beam="1">  1        1 0.22646153E+00 0.30646227E+04</pdfrwt>
<pdfrwt beam="2">  1       -1 0.24539906E+00 0.30646227E+04</pdfrwt>
<totfact> 0.43268648E-01</totfact>
</mgrwt>
</event>
<event>
12    1  0.4802930E-008  0.1374993E+04  0.7818608E-02  0.8972122E-01
          2   -1    0    0  501    0  0.00000000000E+00  0.00000000000E+00  0.94050946845E+03  0.94050946845E+03  0.00000000000E+00 0. -1.
         -2   -1    0    0    0  501 -0.00000000000E+00 -0.00000000000E+00 -0.50254816553E+03  0.50254816553E+03  0.00000000000E+00 0.  1.
         23    2    1    2    0    0 -0.24884924417E+03 -0.29632544887E+03  0.14016567619E+03  0.42244150423E+03  0.95266414592E+02 0.  0.
        254    2    1    2    0    0  0.24884924417E+03  0.29632544887E+03  0.29779562673E+03  0.10206161298E+04  0.89623676059E+03 0.  0.
         23    2    4    4    0    0  0.30546295698E+03  0.52756439623E+03 -0.17181012168E+02  0.61512761037E+03  0.80342887671E+02 0.  0.
         23    2    4    4    0    0 -0.56613712812E+02 -0.23123894737E+03  0.31497663890E+03  0.40548851938E+03  0.92380155033E+02 0.  0.
         13    1    3    3    0    0 -0.17978657699E+03 -0.21140429625E+03  0.14452922384E+03  0.31289564759E+03  0.00000000000E+00 0. -1.
        -13    1    3    3    0    0 -0.69062667181E+02 -0.84921152617E+02 -0.43635476482E+01  0.10954585664E+03  0.00000000000E+00 0.  1.
          2    1    5    5  502    0  0.30885780564E+03  0.52758491888E+03 -0.18102307088E+02  0.61160991184E+03  0.00000000000E+00 0.  1.
          4    1    6    6  503    0 -0.84482958840E+01 -0.16473368394E+02  0.85652673712E+02  0.87630622979E+02  0.00000000000E+00 0. -1.
         -2    1    5    5    0  502 -0.33948486619E+01 -0.20522649560E-01  0.92129491921E+00  0.35176985295E+01  0.00000000000E+00 0. -1.
         -4    1    6    6    0  503 -0.48165416928E+02 -0.21476557897E+03  0.22932396518E+03  0.31785789640E+03  0.00000000000E+00 0.  1.
<mgrwt>
<rscale>  0 0.13749928E+04</rscale>
<asrwt>0</asrwt>
<pdfrwt beam="1">  1        2 0.14469376E+00 0.13749928E+04</pdfrwt>
<pdfrwt beam="2">  1       -2 0.77315102E-01 0.13749928E+04</pdfrwt>
<totfact> 0.40091573E+01</totfact>
</mgrwt>
</event>
<event>
12    1  0.4802930E-008  0.1151311E+04  0.7818608E-02  0.9156575E-01
         -1   -1    0    0    0  501 -0.00000000000E+00  0.00000000000E+00  0.31228573991E+03  0.31228573991E+03  0.00000000000E+00 0.  1.
          1   -1    0    0  501    0  0.00000000000E+00 -0.00000000000E+00 -0.10611405710E+04  0.10611405710E+04  0.00000000000E+00 0. -1.
         23    2    1    2    0    0  0.15987231913E+03 -0.14335208422E+03 -0.17070676831E+03  0.28937312277E+03  0.92125050677E+02 0.  0.
        254    2    1    2    0    0 -0.15987231913E+03  0.14335208422E+03 -0.57814806274E+03  0.10840531881E+04  0.89151957562E+03 0.  0.
         23    2    4    4    0    0 -0.29685675569E+03  0.39271623639E+03 -0.85074134094E+02  0.50778087353E+03  0.90850599917E+02 0.  0.
         23    2    4    4    0    0  0.13698443656E+03 -0.24936415217E+03 -0.49307392865E+03  0.57627231458E+03  0.89558166503E+02 0.  0.
         11    1    3    3    0    0  0.12454332588E+03 -0.12253815841E+03 -0.84860772976E+02  0.19423694570E+03  0.00000000000E+00 0.  1.
        -11    1    3    3    0    0  0.35328993251E+02 -0.20813925810E+02 -0.85845995337E+02  0.95136177068E+02  0.00000000000E+00 0. -1.
          4    1    5    5  502    0 -0.24043381684E+03  0.28101538614E+03 -0.96208347707E+02  0.38214410069E+03  0.00000000000E+00 0. -1.
          3    1    6    6  503    0  0.13065883404E+03 -0.18214537992E+03 -0.42443303364E+03  0.47999173991E+03  0.00000000000E+00 0. -1.
         -4    1    5    5    0  502 -0.56422938853E+02  0.11170085025E+03  0.11134213613E+02  0.12563677283E+03  0.00000000000E+00 0.  1.
         -3    1    6    6    0  503  0.63256025178E+01 -0.67218772251E+02 -0.68640895010E+02  0.96280574666E+02  0.00000000000E+00 0.  1.
<mgrwt>
<rscale>  0 0.11513107E+04</rscale>
<asrwt>0</asrwt>
<pdfrwt beam="1">  1        1 0.16325240E+00 0.11513107E+04</pdfrwt>
<pdfrwt beam="2">  1       -1 0.48043960E-01 0.11513107E+04</pdfrwt>
<totfact> 0.58328440E+01</totfact>
</mgrwt>
</event>
<event>
12    1  0.4802930E-008  0.1703706E+04  0.7818608E-02  0.8759253E-01
          2   -1    0    0  501    0  0.00000000000E+00  0.00000000000E+00  0.88800819823E+03  0.88800819823E+03  0.00000000000E+00 0. -1.
         -2   -1    0    0    0  501 -0.00000000000E+00 -0.00000000000E+00 -0.81716997020E+03  0.81716997020E+03  0.00000000000E+00 0.  1.
         23    2    1    2    0    0  0.69750459777E+02 -0.56083403443E+02  0.55771772392E+03  0.57191511569E+03  0.89595564560E+02 0.  0.
        254    2    1    2    0    0 -0.69750459777E+02  0.56083403443E+02 -0.48687949590E+03  0.11332630527E+04  0.10194228899E+04 0.  0.
         23    2    4    4    0    0 -0.26098043499E+03  0.34112952465E+03 -0.61515126836E+03  0.75568172497E+03  0.90352899502E+02 0.  0.
         23    2    4    4    0    0  0.19122997521E+03 -0.28504612121E+03  0.12827177247E+03  0.37758132778E+03  0.91070394964E+02 0.  0.
         13    1    3    3    0    0  0.42776649295E+02 -0.72100041311E+02  0.49202886343E+03  0.49911988552E+03  0.00000000000E+00 0. -1.
        -13    1    3    3    0    0  0.26973810482E+02  0.16016637868E+02  0.65688860499E+02  0.72795230161E+02  0.00000000000E+00 0.  1.
          1    1    5    5  502    0  0.37237499831E+01 -0.29785497338E+01 -0.64327828799E+01  0.80074195614E+01  0.00000000000E+00 0. -1.
          3    1    6    6  503    0  0.67544243743E+02 -0.34945169324E+02  0.24567829002E+02  0.79918508143E+02  0.00000000000E+00 0. -1.
         -1    1    5    5    0  502 -0.26470418497E+03  0.34410807438E+03 -0.60871848548E+03  0.74767430541E+03  0.00000000000E+00 0.  1.
         -3    1    6    6    0  503  0.12368573147E+03 -0.25010095188E+03  0.10370394347E+03  0.29766281963E+03  0.00000000000E+00 0.  1.
<mgrwt>
<rscale>  0 0.17037061E+04</rscale>
<asrwt>0</asrwt>
<pdfrwt beam="1">  1        2 0.13661665E+00 0.17037061E+04</pdfrwt>
<pdfrwt beam="2">  1       -2 0.12571846E+00 0.17037061E+04</pdfrwt>
<totfact> 0.13431925E+01</totfact>
</mgrwt>
</event>
<event>
12    1  0.4802930E-008  0.3573883E+04  0.7818608E-02  0.8096500E-01
         -2   -1    0    0    0  501 -0.00000000000E+00  0.00000000000E+00  0.23483641344E+04  0.23483641344E+04  0.00000000000E+00 0.  1.
          2   -1    0    0  501    0  0.00000000000E+00 -0.00000000000E+00 -0.13597382056E+04  0.13597382056E+04  0.00000000000E+00 0. -1.
         23    2    1    2    0    0 -0.35043999357E+03 -0.14114788374E+04  0.13194301053E+04  0.19655009496E+04  0.84955767080E+02 0.  0.
        254    2    1    2    0    0  0.35043999357E+03  0.14114788374E+04 -0.33080417649E+03  0.17426013905E+04  0.90119226877E+03 0.  0.
         23    2    4    4    0    0  0.81237153471E+02  0.12371988528E+04 -0.53304882375E+03  0.13527482813E+04  0.92338440436E+02 0.  0.
         23    2    4    4    0    0  0.26920284010E+03  0.17427998461E+03  0.20224464726E+03  0.38985310916E+03  0.90768206021E+02 0.  0.
         11    1    3    3    0    0 -0.19655028929E+03 -0.92856878953E+03  0.89151648293E+03  0.13021803456E+04  0.00000000000E+00 0.  1.
        -11    1    3    3    0    0 -0.15388970429E+03 -0.48291004788E+03  0.42791362241E+03  0.66332060398E+03  0.00000000000E+00 0. -1.
          2    1    5    5  502    0  0.46228429294E+02  0.69624811108E+03 -0.24997414147E+03  0.74120548518E+03  0.00000000000E+00 0. -1.
          4    1    6    6  503    0  0.12397269646E+03  0.30535345768E+02  0.61381847980E+02  0.14166639711E+03  0.00000000000E+00 0. -1.
         -2    1    5    5    0  502  0.35008724177E+02  0.54095074171E+03 -0.28307468228E+03  0.61154279611E+03  0.00000000000E+00 0.  1.
         -4    1    6    6    0  503  0.14523014364E+03  0.14374463885E+03  0.14086279928E+03  0.24818671205E+03  0.00000000000E+00 0.  1.
<mgrwt>
<rscale>  0 0.35738833E+04</rscale>
<asrwt>0</asrwt>
<pdfrwt beam="1">  1        2 0.20919049E+00 0.35738833E+04</pdfrwt>
<pdfrwt beam="2">  1       -2 0.36128679E+00 0.35738833E+04</pdfrwt>
<totfact> 0.16442776E-01</totfact>
</mgrwt>
</event>
<event>
12    1  0.4802930E-008  0.1540173E+04  0.7818608E-02  0.8858169E-01
         -2   -1    0    0    0  501 -0.00000000000E+00  0.00000000000E+00  0.23996796142E+03  0.23996796142E+03  0.00000000000E+00 0.  1.
          2   -1    0    0  501    0  0.00000000000E+00 -0.00000000000E+00 -0.24713004103E+04  0.24713004103E+04  0.00000000000E+00 0. -1.
         23    2    1    2    0    0 -0.44328683598E+03 -0.92257846911E+02 -0.35180188991E+03  0.58330360216E+03  0.10706910515E+03 0.  0.
        254    2    1    2    0    0  0.44328683598E+03  0.92257846911E+02 -0.18795305589E+04  0.21279647695E+04  0.88914802431E+03 0.  0.
         23    2    4    4    0    0  0.28508542520E+03 -0.29641533454E+03 -0.37580808130E+03  0.56418862329E+03  0.89114187821E+02 0.  0.
         23    2    4    4    0    0  0.15820141078E+03  0.38867318145E+03 -0.15037224776E+04  0.15637761462E+04  0.90111139442E+02 0.  0.
         11    1    3    3    0    0 -0.22148335663E+03 -0.10028296055E+03 -0.17546534317E+03  0.29983268016E+03  0.00000000000E+00 0. -1.
        -11    1    3    3    0    0 -0.22180347935E+03  0.80251136351E+01 -0.17633654675E+03  0.28347092200E+03  0.00000000000E+00 0.  1.
          4    1    5    5  502    0  0.18115775497E+03 -0.12581177808E+03 -0.18373865337E+03  0.28706554728E+03  0.00000000000E+00 0.  1.
          3    1    6    6  503    0  0.12962217252E+03  0.24488854417E+03 -0.85833793870E+03  0.90195139763E+03  0.00000000000E+00 0. -1.
         -4    1    5    5    0  502  0.10392767022E+03 -0.17060355646E+03 -0.19206942792E+03  0.27712307601E+03  0.00000000000E+00 0. -1.
         -3    1    6    6    0  503  0.28579238267E+02  0.14378463729E+03 -0.64538453892E+03  0.66182474860E+03  0.00000000000E+00 0.  1.
<mgrwt>
<rscale>  0 0.15401726E+04</rscale>
<asrwt>0</asrwt>
<pdfrwt beam="1">  1        2 0.38020005E+00 0.15401726E+04</pdfrwt>
<pdfrwt beam="2">  1       -2 0.36918149E-01 0.15401726E+04</pdfrwt>
<totfact> 0.24142736E+01</totfact>
</mgrwt>
</event>
<event>
12    1  0.4802930E-008  0.1853240E+04  0.7818608E-02  0.8678489E-01
          2   -1    0    0  501    0  0.00000000000E+00  0.00000000000E+00  0.37130516683E+03  0.37130516683E+03  0.00000000000E+00 0. -1.
         -2   -1    0    0    0  501 -0.00000000000E+00 -0.00000000000E+00 -0.23124488875E+04  0.23124488875E+04  0.00000000000E+00 0.  1.
         23    2    1    2    0    0 -0.36389884146E+03 -0.12087492298E+03 -0.15758717603E+04  0.16243244683E+04  0.89582696337E+02 0.  0.
        254    2    1    2    0    0  0.36389884146E+03  0.12087492298E+03 -0.36527196031E+03  0.10594295860E+04  0.91756979510E+03 0.  0.
         23    2    4    4    0    0 -0.61761748449E+02  0.80940223804E+02 -0.56225042508E+03  0.57877149402E+03  0.92114430925E+02 0.  0.
         23    2    4    4    0    0  0.42566058991E+03  0.39934699180E+02  0.19697846477E+03  0.48065809198E+03  0.97210944845E+02 0.  0.
         11    1    3    3    0    0 -0.68491400213E+01  0.30947936149E+00 -0.41642283886E+01  0.80216765441E+01  0.00000000000E+00 0. -1.
        -11    1    3    3    0    0 -0.35704970144E+03 -0.12118440234E+03 -0.15717075320E+04  0.16163027918E+04  0.00000000000E+00 0.  1.
          1    1    5    5  502    0 -0.67765049771E+02  0.76178839832E+02 -0.56192763212E+03  0.57110242632E+03  0.00000000000E+00 0. -1.
          1    1    6    6  503    0  0.26853434885E+03  0.16455791514E+02  0.17332542105E+03  0.32003623415E+03  0.00000000000E+00 0. -1.
         -1    1    5    5    0  502  0.60033013222E+01  0.47613839720E+01 -0.32279296201E+00  0.76690677002E+01  0.00000000000E+00 0.  1.
         -1    1    6    6    0  503  0.15712624106E+03  0.23478907666E+02  0.23653043727E+02  0.16062185783E+03  0.00000000000E+00 0.  1.
<mgrwt>
<rscale>  0 0.18532396E+04</rscale>
<asrwt>0</asrwt>
<pdfrwt beam="1">  1        2 0.57123871E-01 0.18532396E+04</pdfrwt>
<pdfrwt beam="2">  1       -2 0.35576137E+00 0.18532396E+04</pdfrwt>
<totfact> 0.11670825E+00</totfact>
</mgrwt>
</event>
<event>
12    1  0.4802930E-008  0.2491026E+04  0.7818608E-02  0.8406189E-01
          2   -1    0    0  501    0  0.00000000000E+00  0.00000000000E+00  0.18352883649E+04  0.18352883649E+04  0.00000000000E+00 0.  1.
         -2   -1    0    0    0  501 -0.00000000000E+00 -0.00000000000E+00 -0.84526403226E+03  0.84526403226E+03  0.00000000000E+00 0. -1.
         23    2    1    2    0    0  0.29394094644E+03 -0.92123940923E+03  0.90527302291E+03  0.13277271271E+04  0.90866654963E+02 0.  0.
        254    2    1    2    0    0 -0.29394094644E+03  0.92123940923E+03  0.84751309678E+02  0.13528252700E+04  0.94226859096E+03 0.  0.
         23    2    4    4    0    0 -0.35922009700E+01 -0.15156270377E+03 -0.12708283618E+03  0.21767207504E+03  0.90812597782E+02 0.  0.
         23    2    4    4    0    0 -0.29034874547E+03  0.10728021130E+04  0.21183414586E+03  0.11351531950E+04  0.92153692254E+02 0.  0.
         13    1    3    3    0    0  0.11877684954E+03 -0.34610610613E+03  0.40271587271E+03  0.54412999442E+03  0.00000000000E+00 0. -1.
        -13    1    3    3    0    0  0.17516409690E+03 -0.57513330311E+03  0.50255715020E+03  0.78359713271E+03  0.00000000000E+00 0.  1.
          4    1    5    5  502    0  0.18238432965E+02 -0.11908027143E+03 -0.13143787481E+03  0.17829376438E+03  0.00000000000E+00 0. -1.
          1    1    6    6  503    0 -0.26298586537E+03  0.10118542107E+04  0.17889816905E+03  0.10606672730E+04  0.00000000000E+00 0. -1.
         -4    1    5    5    0  502 -0.21830633935E+02 -0.32482432343E+02  0.43550386288E+01  0.39378310659E+02  0.00000000000E+00 0.  1.
         -1    1    6    6    0  503 -0.27362880098E+02  0.60947902307E+02  0.32935976812E+02  0.74485921968E+02  0.00000000000E+00 0.  1.
<mgrwt>
<rscale>  0 0.24910265E+04</rscale>
<asrwt>0</asrwt>
<pdfrwt beam="1">  1        2 0.28235206E+00 0.24910265E+04</pdfrwt>
<pdfrwt beam="2">  1       -2 0.13004062E+00 0.24910265E+04</pdfrwt>
<totfact> 0.31950312E+00</totfact>
</mgrwt>
</event>
<event>
12    1  0.4802930E-008  0.1292878E+04  0.7818608E-02  0.9035232E-01
         -2   -1    0    0    0  501 -0.00000000000E+00  0.00000000000E+00  0.88559775652E+03  0.88559775652E+03  0.00000000000E+00 0.  1.
          2   -1    0    0  501    0  0.00000000000E+00 -0.00000000000E+00 -0.47186587503E+03  0.47186587503E+03  0.00000000000E+00 0. -1.
         23    2    1    2    0    0 -0.26624647582E+03  0.17945931801E+03  0.14649320687E+03  0.36478109968E+03  0.92261358771E+02 0.  0.
        254    2    1    2    0    0  0.26624647582E+03 -0.17945931801E+03  0.26723867461E+03  0.99268253186E+03  0.90050500673E+03 0.  0.
         23    2    4    4    0    0  0.41312872524E+03 -0.70484644146E+02 -0.20695192651E+03  0.47643144422E+03  0.92273465721E+02 0.  0.
         23    2    4    4    0    0 -0.14688224942E+03 -0.10897467386E+03  0.47419060113E+03  0.51625108765E+03  0.90601239280E+02 0.  0.
         13    1    3    3    0    0 -0.19032232492E+03  0.17413237279E+03  0.11312202974E+03  0.28167581406E+03  0.00000000000E+00 0.  1.
        -13    1    3    3    0    0 -0.75924150898E+02  0.53269452192E+01  0.33371177129E+02  0.83105285620E+02  0.00000000000E+00 0. -1.
          2    1    5    5  502    0  0.23771154897E+03 -0.64556459933E+02 -0.77114461374E+02  0.25811035854E+03  0.00000000000E+00 0. -1.
          1    1    6    6  503    0 -0.22769924457E+02  0.10550076027E+02  0.26264458698E+02  0.36326235074E+02  0.00000000000E+00 0. -1.
         -2    1    5    5    0  502  0.17541717626E+03 -0.59281842128E+01 -0.12983746514E+03  0.21832108567E+03  0.00000000000E+00 0.  1.
         -1    1    6    6    0  503 -0.12411232496E+03 -0.11952474989E+03  0.44792614243E+03  0.47992485257E+03  0.00000000000E+00 0.  1.
<mgrwt>
<rscale>  0 0.12928780E+04</rscale>
<asrwt>0</asrwt>
<pdfrwt beam="1">  1        2 0.72594750E-01 0.12928780E+04</pdfrwt>
<pdfrwt beam="2">  1       -2 0.13624581E+00 0.12928780E+04</pdfrwt>
<totfact> 0.24868493E+01</totfact>
</mgrwt>
</event>
<event>
12    1  0.5079315E-008  0.2074947E+04  0.7818608E-02  0.8572361E-01
         -1   -1    0    0    0  501 -0.00000000000E+00  0.00000000000E+00  0.76426869464E+03  0.76426869464E+03  0.00000000000E+00 0.  1.
          1   -1    0    0  501    0  0.00000000000E+00 -0.00000000000E+00 -0.14083409840E+04  0.14083409840E+04  0.00000000000E+00 0. -1.
         23    2    1    2    0    0  0.34550223816E+02 -0.69220560051E+03  0.25647319005E+03  0.74450776409E+03  0.90393596146E+02 0.  0.
        254    2    1    2    0    0 -0.34550223816E+02  0.69220560051E+03 -0.90054547941E+03  0.14281019146E+04  0.86495699694E+03 0.  0.
         23    2    4    4    0    0 -0.85660924744E+02  0.58054629011E+03 -0.10544511228E+04  0.12102074192E+04  0.91449648110E+02 0.  0.
         23    2    4    4    0    0  0.51110700928E+02  0.11165931040E+03  0.15390564343E+03  0.21789449532E+03  0.93332516628E+02 0.  0.
         11    1    3    3    0    0  0.29504008185E+02 -0.72137736572E+02  0.16905609486E+02  0.79750480681E+02  0.00000000000E+00 0. -1.
        -11    1    3    3    0    0  0.50462156311E+01 -0.62006786394E+03  0.23956758056E+03  0.66475728341E+03  0.00000000000E+00 0.  1.
          2    1    5    5  502    0 -0.81646407786E+02  0.51561533470E+03 -0.86983412222E+03  0.10144637546E+04  0.00000000000E+00 0. -1.
          3    1    6    6  503    0  0.50271375998E+02  0.78816884668E+02  0.15919910420E+03  0.18461762465E+03  0.00000000000E+00 0. -1.
         -2    1    5    5    0  502 -0.40145169575E+01  0.64930955409E+02 -0.18461700062E+03  0.19574366461E+03  0.00000000000E+00 0.  1.
         -3    1    6    6    0  503  0.83932492967E+00  0.32842425737E+02 -0.52934607661E+01  0.33276870668E+02  0.00000000000E+00 0.  1.
<mgrwt>
<rscale>  0 0.20749467E+04</rscale>
<asrwt>0</asrwt>
<pdfrwt beam="1">  1        1 0.21666784E+00 0.20749467E+04</pdfrwt>
<pdfrwt beam="2">  1       -1 0.11757980E+00 0.20749467E+04</pdfrwt>
<totfact> 0.45455730E+00</totfact>
</mgrwt>
</event>
<event>
12    1  0.4802930E-008  0.1930246E+04  0.7818608E-02  0.8639946E-01
         -1   -1    0    0    0  501 -0.00000000000E+00  0.00000000000E+00  0.72977485184E+03  0.72977485184E+03  0.00000000000E+00 0.  1.
          1   -1    0    0  501    0  0.00000000000E+00 -0.00000000000E+00 -0.12763696441E+04  0.12763696441E+04  0.00000000000E+00 0. -1.
         23    2    1    2    0    0  0.25998434641E+03 -0.82845689762E+02  0.51376398422E+03  0.58821921013E+03  0.87138619375E+02 0.  0.
        254    2    1    2    0    0 -0.25998434641E+03  0.82845689762E+02 -0.10603587765E+04  0.14179252859E+04  0.90094179203E+03 0.  0.
         23    2    4    4    0    0  0.26137161836E+03  0.34998789342E+02 -0.75895158565E+03  0.80774136569E+03  0.83057608613E+02 0.  0.
         23    2    4    4    0    0 -0.52135596477E+03  0.47846900421E+02 -0.30140719088E+03  0.61018392017E+03  0.85888030825E+02 0.  0.
         13    1    3    3    0    0  0.13146072539E+03 -0.84013570895E+02  0.24771679227E+03  0.29275213336E+03  0.00000000000E+00 0.  1.
        -13    1    3    3    0    0  0.12852362102E+03  0.11678811331E+01  0.26604719196E+03  0.29546707677E+03  0.00000000000E+00 0. -1.
          3    1    6    6  502    0 -0.45536091131E+03  0.35064945460E+02 -0.22734929703E+03  0.51016743605E+03  0.00000000000E+00 0. -1.
          3    1    5    5  503    0  0.21845685840E+03  0.58258299537E+02 -0.65440822456E+03  0.69236374314E+03  0.00000000000E+00 0. -1.
         -3    1    5    5    0  503  0.42914759957E+02 -0.23259510196E+02 -0.10454336109E+03  0.11537762255E+03  0.00000000000E+00 0.  1.
         -3    1    6    6    0  502 -0.65995053463E+02  0.12781954961E+02 -0.74057893848E+02  0.10001648412E+03  0.00000000000E+00 0.  1.
<mgrwt>
<rscale>  0 0.19302461E+04</rscale>
<asrwt>0</asrwt>
<pdfrwt beam="1">  1        1 0.19636456E+00 0.19302461E+04</pdfrwt>
<pdfrwt beam="2">  1       -1 0.11227305E+00 0.19302461E+04</pdfrwt>
<totfact> 0.63815052E+00</totfact>
</mgrwt>
</event>
<event>
12    1  0.4802930E-008  0.1189650E+04  0.7818608E-02  0.9121964E-01
          2   -1    0    0  501    0  0.00000000000E+00  0.00000000000E+00  0.31356083307E+04  0.31356083307E+04  0.00000000000E+00 0. -1.
         -2   -1    0    0    0  501 -0.00000000000E+00 -0.00000000000E+00 -0.11283835438E+03  0.11283835438E+03  0.00000000000E+00 0.  1.
         23    2    1    2    0    0 -0.34545948363E+02 -0.15028776742E+03  0.14871951309E+03  0.23335141085E+03  0.92496225790E+02 0.  0.
        254    2    1    2    0    0  0.34545948363E+02  0.15028776742E+03  0.28740504632E+04  0.30150952743E+04  0.89825030584E+03 0.  0.
         23    2    4    4    0    0 -0.19177978536E+03 -0.19724834553E+03  0.34641607002E+03  0.45185271867E+03  0.92089032534E+02 0.  0.
         23    2    4    4    0    0  0.22632573373E+03  0.34753611295E+03  0.25276343932E+04  0.25632425556E+04  0.96291668328E+02 0.  0.
         13    1    3    3    0    0 -0.26965375756E+02 -0.82190752430E+01  0.92244681177E+00  0.28205240570E+02  0.00000000000E+00 0.  1.
        -13    1    3    3    0    0 -0.75805726074E+01 -0.14206869218E+03  0.14779706628E+03  0.20514617028E+03  0.00000000000E+00 0. -1.
          2    1    5    5  502    0 -0.10915512856E+03 -0.49315370952E+02  0.16110499517E+03  0.20075275184E+03  0.00000000000E+00 0.  1.
          4    1    6    6  503    0  0.21848243974E+03  0.31671029520E+03  0.24370510412E+04  0.24672368684E+04  0.00000000000E+00 0.  1.
         -2    1    5    5    0  502 -0.82624656800E+02 -0.14793297457E+03  0.18531107485E+03  0.25109996683E+03  0.00000000000E+00 0. -1.
         -4    1    6    6    0  503  0.78432939820E+01  0.30825817748E+02  0.90583352029E+02  0.96005687150E+02  0.00000000000E+00 0. -1.
<mgrwt>
<rscale>  0 0.11896502E+04</rscale>
<asrwt>0</asrwt>
<pdfrwt beam="1">  1        2 0.48240121E+00 0.11896502E+04</pdfrwt>
<pdfrwt beam="2">  1       -2 0.17359749E-01 0.11896502E+04</pdfrwt>
<totfact> 0.39249163E+01</totfact>
</mgrwt>
</event>
<event>
12    1  0.4802930E-008  0.1529274E+04  0.7818608E-02  0.8865216E-01
          1   -1    0    0  501    0  0.00000000000E+00  0.00000000000E+00  0.16504851020E+04  0.16504851020E+04  0.00000000000E+00 0. -1.
         -1   -1    0    0    0  501 -0.00000000000E+00 -0.00000000000E+00 -0.35424117073E+03  0.35424117073E+03  0.00000000000E+00 0.  1.
         23    2    1    2    0    0  0.15943465813E+03 -0.30429800240E+03  0.89747956895E+03  0.96536169458E+03  0.91852818095E+02 0.  0.
        254    2    1    2    0    0 -0.15943465813E+03  0.30429800240E+03  0.39876436232E+03  0.10393645782E+04  0.89624161095E+03 0.  0.
         23    2    4    4    0    0 -0.22039779258E+03 -0.14407437346E+03 -0.15424566584E+03  0.31891283395E+03  0.92634001119E+02 0.  0.
         23    2    4    4    0    0  0.60963134453E+02  0.44837237586E+03  0.55301002816E+03  0.72045174421E+03  0.92067004372E+02 0.  0.
         13    1    3    3    0    0  0.22519058220E+02 -0.12862533393E+03  0.38610056133E+03  0.40758462675E+03  0.00000000000E+00 0. -1.
        -13    1    3    3    0    0  0.13691559991E+03 -0.17567266848E+03  0.51137900763E+03  0.55777706782E+03  0.00000000000E+00 0.  1.
          4    1    5    5  502    0 -0.21319660430E+03 -0.15572824210E+03 -0.15303082562E+03  0.30515981233E+03  0.00000000000E+00 0. -1.
          1    1    6    6  503    0  0.79209622130E+02  0.27425689108E+03  0.36798575494E+03  0.46573009607E+03  0.00000000000E+00 0. -1.
         -4    1    5    5    0  502 -0.72011882813E+01  0.11653868635E+02 -0.12148402167E+01  0.13753021616E+02  0.00000000000E+00 0.  1.
         -1    1    6    6    0  503 -0.18246487676E+02  0.17411548479E+03  0.18502427322E+03  0.25472164815E+03  0.00000000000E+00 0.  1.
<mgrwt>
<rscale>  0 0.15292740E+04</rscale>
<asrwt>0</asrwt>
<pdfrwt beam="1">  1        1 0.25392078E+00 0.15292740E+04</pdfrwt>
<pdfrwt beam="2">  1       -1 0.54498643E-01 0.15292740E+04</pdfrwt>
<totfact> 0.16911204E+01</totfact>
</mgrwt>
</event>
<event>
12    1  0.4802930E-008  0.2820197E+04  0.7818608E-02  0.8297025E-01
          1   -1    0    0  501    0  0.00000000000E+00  0.00000000000E+00  0.20673500128E+04  0.20673500128E+04  0.00000000000E+00 0. -1.
         -1   -1    0    0    0  501 -0.00000000000E+00 -0.00000000000E+00 -0.96180002717E+03  0.96180002717E+03  0.00000000000E+00 0.  1.
         23    2    1    2    0    0 -0.10423643516E+04  0.80447316447E+02 -0.27082183620E+03  0.10834110746E+04  0.86254723774E+02 0.  0.
        254    2    1    2    0    0  0.10423643516E+04 -0.80447316447E+02  0.13763718218E+04  0.19457389654E+04  0.89359135919E+03 0.  0.
         23    2    4    4    0    0  0.19487523928E+03 -0.93015056075E+02 -0.88005070468E+02  0.25136606622E+03  0.93871440155E+02 0.  0.
         23    2    4    4    0    0  0.84748911232E+03  0.12567739628E+02  0.14643768923E+04  0.16943728991E+04  0.90022747670E+02 0.  0.
         13    1    3    3    0    0 -0.83423475937E+03  0.29807176446E+02 -0.21966820260E+03  0.86318608697E+03  0.00000000000E+00 0.  1.
        -13    1    3    3    0    0 -0.20812959223E+03  0.50640140002E+02 -0.51153633602E+02  0.22022498762E+03  0.00000000000E+00 0. -1.
          2    1    5    5  502    0  0.32142317275E+02  0.18444296160E+02 -0.23325121490E+02  0.43787919717E+02  0.00000000000E+00 0. -1.
          3    1    6    6  503    0  0.31705423146E+03 -0.38766534669E+02  0.54302925312E+03  0.63000555525E+03  0.00000000000E+00 0. -1.
         -2    1    5    5    0  502  0.16273292201E+03 -0.11145935223E+03 -0.64679948978E+02  0.20757814650E+03  0.00000000000E+00 0.  1.
         -3    1    6    6    0  503  0.53043488086E+03  0.51334274297E+02  0.92134763917E+03  0.10643673439E+04  0.00000000000E+00 0.  1.
<mgrwt>
<rscale>  0 0.28201967E+04</rscale>
<asrwt>0</asrwt>
<pdfrwt beam="1">  1        1 0.31805385E+00 0.28201967E+04</pdfrwt>
<pdfrwt beam="2">  1       -1 0.14796924E+00 0.28201967E+04</pdfrwt>
<totfact> 0.83884685E-01</totfact>
</mgrwt>
</event>
<event>
12    1  0.4802930E-008  0.1811590E+04  0.7818608E-02  0.8700160E-01
         -2   -1    0    0    0  501 -0.00000000000E+00  0.00000000000E+00  0.54788375700E+03  0.54788375700E+03  0.00000000000E+00 0.  1.
          2   -1    0    0  501    0  0.00000000000E+00 -0.00000000000E+00 -0.14975156159E+04  0.14975156159E+04  0.00000000000E+00 0. -1.
         23    2    1    2    0    0 -0.14835644660E+03 -0.62604594115E+03 -0.60783135480E+03  0.88971266598E+03  0.90479370338E+02 0.  0.
        254    2    1    2    0    0  0.14835644660E+03  0.62604594115E+03 -0.34180050406E+03  0.11556867069E+04  0.89712932413E+03 0.  0.
         23    2    4    4    0    0  0.29177761153E+03  0.17819813562E+03 -0.53295567557E+03  0.63989296756E+03  0.92371574025E+02 0.  0.
         23    2    4    4    0    0 -0.14342116493E+03  0.44784780553E+03  0.19115517151E+03  0.51579373932E+03  0.91463623687E+02 0.  0.
         13    1    3    3    0    0 -0.41849944721E+02 -0.34923848457E+03 -0.30070461822E+03  0.46275501553E+03  0.00000000000E+00 0. -1.
        -13    1    3    3    0    0 -0.10650650188E+03 -0.27680745658E+03 -0.30712673658E+03  0.42695765045E+03  0.00000000000E+00 0.  1.
          4    1    5    5  502    0  0.29734004345E+03  0.16976156304E+03 -0.52602145424E+03  0.62763736349E+03  0.00000000000E+00 0. -1.
          3    1    6    6  503    0 -0.13576522403E+03  0.28223213986E+03  0.12040236956E+03  0.33553525511E+03  0.00000000000E+00 0. -1.
         -4    1    5    5    0  502 -0.55624319236E+01  0.84365725774E+01 -0.69342213257E+01  0.12255604071E+02  0.00000000000E+00 0.  1.
         -3    1    6    6    0  503 -0.76559409062E+01  0.16561566567E+03  0.70752801944E+02  0.18025848421E+03  0.00000000000E+00 0.  1.
<mgrwt>
<rscale>  0 0.18115899E+04</rscale>
<asrwt>0</asrwt>
<pdfrwt beam="1">  1        2 0.23038701E+00 0.18115899E+04</pdfrwt>
<pdfrwt beam="2">  1       -2 0.84289811E-01 0.18115899E+04</pdfrwt>
<totfact> 0.14752254E+01</totfact>
</mgrwt>
</event>
<event>
12    1  0.4802930E-008  0.1224955E+04  0.7818608E-02  0.9091290E-01
         -2   -1    0    0    0  501 -0.00000000000E+00  0.00000000000E+00  0.10462624561E+04  0.10462624561E+04  0.00000000000E+00 0.  1.
          2   -1    0    0  501    0  0.00000000000E+00 -0.00000000000E+00 -0.35854164694E+03  0.35854164694E+03  0.00000000000E+00 0. -1.
         23    2    1    2    0    0 -0.94514748611E+02  0.19391058285E+03  0.34566674406E+03  0.41813398499E+03  0.93894513210E+02 0.  0.
        254    2    1    2    0    0  0.94514748611E+02 -0.19391058285E+03  0.34205406512E+03  0.98667011807E+03  0.89999032583E+03 0.  0.
         23    2    4    4    0    0  0.27417985731E+03  0.18199263073E+03 -0.11694224669E+03  0.36016864910E+03  0.88034396311E+02 0.  0.
         23    2    4    4    0    0 -0.17966510870E+03 -0.37590321358E+03  0.45899631181E+03  0.62650146897E+03  0.90794818724E+02 0.  0.
         11    1    3    3    0    0  0.33499711260E+01  0.90734359938E+02  0.10719574627E+03  0.14048086844E+03  0.00000000000E+00 0. -1.
        -11    1    3    3    0    0 -0.97864719737E+02  0.10317622291E+03  0.23847099778E+03  0.27765311655E+03  0.00000000000E+00 0.  1.
          3    1    6    6  502    0 -0.24671024012E+02 -0.86566912567E+02  0.15432784079E+03  0.17866049429E+03  0.00000000000E+00 0. -1.
          3    1    5    5  503    0  0.15512217777E+03  0.93269124411E+02 -0.10940147694E+03  0.21149634219E+03  0.00000000000E+00 0. -1.
         -3    1    5    5    0  503  0.11905767954E+03  0.88723506321E+02 -0.75407697558E+01  0.14867230690E+03  0.00000000000E+00 0.  1.
         -3    1    6    6    0  502 -0.15499408469E+03 -0.28933630101E+03  0.30466847102E+03  0.44784097469E+03  0.00000000000E+00 0.  1.
<mgrwt>
<rscale>  0 0.12249550E+04</rscale>
<asrwt>0</asrwt>
<pdfrwt beam="1">  1        2 0.55160254E-01 0.12249550E+04</pdfrwt>
<pdfrwt beam="2">  1       -2 0.16096345E+00 0.12249550E+04</pdfrwt>
<totfact> 0.21930686E+01</totfact>
</mgrwt>
</event>
<event>
12    1  0.4802930E-008  0.2292948E+04  0.7818608E-02  0.8480707E-01
          2   -1    0    0  501    0  0.00000000000E+00  0.00000000000E+00  0.10540709009E+04  0.10540709009E+04  0.00000000000E+00 0. -1.
         -2   -1    0    0    0  501 -0.00000000000E+00 -0.00000000000E+00 -0.12469774827E+04  0.12469774827E+04  0.00000000000E+00 0.  1.
         23    2    1    2    0    0  0.51699640409E+03  0.64277408241E+03  0.42735754578E+03  0.93317990097E+03  0.88013935028E+02 0.  0.
        254    2    1    2    0    0 -0.51699640409E+03 -0.64277408241E+03 -0.62026412765E+03  0.13678684827E+04  0.89771531953E+03 0.  0.
         23    2    4    4    0    0 -0.37046394313E+03 -0.51674061025E+03  0.69221966158E+02  0.64582618894E+03  0.89640360737E+02 0.  0.
         23    2    4    4    0    0 -0.14653246097E+03 -0.12603347216E+03 -0.68948609381E+03  0.72204229372E+03  0.92724334097E+02 0.  0.
         13    1    3    3    0    0  0.51087886042E+03  0.61661930140E+03  0.40102811892E+03  0.89556692941E+03  0.00000000000E+00 0. -1.
        -13    1    3    3    0    0  0.61175436704E+01  0.26154781015E+02  0.26329426859E+02  0.37612971555E+02  0.00000000000E+00 0.  1.
          4    1    5    5  502    0 -0.14007133875E+03 -0.19369356588E+03 -0.17496103647E+02  0.23967330065E+03  0.00000000000E+00 0. -1.
          1    1    6    6  503    0 -0.91761031870E+01 -0.60625421993E+02 -0.16908117966E+03  0.17985574213E+03  0.00000000000E+00 0. -1.
         -4    1    5    5    0  502 -0.23039260438E+03 -0.32304704438E+03  0.86718069805E+02  0.40615288829E+03  0.00000000000E+00 0.  1.
         -1    1    6    6    0  503 -0.13735635778E+03 -0.65408050168E+02 -0.52040491415E+03  0.54218655159E+03  0.00000000000E+00 0.  1.
<mgrwt>
<rscale>  0 0.22929480E+04</rscale>
<asrwt>0</asrwt>
<pdfrwt beam="1">  1        2 0.16216475E+00 0.22929480E+04</pdfrwt>
<pdfrwt beam="2">  1       -2 0.19184269E+00 0.22929480E+04</pdfrwt>
<totfact> 0.31797916E+00</totfact>
</mgrwt>
</event>
<event>
12    1  0.4802930E-008  0.2280996E+04  0.7818608E-02  0.8485452E-01
          1   -1    0    0  501    0  0.00000000000E+00  0.00000000000E+00  0.14975668827E+04  0.14975668827E+04  0.00000000000E+00 0. -1.
         -1   -1    0    0    0  501 -0.00000000000E+00 -0.00000000000E+00 -0.86856626943E+03  0.86856626943E+03  0.00000000000E+00 0.  1.
         23    2    1    2    0    0 -0.34810406725E+03 -0.19780093707E+03 -0.63993516025E+03  0.76047583826E+03  0.92221683500E+02 0.  0.
        254    2    1    2    0    0  0.34810406725E+03  0.19780093707E+03  0.12689357735E+04  0.16056573138E+04  0.89868557345E+03 0.  0.
         23    2    4    4    0    0  0.64006566089E+03  0.19732662767E+03  0.88913348456E+03  0.11167654224E+04  0.89357747500E+02 0.  0.
         23    2    4    4    0    0 -0.29196159364E+03  0.47430939953E+00  0.37980228893E+03  0.48889189146E+03  0.97589475513E+02 0.  0.
         11    1    3    3    0    0 -0.92178116982E+02 -0.79728143332E+02 -0.13255350301E+03  0.18006613576E+03  0.00000000000E+00 0. -1.
        -11    1    3    3    0    0 -0.25592595027E+03 -0.11807279374E+03 -0.50738165725E+03  0.58040970250E+03  0.00000000000E+00 0.  1.
          3    1    5    5  502    0  0.89484652021E+02  0.61573052013E+02  0.13881065241E+03  0.17625873285E+03  0.00000000000E+00 0. -1.
          3    1    6    6  503    0 -0.12556430349E+03 -0.44127179197E+02  0.19661915964E+03  0.23742934989E+03  0.00000000000E+00 0. -1.
         -3    1    5    5    0  502  0.55058100886E+03  0.13575357565E+03  0.75032283215E+03  0.94050668954E+03  0.00000000000E+00 0.  1.
         -3    1    6    6    0  503 -0.16639729015E+03  0.44601488596E+02  0.18318312929E+03  0.25146254156E+03  0.00000000000E+00 0.  1.
<mgrwt>
<rscale>  0 0.22809963E+04</rscale>
<asrwt>0</asrwt>
<pdfrwt beam="1">  1        1 0.23039490E+00 0.22809963E+04</pdfrwt>
<pdfrwt beam="2">  1       -1 0.13362558E+00 0.22809963E+04</pdfrwt>
<totfact> 0.28116413E+00</totfact>
</mgrwt>
</event>
<event>
12    1  0.4802930E-008  0.1532166E+04  0.7818608E-02  0.8863341E-01
          1   -1    0    0  501    0  0.00000000000E+00  0.00000000000E+00  0.15518644902E+04  0.15518644902E+04  0.00000000000E+00 0. -1.
         -1   -1    0    0    0  501 -0.00000000000E+00 -0.00000000000E+00 -0.37817917229E+03  0.37817917229E+03  0.00000000000E+00 0.  1.
         23    2    1    2    0    0  0.33060126968E+03  0.10963557370E+03  0.82967662724E+03  0.90438287991E+03  0.90707933233E+02 0.  0.
        254    2    1    2    0    0 -0.33060126968E+03 -0.10963557370E+03  0.34400869063E+03  0.10256607825E+04  0.90128846829E+03 0.  0.
         23    2    4    4    0    0 -0.23633185863E+03  0.30793797452E+03  0.42372220559E+03  0.58145678729E+03  0.88729614159E+02 0.  0.
         23    2    4    4    0    0 -0.94269411054E+02 -0.41757354822E+03 -0.79713514955E+02  0.44420399525E+03  0.87798376388E+02 0.  0.
         13    1    3    3    0    0  0.29198819859E+03  0.90171751527E+02  0.63165696118E+03  0.70169692140E+03  0.00000000000E+00 0. -1.
        -13    1    3    3    0    0  0.38613071092E+02  0.19463822175E+02  0.19801966606E+03  0.20268595851E+03  0.00000000000E+00 0.  1.
          4    1    5    5  502    0 -0.80734953630E+02  0.44434637647E+02  0.10030244467E+03  0.13620994885E+03  0.00000000000E+00 0. -1.
          4    1    6    6  503    0 -0.92662031293E+02 -0.41207604293E+03 -0.90535108105E+02  0.43196009422E+03  0.00000000000E+00 0.  1.
         -4    1    5    5    0  502 -0.15559690500E+03  0.26350333687E+03  0.32341976092E+03  0.44524683844E+03  0.00000000000E+00 0.  1.
         -4    1    6    6    0  503 -0.16073797615E+01 -0.54975052911E+01  0.10821593150E+02  0.12243901030E+02  0.00000000000E+00 0. -1.
<mgrwt>
<rscale>  0 0.15321656E+04</rscale>
<asrwt>0</asrwt>
<pdfrwt beam="1">  1        1 0.23874838E+00 0.15321656E+04</pdfrwt>
<pdfrwt beam="2">  1       -1 0.58181412E-01 0.15321656E+04</pdfrwt>
<totfact> 0.17392109E+01</totfact>
</mgrwt>
</event>
<event>
12    1  0.4802930E-008  0.1474247E+04  0.7818608E-02  0.8901761E-01
          1   -1    0    0  501    0  0.00000000000E+00  0.00000000000E+00  0.14799114724E+04  0.14799114724E+04  0.00000000000E+00 0. -1.
         -1   -1    0    0    0  501 -0.00000000000E+00 -0.00000000000E+00 -0.36715109338E+03  0.36715109338E+03  0.00000000000E+00 0.  1.
         23    2    1    2    0    0  0.14858970582E+03  0.31411165798E+03 -0.10002015549E+02  0.36111573161E+03  0.97772679964E+02 0.  0.
        254    2    1    2    0    0 -0.14858970582E+03 -0.31411165798E+03  0.11227623946E+04  0.14859468342E+04  0.90922910476E+03 0.  0.
         23    2    4    4    0    0  0.34159132027E+02 -0.16941329077E+03 -0.11281260060E+03  0.22535888903E+03  0.90510975128E+02 0.  0.
         23    2    4    4    0    0 -0.18274883785E+03 -0.14469836721E+03  0.12355749952E+04  0.12605879451E+04  0.90009130276E+02 0.  0.
         13    1    3    3    0    0  0.64844729579E+02  0.22773899518E+03 -0.31589274088E+02  0.23888861655E+03  0.00000000000E+00 0.  1.
        -13    1    3    3    0    0  0.83744976242E+02  0.86372662801E+02  0.21587258540E+02  0.12222711506E+03  0.00000000000E+00 0. -1.
          2    1    5    5  502    0  0.36407561801E+02 -0.14831559817E+02 -0.13297420655E+02  0.41500688175E+02  0.00000000000E+00 0. -1.
          2    1    6    6  503    0 -0.12654127575E+03 -0.51033724908E+02  0.56963492067E+03  0.58574830635E+03  0.00000000000E+00 0. -1.
         -2    1    5    5    0  502 -0.22484297741E+01 -0.15458173096E+03 -0.99515179943E+02  0.18385820085E+03  0.00000000000E+00 0.  1.
         -2    1    6    6    0  503 -0.56207562097E+02 -0.93664642301E+02  0.66594007450E+03  0.67483963879E+03  0.00000000000E+00 0.  1.
<mgrwt>
<rscale>  0 0.14742471E+04</rscale>
<asrwt>0</asrwt>
<pdfrwt beam="1">  1        1 0.22767868E+00 0.14742471E+04</pdfrwt>
<pdfrwt beam="2">  1       -1 0.56484784E-01 0.14742471E+04</pdfrwt>
<totfact> 0.20770136E+01</totfact>
</mgrwt>
</event>
<event>
12    1  0.4802930E-008  0.2324850E+04  0.7818608E-02  0.8468187E-01
         -1   -1    0    0    0  501 -0.00000000000E+00  0.00000000000E+00  0.11535126884E+04  0.11535126884E+04  0.00000000000E+00 0.  1.
          1   -1    0    0  501    0  0.00000000000E+00 -0.00000000000E+00 -0.11714066325E+04  0.11714066325E+04  0.00000000000E+00 0. -1.
         23    2    1    2    0    0 -0.69393340613E+03  0.66111940637E+03 -0.22006726862E+03  0.98787422710E+03  0.94039588606E+02 0.  0.
        254    2    1    2    0    0  0.69393340613E+03 -0.66111940637E+03  0.20217332449E+03  0.13370450938E+04  0.91005114590E+03 0.  0.
         23    2    4    4    0    0  0.60335703440E+03 -0.86802576858E+03  0.24573563055E+03  0.10894201185E+04  0.94560819545E+02 0.  0.
         23    2    4    4    0    0  0.90576371725E+02  0.20690636222E+03 -0.43562306064E+02  0.24762497531E+03  0.91684960861E+02 0.  0.
         11    1    3    3    0    0 -0.58694003139E+03  0.53743079937E+03 -0.14943102534E+03  0.80972840873E+03  0.00000000000E+00 0.  1.
        -11    1    3    3    0    0 -0.10699337474E+03  0.12368860700E+03 -0.70636243279E+02  0.17814581837E+03  0.00000000000E+00 0. -1.
          1    1    5    5  502    0  0.58122318865E+03 -0.85820494700E+03  0.23436189804E+03  0.10626672223E+04  0.00000000000E+00 0. -1.
          3    1    6    6  503    0  0.10200731967E+03  0.18462784901E+03 -0.57945818583E+02  0.21874792294E+03  0.00000000000E+00 0. -1.
         -1    1    5    5    0  502  0.22133845758E+02 -0.98208215798E+01  0.11373732514E+02  0.26752896214E+02  0.00000000000E+00 0.  1.
         -3    1    6    6    0  503 -0.11430947946E+02  0.22278513203E+02  0.14383512519E+02  0.28877052376E+02  0.00000000000E+00 0.  1.
<mgrwt>
<rscale>  0 0.23248505E+04</rscale>
<asrwt>0</asrwt>
<pdfrwt beam="1">  1        1 0.18021641E+00 0.23248505E+04</pdfrwt>
<pdfrwt beam="2">  1       -1 0.17746349E+00 0.23248505E+04</pdfrwt>
<totfact> 0.21959156E+00</totfact>
</mgrwt>
</event>
<event>
12    1  0.4802930E-008  0.2077581E+04  0.7818608E-02  0.8571184E-01
         -2   -1    0    0    0  501 -0.00000000000E+00  0.00000000000E+00  0.88821754935E+03  0.88821754935E+03  0.00000000000E+00 0.  1.
          2   -1    0    0  501    0  0.00000000000E+00 -0.00000000000E+00 -0.12148894093E+04  0.12148894093E+04  0.00000000000E+00 0. -1.
         23    2    1    2    0    0 -0.26953944597E+03 -0.16763916935E+03 -0.91962292734E+03  0.97731138737E+03  0.93149424945E+02 0.  0.
        254    2    1    2    0    0  0.26953944597E+03  0.16763916935E+03  0.59295106737E+03  0.11257955713E+04  0.90281243680E+03 0.  0.
         23    2    4    4    0    0  0.43738943993E+03  0.30607741560E+03  0.68484902369E+03  0.87319277531E+03  0.91948524140E+02 0.  0.
         23    2    4    4    0    0 -0.16784999396E+03 -0.13843824625E+03 -0.91897956326E+02  0.25260279600E+03  0.89577729773E+02 0.  0.
         13    1    3    3    0    0 -0.23640975361E+03 -0.17569685764E+03 -0.85384234821E+03  0.90321963718E+03  0.00000000000E+00 0. -1.
        -13    1    3    3    0    0 -0.33129692359E+02  0.80576882923E+01 -0.65780579131E+02  0.74091750196E+02  0.00000000000E+00 0.  1.
          2    1    5    5  502    0  0.25141341170E+03  0.14003943671E+03  0.42325158637E+03  0.51182189557E+03  0.00000000000E+00 0.  1.
          3    1    6    6  503    0 -0.29469485234E+02 -0.35750871806E+02  0.16319050501E+02  0.49121144165E+02  0.00000000000E+00 0. -1.
         -2    1    5    5    0  502  0.18597602823E+03  0.16603797889E+03  0.26159743732E+03  0.36137087974E+03  0.00000000000E+00 0. -1.
         -3    1    6    6    0  503 -0.13838050872E+03 -0.10268737445E+03 -0.10821700683E+03  0.20348165183E+03  0.00000000000E+00 0.  1.
<mgrwt>
<rscale>  0 0.20775814E+04</rscale>
<asrwt>0</asrwt>
<pdfrwt beam="1">  1        2 0.18690606E+00 0.20775814E+04</pdfrwt>
<pdfrwt beam="2">  1       -2 0.13664885E+00 0.20775814E+04</pdfrwt>
<totfact> 0.65528094E+00</totfact>
</mgrwt>
</event>
<event>
12    1  0.4802930E-008  0.2414593E+04  0.7818608E-02  0.8434060E-01
         -2   -1    0    0    0  501 -0.00000000000E+00  0.00000000000E+00  0.64134008591E+03  0.64134008591E+03  0.00000000000E+00 0.  1.
          2   -1    0    0  501    0  0.00000000000E+00 -0.00000000000E+00 -0.22726859449E+04  0.22726859449E+04  0.00000000000E+00 0. -1.
         23    2    1    2    0    0  0.51526084246E+03  0.14807077300E+03 -0.17719852251E+04  0.18534661328E+04  0.89366534777E+02 0.  0.
        254    2    1    2    0    0 -0.51526084246E+03 -0.14807077300E+03  0.14063936612E+03  0.10605598981E+04  0.90420637940E+03 0.  0.
         23    2    4    4    0    0 -0.72781128277E+03 -0.25888826547E+03  0.18817623606E+03  0.80035988624E+03  0.91832752125E+02 0.  0.
         23    2    4    4    0    0  0.21255044031E+03  0.11081749247E+03 -0.47536869943E+02  0.26020001185E+03  0.89364902786E+02 0.  0.
         13    1    3    3    0    0  0.48481350439E+03  0.14272327468E+03 -0.17225768726E+04  0.17951838761E+04  0.00000000000E+00 0. -1.
        -13    1    3    3    0    0  0.30447338076E+02  0.53474983241E+01 -0.49408352594E+02  0.58282256651E+02  0.00000000000E+00 0.  1.
          2    1    5    5  502    0 -0.36313414076E+03 -0.16221576528E+03  0.61852727787E+02  0.40249983681E+03  0.00000000000E+00 0. -1.
          1    1    6    6  503    0  0.76399141432E+02  0.73266330993E+02  0.12786441915E+02  0.10662212325E+03  0.00000000000E+00 0. -1.
         -2    1    5    5    0  502 -0.36467714201E+03 -0.96672500181E+02  0.12632350827E+03  0.39786004944E+03  0.00000000000E+00 0.  1.
         -1    1    6    6    0  503  0.13615129888E+03  0.37551161472E+02 -0.60323311858E+02  0.15357788860E+03  0.00000000000E+00 0.  1.
<mgrwt>
<rscale>  0 0.24145928E+04</rscale>
<asrwt>0</asrwt>
<pdfrwt beam="1">  1        2 0.34964399E+00 0.24145928E+04</pdfrwt>
<pdfrwt beam="2">  1       -2 0.98667705E-01 0.24145928E+04</pdfrwt>
<totfact> 0.35973609E+00</totfact>
</mgrwt>
</event>
<event>
12    1  0.4802930E-008  0.1587413E+04  0.7818608E-02  0.8828318E-01
         -1   -1    0    0    0  501 -0.00000000000E+00  0.00000000000E+00  0.18561635846E+03  0.18561635846E+03  0.00000000000E+00 0.  1.
          1   -1    0    0  501    0  0.00000000000E+00 -0.00000000000E+00 -0.33939345315E+04  0.33939345315E+04  0.00000000000E+00 0. -1.
         23    2    1    2    0    0 -0.22749841215E+03 -0.37870450670E+03 -0.42336581600E+03  0.61928904342E+03  0.95434135477E+02 0.  0.
        254    2    1    2    0    0  0.22749841215E+03  0.37870450670E+03 -0.27849523570E+04  0.29602618465E+04  0.90112037944E+03 0.  0.
         23    2    4    4    0    0  0.32975136432E+02 -0.10274065666E+03 -0.20567910294E+04  0.20618502221E+04  0.95885335224E+02 0.  0.
         23    2    4    4    0    0  0.19452327572E+03  0.48144516336E+03 -0.72816132761E+03  0.89841162444E+03  0.85415325297E+02 0.  0.
         13    1    3    3    0    0 -0.18243108704E+02 -0.15095632506E+02 -0.59188969143E+02  0.63749691797E+02  0.00000000000E+00 0. -1.
        -13    1    3    3    0    0 -0.20925530344E+03 -0.36360887419E+03 -0.36417684686E+03  0.55553935162E+03  0.00000000000E+00 0.  1.
          4    1    5    5  502    0  0.12582044140E+02  0.62704086657E+01 -0.48418593099E+02  0.50418111997E+02  0.00000000000E+00 0. -1.
          4    1    6    6  503    0  0.13528425093E+03  0.29608761773E+03 -0.38749611669E+03  0.50608590809E+03  0.00000000000E+00 0. -1.
         -4    1    5    5    0  502  0.20393092292E+02 -0.10901106533E+03 -0.20083724363E+04  0.20114321101E+04  0.00000000000E+00 0.  1.
         -4    1    6    6    0  503  0.59239024787E+02  0.18535754563E+03 -0.34066521092E+03  0.39232571635E+03  0.00000000000E+00 0.  1.
<mgrwt>
<rscale>  0 0.15874127E+04</rscale>
<asrwt>0</asrwt>
<pdfrwt beam="1">  1        1 0.52214372E+00 0.15874127E+04</pdfrwt>
<pdfrwt beam="2">  1       -1 0.28556366E-01 0.15874127E+04</pdfrwt>
<totfact> 0.32602700E+00</totfact>
</mgrwt>
</event>
<event>
12    1  0.4802930E-008  0.1705219E+04  0.7818608E-02  0.8758393E-01
          2   -1    0    0  501    0  0.00000000000E+00  0.00000000000E+00  0.11457675616E+04  0.11457675616E+04  0.00000000000E+00 0. -1.
         -2   -1    0    0    0  501 -0.00000000000E+00 -0.00000000000E+00 -0.63445918568E+03  0.63445918568E+03  0.00000000000E+00 0.  1.
         23    2    1    2    0    0  0.78930085399E+02 -0.31165875155E+03  0.76184019052E+03  0.83203958389E+03  0.92348565019E+02 0.  0.
        254    2    1    2    0    0 -0.78930085399E+02  0.31165875155E+03 -0.25053181460E+03  0.94818716340E+03  0.85611422773E+03 0.  0.
         23    2    4    4    0    0 -0.24176368534E+03 -0.22736697720E+03 -0.92100972208E+02  0.35620728951E+03  0.90860454267E+02 0.  0.
         23    2    4    4    0    0  0.16283359994E+03  0.53902572875E+03 -0.15843084239E+03  0.59197987389E+03  0.90974291693E+02 0.  0.
         11    1    3    3    0    0  0.99045787292E+02 -0.25548589799E+03  0.64676179458E+03  0.70241293481E+03  0.00000000000E+00 0. -1.
        -11    1    3    3    0    0 -0.20115701893E+02 -0.56172853562E+02  0.11507839594E+03  0.12962664908E+03  0.00000000000E+00 0.  1.
          1    1    5    5  502    0 -0.19225855232E+03 -0.13840297866E+03 -0.34965449581E+02  0.23946047295E+03  0.00000000000E+00 0. -1.
          1    1    6    6  503    0  0.16438735227E+03  0.42427766319E+03 -0.11537745161E+03  0.46941100691E+03  0.00000000000E+00 0. -1.
         -1    1    5    5    0  502 -0.49505133027E+02 -0.88963998539E+02 -0.57135522627E+02  0.11674681656E+03  0.00000000000E+00 0.  1.
         -1    1    6    6    0  503 -0.15537523240E+01  0.11474806555E+03 -0.43053390781E+02  0.12256886698E+03  0.00000000000E+00 0.  1.
<mgrwt>
<rscale>  0 0.17052188E+04</rscale>
<asrwt>0</asrwt>
<pdfrwt beam="1">  1        2 0.17627193E+00 0.17052188E+04</pdfrwt>
<pdfrwt beam="2">  1       -2 0.97609106E-01 0.17052188E+04</pdfrwt>
<totfact> 0.16992580E+01</totfact>
</mgrwt>
</event>
<event>
12    1  0.4802930E-008  0.3030811E+04  0.7818608E-02  0.8234987E-01
          2   -1    0    0  501    0  0.00000000000E+00  0.00000000000E+00  0.19292441624E+04  0.19292441624E+04  0.00000000000E+00 0.  1.
         -2   -1    0    0    0  501 -0.00000000000E+00 -0.00000000000E+00 -0.11903385375E+04  0.11903385375E+04  0.00000000000E+00 0. -1.
         23    2    1    2    0    0  0.33845588937E+03  0.13588426319E+04  0.28602671883E+03  0.14321013843E+04  0.89985575639E+02 0.  0.
        254    2    1    2    0    0 -0.33845588937E+03 -0.13588426319E+04  0.45287890605E+03  0.16874813155E+04  0.82552298551E+03 0.  0.
         23    2    4    4    0    0 -0.51676115023E+03 -0.69998815618E+03  0.20770783996E+02  0.87446381140E+03  0.85029564270E+02 0.  0.
         23    2    4    4    0    0  0.17830526086E+03 -0.65885447567E+03  0.43210812205E+03  0.81301750415E+03  0.91640857437E+02 0.  0.
         13    1    3    3    0    0  0.12685632619E+03  0.66162166151E+03  0.11107902741E+03  0.68276958104E+03  0.00000000000E+00 0. -1.
        -13    1    3    3    0    0  0.21159956318E+03  0.69722097034E+03  0.17494769142E+03  0.74933180325E+03  0.00000000000E+00 0.  1.
          2    1    5    5  502    0 -0.47322572809E+03 -0.67171593664E+03  0.11624866521E+02  0.82175423746E+03  0.00000000000E+00 0. -1.
          3    1    6    6  503    0  0.17178937953E+03 -0.55809946008E+03  0.39703914906E+03  0.70613503252E+03  0.00000000000E+00 0. -1.
         -2    1    5    5    0  502 -0.43535422138E+02 -0.28272219547E+02  0.91459174751E+01  0.52709573944E+02  0.00000000000E+00 0.  1.
         -3    1    6    6    0  503  0.65158813250E+01 -0.10075501558E+03  0.35068972993E+02  0.10688247163E+03  0.00000000000E+00 0.  1.
<mgrwt>
<rscale>  0 0.30308109E+04</rscale>
<asrwt>0</asrwt>
<pdfrwt beam="1">  1        2 0.29680679E+00 0.30308109E+04</pdfrwt>
<pdfrwt beam="2">  1       -2 0.18312901E+00 0.30308109E+04</pdfrwt>
<totfact> 0.10778431E+00</totfact>
</mgrwt>
</event>
<event>
12    1  0.4802930E-008  0.1324811E+04  0.7818608E-02  0.9010118E-01
          2   -1    0    0  501    0  0.00000000000E+00  0.00000000000E+00  0.79646021890E+03  0.79646021890E+03  0.00000000000E+00 0. -1.
         -2   -1    0    0    0  501 -0.00000000000E+00 -0.00000000000E+00 -0.55091432053E+03  0.55091432053E+03  0.00000000000E+00 0.  1.
         23    2    1    2    0    0 -0.30394579579E+03 -0.20041229470E+03  0.79285809284E+02  0.38340266982E+03  0.90350611651E+02 0.  0.
        254    2    1    2    0    0  0.30394579579E+03  0.20041229470E+03  0.16626008909E+03  0.96397186961E+03  0.87695565084E+03 0.  0.
         23    2    4    4    0    0 -0.16202966529E+03 -0.49791971405E+02 -0.22777356489E+03  0.29823856720E+03  0.91283039246E+02 0.  0.
         23    2    4    4    0    0  0.46597546107E+03  0.25020426611E+03  0.39403365398E+03  0.66573330241E+03  0.90570438733E+02 0.  0.
         11    1    3    3    0    0 -0.27576748193E+03 -0.16063980828E+03  0.41711079053E+02  0.32185814610E+03  0.00000000000E+00 0.  1.
        -11    1    3    3    0    0 -0.28178313859E+02 -0.39772486424E+02  0.37574730231E+02  0.61544523722E+02  0.00000000000E+00 0. -1.
          2    1    5    5  502    0 -0.87267076807E+02 -0.70404923635E+02 -0.10891115620E+03  0.15631390185E+03  0.00000000000E+00 0. -1.
          4    1    6    6  503    0  0.36928159431E+03  0.17794189723E+03  0.34372355734E+03  0.53495616508E+03  0.00000000000E+00 0. -1.
         -2    1    5    5    0  502 -0.74762588481E+02  0.20612952230E+02 -0.11886240868E+03  0.14192466535E+03  0.00000000000E+00 0.  1.
         -4    1    6    6    0  503  0.96693866764E+02  0.72262368876E+02  0.50310096641E+02  0.13077713733E+03  0.00000000000E+00 0.  1.
<mgrwt>
<rscale>  0 0.13248114E+04</rscale>
<asrwt>0</asrwt>
<pdfrwt beam="1">  1        2 0.12253234E+00 0.13248114E+04</pdfrwt>
<pdfrwt beam="2">  1       -2 0.84756050E-01 0.13248114E+04</pdfrwt>
<totfact> 0.41137075E+01</totfact>
</mgrwt>
</event>
<event>
12    1  0.4802930E-008  0.1278864E+04  0.7818608E-02  0.9046496E-01
         -4   -1    0    0    0  501 -0.00000000000E+00  0.00000000000E+00  0.96569759961E+03  0.96569759961E+03  0.00000000000E+00 0.  1.
          4   -1    0    0  501    0  0.00000000000E+00 -0.00000000000E+00 -0.42339675945E+03  0.42339675945E+03  0.00000000000E+00 0. -1.
         23    2    1    2    0    0  0.63126836029E+02 -0.13936703017E+03 -0.15078529688E+03  0.23406062946E+03  0.92951632483E+02 0.  0.
        254    2    1    2    0    0 -0.63126836029E+02  0.13936703017E+03  0.69308613704E+03  0.11550337296E+04  0.91122245178E+03 0.  0.
         23    2    4    4    0    0 -0.53498858038E+02  0.35507262233E+03  0.81167412775E+03  0.89217251109E+03  0.90654315677E+02 0.  0.
         23    2    4    4    0    0 -0.96279779912E+01 -0.21570559216E+03 -0.11858799071E+03  0.26286121851E+03  0.91713184467E+02 0.  0.
         13    1    3    3    0    0 -0.10226447613E+02  0.70436622132E+01 -0.15704924000E+01  0.12516383445E+02  0.00000000000E+00 0.  1.
        -13    1    3    3    0    0  0.73353283642E+02 -0.14641069238E+03 -0.14921480448E+03  0.22154424601E+03  0.00000000000E+00 0. -1.
          1    1    5    5  502    0  0.10441582780E+02  0.21808588215E+03  0.50874048768E+03  0.55361300784E+03  0.00000000000E+00 0. -1.
          3    1    6    6  503    0 -0.39606941397E+02 -0.46835329641E+02 -0.17535426710E+02  0.63794585188E+02  0.00000000000E+00 0. -1.
         -1    1    5    5    0  502 -0.63940440817E+02  0.13698674018E+03  0.30293364007E+03  0.33855950325E+03  0.00000000000E+00 0.  1.
         -3    1    6    6    0  503  0.29978963406E+02 -0.16887026252E+03 -0.10105256400E+03  0.19906663332E+03  0.00000000000E+00 0.  1.
<mgrwt>
<rscale>  0 0.12788639E+04</rscale>
<asrwt>0</asrwt>
<pdfrwt beam="1">  1        4 0.65137963E-01 0.12788639E+04</pdfrwt>
<pdfrwt beam="2">  1       -4 0.14856886E+00 0.12788639E+04</pdfrwt>
<totfact> 0.13134610E+00</totfact>
</mgrwt>
</event>
<event>
12    1  0.4802930E-008  0.1001605E+04  0.7818608E-02  0.9306786E-01
         -2   -1    0    0    0  501 -0.00000000000E+00  0.00000000000E+00  0.87489493635E+02  0.87489493635E+02  0.00000000000E+00 0.  1.
          2   -1    0    0  501    0  0.00000000000E+00 -0.00000000000E+00 -0.28666653313E+04  0.28666653313E+04  0.00000000000E+00 0. -1.
         23    2    1    2    0    0  0.85375637802E+02  0.97072850993E+01 -0.53945440321E+03  0.55238032951E+03  0.82035019135E+02 0.  0.
        254    2    1    2    0    0 -0.85375637802E+02 -0.97072850993E+01 -0.22397214344E+04  0.24017744954E+04  0.86300949707E+03 0.  0.
         23    2    4    4    0    0 -0.60533853360E+02  0.28077687998E+03 -0.25776829323E+03  0.39643990426E+03  0.90664772420E+02 0.  0.
         23    2    4    4    0    0 -0.24841784442E+02 -0.29048416508E+03 -0.19819531412E+04  0.20053345911E+04  0.90721574798E+02 0.  0.
         11    1    3    3    0    0 -0.47202191531E+01  0.21382923448E+01  0.21815809508E+00  0.51865553077E+01  0.00000000000E+00 0.  1.
        -11    1    3    3    0    0  0.90095856956E+02  0.75689927545E+01 -0.53967256131E+03  0.54719377420E+03  0.00000000000E+00 0. -1.
          4    1    5    5  502    0 -0.62601172284E+02  0.15191244756E+03 -0.98541514955E+02  0.19159000147E+03  0.00000000000E+00 0. -1.
          3    1    6    6  503    0 -0.36335183073E+02 -0.27706789649E+03 -0.19366903489E+04  0.19567463741E+04  0.00000000000E+00 0. -1.
         -4    1    5    5    0  502  0.20673189234E+01  0.12886443243E+03 -0.15922677828E+03  0.20484990279E+03  0.00000000000E+00 0.  1.
         -3    1    6    6    0  503  0.11493398631E+02 -0.13416268592E+02 -0.45262792269E+02  0.48588217080E+02  0.00000000000E+00 0.  1.
<mgrwt>
<rscale>  0 0.10016049E+04</rscale>
<asrwt>0</asrwt>
<pdfrwt beam="1">  1        2 0.44102546E+00 0.10016049E+04</pdfrwt>
<pdfrwt beam="2">  1       -2 0.13459921E-01 0.10016049E+04</pdfrwt>
<totfact> 0.90465433E+01</totfact>
</mgrwt>
</event>
<event>
12    1  0.4802930E-008  0.2367134E+04  0.7818608E-02  0.8451912E-01
         -2   -1    0    0    0  501 -0.00000000000E+00  0.00000000000E+00  0.12502540550E+04  0.12502540550E+04  0.00000000000E+00 0. -1.
          2   -1    0    0  501    0  0.00000000000E+00 -0.00000000000E+00 -0.11204371090E+04  0.11204371090E+04  0.00000000000E+00 0.  1.
         23    2    1    2    0    0  0.23862615920E+03  0.46838688687E+03 -0.81001500997E+03  0.96986958459E+03  0.90520578232E+02 0.  0.
        254    2    1    2    0    0 -0.23862615920E+03 -0.46838688687E+03  0.93983195603E+03  0.14008215794E+04  0.89592872048E+03 0.  0.
         23    2    4    4    0    0 -0.98605027570E+02 -0.70467600280E+03  0.81675436658E+03  0.10869624308E+04  0.90046711214E+02 0.  0.
         23    2    4    4    0    0 -0.14002113163E+03  0.23628911594E+03  0.12307758945E+03  0.31385914866E+03  0.89000048074E+02 0.  0.
         13    1    3    3    0    0  0.23760275299E+03  0.46143586517E+03 -0.76586113995E+03  0.92516020860E+03  0.00000000000E+00 0.  1.
        -13    1    3    3    0    0  0.10234062100E+01  0.69510216927E+01 -0.44153870028E+02  0.44709375988E+02  0.00000000000E+00 0. -1.
          2    1    5    5  502    0 -0.47515868730E+02 -0.11850869154E+03  0.17002506970E+03  0.21262782527E+03  0.00000000000E+00 0.  1.
          3    1    6    6  503    0 -0.11488143205E+03  0.19358818508E+03  0.13553961448E+03  0.26276437340E+03  0.00000000000E+00 0. -1.
         -2    1    5    5    0  502 -0.51089158840E+02 -0.58616731126E+03  0.64672929688E+03  0.87433460551E+03  0.00000000000E+00 0. -1.
         -3    1    6    6    0  503 -0.25139699580E+02  0.42700930853E+02 -0.12462025032E+02  0.51094775258E+02  0.00000000000E+00 0.  1.
<mgrwt>
<rscale>  0 0.23671342E+04</rscale>
<asrwt>0</asrwt>
<pdfrwt beam="1">  1        2 0.17237494E+00 0.23671342E+04</pdfrwt>
<pdfrwt beam="2">  1       -2 0.19234678E+00 0.23671342E+04</pdfrwt>
<totfact> 0.28523788E+00</totfact>
</mgrwt>
</event>
<event>
12    1  0.4802930E-008  0.2070468E+04  0.7818608E-02  0.8574365E-01
         -2   -1    0    0    0  501 -0.00000000000E+00  0.00000000000E+00  0.59242381366E+03  0.59242381366E+03  0.00000000000E+00 0.  1.
          2   -1    0    0  501    0  0.00000000000E+00 -0.00000000000E+00 -0.18090251852E+04  0.18090251852E+04  0.00000000000E+00 0. -1.
         23    2    1    2    0    0 -0.58776362286E+03 -0.59600149792E+03 -0.51686223081E+03  0.98879852959E+03  0.99459059875E+02 0.  0.
        254    2    1    2    0    0  0.58776362286E+03  0.59600149792E+03 -0.69973914075E+03  0.14126504693E+04  0.89736426349E+03 0.  0.
         23    2    4    4    0    0  0.17306563456E+03  0.14711598287E+03 -0.75381593773E+03  0.79246902600E+03  0.90409418230E+02 0.  0.
         23    2    4    4    0    0  0.41469798831E+03  0.44888551506E+03  0.54076796987E+02  0.62018144329E+03  0.90708850159E+02 0.  0.
         11    1    3    3    0    0 -0.48407780188E+03 -0.45627470919E+03 -0.37054931340E+03  0.76146222636E+03  0.00000000000E+00 0. -1.
        -11    1    3    3    0    0 -0.10368582099E+03 -0.13972678874E+03 -0.14631291741E+03  0.22733630323E+03  0.00000000000E+00 0.  1.
          2    1    5    5  502    0  0.10458711083E+01 -0.91272888177E+01 -0.61740667055E+02  0.62420439088E+02  0.00000000000E+00 0.  1.
          1    1    6    6  503    0  0.38430820943E+03  0.41338994776E+03  0.24671524841E+02  0.56497144431E+03  0.00000000000E+00 0. -1.
         -2    1    5    5    0  502  0.17201976345E+03  0.15624327169E+03 -0.69207527068E+03  0.73004858691E+03  0.00000000000E+00 0. -1.
         -1    1    6    6    0  503  0.30389778875E+02  0.35495567298E+02  0.29405272145E+02  0.55209998984E+02  0.00000000000E+00 0.  1.
<mgrwt>
<rscale>  0 0.20704682E+04</rscale>
<asrwt>0</asrwt>
<pdfrwt beam="1">  1        2 0.27831157E+00 0.20704682E+04</pdfrwt>
<pdfrwt beam="2">  1       -2 0.91142125E-01 0.20704682E+04</pdfrwt>
<totfact> 0.80875561E+00</totfact>
</mgrwt>
</event>
<event>
12    1  0.4802930E-008  0.2570740E+04  0.7818608E-02  0.8378209E-01
          2   -1    0    0  501    0  0.00000000000E+00  0.00000000000E+00  0.95701083475E+03  0.95701083475E+03  0.00000000000E+00 0. -1.
         -2   -1    0    0    0  501 -0.00000000000E+00 -0.00000000000E+00 -0.17263925026E+04  0.17263925026E+04  0.00000000000E+00 0.  1.
         23    2    1    2    0    0  0.53178782075E+03  0.23747592166E+03 -0.13448504855E+04  0.14683574727E+04  0.90872105966E+02 0.  0.
        254    2    1    2    0    0 -0.53178782075E+03 -0.23747592166E+03  0.57546881772E+03  0.12150458646E+04  0.89776332805E+03 0.  0.
         23    2    4    4    0    0 -0.50407555980E+03 -0.53082316646E+03  0.28986734575E+03  0.79261765637E+03  0.91401679504E+02 0.  0.
         23    2    4    4    0    0 -0.27712260956E+02  0.29334724480E+03  0.28560147197E+03  0.42242820821E+03  0.10028367195E+03 0.  0.
         11    1    3    3    0    0  0.16797311951E+03  0.12142190538E+03 -0.49605338430E+03  0.53761250735E+03  0.00000000000E+00 0. -1.
        -11    1    3    3    0    0  0.36381470125E+03  0.11605401628E+03 -0.84879710124E+03  0.93074496540E+03  0.00000000000E+00 0.  1.
          2    1    5    5  502    0 -0.24319185290E+02 -0.47000081485E+01  0.17289975055E+02  0.30206888075E+02  0.00000000000E+00 0. -1.
          4    1    6    6  503    0 -0.52921918319E+01 -0.75036084859E+01  0.12353005287E+02  0.15391821670E+02  0.00000000000E+00 0. -1.
         -2    1    5    5    0  502 -0.47975637451E+03 -0.52612315831E+03  0.27257737069E+03  0.76241076829E+03  0.00000000000E+00 0.  1.
         -4    1    6    6    0  503 -0.22420069125E+02  0.30085085329E+03  0.27324846668E+03  0.40703638654E+03  0.00000000000E+00 0.  1.
<mgrwt>
<rscale>  0 0.25707402E+04</rscale>
<asrwt>0</asrwt>
<pdfrwt beam="1">  1        2 0.14723244E+00 0.25707402E+04</pdfrwt>
<pdfrwt beam="2">  1       -2 0.26559884E+00 0.25707402E+04</pdfrwt>
<totfact> 0.12281423E+00</totfact>
</mgrwt>
</event>
<event>
12    1  0.4802930E-008  0.1484688E+04  0.7818608E-02  0.8894700E-01
         -1   -1    0    0    0  501 -0.00000000000E+00  0.00000000000E+00  0.10403895712E+04  0.10403895712E+04  0.00000000000E+00 0.  1.
          1   -1    0    0  501    0  0.00000000000E+00 -0.00000000000E+00 -0.52968086448E+03  0.52968086448E+03  0.00000000000E+00 0. -1.
         23    2    1    2    0    0  0.30798194022E+03 -0.33048486753E+03  0.43514612074E+02  0.46220014721E+03  0.87534744227E+02 0.  0.
        254    2    1    2    0    0 -0.30798194022E+03  0.33048486753E+03  0.46719409468E+03  0.11078702885E+04  0.89723638519E+03 0.  0.
         23    2    4    4    0    0  0.22588858454E+03  0.31692834066E+03  0.39372097034E+03  0.56113032382E+03  0.91552236906E+02 0.  0.
         23    2    4    4    0    0 -0.53387052477E+03  0.13556526867E+02  0.73473124349E+02  0.54673996470E+03  0.91240190521E+02 0.  0.
         11    1    3    3    0    0  0.13640159421E+03 -0.12583579105E+03  0.58884232831E+02  0.19469821285E+03  0.00000000000E+00 0.  1.
        -11    1    3    3    0    0  0.17158034602E+03 -0.20464907648E+03 -0.15369620757E+02  0.26750193436E+03  0.00000000000E+00 0. -1.
          1    1    5    5  502    0  0.15553586674E+03  0.26420978847E+03  0.26495321959E+03  0.40521405051E+03  0.00000000000E+00 0. -1.
          1    1    6    6  503    0 -0.51236878583E+03  0.25921854776E+01  0.53034457155E+02  0.51511275053E+03  0.00000000000E+00 0. -1.
         -1    1    5    5    0  502  0.70352717797E+02  0.52718552196E+02  0.12876775075E+03  0.15591627330E+03  0.00000000000E+00 0.  1.
         -1    1    6    6    0  503 -0.21501738939E+02  0.10964341389E+02  0.20438667193E+02  0.31627214170E+02  0.00000000000E+00 0.  1.
<mgrwt>
<rscale>  0 0.14846878E+04</rscale>
<asrwt>0</asrwt>
<pdfrwt beam="1">  1        1 0.81489363E-01 0.14846878E+04</pdfrwt>
<pdfrwt beam="2">  1       -1 0.16005993E+00 0.14846878E+04</pdfrwt>
<totfact> 0.11565119E+01</totfact>
</mgrwt>
</event>
<event>
12    1  0.4802930E-008  0.1457125E+04  0.7818608E-02  0.8913476E-01
         -2   -1    0    0    0  501 -0.00000000000E+00  0.00000000000E+00  0.85361474240E+03  0.85361474240E+03  0.00000000000E+00 0.  1.
          2   -1    0    0  501    0  0.00000000000E+00 -0.00000000000E+00 -0.62182998105E+03  0.62182998105E+03  0.00000000000E+00 0. -1.
         23    2    1    2    0    0 -0.25727078307E+03  0.22629417780E+03 -0.11200393726E+03  0.37136290666E+03  0.89264862913E+02 0.  0.
        254    2    1    2    0    0  0.25727078307E+03 -0.22629417780E+03  0.34378869861E+03  0.11040818168E+04  0.99166964165E+03 0.  0.
         23    2    4    4    0    0  0.53106144456E+03 -0.30541044401E+03  0.47459652148E+03  0.78052876877E+03  0.93174585968E+02 0.  0.
         23    2    4    4    0    0 -0.27379066149E+03  0.79116266205E+02 -0.13080782287E+03  0.32355304803E+03  0.79719373224E+02 0.  0.
         11    1    3    3    0    0 -0.25536803424E+03  0.22764819888E+03 -0.12037972947E+03  0.36266763660E+03  0.00000000000E+00 0. -1.
        -11    1    3    3    0    0 -0.19027488236E+01 -0.13540210795E+01  0.83757922135E+01  0.86952700576E+01  0.00000000000E+00 0.  1.
          2    1    5    5  502    0  0.53363453705E+03 -0.29723466444E+03  0.46516396781E+03  0.76778368166E+03  0.00000000000E+00 0. -1.
          1    1    6    6  503    0 -0.20675974377E+03  0.35497542531E+02 -0.12303675636E+03  0.24320302338E+03  0.00000000000E+00 0. -1.
         -2    1    5    5    0  502 -0.25730924956E+01 -0.81757795716E+01  0.94325536756E+01  0.12745087110E+02  0.00000000000E+00 0.  1.
         -1    1    6    6    0  503 -0.67030917720E+02  0.43618723675E+02 -0.77710665161E+01  0.80350024643E+02  0.00000000000E+00 0.  1.
<mgrwt>
<rscale>  0 0.14571249E+04</rscale>
<asrwt>0</asrwt>
<pdfrwt beam="1">  1        2 0.95666151E-01 0.14571249E+04</pdfrwt>
<pdfrwt beam="2">  1       -2 0.13132535E+00 0.14571249E+04</pdfrwt>
<totfact> 0.19472727E+01</totfact>
</mgrwt>
</event>
<event>
12    1  0.4802930E-008  0.2195700E+04  0.7818608E-02  0.8520220E-01
         -2   -1    0    0    0  501 -0.00000000000E+00  0.00000000000E+00  0.97483108013E+03  0.97483108013E+03  0.00000000000E+00 0.  1.
          2   -1    0    0  501    0  0.00000000000E+00 -0.00000000000E+00 -0.12363927793E+04  0.12363927793E+04  0.00000000000E+00 0. -1.
         23    2    1    2    0    0  0.63359179908E+02 -0.69044832003E+03  0.48832150765E+03  0.85302368842E+03  0.91968743963E+02 0.  0.
        254    2    1    2    0    0 -0.63359179908E+02  0.69044832003E+03 -0.74988320684E+03  0.13582001710E+04  0.89534887747E+03 0.  0.
         23    2    4    4    0    0 -0.10081707702E+01  0.43469420515E+03  0.10718404017E+03  0.45685891680E+03  0.90948243446E+02 0.  0.
         23    2    4    4    0    0 -0.62351009138E+02  0.25575411488E+03 -0.85706724701E+03  0.90134125424E+03  0.92487702354E+02 0.  0.
         11    1    3    3    0    0 -0.11265029141E+02 -0.35553609757E+03  0.26595184144E+03  0.44414321961E+03  0.00000000000E+00 0.  1.
        -11    1    3    3    0    0  0.74624209049E+02 -0.33491222246E+03  0.22236966621E+03  0.40888046882E+03  0.00000000000E+00 0. -1.
          2    1    5    5  502    0  0.18503079864E+02  0.15078581399E+02  0.29464207574E+01  0.24050134652E+02  0.00000000000E+00 0. -1.
          3    1    6    6  503    0 -0.85898502287E+02  0.17964529557E+03 -0.59548376336E+03  0.62789481391E+03  0.00000000000E+00 0.  1.
         -2    1    5    5    0  502 -0.19511250635E+02  0.41961562376E+03  0.10423761941E+03  0.43280878214E+03  0.00000000000E+00 0.  1.
         -3    1    6    6    0  503  0.23547493150E+02  0.76108819310E+02 -0.26158348365E+03  0.27344644033E+03  0.00000000000E+00 0. -1.
<mgrwt>
<rscale>  0 0.21956995E+04</rscale>
<asrwt>0</asrwt>
<pdfrwt beam="1">  1        2 0.19021427E+00 0.21956995E+04</pdfrwt>
<pdfrwt beam="2">  1       -2 0.14997401E+00 0.21956995E+04</pdfrwt>
<totfact> 0.49391892E+00</totfact>
</mgrwt>
</event>
<event>
12    1  0.4802930E-008  0.2374253E+04  0.7818608E-02  0.8449206E-01
          2   -1    0    0  501    0  0.00000000000E+00  0.00000000000E+00  0.57593028999E+03  0.57593028999E+03  0.00000000000E+00 0. -1.
         -2   -1    0    0    0  501 -0.00000000000E+00 -0.00000000000E+00 -0.24469439366E+04  0.24469439366E+04  0.00000000000E+00 0.  1.
         23    2    1    2    0    0  0.61170572876E+03 -0.78335295838E+03 -0.10421057453E+04  0.14429210704E+04  0.90614981833E+02 0.  0.
        254    2    1    2    0    0 -0.61170572876E+03  0.78335295838E+03 -0.82890790128E+03  0.15799531562E+04  0.90627695046E+03 0.  0.
         23    2    4    4    0    0 -0.15691835627E+03 -0.11048639576E+03 -0.46209301213E+03  0.50824339774E+03  0.89167176158E+02 0.  0.
         23    2    4    4    0    0 -0.45478737249E+03  0.89383935414E+03 -0.36681488915E+03  0.10717097584E+04  0.90709967801E+02 0.  0.
         11    1    3    3    0    0  0.53679413111E+03 -0.69602478036E+03 -0.87685050951E+03  0.12415575903E+04  0.00000000000E+00 0.  1.
        -11    1    3    3    0    0  0.74911597655E+02 -0.87328178022E+02 -0.16525523582E+03  0.20136348007E+03  0.00000000000E+00 0. -1.
          4    1    5    5  502    0 -0.42743156318E+02  0.11442379265E+02 -0.10869160393E+03  0.11735318581E+03  0.00000000000E+00 0. -1.
          1    1    6    6  503    0 -0.55439930721E+02  0.15451889376E+03 -0.32413385197E+02  0.16733290766E+03  0.00000000000E+00 0. -1.
         -4    1    5    5    0  502 -0.11417519995E+03 -0.12192877503E+03 -0.35340140820E+03  0.39089021193E+03  0.00000000000E+00 0.  1.
         -1    1    6    6    0  503 -0.39934744177E+03  0.73932046038E+03 -0.33440150396E+03  0.90437685079E+03  0.00000000000E+00 0.  1.
<mgrwt>
<rscale>  0 0.23742528E+04</rscale>
<asrwt>0</asrwt>
<pdfrwt beam="1">  1        2 0.88604661E-01 0.23742528E+04</pdfrwt>
<pdfrwt beam="2">  1       -2 0.37645291E+00 0.23742528E+04</pdfrwt>
<totfact> 0.49599571E-01</totfact>
</mgrwt>
</event>
<event>
12    1  0.4802930E-008  0.1782059E+04  0.7818608E-02  0.8715899E-01
         -2   -1    0    0    0  501 -0.00000000000E+00  0.00000000000E+00  0.66954214651E+03  0.66954214651E+03  0.00000000000E+00 0.  1.
          2   -1    0    0  501    0  0.00000000000E+00 -0.00000000000E+00 -0.11857860369E+04  0.11857860369E+04  0.00000000000E+00 0. -1.
         23    2    1    2    0    0 -0.15507397843E+03 -0.51529333386E+03 -0.59713958680E+03  0.80912935336E+03  0.92409229153E+02 0.  0.
        254    2    1    2    0    0  0.15507397843E+03  0.51529333386E+03  0.80895696380E+02  0.10461988301E+04  0.89353943375E+03 0.  0.
         23    2    4    4    0    0 -0.60940921851E+02 -0.21332733309E+03 -0.97440197242E+02  0.26021886345E+03  0.94852084085E+02 0.  0.
         23    2    4    4    0    0  0.21601490028E+03  0.72862066695E+03  0.17833589362E+03  0.78597996663E+03  0.91707707095E+02 0.  0.
         13    1    3    3    0    0 -0.22493934038E+02 -0.15035400090E+02 -0.18272699936E+02  0.32648612334E+02  0.00000000000E+00 0.  1.
        -13    1    3    3    0    0 -0.13258004439E+03 -0.50025793377E+03 -0.57886688687E+03  0.77648074102E+03  0.00000000000E+00 0. -1.
          1    1    5    5  502    0  0.12752130718E+02 -0.11418005498E+03 -0.27028128285E+02  0.11802635940E+03  0.00000000000E+00 0. -1.
          3    1    6    6  503    0  0.16364627819E+03  0.62104024955E+03  0.17754325456E+03  0.66632777458E+03  0.00000000000E+00 0.  1.
         -1    1    5    5    0  502 -0.73693052570E+02 -0.99147278107E+02 -0.70412068957E+02  0.14219250405E+03  0.00000000000E+00 0.  1.
         -3    1    6    6    0  503  0.52368622085E+02  0.10758041740E+03  0.79263905790E+00  0.11965219205E+03  0.00000000000E+00 0. -1.
<mgrwt>
<rscale>  0 0.17820592E+04</rscale>
<asrwt>0</asrwt>
<pdfrwt beam="1">  1        2 0.18242862E+00 0.17820592E+04</pdfrwt>
<pdfrwt beam="2">  1       -2 0.10300648E+00 0.17820592E+04</pdfrwt>
<totfact> 0.14058019E+01</totfact>
</mgrwt>
</event>
<event>
12    1  0.7081272E-008  0.2022278E+04  0.7818608E-02  0.8596275E-01
          1   -1    0    0  501    0  0.00000000000E+00  0.00000000000E+00  0.16427683577E+04  0.16427683577E+04  0.00000000000E+00 0. -1.
         -1   -1    0    0    0  501 -0.00000000000E+00 -0.00000000000E+00 -0.62236537130E+03  0.62236537130E+03  0.00000000000E+00 0.  1.
         23    2    1    2    0    0 -0.53191324945E+02 -0.48317401379E+03  0.11297359498E+04  0.12324874239E+04  0.80221501544E+02 0.  0.
        254    2    1    2    0    0  0.53191324945E+02  0.48317401379E+03 -0.10933296337E+03  0.10326463051E+04  0.90449889432E+03 0.  0.
         23    2    4    4    0    0  0.21050113705E+02  0.69555712490E+03 -0.26672733469E+03  0.75092259887E+03  0.92187076807E+02 0.  0.
         23    2    4    4    0    0  0.32141211240E+02 -0.21238311111E+03  0.15739437131E+03  0.28172370620E+03  0.91954418967E+02 0.  0.
         13    1    3    3    0    0 -0.11916221750E+01 -0.20781875417E+02  0.10518828627E+03  0.10722817670E+03  0.00000000000E+00 0.  1.
        -13    1    3    3    0    0 -0.51999702770E+02 -0.46239213838E+03  0.10245476635E+04  0.11252592472E+04  0.00000000000E+00 0. -1.
          2    1    5    5  502    0 -0.18432917318E+00  0.97143728955E+01  0.72011660200E+01  0.12093792211E+02  0.00000000000E+00 0. -1.
          3    1    6    6  503    0  0.72077577216E+01 -0.61164099669E+01 -0.10840910550E+02  0.14383587306E+02  0.00000000000E+00 0. -1.
         -2    1    5    5    0  502  0.21234442878E+02  0.68584275201E+03 -0.27392850071E+03  0.73882880666E+03  0.00000000000E+00 0.  1.
         -3    1    6    6    0  503  0.24933453518E+02 -0.20626670114E+03  0.16823528186E+03  0.26734011889E+03  0.00000000000E+00 0.  1.
<mgrwt>
<rscale>  0 0.20222781E+04</rscale>
<asrwt>0</asrwt>
<pdfrwt beam="1">  1        1 0.25273359E+00 0.20222781E+04</pdfrwt>
<pdfrwt beam="2">  1       -1 0.95748519E-01 0.20222781E+04</pdfrwt>
<totfact> 0.50795529E+00</totfact>
</mgrwt>
</event>
<event>
12    1  0.4802930E-008  0.2095499E+04  0.7818608E-02  0.8563229E-01
          1   -1    0    0  501    0  0.00000000000E+00  0.00000000000E+00  0.28352806891E+04  0.28352806891E+04  0.00000000000E+00 0. -1.
         -1   -1    0    0    0  501 -0.00000000000E+00 -0.00000000000E+00 -0.38718513680E+03  0.38718513680E+03  0.00000000000E+00 0.  1.
         23    2    1    2    0    0 -0.27822822659E+03 -0.57552145234E+02 -0.23539105257E+03  0.37993839102E+03  0.90669939029E+02 0.  0.
        254    2    1    2    0    0  0.27822822659E+03  0.57552145234E+02  0.26834866049E+04  0.28425274349E+04  0.89338606661E+03 0.  0.
         23    2    4    4    0    0  0.39872760136E+03 -0.26713854868E+02  0.26294470214E+04  0.26612008525E+04  0.91109874236E+02 0.  0.
         23    2    4    4    0    0 -0.12049937476E+03  0.84266000102E+02  0.54039583472E+02  0.18132658232E+03  0.91313716288E+02 0.  0.
         13    1    3    3    0    0 -0.24311560307E+03 -0.47491293479E+02 -0.23773927575E+03  0.34333741807E+03  0.00000000000E+00 0.  1.
        -13    1    3    3    0    0 -0.35112623522E+02 -0.10060851755E+02  0.23482231770E+01  0.36600972947E+02  0.00000000000E+00 0. -1.
          2    1    5    5  502    0  0.23989131873E+03 -0.58852791573E+02  0.15045803658E+04  0.15247208181E+04  0.00000000000E+00 0. -1.
          4    1    6    6  503    0 -0.68654861185E+02 -0.22434264251E+01  0.41760410576E+01  0.68818327830E+02  0.00000000000E+00 0.  1.
         -2    1    5    5    0  502  0.15883628263E+03  0.32138936705E+02  0.11248666555E+04  0.11364800344E+04  0.00000000000E+00 0.  1.
         -4    1    6    6    0  503 -0.51844513580E+02  0.86509426527E+02  0.49863542414E+02  0.11250825449E+03  0.00000000000E+00 0. -1.
<mgrwt>
<rscale>  0 0.20954985E+04</rscale>
<asrwt>0</asrwt>
<pdfrwt beam="1">  1        1 0.43619702E+00 0.20954985E+04</pdfrwt>
<pdfrwt beam="2">  1       -1 0.59566946E-01 0.20954985E+04</pdfrwt>
<totfact> 0.20691002E+00</totfact>
</mgrwt>
</event>
<event>
12    1  0.4802930E-008  0.1712831E+04  0.7818608E-02  0.8754080E-01
          2   -1    0    0  501    0  0.00000000000E+00  0.00000000000E+00  0.43761858164E+03  0.43761858164E+03  0.00000000000E+00 0. -1.
         -2   -1    0    0    0  501 -0.00000000000E+00 -0.00000000000E+00 -0.16759975849E+04  0.16759975849E+04  0.00000000000E+00 0.  1.
         23    2    1    2    0    0  0.57179425971E+03 -0.21512632201E+03 -0.36930826080E+03  0.71973217417E+03  0.91639517618E+02 0.  0.
        254    2    1    2    0    0 -0.57179425971E+03  0.21512632201E+03 -0.86907074248E+03  0.13938839924E+04  0.90244147674E+03 0.  0.
         23    2    4    4    0    0  0.15172062618E+03  0.27517200503E+03 -0.42845319926E+03  0.53906802317E+03  0.91013234678E+02 0.  0.
         23    2    4    4    0    0 -0.72351488588E+03 -0.60045683021E+02 -0.44061754322E+03  0.85481596922E+03  0.97402503507E+02 0.  0.
         13    1    3    3    0    0  0.32753913311E+02  0.88405840829E+01 -0.17172896941E+02  0.38024770262E+02  0.00000000000E+00 0.  1.
        -13    1    3    3    0    0  0.53904034640E+03 -0.22396690609E+03 -0.35213536386E+03  0.68170740391E+03  0.00000000000E+00 0. -1.
          2    1    5    5  502    0  0.10888671239E+03  0.20349807877E+03 -0.37367717778E+03  0.43920657713E+03  0.00000000000E+00 0. -1.
          1    1    6    6  503    0 -0.61790143718E+03 -0.53397017166E+02 -0.41403215415E+03  0.74570507051E+03  0.00000000000E+00 0. -1.
         -2    1    5    5    0  502  0.42833913786E+02  0.71673926261E+02 -0.54776021475E+02  0.99861446037E+02  0.00000000000E+00 0.  1.
         -1    1    6    6    0  503 -0.10561344870E+03 -0.66486658543E+01 -0.26585389065E+02  0.10911089870E+03  0.00000000000E+00 0.  1.
<mgrwt>
<rscale>  0 0.17128312E+04</rscale>
<asrwt>0</asrwt>
<pdfrwt beam="1">  1        2 0.67325935E-01 0.17128312E+04</pdfrwt>
<pdfrwt beam="2">  1       -2 0.25784579E+00 0.17128312E+04</pdfrwt>
<totfact> 0.39269054E+00</totfact>
</mgrwt>
</event>
<event>
12    1  0.4802930E-008  0.1785968E+04  0.7818608E-02  0.8713797E-01
          1   -1    0    0  501    0  0.00000000000E+00  0.00000000000E+00  0.21034880506E+04  0.21034880506E+04  0.00000000000E+00 0. -1.
         -1   -1    0    0    0  501 -0.00000000000E+00 -0.00000000000E+00 -0.37909453514E+03  0.37909453514E+03  0.00000000000E+00 0.  1.
         23    2    1    2    0    0 -0.18692463547E+02 -0.18148188293E+03  0.15296901681E+04  0.15432133441E+04  0.90941371338E+02 0.  0.
        254    2    1    2    0    0  0.18692463547E+02  0.18148188293E+03  0.19470334739E+03  0.93936924166E+03  0.90067757642E+03 0.  0.
         23    2    4    4    0    0 -0.39913082044E+03 -0.75796607041E+02  0.12807622298E+03  0.43575960428E+03  0.91827971587E+02 0.  0.
         23    2    4    4    0    0  0.41782328399E+03  0.25727848997E+03  0.66627124403E+02  0.50360963738E+03  0.91733173448E+02 0.  0.
         13    1    3    3    0    0 -0.10460313897E+02 -0.16609607285E+03  0.14964081067E+04  0.15056342668E+04  0.00000000000E+00 0. -1.
        -13    1    3    3    0    0 -0.82321496502E+01 -0.15385810076E+02  0.33282061385E+02  0.37579077285E+02  0.00000000000E+00 0.  1.
          1    1    5    5  502    0 -0.41829665280E+02  0.70942670787E+01  0.40511511847E+02  0.58662015947E+02  0.00000000000E+00 0. -1.
          3    1    6    6  503    0  0.18057683146E+03  0.12284836778E+03 -0.15145579001E+02  0.21892716160E+03  0.00000000000E+00 0. -1.
         -1    1    5    5    0  502 -0.35730115516E+03 -0.82890874120E+02  0.87564711136E+02  0.37709758834E+03  0.00000000000E+00 0.  1.
         -3    1    6    6    0  503  0.23724645253E+03  0.13443012219E+03  0.81772703404E+02  0.28468247577E+03  0.00000000000E+00 0.  1.
<mgrwt>
<rscale>  0 0.17859684E+04</rscale>
<asrwt>0</asrwt>
<pdfrwt beam="1">  1        1 0.32361354E+00 0.17859684E+04</pdfrwt>
<pdfrwt beam="2">  1       -1 0.58322237E-01 0.17859684E+04</pdfrwt>
<totfact> 0.71349097E+00</totfact>
</mgrwt>
</event>
<event>
12    1  0.4802930E-008  0.1539255E+04  0.7818608E-02  0.8858760E-01
         -1   -1    0    0    0  501 -0.00000000000E+00  0.00000000000E+00  0.41781058951E+03  0.41781058951E+03  0.00000000000E+00 0.  1.
          1   -1    0    0  501    0  0.00000000000E+00 -0.00000000000E+00 -0.14176911164E+04  0.14176911164E+04  0.00000000000E+00 0. -1.
         23    2    1    2    0    0 -0.47685986377E+03 -0.43211682577E+02 -0.16511975064E+03  0.51463167980E+03  0.91206658842E+02 0.  0.
        254    2    1    2    0    0  0.47685986377E+03  0.43211682577E+02 -0.83476077629E+03  0.13208700262E+04  0.90477040909E+03 0.  0.
         23    2    4    4    0    0  0.64217488025E+03  0.24793547884E+03 -0.39114700513E+03  0.79703900636E+03  0.91731235376E+02 0.  0.
         23    2    4    4    0    0 -0.16531501648E+03 -0.20472379626E+03 -0.44361377115E+03  0.52383101979E+03  0.91459673665E+02 0.  0.
         11    1    3    3    0    0 -0.17348406717E+03 -0.35816462118E+02 -0.10287392966E+03  0.20484771399E+03  0.00000000000E+00 0. -1.
        -11    1    3    3    0    0 -0.30337579660E+03 -0.73952204592E+01 -0.62245820982E+02  0.30978396582E+03  0.00000000000E+00 0.  1.
          1    1    5    5  502    0  0.58095253522E+02  0.35625661151E+02 -0.12445533883E+02  0.69275807667E+02  0.00000000000E+00 0. -1.
          3    1    6    6  503    0  0.84676498616E+01  0.14911388286E+00 -0.61671817426E+01  0.10476519449E+02  0.00000000000E+00 0. -1.
         -1    1    5    5    0  502  0.58407962673E+03  0.21230981769E+03 -0.37870147125E+03  0.72776319869E+03  0.00000000000E+00 0.  1.
         -3    1    6    6    0  503 -0.17378266634E+03 -0.20487291015E+03 -0.43744658941E+03  0.51335450034E+03  0.00000000000E+00 0.  1.
<mgrwt>
<rscale>  0 0.15392548E+04</rscale>
<asrwt>0</asrwt>
<pdfrwt beam="1">  1        1 0.21810633E+00 0.15392548E+04</pdfrwt>
<pdfrwt beam="2">  1       -1 0.64278552E-01 0.15392548E+04</pdfrwt>
<totfact> 0.17669131E+01</totfact>
</mgrwt>
</event>
<event>
12    1  0.4802930E-008  0.2157599E+04  0.7818608E-02  0.8536287E-01
          2   -1    0    0  501    0  0.00000000000E+00  0.00000000000E+00  0.15476671302E+04  0.15476671302E+04  0.00000000000E+00 0.  1.
         -2   -1    0    0    0  501 -0.00000000000E+00 -0.00000000000E+00 -0.75197579889E+03  0.75197579889E+03  0.00000000000E+00 0. -1.
         23    2    1    2    0    0 -0.95332789142E+02  0.63411550337E+03  0.98264341604E+03  0.11759830258E+04  0.78467710635E+02 0.  0.
        254    2    1    2    0    0  0.95332789142E+02 -0.63411550337E+03 -0.18695208473E+03  0.11236599033E+04  0.90358712027E+03 0.  0.
         23    2    4    4    0    0 -0.11043140200E+03 -0.70681055271E+03  0.12451551450E+03  0.73186403634E+03  0.91348795114E+02 0.  0.
         23    2    4    4    0    0  0.20576419114E+03  0.72695049335E+02 -0.31146759923E+03  0.39179586693E+03  0.94172519427E+02 0.  0.
         11    1    3    3    0    0 -0.22831240417E+02  0.35904272077E+03  0.59187189707E+03  0.69263647278E+03  0.00000000000E+00 0.  1.
        -11    1    3    3    0    0 -0.72501548725E+02  0.27507278260E+03  0.39077151897E+03  0.48334655304E+03  0.00000000000E+00 0. -1.
          3    1    5    5  502    0 -0.12368008028E+03 -0.61624947972E+03  0.94870027353E+02  0.63565753799E+03  0.00000000000E+00 0. -1.
          3    1    6    6  503    0  0.14335254541E+03  0.20172527255E+01 -0.19059915873E+03  0.23849960355E+03  0.00000000000E+00 0. -1.
         -3    1    5    5    0  502  0.13248678274E+02 -0.90561072991E+02  0.29645487147E+02  0.96206498354E+02  0.00000000000E+00 0.  1.
         -3    1    6    6    0  503  0.62411645737E+02  0.70677796610E+02 -0.12086844050E+03  0.15329626338E+03  0.00000000000E+00 0.  1.
<mgrwt>
<rscale>  0 0.21575989E+04</rscale>
<asrwt>0</asrwt>
<pdfrwt beam="1">  1        2 0.23810263E+00 0.21575989E+04</pdfrwt>
<pdfrwt beam="2">  1       -2 0.11568858E+00 0.21575989E+04</pdfrwt>
<totfact> 0.63607667E+00</totfact>
</mgrwt>
</event>
<event>
12    1  0.4802930E-008  0.1788418E+04  0.7818608E-02  0.8712483E-01
         -1   -1    0    0    0  501 -0.00000000000E+00  0.00000000000E+00  0.16943307024E+04  0.16943307024E+04  0.00000000000E+00 0.  1.
          1   -1    0    0  501    0  0.00000000000E+00 -0.00000000000E+00 -0.47193258756E+03  0.47193258756E+03  0.00000000000E+00 0. -1.
         23    2    1    2    0    0  0.26587614050E+03  0.22859950539E+03  0.11406051070E+04  0.11970332798E+04  0.94661538740E+02 0.  0.
        254    2    1    2    0    0 -0.26587614050E+03 -0.22859950539E+03  0.81793007830E+02  0.96923001014E+03  0.89987157999E+03 0.  0.
         23    2    4    4    0    0 -0.58098040674E+03 -0.24564617903E+03  0.59853480231E+02  0.64022591302E+03  0.91795982025E+02 0.  0.
         23    2    4    4    0    0  0.31510426624E+03  0.17046673639E+02  0.21939527600E+02  0.32900409712E+03  0.90449241898E+02 0.  0.
         13    1    3    3    0    0  0.14626425818E+02  0.31212493939E+02  0.51063536917E+02  0.61608740553E+02  0.00000000000E+00 0. -1.
        -13    1    3    3    0    0  0.25124971468E+03  0.19738701145E+03  0.10895415701E+04  0.11354245393E+04  0.00000000000E+00 0.  1.
          1    1    5    5  502    0 -0.91444847928E+02 -0.48095167391E+02 -0.23052816375E+02  0.10586188021E+03  0.00000000000E+00 0. -1.
          3    1    6    6  503    0  0.71846975065E+02  0.42703195787E+02  0.23166212675E+01  0.83611706660E+02  0.00000000000E+00 0. -1.
         -1    1    5    5    0  502 -0.48953555882E+03 -0.19755101164E+03  0.82906296606E+02  0.53436403281E+03  0.00000000000E+00 0.  1.
         -3    1    6    6    0  503  0.24325729118E+03 -0.25656522148E+02  0.19622906332E+02  0.24539239046E+03  0.00000000000E+00 0.  1.
<mgrwt>
<rscale>  0 0.17884182E+04</rscale>
<asrwt>0</asrwt>
<pdfrwt beam="1">  1        1 0.72605014E-01 0.17884182E+04</pdfrwt>
<pdfrwt beam="2">  1       -1 0.26066626E+00 0.17884182E+04</pdfrwt>
<totfact> 0.26935255E+00</totfact>
</mgrwt>
</event>
<event>
12    1  0.4802930E-008  0.1259546E+04  0.7818608E-02  0.9062276E-01
          1   -1    0    0  501    0  0.00000000000E+00  0.00000000000E+00  0.64343397208E+03  0.64343397208E+03  0.00000000000E+00 0. -1.
         -1   -1    0    0    0  501 -0.00000000000E+00 -0.00000000000E+00 -0.61640170836E+03  0.61640170836E+03  0.00000000000E+00 0.  1.
         23    2    1    2    0    0 -0.25688589602E+03 -0.12644918021E+03  0.11259770184E+03  0.32040945649E+03  0.89466298674E+02 0.  0.
        254    2    1    2    0    0  0.25688589602E+03  0.12644918021E+03 -0.85565438127E+02  0.93942622394E+03  0.89062923109E+03 0.  0.
         23    2    4    4    0    0 -0.18972847856E+03 -0.18505280990E+03 -0.23686082264E+03  0.36716776826E+03  0.92020012608E+02 0.  0.
         23    2    4    4    0    0  0.44661437459E+03  0.31150199011E+03  0.15129538451E+03  0.57225845568E+03  0.89953083862E+02 0.  0.
         13    1    3    3    0    0 -0.20952327438E+03 -0.13617180107E+03  0.81150439686E+02  0.26273209887E+03  0.00000000000E+00 0. -1.
        -13    1    3    3    0    0 -0.47362621642E+02  0.97226208643E+01  0.31447262157E+02  0.57677357624E+02  0.00000000000E+00 0.  1.
          2    1    5    5  502    0 -0.70916220924E+02 -0.78890138486E+02 -0.15557459346E+03  0.18829821685E+03  0.00000000000E+00 0. -1.
          1    1    6    6  503    0  0.68774888621E+02  0.90428482750E+02  0.41340363350E+02  0.12089797947E+03  0.00000000000E+00 0. -1.
         -2    1    5    5    0  502 -0.11881225764E+03 -0.10616267142E+03 -0.81286229179E+02  0.17886955141E+03  0.00000000000E+00 0.  1.
         -1    1    6    6    0  503  0.37783948597E+03  0.22107350736E+03  0.10995502116E+03  0.45136047621E+03  0.00000000000E+00 0.  1.
<mgrwt>
<rscale>  0 0.12595456E+04</rscale>
<asrwt>0</asrwt>
<pdfrwt beam="1">  1        1 0.98989842E-01 0.12595456E+04</pdfrwt>
<pdfrwt beam="2">  1       -1 0.94831032E-01 0.12595456E+04</pdfrwt>
<totfact> 0.32773381E+01</totfact>
</mgrwt>
</event>
<event>
12    1  0.4802930E-008  0.1009858E+04  0.7818608E-02  0.9297798E-01
          1   -1    0    0  501    0  0.00000000000E+00  0.00000000000E+00  0.23785705290E+03  0.23785705290E+03  0.00000000000E+00 0. -1.
         -1   -1    0    0    0  501 -0.00000000000E+00 -0.00000000000E+00 -0.10718764425E+04  0.10718764425E+04  0.00000000000E+00 0.  1.
         23    2    1    2    0    0  0.33177409971E+02 -0.41906441726E+02 -0.60926990748E+02  0.12098965030E+03  0.89830434084E+02 0.  0.
        254    2    1    2    0    0 -0.33177409971E+02  0.41906441726E+02 -0.77309239880E+03  0.11887438451E+04  0.90143395858E+03 0.  0.
         23    2    4    4    0    0 -0.21885448777E+03  0.15049827716E+03 -0.88670345140E+03  0.93034171314E+03  0.93518309667E+02 0.  0.
         23    2    4    4    0    0  0.18567707780E+03 -0.10859183543E+03  0.11361105259E+03  0.25840213192E+03  0.87155186687E+02 0.  0.
         11    1    3    3    0    0 -0.30527422709E+01 -0.20413088613E+02  0.20638353620E+02  0.29188269257E+02  0.00000000000E+00 0. -1.
        -11    1    3    3    0    0  0.36230152241E+02 -0.21493353114E+02 -0.81565344368E+02  0.91801381043E+02  0.00000000000E+00 0.  1.
          2    1    5    5  502    0 -0.18352609678E+03  0.77534270884E+02 -0.66892558875E+03  0.69796478037E+03  0.00000000000E+00 0. -1.
          1    1    6    6  503    0  0.14692186999E+03 -0.10824337828E+03  0.12098225810E+03  0.21895061452E+03  0.00000000000E+00 0. -1.
         -2    1    5    5    0  502 -0.35328390994E+02  0.72964006275E+02 -0.21777786265E+03  0.23237693276E+03  0.00000000000E+00 0.  1.
         -1    1    6    6    0  503  0.38755207812E+02 -0.34845715341E+00 -0.73712055056E+01  0.39451517405E+02  0.00000000000E+00 0.  1.
<mgrwt>
<rscale>  0 0.10098582E+04</rscale>
<asrwt>0</asrwt>
<pdfrwt beam="1">  1        1 0.36593392E-01 0.10098582E+04</pdfrwt>
<pdfrwt beam="2">  1       -1 0.16490407E+00 0.10098582E+04</pdfrwt>
<totfact> 0.31934110E+01</totfact>
</mgrwt>
</event>
<event>
12    1  0.4802930E-008  0.1248412E+04  0.7818608E-02  0.9071506E-01
         -3   -1    0    0    0  501 -0.00000000000E+00  0.00000000000E+00  0.65038592843E+03  0.65038592843E+03  0.00000000000E+00 0.  1.
          3   -1    0    0  501    0  0.00000000000E+00 -0.00000000000E+00 -0.59907952293E+03  0.59907952293E+03  0.00000000000E+00 0. -1.
         23    2    1    2    0    0  0.25048621105E+03 -0.15045189224E+03  0.10438263905E+03  0.32287119483E+03  0.89280229109E+02 0.  0.
        254    2    1    2    0    0 -0.25048621105E+03  0.15045189224E+03 -0.53076233553E+02  0.92659425653E+03  0.87771334492E+03 0.  0.
         23    2    4    4    0    0  0.26896792580E+03  0.25897270278E+03  0.93652092663E+01  0.38468321777E+03  0.92102470077E+02 0.  0.
         23    2    4    4    0    0 -0.51945413685E+03 -0.10852081054E+03 -0.62441442819E+02  0.54191103876E+03  0.90328697202E+02 0.  0.
         13    1    3    3    0    0  0.31072349084E+02  0.90103627170E+01  0.31720040526E+00  0.32353950764E+02  0.00000000000E+00 0. -1.
        -13    1    3    3    0    0  0.21941386197E+03 -0.15946225495E+03  0.10406543864E+03  0.29051724407E+03  0.00000000000E+00 0.  1.
          4    1    5    5  502    0  0.18818452520E+03  0.22431721903E+03  0.30175154841E+02  0.29435042084E+03  0.00000000000E+00 0.  1.
          3    1    6    6  503    0 -0.12590471831E+03 -0.38814577089E+02  0.21559009211E+02  0.13350415861E+03  0.00000000000E+00 0. -1.
         -4    1    5    5    0  502  0.80783400599E+02  0.34655483749E+02 -0.20809945575E+02  0.90332796930E+02  0.00000000000E+00 0. -1.
         -3    1    6    6    0  503 -0.39354941854E+03 -0.69706233454E+02 -0.84000452030E+02  0.40840688016E+03  0.00000000000E+00 0.  1.
<mgrwt>
<rscale>  0 0.12484116E+04</rscale>
<asrwt>0</asrwt>
<pdfrwt beam="1">  1        3 0.92166081E-01 0.12484116E+04</pdfrwt>
<pdfrwt beam="2">  1       -3 0.10005937E+00 0.12484116E+04</pdfrwt>
<totfact> 0.23774458E+00</totfact>
</mgrwt>
</event>
<event>
12    1  0.4802930E-008  0.1911626E+04  0.7818608E-02  0.8649091E-01
         -1   -1    0    0    0  501 -0.00000000000E+00  0.00000000000E+00  0.20558349831E+03  0.20558349831E+03  0.00000000000E+00 0.  1.
          1   -1    0    0  501    0  0.00000000000E+00 -0.00000000000E+00 -0.44438311677E+04  0.44438311677E+04  0.00000000000E+00 0. -1.
         23    2    1    2    0    0  0.41989332341E+03  0.58980937078E+03 -0.13280922866E+04  0.15153116197E+04  0.90303300611E+02 0.  0.
        254    2    1    2    0    0 -0.41989332341E+03 -0.58980937078E+03 -0.29101553827E+04  0.31341030463E+04  0.91072062466E+03 0.  0.
         23    2    4    4    0    0  0.15402822136E+03 -0.15752932585E+03 -0.17494768771E+04  0.17656041919E+04  0.90269803005E+02 0.  0.
         23    2    4    4    0    0 -0.57392154477E+03 -0.43228004493E+03 -0.11606785056E+04  0.13684988544E+04  0.96760241420E+02 0.  0.
         13    1    3    3    0    0  0.17116515695E+02  0.23813518212E+01 -0.28094836194E+02  0.32984326078E+02  0.00000000000E+00 0. -1.
        -13    1    3    3    0    0  0.40277680772E+03  0.58742801896E+03 -0.12999974504E+04  0.14823272936E+04  0.00000000000E+00 0.  1.
          1    1    6    6  502    0 -0.37806372778E+03 -0.33828923186E+03 -0.83403066617E+03  0.97620640172E+03  0.00000000000E+00 0. -1.
          1    1    5    5  503    0  0.12995458726E+03 -0.12528471205E+03 -0.10852898156E+04  0.11001992718E+04  0.00000000000E+00 0. -1.
         -1    1    5    5    0  503  0.24073634092E+02 -0.32244613800E+02 -0.66418706153E+03  0.66540492009E+03  0.00000000000E+00 0.  1.
         -1    1    6    6    0  502 -0.19585781699E+03 -0.93990813069E+02 -0.32664783945E+03  0.39229245268E+03  0.00000000000E+00 0.  1.
<mgrwt>
<rscale>  0 0.19116259E+04</rscale>
<asrwt>0</asrwt>
<pdfrwt beam="1">  1        1 0.68366633E+00 0.19116259E+04</pdfrwt>
<pdfrwt beam="2">  1       -1 0.31628231E-01 0.19116259E+04</pdfrwt>
<totfact> 0.32405276E-01</totfact>
</mgrwt>
</event>
<event>
12    1  0.4802930E-008  0.2029259E+04  0.7818608E-02  0.8593062E-01
          2   -1    0    0  501    0  0.00000000000E+00  0.00000000000E+00  0.13637945040E+04  0.13637945040E+04  0.00000000000E+00 0.  1.
         -2   -1    0    0    0  501 -0.00000000000E+00 -0.00000000000E+00 -0.75485936761E+03  0.75485936761E+03  0.00000000000E+00 0. -1.
         23    2    1    2    0    0 -0.39202156766E+03 -0.57693638739E+03  0.67775801668E+03  0.97688217261E+03  0.91686124184E+02 0.  0.
        254    2    1    2    0    0  0.39202156766E+03  0.57693638739E+03 -0.68822880336E+02  0.11417716990E+04  0.90131543816E+03 0.  0.
         23    2    4    4    0    0  0.40049551986E+03  0.13875422770E+03  0.32778684897E+03  0.54361739786E+03  0.91794660852E+02 0.  0.
         23    2    4    4    0    0 -0.84739522033E+01  0.43818215969E+03 -0.39660972931E+03  0.59815430110E+03  0.91727191166E+02 0.  0.
         11    1    3    3    0    0  0.20636760865E+01 -0.21142975783E+02  0.12577819670E+02  0.24687764816E+02  0.00000000000E+00 0. -1.
        -11    1    3    3    0    0 -0.39408524374E+03 -0.55579341161E+03  0.66518019701E+03  0.95219440779E+03  0.00000000000E+00 0.  1.
          2    1    5    5  502    0  0.17584299899E+01  0.16513876609E+02  0.13453104918E+02  0.21372557840E+02  0.00000000000E+00 0. -1.
          3    1    6    6  503    0 -0.11686569670E+02  0.25351426008E+01 -0.82709000225E+01  0.14539967188E+02  0.00000000000E+00 0. -1.
         -2    1    5    5    0  502  0.39873708987E+03  0.12224035109E+03  0.31433374405E+03  0.52224484002E+03  0.00000000000E+00 0.  1.
         -3    1    6    6    0  503  0.32126174664E+01  0.43564701709E+03 -0.38833882928E+03  0.58361433391E+03  0.00000000000E+00 0.  1.
<mgrwt>
<rscale>  0 0.20292590E+04</rscale>
<asrwt>0</asrwt>
<pdfrwt beam="1">  1        2 0.20981454E+00 0.20292590E+04</pdfrwt>
<pdfrwt beam="2">  1       -2 0.11613221E+00 0.20292590E+04</pdfrwt>
<totfact> 0.81017067E+00</totfact>
</mgrwt>
</event>
<event>
12    1  0.4802930E-008  0.2357570E+04  0.7818608E-02  0.8455562E-01
          2   -1    0    0  501    0  0.00000000000E+00  0.00000000000E+00  0.15545415851E+04  0.15545415851E+04  0.00000000000E+00 0.  1.
         -2   -1    0    0    0  501 -0.00000000000E+00 -0.00000000000E+00 -0.89385422149E+03  0.89385422149E+03  0.00000000000E+00 0. -1.
         23    2    1    2    0    0  0.36302714249E+03  0.49100097772E+03  0.11344090652E+04  0.12914940433E+04  0.90566387431E+02 0.  0.
        254    2    1    2    0    0 -0.36302714249E+03 -0.49100097772E+03 -0.47372170158E+03  0.11569017632E+04  0.86089417058E+03 0.  0.
         23    2    4    4    0    0  0.21174023868E+03 -0.46998821533E+02  0.69471416044E+02  0.24555860332E+03  0.91814661770E+02 0.  0.
         23    2    4    4    0    0 -0.57476738117E+03 -0.44400215618E+03 -0.54319311762E+03  0.91134315992E+03  0.89398741353E+02 0.  0.
         13    1    3    3    0    0  0.24418842261E+03  0.28194314754E+03  0.75852338638E+03  0.84526779890E+03  0.00000000000E+00 0. -1.
        -13    1    3    3    0    0  0.11883871989E+03  0.20905783017E+03  0.37588567880E+03  0.44622624444E+03  0.00000000000E+00 0.  1.
          2    1    5    5  502    0  0.67579677046E+02 -0.48673993621E+02  0.56849852055E+02  0.10083687859E+03  0.00000000000E+00 0. -1.
          1    1    6    6  503    0 -0.27853383662E+03 -0.20213238020E+03 -0.31157600191E+03  0.46423938031E+03  0.00000000000E+00 0. -1.
         -2    1    5    5    0  502  0.14416056163E+03  0.16751720886E+01  0.12621563989E+02  0.14472172473E+03  0.00000000000E+00 0.  1.
         -1    1    6    6    0  503 -0.29623354455E+03 -0.24186977599E+03 -0.23161711571E+03  0.44710377962E+03  0.00000000000E+00 0.  1.
<mgrwt>
<rscale>  0 0.23575696E+04</rscale>
<asrwt>0</asrwt>
<pdfrwt beam="1">  1        2 0.23916024E+00 0.23575696E+04</pdfrwt>
<pdfrwt beam="2">  1       -2 0.13751603E+00 0.23575696E+04</pdfrwt>
<totfact> 0.40157325E+00</totfact>
</mgrwt>
</event>
<event>
12    1  0.4802930E-008  0.1337041E+04  0.7818608E-02  0.9000696E-01
          2   -1    0    0  501    0  0.00000000000E+00  0.00000000000E+00  0.87949041768E+03  0.87949041768E+03  0.00000000000E+00 0. -1.
         -2   -1    0    0    0  501 -0.00000000000E+00 -0.00000000000E+00 -0.50815759910E+03  0.50815759910E+03  0.00000000000E+00 0.  1.
         23    2    1    2    0    0  0.21391237077E+03 -0.10646017801E+03 -0.17209087812E+03  0.30763682979E+03  0.89066698824E+02 0.  0.
        254    2    1    2    0    0 -0.21391237077E+03  0.10646017801E+03  0.54342369670E+03  0.10800111870E+04  0.90223199789E+03 0.  0.
         23    2    4    4    0    0 -0.10390713237E+03 -0.14090518022E+01 -0.23970389402E+03  0.27678583685E+03  0.91398933711E+02 0.  0.
         23    2    4    4    0    0 -0.11000523840E+03  0.10786922981E+03  0.78312759073E+03  0.80322535015E+03  0.90250853434E+02 0.  0.
         11    1    3    3    0    0  0.15849811642E+03 -0.71658825693E+02 -0.16838596769E+03  0.24209600229E+03  0.00000000000E+00 0.  1.
        -11    1    3    3    0    0  0.55414254352E+02 -0.34801352312E+02 -0.37049104304E+01  0.65540827500E+02  0.00000000000E+00 0. -1.
          4    1    5    5  502    0 -0.53020337316E+02 -0.44211412051E+02 -0.15000670509E+03  0.16512969659E+03  0.00000000000E+00 0. -1.
          3    1    6    6  503    0 -0.80969993063E+02  0.12185201040E+03  0.63624126615E+03  0.65284531167E+03  0.00000000000E+00 0. -1.
         -4    1    5    5    0  502 -0.50886795051E+02  0.42802360249E+02 -0.89697188939E+02  0.11165614026E+03  0.00000000000E+00 0.  1.
         -3    1    6    6    0  503 -0.29035245340E+02 -0.13982780593E+02  0.14688632458E+03  0.15038003848E+03  0.00000000000E+00 0.  1.
<mgrwt>
<rscale>  0 0.13370411E+04</rscale>
<asrwt>0</asrwt>
<pdfrwt beam="1">  1        2 0.13530622E+00 0.13370411E+04</pdfrwt>
<pdfrwt beam="2">  1       -2 0.78178092E-01 0.13370411E+04</pdfrwt>
<totfact> 0.43110484E+01</totfact>
</mgrwt>
</event>
<event>
12    1  0.4802930E-008  0.1177211E+04  0.7818608E-02  0.9133041E-01
         -1   -1    0    0    0  501 -0.00000000000E+00  0.00000000000E+00  0.20049552470E+03  0.20049552470E+03  0.00000000000E+00 0.  1.
          1   -1    0    0  501    0  0.00000000000E+00 -0.00000000000E+00 -0.17280020828E+04  0.17280020828E+04  0.00000000000E+00 0. -1.
         23    2    1    2    0    0 -0.93305145732E+02  0.20225896645E+03 -0.22600304772E+03  0.32930935686E+03  0.88049617875E+02 0.  0.
        254    2    1    2    0    0  0.93305145732E+02 -0.20225896645E+03 -0.13015035104E+04  0.15991882507E+04  0.90215139181E+03 0.  0.
         23    2    4    4    0    0  0.18122603608E+03 -0.20569941928E+03  0.30111288692E+01  0.28864193668E+03  0.90277203463E+02 0.  0.
         23    2    4    4    0    0 -0.87920890351E+02  0.34404528298E+01 -0.13045146393E+04  0.13105463140E+04  0.89617394321E+02 0.  0.
         13    1    3    3    0    0 -0.79412791169E+02  0.19805186970E+03 -0.23050925480E+03  0.31411057136E+03  0.00000000000E+00 0.  1.
        -13    1    3    3    0    0 -0.13892354563E+02  0.42070967567E+01  0.45062070829E+01  0.15198785501E+02  0.00000000000E+00 0. -1.
          4    1    5    5  502    0  0.55573771192E+01 -0.58542068492E+02 -0.72549658085E+01  0.59251099168E+02  0.00000000000E+00 0. -1.
          3    1    6    6  503    0 -0.49127124314E+02  0.35148147577E+02 -0.38904048188E+03  0.39370212492E+03  0.00000000000E+00 0. -1.
         -4    1    5    5    0  502  0.17566865896E+03 -0.14715735079E+03  0.10266094678E+02  0.22939083751E+03  0.00000000000E+00 0.  1.
         -3    1    6    6    0  503 -0.38793766037E+02 -0.31707694747E+02 -0.91547415737E+03  0.91684418905E+03  0.00000000000E+00 0.  1.
<mgrwt>
<rscale>  0 0.11772114E+04</rscale>
<asrwt>0</asrwt>
<pdfrwt beam="1">  1        1 0.26584649E+00 0.11772114E+04</pdfrwt>
<pdfrwt beam="2">  1       -1 0.30845464E-01 0.11772114E+04</pdfrwt>
<totfact> 0.43952734E+01</totfact>
</mgrwt>
</event>
<event>
12    1  0.4802930E-008  0.2386948E+04  0.7818608E-02  0.8444406E-01
         -2   -1    0    0    0  501 -0.00000000000E+00  0.00000000000E+00  0.15275964851E+04  0.15275964851E+04  0.00000000000E+00 0.  1.
          2   -1    0    0  501    0  0.00000000000E+00 -0.00000000000E+00 -0.93243213731E+03  0.93243213731E+03  0.00000000000E+00 0. -1.
         23    2    1    2    0    0  0.49203345750E+03  0.51428513855E+03 -0.49916307141E+03  0.87377532873E+03  0.87939901075E+02 0.  0.
        254    2    1    2    0    0 -0.49203345750E+03 -0.51428513855E+03  0.10943274192E+04  0.15862532936E+04  0.90114420833E+03 0.  0.
         23    2    4    4    0    0 -0.69647006479E+03 -0.38652773127E+03  0.10553504454E+04  0.13252969044E+04  0.90405109521E+02 0.  0.
         23    2    4    4    0    0  0.20443660729E+03 -0.12775740728E+03  0.38976973714E+02  0.26095638927E+03  0.91993212284E+02 0.  0.
         13    1    3    3    0    0  0.27054638733E+03  0.28166164832E+03 -0.22022070114E+03  0.44835899571E+03  0.00000000000E+00 0. -1.
        -13    1    3    3    0    0  0.22148707018E+03  0.23262349024E+03 -0.27894237027E+03  0.42541633302E+03  0.00000000000E+00 0.  1.
          4    1    5    5  502    0 -0.23345501556E+03 -0.10878736842E+03  0.27962443549E+03  0.38016543864E+03  0.00000000000E+00 0. -1.
          1    1    6    6  503    0  0.19277274779E+03 -0.80035272331E+02  0.35312489029E+02  0.21169305371E+03  0.00000000000E+00 0. -1.
         -4    1    5    5    0  502 -0.46301504923E+03 -0.27774036285E+03  0.77572600996E+03  0.94513146572E+03  0.00000000000E+00 0.  1.
         -1    1    6    6    0  503  0.11663859502E+02 -0.47722134954E+02  0.36644846845E+01  0.49263335566E+02  0.00000000000E+00 0.  1.
<mgrwt>
<rscale>  0 0.23869479E+04</rscale>
<asrwt>0</asrwt>
<pdfrwt beam="1">  1        2 0.14345110E+00 0.23869479E+04</pdfrwt>
<pdfrwt beam="2">  1       -2 0.23501484E+00 0.23869479E+04</pdfrwt>
<totfact> 0.19966069E+00</totfact>
</mgrwt>
</event>
<event>
12    1  0.4802930E-008  0.1252625E+04  0.7818608E-02  0.9068001E-01
          2   -1    0    0  501    0  0.00000000000E+00  0.00000000000E+00  0.17959725107E+03  0.17959725107E+03  0.00000000000E+00 0.  1.
         -2   -1    0    0    0  501 -0.00000000000E+00 -0.00000000000E+00 -0.21841497625E+04  0.21841497625E+04  0.00000000000E+00 0. -1.
         23    2    1    2    0    0  0.12841399495E+03  0.19726152529E+03 -0.11739536879E+03  0.27757458551E+03  0.88677587087E+02 0.  0.
        254    2    1    2    0    0 -0.12841399495E+03 -0.19726152529E+03 -0.18871571426E+04  0.20861724280E+04  0.85752612500E+03 0.  0.
         23    2    4    4    0    0  0.30896453430E+03 -0.28735058040E+03 -0.86215094426E+03  0.96433572280E+03  0.92788447956E+02 0.  0.
         23    2    4    4    0    0 -0.43737852925E+03  0.90089055110E+02 -0.10250061983E+04  0.11218367052E+04  0.91999297890E+02 0.  0.
         13    1    3    3    0    0 -0.84021474534E+01 -0.28513578977E+01 -0.65104625478E+01  0.11005110007E+02  0.00000000000E+00 0. -1.
        -13    1    3    3    0    0  0.13681614240E+03  0.20011288319E+03 -0.11088490624E+03  0.26656947550E+03  0.00000000000E+00 0.  1.
          4    1    5    5  502    0  0.42328712066E+01 -0.29959893603E+02 -0.36748939521E+02  0.47602489213E+02  0.00000000000E+00 0. -1.
          1    1    6    6  503    0 -0.31350786823E+03  0.35931008012E+02 -0.63546483388E+03  0.70950248475E+03  0.00000000000E+00 0. -1.
         -4    1    5    5    0  502  0.30473166309E+03 -0.25739068680E+03 -0.82540200474E+03  0.91673323359E+03  0.00000000000E+00 0.  1.
         -1    1    6    6    0  503 -0.12387066102E+03  0.54158047099E+02 -0.38954136446E+03  0.41233422045E+03  0.00000000000E+00 0.  1.
<mgrwt>
<rscale>  0 0.12526249E+04</rscale>
<asrwt>0</asrwt>
<pdfrwt beam="1">  1        2 0.27630346E-01 0.12526249E+04</pdfrwt>
<pdfrwt beam="2">  1       -2 0.33602304E+00 0.12526249E+04</pdfrwt>
<totfact> 0.37031219E+00</totfact>
</mgrwt>
</event>
<event>
12    1  0.4802930E-008  0.1918291E+04  0.7818608E-02  0.8645805E-01
          2   -1    0    0  501    0  0.00000000000E+00  0.00000000000E+00  0.13838102679E+04  0.13838102679E+04  0.00000000000E+00 0.  1.
         -2   -1    0    0    0  501 -0.00000000000E+00 -0.00000000000E+00 -0.66480233003E+03  0.66480233003E+03  0.00000000000E+00 0. -1.
         23    2    1    2    0    0 -0.65205711222E+03  0.19261200797E+03 -0.47063657286E+02  0.68749384564E+03  0.90304688403E+02 0.  0.
        254    2    1    2    0    0  0.65205711222E+03 -0.19261200797E+03  0.76607159511E+03  0.13611187523E+04  0.89638200880E+03 0.  0.
         23    2    4    4    0    0  0.18611754902E+03  0.25835345591E+03 -0.26966138469E+02  0.33254721839E+03  0.92055578842E+02 0.  0.
         23    2    4    4    0    0  0.46593956319E+03 -0.45096546389E+03  0.79303773358E+03  0.10285715339E+04  0.92633834164E+02 0.  0.
         13    1    3    3    0    0 -0.57261341975E+03  0.14862952619E+03 -0.16972828331E+02  0.59183185233E+03  0.00000000000E+00 0. -1.
        -13    1    3    3    0    0 -0.79443692471E+02  0.43982481781E+02 -0.30090828955E+02  0.95661993311E+02  0.00000000000E+00 0.  1.
          2    1    6    6  502    0  0.39522697822E+03 -0.33244742728E+03  0.60814992619E+03  0.79785461642E+03  0.00000000000E+00 0.  1.
          2    1    5    5  503    0  0.94363405186E+02  0.57206039016E+02 -0.74143099472E+01  0.11059816965E+03  0.00000000000E+00 0. -1.
         -2    1    5    5    0  503  0.91754143835E+02  0.20114741690E+03 -0.19551828522E+02  0.22194904874E+03  0.00000000000E+00 0.  1.
         -2    1    6    6    0  502  0.70712584976E+02 -0.11851803661E+03  0.18488780739E+03  0.23071691745E+03  0.00000000000E+00 0. -1.
<mgrwt>
<rscale>  0 0.19182912E+04</rscale>
<asrwt>0</asrwt>
<pdfrwt beam="1">  1        2 0.21289389E+00 0.19182912E+04</pdfrwt>
<pdfrwt beam="2">  1       -2 0.10227728E+00 0.19182912E+04</pdfrwt>
<totfact> 0.10824833E+01</totfact>
</mgrwt>
</event>
<event>
12    1  0.4802930E-008  0.1568683E+04  0.7818608E-02  0.8840022E-01
          2   -1    0    0  501    0  0.00000000000E+00  0.00000000000E+00  0.19316468974E+04  0.19316468974E+04  0.00000000000E+00 0.  1.
         -2   -1    0    0    0  501 -0.00000000000E+00 -0.00000000000E+00 -0.31848036585E+03  0.31848036585E+03  0.00000000000E+00 0. -1.
         23    2    1    2    0    0  0.23561865655E+03  0.24455427350E+03 -0.25109191577E+02  0.35261407348E+03  0.91560195056E+02 0.  0.
        254    2    1    2    0    0 -0.23561865655E+03 -0.24455427350E+03  0.16382757231E+04  0.18975131898E+04  0.89514580732E+03 0.  0.
         23    2    4    4    0    0 -0.54460235139E+03  0.27608136431E-01  0.97770363878E+03  0.11228076999E+04  0.90559393006E+02 0.  0.
         23    2    4    4    0    0  0.30898369484E+03 -0.24458188163E+03  0.66057208436E+03  0.77470548993E+03  0.92314121288E+02 0.  0.
         11    1    3    3    0    0  0.18839501920E+03  0.14012486972E+03 -0.35798303077E+02  0.23750617019E+03  0.00000000000E+00 0. -1.
        -11    1    3    3    0    0  0.47223637350E+02  0.10442940377E+03  0.10689111500E+02  0.11510790330E+03  0.00000000000E+00 0.  1.
          2    1    5    5  502    0 -0.51335090801E+03 -0.19142041916E+02  0.88772778215E+03  0.10256491543E+04  0.00000000000E+00 0. -1.
          4    1    6    6  503    0  0.20781499207E+03 -0.16720565021E+03  0.52386895333E+03  0.58786348810E+03  0.00000000000E+00 0. -1.
         -2    1    5    5    0  502 -0.31251443375E+02  0.19169650052E+02  0.89975856639E+02  0.97158545554E+02  0.00000000000E+00 0.  1.
         -4    1    6    6    0  503  0.10116870278E+03 -0.77376231425E+02  0.13670313103E+03  0.18684200182E+03  0.00000000000E+00 0.  1.
<mgrwt>
<rscale>  0 0.15686830E+04</rscale>
<asrwt>0</asrwt>
<pdfrwt beam="1">  1        2 0.29717644E+00 0.15686830E+04</pdfrwt>
<pdfrwt beam="2">  1       -2 0.48996980E-01 0.15686830E+04</pdfrwt>
<totfact> 0.27648209E+01</totfact>
</mgrwt>
</event>
<event>
12    1  0.4802930E-008  0.1595349E+04  0.7818608E-02  0.8823410E-01
         -2   -1    0    0    0  501 -0.00000000000E+00  0.00000000000E+00  0.35718104394E+03  0.35718104394E+03  0.00000000000E+00 0.  1.
          2   -1    0    0  501    0  0.00000000000E+00 -0.00000000000E+00 -0.17814072485E+04  0.17814072485E+04  0.00000000000E+00 0. -1.
         23    2    1    2    0    0 -0.49110078336E+03 -0.19730456784E+03 -0.40474467407E+03  0.67294855978E+03  0.94511591896E+02 0.  0.
        254    2    1    2    0    0  0.49110078336E+03  0.19730456784E+03 -0.10194815305E+04  0.14656397327E+04  0.91030113867E+03 0.  0.
         23    2    4    4    0    0  0.49225898539E+02 -0.45716442268E+02  0.15094496932E+03  0.18790341444E+03  0.89499314052E+02 0.  0.
         23    2    4    4    0    0  0.44187488483E+03  0.24302101010E+03 -0.11704264998E+04  0.12777363182E+04  0.91647598269E+02 0.  0.
         11    1    3    3    0    0 -0.46138350051E+03 -0.17162395085E+03 -0.34378312846E+03  0.60043014120E+03  0.00000000000E+00 0.  1.
        -11    1    3    3    0    0 -0.29717282853E+02 -0.25680616982E+02 -0.60961545612E+02  0.72518418572E+02  0.00000000000E+00 0. -1.
          2    1    5    5  502    0  0.41539011440E+02  0.87223822977E+00  0.12957672218E+03  0.13607489556E+03  0.00000000000E+00 0. -1.
          3    1    6    6  503    0  0.27269486807E+03  0.11259189200E+03 -0.75520568757E+03  0.81078668942E+03  0.00000000000E+00 0. -1.
         -2    1    5    5    0  502  0.76868870986E+01 -0.46588680497E+02  0.21368247140E+02  0.51828518883E+02  0.00000000000E+00 0.  1.
         -3    1    6    6    0  503  0.16918001675E+03  0.13042911811E+03 -0.41522081226E+03  0.46694962882E+03  0.00000000000E+00 0.  1.
<mgrwt>
<rscale>  0 0.15953494E+04</rscale>
<asrwt>0</asrwt>
<pdfrwt beam="1">  1        2 0.27406264E+00 0.15953494E+04</pdfrwt>
<pdfrwt beam="2">  1       -2 0.54950932E-01 0.15953494E+04</pdfrwt>
<totfact> 0.26400297E+01</totfact>
</mgrwt>
</event>
<event>
12    1  0.4802930E-008  0.3044262E+04  0.7818608E-02  0.8231203E-01
         -2   -1    0    0    0  501 -0.00000000000E+00  0.00000000000E+00  0.16498721439E+04  0.16498721439E+04  0.00000000000E+00 0.  1.
          2   -1    0    0  501    0  0.00000000000E+00 -0.00000000000E+00 -0.14042799914E+04  0.14042799914E+04  0.00000000000E+00 0. -1.
         23    2    1    2    0    0 -0.23971344447E+03 -0.98138375290E+03 -0.84141009992E+03  0.13178779833E+04  0.90856022201E+02 0.  0.
        254    2    1    2    0    0  0.23971344447E+03  0.98138375290E+03  0.10870022524E+04  0.17362741520E+04  0.90138639229E+03 0.  0.
         23    2    4    4    0    0  0.76376328891E+02 -0.13115803397E+03  0.11378735326E+02  0.17751996983E+03  0.91367885940E+02 0.  0.
         23    2    4    4    0    0  0.16333711558E+03  0.11125417869E+04  0.10756235171E+04  0.15587541822E+04  0.91216276088E+02 0.  0.
         11    1    3    3    0    0 -0.20961337038E+03 -0.76225815892E+03 -0.69510439821E+03  0.10526848485E+04  0.00000000000E+00 0.  1.
        -11    1    3    3    0    0 -0.30100074081E+02 -0.21912559398E+03 -0.14630570171E+03  0.26519313481E+03  0.00000000000E+00 0. -1.
          1    1    5    5  502    0  0.31261536824E+02 -0.34899261505E+02 -0.37979869309E+02  0.60313452985E+02  0.00000000000E+00 0. -1.
          3    1    6    6  503    0  0.26102293767E+02  0.38727809069E+03  0.41390982967E+03  0.56743898030E+03  0.00000000000E+00 0. -1.
         -1    1    5    5    0  502  0.45114792067E+02 -0.96258772465E+02  0.49358604635E+02  0.11720651685E+03  0.00000000000E+00 0.  1.
         -3    1    6    6    0  503  0.13723482181E+03  0.72526369618E+03  0.66171368741E+03  0.99131520185E+03  0.00000000000E+00 0.  1.
<mgrwt>
<rscale>  0 0.30442618E+04</rscale>
<asrwt>0</asrwt>
<pdfrwt beam="1">  1        2 0.21604307E+00 0.30442618E+04</pdfrwt>
<pdfrwt beam="2">  1       -2 0.25382649E+00 0.30442618E+04</pdfrwt>
<totfact> 0.74708714E-01</totfact>
</mgrwt>
</event>
<event>
12    1  0.4802930E-008  0.1359649E+04  0.7818608E-02  0.8983556E-01
         -2   -1    0    0    0  501 -0.00000000000E+00  0.00000000000E+00  0.49319342366E+03  0.49319342366E+03  0.00000000000E+00 0.  1.
          2   -1    0    0  501    0  0.00000000000E+00 -0.00000000000E+00 -0.93707869617E+03  0.93707869617E+03  0.00000000000E+00 0. -1.
         23    2    1    2    0    0  0.30776658586E+03  0.11798841040E+02  0.10332279330E+03  0.33714758263E+03  0.90185413651E+02 0.  0.
        254    2    1    2    0    0 -0.30776658586E+03 -0.11798841040E+02 -0.54720806581E+03  0.10931245372E+04  0.89477656569E+03 0.  0.
         23    2    4    4    0    0 -0.28874812701E+03  0.37661115475E+02  0.18226394481E+03  0.35605128091E+03  0.93587010802E+02 0.  0.
         23    2    4    4    0    0 -0.19018458853E+02 -0.49459956516E+02 -0.72947201062E+03  0.73707325628E+03  0.91321310610E+02 0.  0.
         13    1    3    3    0    0  0.13566766725E+03 -0.26620715265E+02  0.12558508706E+02  0.13882396968E+03  0.00000000000E+00 0.  1.
        -13    1    3    3    0    0  0.17209891861E+03  0.38419556305E+02  0.90764284592E+02  0.19832361294E+03  0.00000000000E+00 0. -1.
          1    1    5    5  502    0 -0.23148919699E+03  0.20859934211E+02  0.96714429154E+02  0.25174603470E+03  0.00000000000E+00 0. -1.
          3    1    6    6  503    0  0.31431338686E+02 -0.37283834689E+01 -0.35923590005E+03  0.36062759431E+03  0.00000000000E+00 0. -1.
         -1    1    5    5    0  502 -0.57258930017E+02  0.16801181264E+02  0.85549515660E+02  0.10430524622E+03  0.00000000000E+00 0.  1.
         -3    1    6    6    0  503 -0.50449797539E+02 -0.45731573047E+02 -0.37023611057E+03  0.37644566197E+03  0.00000000000E+00 0.  1.
<mgrwt>
<rscale>  0 0.13596486E+04</rscale>
<asrwt>0</asrwt>
<pdfrwt beam="1">  1        2 0.14416595E+00 0.13596486E+04</pdfrwt>
<pdfrwt beam="2">  1       -2 0.75875911E-01 0.13596486E+04</pdfrwt>
<totfact> 0.42072500E+01</totfact>
</mgrwt>
</event>
<event>
12    1  0.4802930E-008  0.1636360E+04  0.7818608E-02  0.8798517E-01
          2   -1    0    0  501    0  0.00000000000E+00  0.00000000000E+00  0.15940556771E+04  0.15940556771E+04  0.00000000000E+00 0.  1.
         -2   -1    0    0    0  501 -0.00000000000E+00 -0.00000000000E+00 -0.41994679634E+03  0.41994679634E+03  0.00000000000E+00 0. -1.
         23    2    1    2    0    0 -0.35177342877E+03  0.11585157936E+03  0.94312182611E+03  0.10172903766E+04  0.90745786327E+02 0.  0.
        254    2    1    2    0    0  0.35177342877E+03 -0.11585157936E+03  0.23098705461E+03  0.99671209684E+03  0.89605460266E+03 0.  0.
         23    2    4    4    0    0  0.17760397154E+03 -0.25493822553E+03  0.52508867200E+03  0.61638824544E+03  0.87633818291E+02 0.  0.
         23    2    4    4    0    0  0.17416945723E+03  0.13908664617E+03 -0.29410161739E+03  0.38032385140E+03  0.92034643546E+02 0.  0.
         11    1    3    3    0    0 -0.19934541710E+03  0.10621998573E+03  0.50203577417E+03  0.55050994472E+03  0.00000000000E+00 0.  1.
        -11    1    3    3    0    0 -0.15242801167E+03  0.96315936245E+01  0.44108605193E+03  0.46678043184E+03  0.00000000000E+00 0. -1.
          4    1    5    5  502    0  0.11684869213E+03 -0.94128848158E+02  0.22218281654E+03  0.26810270583E+03  0.00000000000E+00 0. -1.
          1    1    6    6  503    0 -0.42918364309E+01 -0.64533407577E+01 -0.24828321735E+02  0.26009825587E+02  0.00000000000E+00 0. -1.
         -4    1    5    5    0  502  0.60755279406E+02 -0.16080937737E+03  0.30290585546E+03  0.34828553961E+03  0.00000000000E+00 0.  1.
         -1    1    6    6    0  503  0.17846129366E+03  0.14553998693E+03 -0.26927329565E+03  0.35431402581E+03  0.00000000000E+00 0.  1.
<mgrwt>
<rscale>  0 0.16363601E+04</rscale>
<asrwt>0</asrwt>
<pdfrwt beam="1">  1        2 0.24523933E+00 0.16363601E+04</pdfrwt>
<pdfrwt beam="2">  1       -2 0.64607200E-01 0.16363601E+04</pdfrwt>
<totfact> 0.23765822E+01</totfact>
</mgrwt>
</event>
<event>
12    1  0.4802930E-008  0.2177924E+04  0.7818608E-02  0.8527673E-01
         -1   -1    0    0    0  501 -0.00000000000E+00  0.00000000000E+00  0.32449656607E+03  0.32449656607E+03  0.00000000000E+00 0.  1.
          1   -1    0    0  501    0  0.00000000000E+00 -0.00000000000E+00 -0.36543921709E+04  0.36543921709E+04  0.00000000000E+00 0. -1.
         23    2    1    2    0    0  0.69487217128E+03  0.11576748008E+03 -0.24098609360E+04  0.25124131810E+04  0.92416543043E+02 0.  0.
        254    2    1    2    0    0 -0.69487217128E+03 -0.11576748008E+03 -0.92003466883E+03  0.14664755559E+04  0.89879770831E+03 0.  0.
         23    2    4    4    0    0  0.17656625706E+03 -0.16524303266E+03 -0.14185357161E+03  0.29361381033E+03  0.87210841439E+02 0.  0.
         23    2    4    4    0    0 -0.87143842834E+03  0.49475552584E+02 -0.77818109722E+03  0.11728617456E+04  0.90477011197E+02 0.  0.
         11    1    3    3    0    0  0.51216231240E+03  0.86080623514E+02 -0.16227953522E+04  0.17038734880E+04  0.00000000000E+00 0. -1.
        -11    1    3    3    0    0  0.18270985888E+03  0.29686856562E+02 -0.78706558371E+03  0.80853969293E+03  0.00000000000E+00 0.  1.
          1    1    5    5  502    0  0.11497201615E+03 -0.15260985937E+03 -0.86084267115E+02  0.20956821018E+03  0.00000000000E+00 0. -1.
          1    1    6    6  503    0 -0.71542305780E+03  0.70850768309E+02 -0.66051123505E+03  0.97628124771E+03  0.00000000000E+00 0. -1.
         -1    1    5    5    0  502  0.61594240912E+02 -0.12633173291E+02 -0.55769304493E+02  0.84045600150E+02  0.00000000000E+00 0.  1.
         -1    1    6    6    0  503 -0.15601537054E+03 -0.21375215725E+02 -0.11766986217E+03  0.19658049790E+03  0.00000000000E+00 0.  1.
<mgrwt>
<rscale>  0 0.21779235E+04</rscale>
<asrwt>0</asrwt>
<pdfrwt beam="1">  1        1 0.56221419E+00 0.21779235E+04</pdfrwt>
<pdfrwt beam="2">  1       -1 0.49922548E-01 0.21779235E+04</pdfrwt>
<totfact> 0.69385171E-01</totfact>
</mgrwt>
</event>
<event>
12    1  0.4802930E-008  0.2324485E+04  0.7818608E-02  0.8468329E-01
         -2   -1    0    0    0  501 -0.00000000000E+00  0.00000000000E+00  0.56460906900E+03  0.56460906900E+03  0.00000000000E+00 0.  1.
          2   -1    0    0  501    0  0.00000000000E+00 -0.00000000000E+00 -0.23924653426E+04  0.23924653426E+04  0.00000000000E+00 0. -1.
         23    2    1    2    0    0  0.62599544045E+03 -0.35911299132E+03 -0.16341698080E+04  0.17882704572E+04  0.81042180310E+02 0.  0.
        254    2    1    2    0    0 -0.62599544045E+03  0.35911299132E+03 -0.19368646565E+03  0.11688039544E+04  0.89875236008E+03 0.  0.
         23    2    4    4    0    0 -0.64841150785E+03  0.22623810237E+03 -0.47569682177E+03  0.84045657028E+03  0.91970744326E+02 0.  0.
         23    2    4    4    0    0  0.22416067397E+02  0.13287488894E+03  0.28201035612E+03  0.32834738408E+03  0.10061782884E+03 0.  0.
         11    1    3    3    0    0  0.57799655261E+03 -0.34998066930E+03 -0.14901627788E+04  0.16362003518E+04  0.00000000000E+00 0. -1.
        -11    1    3    3    0    0  0.47998887839E+02 -0.91323220169E+01 -0.14400702914E+03  0.15207010548E+03  0.00000000000E+00 0.  1.
          2    1    5    5  502    0 -0.50466163847E+02  0.35256051070E+02 -0.19813139235E+02  0.64671348499E+02  0.00000000000E+00 0. -1.
          1    1    6    6  503    0  0.79542779362E+01  0.11169230028E+03  0.11926265104E+03  0.16359101569E+03  0.00000000000E+00 0. -1.
         -2    1    5    5    0  502 -0.59794534400E+03  0.19098205130E+03 -0.45588368254E+03  0.77578522178E+03  0.00000000000E+00 0.  1.
         -1    1    6    6    0  503  0.14461789461E+02  0.21182588662E+02  0.16274770508E+03  0.16475636839E+03  0.00000000000E+00 0.  1.
<mgrwt>
<rscale>  0 0.23244850E+04</rscale>
<asrwt>0</asrwt>
<pdfrwt beam="1">  1        2 0.36807158E+00 0.23244850E+04</pdfrwt>
<pdfrwt beam="2">  1       -2 0.86862936E-01 0.23244850E+04</pdfrwt>
<totfact> 0.41653888E+00</totfact>
</mgrwt>
</event>
<event>
12    1  0.4802930E-008  0.1896121E+04  0.7818608E-02  0.8656789E-01
         -1   -1    0    0    0  501 -0.00000000000E+00  0.00000000000E+00  0.65022130708E+03  0.65022130708E+03  0.00000000000E+00 0.  1.
          1   -1    0    0  501    0  0.00000000000E+00 -0.00000000000E+00 -0.13823278039E+04  0.13823278039E+04  0.00000000000E+00 0. -1.
         23    2    1    2    0    0 -0.44434340877E+03  0.43666424711E+03 -0.69404289759E+03  0.93715933389E+03  0.91952943296E+02 0.  0.
        254    2    1    2    0    0  0.44434340877E+03 -0.43666424711E+03 -0.38063599188E+02  0.10953897770E+04  0.90017398121E+03 0.  0.
         23    2    4    4    0    0 -0.14272635449E+03  0.30557734432E+02  0.23610654185E+03  0.29165660420E+03  0.89513620575E+02 0.  0.
         23    2    4    4    0    0  0.58706976326E+03 -0.46722198154E+03 -0.27417014104E+03  0.80373317284E+03  0.88715612644E+02 0.  0.
         11    1    3    3    0    0 -0.34291382011E+03  0.29372500023E+03 -0.53928668570E+03  0.70334514511E+03  0.00000000000E+00 0. -1.
        -11    1    3    3    0    0 -0.10142958865E+03  0.14293924688E+03 -0.15475621189E+03  0.23381418878E+03  0.00000000000E+00 0.  1.
          1    1    5    5  502    0 -0.14800360144E+03  0.81956603861E+01  0.20303603092E+03  0.25138787707E+03  0.00000000000E+00 0. -1.
          1    1    6    6  503    0  0.57199166527E+03 -0.43090979822E+03 -0.26223508056E+03  0.76264340082E+03  0.00000000000E+00 0. -1.
         -1    1    5    5    0  502  0.52772469489E+01  0.22362074046E+02  0.33070510933E+02  0.40268727126E+02  0.00000000000E+00 0.  1.
         -1    1    6    6    0  503  0.15078097994E+02 -0.36312183320E+02 -0.11935060474E+02  0.41089772025E+02  0.00000000000E+00 0.  1.
<mgrwt>
<rscale>  0 0.18961213E+04</rscale>
<asrwt>0</asrwt>
<pdfrwt beam="1">  1        1 0.21266582E+00 0.18961213E+04</pdfrwt>
<pdfrwt beam="2">  1       -1 0.10003405E+00 0.18961213E+04</pdfrwt>
<totfact> 0.70473698E+00</totfact>
</mgrwt>
</event>
<event>
12    1  0.4802930E-008  0.1897706E+04  0.7818608E-02  0.8655999E-01
         -2   -1    0    0    0  501 -0.00000000000E+00  0.00000000000E+00  0.40966458052E+03  0.40966458052E+03  0.00000000000E+00 0.  1.
          2   -1    0    0  501    0  0.00000000000E+00 -0.00000000000E+00 -0.21977057813E+04  0.21977057813E+04  0.00000000000E+00 0. -1.
         23    2    1    2    0    0 -0.48861145017E+03  0.81771100522E+02  0.46748842915E+02  0.50582682572E+03  0.90816634959E+02 0.  0.
        254    2    1    2    0    0  0.48861145017E+03 -0.81771100522E+02 -0.18347900437E+04  0.21015435361E+04  0.89699669317E+03 0.  0.
         23    2    4    4    0    0  0.60664916895E+03 -0.33305098721E+03 -0.15117092309E+04  0.16650730105E+04  0.90868902430E+02 0.  0.
         23    2    4    4    0    0 -0.11803771878E+03  0.25127988669E+03 -0.32308081288E+03  0.43647052562E+03  0.95135816447E+02 0.  0.
         13    1    3    3    0    0 -0.35752002501E+03  0.68612645517E+02  0.73495649643E+02  0.37138911390E+03  0.00000000000E+00 0. -1.
        -13    1    3    3    0    0 -0.13109142516E+03  0.13158455004E+02 -0.26746806728E+02  0.13443771182E+03  0.00000000000E+00 0.  1.
          4    1    5    5  502    0  0.14489607898E+03 -0.37358058425E+02 -0.33226907720E+03  0.36440806508E+03  0.00000000000E+00 0. -1.
          1    1    6    6  503    0 -0.24669892058E+02  0.53220474395E+02 -0.13732435055E+03  0.14932849601E+03  0.00000000000E+00 0. -1.
         -4    1    5    5    0  502  0.46175308997E+03 -0.29569292879E+03 -0.11794401537E+04  0.13006649454E+04  0.00000000000E+00 0.  1.
         -1    1    6    6    0  503 -0.93367826722E+02  0.19805941229E+03 -0.18575646234E+03  0.28714202960E+03  0.00000000000E+00 0.  1.
<mgrwt>
<rscale>  0 0.18977062E+04</rscale>
<asrwt>0</asrwt>
<pdfrwt beam="1">  1        2 0.33810860E+00 0.18977062E+04</pdfrwt>
<pdfrwt beam="2">  1       -2 0.63025318E-01 0.18977062E+04</pdfrwt>
<totfact> 0.11317967E+01</totfact>
</mgrwt>
</event>
<event>
12    1  0.4802930E-008  0.3023532E+04  0.7818608E-02  0.8237043E-01
          1   -1    0    0  501    0  0.00000000000E+00  0.00000000000E+00  0.18530485462E+04  0.18530485462E+04  0.00000000000E+00 0. -1.
         -1   -1    0    0    0  501 -0.00000000000E+00 -0.00000000000E+00 -0.12333386358E+04  0.12333386358E+04  0.00000000000E+00 0.  1.
         23    2    1    2    0    0  0.11393071113E+04 -0.31703003078E+03 -0.43636172060E+03  0.12637374651E+04  0.89956074545E+02 0.  0.
        254    2    1    2    0    0 -0.11393071113E+04  0.31703003078E+03  0.10560716310E+04  0.18226497170E+04  0.89901944735E+03 0.  0.
         23    2    4    4    0    0 -0.20330313528E+03  0.41820060088E+03  0.11283313150E+03  0.48717604750E+03  0.91571165261E+02 0.  0.
         23    2    4    4    0    0 -0.93600397599E+03 -0.10117057010E+03  0.94323849951E+03  0.13354736695E+04  0.86325706094E+02 0.  0.
         13    1    3    3    0    0  0.10713309103E+04 -0.31959524121E+03 -0.41163511064E+03  0.11913582592E+04  0.00000000000E+00 0.  1.
        -13    1    3    3    0    0  0.67976201016E+02  0.25652104299E+01 -0.24726609955E+02  0.72379205915E+02  0.00000000000E+00 0. -1.
          4    1    5    5  502    0 -0.37240353079E+02  0.21525354976E+02  0.18530045351E+01  0.43053669183E+02  0.00000000000E+00 0. -1.
          1    1    6    6  503    0 -0.13320574783E+03 -0.82799410567E+01  0.94565519500E+02  0.16356945362E+03  0.00000000000E+00 0. -1.
         -4    1    5    5    0  502 -0.16606278220E+03  0.39667524590E+03  0.11098012696E+03  0.44412237832E+03  0.00000000000E+00 0.  1.
         -1    1    6    6    0  503 -0.80279822816E+03 -0.92890629044E+02  0.84867298001E+03  0.11719042158E+04  0.00000000000E+00 0.  1.
<mgrwt>
<rscale>  0 0.30235320E+04</rscale>
<asrwt>0</asrwt>
<pdfrwt beam="1">  1        1 0.28508439E+00 0.30235320E+04</pdfrwt>
<pdfrwt beam="2">  1       -1 0.18974440E+00 0.30235320E+04</pdfrwt>
<totfact> 0.56507526E-01</totfact>
</mgrwt>
</event>
<event>
12    1  0.4802930E-008  0.1655652E+04  0.7818608E-02  0.8787070E-01
         -1   -1    0    0    0  501 -0.00000000000E+00  0.00000000000E+00  0.86062360726E+03  0.86062360726E+03  0.00000000000E+00 0. -1.
          1   -1    0    0  501    0  0.00000000000E+00 -0.00000000000E+00 -0.79627875677E+03  0.79627875677E+03  0.00000000000E+00 0.  1.
         23    2    1    2    0    0 -0.55746753783E+03 -0.24028187139E+02 -0.82187805938E+02  0.57155765068E+03  0.92606172048E+02 0.  0.
        254    2    1    2    0    0  0.55746753783E+03  0.24028187139E+02  0.14653265643E+03  0.10853447133E+04  0.91932253202E+03 0.  0.
         23    2    4    4    0    0  0.64458332459E+03  0.99121646696E+02  0.41483120237E+03  0.77823427539E+03  0.90834452500E+02 0.  0.
         23    2    4    4    0    0 -0.87115786760E+02 -0.75093459557E+02 -0.26829854593E+03  0.30711043795E+03  0.95417626139E+02 0.  0.
         11    1    3    3    0    0 -0.13695131606E+03  0.91911231795E+01 -0.58084031442E+02  0.14904326360E+03  0.00000000000E+00 0. -1.
        -11    1    3    3    0    0 -0.42051622177E+03 -0.33219310318E+02 -0.24103774496E+02  0.42251438708E+03  0.00000000000E+00 0.  1.
          1    1    5    5  502    0  0.53946178826E+03  0.11558539476E+03  0.33830887949E+03  0.64717223551E+03  0.00000000000E+00 0. -1.
          3    1    6    6  503    0 -0.25519484971E+02 -0.78739615387E+02 -0.19129471621E+03  0.20843425725E+03  0.00000000000E+00 0. -1.
         -1    1    5    5    0  502  0.10512153633E+03 -0.16463748060E+02  0.76522322878E+02  0.13106203988E+03  0.00000000000E+00 0.  1.
         -3    1    6    6    0  503 -0.61596301788E+02  0.36461558300E+01 -0.77003829724E+02  0.98676180705E+02  0.00000000000E+00 0.  1.
<mgrwt>
<rscale>  0 0.16556525E+04</rscale>
<asrwt>0</asrwt>
<pdfrwt beam="1">  1        1 0.12250442E+00 0.16556525E+04</pdfrwt>
<pdfrwt beam="2">  1       -1 0.13240363E+00 0.16556525E+04</pdfrwt>
<totfact> 0.10301815E+01</totfact>
</mgrwt>
</event>
<event>
12    1  0.4802930E-008  0.1868869E+04  0.7818608E-02  0.8670509E-01
         -2   -1    0    0    0  501 -0.00000000000E+00  0.00000000000E+00  0.86556994369E+03  0.86556994369E+03  0.00000000000E+00 0.  1.
          2   -1    0    0  501    0  0.00000000000E+00 -0.00000000000E+00 -0.10087775941E+04  0.10087775941E+04  0.00000000000E+00 0. -1.
         23    2    1    2    0    0  0.41210575800E+03 -0.93529580129E+02 -0.63379879074E+03  0.76717490981E+03  0.90980750502E+02 0.  0.
        254    2    1    2    0    0 -0.41210575800E+03  0.93529580129E+02  0.49059114031E+03  0.11071726280E+04  0.89809388324E+03 0.  0.
         23    2    4    4    0    0 -0.29388230910E+03 -0.62848032812E+02  0.72411714471E+03  0.78927955352E+03  0.91103718489E+02 0.  0.
         23    2    4    4    0    0 -0.11822344890E+03  0.15637761294E+03 -0.23352600439E+03  0.31789307448E+03  0.89949265552E+02 0.  0.
         13    1    3    3    0    0  0.27318670017E+03 -0.29340074482E+02 -0.35236403918E+03  0.44682460678E+03  0.00000000000E+00 0. -1.
        -13    1    3    3    0    0  0.13891905783E+03 -0.64189505647E+02 -0.28143475155E+03  0.32035030302E+03  0.00000000000E+00 0.  1.
          4    1    5    5  502    0 -0.26995989317E+03 -0.44099080817E+02  0.69620398966E+03  0.74801274593E+03  0.00000000000E+00 0. -1.
          1    1    6    6  503    0 -0.56067995235E+02  0.81802325047E+02 -0.18372729266E+03  0.20878447869E+03  0.00000000000E+00 0. -1.
         -4    1    5    5    0  502 -0.23922415924E+02 -0.18748951995E+02  0.27913155050E+02  0.41266807599E+02  0.00000000000E+00 0.  1.
         -1    1    6    6    0  503 -0.62155453669E+02  0.74575287894E+02 -0.49798711735E+02  0.10910859579E+03  0.00000000000E+00 0.  1.
<mgrwt>
<rscale>  0 0.18688687E+04</rscale>
<asrwt>0</asrwt>
<pdfrwt beam="1">  1        2 0.15519655E+00 0.18688687E+04</pdfrwt>
<pdfrwt beam="2">  1       -2 0.13316461E+00 0.18688687E+04</pdfrwt>
<totfact> 0.95371839E+00</totfact>
</mgrwt>
</event>
<event>
12    1  0.4802930E-008  0.2056384E+04  0.7818608E-02  0.8580704E-01
         -1   -1    0    0    0  501 -0.00000000000E+00  0.00000000000E+00  0.57762631235E+03  0.57762631235E+03  0.00000000000E+00 0.  1.
          1   -1    0    0  501    0  0.00000000000E+00 -0.00000000000E+00 -0.18302114873E+04  0.18302114873E+04  0.00000000000E+00 0. -1.
         23    2    1    2    0    0 -0.14475254557E+03  0.51214183966E+03  0.23668420920E+03  0.58934836803E+03  0.89830510624E+02 0.  0.
        254    2    1    2    0    0  0.14475254557E+03 -0.51214183966E+03 -0.14892693842E+04  0.18184894317E+04  0.89762907205E+03 0.  0.
         23    2    4    4    0    0  0.18536040301E+03  0.93587981996E+02 -0.10219994427E+04  0.10468444275E+04  0.91012114943E+02 0.  0.
         23    2    4    4    0    0 -0.40607857442E+02 -0.60572982166E+03 -0.46726994147E+03  0.77164500417E+03  0.92396966019E+02 0.  0.
         11    1    3    3    0    0  0.63703075997E+01  0.64358099072E+02  0.10894764686E+02  0.65583851920E+02  0.00000000000E+00 0. -1.
        -11    1    3    3    0    0 -0.15112285317E+03  0.44778374059E+03  0.22578944451E+03  0.52376451611E+03  0.00000000000E+00 0.  1.
          4    1    5    5  502    0  0.14432119469E+03  0.46979169040E+02 -0.54218140181E+03  0.56302426416E+03  0.00000000000E+00 0. -1.
          3    1    6    6  503    0 -0.66687662877E+02 -0.34140479609E+03 -0.28200343734E+03  0.44780622801E+03  0.00000000000E+00 0. -1.
         -4    1    5    5    0  502  0.41039208323E+02  0.46608812956E+02 -0.47981804090E+03  0.48382016332E+03  0.00000000000E+00 0.  1.
         -3    1    6    6    0  503  0.26079805436E+02 -0.26432502556E+03 -0.18526650413E+03  0.32383877616E+03  0.00000000000E+00 0.  1.
<mgrwt>
<rscale>  0 0.20563835E+04</rscale>
<asrwt>0</asrwt>
<pdfrwt beam="1">  1        1 0.28157099E+00 0.20563835E+04</pdfrwt>
<pdfrwt beam="2">  1       -1 0.88865588E-01 0.20563835E+04</pdfrwt>
<totfact> 0.44555950E+00</totfact>
</mgrwt>
</event>
<event>
12    1  0.4802930E-008  0.2883688E+04  0.7818608E-02  0.8277747E-01
          1   -1    0    0  501    0  0.00000000000E+00  0.00000000000E+00  0.16582365425E+04  0.16582365425E+04  0.00000000000E+00 0. -1.
         -1   -1    0    0    0  501 -0.00000000000E+00 -0.00000000000E+00 -0.12536899717E+04  0.12536899717E+04  0.00000000000E+00 0.  1.
         23    2    1    2    0    0 -0.47117071752E+03 -0.30615669356E+03  0.13661774118E+04  0.14802588923E+04  0.94825637160E+02 0.  0.
        254    2    1    2    0    0  0.47117071752E+03  0.30615669356E+03 -0.96163084100E+03  0.14316676220E+04  0.89955796889E+03 0.  0.
         23    2    4    4    0    0  0.27388772140E+01  0.52471312783E+03 -0.53719380602E+03  0.75650826523E+03  0.91630792671E+02 0.  0.
         23    2    4    4    0    0  0.46843184031E+03 -0.21855643427E+03 -0.42443703498E+03  0.67515935675E+03  0.92184903134E+02 0.  0.
         13    1    3    3    0    0 -0.13244703676E+03 -0.55934893535E+02  0.43854694586E+03  0.46151311313E+03  0.00000000000E+00 0. -1.
        -13    1    3    3    0    0 -0.33872368076E+03 -0.25022180002E+03  0.92763046596E+03  0.10187457791E+04  0.00000000000E+00 0.  1.
          4    1    5    5  502    0 -0.24541674853E+02  0.12279469225E+03 -0.87504762670E+02  0.15276751533E+03  0.00000000000E+00 0. -1.
          1    1    6    6  503    0  0.16419520407E+03 -0.29837195613E+02 -0.14289190048E+03  0.21970074761E+03  0.00000000000E+00 0. -1.
         -4    1    5    5    0  502  0.27280552067E+02  0.40191843558E+03 -0.44968904335E+03  0.60374074990E+03  0.00000000000E+00 0.  1.
         -1    1    6    6    0  503  0.30423663624E+03 -0.18871923866E+03 -0.28154513450E+03  0.45545860913E+03  0.00000000000E+00 0.  1.
<mgrwt>
<rscale>  0 0.28836883E+04</rscale>
<asrwt>0</asrwt>
<pdfrwt beam="1">  1        1 0.25511331E+00 0.28836883E+04</pdfrwt>
<pdfrwt beam="2">  1       -1 0.19287538E+00 0.28836883E+04</pdfrwt>
<totfact> 0.73803554E-01</totfact>
</mgrwt>
</event>
<event>
12    1  0.4802930E-008  0.3498735E+04  0.7818608E-02  0.8114090E-01
          2   -1    0    0  501    0  0.00000000000E+00  0.00000000000E+00  0.29521029354E+04  0.29521029354E+04  0.00000000000E+00 0. -1.
         -2   -1    0    0    0  501 -0.00000000000E+00 -0.00000000000E+00 -0.10366464637E+04  0.10366464637E+04  0.00000000000E+00 0.  1.
         23    2    1    2    0    0  0.22405762542E+03  0.99791729626E+03 -0.55646950348E+03  0.11676980914E+04  0.88429490035E+02 0.  0.
        254    2    1    2    0    0 -0.22405762542E+03 -0.99791729626E+03  0.24719259752E+04  0.28210513077E+04  0.89547289408E+03 0.  0.
         23    2    4    4    0    0  0.13853126382E+03 -0.97398864649E+02  0.12132183195E+04  0.12284290093E+04  0.91987445450E+02 0.  0.
         23    2    4    4    0    0 -0.36258888924E+03 -0.90051843161E+03  0.12587076557E+04  0.15926222984E+04  0.98471694753E+02 0.  0.
         11    1    3    3    0    0  0.23027318121E+03  0.94803207233E+03 -0.51946177197E+03  0.11052742106E+04  0.00000000000E+00 0.  1.
        -11    1    3    3    0    0 -0.62155557953E+01  0.49885223928E+02 -0.37007731506E+02  0.62423880778E+02  0.00000000000E+00 0. -1.
          1    1    5    5  502    0 -0.62780328410E+01 -0.29439159707E+02  0.12845328906E+03  0.13193303335E+03  0.00000000000E+00 0. -1.
          3    1    6    6  503    0 -0.20727188314E+03 -0.63445448004E+03  0.84526987209E+03  0.10770214842E+04  0.00000000000E+00 0. -1.
         -1    1    5    5    0  502  0.14480929666E+03 -0.67959704942E+02  0.10847650304E+04  0.10964959759E+04  0.00000000000E+00 0.  1.
         -3    1    6    6    0  503 -0.15531700610E+03 -0.26606395157E+03  0.41343778363E+03  0.51560081423E+03  0.00000000000E+00 0.  1.
<mgrwt>
<rscale>  0 0.34987352E+04</rscale>
<asrwt>0</asrwt>
<pdfrwt beam="1">  1        2 0.45416968E+00 0.34987352E+04</pdfrwt>
<pdfrwt beam="2">  1       -2 0.15948407E+00 0.34987352E+04</pdfrwt>
<totfact> 0.38928898E-01</totfact>
</mgrwt>
</event>
<event>
12    1  0.4802930E-008  0.3578691E+04  0.7818608E-02  0.8095390E-01
         -2   -1    0    0    0  501 -0.00000000000E+00  0.00000000000E+00  0.17712002269E+04  0.17712002269E+04  0.00000000000E+00 0. -1.
          2   -1    0    0  501    0  0.00000000000E+00 -0.00000000000E+00 -0.18076763318E+04  0.18076763318E+04  0.00000000000E+00 0.  1.
         23    2    1    2    0    0 -0.91738555232E+03  0.66987384534E+02 -0.14030669466E+04  0.16824682695E+04  0.12656642593E+03 0.  0.
        254    2    1    2    0    0  0.91738555232E+03 -0.66987384534E+02  0.13665908417E+04  0.18964082892E+04  0.93952664121E+03 0.  0.
         23    2    4    4    0    0  0.57947783128E+02  0.34069699966E+03  0.40273082424E+03  0.53926482404E+03  0.95822974873E+02 0.  0.
         23    2    4    4    0    0  0.85943776919E+03 -0.40768438420E+03  0.96386001744E+03  0.13571434652E+04  0.89288384410E+02 0.  0.
         13    1    3    3    0    0 -0.41097939094E+03 -0.11478552624E+02 -0.53954412977E+03  0.67833891597E+03  0.00000000000E+00 0. -1.
        -13    1    3    3    0    0 -0.50640616138E+03  0.78465937158E+02 -0.86352281680E+03  0.10041293536E+04  0.00000000000E+00 0.  1.
          4    1    5    5  502    0  0.37083069220E+02  0.81449198612E+02  0.16093834631E+03  0.18414743357E+03  0.00000000000E+00 0. -1.
          1    1    6    6  503    0  0.56624400183E+03 -0.25755280996E+03  0.68762417897E+03  0.92725009087E+03  0.00000000000E+00 0. -1.
         -4    1    5    5    0  502  0.20864713908E+02  0.25924780105E+03  0.24179247793E+03  0.35511739047E+03  0.00000000000E+00 0.  1.
         -1    1    6    6    0  503  0.29319376736E+03 -0.15013157423E+03  0.27623583847E+03  0.42989337429E+03  0.00000000000E+00 0.  1.
<mgrwt>
<rscale>  0 0.35786907E+04</rscale>
<asrwt>0</asrwt>
<pdfrwt beam="1">  1        2 0.27810405E+00 0.35786907E+04</pdfrwt>
<pdfrwt beam="2">  1       -2 0.27249234E+00 0.35786907E+04</pdfrwt>
<totfact> 0.32647814E-01</totfact>
</mgrwt>
</event>
<event>
12    1  0.4802930E-008  0.1634773E+04  0.7818608E-02  0.8799466E-01
         -2   -1    0    0    0  501 -0.00000000000E+00  0.00000000000E+00  0.41968732435E+03  0.41968732435E+03  0.00000000000E+00 0. -1.
          2   -1    0    0  501    0  0.00000000000E+00 -0.00000000000E+00 -0.15919488182E+04  0.15919488182E+04  0.00000000000E+00 0.  1.
         23    2    1    2    0    0 -0.34270141987E+03 -0.33589478478E+03 -0.75082029609E+03  0.89561464539E+03  0.90138262671E+02 0.  0.
        254    2    1    2    0    0  0.34270141987E+03  0.33589478478E+03 -0.42144119777E+03  0.11160214972E+04  0.91521676632E+03 0.  0.
         23    2    4    4    0    0  0.18304463665E+02 -0.21964868749E+03  0.12257219377E+03  0.26858428298E+03  0.92374103882E+02 0.  0.
         23    2    4    4    0    0  0.32439695620E+03  0.55554347228E+03 -0.54401339154E+03  0.84743721419E+03  0.91308964739E+02 0.  0.
         13    1    3    3    0    0 -0.20424473924E+03 -0.18968865829E+03 -0.51437153155E+03  0.58504339417E+03  0.00000000000E+00 0.  1.
        -13    1    3    3    0    0 -0.13845668062E+03 -0.14620612649E+03 -0.23644876453E+03  0.31057125121E+03  0.00000000000E+00 0. -1.
          2    1    5    5  502    0  0.39344311390E+02 -0.40980211803E+02  0.14186293174E+02  0.58554278343E+02  0.00000000000E+00 0. -1.
          3    1    6    6  503    0  0.93137310488E+02  0.24266093723E+03 -0.19771253566E+03  0.32657179275E+03  0.00000000000E+00 0. -1.
         -2    1    5    5    0  502 -0.21039847726E+02 -0.17866847569E+03  0.10838590060E+03  0.21003000463E+03  0.00000000000E+00 0.  1.
         -3    1    6    6    0  503  0.23125964572E+03  0.31288253505E+03 -0.34630085588E+03  0.52086542145E+03  0.00000000000E+00 0.  1.
<mgrwt>
<rscale>  0 0.16347731E+04</rscale>
<asrwt>0</asrwt>
<pdfrwt beam="1">  1        2 0.24491520E+00 0.16347731E+04</pdfrwt>
<pdfrwt beam="2">  1       -2 0.64567280E-01 0.16347731E+04</pdfrwt>
<totfact> 0.23865106E+01</totfact>
</mgrwt>
</event>
<event>
12    1  0.4802930E-008  0.3479182E+04  0.7818608E-02  0.8118741E-01
          1   -1    0    0  501    0  0.00000000000E+00  0.00000000000E+00  0.21102098278E+04  0.21102098278E+04  0.00000000000E+00 0. -1.
         -1   -1    0    0    0  501 -0.00000000000E+00 -0.00000000000E+00 -0.14340644998E+04  0.14340644998E+04  0.00000000000E+00 0.  1.
         23    2    1    2    0    0 -0.12431462412E+04  0.91938685356E+03  0.81953229730E+03  0.17522167743E+04  0.89138512476E+02 0.  0.
        254    2    1    2    0    0  0.12431462412E+04 -0.91938685356E+03 -0.14338696921E+03  0.17920575533E+04  0.89455334551E+03 0.  0.
         23    2    4    4    0    0  0.55870707648E+03 -0.93661291408E+03 -0.10219472836E+03  0.10993694159E+04  0.93658966561E+02 0.  0.
         23    2    4    4    0    0  0.68443916468E+03  0.17226060528E+02 -0.41192240853E+02  0.69268813737E+03  0.96779892740E+02 0.  0.
         13    1    3    3    0    0 -0.96018802325E+03  0.69834385252E+03  0.58731779823E+03  0.13246083846E+04  0.00000000000E+00 0. -1.
        -13    1    3    3    0    0 -0.28295821791E+03  0.22104300104E+03  0.23221449907E+03  0.42760838973E+03  0.00000000000E+00 0.  1.
          2    1    5    5  502    0  0.21088190742E+03 -0.28023168952E+03 -0.10344314472E+02  0.35086747288E+03  0.00000000000E+00 0. -1.
          3    1    6    6  503    0  0.32367005763E+03  0.55949762991E+02 -0.12352035360E+02  0.32870238052E+03  0.00000000000E+00 0. -1.
         -2    1    5    5    0  502  0.34782516906E+03 -0.65638122457E+03 -0.91850413890E+02  0.74850194303E+03  0.00000000000E+00 0.  1.
         -3    1    6    6    0  503  0.36076910705E+03 -0.38723702463E+02 -0.28840205493E+02  0.36398575685E+03  0.00000000000E+00 0.  1.
<mgrwt>
<rscale>  0 0.34791821E+04</rscale>
<asrwt>0</asrwt>
<pdfrwt beam="1">  1        1 0.32464767E+00 0.34791821E+04</pdfrwt>
<pdfrwt beam="2">  1       -1 0.22062531E+00 0.34791821E+04</pdfrwt>
<totfact> 0.22342040E-01</totfact>
</mgrwt>
</event>
<event>
12    1  0.4802930E-008  0.1414076E+04  0.7818608E-02  0.8943692E-01
          1   -1    0    0  501    0  0.00000000000E+00  0.00000000000E+00  0.50147232724E+03  0.50147232724E+03  0.00000000000E+00 0. -1.
         -1   -1    0    0    0  501 -0.00000000000E+00 -0.00000000000E+00 -0.99687030989E+03  0.99687030989E+03  0.00000000000E+00 0.  1.
         23    2    1    2    0    0  0.23684129073E+03  0.99503182218E+02  0.19203331064E+03  0.33313489728E+03  0.90041030229E+02 0.  0.
        254    2    1    2    0    0 -0.23684129073E+03 -0.99503182218E+02 -0.68743129329E+03  0.11652077399E+04  0.90507050209E+03 0.  0.
         23    2    4    4    0    0 -0.30553124186E+03 -0.40746220345E+02 -0.87909425834E+03  0.93608027600E+03  0.91814889052E+02 0.  0.
         23    2    4    4    0    0  0.68689951138E+02 -0.58756961874E+02  0.19166296504E+03  0.22912746385E+03  0.87143631809E+02 0.  0.
         13    1    3    3    0    0  0.14551050742E+03  0.12796399377E+02  0.96577797400E+02  0.17511232554E+03  0.00000000000E+00 0.  1.
        -13    1    3    3    0    0  0.91330783310E+02  0.86706782842E+02  0.95455513238E+02  0.15802257174E+03  0.00000000000E+00 0. -1.
          1    1    5    5  502    0 -0.16276261308E+03  0.23734541531E+02 -0.42463407173E+03  0.45537796559E+03  0.00000000000E+00 0. -1.
          3    1    6    6  503    0  0.88777733696E+02 -0.38144188456E+02  0.15226382866E+03  0.18033507321E+03  0.00000000000E+00 0. -1.
         -1    1    5    5    0  502 -0.14276862879E+03 -0.64480761875E+02 -0.45446018661E+03  0.48070231041E+03  0.00000000000E+00 0.  1.
         -3    1    6    6    0  503 -0.20087782558E+02 -0.20612773418E+02  0.39399136387E+02  0.48792390638E+02  0.00000000000E+00 0.  1.
<mgrwt>
<rscale>  0 0.14140762E+04</rscale>
<asrwt>0</asrwt>
<pdfrwt beam="1">  1        1 0.77149588E-01 0.14140762E+04</pdfrwt>
<pdfrwt beam="2">  1       -1 0.15336466E+00 0.14140762E+04</pdfrwt>
<totfact> 0.14124860E+01</totfact>
</mgrwt>
</event>
<event>
12    1  0.4802930E-008  0.2909628E+04  0.7818608E-02  0.8270019E-01
          1   -1    0    0  501    0  0.00000000000E+00  0.00000000000E+00  0.23840737124E+04  0.23840737124E+04  0.00000000000E+00 0. -1.
         -1   -1    0    0    0  501 -0.00000000000E+00 -0.00000000000E+00 -0.88775909037E+03  0.88775909037E+03  0.00000000000E+00 0.  1.
         23    2    1    2    0    0 -0.86998598053E+03  0.89065936030E+03  0.20346040405E+03  0.12647325882E+04  0.89457706447E+02 0.  0.
        254    2    1    2    0    0  0.86998598053E+03 -0.89065936030E+03  0.12928542180E+04  0.20071002146E+04  0.89823690639E+03 0.  0.
         23    2    4    4    0    0  0.16375964484E+03  0.16838347817E+03  0.28728932836E+03  0.38230945752E+03  0.91951868486E+02 0.  0.
         23    2    4    4    0    0  0.70622633569E+03 -0.10590428385E+04  0.10055648897E+04  0.16247907571E+04  0.91961329209E+02 0.  0.
         13    1    3    3    0    0 -0.31161532233E+03  0.29304017837E+03  0.10892232314E+03  0.44140766614E+03  0.00000000000E+00 0.  1.
        -13    1    3    3    0    0 -0.55837065820E+03  0.59761918193E+03  0.94538080909E+02  0.82332492206E+03  0.00000000000E+00 0. -1.
          2    1    5    5  502    0  0.21506186744E+02  0.72076723532E+02  0.12558579819E+03  0.14638771414E+03  0.00000000000E+00 0. -1.
          1    1    6    6  503    0  0.17916402912E+03 -0.21333516239E+03  0.19173109558E+03  0.33818996711E+03  0.00000000000E+00 0. -1.
         -2    1    5    5    0  502  0.14225345810E+03  0.96306754637E+02  0.16170353017E+03  0.23592174338E+03  0.00000000000E+00 0.  1.
         -1    1    6    6    0  503  0.52706230657E+03 -0.84570767608E+03  0.81383379407E+03  0.12866007900E+04  0.00000000000E+00 0.  1.
<mgrwt>
<rscale>  0 0.29096275E+04</rscale>
<asrwt>0</asrwt>
<pdfrwt beam="1">  1        1 0.36678057E+00 0.29096275E+04</pdfrwt>
<pdfrwt beam="2">  1       -1 0.13657832E+00 0.29096275E+04</pdfrwt>
<totfact> 0.62453762E-01</totfact>
</mgrwt>
</event>
<event>
12    1  0.4802930E-008  0.1897126E+04  0.7818608E-02  0.8656288E-01
         -2   -1    0    0    0  501 -0.00000000000E+00  0.00000000000E+00  0.66198653187E+03  0.66198653187E+03  0.00000000000E+00 0.  1.
          2   -1    0    0  501    0  0.00000000000E+00 -0.00000000000E+00 -0.13592001867E+04  0.13592001867E+04  0.00000000000E+00 0. -1.
         23    2    1    2    0    0 -0.62694183241E+03  0.31281419196E+03 -0.50964379639E+02  0.70915519063E+03  0.96927480591E+02 0.  0.
        254    2    1    2    0    0  0.62694183241E+03 -0.31281419196E+03 -0.64624927521E+03  0.13120315279E+04  0.90159848309E+03 0.  0.
         23    2    4    4    0    0  0.30732199321E+03  0.79175583937E+02  0.15155463747E+03  0.36295991596E+03  0.89752503326E+02 0.  0.
         23    2    4    4    0    0  0.31961983920E+03 -0.39198977590E+03 -0.79780391268E+03  0.94907161199E+03  0.91831452020E+02 0.  0.
         13    1    3    3    0    0 -0.55724245337E+02  0.56913238935E+02 -0.21690953869E+02  0.82551836831E+02  0.00000000000E+00 0. -1.
        -13    1    3    3    0    0 -0.57121758707E+03  0.25590095303E+03 -0.29273425770E+02  0.62660335380E+03  0.00000000000E+00 0.  1.
          4    1    5    5  502    0  0.13510103470E+02 -0.15808756083E+02  0.63822131132E+01  0.21752524195E+02  0.00000000000E+00 0. -1.
          1    1    6    6  503    0  0.13849508961E+03 -0.13288929899E+03 -0.37367157995E+03  0.42008440258E+03  0.00000000000E+00 0. -1.
         -4    1    5    5    0  502  0.29381188974E+03  0.94984340019E+02  0.14517242436E+03  0.34120739176E+03  0.00000000000E+00 0.  1.
         -1    1    6    6    0  503  0.18112474959E+03 -0.25910047691E+03 -0.42413233273E+03  0.52898720941E+03  0.00000000000E+00 0.  1.
<mgrwt>
<rscale>  0 0.18971265E+04</rscale>
<asrwt>0</asrwt>
<pdfrwt beam="1">  1        2 0.20910772E+00 0.18971265E+04</pdfrwt>
<pdfrwt beam="2">  1       -2 0.10184408E+00 0.18971265E+04</pdfrwt>
<totfact> 0.11317054E+01</totfact>
</mgrwt>
</event>
<event>
12    1  0.4802930E-008  0.1750535E+04  0.7818608E-02  0.8733056E-01
         -1   -1    0    0    0  501 -0.00000000000E+00  0.00000000000E+00  0.14990134641E+04  0.14990134641E+04  0.00000000000E+00 0.  1.
          1   -1    0    0  501    0  0.00000000000E+00 -0.00000000000E+00 -0.51106496568E+03  0.51106496568E+03  0.00000000000E+00 0. -1.
         23    2    1    2    0    0 -0.42721466862E+03 -0.32294502588E+03 -0.40764577341E+02  0.54416190885E+03  0.87433228563E+02 0.  0.
        254    2    1    2    0    0  0.42721466862E+03  0.32294502588E+03  0.10287130758E+04  0.14659165209E+04  0.89657949521E+03 0.  0.
         23    2    4    4    0    0  0.62331950098E+03  0.26824797428E+03  0.38775709377E+03  0.78709719275E+03  0.93178597639E+02 0.  0.
         23    2    4    4    0    0 -0.19610483236E+03  0.54697051597E+02  0.64095598199E+03  0.67881932816E+03  0.92315961352E+02 0.  0.
         11    1    3    3    0    0 -0.75048465522E+02 -0.27902983765E+02  0.14685106175E+02  0.81403323172E+02  0.00000000000E+00 0.  1.
        -11    1    3    3    0    0 -0.35216620310E+03 -0.29504204211E+03 -0.55449683516E+02  0.46275858568E+03  0.00000000000E+00 0. -1.
          2    1    5    5  502    0  0.60045489110E+03  0.27579096603E+03  0.37136529107E+03  0.75797025839E+03  0.00000000000E+00 0. -1.
          2    1    6    6  503    0 -0.20319892265E+03  0.42968828313E+02  0.57261757503E+03  0.60911986472E+03  0.00000000000E+00 0. -1.
         -2    1    5    5    0  502  0.22864609879E+02 -0.75429917515E+01  0.16391802693E+02  0.29126934356E+02  0.00000000000E+00 0.  1.
         -2    1    6    6    0  503  0.70940902889E+01  0.11728223283E+02  0.68338406959E+02  0.69699463442E+02  0.00000000000E+00 0.  1.
<mgrwt>
<rscale>  0 0.17505351E+04</rscale>
<asrwt>0</asrwt>
<pdfrwt beam="1">  1        1 0.78625380E-01 0.17505351E+04</pdfrwt>
<pdfrwt beam="2">  1       -1 0.23061745E+00 0.17505351E+04</pdfrwt>
<totfact> 0.38094554E+00</totfact>
</mgrwt>
</event>
<event>
12    1  0.4802930E-008  0.2506631E+04  0.7818608E-02  0.8400627E-01
          2   -1    0    0  501    0  0.00000000000E+00  0.00000000000E+00  0.11327394397E+04  0.11327394397E+04  0.00000000000E+00 0. -1.
         -2   -1    0    0    0  501 -0.00000000000E+00 -0.00000000000E+00 -0.13867267990E+04  0.13867267990E+04  0.00000000000E+00 0.  1.
         23    2    1    2    0    0  0.45726603554E+03 -0.11174395646E+03 -0.10966364274E+04  0.11968536586E+04  0.90930122062E+02 0.  0.
        254    2    1    2    0    0 -0.45726603554E+03  0.11174395646E+03  0.84264906810E+03  0.13226125802E+04  0.90424976980E+03 0.  0.
         23    2    4    4    0    0 -0.26026343434E+03  0.48634284761E+03  0.62455042758E+03  0.83834412639E+03  0.92147799658E+02 0.  0.
         23    2    4    4    0    0 -0.19700260120E+03 -0.37459889115E+03  0.21809864052E+03  0.48426845378E+03  0.88400023750E+02 0.  0.
         13    1    3    3    0    0  0.66819335610E+02 -0.38635952010E+02 -0.12187952120E+03  0.14426426476E+03  0.00000000000E+00 0. -1.
        -13    1    3    3    0    0  0.39044669993E+03 -0.73108004452E+02 -0.97475690618E+03  0.10525893938E+04  0.00000000000E+00 0.  1.
          4    1    5    5  502    0 -0.18874857594E+03  0.29463652852E+03  0.34020603234E+03  0.48803366000E+03  0.00000000000E+00 0. -1.
          1    1    6    6  503    0 -0.13266232909E+03 -0.31663554379E+03  0.19423191411E+03  0.39444061354E+03  0.00000000000E+00 0. -1.
         -4    1    5    5    0  502 -0.71514858391E+02  0.19170631909E+03  0.28434439525E+03  0.35031046639E+03  0.00000000000E+00 0.  1.
         -1    1    6    6    0  503 -0.64340272114E+02 -0.57963347358E+02  0.23866726412E+02  0.89827840241E+02  0.00000000000E+00 0.  1.
<mgrwt>
<rscale>  0 0.25066313E+04</rscale>
<asrwt>0</asrwt>
<pdfrwt beam="1">  1        2 0.17426761E+00 0.25066313E+04</pdfrwt>
<pdfrwt beam="2">  1       -2 0.21334258E+00 0.25066313E+04</pdfrwt>
<totfact> 0.20204423E+00</totfact>
</mgrwt>
</event>
<event>
12    1  0.4802930E-008  0.1662485E+04  0.7818608E-02  0.8783054E-01
         -2   -1    0    0    0  501 -0.00000000000E+00  0.00000000000E+00  0.42931056142E+03  0.42931056142E+03  0.00000000000E+00 0.  1.
          2   -1    0    0  501    0  0.00000000000E+00 -0.00000000000E+00 -0.16094744413E+04  0.16094744413E+04  0.00000000000E+00 0. -1.
         23    2    1    2    0    0 -0.78979388595E+02  0.71413162425E+02  0.28053541173E+03  0.31341266372E+03  0.90497496956E+02 0.  0.
        254    2    1    2    0    0  0.78979388595E+02 -0.71413162425E+02 -0.14606992916E+04  0.17253723390E+04  0.91210180577E+03 0.  0.
         23    2    4    4    0    0  0.45291001725E+03  0.62573682097E+01 -0.46907590585E+03  0.65880988127E+03  0.93976677070E+02 0.  0.
         23    2    4    4    0    0 -0.37393062865E+03 -0.77670530634E+02 -0.99162338574E+03  0.10665624577E+04  0.91551683097E+02 0.  0.
         11    1    3    3    0    0  0.15198010571E+00  0.55481795701E+02  0.81107994809E+02  0.98268812825E+02  0.00000000000E+00 0. -1.
        -11    1    3    3    0    0 -0.79131368700E+02  0.15931366724E+02  0.19942741692E+03  0.21514385090E+03  0.00000000000E+00 0.  1.
          4    1    5    5  502    0  0.31216232855E+03 -0.36781504063E+02 -0.34021408753E+03  0.46318875608E+03  0.00000000000E+00 0. -1.
          1    1    6    6  503    0 -0.28616604523E+03 -0.86506055526E+02 -0.68259094985E+03  0.74518769978E+03  0.00000000000E+00 0. -1.
         -4    1    5    5    0  502  0.14074768870E+03  0.43038872273E+02 -0.12886181832E+03  0.19562112519E+03  0.00000000000E+00 0.  1.
         -1    1    6    6    0  503 -0.87764583423E+02  0.88355248919E+01 -0.30903243589E+03  0.32137475793E+03  0.00000000000E+00 0.  1.
<mgrwt>
<rscale>  0 0.16624853E+04</rscale>
<asrwt>0</asrwt>
<pdfrwt beam="1">  1        2 0.24761146E+00 0.16624853E+04</pdfrwt>
<pdfrwt beam="2">  1       -2 0.66047777E-01 0.16624853E+04</pdfrwt>
<totfact> 0.22172183E+01</totfact>
</mgrwt>
</event>
<event>
12    1  0.4802930E-008  0.1150491E+04  0.7818608E-02  0.9157331E-01
         -1   -1    0    0    0  501 -0.00000000000E+00  0.00000000000E+00  0.42559503119E+03  0.42559503119E+03  0.00000000000E+00 0. -1.
          1   -1    0    0  501    0  0.00000000000E+00 -0.00000000000E+00 -0.77751706524E+03  0.77751706524E+03  0.00000000000E+00 0.  1.
         23    2    1    2    0    0 -0.19078823873E+03  0.90865272635E+02 -0.53988711468E+02  0.23627870937E+03  0.90863621563E+02 0.  0.
        254    2    1    2    0    0  0.19078823873E+03 -0.90865272635E+02 -0.29793332259E+03  0.96683338706E+03  0.89517924675E+03 0.  0.
         23    2    4    4    0    0 -0.31526035269E+03 -0.69896960185E+02 -0.30322654628E+03  0.45218304476E+03  0.90821212140E+02 0.  0.
         23    2    4    4    0    0  0.50604859143E+03 -0.20968312450E+02  0.52932236921E+01  0.51465034230E+03  0.91170771669E+02 0.  0.
         13    1    3    3    0    0 -0.17947795119E+03  0.57472695476E+02 -0.64988935155E+02  0.19934645064E+03  0.00000000000E+00 0. -1.
        -13    1    3    3    0    0 -0.11310287542E+02  0.33392577159E+02  0.11000223688E+02  0.36932258728E+02  0.00000000000E+00 0.  1.
          4    1    5    5  502    0 -0.48142862937E+02  0.46952016618E+01 -0.11609071182E+02  0.49744856057E+02  0.00000000000E+00 0. -1.
          3    1    6    6  503    0  0.16000781967E+03 -0.16042026974E+02  0.43181381944E+02  0.16650669876E+03  0.00000000000E+00 0. -1.
         -4    1    5    5    0  502 -0.26711748975E+03 -0.74592161846E+02 -0.29161747510E+03  0.40243818870E+03  0.00000000000E+00 0.  1.
         -3    1    6    6    0  503  0.34604077175E+03 -0.49262854761E+01 -0.37888158252E+02  0.34814364354E+03  0.00000000000E+00 0.  1.
<mgrwt>
<rscale>  0 0.11504910E+04</rscale>
<asrwt>0</asrwt>
<pdfrwt beam="1">  1        1 0.11961801E+00 0.11504910E+04</pdfrwt>
<pdfrwt beam="2">  1       -1 0.65476159E-01 0.11504910E+04</pdfrwt>
<totfact> 0.54353683E+01</totfact>
</mgrwt>
</event>
<event>
12    1  0.4802930E-008  0.1623878E+04  0.7818608E-02  0.8806011E-01
          2   -1    0    0  501    0  0.00000000000E+00  0.00000000000E+00  0.27473912392E+04  0.27473912392E+04  0.00000000000E+00 0.  1.
         -2   -1    0    0    0  501 -0.00000000000E+00 -0.00000000000E+00 -0.23995314915E+03  0.23995314915E+03  0.00000000000E+00 0. -1.
         23    2    1    2    0    0 -0.99073989814E+02 -0.52755377770E+03  0.11455643066E+04  0.12684158079E+04  0.91828303721E+02 0.  0.
        254    2    1    2    0    0  0.99073989814E+02  0.52755377770E+03  0.13618737835E+04  0.17189285805E+04  0.90104751195E+03 0.  0.
         23    2    4    4    0    0 -0.51813127827E+02 -0.54784262252E+02 -0.87568121306E+02  0.14713190796E+03  0.91069791178E+02 0.  0.
         23    2    4    4    0    0  0.15088711764E+03  0.58233803996E+03  0.14494419048E+04  0.15717966725E+04  0.88195404030E+02 0.  0.
         13    1    3    3    0    0 -0.47270660681E+02 -0.81797510418E+02  0.16725228565E+03  0.19209027858E+03  0.00000000000E+00 0. -1.
        -13    1    3    3    0    0 -0.51803329133E+02 -0.44575626729E+03  0.97831202093E+03  0.10763255293E+04  0.00000000000E+00 0.  1.
          3    1    6    6  502    0  0.13036442290E+03  0.43228587021E+03  0.11672128872E+04  0.12514998523E+04  0.00000000000E+00 0. -1.
          3    1    5    5  503    0 -0.55009068683E+02 -0.28465820857E+02 -0.10017400724E+03  0.11777577137E+03  0.00000000000E+00 0. -1.
         -3    1    5    5    0  503  0.31959408554E+01 -0.26318441395E+02  0.12605885936E+02  0.29356136593E+02  0.00000000000E+00 0.  1.
         -3    1    6    6    0  502  0.20522694737E+02  0.15005216975E+03  0.28222901762E+03  0.32029682020E+03  0.00000000000E+00 0.  1.
<mgrwt>
<rscale>  0 0.16238783E+04</rscale>
<asrwt>0</asrwt>
<pdfrwt beam="1">  1        2 0.42267555E+00 0.16238783E+04</pdfrwt>
<pdfrwt beam="2">  1       -2 0.36915871E-01 0.16238783E+04</pdfrwt>
<totfact> 0.16522805E+01</totfact>
</mgrwt>
</event>
<event>
12    1  0.4802930E-008  0.3738221E+04  0.7818608E-02  0.8059544E-01
         -2   -1    0    0    0  501 -0.00000000000E+00  0.00000000000E+00  0.28172164648E+04  0.28172164648E+04  0.00000000000E+00 0.  1.
          2   -1    0    0  501    0  0.00000000000E+00 -0.00000000000E+00 -0.12400801886E+04  0.12400801886E+04  0.00000000000E+00 0. -1.
         23    2    1    2    0    0 -0.88732254907E+03 -0.13879405009E+04  0.71865599151E+02  0.16515491217E+04  0.93432846140E+02 0.  0.
        254    2    1    2    0    0  0.88732254907E+03  0.13879405009E+04  0.15052706770E+04  0.24057475317E+04  0.89892226322E+03 0.  0.
         23    2    4    4    0    0  0.37335358799E+03  0.92966767536E+03  0.36406183657E+03  0.10697062257E+04  0.89752438233E+02 0.  0.
         23    2    4    4    0    0  0.51396896108E+03  0.45827282556E+03  0.11412088404E+04  0.13360413060E+04  0.92036288665E+02 0.  0.
         11    1    3    3    0    0 -0.10773029881E+03 -0.21890444475E+03  0.29714756808E+02  0.24578026769E+03  0.00000000000E+00 0.  1.
        -11    1    3    3    0    0 -0.77959225026E+03 -0.11690360562E+04  0.42150842343E+02  0.14057688540E+04  0.00000000000E+00 0. -1.
          2    1    5    5  502    0  0.16522006393E+03  0.52768386341E+03  0.18872302380E+03  0.58426390351E+03  0.00000000000E+00 0. -1.
          3    1    6    6  503    0  0.23289951931E+03  0.25684613013E+03  0.51799728001E+03  0.62332439608E+03  0.00000000000E+00 0. -1.
         -2    1    5    5    0  502  0.20813352406E+03  0.40198381194E+03  0.17533881277E+03  0.48544232218E+03  0.00000000000E+00 0.  1.
         -3    1    6    6    0  503  0.28106944177E+03  0.20142669544E+03  0.62321156040E+03  0.71271690996E+03  0.00000000000E+00 0.  1.
<mgrwt>
<rscale>  0 0.37382211E+04</rscale>
<asrwt>0</asrwt>
<pdfrwt beam="1">  1        2 0.19078157E+00 0.37382211E+04</pdfrwt>
<pdfrwt beam="2">  1       -2 0.43341792E+00 0.37382211E+04</pdfrwt>
<totfact> 0.64525440E-02</totfact>
</mgrwt>
</event>
<event>
12    1  0.4802930E-008  0.1700047E+04  0.7818608E-02  0.8761338E-01
          2   -1    0    0  501    0  0.00000000000E+00  0.00000000000E+00  0.32280569936E+04  0.32280569936E+04  0.00000000000E+00 0. -1.
         -2   -1    0    0    0  501 -0.00000000000E+00 -0.00000000000E+00 -0.22383109953E+03  0.22383109953E+03  0.00000000000E+00 0.  1.
         23    2    1    2    0    0  0.26309091846E+03  0.12476698584E+03  0.20226229903E+02  0.30602300254E+03  0.91963827552E+02 0.  0.
        254    2    1    2    0    0 -0.26309091846E+03 -0.12476698584E+03  0.29839996642E+04  0.31458650906E+04  0.95259096171E+03 0.  0.
         23    2    4    4    0    0  0.14066979071E+02  0.33330461853E+03  0.53290984016E+03  0.63539390013E+03  0.91883959164E+02 0.  0.
         23    2    4    4    0    0 -0.27715789753E+03 -0.45807160437E+03  0.24510898241E+04  0.25104711905E+04  0.89320646358E+02 0.  0.
         11    1    3    3    0    0  0.19813864537E+03  0.12803822730E+03  0.37167131660E+02  0.23881814444E+03  0.00000000000E+00 0.  1.
        -11    1    3    3    0    0  0.64952273090E+02 -0.32712414574E+01 -0.16940901757E+02  0.67204858102E+02  0.00000000000E+00 0. -1.
          2    1    5    5  502    0  0.66826164285E+01  0.32541602622E+03  0.47083799161E+03  0.57238855843E+03  0.00000000000E+00 0. -1.
          1    1    6    6  503    0 -0.26442744861E+03 -0.43372716335E+03  0.23914881150E+04  0.24448428441E+04  0.00000000000E+00 0. -1.
         -2    1    5    5    0  502  0.73843626429E+01  0.78885923150E+01  0.62071848549E+02  0.63005341699E+02  0.00000000000E+00 0.  1.
         -1    1    6    6    0  503 -0.12730448926E+02 -0.24344441024E+02  0.59601709015E+02  0.65628346438E+02  0.00000000000E+00 0.  1.
<mgrwt>
<rscale>  0 0.17000465E+04</rscale>
<asrwt>0</asrwt>
<pdfrwt beam="1">  1        2 0.49662412E+00 0.17000465E+04</pdfrwt>
<pdfrwt beam="2">  1       -2 0.34435556E-01 0.17000465E+04</pdfrwt>
<totfact> 0.94124259E+00</totfact>
</mgrwt>
</event>
<event>
12    1  0.4802930E-008  0.1167564E+04  0.7818608E-02  0.9141731E-01
         -2   -1    0    0    0  501 -0.00000000000E+00  0.00000000000E+00  0.16950604506E+03  0.16950604506E+03  0.00000000000E+00 0.  1.
          2   -1    0    0  501    0  0.00000000000E+00 -0.00000000000E+00 -0.20105570249E+04  0.20105570249E+04  0.00000000000E+00 0. -1.
         23    2    1    2    0    0  0.10048985205E+03  0.18571570288E+03 -0.60761007191E+03  0.64968450584E+03  0.91167016961E+02 0.  0.
        254    2    1    2    0    0 -0.10048985205E+03 -0.18571570288E+03 -0.12334409079E+04  0.15303785641E+04  0.88096171510E+03 0.  0.
         23    2    4    4    0    0  0.34852763570E+03 -0.14070656190E+03 -0.29799893697E+03  0.48780988115E+03  0.88799010709E+02 0.  0.
         23    2    4    4    0    0 -0.44901748775E+03 -0.45009140977E+02 -0.93544197095E+03  0.10425686829E+04  0.90858409520E+02 0.  0.
         11    1    3    3    0    0 -0.28351963060E+01  0.28842063392E+02 -0.18434561470E+03  0.18660977632E+03  0.00000000000E+00 0. -1.
        -11    1    3    3    0    0  0.10332504836E+03  0.15687363948E+03 -0.42326445721E+03  0.46307472952E+03  0.00000000000E+00 0.  1.
          1    1    5    5  502    0  0.10119866667E+03 -0.13844943380E+02 -0.12067477996E+03  0.15809887764E+03  0.00000000000E+00 0. -1.
          3    1    6    6  503    0 -0.43957417765E+03 -0.53266514640E+02 -0.87292760068E+03  0.97880814018E+03  0.00000000000E+00 0. -1.
         -1    1    5    5    0  502  0.24732896903E+03 -0.12686161852E+03 -0.17732415701E+03  0.32971100351E+03  0.00000000000E+00 0.  1.
         -3    1    6    6    0  503 -0.94433101019E+01  0.82573736638E+01 -0.62514370260E+02  0.63760542772E+02  0.00000000000E+00 0.  1.
<mgrwt>
<rscale>  0 0.11675643E+04</rscale>
<asrwt>0</asrwt>
<pdfrwt beam="1">  1        2 0.30931646E+00 0.11675643E+04</pdfrwt>
<pdfrwt beam="2">  1       -2 0.26077853E-01 0.11675643E+04</pdfrwt>
<totfact> 0.86725213E+01</totfact>
</mgrwt>
</event>
<event>
12    1  0.4802930E-008  0.1863570E+04  0.7818608E-02  0.8673205E-01
          2   -1    0    0  501    0  0.00000000000E+00  0.00000000000E+00  0.29555340092E+04  0.29555340092E+04  0.00000000000E+00 0.  1.
         -2   -1    0    0    0  501 -0.00000000000E+00 -0.00000000000E+00 -0.29376194607E+03  0.29376194607E+03  0.00000000000E+00 0. -1.
         23    2    1    2    0    0  0.61892248719E+02  0.49425445298E+03  0.13086624460E+03  0.52293417462E+03  0.90642497066E+02 0.  0.
        254    2    1    2    0    0 -0.61892248719E+02 -0.49425445298E+03  0.25309058185E+04  0.27263617806E+04  0.88286249324E+03 0.  0.
         23    2    4    4    0    0  0.63486456312E+02 -0.57490734843E+03  0.24736857345E+04  0.25419880912E+04  0.89628976479E+02 0.  0.
         23    2    4    4    0    0 -0.12537870503E+03  0.80652895450E+02  0.57220084012E+02  0.18437368941E+03  0.92167294164E+02 0.  0.
         13    1    3    3    0    0 -0.17030226192E+02  0.51519068214E+02  0.30167603522E+02  0.62083228782E+02  0.00000000000E+00 0.  1.
        -13    1    3    3    0    0  0.78922474912E+02  0.44273538477E+03  0.10069864108E+03  0.46085094584E+03  0.00000000000E+00 0. -1.
          2    1    5    5  502    0  0.19932943171E+02 -0.59623200763E+02  0.39343887223E+03  0.39842991162E+03  0.00000000000E+00 0. -1.
          4    1    6    6  503    0 -0.82550626890E+02  0.72388870445E+02 -0.32162228619E+01  0.10984124295E+03  0.00000000000E+00 0.  1.
         -2    1    5    5    0  502  0.43553513141E+02 -0.51528414767E+03  0.20802468623E+04  0.21435581796E+04  0.00000000000E+00 0.  1.
         -4    1    6    6    0  503 -0.42828078141E+02  0.82640250053E+01  0.60436306874E+02  0.74532446458E+02  0.00000000000E+00 0. -1.
<mgrwt>
<rscale>  0 0.18635701E+04</rscale>
<asrwt>0</asrwt>
<pdfrwt beam="1">  1        2 0.45469752E+00 0.18635701E+04</pdfrwt>
<pdfrwt beam="2">  1       -2 0.45194148E-01 0.18635701E+04</pdfrwt>
<totfact> 0.81196246E+00</totfact>
</mgrwt>
</event>
<event>
12    1  0.4802930E-008  0.1752103E+04  0.7818608E-02  0.8732194E-01
          1   -1    0    0  501    0  0.00000000000E+00  0.00000000000E+00  0.26051253690E+04  0.26051253690E+04  0.00000000000E+00 0. -1.
         -1   -1    0    0    0  501 -0.00000000000E+00 -0.00000000000E+00 -0.29459859164E+03  0.29459859164E+03  0.00000000000E+00 0.  1.
         23    2    1    2    0    0 -0.47924255871E+03  0.39555444283E+03  0.12554368363E+04  0.14037154160E+04  0.90324813086E+02 0.  0.
        254    2    1    2    0    0  0.47924255871E+03 -0.39555444283E+03  0.10550899411E+04  0.14960085446E+04  0.85947078752E+03 0.  0.
         23    2    4    4    0    0  0.58281008654E+03 -0.19659698920E+03  0.27680302589E+03  0.68072669520E+03  0.91929023075E+02 0.  0.
         23    2    4    4    0    0 -0.10356752783E+03 -0.19895745363E+03  0.77828691517E+03  0.81528184944E+03  0.92971342513E+02 0.  0.
         11    1    3    3    0    0 -0.33610444232E+03  0.27319549036E+03  0.77724445475E+03  0.88978138581E+03  0.00000000000E+00 0.  1.
        -11    1    3    3    0    0 -0.14313811639E+03  0.12235895246E+03  0.47819238151E+03  0.51393403015E+03  0.00000000000E+00 0. -1.
          2    1    5    5  502    0  0.13913323809E+03 -0.89673552474E+02  0.73174926301E+02  0.18098058955E+03  0.00000000000E+00 0. -1.
          3    1    6    6  503    0 -0.77339428373E+02 -0.18596389165E+03  0.56151231858E+03  0.59654005741E+03  0.00000000000E+00 0. -1.
         -2    1    5    5    0  502  0.44367684845E+03 -0.10692343672E+03  0.20362809959E+03  0.49974610565E+03  0.00000000000E+00 0.  1.
         -3    1    6    6    0  503 -0.26228099457E+02 -0.12993561978E+02  0.21677459659E+03  0.21874179203E+03  0.00000000000E+00 0.  1.
<mgrwt>
<rscale>  0 0.17521030E+04</rscale>
<asrwt>0</asrwt>
<pdfrwt beam="1">  1        1 0.40078850E+00 0.17521030E+04</pdfrwt>
<pdfrwt beam="2">  1       -1 0.45322862E-01 0.17521030E+04</pdfrwt>
<totfact> 0.52480582E+00</totfact>
</mgrwt>
</event>
<event>
12    1  0.4802930E-008  0.1923918E+04  0.7818608E-02  0.8643041E-01
          1   -1    0    0  501    0  0.00000000000E+00  0.00000000000E+00  0.82768877673E+03  0.82768877673E+03  0.00000000000E+00 0. -1.
         -1   -1    0    0    0  501 -0.00000000000E+00 -0.00000000000E+00 -0.11180114182E+04  0.11180114182E+04  0.00000000000E+00 0.  1.
         23    2    1    2    0    0 -0.32842979270E+03 -0.15630411273E+03 -0.78934798448E+03  0.87376469615E+03  0.89985550249E+02 0.  0.
        254    2    1    2    0    0  0.32842979270E+03  0.15630411273E+03  0.49902534299E+03  0.10719354988E+04  0.87619764678E+03 0.  0.
         23    2    4    4    0    0 -0.21433475429E+03  0.45739571684E+02 -0.94313332222E+02  0.25537449334E+03  0.91047415665E+02 0.  0.
         23    2    4    4    0    0  0.54276454699E+03  0.11056454105E+03  0.59333867522E+03  0.81656100544E+03  0.88900061281E+02 0.  0.
         11    1    3    3    0    0 -0.40640609791E+01  0.47070910564E+01 -0.11033007977E+01  0.63158982342E+01  0.00000000000E+00 0. -1.
        -11    1    3    3    0    0 -0.32436573172E+03 -0.16101120379E+03 -0.78824468368E+03  0.86744879792E+03  0.00000000000E+00 0.  1.
          1    1    5    5  502    0 -0.19895497880E+03  0.63089572326E+02 -0.10009566481E+03  0.23147898358E+03  0.00000000000E+00 0. -1.
          3    1    6    6  503    0  0.44256634710E+03  0.60407186066E+02  0.50241327610E+03  0.67225969663E+03  0.00000000000E+00 0. -1.
         -1    1    5    5    0  502 -0.15379775489E+02 -0.17350000642E+02  0.57823325914E+01  0.23895509757E+02  0.00000000000E+00 0.  1.
         -3    1    6    6    0  503  0.10019819989E+03  0.50157354981E+02  0.90925399112E+02  0.14430130881E+03  0.00000000000E+00 0.  1.
<mgrwt>
<rscale>  0 0.19239184E+04</rscale>
<asrwt>0</asrwt>
<pdfrwt beam="1">  1        1 0.12733674E+00 0.19239184E+04</pdfrwt>
<pdfrwt beam="2">  1       -1 0.17200176E+00 0.19239184E+04</pdfrwt>
<totfact> 0.46470963E+00</totfact>
</mgrwt>
</event>
<event>
12    1  0.4802930E-008  0.2714621E+04  0.7818608E-02  0.8330277E-01
         -1   -1    0    0    0  501 -0.00000000000E+00  0.00000000000E+00  0.81115369802E+03  0.81115369802E+03  0.00000000000E+00 0.  1.
          1   -1    0    0  501    0  0.00000000000E+00 -0.00000000000E+00 -0.22711994361E+04  0.22711994361E+04  0.00000000000E+00 0. -1.
         23    2    1    2    0    0  0.99751374005E+02 -0.94075599897E+03 -0.14914410309E+04  0.17686104648E+04  0.92814015223E+02 0.  0.
        254    2    1    2    0    0 -0.99751374005E+02  0.94075599897E+03  0.31395292822E+02  0.13137426693E+04  0.91102247529E+03 0.  0.
         23    2    4    4    0    0 -0.31017268649E+03  0.10172791557E+04  0.68759316978E+02  0.10693130520E+04  0.87398989709E+02 0.  0.
         23    2    4    4    0    0  0.21042131248E+03 -0.76523156705E+02 -0.37364024156E+02  0.24442961733E+03  0.90646816098E+02 0.  0.
         11    1    3    3    0    0  0.55029309561E+02 -0.53789347788E+03 -0.76602333131E+03  0.93762965107E+03  0.00000000000E+00 0.  1.
        -11    1    3    3    0    0  0.44722064444E+02 -0.40286252109E+03 -0.72541769962E+03  0.83098081378E+03  0.00000000000E+00 0. -1.
          2    1    5    5  502    0 -0.24680691427E+03  0.68168366888E+03  0.30170858150E+02  0.72561460709E+03  0.00000000000E+00 0. -1.
          4    1    6    6  503    0  0.48402960442E+02 -0.26109119836E+02 -0.49935604861E+02  0.74283896983E+02  0.00000000000E+00 0.  1.
         -2    1    5    5    0  502 -0.63365772218E+02  0.33559548680E+03  0.38588458828E+02  0.34369844487E+03  0.00000000000E+00 0.  1.
         -4    1    6    6    0  503  0.16201835204E+03 -0.50414036870E+02  0.12571580705E+02  0.17014572035E+03  0.00000000000E+00 0. -1.
<mgrwt>
<rscale>  0 0.27146210E+04</rscale>
<asrwt>0</asrwt>
<pdfrwt beam="1">  1        1 0.34941529E+00 0.27146210E+04</pdfrwt>
<pdfrwt beam="2">  1       -1 0.12479288E+00 0.27146210E+04</pdfrwt>
<totfact> 0.95415924E-01</totfact>
</mgrwt>
</event>
<event>
12    1  0.4802930E-008  0.2454501E+04  0.7818608E-02  0.8419377E-01
         -2   -1    0    0    0  501 -0.00000000000E+00  0.00000000000E+00  0.74753393288E+03  0.74753393288E+03  0.00000000000E+00 0. -1.
          2   -1    0    0  501    0  0.00000000000E+00 -0.00000000000E+00 -0.20148163734E+04  0.20148163734E+04  0.00000000000E+00 0.  1.
         23    2    1    2    0    0  0.62236835108E+03  0.58007298269E+03  0.16315078914E+03  0.87093892441E+03  0.89941093959E+02 0.  0.
        254    2    1    2    0    0 -0.62236835108E+03 -0.58007298269E+03 -0.14304332296E+04  0.18914113818E+04  0.89859376877E+03 0.  0.
         23    2    4    4    0    0 -0.26619717164E+03 -0.47123298069E+03 -0.17123099462E+03  0.57509902462E+03  0.92181225461E+02 0.  0.
         23    2    4    4    0    0 -0.35617117944E+03 -0.10884000200E+03 -0.12592022350E+04  0.13163123572E+04  0.91563628302E+02 0.  0.
         11    1    3    3    0    0  0.50440329524E+03  0.46714668287E+03  0.95169557229E+02  0.69405039600E+03  0.00000000000E+00 0. -1.
        -11    1    3    3    0    0  0.11796505584E+03  0.11292629981E+03  0.67981231916E+02  0.17688852841E+03  0.00000000000E+00 0.  1.
          1    1    5    5  502    0 -0.78085015024E+01 -0.24898907034E+02 -0.31242024553E+02  0.40706171097E+02  0.00000000000E+00 0. -1.
          3    1    6    6  503    0 -0.37870204167E+02 -0.41167052696E+02 -0.13998387411E+03  0.15074602351E+03  0.00000000000E+00 0. -1.
         -1    1    5    5    0  502 -0.25838867013E+03 -0.44633407365E+03 -0.13998897007E+03  0.53439285352E+03  0.00000000000E+00 0.  1.
         -3    1    6    6    0  503 -0.31830097528E+03 -0.67672949302E+02 -0.11192183609E+04  0.11655663337E+04  0.00000000000E+00 0.  1.
<mgrwt>
<rscale>  0 0.24545009E+04</rscale>
<asrwt>0</asrwt>
<pdfrwt beam="1">  1        2 0.30997175E+00 0.24545009E+04</pdfrwt>
<pdfrwt beam="2">  1       -2 0.11500522E+00 0.24545009E+04</pdfrwt>
<totfact> 0.34599660E+00</totfact>
</mgrwt>
</event>
<event>
12    1  0.4802930E-008  0.2044008E+04  0.7818608E-02  0.8586318E-01
          2   -1    0    0  501    0  0.00000000000E+00  0.00000000000E+00  0.25671735778E+04  0.25671735778E+04  0.00000000000E+00 0.  1.
         -2   -1    0    0    0  501 -0.00000000000E+00 -0.00000000000E+00 -0.40686453803E+03  0.40686453803E+03  0.00000000000E+00 0. -1.
         23    2    1    2    0    0  0.37889536957E+03  0.71290615004E+03  0.75316614361E+03  0.11079044048E+04  0.91629964527E+02 0.  0.
        254    2    1    2    0    0 -0.37889536957E+03 -0.71290615004E+03  0.14071428962E+04  0.18661337111E+04  0.92228358845E+03 0.  0.
         23    2    4    4    0    0 -0.39160806432E+03 -0.90418182963E+03  0.99800373612E+03  0.14054085751E+04  0.90885360250E+02 0.  0.
         23    2    4    4    0    0  0.12712694754E+02  0.19127567959E+03  0.40913916006E+03  0.46072513594E+03  0.90137674589E+02 0.  0.
         11    1    3    3    0    0  0.10130432640E+02  0.54053906018E+00  0.67106868799E+01  0.12163517844E+02  0.00000000000E+00 0.  1.
        -11    1    3    3    0    0  0.36876493693E+03  0.71236561098E+03  0.74645545673E+03  0.10957408869E+04  0.00000000000E+00 0. -1.
          2    1    6    6  502    0 -0.14790602364E+02  0.16683582700E+03  0.27832313182E+03  0.32483337389E+03  0.00000000000E+00 0. -1.
          2    1    5    5  503    0 -0.38991768921E+02 -0.41939160349E+02  0.70827445296E+02  0.91081162826E+02  0.00000000000E+00 0.  1.
         -2    1    5    5    0  503 -0.35261629540E+03 -0.86224266928E+03  0.92717629083E+03  0.13143274123E+04  0.00000000000E+00 0. -1.
         -2    1    6    6    0  502  0.27503297117E+02  0.24439852588E+02  0.13081602824E+03  0.13589176205E+03  0.00000000000E+00 0.  1.
<mgrwt>
<rscale>  0 0.20440077E+04</rscale>
<asrwt>0</asrwt>
<pdfrwt beam="1">  1        2 0.39494977E+00 0.20440077E+04</pdfrwt>
<pdfrwt beam="2">  1       -2 0.62594546E-01 0.20440077E+04</pdfrwt>
<totfact> 0.69748543E+00</totfact>
</mgrwt>
</event>
<event>
12    1  0.4802930E-008  0.1168317E+04  0.7818608E-02  0.9141049E-01
         -2   -1    0    0    0  501 -0.00000000000E+00  0.00000000000E+00  0.23712576802E+03  0.23712576802E+03  0.00000000000E+00 0.  1.
          2   -1    0    0  501    0  0.00000000000E+00 -0.00000000000E+00 -0.14390730458E+04  0.14390730458E+04  0.00000000000E+00 0. -1.
         23    2    1    2    0    0 -0.11933174289E+03  0.15418198162E+03 -0.94811025683E+02  0.23461747581E+03  0.89688801119E+02 0.  0.
        254    2    1    2    0    0  0.11933174289E+03 -0.15418198162E+03 -0.11071362521E+04  0.14415813381E+04  0.90243776801E+03 0.  0.
         23    2    4    4    0    0  0.14492028562E+03  0.22285008229E+03 -0.16263263988E+02  0.28339761525E+03  0.96879648087E+02 0.  0.
         23    2    4    4    0    0 -0.25588542731E+02 -0.37703206391E+03 -0.10908729881E+04  0.11581837228E+04  0.92615920690E+02 0.  0.
         13    1    3    3    0    0 -0.99687223557E+02  0.14993980099E+03 -0.10857654261E+03  0.21025782284E+03  0.00000000000E+00 0.  1.
        -13    1    3    3    0    0 -0.19644519330E+02  0.42421806331E+01  0.13765516929E+02  0.24359652965E+02  0.00000000000E+00 0. -1.
          2    1    5    5  502    0  0.24122278007E+00  0.71012797343E+02 -0.19503421723E+02  0.73642779916E+02  0.00000000000E+00 0. -1.
          1    1    6    6  503    0 -0.12113500534E+02 -0.19935484449E+03 -0.43718923251E+03  0.48064905694E+03  0.00000000000E+00 0. -1.
         -2    1    5    5    0  502  0.14467906284E+03  0.15183728495E+03  0.32401577350E+01  0.20975483534E+03  0.00000000000E+00 0.  1.
         -1    1    6    6    0  503 -0.13475042197E+02 -0.17767721943E+03 -0.65368375563E+03  0.67753466586E+03  0.00000000000E+00 0.  1.
<mgrwt>
<rscale>  0 0.11683173E+04</rscale>
<asrwt>0</asrwt>
<pdfrwt beam="1">  1        2 0.22139586E+00 0.11683173E+04</pdfrwt>
<pdfrwt beam="2">  1       -2 0.36480886E-01 0.11683173E+04</pdfrwt>
<totfact> 0.96077465E+01</totfact>
</mgrwt>
</event>
<event>
12    1  0.4802930E-008  0.1365704E+04  0.7818608E-02  0.8979025E-01
          2   -1    0    0  501    0  0.00000000000E+00  0.00000000000E+00  0.26651948083E+04  0.26651948083E+04  0.00000000000E+00 0. -1.
         -2   -1    0    0    0  501 -0.00000000000E+00 -0.00000000000E+00 -0.17495402162E+03  0.17495402162E+03  0.00000000000E+00 0.  1.
         23    2    1    2    0    0 -0.34959918313E+03  0.35850581467E+02  0.93120315099E+03  0.99926865942E+03  0.88846453181E+02 0.  0.
        254    2    1    2    0    0  0.34959918313E+03 -0.35850581467E+02  0.15590376357E+04  0.18408801705E+04  0.91363920646E+03 0.  0.
         23    2    4    4    0    0 -0.29011623699E+03 -0.56076550455E+02  0.33351039565E+03  0.45539787283E+03  0.94053325797E+02 0.  0.
         23    2    4    4    0    0  0.63971542012E+03  0.20225968988E+02  0.12255272400E+04  0.13854822977E+04  0.89438652116E+02 0.  0.
         11    1    3    3    0    0 -0.64035871812E+02  0.24276154848E+02  0.27741096982E+03  0.28573899060E+03  0.00000000000E+00 0. -1.
        -11    1    3    3    0    0 -0.28556331132E+03  0.11574426619E+02  0.65379218117E+03  0.71352966882E+03  0.00000000000E+00 0.  1.
          1    1    5    5  502    0 -0.18497621549E+03 -0.71882391476E+02  0.17534916822E+03  0.26482184445E+03  0.00000000000E+00 0. -1.
          1    1    6    6  503    0  0.29959511228E+03  0.52670495765E+02  0.60157950547E+03  0.67411372470E+03  0.00000000000E+00 0. -1.
         -1    1    5    5    0  502 -0.10514002150E+03  0.15805841021E+02  0.15816122743E+03  0.19057602838E+03  0.00000000000E+00 0.  1.
         -1    1    6    6    0  503  0.34012030785E+03 -0.32444526777E+02  0.62394773456E+03  0.71136857295E+03  0.00000000000E+00 0.  1.
<mgrwt>
<rscale>  0 0.13657036E+04</rscale>
<asrwt>0</asrwt>
<pdfrwt beam="1">  1        2 0.41002994E+00 0.13657036E+04</pdfrwt>
<pdfrwt beam="2">  1       -2 0.26916005E-01 0.13657036E+04</pdfrwt>
<totfact> 0.34261123E+01</totfact>
</mgrwt>
</event>
<event>
12    1  0.4802930E-008  0.2351892E+04  0.7818608E-02  0.8457737E-01
         -1   -1    0    0    0  501 -0.00000000000E+00  0.00000000000E+00  0.16681122401E+04  0.16681122401E+04  0.00000000000E+00 0.  1.
          1   -1    0    0  501    0  0.00000000000E+00 -0.00000000000E+00 -0.82899048866E+03  0.82899048866E+03  0.00000000000E+00 0. -1.
         23    2    1    2    0    0 -0.55551205597E+03  0.19165298872E+03  0.12181746628E+04  0.13556068764E+04  0.91629590375E+02 0.  0.
        254    2    1    2    0    0  0.55551205597E+03 -0.19165298872E+03 -0.37905291131E+03  0.11414958524E+04  0.90222345297E+03 0.  0.
         23    2    4    4    0    0  0.13328209314E+03 -0.50858867594E+03 -0.25885043604E+03  0.59308951924E+03  0.91241832198E+02 0.  0.
         23    2    4    4    0    0  0.42222996283E+03  0.31693568722E+03 -0.12020247527E+03  0.54840633318E+03  0.87031602697E+02 0.  0.
         11    1    3    3    0    0 -0.16494546202E+03  0.13878021101E+02  0.34993442069E+03  0.38710942083E+03  0.00000000000E+00 0.  1.
        -11    1    3    3    0    0 -0.39056659395E+03  0.17777496762E+03  0.86824024208E+03  0.96849745554E+03  0.00000000000E+00 0. -1.
          4    1    5    5  502    0  0.10384985333E+03 -0.48463625671E+03 -0.24220186752E+03  0.55165101104E+03  0.00000000000E+00 0. -1.
          3    1    6    6  503    0  0.31670013563E+03  0.24197701345E+03 -0.51541677317E+02  0.40188107127E+03  0.00000000000E+00 0. -1.
         -4    1    5    5    0  502  0.29432239817E+02 -0.23952419232E+02 -0.16648568515E+02  0.41438508194E+02  0.00000000000E+00 0.  1.
         -3    1    6    6    0  503  0.10552982719E+03  0.74958673768E+02 -0.68660797951E+02  0.14652526190E+03  0.00000000000E+00 0.  1.
<mgrwt>
<rscale>  0 0.23518922E+04</rscale>
<asrwt>0</asrwt>
<pdfrwt beam="1">  1        1 0.12753700E+00 0.23518922E+04</pdfrwt>
<pdfrwt beam="2">  1       -1 0.25663265E+00 0.23518922E+04</pdfrwt>
<totfact> 0.11850552E+00</totfact>
</mgrwt>
</event>
<event>
12    1  0.4802930E-008  0.1893480E+04  0.7818608E-02  0.8658109E-01
          1   -1    0    0  501    0  0.00000000000E+00  0.00000000000E+00  0.20429534302E+04  0.20429534302E+04  0.00000000000E+00 0. -1.
         -1   -1    0    0    0  501 -0.00000000000E+00 -0.00000000000E+00 -0.43873576407E+03  0.43873576407E+03  0.00000000000E+00 0.  1.
         23    2    1    2    0    0 -0.50123825848E+03  0.32816755550E+03  0.10284680271E+03  0.61470147901E+03  0.91360315374E+02 0.  0.
        254    2    1    2    0    0  0.50123825848E+03 -0.32816755550E+03  0.15013708634E+04  0.18669877152E+04  0.93412789443E+03 0.  0.
         23    2    4    4    0    0  0.25666999079E+03 -0.48583915297E+03  0.14549285812E+04  0.15577395319E+04  0.88408744648E+02 0.  0.
         23    2    4    4    0    0  0.24456826769E+03  0.15767159747E+03  0.46442282197E+02  0.30924818334E+03  0.93827411309E+02 0.  0.
         11    1    3    3    0    0 -0.41776423566E+03  0.31077120587E+03  0.92069167402E+02  0.52875554898E+03  0.00000000000E+00 0.  1.
        -11    1    3    3    0    0 -0.83474022819E+02  0.17396349638E+02  0.10777635304E+02  0.85945930032E+02  0.00000000000E+00 0. -1.
          1    1    6    6  502    0  0.37493947188E+02  0.72725074897E+02  0.15924015439E+02  0.83356504619E+02  0.00000000000E+00 0. -1.
          1    1    5    5  503    0 -0.57404681178E+01 -0.20753376963E+01  0.18986313679E+02  0.19943422672E+02  0.00000000000E+00 0. -1.
         -1    1    5    5    0  503  0.26241045890E+03 -0.48376381527E+03  0.14359422675E+04  0.15377961092E+04  0.00000000000E+00 0.  1.
         -1    1    6    6    0  502  0.20707432050E+03  0.84946522568E+02  0.30518266758E+02  0.22589167872E+03  0.00000000000E+00 0.  1.
<mgrwt>
<rscale>  0 0.18934801E+04</rscale>
<asrwt>0</asrwt>
<pdfrwt beam="1">  1        1 0.31430052E+00 0.18934801E+04</pdfrwt>
<pdfrwt beam="2">  1       -1 0.67497811E-01 0.18934801E+04</pdfrwt>
<totfact> 0.57986840E+00</totfact>
</mgrwt>
</event>
<event>
12    1  0.4802930E-008  0.2715591E+04  0.7818608E-02  0.8329964E-01
          1   -1    0    0  501    0  0.00000000000E+00  0.00000000000E+00  0.11494384511E+04  0.11494384511E+04  0.00000000000E+00 0. -1.
         -1   -1    0    0    0  501 -0.00000000000E+00 -0.00000000000E+00 -0.16039209955E+04  0.16039209955E+04  0.00000000000E+00 0.  1.
         23    2    1    2    0    0  0.11089442675E+04 -0.39703667895E+03 -0.46264631809E+03  0.12688819249E+04  0.92866630255E+02 0.  0.
        254    2    1    2    0    0 -0.11089442675E+04  0.39703667895E+03  0.81637736698E+01  0.14844775217E+04  0.90344416128E+03 0.  0.
         23    2    4    4    0    0 -0.34859746395E+03 -0.23263492562E+03  0.20422626721E+03  0.47381957841E+03  0.84601561312E+02 0.  0.
         23    2    4    4    0    0 -0.76034680352E+03  0.62967160457E+03 -0.19606249354E+03  0.10106579433E+04  0.91517133935E+02 0.  0.
         11    1    3    3    0    0  0.45226550126E+03 -0.13018666719E+03 -0.22158762337E+03  0.52018624239E+03  0.00000000000E+00 0.  1.
        -11    1    3    3    0    0  0.65667876621E+03 -0.26685001176E+03 -0.24105869472E+03  0.74869568255E+03  0.00000000000E+00 0. -1.
          2    1    5    5  502    0 -0.30372823152E+03 -0.22712449948E+03  0.19904636782E+03  0.42831744469E+03  0.00000000000E+00 0. -1.
          4    1    6    6  503    0 -0.70190341259E+03  0.59093839823E+03 -0.20446184927E+03  0.94004321120E+03  0.00000000000E+00 0. -1.
         -2    1    5    5    0  502 -0.44869232431E+02 -0.55104261383E+01  0.51798993916E+01  0.45502133718E+02  0.00000000000E+00 0.  1.
         -4    1    6    6    0  503 -0.58443390925E+02  0.38733206333E+02  0.83993557284E+01  0.70614732120E+02  0.00000000000E+00 0.  1.
<mgrwt>
<rscale>  0 0.27155909E+04</rscale>
<asrwt>0</asrwt>
<pdfrwt beam="1">  1        1 0.17683668E+00 0.27155909E+04</pdfrwt>
<pdfrwt beam="2">  1       -1 0.24675708E+00 0.27155909E+04</pdfrwt>
<totfact> 0.74327676E-01</totfact>
</mgrwt>
</event>
<event>
12    1  0.4802930E-008  0.1312663E+04  0.7818608E-02  0.9019583E-01
         -1   -1    0    0    0  501 -0.00000000000E+00  0.00000000000E+00  0.86615653522E+03  0.86615653522E+03  0.00000000000E+00 0.  1.
          1   -1    0    0  501    0  0.00000000000E+00 -0.00000000000E+00 -0.49733653802E+03  0.49733653802E+03  0.00000000000E+00 0. -1.
         23    2    1    2    0    0  0.43396315236E+02  0.48884338361E+02 -0.24465116461E+03  0.27052428404E+03  0.95164474449E+02 0.  0.
        254    2    1    2    0    0 -0.43396315236E+02 -0.48884338361E+02  0.61347116181E+03  0.10929687892E+04  0.90219786582E+03 0.  0.
         23    2    4    4    0    0  0.96215682336E+02 -0.25771100692E+03  0.74230476047E+03  0.79634861569E+03  0.86500518358E+02 0.  0.
         23    2    4    4    0    0 -0.13961199757E+03  0.20882666856E+03 -0.12883359867E+03  0.29662017352E+03  0.91023864027E+02 0.  0.
         11    1    3    3    0    0  0.61714256817E+02  0.49719660576E+02 -0.23827739395E+03  0.25111115190E+03  0.00000000000E+00 0. -1.
        -11    1    3    3    0    0 -0.18317941581E+02 -0.83532221472E+00 -0.63737706610E+01  0.19413132138E+02  0.00000000000E+00 0.  1.
          2    1    5    5  502    0  0.73784339594E+02 -0.19789215811E+03  0.65470460806E+03  0.68792700109E+03  0.00000000000E+00 0.  1.
          4    1    6    6  503    0  0.12027694161E+02  0.26654534378E+02 -0.22188564033E+02  0.36707792137E+02  0.00000000000E+00 0. -1.
         -2    1    5    5    0  502  0.22431342741E+02 -0.59818848810E+02  0.87600152408E+02  0.10842161460E+03  0.00000000000E+00 0. -1.
         -4    1    6    6    0  503 -0.15163969173E+03  0.18217213418E+03 -0.10664503463E+03  0.25991238138E+03  0.00000000000E+00 0.  1.
<mgrwt>
<rscale>  0 0.13126634E+04</rscale>
<asrwt>0</asrwt>
<pdfrwt beam="1">  1        1 0.76513314E-01 0.13126634E+04</pdfrwt>
<pdfrwt beam="2">  1       -1 0.13325485E+00 0.13126634E+04</pdfrwt>
<totfact> 0.20878739E+01</totfact>
</mgrwt>
</event>
<event>
12    1  0.4802930E-008  0.1540500E+04  0.7818608E-02  0.8857959E-01
         -1   -1    0    0    0  501 -0.00000000000E+00  0.00000000000E+00  0.15864669607E+04  0.15864669607E+04  0.00000000000E+00 0.  1.
          1   -1    0    0  501    0  0.00000000000E+00 -0.00000000000E+00 -0.37396627499E+03  0.37396627499E+03  0.00000000000E+00 0. -1.
         23    2    1    2    0    0 -0.27017362513E+03  0.42011585732E+03  0.42111415410E+03  0.65951636640E+03  0.90186392967E+02 0.  0.
        254    2    1    2    0    0  0.27017362513E+03 -0.42011585732E+03  0.79138653159E+03  0.13009168693E+04  0.90365974632E+03 0.  0.
         23    2    4    4    0    0  0.25739897562E+03 -0.69236640017E+03  0.58402475295E+03  0.94611286310E+03  0.91756051253E+02 0.  0.
         23    2    4    4    0    0  0.12774649508E+02  0.27225054285E+03  0.20736177864E+03  0.35480400618E+03  0.92754653836E+02 0.  0.
         11    1    3    3    0    0 -0.27269000675E+03  0.38203256671E+03  0.38751684854E+03  0.60866906420E+03  0.00000000000E+00 0.  1.
        -11    1    3    3    0    0  0.25163816231E+01  0.38083290608E+02  0.33597305557E+02  0.50847302197E+02  0.00000000000E+00 0. -1.
          1    1    5    5  502    0  0.18992939052E+03 -0.38413880371E+03  0.34934811895E+03  0.55288326265E+03  0.00000000000E+00 0. -1.
          3    1    6    6  503    0 -0.18921893196E+01  0.24966791806E+03  0.14957259205E+03  0.29104915389E+03  0.00000000000E+00 0. -1.
         -1    1    5    5    0  502  0.67469585097E+02 -0.30822759646E+03  0.23467663400E+03  0.39322960046E+03  0.00000000000E+00 0.  1.
         -3    1    6    6    0  503  0.14666838828E+02  0.22582624791E+02  0.57789186590E+02  0.63754852289E+02  0.00000000000E+00 0.  1.
<mgrwt>
<rscale>  0 0.15405001E+04</rscale>
<asrwt>0</asrwt>
<pdfrwt beam="1">  1        1 0.57533274E-01 0.15405001E+04</pdfrwt>
<pdfrwt beam="2">  1       -1 0.24407184E+00 0.15405001E+04</pdfrwt>
<totfact> 0.48247895E+00</totfact>
</mgrwt>
</event>
<event>
12    1  0.4802930E-008  0.1361103E+04  0.7818608E-02  0.8982465E-01
          1   -1    0    0  501    0  0.00000000000E+00  0.00000000000E+00  0.26456909967E+04  0.26456909967E+04  0.00000000000E+00 0. -1.
         -1   -1    0    0    0  501 -0.00000000000E+00 -0.00000000000E+00 -0.17505843184E+03  0.17505843184E+03  0.00000000000E+00 0.  1.
         23    2    1    2    0    0  0.26670523673E+03  0.26122410367E+03  0.84194242634E+03  0.92537301001E+03  0.89880157676E+02 0.  0.
        254    2    1    2    0    0 -0.26670523673E+03 -0.26122410367E+03  0.16286901385E+04  0.18953764185E+04  0.89467898430E+03 0.  0.
         23    2    4    4    0    0 -0.51631245747E+03  0.69620874843E+02  0.10758737269E+04  0.11989632258E+04  0.92644054363E+02 0.  0.
         23    2    4    4    0    0  0.24960722073E+03 -0.33084497852E+03  0.55281641162E+03  0.69641319265E+03  0.87310855548E+02 0.  0.
         11    1    3    3    0    0  0.10497767794E+03  0.11677611651E+03  0.46136217971E+03  0.48735206486E+03  0.00000000000E+00 0. -1.
        -11    1    3    3    0    0  0.16172755879E+03  0.14444798716E+03  0.38058024662E+03  0.43802094515E+03  0.00000000000E+00 0.  1.
          4    1    6    6  502    0  0.24043118135E+03 -0.32939217898E+03  0.51204338156E+03  0.65459513070E+03  0.00000000000E+00 0. -1.
          4    1    5    5  503    0 -0.22586310996E+03  0.35658624931E+02  0.37056604885E+03  0.43543642306E+03  0.00000000000E+00 0.  1.
         -4    1    5    5    0  503 -0.29044934751E+03  0.33962249912E+02  0.70530767803E+03  0.76352680279E+03  0.00000000000E+00 0. -1.
         -4    1    6    6    0  502  0.91760393866E+01 -0.14527995345E+01  0.40773030062E+02  0.41818061956E+02  0.00000000000E+00 0.  1.
<mgrwt>
<rscale>  0 0.13611033E+04</rscale>
<asrwt>0</asrwt>
<pdfrwt beam="1">  1        1 0.40702936E+00 0.13611033E+04</pdfrwt>
<pdfrwt beam="2">  1       -1 0.26932068E-01 0.13611033E+04</pdfrwt>
<totfact> 0.12978354E+01</totfact>
</mgrwt>
</event>
<event>
12    1  0.4802930E-008  0.1895767E+04  0.7818608E-02  0.8656966E-01
          1   -1    0    0  501    0  0.00000000000E+00  0.00000000000E+00  0.93345120462E+03  0.93345120462E+03  0.00000000000E+00 0. -1.
         -1   -1    0    0    0  501 -0.00000000000E+00 -0.00000000000E+00 -0.96253919711E+03  0.96253919711E+03  0.00000000000E+00 0.  1.
         23    2    1    2    0    0  0.20446596614E+03 -0.24472590173E+03 -0.62931100855E+03  0.71101922493E+03  0.88424512734E+02 0.  0.
        254    2    1    2    0    0 -0.20446596614E+03  0.24472590173E+03  0.60022301607E+03  0.11849711768E+04  0.97066571102E+03 0.  0.
         23    2    4    4    0    0 -0.41774310529E+03  0.25103811719E+03 -0.46473701276E+02  0.49674227031E+03  0.84045463327E+02 0.  0.
         23    2    4    4    0    0  0.21327713915E+03 -0.63122154587E+01  0.64669671734E+03  0.68822890649E+03  0.99576108380E+02 0.  0.
         11    1    3    3    0    0  0.14408045172E+03 -0.15322516120E+03 -0.32073054747E+03  0.38354297109E+03  0.00000000000E+00 0.  1.
        -11    1    3    3    0    0  0.60385514423E+02 -0.91500740527E+02 -0.30858046107E+03  0.32747625383E+03  0.00000000000E+00 0. -1.
          3    1    5    5  502    0 -0.12892274633E+03  0.66037056740E+02 -0.51444311281E+02  0.15371559631E+03  0.00000000000E+00 0. -1.
          3    1    6    6  503    0  0.39497500847E+02  0.39179394526E+02  0.14135101930E+03  0.15190519473E+03  0.00000000000E+00 0. -1.
         -3    1    5    5    0  502 -0.28882035896E+03  0.18500106045E+03  0.49706100052E+01  0.34302667400E+03  0.00000000000E+00 0.  1.
         -3    1    6    6    0  503  0.17377963830E+03 -0.45491609985E+02  0.50534569804E+03  0.53632371176E+03  0.00000000000E+00 0.  1.
<mgrwt>
<rscale>  0 0.18957673E+04</rscale>
<asrwt>0</asrwt>
<pdfrwt beam="1">  1        1 0.14360788E+00 0.18957673E+04</pdfrwt>
<pdfrwt beam="2">  1       -1 0.14808295E+00 0.18957673E+04</pdfrwt>
<totfact> 0.57781217E+00</totfact>
</mgrwt>
</event>
<event>
12    1  0.4802930E-008  0.1327500E+04  0.7818608E-02  0.9008037E-01
         -2   -1    0    0    0  501 -0.00000000000E+00  0.00000000000E+00  0.16511632246E+03  0.16511632246E+03  0.00000000000E+00 0.  1.
          2   -1    0    0  501    0  0.00000000000E+00 -0.00000000000E+00 -0.26682032685E+04  0.26682032685E+04  0.00000000000E+00 0. -1.
         23    2    1    2    0    0 -0.19023819020E+03  0.11757284064E+02 -0.13207049023E+04  0.13375332763E+04  0.91678916060E+02 0.  0.
        254    2    1    2    0    0  0.19023819020E+03 -0.11757284064E+02 -0.11823820438E+04  0.14957863146E+04  0.89611416620E+03 0.  0.
         23    2    4    4    0    0 -0.30691005478E+03  0.11555396685E+03 -0.73069725112E+03  0.80604803972E+03  0.90821079961E+02 0.  0.
         23    2    4    4    0    0  0.49714824498E+03 -0.12731125092E+03 -0.45168479265E+03  0.68973827491E+03  0.91406804244E+02 0.  0.
         13    1    3    3    0    0 -0.16598503495E+02  0.32539298405E+02 -0.24387478626E+03  0.24659527090E+03  0.00000000000E+00 0.  1.
        -13    1    3    3    0    0 -0.17363968671E+03 -0.20782014341E+02 -0.10768301160E+04  0.10909380054E+04  0.00000000000E+00 0. -1.
          4    1    5    5  502    0 -0.82888892136E+02  0.68043778336E+02 -0.29400649568E+03  0.31295421984E+03  0.00000000000E+00 0. -1.
          4    1    6    6  503    0  0.63561127308E+01  0.70185391247E+01 -0.21228082192E+02  0.23244172045E+02  0.00000000000E+00 0. -1.
         -4    1    5    5    0  502 -0.22402116264E+03  0.47510188518E+02 -0.43669075543E+03  0.49309381988E+03  0.00000000000E+00 0.  1.
         -4    1    6    6    0  503  0.49079213225E+03 -0.13432979004E+03 -0.43045671046E+03  0.66649410286E+03  0.00000000000E+00 0.  1.
<mgrwt>
<rscale>  0 0.13274998E+04</rscale>
<asrwt>0</asrwt>
<pdfrwt beam="1">  1        2 0.41049276E+00 0.13274998E+04</pdfrwt>
<pdfrwt beam="2">  1       -2 0.25402514E-01 0.13274998E+04</pdfrwt>
<totfact> 0.38052632E+01</totfact>
</mgrwt>
</event>
<event>
12    1  0.4802930E-008  0.1384722E+04  0.7818608E-02  0.8964952E-01
         -2   -1    0    0    0  501 -0.00000000000E+00  0.00000000000E+00  0.11084749990E+04  0.11084749990E+04  0.00000000000E+00 0.  1.
          2   -1    0    0  501    0  0.00000000000E+00 -0.00000000000E+00 -0.43245367496E+03  0.43245367496E+03  0.00000000000E+00 0. -1.
         23    2    1    2    0    0  0.81872005485E+02  0.14053003117E+03 -0.20163276274E+03  0.27515283122E+03  0.92744781915E+02 0.  0.
        254    2    1    2    0    0 -0.81872005485E+02 -0.14053003117E+03  0.87765408679E+03  0.12657758428E+04  0.89747427433E+03 0.  0.
         23    2    4    4    0    0 -0.35072553781E+03  0.90443530769E+02  0.80975263407E+03  0.89169744414E+03  0.90755541877E+02 0.  0.
         23    2    4    4    0    0  0.26885353232E+03 -0.23097356194E+03  0.67901452720E+02  0.37407839861E+03  0.98453201397E+02 0.  0.
         13    1    3    3    0    0  0.17899951816E+02  0.80624532461E+02 -0.15559541429E+03  0.17615520559E+03  0.00000000000E+00 0. -1.
        -13    1    3    3    0    0  0.63972053669E+02  0.59905498710E+02 -0.46037348449E+02  0.98997625621E+02  0.00000000000E+00 0.  1.
          2    1    5    5  502    0 -0.30355004198E+03  0.79058045696E+02  0.76003817674E+03  0.82222310396E+03  0.00000000000E+00 0. -1.
          1    1    6    6  503    0  0.23964542290E+03 -0.19656623368E+03  0.23615795940E+02  0.31084709868E+03  0.00000000000E+00 0. -1.
         -2    1    5    5    0  502 -0.47175495829E+02  0.11385485073E+02  0.49714457327E+02  0.69474340186E+02  0.00000000000E+00 0.  1.
         -1    1    6    6    0  503  0.29208109422E+02 -0.34407328264E+02  0.44285656780E+02  0.63231299929E+02  0.00000000000E+00 0.  1.
<mgrwt>
<rscale>  0 0.13847225E+04</rscale>
<asrwt>0</asrwt>
<pdfrwt beam="1">  1        2 0.66531335E-01 0.13847225E+04</pdfrwt>
<pdfrwt beam="2">  1       -2 0.17053461E+00 0.13847225E+04</pdfrwt>
<totfact> 0.14965550E+01</totfact>
</mgrwt>
</event>
<event>
12    1  0.4802930E-008  0.1483602E+04  0.7818608E-02  0.8895431E-01
          2   -1    0    0  501    0  0.00000000000E+00  0.00000000000E+00  0.66178212316E+03  0.66178212316E+03  0.00000000000E+00 0. -1.
         -2   -1    0    0    0  501 -0.00000000000E+00 -0.00000000000E+00 -0.83149570672E+03  0.83149570672E+03  0.00000000000E+00 0.  1.
         23    2    1    2    0    0  0.39038298396E+03  0.14901440405E+03 -0.27634182606E+03  0.51013552258E+03  0.96277098964E+02 0.  0.
        254    2    1    2    0    0 -0.39038298396E+03 -0.14901440405E+03  0.10662824249E+03  0.98314230730E+03  0.88351290173E+03 0.  0.
         23    2    4    4    0    0 -0.42595359860E+03 -0.30101729151E+03  0.38298690390E+03  0.65344135934E+03  0.90877739802E+02 0.  0.
         23    2    4    4    0    0  0.35570614639E+02  0.15200288746E+03 -0.27635866140E+03  0.32970094796E+03  0.89210195223E+02 0.  0.
         11    1    3    3    0    0 -0.61769101883E+00 -0.73540271627E+01 -0.23829478001E+01  0.77551078601E+01  0.00000000000E+00 0. -1.
        -11    1    3    3    0    0  0.39100067498E+03  0.15636843121E+03 -0.27395887826E+03  0.50238041472E+03  0.00000000000E+00 0.  1.
          4    1    5    5  502    0 -0.35383763623E+03 -0.23998701151E+03  0.35264498416E+03  0.55421414937E+03  0.00000000000E+00 0. -1.
          3    1    6    6  503    0  0.73849146340E+01 -0.23947874684E+01 -0.70047408103E+02  0.70476317676E+02  0.00000000000E+00 0.  1.
         -4    1    5    5    0  502 -0.72115962377E+02 -0.61030280000E+02  0.30341919737E+02  0.99227209977E+02  0.00000000000E+00 0.  1.
         -3    1    6    6    0  503  0.28185700005E+02  0.15439767493E+03 -0.20631125330E+03  0.25922463029E+03  0.00000000000E+00 0. -1.
<mgrwt>
<rscale>  0 0.14836024E+04</rscale>
<asrwt>0</asrwt>
<pdfrwt beam="1">  1        2 0.10181263E+00 0.14836024E+04</pdfrwt>
<pdfrwt beam="2">  1       -2 0.12792242E+00 0.14836024E+04</pdfrwt>
<totfact> 0.19235809E+01</totfact>
</mgrwt>
</event>
<event>
12    1  0.4802930E-008  0.1561705E+04  0.7818608E-02  0.8844426E-01
         -2   -1    0    0    0  501 -0.00000000000E+00  0.00000000000E+00  0.12971739200E+04  0.12971739200E+04  0.00000000000E+00 0. -1.
          2   -1    0    0  501    0  0.00000000000E+00 -0.00000000000E+00 -0.47004518662E+03  0.47004518662E+03  0.00000000000E+00 0.  1.
         23    2    1    2    0    0  0.36097079480E+03  0.25745382184E+03  0.60973312439E+03  0.76145131437E+03  0.10701044858E+03 0.  0.
        254    2    1    2    0    0 -0.36097079480E+03 -0.25745382184E+03  0.21739560896E+03  0.10057677922E+04  0.87619952980E+03 0.  0.
         23    2    4    4    0    0 -0.33724950029E+03 -0.55927882298E+03  0.93380596992E+02  0.66586255822E+03  0.90127594319E+02 0.  0.
         23    2    4    4    0    0 -0.23721294508E+02  0.30182500115E+03  0.12401501197E+03  0.33990523401E+03  0.92167314077E+02 0.  0.
         13    1    3    3    0    0  0.83869301318E+02  0.80793693408E+02  0.24014211944E+03  0.26688933686E+03  0.00000000000E+00 0.  1.
        -13    1    3    3    0    0  0.27710149348E+03  0.17666012843E+03  0.36959100495E+03  0.49456197752E+03  0.00000000000E+00 0. -1.
          2    1    5    5  502    0 -0.45166232238E+02 -0.14831363989E+03  0.25654752084E+02  0.15714671685E+03  0.00000000000E+00 0. -1.
          3    1    6    6  503    0 -0.14486544572E+02  0.24784368469E+03  0.13708814428E+03  0.28360097199E+03  0.00000000000E+00 0.  1.
         -2    1    5    5    0  502 -0.29208326805E+03 -0.41096518310E+03  0.67725844909E+02  0.50871584137E+03  0.00000000000E+00 0.  1.
         -3    1    6    6    0  503 -0.92347499359E+01  0.53981316460E+02 -0.13073132310E+02  0.56304262020E+02  0.00000000000E+00 0. -1.
<mgrwt>
<rscale>  0 0.15617047E+04</rscale>
<asrwt>0</asrwt>
<pdfrwt beam="1">  1        2 0.72314645E-01 0.15617047E+04</pdfrwt>
<pdfrwt beam="2">  1       -2 0.19956522E+00 0.15617047E+04</pdfrwt>
<totfact> 0.85085507E+00</totfact>
</mgrwt>
</event>
<event>
12    1  0.4802930E-008  0.1552959E+04  0.7818608E-02  0.8849980E-01
          2   -1    0    0  501    0  0.00000000000E+00  0.00000000000E+00  0.19067251870E+04  0.19067251870E+04  0.00000000000E+00 0. -1.
         -2   -1    0    0    0  501 -0.00000000000E+00 -0.00000000000E+00 -0.31620722570E+03  0.31620722570E+03  0.00000000000E+00 0.  1.
         23    2    1    2    0    0 -0.35085372170E+03  0.25738615356E+03  0.14553312997E+03  0.46742101261E+03  0.89199467704E+02 0.  0.
        254    2    1    2    0    0  0.35085372170E+03 -0.25738615356E+03  0.14449848314E+04  0.17555114001E+04  0.89693541964E+03 0.  0.
         23    2    4    4    0    0 -0.61543260904E+02 -0.31032000084E+03  0.10013573212E+03  0.34491346190E+03  0.94085362663E+02 0.  0.
         23    2    4    4    0    0  0.41239698260E+03  0.52933847281E+02  0.13448490992E+04  0.14105979382E+04  0.91072389475E+02 0.  0.
         11    1    3    3    0    0 -0.34392678062E+03  0.23925799779E+03  0.15383557023E+03  0.44631312170E+03  0.00000000000E+00 0.  1.
        -11    1    3    3    0    0 -0.69269410769E+01  0.18128155772E+02 -0.83024402630E+01  0.21107890910E+02  0.00000000000E+00 0. -1.
          4    1    5    5  502    0 -0.70024927140E+02 -0.31317758624E+03  0.95416943207E+02  0.33479558538E+03  0.00000000000E+00 0. -1.
          1    1    6    6  503    0  0.40544014608E+03  0.54231271654E+02  0.12445321363E+04  0.13100316718E+04  0.00000000000E+00 0. -1.
         -4    1    5    5    0  502  0.84816662353E+01  0.28575853929E+01  0.47187889157E+01  0.10117876518E+02  0.00000000000E+00 0.  1.
         -1    1    6    6    0  503  0.69568365251E+01 -0.12974243732E+01  0.10031696291E+03  0.10056626638E+03  0.00000000000E+00 0.  1.
<mgrwt>
<rscale>  0 0.15529588E+04</rscale>
<asrwt>0</asrwt>
<pdfrwt beam="1">  1        2 0.29334233E+00 0.15529588E+04</pdfrwt>
<pdfrwt beam="2">  1       -2 0.48647267E-01 0.15529588E+04</pdfrwt>
<totfact> 0.28996037E+01</totfact>
</mgrwt>
</event>
<event>
12    1  0.4802930E-008  0.5724173E+04  0.7818608E-02  0.7725574E-01
         -2   -1    0    0    0  501 -0.00000000000E+00  0.00000000000E+00  0.16830244728E+04  0.16830244728E+04  0.00000000000E+00 0.  1.
          2   -1    0    0  501    0  0.00000000000E+00 -0.00000000000E+00 -0.48671544998E+04  0.48671544998E+04  0.00000000000E+00 0. -1.
         23    2    1    2    0    0  0.13518054789E+03 -0.27912270987E+04 -0.15310857228E+04  0.31880252803E+04  0.10029556237E+03 0.  0.
        254    2    1    2    0    0 -0.13518054789E+03  0.27912270987E+04 -0.16530443043E+04  0.33621536923E+04  0.87309763596E+03 0.  0.
         23    2    4    4    0    0 -0.45777767486E+03  0.11013915723E+04 -0.54859099529E+03  0.13156394330E+04  0.85622674865E+02 0.  0.
         23    2    4    4    0    0  0.32259712697E+03  0.16898355264E+04 -0.11044533090E+04  0.20465142593E+04  0.93757609099E+02 0.  0.
         11    1    3    3    0    0  0.54304563243E+02 -0.56021088520E+03 -0.34244458306E+03  0.65882737796E+03  0.00000000000E+00 0.  1.
        -11    1    3    3    0    0  0.80875984642E+02 -0.22310162135E+04 -0.11886411397E+04  0.25291979023E+04  0.00000000000E+00 0. -1.
          1    1    5    5  502    0 -0.41034350090E+01  0.38471879589E+02 -0.69107020803E+01  0.39302436327E+02  0.00000000000E+00 0. -1.
          3    1    6    6  503    0  0.21521424473E+02  0.50480249594E+02 -0.22161560777E+02  0.59182447453E+02  0.00000000000E+00 0. -1.
         -1    1    5    5    0  502 -0.45367423985E+03  0.10629196927E+04 -0.54168029321E+03  0.12763369967E+04  0.00000000000E+00 0.  1.
         -3    1    6    6    0  503  0.30107570250E+03  0.16393552768E+04 -0.10822917482E+04  0.19873318119E+04  0.00000000000E+00 0.  1.
<mgrwt>
<rscale>  0 0.57241734E+04</rscale>
<asrwt>0</asrwt>
<pdfrwt beam="1">  1        2 0.74879299E+00 0.57241734E+04</pdfrwt>
<pdfrwt beam="2">  1       -2 0.25892685E+00 0.57241734E+04</pdfrwt>
<totfact> 0.19062559E-03</totfact>
</mgrwt>
</event>
<event>
12    1  0.4802930E-008  0.1280774E+04  0.7818608E-02  0.9044952E-01
         -2   -1    0    0    0  501 -0.00000000000E+00  0.00000000000E+00  0.55762445947E+03  0.55762445947E+03  0.00000000000E+00 0.  1.
          2   -1    0    0  501    0  0.00000000000E+00 -0.00000000000E+00 -0.73543355341E+03  0.73543355341E+03  0.00000000000E+00 0. -1.
         23    2    1    2    0    0  0.21640487542E+02 -0.87219148299E+02  0.25810922932E+03  0.28809751896E+03  0.91128017887E+02 0.  0.
        254    2    1    2    0    0 -0.21640487542E+02  0.87219148299E+02 -0.43591832325E+03  0.10049604939E+04  0.90102459415E+03 0.  0.
         23    2    4    4    0    0  0.33966063215E+03  0.14935843688E+03  0.54204801923E+02  0.38627685823E+03  0.92705787057E+02 0.  0.
         23    2    4    4    0    0 -0.36130111969E+03 -0.62139288583E+02 -0.49012312518E+03  0.61868363569E+03  0.90271662006E+02 0.  0.
         13    1    3    3    0    0  0.21156247475E+01  0.87642673343E+01  0.11098318248E+03  0.11134879902E+03  0.00000000000E+00 0.  1.
        -13    1    3    3    0    0  0.19524862795E+02 -0.95983415633E+02  0.14712604683E+03  0.17674871994E+03  0.00000000000E+00 0. -1.
          4    1    5    5  502    0  0.11983952773E+03  0.58531614952E+02  0.64625856350E+02  0.14820244149E+03  0.00000000000E+00 0. -1.
          1    1    6    6  503    0 -0.14208499201E+03 -0.53378320276E+02 -0.25765139833E+03  0.29903450150E+03  0.00000000000E+00 0. -1.
         -4    1    5    5    0  502  0.21982110442E+03  0.90826821929E+02 -0.10421054427E+02  0.23807441674E+03  0.00000000000E+00 0.  1.
         -1    1    6    6    0  503 -0.21921612768E+03 -0.87609683069E+01 -0.23247172685E+03  0.31964913419E+03  0.00000000000E+00 0.  1.
<mgrwt>
<rscale>  0 0.12807744E+04</rscale>
<asrwt>0</asrwt>
<pdfrwt beam="1">  1        2 0.11314362E+00 0.12807744E+04</pdfrwt>
<pdfrwt beam="2">  1       -2 0.85788379E-01 0.12807744E+04</pdfrwt>
<totfact> 0.44557867E+01</totfact>
</mgrwt>
</event>
<event>
12    1  0.4802930E-008  0.1303703E+04  0.7818608E-02  0.9026634E-01
          1   -1    0    0  501    0  0.00000000000E+00  0.00000000000E+00  0.10983682050E+04  0.10983682050E+04  0.00000000000E+00 0. -1.
         -1   -1    0    0    0  501 -0.00000000000E+00 -0.00000000000E+00 -0.38685589167E+03  0.38685589167E+03  0.00000000000E+00 0.  1.
         23    2    1    2    0    0  0.30657481153E+02  0.28933474156E+03  0.97661320070E+01  0.30841895020E+03  0.10184496885E+03 0.  0.
        254    2    1    2    0    0 -0.30657481153E+02 -0.28933474156E+03  0.70174618134E+03  0.11768051465E+04  0.89875924250E+03 0.  0.
         23    2    4    4    0    0 -0.25840377552E+03 -0.52276747549E+03  0.54706284318E+03  0.80463224474E+03  0.89983055337E+02 0.  0.
         23    2    4    4    0    0  0.22774629436E+03  0.23343273393E+03  0.15468333816E+03  0.37217290176E+03  0.90700153448E+02 0.  0.
         13    1    3    3    0    0  0.33421212983E+01  0.18854680688E+03 -0.39953870830E+02  0.19276249623E+03  0.00000000000E+00 0.  1.
        -13    1    3    3    0    0  0.27315359855E+02  0.10078793469E+03  0.49720002837E+02  0.11565645397E+03  0.00000000000E+00 0. -1.
          3    1    6    6  502    0  0.12786834036E+03  0.12173112780E+03  0.34038575834E+02  0.17979823299E+03  0.00000000000E+00 0. -1.
          3    1    5    5  503    0 -0.15619747591E+03 -0.23135517870E+03  0.29356911723E+03  0.40509961341E+03  0.00000000000E+00 0. -1.
         -3    1    5    5    0  503 -0.10220629961E+03 -0.29141229679E+03  0.25349372595E+03  0.39953263133E+03  0.00000000000E+00 0.  1.
         -3    1    6    6    0  502  0.99877954001E+02  0.11170160613E+03  0.12064476233E+03  0.19237466877E+03  0.00000000000E+00 0.  1.
<mgrwt>
<rscale>  0 0.13037027E+04</rscale>
<asrwt>0</asrwt>
<pdfrwt beam="1">  1        1 0.16897972E+00 0.13037027E+04</pdfrwt>
<pdfrwt beam="2">  1       -1 0.59516291E-01 0.13037027E+04</pdfrwt>
<totfact> 0.35743297E+01</totfact>
</mgrwt>
</event>
<event>
12    1  0.4802930E-008  0.1761438E+04  0.7818608E-02  0.8727079E-01
         -2   -1    0    0    0  501 -0.00000000000E+00  0.00000000000E+00  0.75912996633E+03  0.75912996633E+03  0.00000000000E+00 0.  1.
          2   -1    0    0  501    0  0.00000000000E+00 -0.00000000000E+00 -0.10217827394E+04  0.10217827394E+04  0.00000000000E+00 0. -1.
         23    2    1    2    0    0  0.69847162587E+02 -0.13993784516E+03 -0.74147400154E+03  0.76373029698E+03  0.95073891965E+02 0.  0.
        254    2    1    2    0    0 -0.69847162587E+02  0.13993784516E+03  0.47882122852E+03  0.10171824087E+04  0.88370190509E+03 0.  0.
         23    2    4    4    0    0  0.32496759357E+03  0.24907726302E+03  0.59601264504E+02  0.42380697274E+03  0.91742136371E+02 0.  0.
         23    2    4    4    0    0 -0.39481475616E+03 -0.10913941787E+03  0.41921996401E+03  0.59337543596E+03  0.92514461329E+02 0.  0.
         11    1    3    3    0    0  0.34264232381E+02 -0.14116480464E+03 -0.63709755609E+03  0.65344841852E+03  0.00000000000E+00 0. -1.
        -11    1    3    3    0    0  0.35582930207E+02  0.12269594803E+01 -0.10437644545E+03  0.11028187846E+03  0.00000000000E+00 0.  1.
          1    1    5    5  502    0  0.13846919336E+03  0.95356049350E+02  0.69485278934E+02  0.18191948122E+03  0.00000000000E+00 0.  1.
          1    1    6    6  503    0 -0.43409909838E+02 -0.64313302092E+01  0.93752739331E+02  0.10351501540E+03  0.00000000000E+00 0. -1.
         -1    1    5    5    0  502  0.18649840021E+03  0.15372121367E+03 -0.98840144299E+01  0.24188749153E+03  0.00000000000E+00 0. -1.
         -1    1    6    6    0  503 -0.35140484632E+03 -0.10270808766E+03  0.32546722468E+03  0.48986042056E+03  0.00000000000E+00 0.  1.
<mgrwt>
<rscale>  0 0.17614379E+04</rscale>
<asrwt>0</asrwt>
<pdfrwt beam="1">  1        2 0.15719734E+00 0.17614379E+04</pdfrwt>
<pdfrwt beam="2">  1       -2 0.11678923E+00 0.17614379E+04</pdfrwt>
<totfact> 0.13116186E+01</totfact>
</mgrwt>
</event>
<event>
12    1  0.4802930E-008  0.1331369E+04  0.7818608E-02  0.9005053E-01
          3   -1    0    0  501    0  0.00000000000E+00  0.00000000000E+00  0.47838859286E+03  0.47838859286E+03  0.00000000000E+00 0. -1.
         -3   -1    0    0    0  501 -0.00000000000E+00 -0.00000000000E+00 -0.92630883593E+03  0.92630883593E+03  0.00000000000E+00 0.  1.
         23    2    1    2    0    0 -0.23401501903E+03  0.11451044947E+03  0.12497836911E+03  0.30295224058E+03  0.91020850120E+02 0.  0.
        254    2    1    2    0    0  0.23401501903E+03 -0.11451044947E+03 -0.57289861218E+03  0.11017451882E+04  0.90429749959E+03 0.  0.
         23    2    4    4    0    0  0.45320405479E+03  0.18736579000E+03 -0.50855515252E+03  0.71189542476E+03  0.87560825141E+02 0.  0.
         23    2    4    4    0    0 -0.21918903576E+03 -0.30187623947E+03 -0.64343459656E+02  0.38984976347E+03  0.93111008593E+02 0.  0.
         11    1    3    3    0    0 -0.23952540987E+03  0.10016504266E+03  0.12353409297E+03  0.28751718187E+03  0.00000000000E+00 0. -1.
        -11    1    3    3    0    0  0.55103908394E+01  0.14345406812E+02  0.14442761397E+01  0.15435058709E+02  0.00000000000E+00 0.  1.
          1    1    5    5  502    0  0.87135569786E+02  0.20850608252E+02 -0.14109556986E+03  0.16713861081E+03  0.00000000000E+00 0. -1.
          3    1    6    6  503    0 -0.28285626162E+02 -0.77363033545E+02  0.17038825412E+02  0.84115617920E+02  0.00000000000E+00 0. -1.
         -1    1    5    5    0  502  0.36606848500E+03  0.16651518174E+03 -0.36745958266E+03  0.54475681395E+03  0.00000000000E+00 0.  1.
         -3    1    6    6    0  503 -0.19090340960E+03 -0.22451320592E+03 -0.81382285067E+02  0.30573414555E+03  0.00000000000E+00 0.  1.
<mgrwt>
<rscale>  0 0.13313686E+04</rscale>
<asrwt>0</asrwt>
<pdfrwt beam="1">  1        3 0.73598246E-01 0.13313686E+04</pdfrwt>
<pdfrwt beam="2">  1       -3 0.14250905E+00 0.13313686E+04</pdfrwt>
<totfact> 0.16503896E+00</totfact>
</mgrwt>
</event>
<event>
12    1  0.4802930E-008  0.1766107E+04  0.7818608E-02  0.8724534E-01
          1   -1    0    0  501    0  0.00000000000E+00  0.00000000000E+00  0.70652133505E+03  0.70652133505E+03  0.00000000000E+00 0. -1.
         -1   -1    0    0    0  501 -0.00000000000E+00 -0.00000000000E+00 -0.11036944744E+04  0.11036944744E+04  0.00000000000E+00 0.  1.
         23    2    1    2    0    0  0.63022263549E+03 -0.98521701891E+02 -0.23739827308E+03  0.68630655482E+03  0.88156968588E+02 0.  0.
        254    2    1    2    0    0 -0.63022263549E+03  0.98521701891E+02 -0.15977486626E+03  0.11239092546E+04  0.91145867087E+03 0.  0.
         23    2    4    4    0    0  0.14197504939E+03 -0.16971089876E+03 -0.18218294913E+03  0.30109010669E+03  0.92227553277E+02 0.  0.
         23    2    4    4    0    0 -0.77219768488E+03  0.26823260065E+03  0.22408082872E+02  0.82281914793E+03  0.91056221312E+02 0.  0.
         13    1    3    3    0    0  0.55014575206E+03 -0.83660347199E+02 -0.23706149812E+03  0.60486160078E+03  0.00000000000E+00 0.  1.
        -13    1    3    3    0    0  0.80076883422E+02 -0.14861354692E+02 -0.33677496099E+00  0.81444954044E+02  0.00000000000E+00 0. -1.
          1    1    5    5  502    0  0.61605107992E+02 -0.12777874025E+02 -0.56525316263E+02  0.84578808067E+02  0.00000000000E+00 0. -1.
          3    1    6    6  503    0  0.80497230536E-01 -0.30152336269E+01  0.27080101499E+01  0.40535703522E+01  0.00000000000E+00 0. -1.
         -1    1    5    5    0  502  0.80369941400E+02 -0.15693302473E+03 -0.12565763287E+03  0.21651129862E+03  0.00000000000E+00 0.  1.
         -3    1    6    6    0  503 -0.77227818211E+03  0.27124783427E+03  0.19700072722E+02  0.81876557758E+03  0.00000000000E+00 0.  1.
<mgrwt>
<rscale>  0 0.17661072E+04</rscale>
<asrwt>0</asrwt>
<pdfrwt beam="1">  1        1 0.10869559E+00 0.17661072E+04</pdfrwt>
<pdfrwt beam="2">  1       -1 0.16979915E+00 0.17661072E+04</pdfrwt>
<totfact> 0.62758759E+00</totfact>
</mgrwt>
</event>
<event>
12    1  0.4802930E-008  0.1487127E+04  0.7818608E-02  0.8893059E-01
          2   -1    0    0  501    0  0.00000000000E+00  0.00000000000E+00  0.17519967398E+04  0.17519967398E+04  0.00000000000E+00 0. -1.
         -2   -1    0    0    0  501 -0.00000000000E+00 -0.00000000000E+00 -0.31557521645E+03  0.31557521645E+03  0.00000000000E+00 0.  1.
         23    2    1    2    0    0  0.33324992541E+03  0.19658432478E+02  0.80341461024E+03  0.87482726871E+03  0.91682863056E+02 0.  0.
        254    2    1    2    0    0 -0.33324992541E+03 -0.19658432478E+02  0.63300691306E+03  0.11927446875E+04  0.95420132615E+03 0.  0.
         23    2    4    4    0    0  0.19579537042E+03  0.27418362536E+03  0.58798744169E+02  0.35325278989E+03  0.88418062373E+02 0.  0.
         23    2    4    4    0    0 -0.52904529583E+03 -0.29384205784E+03  0.57420816889E+03  0.83949189762E+03  0.93805889721E+02 0.  0.
         11    1    3    3    0    0  0.83466156406E+02 -0.30107269577E+02  0.16223130718E+03  0.18491090821E+03  0.00000000000E+00 0.  1.
        -11    1    3    3    0    0  0.24978376900E+03  0.49765702056E+02  0.64118330306E+03  0.68991636050E+03  0.00000000000E+00 0. -1.
          2    1    5    5  502    0  0.80335485130E+02  0.17305967332E+03  0.59197228106E+02  0.19976924817E+03  0.00000000000E+00 0. -1.
          3    1    6    6  503    0 -0.38951437687E+03 -0.23488667142E+03  0.47912799525E+03  0.66064879780E+03  0.00000000000E+00 0. -1.
         -2    1    5    5    0  502  0.11545988529E+03  0.10112395204E+03 -0.39848393624E+00  0.15348354171E+03  0.00000000000E+00 0.  1.
         -3    1    6    6    0  503 -0.13953091896E+03 -0.58955386412E+02  0.95080173649E+02  0.17884309982E+03  0.00000000000E+00 0.  1.
<mgrwt>
<rscale>  0 0.14871271E+04</rscale>
<asrwt>0</asrwt>
<pdfrwt beam="1">  1        2 0.26953795E+00 0.14871271E+04</pdfrwt>
<pdfrwt beam="2">  1       -2 0.48550035E-01 0.14871271E+04</pdfrwt>
<totfact> 0.35651636E+01</totfact>
</mgrwt>
</event>
<event>
12    1  0.4802930E-008  0.1269276E+04  0.7818608E-02  0.9054291E-01
         -2   -1    0    0    0  501 -0.00000000000E+00  0.00000000000E+00  0.18110220848E+03  0.18110220848E+03  0.00000000000E+00 0.  1.
          2   -1    0    0  501    0  0.00000000000E+00 -0.00000000000E+00 -0.22239675095E+04  0.22239675095E+04  0.00000000000E+00 0. -1.
         23    2    1    2    0    0  0.34448475149E+03 -0.39854973562E+02 -0.58899543767E+03  0.68963634652E+03  0.91785085510E+02 0.  0.
        254    2    1    2    0    0 -0.34448475149E+03  0.39854973562E+02 -0.14538698634E+04  0.17154333715E+04  0.84185266493E+03 0.  0.
         23    2    4    4    0    0 -0.41498931788E+03  0.36365857944E+03 -0.79043818837E+03  0.96851846473E+03  0.93657837597E+02 0.  0.
         23    2    4    4    0    0  0.70504566387E+02 -0.32380360588E+03 -0.66343167503E+03  0.74691490677E+03  0.88997873353E+02 0.  0.
         13    1    3    3    0    0 -0.15820977095E+01 -0.93743073115E+01 -0.30111566748E+02  0.31576686380E+02  0.00000000000E+00 0. -1.
        -13    1    3    3    0    0  0.34606684920E+03 -0.30480666250E+02 -0.55888387092E+03  0.65805966014E+03  0.00000000000E+00 0.  1.
          4    1    5    5  502    0 -0.14773232348E+03  0.15282320343E+03 -0.37880619086E+03  0.43436609115E+03  0.00000000000E+00 0. -1.
          3    1    6    6  503    0  0.34968253171E+02 -0.11736840543E+03 -0.15882724364E+03  0.20055975331E+03  0.00000000000E+00 0. -1.
         -4    1    5    5    0  502 -0.26725699439E+03  0.21083537601E+03 -0.41163199751E+03  0.53415237358E+03  0.00000000000E+00 0.  1.
         -3    1    6    6    0  503  0.35536313216E+02 -0.20643520045E+03 -0.50460443139E+03  0.54635515347E+03  0.00000000000E+00 0.  1.
<mgrwt>
<rscale>  0 0.12692761E+04</rscale>
<asrwt>0</asrwt>
<pdfrwt beam="1">  1        2 0.34214883E+00 0.12692761E+04</pdfrwt>
<pdfrwt beam="2">  1       -2 0.27861879E-01 0.12692761E+04</pdfrwt>
<totfact> 0.57986186E+01</totfact>
</mgrwt>
</event>
<event>
12    1  0.4802930E-008  0.1779814E+04  0.7818608E-02  0.8717108E-01
         -2   -1    0    0    0  501 -0.00000000000E+00  0.00000000000E+00  0.18596367626E+04  0.18596367626E+04  0.00000000000E+00 0.  1.
          2   -1    0    0  501    0  0.00000000000E+00 -0.00000000000E+00 -0.42585456159E+03  0.42585456159E+03  0.00000000000E+00 0. -1.
         23    2    1    2    0    0 -0.60544328270E+03 -0.20092756907E+03  0.31450908979E+03  0.71720741599E+03  0.92396176382E+02 0.  0.
        254    2    1    2    0    0  0.60544328270E+03  0.20092756907E+03  0.11192731112E+04  0.15682839082E+04  0.89432022377E+03 0.  0.
         23    2    4    4    0    0  0.43469984348E+03  0.16457874343E+03  0.45883108057E+02  0.47703484578E+03  0.96989008558E+02 0.  0.
         23    2    4    4    0    0  0.17074343923E+03  0.36348825642E+02  0.10733900032E+04  0.10912490624E+04  0.90464679192E+02 0.  0.
         13    1    3    3    0    0 -0.34805112577E+03 -0.12266552346E+03  0.23162235588E+03  0.43570096688E+03  0.00000000000E+00 0.  1.
        -13    1    3    3    0    0 -0.25739215694E+03 -0.78262045611E+02  0.82886733910E+02  0.28150644912E+03  0.00000000000E+00 0. -1.
          2    1    5    5  502    0  0.20673859336E+03  0.88897274759E+02 -0.25437044106E+02  0.22647431346E+03  0.00000000000E+00 0.  1.
          1    1    6    6  503    0  0.49332396459E+02  0.12564118947E+02  0.59309069182E+03  0.59527146005E+03  0.00000000000E+00 0. -1.
         -2    1    5    5    0  502  0.22796125011E+03  0.75681468668E+02  0.71320152163E+02  0.25056053232E+03  0.00000000000E+00 0. -1.
         -1    1    6    6    0  503  0.12141104277E+03  0.23784706695E+02  0.48029931133E+03  0.49597760236E+03  0.00000000000E+00 0.  1.
<mgrwt>
<rscale>  0 0.17798144E+04</rscale>
<asrwt>0</asrwt>
<pdfrwt beam="1">  1        2 0.65516088E-01 0.17798144E+04</pdfrwt>
<pdfrwt beam="2">  1       -2 0.28609796E+00 0.17798144E+04</pdfrwt>
<totfact> 0.27105761E+00</totfact>
</mgrwt>
</event>
<event>
12    1  0.4802930E-008  0.2668603E+04  0.7818608E-02  0.8345265E-01
         -2   -1    0    0    0  501 -0.00000000000E+00  0.00000000000E+00  0.99685481407E+03  0.99685481407E+03  0.00000000000E+00 0.  1.
          2   -1    0    0  501    0  0.00000000000E+00 -0.00000000000E+00 -0.17859780860E+04  0.17859780860E+04  0.00000000000E+00 0. -1.
         23    2    1    2    0    0 -0.10513110269E+04  0.29681462146E+03 -0.81307453883E+03  0.13651542660E+04  0.95927938923E+02 0.  0.
        254    2    1    2    0    0  0.10513110269E+04 -0.29681462146E+03  0.23951266869E+02  0.14176786341E+04  0.90326366673E+03 0.  0.
         23    2    4    4    0    0  0.80798902955E+03 -0.34091769876E+03  0.39248691302E+03  0.96504742081E+03  0.90550529060E+02 0.  0.
         23    2    4    4    0    0  0.24332199735E+03  0.44103077300E+02 -0.36853564615E+03  0.45263121331E+03  0.88914661070E+02 0.  0.
         11    1    3    3    0    0 -0.13300596661E+03  0.51670508269E+02 -0.14465605669E+03  0.20318908267E+03  0.00000000000E+00 0. -1.
        -11    1    3    3    0    0 -0.91830506029E+03  0.24514411319E+03 -0.66841848213E+03  0.11619651833E+04  0.00000000000E+00 0.  1.
          2    1    5    5  502    0  0.17908960876E+03 -0.36074584982E+02  0.76973611904E+02  0.19824076417E+03  0.00000000000E+00 0. -1.
          1    1    6    6  503    0  0.63770975562E+02 -0.90664881151E+00 -0.39261764808E+02  0.74893561219E+02  0.00000000000E+00 0. -1.
         -2    1    5    5    0  502  0.62889942079E+03 -0.30484311378E+03  0.31551330111E+03  0.76680665664E+03  0.00000000000E+00 0.  1.
         -1    1    6    6    0  503  0.17955102179E+03  0.45009726112E+02 -0.32927388134E+03  0.37773765209E+03  0.00000000000E+00 0.  1.
<mgrwt>
<rscale>  0 0.26686033E+04</rscale>
<asrwt>0</asrwt>
<pdfrwt beam="1">  1        2 0.27476586E+00 0.26686033E+04</pdfrwt>
<pdfrwt beam="2">  1       -2 0.15336228E+00 0.26686033E+04</pdfrwt>
<totfact> 0.21827154E+00</totfact>
</mgrwt>
</event>
<event>
12    1  0.4802930E-008  0.2163384E+04  0.7818608E-02  0.8533825E-01
          2   -1    0    0  501    0  0.00000000000E+00  0.00000000000E+00  0.68816385779E+03  0.68816385779E+03  0.00000000000E+00 0. -1.
         -2   -1    0    0    0  501 -0.00000000000E+00 -0.00000000000E+00 -0.17002605739E+04  0.17002605739E+04  0.00000000000E+00 0.  1.
         23    2    1    2    0    0  0.33096583951E+03 -0.35061413744E+03  0.40795768436E+03  0.63801343342E+03  0.90349370227E+02 0.  0.
        254    2    1    2    0    0 -0.33096583951E+03  0.35061413744E+03 -0.14200544005E+04  0.17504109983E+04  0.90272670413E+03 0.  0.
         23    2    4    4    0    0  0.96584966054E+02  0.24124992113E+03 -0.12280162309E+04  0.12584807955E+04  0.90663494272E+02 0.  0.
         23    2    4    4    0    0 -0.42755080557E+03  0.10936421630E+03 -0.19203816966E+03  0.49193020286E+03  0.10176660914E+03 0.  0.
         13    1    3    3    0    0  0.18829727185E+03 -0.23441687884E+03  0.29968315811E+03  0.42451988284E+03  0.00000000000E+00 0. -1.
        -13    1    3    3    0    0  0.14266856766E+03 -0.11619725859E+03  0.10827452625E+03  0.21349355058E+03  0.00000000000E+00 0.  1.
          4    1    6    6  502    0 -0.15531267900E+03  0.49568388975E+02 -0.12451142424E+03  0.20513933852E+03  0.00000000000E+00 0. -1.
          4    1    5    5  503    0  0.39958860573E+02  0.16877648450E+02 -0.22125637524E+03  0.22546828855E+03  0.00000000000E+00 0. -1.
         -4    1    5    5    0  503  0.56626105481E+02  0.22437227268E+03 -0.10067598556E+04  0.10330125069E+04  0.00000000000E+00 0.  1.
         -4    1    6    6    0  502 -0.27223812657E+03  0.59795827329E+02 -0.67526745422E+02  0.28679086435E+03  0.00000000000E+00 0.  1.
<mgrwt>
<rscale>  0 0.21633843E+04</rscale>
<asrwt>0</asrwt>
<pdfrwt beam="1">  1        2 0.10587136E+00 0.21633843E+04</pdfrwt>
<pdfrwt beam="2">  1       -2 0.26157855E+00 0.21633843E+04</pdfrwt>
<totfact> 0.20942661E+00</totfact>
</mgrwt>
</event>
<event>
12    1  0.4802930E-008  0.1276370E+04  0.7818608E-02  0.9048517E-01
         -1   -1    0    0    0  501 -0.00000000000E+00  0.00000000000E+00  0.51927372891E+03  0.51927372891E+03  0.00000000000E+00 0.  1.
          1   -1    0    0  501    0  0.00000000000E+00 -0.00000000000E+00 -0.78432608500E+03  0.78432608500E+03  0.00000000000E+00 0. -1.
         23    2    1    2    0    0 -0.23679423894E+03  0.14763807406E+02  0.13373660093E+03  0.28747649243E+03  0.92020506773E+02 0.  0.
        254    2    1    2    0    0  0.23679423894E+03 -0.14763807406E+02 -0.39878895701E+03  0.10161233215E+04  0.90398257208E+03 0.  0.
         23    2    4    4    0    0 -0.18499809763E+03 -0.14814871354E+03  0.15932023694E+03  0.29810855483E+03  0.85518624364E+02 0.  0.
         23    2    4    4    0    0  0.42179233657E+03  0.13338490613E+03 -0.55810919396E+03  0.71801476666E+03  0.91427700323E+02 0.  0.
         13    1    3    3    0    0 -0.22993126718E+03  0.92993554746E+01  0.14590465837E+03  0.27247575117E+03  0.00000000000E+00 0.  1.
        -13    1    3    3    0    0 -0.68629717558E+01  0.54644519317E+01 -0.12168057446E+02  0.15000741257E+02  0.00000000000E+00 0. -1.
          4    1    5    5  502    0 -0.11566461535E+03 -0.13048012202E+03  0.81747441706E+02  0.19257728244E+03  0.00000000000E+00 0. -1.
          1    1    6    6  503    0  0.28582787120E+03  0.91982888988E+02 -0.30670287012E+03  0.42921448527E+03  0.00000000000E+00 0. -1.
         -4    1    5    5    0  502 -0.69333482275E+02 -0.17668591518E+02  0.77572795239E+02  0.10553127239E+03  0.00000000000E+00 0.  1.
         -1    1    6    6    0  503  0.13596446537E+03  0.41402017141E+02 -0.25140632384E+03  0.28880028139E+03  0.00000000000E+00 0.  1.
<mgrwt>
<rscale>  0 0.12763697E+04</rscale>
<asrwt>0</asrwt>
<pdfrwt beam="1">  1        1 0.12066555E+00 0.12763697E+04</pdfrwt>
<pdfrwt beam="2">  1       -1 0.79888266E-01 0.12763697E+04</pdfrwt>
<totfact> 0.35157798E+01</totfact>
</mgrwt>
</event>
<event>
12    1  0.4802930E-008  0.1217782E+04  0.7818608E-02  0.9097433E-01
         -2   -1    0    0    0  501 -0.00000000000E+00  0.00000000000E+00  0.28220765759E+03  0.28220765759E+03  0.00000000000E+00 0.  1.
          2   -1    0    0  501    0  0.00000000000E+00 -0.00000000000E+00 -0.13137418676E+04  0.13137418676E+04  0.00000000000E+00 0. -1.
         23    2    1    2    0    0 -0.10650185143E+03  0.16635951623E+03 -0.50134499292E+01  0.21825568827E+03  0.92694540211E+02 0.  0.
        254    2    1    2    0    0  0.10650185143E+03 -0.16635951623E+03 -0.10265207601E+04  0.13776938369E+04  0.89737244463E+03 0.  0.
         23    2    4    4    0    0  0.44863371943E+03 -0.14352515605E+03 -0.86160828820E+03  0.98621347737E+03  0.91523199397E+02 0.  0.
         23    2    4    4    0    0 -0.34213186799E+03 -0.22834360179E+02 -0.16491247189E+03  0.39148035954E+03  0.92114740533E+02 0.  0.
         13    1    3    3    0    0 -0.70641923527E+02  0.29808282262E+02 -0.76125752920E+01  0.77050414364E+02  0.00000000000E+00 0. -1.
        -13    1    3    3    0    0 -0.35859927906E+02  0.13655123397E+03  0.25991253628E+01  0.14120527391E+03  0.00000000000E+00 0.  1.
          2    1    5    5  502    0  0.40268307073E+03 -0.14689195027E+03 -0.81400639191E+03  0.91996592685E+03  0.00000000000E+00 0. -1.
          3    1    6    6  503    0 -0.15213051266E+03  0.24949202277E+02 -0.40485548814E+02  0.15939019807E+03  0.00000000000E+00 0. -1.
         -2    1    5    5    0  502  0.45950648692E+02  0.33667942198E+01 -0.47601896290E+02  0.66247550513E+02  0.00000000000E+00 0.  1.
         -3    1    6    6    0  503 -0.19000135533E+03 -0.47783562456E+02 -0.12442692307E+03  0.23209016147E+03  0.00000000000E+00 0.  1.
<mgrwt>
<rscale>  0 0.12177816E+04</rscale>
<asrwt>0</asrwt>
<pdfrwt beam="1">  1        2 0.20211413E+00 0.12177816E+04</pdfrwt>
<pdfrwt beam="2">  1       -2 0.43416563E-01 0.12177816E+04</pdfrwt>
<totfact> 0.80422029E+01</totfact>
</mgrwt>
</event>
<event>
12    1  0.4802930E-008  0.1529341E+04  0.7818608E-02  0.8865173E-01
         -2   -1    0    0    0  501 -0.00000000000E+00  0.00000000000E+00  0.21132412828E+03  0.21132412828E+03  0.00000000000E+00 0.  1.
          2   -1    0    0  501    0  0.00000000000E+00 -0.00000000000E+00 -0.27669391414E+04  0.27669391414E+04  0.00000000000E+00 0. -1.
         23    2    1    2    0    0 -0.29480114476E+03  0.13142443910E+03 -0.10193450523E+03  0.34830074169E+03  0.82113733082E+02 0.  0.
        254    2    1    2    0    0  0.29480114476E+03 -0.13142443910E+03 -0.24536805079E+04  0.26299625280E+04  0.88992964086E+03 0.  0.
         23    2    4    4    0    0  0.16445679412E+03 -0.78575244642E+02 -0.24525701495E+04  0.24611220033E+04  0.93814021969E+02 0.  0.
         23    2    4    4    0    0  0.13034435064E+03 -0.52849194458E+02 -0.11103583933E+01  0.16884052469E+03  0.93398087690E+02 0.  0.
         11    1    3    3    0    0 -0.77142732680E+02  0.44655198828E+02  0.79680595635E+01  0.89490658512E+02  0.00000000000E+00 0.  1.
        -11    1    3    3    0    0 -0.21765841208E+03  0.86769240271E+02 -0.10990256479E+03  0.25881008318E+03  0.00000000000E+00 0. -1.
          3    1    6    6  502    0  0.87483245209E+02 -0.78221406131E+02 -0.11647165703E+02  0.11793033129E+03  0.00000000000E+00 0. -1.
          3    1    5    5  503    0  0.15001089256E+02  0.23935326536E+01 -0.43755101178E+02  0.46317065499E+02  0.00000000000E+00 0. -1.
         -3    1    5    5    0  503  0.14945570487E+03 -0.80968777295E+02 -0.24088150483E+04  0.24148049378E+04  0.00000000000E+00 0.  1.
         -3    1    6    6    0  502  0.42861105432E+02  0.25372211673E+02  0.10536807309E+02  0.50910193403E+02  0.00000000000E+00 0.  1.
<mgrwt>
<rscale>  0 0.15293410E+04</rscale>
<asrwt>0</asrwt>
<pdfrwt beam="1">  1        2 0.42568297E+00 0.15293410E+04</pdfrwt>
<pdfrwt beam="2">  1       -2 0.32511402E-01 0.15293410E+04</pdfrwt>
<totfact> 0.20673249E+01</totfact>
</mgrwt>
</event>
<event>
12    1  0.4802930E-008  0.1601198E+04  0.7818608E-02  0.8819812E-01
          1   -1    0    0  501    0  0.00000000000E+00  0.00000000000E+00  0.24512576858E+04  0.24512576858E+04  0.00000000000E+00 0. -1.
         -1   -1    0    0    0  501 -0.00000000000E+00 -0.00000000000E+00 -0.26148158298E+03  0.26148158298E+03  0.00000000000E+00 0.  1.
         23    2    1    2    0    0 -0.58970148989E+02 -0.11916245228E+03  0.16368933418E+04  0.16453131140E+04  0.99791092921E+02 0.  0.
        254    2    1    2    0    0  0.58970148989E+02  0.11916245228E+03  0.55288276108E+03  0.10674261548E+04  0.90335047462E+03 0.  0.
         23    2    4    4    0    0  0.25307390034E+03  0.33650079442E+03 -0.56158824301E+01  0.43108718536E+03  0.92333306923E+02 0.  0.
         23    2    4    4    0    0 -0.19410375135E+03 -0.21733834214E+03  0.55849864351E+03  0.63633896946E+03  0.89968483351E+02 0.  0.
         13    1    3    3    0    0  0.11641258133E+02  0.10016636350E+02  0.78970828119E+02  0.80450255366E+02  0.00000000000E+00 0.  1.
        -13    1    3    3    0    0 -0.70611407121E+02 -0.12917908863E+03  0.15579225136E+04  0.15648628586E+04  0.00000000000E+00 0. -1.
          1    1    5    5  502    0  0.19210250729E+03  0.22367331099E+03 -0.41896750242E+02  0.29780607958E+03  0.00000000000E+00 0. -1.
          3    1    6    6  503    0 -0.13051200953E+03 -0.12834275777E+03  0.43156728210E+03  0.46878093720E+03  0.00000000000E+00 0. -1.
         -1    1    5    5    0  502  0.60971393050E+02  0.11282748344E+03  0.36280867812E+02  0.13328110578E+03  0.00000000000E+00 0.  1.
         -3    1    6    6    0  503 -0.63591741819E+02 -0.88995584370E+02  0.12693136142E+03  0.16755803226E+03  0.00000000000E+00 0.  1.
<mgrwt>
<rscale>  0 0.16011980E+04</rscale>
<asrwt>0</asrwt>
<pdfrwt beam="1">  1        1 0.37711655E+00 0.16011980E+04</pdfrwt>
<pdfrwt beam="2">  1       -1 0.40227938E-01 0.16011980E+04</pdfrwt>
<totfact> 0.84839417E+00</totfact>
</mgrwt>
</event>
<event>
12    1  0.4802930E-008  0.1636047E+04  0.7818608E-02  0.8798704E-01
         -2   -1    0    0    0  501 -0.00000000000E+00  0.00000000000E+00  0.32973178750E+03  0.32973178750E+03  0.00000000000E+00 0.  1.
          2   -1    0    0  501    0  0.00000000000E+00 -0.00000000000E+00 -0.20294156425E+04  0.20294156425E+04  0.00000000000E+00 0. -1.
         23    2    1    2    0    0  0.48927252409E+03  0.28500715579E+03 -0.58292471773E+03  0.81806679168E+03  0.93890188128E+02 0.  0.
        254    2    1    2    0    0 -0.48927252409E+03 -0.28500715579E+03 -0.11167591373E+04  0.15410806383E+04  0.89842188391E+03 0.  0.
         23    2    4    4    0    0 -0.50536124859E+03  0.20442911689E+03 -0.47813825372E+03  0.73122438447E+03  0.94295574438E+02 0.  0.
         23    2    4    4    0    0  0.16088724502E+02 -0.48943627268E+03 -0.63862088355E+03  0.80985625386E+03  0.90685207962E+02 0.  0.
         13    1    3    3    0    0  0.26234462761E+02  0.33339021014E+01 -0.72842220361E+01  0.27430308606E+02  0.00000000000E+00 0.  1.
        -13    1    3    3    0    0  0.46303806133E+03  0.28167325369E+03 -0.57564049569E+03  0.79063648307E+03  0.00000000000E+00 0. -1.
          4    1    5    5  502    0 -0.10168929648E+03  0.31675093621E+01 -0.99510001647E+02  0.14231298803E+03  0.00000000000E+00 0. -1.
          3    1    6    6  503    0  0.41502483559E+02 -0.41402973362E+03 -0.50510906957E+03  0.65442971251E+03  0.00000000000E+00 0. -1.
         -4    1    5    5    0  502 -0.40367195211E+03  0.20126160753E+03 -0.37862825208E+03  0.58891139644E+03  0.00000000000E+00 0.  1.
         -3    1    6    6    0  503 -0.25413759057E+02 -0.75406539060E+02 -0.13351181398E+03  0.15542654135E+03  0.00000000000E+00 0.  1.
<mgrwt>
<rscale>  0 0.16360475E+04</rscale>
<asrwt>0</asrwt>
<pdfrwt beam="1">  1        2 0.31221778E+00 0.16360475E+04</pdfrwt>
<pdfrwt beam="2">  1       -2 0.50727969E-01 0.16360475E+04</pdfrwt>
<totfact> 0.22609925E+01</totfact>
</mgrwt>
</event>
<event>
12    1  0.4802930E-008  0.1713834E+04  0.7818608E-02  0.8753513E-01
         -1   -1    0    0    0  501 -0.00000000000E+00  0.00000000000E+00  0.76201984970E+03  0.76201984970E+03  0.00000000000E+00 0.  1.
          1   -1    0    0  501    0  0.00000000000E+00 -0.00000000000E+00 -0.96363193800E+03  0.96363193800E+03  0.00000000000E+00 0. -1.
         23    2    1    2    0    0 -0.70138080479E+02 -0.48920151461E+03  0.28160509558E+03  0.57601825973E+03  0.90874272829E+02 0.  0.
        254    2    1    2    0    0  0.70138080479E+02  0.48920151461E+03 -0.48321718388E+03  0.11496335280E+04  0.91865169113E+03 0.  0.
         23    2    4    4    0    0 -0.23299733375E+03  0.42271197575E+03 -0.62582641944E+03  0.79551736385E+03  0.90642136625E+02 0.  0.
         23    2    4    4    0    0  0.30313541423E+03  0.66489538856E+02  0.14260923556E+03  0.35411616412E+03  0.93535690976E+02 0.  0.
         13    1    3    3    0    0  0.10672992345E+02 -0.27430225083E+02  0.56074947178E+00  0.29438825617E+02  0.00000000000E+00 0. -1.
        -13    1    3    3    0    0 -0.80811072825E+02 -0.46177128953E+03  0.28104434611E+03  0.54657943412E+03  0.00000000000E+00 0.  1.
          1    1    6    6  502    0  0.23741502115E+03  0.90616027763E+02  0.11134934547E+03  0.27744519007E+03  0.00000000000E+00 0. -1.
          1    1    5    5  503    0 -0.15768724267E+03  0.22125930068E+03 -0.40109244295E+03  0.48445442761E+03  0.00000000000E+00 0. -1.
         -1    1    5    5    0  503 -0.75310091087E+02  0.20145267507E+03 -0.22473397650E+03  0.31106293624E+03  0.00000000000E+00 0.  1.
         -1    1    6    6    0  502  0.65720393079E+02 -0.24126488908E+02  0.31259890089E+02  0.76670974051E+02  0.00000000000E+00 0.  1.
<mgrwt>
<rscale>  0 0.17138339E+04</rscale>
<asrwt>0</asrwt>
<pdfrwt beam="1">  1        1 0.14825107E+00 0.17138339E+04</pdfrwt>
<pdfrwt beam="2">  1       -1 0.11723382E+00 0.17138339E+04</pdfrwt>
<totfact> 0.10070447E+01</totfact>
</mgrwt>
</event>
<event>
12    1  0.4802930E-008  0.1921819E+04  0.7818608E-02  0.8644071E-01
         -2   -1    0    0    0  501 -0.00000000000E+00  0.00000000000E+00  0.74552656348E+03  0.74552656348E+03  0.00000000000E+00 0.  1.
          2   -1    0    0  501    0  0.00000000000E+00 -0.00000000000E+00 -0.12385160707E+04  0.12385160707E+04  0.00000000000E+00 0. -1.
         23    2    1    2    0    0  0.34113465258E+03 -0.62722935974E+03 -0.42853080773E+03  0.83790630329E+03  0.93052667927E+02 0.  0.
        254    2    1    2    0    0 -0.34113465258E+03  0.62722935974E+03 -0.64458699498E+02  0.11461363309E+04  0.89425054887E+03 0.  0.
         23    2    4    4    0    0  0.18341208372E+03  0.54208727853E+03  0.86899149993E+02  0.58581031883E+03  0.90131334090E+02 0.  0.
         23    2    4    4    0    0 -0.52454673630E+03  0.85142081212E+02 -0.15135784949E+03  0.56032601207E+03  0.93046164027E+02 0.  0.
         13    1    3    3    0    0  0.15182649736E+03 -0.29451999092E+03 -0.14575685712E+03  0.36199222609E+03  0.00000000000E+00 0.  1.
        -13    1    3    3    0    0  0.18930815522E+03 -0.33270936882E+03 -0.28277395061E+03  0.47591407720E+03  0.00000000000E+00 0. -1.
          3    1    6    6  502    0 -0.50566234625E+02 -0.64593681192E+01  0.87389056283E+01  0.51720750113E+02  0.00000000000E+00 0. -1.
          3    1    5    5  503    0  0.10768746283E+03  0.25305200671E+03  0.82010127431E+02  0.28698008424E+03  0.00000000000E+00 0. -1.
         -3    1    5    5    0  503  0.75724620894E+02  0.28903527182E+03  0.48890225626E+01  0.29883023459E+03  0.00000000000E+00 0.  1.
         -3    1    6    6    0  502 -0.47398050168E+03  0.91601449331E+02 -0.16009675512E+03  0.50860526196E+03  0.00000000000E+00 0.  1.
<mgrwt>
<rscale>  0 0.19218185E+04</rscale>
<asrwt>0</asrwt>
<pdfrwt beam="1">  1        2 0.19054093E+00 0.19218185E+04</pdfrwt>
<pdfrwt beam="2">  1       -2 0.11469640E+00 0.19218185E+04</pdfrwt>
<totfact> 0.99705183E+00</totfact>
</mgrwt>
</event>
<event>
12    1  0.4802930E-008  0.2640686E+04  0.7818608E-02  0.8354511E-01
          1   -1    0    0  501    0  0.00000000000E+00  0.00000000000E+00  0.17312010193E+04  0.17312010193E+04  0.00000000000E+00 0. -1.
         -1   -1    0    0    0  501 -0.00000000000E+00 -0.00000000000E+00 -0.10069920778E+04  0.10069920778E+04  0.00000000000E+00 0.  1.
         23    2    1    2    0    0  0.19650818647E+03 -0.58317581838E+03  0.13499723384E+04  0.14864401693E+04  0.91485299532E+02 0.  0.
        254    2    1    2    0    0 -0.19650818647E+03  0.58317581838E+03 -0.62576339688E+03  0.12517529278E+04  0.89252230279E+03 0.  0.
         23    2    4    4    0    0 -0.33749534092E+03  0.92744670995E+02  0.84831948527E+02  0.37216491105E+03  0.93838064678E+02 0.  0.
         23    2    4    4    0    0  0.14098715446E+03  0.49043114738E+03 -0.71059534541E+03  0.87958801679E+03  0.91264704655E+02 0.  0.
         13    1    3    3    0    0  0.17566848291E+03 -0.56965888775E+03  0.13117803428E+04  0.14408810957E+04  0.00000000000E+00 0. -1.
        -13    1    3    3    0    0  0.20839703555E+02 -0.13516930625E+02  0.38191995550E+02  0.45559073541E+02  0.00000000000E+00 0.  1.
          2    1    5    5  502    0 -0.47266237891E+02 -0.15375806154E+02 -0.42730551677E+01  0.49887590238E+02  0.00000000000E+00 0. -1.
          1    1    6    6  503    0  0.12488060603E+02  0.93231341253E+02 -0.80846373632E+02  0.12403294231E+03  0.00000000000E+00 0. -1.
         -2    1    5    5    0  502 -0.29022910303E+03  0.10812047715E+03  0.89105003695E+02  0.32227732081E+03  0.00000000000E+00 0.  1.
         -1    1    6    6    0  503  0.12849909385E+03  0.39719980613E+03 -0.62974897178E+03  0.75555507447E+03  0.00000000000E+00 0.  1.
<mgrwt>
<rscale>  0 0.26406861E+04</rscale>
<asrwt>0</asrwt>
<pdfrwt beam="1">  1        1 0.26633862E+00 0.26406861E+04</pdfrwt>
<pdfrwt beam="2">  1       -1 0.15492186E+00 0.26406861E+04</pdfrwt>
<totfact> 0.12727497E+00</totfact>
</mgrwt>
</event>
<event>
12    1  0.4802930E-008  0.1715928E+04  0.7818608E-02  0.8752332E-01
          3   -1    0    0  501    0  0.00000000000E+00  0.00000000000E+00  0.25722880308E+04  0.25722880308E+04  0.00000000000E+00 0. -1.
         -3   -1    0    0    0  501 -0.00000000000E+00 -0.00000000000E+00 -0.28616639886E+03  0.28616639886E+03  0.00000000000E+00 0.  1.
         23    2    1    2    0    0  0.44718302127E+03 -0.40461561520E+03  0.10194105427E+04  0.11883502799E+04  0.96395449593E+02 0.  0.
        254    2    1    2    0    0 -0.44718302127E+03  0.40461561520E+03  0.12667110893E+04  0.16701041498E+04  0.90609295151E+03 0.  0.
         23    2    4    4    0    0  0.16530796644E+03 -0.12932033634E+03  0.11181544211E+03  0.25548187128E+03  0.93369268490E+02 0.  0.
         23    2    4    4    0    0 -0.61249098771E+03  0.53393595154E+03  0.11548956472E+04  0.14146222785E+04  0.84495115590E+02 0.  0.
         13    1    3    3    0    0  0.41210225810E+03 -0.33503702242E+03  0.91647809864E+03  0.10592498208E+04  0.00000000000E+00 0. -1.
        -13    1    3    3    0    0  0.35080763170E+02 -0.69578592781E+02  0.10293244405E+03  0.12910045916E+03  0.00000000000E+00 0.  1.
          1    1    6    6  502    0 -0.13376856194E+03  0.94120035467E+02  0.28578614287E+03  0.32928153409E+03  0.00000000000E+00 0.  1.
          1    1    5    5  503    0  0.16429187483E+03 -0.89821937862E+02  0.10705069470E+03  0.21568414845E+03  0.00000000000E+00 0. -1.
         -1    1    5    5    0  503  0.10160916065E+01 -0.39498398477E+02  0.47647474132E+01  0.39797722829E+02  0.00000000000E+00 0.  1.
         -1    1    6    6    0  502 -0.47872242577E+03  0.43981591607E+03  0.86910950432E+03  0.10853407444E+04  0.00000000000E+00 0. -1.
<mgrwt>
<rscale>  0 0.17159282E+04</rscale>
<asrwt>0</asrwt>
<pdfrwt beam="1">  1        3 0.39573661E+00 0.17159282E+04</pdfrwt>
<pdfrwt beam="2">  1       -3 0.44025601E-01 0.17159282E+04</pdfrwt>
<totfact> 0.15064708E-01</totfact>
</mgrwt>
</event>
<event>
12    1  0.4802930E-008  0.2592143E+04  0.7818608E-02  0.8370875E-01
         -2   -1    0    0    0  501 -0.00000000000E+00  0.00000000000E+00  0.74669853754E+03  0.74669853754E+03  0.00000000000E+00 0. -1.
          2   -1    0    0  501    0  0.00000000000E+00 -0.00000000000E+00 -0.22496386595E+04  0.22496386595E+04  0.00000000000E+00 0.  1.
         23    2    1    2    0    0  0.10124422530E+04 -0.36449572047E+03 -0.39544105568E+03  0.11501383147E+04  0.92455765246E+02 0.  0.
        254    2    1    2    0    0 -0.10124422530E+04  0.36449572047E+03 -0.11074990662E+04  0.18461988823E+04  0.10119286959E+04 0.  0.
         23    2    4    4    0    0 -0.29376232824E+03 -0.69114656885E+02  0.13600075385E+03  0.34321777812E+03  0.90714369771E+02 0.  0.
         23    2    4    4    0    0 -0.71867992472E+03  0.43361037736E+03 -0.12434998201E+04  0.15029811042E+04  0.90230834485E+02 0.  0.
         13    1    3    3    0    0  0.89592701569E+03 -0.33828242088E+03 -0.37744997564E+03  0.10293632487E+04  0.00000000000E+00 0. -1.
        -13    1    3    3    0    0  0.11651523727E+03 -0.26213299590E+02 -0.17991080036E+02  0.12077506594E+03  0.00000000000E+00 0.  1.
          2    1    5    5  502    0 -0.19709547353E+03 -0.29818479365E+02  0.13143408713E+03  0.23876910742E+03  0.00000000000E+00 0. -1.
          3    1    6    6  503    0 -0.36212735365E+03  0.16740468438E+03 -0.56867154494E+03  0.69465665954E+03  0.00000000000E+00 0. -1.
         -2    1    5    5    0  502 -0.96666854711E+02 -0.39296177520E+02  0.45666667225E+01  0.10444867071E+03  0.00000000000E+00 0.  1.
         -3    1    6    6    0  503 -0.35655257107E+03  0.26620569298E+03 -0.67482827516E+03  0.80832444468E+03  0.00000000000E+00 0.  1.
<mgrwt>
<rscale>  0 0.25921434E+04</rscale>
<asrwt>0</asrwt>
<pdfrwt beam="1">  1        2 0.34609825E+00 0.25921434E+04</pdfrwt>
<pdfrwt beam="2">  1       -2 0.11487670E+00 0.25921434E+04</pdfrwt>
<totfact> 0.25331318E+00</totfact>
</mgrwt>
</event>
<event>
12    1  0.4802930E-008  0.1432597E+04  0.7818608E-02  0.8930555E-01
          2   -1    0    0  501    0  0.00000000000E+00  0.00000000000E+00  0.65635449091E+03  0.65635449091E+03  0.00000000000E+00 0. -1.
         -2   -1    0    0    0  501 -0.00000000000E+00 -0.00000000000E+00 -0.78171758653E+03  0.78171758653E+03  0.00000000000E+00 0.  1.
         23    2    1    2    0    0 -0.13002525001E+03 -0.28717236145E+03  0.23216958846E+03  0.40188422841E+03  0.90739651870E+02 0.  0.
        254    2    1    2    0    0  0.13002525001E+03  0.28717236145E+03 -0.35753268407E+03  0.10361878490E+04  0.92004407909E+03 0.  0.
         23    2    4    4    0    0  0.38939431830E+03  0.16695469000E+03 -0.53356625238E+03  0.68831325688E+03  0.97879468129E+02 0.  0.
         23    2    4    4    0    0 -0.25936906829E+03  0.12021767145E+03  0.17603356831E+03  0.34787459214E+03  0.91128001029E+02 0.  0.
         11    1    3    3    0    0 -0.11945737491E+03 -0.25259794324E+03  0.23570550531E+03  0.36555829984E+03  0.00000000000E+00 0.  1.
        -11    1    3    3    0    0 -0.10567875096E+02 -0.34574418204E+02 -0.35359168525E+01  0.36325928566E+02  0.00000000000E+00 0. -1.
          1    1    5    5  502    0  0.20513003930E+03  0.39272676449E+02 -0.28869789148E+03  0.35632449914E+03  0.00000000000E+00 0. -1.
          1    1    6    6  503    0 -0.23553070862E+03  0.10441105563E+03  0.18580654389E+03  0.31764831967E+03  0.00000000000E+00 0. -1.
         -1    1    5    5    0  502  0.18426427900E+03  0.12768201355E+03 -0.24486836090E+03  0.33198875774E+03  0.00000000000E+00 0.  1.
         -1    1    6    6    0  503 -0.23838359674E+02  0.15806615823E+02 -0.97729755803E+01  0.30226272470E+02  0.00000000000E+00 0.  1.
<mgrwt>
<rscale>  0 0.14325974E+04</rscale>
<asrwt>0</asrwt>
<pdfrwt beam="1">  1        2 0.10097761E+00 0.14325974E+04</pdfrwt>
<pdfrwt beam="2">  1       -2 0.12026424E+00 0.14325974E+04</pdfrwt>
<totfact> 0.22775881E+01</totfact>
</mgrwt>
</event>
<event>
12    1  0.4802930E-008  0.3557605E+04  0.7818608E-02  0.8100272E-01
         -2   -1    0    0    0  501 -0.00000000000E+00  0.00000000000E+00  0.94691531384E+03  0.94691531384E+03  0.00000000000E+00 0.  1.
          2   -1    0    0  501    0  0.00000000000E+00 -0.00000000000E+00 -0.33415216418E+04  0.33415216418E+04  0.00000000000E+00 0. -1.
         23    2    1    2    0    0  0.99077664514E+03 -0.11776346799E+04 -0.36083321461E+03  0.15832765381E+04  0.90012151015E+02 0.  0.
        254    2    1    2    0    0 -0.99077664514E+03  0.11776346799E+04 -0.20337731134E+04  0.27051604176E+04  0.90177492105E+03 0.  0.
         23    2    4    4    0    0 -0.20620162746E+03  0.92416061429E+03 -0.10067910670E+04  0.13850517082E+04  0.90266437307E+02 0.  0.
         23    2    4    4    0    0 -0.78457501768E+03  0.25347406565E+03 -0.10269820464E+04  0.13201087094E+04  0.90486576939E+02 0.  0.
         13    1    3    3    0    0  0.46551313448E+03 -0.60530674884E+03 -0.14797904084E+03  0.77781523197E+03  0.00000000000E+00 0. -1.
        -13    1    3    3    0    0  0.52526351066E+03 -0.57232793110E+03 -0.21285417377E+03  0.80546130611E+03  0.00000000000E+00 0.  1.
          2    1    5    5  502    0 -0.19647053968E+03  0.91868658542E+03 -0.98924816006E+03  0.13642571742E+04  0.00000000000E+00 0. -1.
          1    1    6    6  503    0 -0.74393357505E+03  0.22018079326E+03 -0.94416204327E+03  0.12220305683E+04  0.00000000000E+00 0. -1.
         -2    1    5    5    0  502 -0.97310877816E+01  0.54740288703E+01 -0.17542906901E+02  0.20794533994E+02  0.00000000000E+00 0.  1.
         -1    1    6    6    0  503 -0.40641442631E+02  0.33293272388E+02 -0.82820003152E+02  0.98078141130E+02  0.00000000000E+00 0.  1.
<mgrwt>
<rscale>  0 0.35576048E+04</rscale>
<asrwt>0</asrwt>
<pdfrwt beam="1">  1        2 0.51408024E+00 0.35576048E+04</pdfrwt>
<pdfrwt beam="2">  1       -2 0.14567928E+00 0.35576048E+04</pdfrwt>
<totfact> 0.27617492E-01</totfact>
</mgrwt>
</event>
<event>
12    1  0.4802930E-008  0.3049438E+04  0.7818608E-02  0.8229753E-01
         -2   -1    0    0    0  501 -0.00000000000E+00  0.00000000000E+00  0.66373099295E+03  0.66373099295E+03  0.00000000000E+00 0.  1.
          2   -1    0    0  501    0  0.00000000000E+00 -0.00000000000E+00 -0.35025753444E+04  0.35025753444E+04  0.00000000000E+00 0. -1.
         23    2    1    2    0    0 -0.10353367067E+04  0.34387513662E+03 -0.24703563521E+04  0.27020832667E+04  0.91767465025E+02 0.  0.
        254    2    1    2    0    0  0.10353367067E+04 -0.34387513662E+03 -0.36848799934E+03  0.14642230707E+04  0.90442998028E+03 0.  0.
         23    2    4    4    0    0  0.70252016313E+03 -0.36529262630E+03 -0.64229941016E+03  0.10233841625E+04  0.88279835049E+02 0.  0.
         23    2    4    4    0    0  0.33281654360E+03  0.21417489677E+02  0.27381141082E+03  0.44083890823E+03  0.90225793191E+02 0.  0.
         11    1    3    3    0    0 -0.71454862926E+03  0.21441498559E+03 -0.15946934888E+04  0.17605683323E+04  0.00000000000E+00 0. -1.
        -11    1    3    3    0    0 -0.32078807746E+03  0.12946015103E+03 -0.87566286336E+03  0.94151493436E+03  0.00000000000E+00 0.  1.
          3    1    6    6  502    0  0.21518493198E+03 -0.29667663612E+02  0.16943217347E+03  0.27548500254E+03  0.00000000000E+00 0. -1.
          3    1    5    5  503    0  0.18360036140E+03 -0.54285283486E+02 -0.16617422084E+03  0.25351500228E+03  0.00000000000E+00 0. -1.
         -3    1    5    5    0  503  0.51891980173E+03 -0.31100734281E+03 -0.47612518931E+03  0.76986916019E+03  0.00000000000E+00 0.  1.
         -3    1    6    6    0  502  0.11763161162E+03  0.51085153289E+02  0.10437923735E+03  0.16535390569E+03  0.00000000000E+00 0.  1.
<mgrwt>
<rscale>  0 0.30494379E+04</rscale>
<asrwt>0</asrwt>
<pdfrwt beam="1">  1        2 0.53885774E+00 0.30494379E+04</pdfrwt>
<pdfrwt beam="2">  1       -2 0.10211246E+00 0.30494379E+04</pdfrwt>
<totfact> 0.54192817E-01</totfact>
</mgrwt>
</event>
<event>
12    1  0.4802930E-008  0.1531435E+04  0.7818608E-02  0.8863814E-01
          2   -1    0    0  501    0  0.00000000000E+00  0.00000000000E+00  0.14404161833E+04  0.14404161833E+04  0.00000000000E+00 0. -1.
         -2   -1    0    0    0  501 -0.00000000000E+00 -0.00000000000E+00 -0.40705108443E+03  0.40705108443E+03  0.00000000000E+00 0.  1.
         23    2    1    2    0    0 -0.20701596415E+03  0.45103272152E+03  0.27150977206E+03  0.57276442149E+03  0.89751885197E+02 0.  0.
        254    2    1    2    0    0  0.20701596415E+03 -0.45103272152E+03  0.76185532678E+03  0.12747028462E+04  0.89339671028E+03 0.  0.
         23    2    4    4    0    0  0.89689442405E+02 -0.15736566543E+03 -0.18425096794E+03  0.27298452256E+03  0.88113458856E+02 0.  0.
         23    2    4    4    0    0  0.11732652174E+03 -0.29366705609E+03  0.94610629472E+03  0.10017183237E+04  0.91195540093E+02 0.  0.
         13    1    3    3    0    0 -0.48029903460E+02  0.63642664991E+02  0.77743345879E+02  0.11136107157E+03  0.00000000000E+00 0.  1.
        -13    1    3    3    0    0 -0.15898606069E+03  0.38739005653E+03  0.19376642618E+03  0.46140334991E+03  0.00000000000E+00 0. -1.
          2    1    5    5  502    0 -0.68831679691E+01 -0.15087885738E+01 -0.37445287695E+02  0.38102546041E+02  0.00000000000E+00 0. -1.
          3    1    6    6  503    0  0.11364089781E+03 -0.29466370033E+03  0.87055653703E+03  0.92607215383E+03  0.00000000000E+00 0. -1.
         -2    1    5    5    0  502  0.96572610374E+02 -0.15585687686E+03 -0.14680568025E+03  0.23488197651E+03  0.00000000000E+00 0.  1.
         -3    1    6    6    0  503  0.36856239278E+01  0.99664423834E+00  0.75549757691E+02  0.75646169835E+02  0.00000000000E+00 0.  1.
<mgrwt>
<rscale>  0 0.15314346E+04</rscale>
<asrwt>0</asrwt>
<pdfrwt beam="1">  1        2 0.22160249E+00 0.15314346E+04</pdfrwt>
<pdfrwt beam="2">  1       -2 0.62623244E-01 0.15314346E+04</pdfrwt>
<totfact> 0.31272728E+01</totfact>
</mgrwt>
</event>
<event>
12    1  0.4802930E-008  0.1056407E+04  0.7818608E-02  0.9248754E-01
         -2   -1    0    0    0  501 -0.00000000000E+00  0.00000000000E+00  0.10571759502E+03  0.10571759502E+03  0.00000000000E+00 0.  1.
          2   -1    0    0  501    0  0.00000000000E+00 -0.00000000000E+00 -0.26390956462E+04  0.26390956462E+04  0.00000000000E+00 0. -1.
         23    2    1    2    0    0 -0.11817295414E+02 -0.38514717618E+02 -0.13400869155E+03  0.18358467577E+03  0.11883590292E+03 0.  0.
        254    2    1    2    0    0  0.11817295414E+02  0.38514717618E+02 -0.23993693596E+04  0.25612285655E+04  0.89515105353E+03 0.  0.
         23    2    4    4    0    0 -0.17236996072E+03  0.30253660557E+03 -0.20343813388E+04  0.20659716948E+04  0.91059381271E+02 0.  0.
         23    2    4    4    0    0  0.18418725613E+03 -0.26402188795E+03 -0.36498802081E+03  0.49525687065E+03  0.91818353025E+02 0.  0.
         11    1    3    3    0    0  0.53223276896E+02 -0.11725121693E+02 -0.49417997007E+02  0.73568567408E+02  0.00000000000E+00 0.  1.
        -11    1    3    3    0    0 -0.65040572309E+02 -0.26789595925E+02 -0.84590694545E+02  0.11001610836E+03  0.00000000000E+00 0. -1.
          2    1    5    5  502    0 -0.55683119711E+02  0.11948823343E+03 -0.10298566940E+04  0.10382595330E+04  0.00000000000E+00 0. -1.
          4    1    6    6  503    0  0.28403151601E+00 -0.70126934637E+01  0.50404027810E+01  0.86408450809E+01  0.00000000000E+00 0. -1.
         -2    1    5    5    0  502 -0.11668684101E+03  0.18304837214E+03 -0.10045246449E+04  0.10277121618E+04  0.00000000000E+00 0.  1.
         -4    1    6    6    0  503  0.18390322462E+03 -0.25700919449E+03 -0.37002842359E+03  0.48661602557E+03  0.00000000000E+00 0.  1.
<mgrwt>
<rscale>  0 0.10564068E+04</rscale>
<asrwt>0</asrwt>
<pdfrwt beam="1">  1        2 0.40601471E+00 0.10564068E+04</pdfrwt>
<pdfrwt beam="2">  1       -2 0.16264246E-01 0.10564068E+04</pdfrwt>
<totfact> 0.89023596E+01</totfact>
</mgrwt>
</event>
<event>
12    1  0.4802930E-008  0.1672327E+04  0.7818608E-02  0.8777307E-01
         -1   -1    0    0    0  501 -0.00000000000E+00  0.00000000000E+00  0.62183686773E+03  0.62183686773E+03  0.00000000000E+00 0.  1.
          1   -1    0    0  501    0  0.00000000000E+00 -0.00000000000E+00 -0.11243611675E+04  0.11243611675E+04  0.00000000000E+00 0. -1.
         23    2    1    2    0    0 -0.52028794514E+03  0.26234981388E+03 -0.27898845735E+03  0.65267781955E+03  0.92880601289E+02 0.  0.
        254    2    1    2    0    0  0.52028794514E+03 -0.26234981388E+03 -0.22353584242E+03  0.10935202157E+04  0.89793720190E+03 0.  0.
         23    2    4    4    0    0  0.27567509666E+03 -0.53897245485E+03 -0.33176984383E+03  0.69619060962E+03  0.90122525660E+02 0.  0.
         23    2    4    4    0    0  0.24461284847E+03  0.27662264097E+03  0.10823400141E+03  0.39732960606E+03  0.98998412391E+02 0.  0.
         11    1    3    3    0    0 -0.31520270338E+03  0.14481660670E+03 -0.11682419025E+03  0.36602252010E+03  0.00000000000E+00 0. -1.
        -11    1    3    3    0    0 -0.20508524176E+03  0.11753320718E+03 -0.16216426710E+03  0.28665529945E+03  0.00000000000E+00 0.  1.
          4    1    5    5  502    0  0.18165603454E+03 -0.26059032693E+03 -0.18729751052E+03  0.36876359747E+03  0.00000000000E+00 0. -1.
          1    1    6    6  503    0  0.18410530462E+01  0.30479746132E+02  0.30121805068E+02  0.42892045197E+02  0.00000000000E+00 0. -1.
         -4    1    5    5    0  502  0.94019062127E+02 -0.27838212792E+03 -0.14447233332E+03  0.32742701214E+03  0.00000000000E+00 0.  1.
         -1    1    6    6    0  503  0.24277179543E+03  0.24614289484E+03  0.78112196344E+02  0.35443756086E+03  0.00000000000E+00 0.  1.
<mgrwt>
<rscale>  0 0.16723268E+04</rscale>
<asrwt>0</asrwt>
<pdfrwt beam="1">  1        1 0.17297864E+00 0.16723268E+04</pdfrwt>
<pdfrwt beam="2">  1       -1 0.95667211E-01 0.16723268E+04</pdfrwt>
<totfact> 0.12222349E+01</totfact>
</mgrwt>
</event>
<event>
12    1  0.4802930E-008  0.2092975E+04  0.7818608E-02  0.8564344E-01
         -2   -1    0    0    0  501 -0.00000000000E+00  0.00000000000E+00  0.54703084058E+03  0.54703084058E+03  0.00000000000E+00 0.  1.
          2   -1    0    0  501    0  0.00000000000E+00 -0.00000000000E+00 -0.20019648209E+04  0.20019648209E+04  0.00000000000E+00 0. -1.
         23    2    1    2    0    0  0.59539899525E+03 -0.19359716494E+03 -0.12958694330E+04  0.14420421697E+04  0.90709459768E+02 0.  0.
        254    2    1    2    0    0 -0.59539899525E+03  0.19359716494E+03 -0.15906454730E+03  0.11069534917E+04  0.89892417744E+03 0.  0.
         23    2    4    4    0    0 -0.54291415285E+03 -0.27348221140E+03 -0.51087288762E+02  0.61602675802E+03  0.85619847017E+02 0.  0.
         23    2    4    4    0    0 -0.52484842396E+02  0.46707937634E+03 -0.10797725853E+03  0.49092673369E+03  0.91826831615E+02 0.  0.
         13    1    3    3    0    0  0.45692167452E+03 -0.17628891589E+03 -0.94333649742E+03  0.10628917847E+04  0.00000000000E+00 0. -1.
        -13    1    3    3    0    0  0.13847732073E+03 -0.17308249058E+02 -0.35253293558E+03  0.37915038508E+03  0.00000000000E+00 0.  1.
          2    1    5    5  502    0 -0.13410984680E+03 -0.76333337574E+02  0.23460925376E+02  0.15608537553E+03  0.00000000000E+00 0. -1.
          3    1    6    6  503    0 -0.45905370491E+02  0.45391074742E+03 -0.12019807554E+03  0.47179428464E+03  0.00000000000E+00 0. -1.
         -2    1    5    5    0  502 -0.40880430605E+03 -0.19714887383E+03 -0.74548214138E+02  0.45994138249E+03  0.00000000000E+00 0.  1.
         -3    1    6    6    0  503 -0.65794719054E+01  0.13168628927E+02  0.12220817000E+02  0.19132449047E+02  0.00000000000E+00 0.  1.
<mgrwt>
<rscale>  0 0.20929754E+04</rscale>
<asrwt>0</asrwt>
<pdfrwt beam="1">  1        2 0.30799459E+00 0.20929754E+04</pdfrwt>
<pdfrwt beam="2">  1       -2 0.84158590E-01 0.20929754E+04</pdfrwt>
<totfact> 0.75732380E+00</totfact>
</mgrwt>
</event>
<event>
12    1  0.4802930E-008  0.3463790E+04  0.7818608E-02  0.8122425E-01
         -2   -1    0    0    0  501 -0.00000000000E+00  0.00000000000E+00  0.12009212676E+04  0.12009212676E+04  0.00000000000E+00 0.  1.
          2   -1    0    0  501    0  0.00000000000E+00 -0.00000000000E+00 -0.24976328485E+04  0.24976328485E+04  0.00000000000E+00 0. -1.
         23    2    1    2    0    0  0.13147876153E+04 -0.52427918648E+03 -0.14391807685E+04  0.20207291954E+04  0.92574607559E+02 0.  0.
        254    2    1    2    0    0 -0.13147876153E+04  0.52427918648E+03  0.14246918749E+03  0.16778249207E+04  0.88953013245E+03 0.  0.
         23    2    4    4    0    0 -0.63715123468E+03 -0.20115875752E+03  0.41871192359E+02  0.67588011096E+03  0.92920321012E+02 0.  0.
         23    2    4    4    0    0 -0.67763638062E+03  0.72543794399E+03  0.10059799513E+03  0.10019448098E+04  0.91225929914E+02 0.  0.
         11    1    3    3    0    0  0.79324078577E+02 -0.55669467239E+02 -0.10768253085E+03  0.14486865249E+03  0.00000000000E+00 0.  1.
        -11    1    3    3    0    0  0.12354635367E+04 -0.46860971924E+03 -0.13314982376E+04  0.18758605429E+04  0.00000000000E+00 0. -1.
          4    1    5    5  502    0 -0.33227677009E+03 -0.15268788034E+03  0.30880745100E+02  0.36698100927E+03  0.00000000000E+00 0. -1.
          1    1    6    6  503    0 -0.70958415125E+02  0.45849878418E+02 -0.62464465261E+01  0.84713199220E+02  0.00000000000E+00 0. -1.
         -4    1    5    5    0  502 -0.30487446459E+03 -0.48470877172E+02  0.10990447259E+02  0.30889910169E+03  0.00000000000E+00 0.  1.
         -1    1    6    6    0  503 -0.60667796549E+03  0.67958806558E+03  0.10684444166E+03  0.91723161055E+03  0.00000000000E+00 0.  1.
<mgrwt>
<rscale>  0 0.34637901E+04</rscale>
<asrwt>0</asrwt>
<pdfrwt beam="1">  1        2 0.38425121E+00 0.34637901E+04</pdfrwt>
<pdfrwt beam="2">  1       -2 0.18475712E+00 0.34637901E+04</pdfrwt>
<totfact> 0.48399897E-01</totfact>
</mgrwt>
</event>
<event>
12    1  0.4802930E-008  0.1861478E+04  0.7818608E-02  0.8674272E-01
         -3   -1    0    0    0  501 -0.00000000000E+00  0.00000000000E+00  0.38546894455E+03  0.38546894455E+03  0.00000000000E+00 0.  1.
          3   -1    0    0  501    0  0.00000000000E+00 -0.00000000000E+00 -0.22473279961E+04  0.22473279961E+04  0.00000000000E+00 0. -1.
         23    2    1    2    0    0  0.38368617134E+03  0.34794776166E+03 -0.14103523298E+04  0.15071756000E+04  0.11917160774E+03 0.  0.
        254    2    1    2    0    0 -0.38368617134E+03 -0.34794776166E+03 -0.45150672182E+03  0.11256213407E+04  0.89156175330E+03 0.  0.
         23    2    4    4    0    0 -0.66456414098E+03 -0.26300783658E+03 -0.27539582293E+03  0.77145123085E+03  0.92062602187E+02 0.  0.
         23    2    4    4    0    0  0.28087796964E+03 -0.84939925081E+02 -0.17611089889E+03  0.35417010988E+03  0.91182198475E+02 0.  0.
         13    1    3    3    0    0  0.86142947456E+02  0.15199428979E+03 -0.43340644521E+03  0.46729435934E+03  0.00000000000E+00 0.  1.
        -13    1    3    3    0    0  0.29754322388E+03  0.19595347187E+03 -0.97694588457E+03  0.10398812406E+04  0.00000000000E+00 0. -1.
          4    1    5    5  502    0 -0.28907351038E+03 -0.16026613810E+03 -0.14458755107E+03  0.36076902493E+03  0.00000000000E+00 0. -1.
          1    1    6    6  503    0  0.89676213510E+02  0.17303765281E+01 -0.18299751883E+02  0.91540692544E+02  0.00000000000E+00 0. -1.
         -4    1    5    5    0  502 -0.37549063060E+03 -0.10274169848E+03 -0.13080827186E+03  0.41068220592E+03  0.00000000000E+00 0.  1.
         -1    1    6    6    0  503  0.19120175613E+03 -0.86670301610E+02 -0.15781114700E+03  0.26262941733E+03  0.00000000000E+00 0.  1.
<mgrwt>
<rscale>  0 0.18614781E+04</rscale>
<asrwt>0</asrwt>
<pdfrwt beam="1">  1        3 0.34574277E+00 0.18614781E+04</pdfrwt>
<pdfrwt beam="2">  1       -3 0.59302914E-01 0.18614781E+04</pdfrwt>
<totfact> 0.14920129E-01</totfact>
</mgrwt>
</event>
<event>
12    1  0.4802930E-008  0.1356882E+04  0.7818608E-02  0.8985635E-01
          2   -1    0    0  501    0  0.00000000000E+00  0.00000000000E+00  0.91071169738E+03  0.91071169738E+03  0.00000000000E+00 0. -1.
         -2   -1    0    0    0  501 -0.00000000000E+00 -0.00000000000E+00 -0.50540948325E+03  0.50540948325E+03  0.00000000000E+00 0.  1.
         23    2    1    2    0    0 -0.34304194960E+03  0.13661550271E+03  0.20353771431E+03  0.43210755588E+03  0.94592620945E+02 0.  0.
        254    2    1    2    0    0  0.34304194960E+03 -0.13661550271E+03  0.20176449983E+03  0.98401362475E+03  0.88951240887E+03 0.  0.
         23    2    4    4    0    0  0.40154115323E+03 -0.46287516966E+03  0.12356132769E+03  0.63162773156E+03  0.90539875979E+02 0.  0.
         23    2    4    4    0    0 -0.58499203634E+02  0.32625966695E+03  0.78203172137E+02  0.35238589319E+03  0.90512731048E+02 0.  0.
         11    1    3    3    0    0 -0.32268753023E+03  0.13421915239E+03  0.16079224233E+03  0.38470270109E+03  0.00000000000E+00 0.  1.
        -11    1    3    3    0    0 -0.20354419369E+02  0.23963503249E+01  0.42745471983E+02  0.47404854791E+02  0.00000000000E+00 0. -1.
          2    1    5    5  502    0  0.71311810853E+02 -0.45214618439E+02 -0.24759249579E+01  0.84474056917E+02  0.00000000000E+00 0. -1.
          2    1    6    6  503    0 -0.44221559578E+02  0.65372197355E+02  0.39499663727E+02  0.88256976796E+02  0.00000000000E+00 0. -1.
         -2    1    5    5    0  502  0.33022934238E+03 -0.41766055122E+03  0.12603725265E+03  0.54715367464E+03  0.00000000000E+00 0.  1.
         -2    1    6    6    0  503 -0.14277644056E+02  0.26088746960E+03  0.38703508409E+02  0.26412891639E+03  0.00000000000E+00 0.  1.
<mgrwt>
<rscale>  0 0.13568822E+04</rscale>
<asrwt>0</asrwt>
<pdfrwt beam="1">  1        2 0.14010949E+00 0.13568822E+04</pdfrwt>
<pdfrwt beam="2">  1       -2 0.77755306E-01 0.13568822E+04</pdfrwt>
<totfact> 0.41496929E+01</totfact>
</mgrwt>
</event>
<event>
12    1  0.4802930E-008  0.2826279E+04  0.7818608E-02  0.8295156E-01
          2   -1    0    0  501    0  0.00000000000E+00  0.00000000000E+00  0.23996468706E+04  0.23996468706E+04  0.00000000000E+00 0.  1.
         -2   -1    0    0    0  501 -0.00000000000E+00 -0.00000000000E+00 -0.83219070186E+03  0.83219070186E+03  0.00000000000E+00 0. -1.
         23    2    1    2    0    0  0.11949269082E+04  0.36952193730E+03  0.94723252106E+03  0.15717457685E+04  0.93480125623E+02 0.  0.
        254    2    1    2    0    0 -0.11949269082E+04 -0.36952193730E+03  0.62022364773E+03  0.16600918040E+04  0.89823752234E+03 0.  0.
         23    2    4    4    0    0 -0.57000604135E+03 -0.34476779531E+03 -0.12403526300E+03  0.68363168035E+03  0.90530702304E+02 0.  0.
         23    2    4    4    0    0 -0.62492086681E+03 -0.24754141991E+02  0.74425891073E+03  0.97646012365E+03  0.91728891668E+02 0.  0.
         13    1    3    3    0    0  0.10377197828E+04  0.33377325306E+03  0.85973406794E+03  0.13883117804E+04  0.00000000000E+00 0.  1.
        -13    1    3    3    0    0  0.15720712535E+03  0.35748684239E+02  0.87498453113E+02  0.18343398808E+03  0.00000000000E+00 0. -1.
          1    1    6    6  502    0 -0.25133742427E+03  0.28704357660E+02  0.26357185158E+03  0.36532801964E+03  0.00000000000E+00 0. -1.
          1    1    5    5  503    0 -0.13428864130E+03 -0.12004233238E+03 -0.10656918562E+02  0.18043605698E+03  0.00000000000E+00 0. -1.
         -1    1    5    5    0  503 -0.43571740005E+03 -0.22472546293E+03 -0.11337834444E+03  0.50319562337E+03  0.00000000000E+00 0.  1.
         -1    1    6    6    0  502 -0.37358344253E+03 -0.53458499650E+02  0.48068705915E+03  0.61113210402E+03  0.00000000000E+00 0.  1.
<mgrwt>
<rscale>  0 0.28262794E+04</rscale>
<asrwt>0</asrwt>
<pdfrwt beam="1">  1        2 0.36917644E+00 0.28262794E+04</pdfrwt>
<pdfrwt beam="2">  1       -2 0.12802934E+00 0.28262794E+04</pdfrwt>
<totfact> 0.15586906E+00</totfact>
</mgrwt>
</event>
<event>
12    1  0.4802930E-008  0.1395359E+04  0.7818608E-02  0.8957184E-01
          1   -1    0    0  501    0  0.00000000000E+00  0.00000000000E+00  0.33601360147E+04  0.33601360147E+04  0.00000000000E+00 0. -1.
         -1   -1    0    0    0  501 -0.00000000000E+00 -0.00000000000E+00 -0.14486229758E+03  0.14486229758E+03  0.00000000000E+00 0.  1.
         23    2    1    2    0    0  0.12329928121E+03 -0.32801514842E+03  0.14542875204E+04  0.14987394115E+04  0.92037934251E+02 0.  0.
        254    2    1    2    0    0 -0.12329928121E+03  0.32801514842E+03  0.17609861968E+04  0.20062589008E+04  0.89510096719E+03 0.  0.
         23    2    4    4    0    0 -0.46038835945E+03  0.93368278065E+01  0.10609916273E+04  0.11601820231E+04  0.90964144619E+02 0.  0.
         23    2    4    4    0    0  0.33708907824E+03  0.31867832061E+03  0.69999456948E+03  0.84607687772E+03  0.10328972372E+03 0.  0.
         11    1    3    3    0    0 -0.85809213059E+01 -0.51496021197E+01  0.16853675441E+02  0.19600943557E+02  0.00000000000E+00 0.  1.
        -11    1    3    3    0    0  0.13188020251E+03 -0.32286554630E+03  0.14374338449E+04  0.14791384679E+04  0.00000000000E+00 0. -1.
          2    1    6    6  502    0  0.21627053433E+03  0.20882757894E+03  0.53657634880E+03  0.61505778577E+03  0.00000000000E+00 0. -1.
          2    1    5    5  503    0 -0.43141170089E+03  0.27349001979E+02  0.10122254364E+04  0.11006654159E+04  0.00000000000E+00 0.  1.
         -2    1    5    5    0  503 -0.28976658551E+02 -0.18012174173E+02  0.48766190860E+02  0.59516607180E+02  0.00000000000E+00 0. -1.
         -2    1    6    6    0  502  0.12081854391E+03  0.10985074167E+03  0.16341822068E+03  0.23101909196E+03  0.00000000000E+00 0.  1.
<mgrwt>
<rscale>  0 0.13953595E+04</rscale>
<asrwt>0</asrwt>
<pdfrwt beam="1">  1        1 0.51694394E+00 0.13953595E+04</pdfrwt>
<pdfrwt beam="2">  1       -1 0.22286510E-01 0.13953595E+04</pdfrwt>
<totfact> 0.54063728E+00</totfact>
</mgrwt>
</event>
<event>
12    1  0.4802930E-008  0.1618147E+04  0.7818608E-02  0.8809477E-01
         -1   -1    0    0    0  501 -0.00000000000E+00  0.00000000000E+00  0.48389035999E+03  0.48389035999E+03  0.00000000000E+00 0.  1.
          1   -1    0    0  501    0  0.00000000000E+00 -0.00000000000E+00 -0.13527853127E+04  0.13527853127E+04  0.00000000000E+00 0. -1.
         23    2    1    2    0    0  0.14685322270E+03  0.29410752146E+03 -0.80945096468E+03  0.87879471832E+03  0.94890408040E+02 0.  0.
        254    2    1    2    0    0 -0.14685322270E+03 -0.29410752146E+03 -0.59443988014E+02  0.95788095434E+03  0.89774006917E+03 0.  0.
         23    2    4    4    0    0 -0.45021447084E+03 -0.13295184265E+03 -0.26540791227E+03  0.54709850035E+03  0.92228775149E+02 0.  0.
         23    2    4    4    0    0  0.30336124814E+03 -0.16115567881E+03  0.20596392426E+03  0.41078245400E+03  0.91224375750E+02 0.  0.
         11    1    3    3    0    0  0.27994702624E+02  0.33582648646E+02 -0.46266378942E+02  0.63655914772E+02  0.00000000000E+00 0.  1.
        -11    1    3    3    0    0  0.11885852008E+03  0.26052487281E+03 -0.76318458574E+03  0.81513880355E+03  0.00000000000E+00 0. -1.
          1    1    5    5  502    0 -0.14730463678E+03 -0.85570683348E+02 -0.74553970865E+02  0.18595508177E+03  0.00000000000E+00 0. -1.
          3    1    6    6  503    0  0.31684771314E+02 -0.54392064059E+02  0.45621482783E+02  0.77741501511E+02  0.00000000000E+00 0. -1.
         -1    1    5    5    0  502 -0.30290983406E+03 -0.47381159301E+02 -0.19085394141E+03  0.36114341857E+03  0.00000000000E+00 0.  1.
         -3    1    6    6    0  503  0.27167647682E+03 -0.10676361475E+03  0.16034244148E+03  0.33304095248E+03  0.00000000000E+00 0.  1.
<mgrwt>
<rscale>  0 0.16181468E+04</rscale>
<asrwt>0</asrwt>
<pdfrwt beam="1">  1        1 0.20812082E+00 0.16181468E+04</pdfrwt>
<pdfrwt beam="2">  1       -1 0.74444670E-01 0.16181468E+04</pdfrwt>
<totfact> 0.14433195E+01</totfact>
</mgrwt>
</event>
<event>
12    1  0.4802930E-008  0.1913056E+04  0.7818608E-02  0.8648385E-01
         -1   -1    0    0    0  501 -0.00000000000E+00  0.00000000000E+00  0.40424934793E+03  0.40424934793E+03  0.00000000000E+00 0.  1.
          1   -1    0    0  501    0  0.00000000000E+00 -0.00000000000E+00 -0.22633214906E+04  0.22633214906E+04  0.00000000000E+00 0. -1.
         23    2    1    2    0    0  0.30131787535E+02 -0.39170553908E+03 -0.16044021260E+04  0.16539417202E+04  0.84118238204E+02 0.  0.
        254    2    1    2    0    0 -0.30131787535E+02  0.39170553908E+03 -0.25467001667E+03  0.10136291183E+04  0.89902503756E+03 0.  0.
         23    2    4    4    0    0 -0.42988942859E+03  0.16139661745E+03  0.17263345868E+02  0.46846343551E+03  0.91138237640E+02 0.  0.
         23    2    4    4    0    0  0.39975764105E+03  0.23030892163E+03 -0.27193336254E+03  0.54516568281E+03  0.10202694297E+03 0.  0.
         11    1    3    3    0    0 -0.29547940029E+02 -0.13865429710E+03 -0.56176470758E+03  0.57937697706E+03  0.00000000000E+00 0. -1.
        -11    1    3    3    0    0  0.59679727564E+02 -0.25305124198E+03 -0.10426374184E+04  0.10745647432E+04  0.00000000000E+00 0.  1.
          2    1    5    5  502    0 -0.42924090522E+03  0.15623750722E+03  0.26826647821E+02  0.45757795228E+03  0.00000000000E+00 0. -1.
          3    1    6    6  503    0  0.20021034222E+03  0.15671100701E+03 -0.10623248379E+03  0.27555010699E+03  0.00000000000E+00 0. -1.
         -2    1    5    5    0  502 -0.64852336943E+00  0.51591102363E+01 -0.95633019524E+01  0.10885483233E+02  0.00000000000E+00 0.  1.
         -3    1    6    6    0  503  0.19954729883E+03  0.73597914624E+02 -0.16570087875E+03  0.26961557582E+03  0.00000000000E+00 0.  1.
<mgrwt>
<rscale>  0 0.19130564E+04</rscale>
<asrwt>0</asrwt>
<pdfrwt beam="1">  1        1 0.34820331E+00 0.19130564E+04</pdfrwt>
<pdfrwt beam="2">  1       -1 0.62192207E-01 0.19130564E+04</pdfrwt>
<totfact> 0.48342024E+00</totfact>
</mgrwt>
</event>
<event>
12    1  0.4802930E-008  0.1349940E+04  0.7818608E-02  0.8990874E-01
         -2   -1    0    0    0  501 -0.00000000000E+00  0.00000000000E+00  0.11632156818E+04  0.11632156818E+04  0.00000000000E+00 0.  1.
          2   -1    0    0  501    0  0.00000000000E+00 -0.00000000000E+00 -0.39165932893E+03  0.39165932893E+03  0.00000000000E+00 0. -1.
         23    2    1    2    0    0  0.27684992710E+03  0.19537381932E+03  0.40062697989E+03  0.53076812949E+03  0.79975113982E+02 0.  0.
        254    2    1    2    0    0 -0.27684992710E+03 -0.19537381932E+03  0.37092937298E+03  0.10241068812E+04  0.89240657384E+03 0.  0.
         23    2    4    4    0    0 -0.14912925989E+03  0.26579431399E+03  0.42893428931E+03  0.53418641971E+03  0.92110547435E+02 0.  0.
         23    2    4    4    0    0 -0.12772066721E+03 -0.46116813331E+03 -0.58004916328E+02  0.48992046152E+03  0.87572097652E+02 0.  0.
         13    1    3    3    0    0  0.21441373993E+03  0.18781964057E+03  0.32075383347E+03  0.42910661955E+03  0.00000000000E+00 0.  1.
        -13    1    3    3    0    0  0.62436187168E+02  0.75541787517E+01  0.79873146416E+02  0.10166150994E+03  0.00000000000E+00 0. -1.
          1    1    5    5  502    0 -0.29480083175E+02  0.37324457287E+01  0.50231794231E+02  0.58362998610E+02  0.00000000000E+00 0. -1.
          1    1    6    6  503    0 -0.12873392828E+02 -0.20809002055E+03 -0.28937805046E+02  0.21048652559E+03  0.00000000000E+00 0. -1.
         -1    1    5    5    0  502 -0.11964917672E+03  0.26206186826E+03  0.37870249508E+03  0.47582342110E+03  0.00000000000E+00 0.  1.
         -1    1    6    6    0  503 -0.11484727438E+03 -0.25307811276E+03 -0.29067111282E+02  0.27943393593E+03  0.00000000000E+00 0.  1.
<mgrwt>
<rscale>  0 0.13499397E+04</rscale>
<asrwt>0</asrwt>
<pdfrwt beam="1">  1        2 0.60255282E-01 0.13499397E+04</pdfrwt>
<pdfrwt beam="2">  1       -2 0.17895626E+00 0.13499397E+04</pdfrwt>
<totfact> 0.14648075E+01</totfact>
</mgrwt>
</event>
<event>
12    1  0.4802930E-008  0.2171684E+04  0.7818608E-02  0.8530307E-01
          1   -1    0    0  501    0  0.00000000000E+00  0.00000000000E+00  0.19571203089E+04  0.19571203089E+04  0.00000000000E+00 0. -1.
         -1   -1    0    0    0  501 -0.00000000000E+00 -0.00000000000E+00 -0.60244243835E+03  0.60244243835E+03  0.00000000000E+00 0.  1.
         23    2    1    2    0    0  0.36646544932E+03 -0.80299388729E+03  0.75538734768E+03  0.11652688066E+04  0.90250972556E+02 0.  0.
        254    2    1    2    0    0 -0.36646544932E+03  0.80299388729E+03  0.59929052292E+03  0.13942939407E+04  0.89766940106E+03 0.  0.
         23    2    4    4    0    0  0.28773533009E+03  0.30225463445E+03  0.25062460946E+03  0.49507854505E+03  0.90225199780E+02 0.  0.
         23    2    4    4    0    0 -0.65420077941E+03  0.50073925284E+03  0.34866591346E+03  0.89921539564E+03  0.91115034057E+02 0.  0.
         13    1    3    3    0    0  0.32348368498E+02 -0.14383259670E+03  0.14495447695E+03  0.20675113834E+03  0.00000000000E+00 0.  1.
        -13    1    3    3    0    0  0.33411708082E+03 -0.65916129059E+03  0.61043287073E+03  0.95851766827E+03  0.00000000000E+00 0. -1.
          4    1    5    5  502    0  0.25310889496E+02  0.76603195218E+02  0.41843555166E+02  0.90882197121E+02  0.00000000000E+00 0.  1.
          3    1    6    6  503    0 -0.50355357896E+03  0.33471846142E+03  0.25071955545E+03  0.65457081419E+03  0.00000000000E+00 0. -1.
         -4    1    5    5    0  502  0.26242444059E+03  0.22565143923E+03  0.20878105430E+03  0.40419634793E+03  0.00000000000E+00 0. -1.
         -3    1    6    6    0  503 -0.15064720044E+03  0.16602079142E+03  0.97946358007E+02  0.24464458145E+03  0.00000000000E+00 0.  1.
<mgrwt>
<rscale>  0 0.21716835E+04</rscale>
<asrwt>0</asrwt>
<pdfrwt beam="1">  1        1 0.30109543E+00 0.21716835E+04</pdfrwt>
<pdfrwt beam="2">  1       -1 0.92683453E-01 0.21716835E+04</pdfrwt>
<totfact> 0.32953055E+00</totfact>
</mgrwt>
</event>
<event>
12    1  0.4802930E-008  0.1326084E+04  0.7818608E-02  0.9009133E-01
         -1   -1    0    0    0  501 -0.00000000000E+00  0.00000000000E+00  0.56438509416E+03  0.56438509416E+03  0.00000000000E+00 0.  1.
          1   -1    0    0  501    0  0.00000000000E+00 -0.00000000000E+00 -0.77894404000E+03  0.77894404000E+03  0.00000000000E+00 0. -1.
         23    2    1    2    0    0  0.18742126574E+03  0.23375139792E+03  0.11598289955E+03  0.33399959005E+03  0.91308522504E+02 0.  0.
        254    2    1    2    0    0 -0.18742126574E+03 -0.23375139792E+03 -0.33054184539E+03  0.10093295441E+04  0.90538487407E+03 0.  0.
         23    2    4    4    0    0  0.47894111749E+02  0.21408300926E+03 -0.42455905321E+03  0.48654994851E+03  0.91406137298E+02 0.  0.
         23    2    4    4    0    0 -0.23531537749E+03 -0.44783440718E+03  0.94017207818E+02  0.52277959561E+03  0.92359553272E+02 0.  0.
         13    1    3    3    0    0  0.51643673113E+02  0.28818268130E+02  0.54896864232E+02  0.80692175910E+02  0.00000000000E+00 0. -1.
        -13    1    3    3    0    0  0.13577759263E+03  0.20493312979E+03  0.61086035316E+02  0.25330741414E+03  0.00000000000E+00 0.  1.
          2    1    5    5  502    0  0.19967365260E+02 -0.12837937339E+01 -0.27916899060E+02  0.34346718255E+02  0.00000000000E+00 0. -1.
          1    1    6    6  503    0 -0.10775788075E+03 -0.17339138270E+03  0.81705196069E+02  0.21989104466E+03  0.00000000000E+00 0. -1.
         -2    1    5    5    0  502  0.27926746488E+02  0.21536680300E+03 -0.39664215415E+03  0.45220323025E+03  0.00000000000E+00 0.  1.
         -1    1    6    6    0  503 -0.12755749674E+03 -0.27444302448E+03  0.12312011749E+02  0.30288855095E+03  0.00000000000E+00 0.  1.
<mgrwt>
<rscale>  0 0.13260836E+04</rscale>
<asrwt>0</asrwt>
<pdfrwt beam="1">  1        1 0.11983755E+00 0.13260836E+04</pdfrwt>
<pdfrwt beam="2">  1       -1 0.86828475E-01 0.13260836E+04</pdfrwt>
<totfact> 0.29586010E+01</totfact>
</mgrwt>
</event>
<event>
12    1  0.4802930E-008  0.1555959E+04  0.7818608E-02  0.8848071E-01
          2   -1    0    0  501    0  0.00000000000E+00  0.00000000000E+00  0.14797189827E+04  0.14797189827E+04  0.00000000000E+00 0. -1.
         -2   -1    0    0    0  501 -0.00000000000E+00 -0.00000000000E+00 -0.40903157919E+03  0.40903157919E+03  0.00000000000E+00 0.  1.
         23    2    1    2    0    0 -0.10075322494E+03  0.17653108137E+03 -0.21567555366E+03  0.31081712420E+03  0.93685138743E+02 0.  0.
        254    2    1    2    0    0  0.10075322494E+03 -0.17653108137E+03  0.12863629572E+04  0.15779334377E+04  0.89097129087E+03 0.  0.
         23    2    4    4    0    0  0.10616136649E+03  0.12699727236E+03  0.12432387846E+04  0.12574747065E+04  0.90561686671E+02 0.  0.
         23    2    4    4    0    0 -0.54081415484E+01 -0.30352835373E+03  0.43124172539E+02  0.32045873113E+03  0.93141798301E+02 0.  0.
         13    1    3    3    0    0 -0.10966852828E+03  0.15477528767E+03 -0.15244195249E+03  0.24335390822E+03  0.00000000000E+00 0.  1.
        -13    1    3    3    0    0  0.89153033344E+01  0.21755793704E+02 -0.63233601167E+02  0.67463215975E+02  0.00000000000E+00 0. -1.
          2    1    5    5  502    0  0.73899754262E+02  0.11022876955E+03  0.66607123158E+03  0.67916304438E+03  0.00000000000E+00 0. -1.
          4    1    6    6  503    0 -0.53708199041E+01 -0.25061519512E+03 -0.23591407339E+01  0.25068383928E+03  0.00000000000E+00 0. -1.
         -2    1    5    5    0  502  0.32261612230E+02  0.16768502809E+02  0.57716755303E+03  0.57831166216E+03  0.00000000000E+00 0.  1.
         -4    1    6    6    0  503 -0.37321644234E-01 -0.52913158608E+02  0.45483313273E+02  0.69774891853E+02  0.00000000000E+00 0.  1.
<mgrwt>
<rscale>  0 0.15559586E+04</rscale>
<asrwt>0</asrwt>
<pdfrwt beam="1">  1        2 0.22764907E+00 0.15559586E+04</pdfrwt>
<pdfrwt beam="2">  1       -2 0.62927936E-01 0.15559586E+04</pdfrwt>
<totfact> 0.29344711E+01</totfact>
</mgrwt>
</event>
<event>
12    1  0.4802930E-008  0.2236551E+04  0.7818608E-02  0.8503367E-01
         -2   -1    0    0    0  501 -0.00000000000E+00  0.00000000000E+00  0.91822916481E+03  0.91822916481E+03  0.00000000000E+00 0.  1.
          2   -1    0    0  501    0  0.00000000000E+00 -0.00000000000E+00 -0.13619046029E+04  0.13619046029E+04  0.00000000000E+00 0. -1.
         23    2    1    2    0    0  0.77917631268E+03 -0.21789376613E+03  0.29508981970E+03  0.86608347923E+03  0.91810520886E+02 0.  0.
        254    2    1    2    0    0 -0.77917631268E+03  0.21789376613E+03 -0.73876525780E+03  0.14140502885E+04  0.89396347392E+03 0.  0.
         23    2    4    4    0    0 -0.86634344806E+03  0.33884573954E+03 -0.79825483636E+03  0.12291848081E+04  0.91198154438E+02 0.  0.
         23    2    4    4    0    0  0.87167135383E+02 -0.12095197342E+03  0.59489578560E+02  0.18486548044E+03  0.91699217759E+02 0.  0.
         11    1    3    3    0    0  0.33956677532E+03 -0.12081413889E+03  0.90685734051E+02  0.37165246322E+03  0.00000000000E+00 0. -1.
        -11    1    3    3    0    0  0.43960953736E+03 -0.97079627237E+02  0.20440408565E+03  0.49443101601E+03  0.00000000000E+00 0.  1.
          4    1    5    5  502    0 -0.26191046957E+03  0.12076850715E+03 -0.19776037047E+03  0.34970171649E+03  0.00000000000E+00 0. -1.
          1    1    6    6  503    0  0.75280103112E+02 -0.42132537239E+02  0.14803903225E+01  0.86281146111E+02  0.00000000000E+00 0. -1.
         -4    1    5    5    0  502 -0.60443297849E+03  0.21807723239E+03 -0.60049446589E+03  0.87948309156E+03  0.00000000000E+00 0.  1.
         -1    1    6    6    0  503  0.11887032271E+02 -0.78819436178E+02  0.58009188238E+02  0.98584334331E+02  0.00000000000E+00 0.  1.
<mgrwt>
<rscale>  0 0.22365514E+04</rscale>
<asrwt>0</asrwt>
<pdfrwt beam="1">  1        2 0.20952379E+00 0.22365514E+04</pdfrwt>
<pdfrwt beam="2">  1       -2 0.14126602E+00 0.22365514E+04</pdfrwt>
<totfact> 0.48666984E+00</totfact>
</mgrwt>
</event>
<event>
12    1  0.4802930E-008  0.1512057E+04  0.7818608E-02  0.8876475E-01
         -1   -1    0    0    0  501 -0.00000000000E+00  0.00000000000E+00  0.20299973929E+03  0.20299973929E+03  0.00000000000E+00 0.  1.
          1   -1    0    0  501    0  0.00000000000E+00 -0.00000000000E+00 -0.28156636346E+04  0.28156636346E+04  0.00000000000E+00 0. -1.
         23    2    1    2    0    0 -0.34211181466E+02 -0.29564837673E+03 -0.90546841461E+02  0.32466125571E+03  0.92886128442E+02 0.  0.
        254    2    1    2    0    0  0.34211181466E+02  0.29564837673E+03 -0.25221170538E+04  0.26940021182E+04  0.89888520504E+03 0.  0.
         23    2    4    4    0    0 -0.10755400556E+02  0.18495570942E+03 -0.25365324541E+04  0.25446805165E+04  0.84129349156E+02 0.  0.
         23    2    4    4    0    0  0.44966582022E+02  0.11069266731E+03  0.14415400258E+02  0.14932160165E+03  0.88398398509E+02 0.  0.
         11    1    3    3    0    0 -0.21281973305E+01 -0.19451086160E+03 -0.16391450456E+02  0.19521189551E+03  0.00000000000E+00 0.  1.
        -11    1    3    3    0    0 -0.32082984135E+02 -0.10113751514E+03 -0.74155391005E+02  0.12944936019E+03  0.00000000000E+00 0. -1.
          2    1    5    5  502    0 -0.19673185646E+02  0.59960407499E+02 -0.45188467178E+03  0.45626970236E+03  0.00000000000E+00 0. -1.
          3    1    6    6  503    0  0.13726645202E+01  0.49024479168E+02 -0.33943683426E+02  0.59644424803E+02  0.00000000000E+00 0. -1.
         -2    1    5    5    0  502  0.89177850900E+01  0.12499530193E+03 -0.20846477823E+04  0.20884108142E+04  0.00000000000E+00 0.  1.
         -3    1    6    6    0  503  0.43593917502E+02  0.61668188141E+02  0.48359083685E+02  0.89677176843E+02  0.00000000000E+00 0.  1.
<mgrwt>
<rscale>  0 0.15120569E+04</rscale>
<asrwt>0</asrwt>
<pdfrwt beam="1">  1        1 0.43317901E+00 0.15120569E+04</pdfrwt>
<pdfrwt beam="2">  1       -1 0.31230730E-01 0.15120569E+04</pdfrwt>
<totfact> 0.74954116E+00</totfact>
</mgrwt>
</event>
<event>
12    1  0.4802930E-008  0.1135146E+04  0.7818608E-02  0.9171597E-01
          1   -1    0    0  501    0  0.00000000000E+00  0.00000000000E+00  0.10485369244E+04  0.10485369244E+04  0.00000000000E+00 0. -1.
         -1   -1    0    0    0  501 -0.00000000000E+00 -0.00000000000E+00 -0.30722734096E+03  0.30722734096E+03  0.00000000000E+00 0.  1.
         23    2    1    2    0    0  0.40773705681E+02 -0.12289057366E+02 -0.90076072210E+02  0.13559894759E+03  0.91977496150E+02 0.  0.
        254    2    1    2    0    0 -0.40773705681E+02  0.12289057366E+02  0.83138565562E+03  0.12201653177E+04  0.89206937971E+03 0.  0.
         23    2    4    4    0    0  0.16133729199E+03  0.36191874623E+03  0.17184740953E+03  0.44204154171E+03  0.94097246356E+02 0.  0.
         23    2    4    4    0    0 -0.20211099767E+03 -0.34962968887E+03  0.65953824610E+03  0.77812377602E+03  0.86000802536E+02 0.  0.
         11    1    3    3    0    0  0.10050037019E+02 -0.34949555391E+02 -0.90379377913E+02  0.97421284215E+02  0.00000000000E+00 0.  1.
        -11    1    3    3    0    0  0.30723668662E+02  0.22660498025E+02  0.30330570301E+00  0.38177663380E+02  0.00000000000E+00 0. -1.
          2    1    5    5  502    0  0.15228667908E+03  0.23936241834E+03  0.10805996669E+03  0.30358286569E+03  0.00000000000E+00 0. -1.
          3    1    6    6  503    0 -0.18142381461E+03 -0.25479852615E+03  0.54103251239E+03  0.62494245247E+03  0.00000000000E+00 0.  1.
         -2    1    5    5    0  502  0.90506129080E+01  0.12255632790E+03  0.63787442837E+02  0.13845867602E+03  0.00000000000E+00 0.  1.
         -3    1    6    6    0  503 -0.20687183064E+02 -0.94831162718E+02  0.11850573370E+03  0.15318132355E+03  0.00000000000E+00 0. -1.
<mgrwt>
<rscale>  0 0.11351462E+04</rscale>
<asrwt>0</asrwt>
<pdfrwt beam="1">  1        1 0.16131337E+00 0.11351462E+04</pdfrwt>
<pdfrwt beam="2">  1       -1 0.47265745E-01 0.11351462E+04</pdfrwt>
<totfact> 0.61573945E+01</totfact>
</mgrwt>
</event>
<event>
12    1  0.6603001E-008  0.2440749E+04  0.7818608E-02  0.8424404E-01
          1   -1    0    0  501    0  0.00000000000E+00  0.00000000000E+00  0.14563433710E+04  0.14563433710E+04  0.00000000000E+00 0. -1.
         -1   -1    0    0    0  501 -0.00000000000E+00 -0.00000000000E+00 -0.10226389864E+04  0.10226389864E+04  0.00000000000E+00 0.  1.
         23    2    1    2    0    0  0.37021796205E+03  0.92447572212E+03 -0.16725667550E+03  0.10135438259E+04  0.87060848244E+02 0.  0.
        254    2    1    2    0    0 -0.37021796205E+03 -0.92447572212E+03  0.60096106012E+03  0.14654385315E+04  0.89142537189E+03 0.  0.
         23    2    4    4    0    0 -0.56460547138E+03 -0.95661871817E+03  0.45193167345E+03  0.12030430918E+04  0.95769165038E+02 0.  0.
         23    2    4    4    0    0  0.19438750934E+03  0.32142996048E+02  0.14902938666E+03  0.26239543972E+03  0.88441691036E+02 0.  0.
         11    1    3    3    0    0  0.20633065472E+03  0.49839297248E+03 -0.47014583547E+02  0.54145938459E+03  0.00000000000E+00 0. -1.
        -11    1    3    3    0    0  0.16388730733E+03  0.42608274964E+03 -0.12024209196E+03  0.47208444130E+03  0.00000000000E+00 0.  1.
          4    1    5    5  502    0 -0.32197547901E+02 -0.52103306375E+02  0.50272570537E+02  0.79238677264E+02  0.00000000000E+00 0. -1.
          1    1    6    6  503    0  0.41424986913E+02 -0.15381591515E+02  0.85884303063E+00  0.44196838232E+02  0.00000000000E+00 0. -1.
         -4    1    5    5    0  502 -0.53240792348E+03 -0.90451541179E+03  0.40165910291E+03  0.11238044145E+04  0.00000000000E+00 0.  1.
         -1    1    6    6    0  503  0.15296252242E+03  0.47524587563E+02  0.14817054363E+03  0.21819860149E+03  0.00000000000E+00 0.  1.
<mgrwt>
<rscale>  0 0.24407487E+04</rscale>
<asrwt>0</asrwt>
<pdfrwt beam="1">  1        1 0.22405282E+00 0.24407487E+04</pdfrwt>
<pdfrwt beam="2">  1       -1 0.15732908E+00 0.24407487E+04</pdfrwt>
<totfact> 0.19186944E+00</totfact>
</mgrwt>
</event>
<event>
12    1  0.4802930E-008  0.1881245E+04  0.7818608E-02  0.8664249E-01
         -2   -1    0    0    0  501 -0.00000000000E+00  0.00000000000E+00  0.22524206275E+03  0.22524206275E+03  0.00000000000E+00 0.  1.
          2   -1    0    0  501    0  0.00000000000E+00 -0.00000000000E+00 -0.39280862312E+04  0.39280862312E+04  0.00000000000E+00 0. -1.
         23    2    1    2    0    0 -0.17782463635E+03 -0.49504055755E+03 -0.34276738819E+03  0.63461290005E+03  0.92505651707E+02 0.  0.
        254    2    1    2    0    0  0.17782463635E+03  0.49504055755E+03 -0.33600767803E+04  0.35187153939E+04  0.90252717358E+03 0.  0.
         23    2    4    4    0    0  0.39031832801E+03 -0.72083760052E+01 -0.75010519562E+03  0.85077194584E+03  0.93566775395E+02 0.  0.
         23    2    4    4    0    0 -0.21249369166E+03  0.50224893355E+03 -0.26099715847E+04  0.26679434481E+04  0.92536528667E+02 0.  0.
         11    1    3    3    0    0 -0.12010596803E+03 -0.21404362679E+03 -0.13232697889E+03  0.27883785085E+03  0.00000000000E+00 0. -1.
        -11    1    3    3    0    0 -0.57718668319E+02 -0.28099693076E+03 -0.21044040929E+03  0.35577504920E+03  0.00000000000E+00 0.  1.
          2    1    5    5  502    0  0.25252853965E+03  0.43343341837E+01 -0.38591000649E+03  0.46121142971E+03  0.00000000000E+00 0. -1.
          4    1    6    6  503    0 -0.12564770485E+03  0.20884609012E+03 -0.13064159557E+04  0.13289569912E+04  0.00000000000E+00 0. -1.
         -2    1    5    5    0  502  0.13778978837E+03 -0.11542710189E+02 -0.36419518913E+03  0.38956051612E+03  0.00000000000E+00 0.  1.
         -4    1    6    6    0  503 -0.86845986816E+02  0.29340284343E+03 -0.13035556290E+04  0.13389864569E+04  0.00000000000E+00 0.  1.
<mgrwt>
<rscale>  0 0.18812445E+04</rscale>
<asrwt>0</asrwt>
<pdfrwt beam="1">  1        2 0.60432094E+00 0.18812445E+04</pdfrwt>
<pdfrwt beam="2">  1       -2 0.34652626E-01 0.18812445E+04</pdfrwt>
<totfact> 0.28953162E+00</totfact>
</mgrwt>
</event>
<event>
12    1  0.4802930E-008  0.1447596E+04  0.7818608E-02  0.8920069E-01
          2   -1    0    0  501    0  0.00000000000E+00  0.00000000000E+00  0.24774344796E+04  0.24774344796E+04  0.00000000000E+00 0. -1.
         -2   -1    0    0    0  501 -0.00000000000E+00 -0.00000000000E+00 -0.21146204060E+03  0.21146204060E+03  0.00000000000E+00 0.  1.
         23    2    1    2    0    0  0.57291156680E+02  0.25554107048E+03  0.50024505839E+02  0.28202283905E+03  0.91928859591E+02 0.  0.
        254    2    1    2    0    0 -0.57291156680E+02 -0.25554107048E+03  0.22159479331E+04  0.24068736811E+04  0.90223730756E+03 0.  0.
         23    2    4    4    0    0 -0.36503010013E+03 -0.18787955714E+03  0.47028776711E+03  0.63082504472E+03  0.90686003099E+02 0.  0.
         23    2    4    4    0    0  0.30773894346E+03 -0.67661513336E+02  0.17456601660E+04  0.17760486364E+04  0.87965935998E+02 0.  0.
         13    1    3    3    0    0  0.14093571961E+02  0.20650200027E+03  0.60937122072E+02  0.21576616447E+03  0.00000000000E+00 0.  1.
        -13    1    3    3    0    0  0.43197584719E+02  0.49039070209E+02 -0.10912616233E+02  0.66256674573E+02  0.00000000000E+00 0. -1.
          4    1    5    5  502    0 -0.25331543856E+03 -0.81337826838E+02  0.29528111173E+03  0.39746130432E+03  0.00000000000E+00 0. -1.
          4    1    6    6  503    0  0.23268810352E+03 -0.77396656378E+02  0.11689783904E+04  0.11944222340E+04  0.00000000000E+00 0. -1.
         -4    1    5    5    0  502 -0.11171466158E+03 -0.10654173030E+03  0.17500665538E+03  0.23336374040E+03  0.00000000000E+00 0.  1.
         -4    1    6    6    0  503  0.75050839931E+02  0.97351430414E+01  0.57668177562E+03  0.58162640236E+03  0.00000000000E+00 0.  1.
<mgrwt>
<rscale>  0 0.14475957E+04</rscale>
<asrwt>0</asrwt>
<pdfrwt beam="1">  1        2 0.38114374E+00 0.14475957E+04</pdfrwt>
<pdfrwt beam="2">  1       -2 0.32532624E-01 0.14475957E+04</pdfrwt>
<totfact> 0.30732575E+01</totfact>
</mgrwt>
</event>
<event>
12    1  0.4802930E-008  0.1661506E+04  0.7818608E-02  0.8783629E-01
          2   -1    0    0  501    0  0.00000000000E+00  0.00000000000E+00  0.76511767690E+03  0.76511767690E+03  0.00000000000E+00 0. -1.
         -2   -1    0    0    0  501 -0.00000000000E+00 -0.00000000000E+00 -0.90201849136E+03  0.90201849136E+03  0.00000000000E+00 0.  1.
         23    2    1    2    0    0 -0.45394854802E+03  0.26351801892E+03 -0.30278522679E+03  0.61322528784E+03  0.94102760575E+02 0.  0.
        254    2    1    2    0    0  0.45394854802E+03 -0.26351801892E+03  0.16588441233E+03  0.10539108804E+04  0.89872102182E+03 0.  0.
         23    2    4    4    0    0  0.38096555782E+03  0.10978423524E+03 -0.25450958444E+03  0.47982536938E+03  0.90939111391E+02 0.  0.
         23    2    4    4    0    0  0.72982990198E+02 -0.37330225416E+03  0.42039399678E+03  0.57408551103E+03  0.90343630847E+02 0.  0.
         13    1    3    3    0    0 -0.44943785223E+03  0.26402524750E+03 -0.30867295402E+03  0.60579097623E+03  0.00000000000E+00 0.  1.
        -13    1    3    3    0    0 -0.45106957818E+01 -0.50722858054E+00  0.58877272283E+01  0.74343116147E+01  0.00000000000E+00 0. -1.
          4    1    5    5  502    0  0.21894030354E+03  0.37423374355E+02 -0.96314965444E+02  0.24209902525E+03  0.00000000000E+00 0. -1.
          1    1    6    6  503    0 -0.15364399098E+02 -0.50720470028E+02  0.33644708166E+02  0.62774176435E+02  0.00000000000E+00 0. -1.
         -4    1    5    5    0  502  0.16202525428E+03  0.72360860886E+02 -0.15819461900E+03  0.23772634413E+03  0.00000000000E+00 0.  1.
         -1    1    6    6    0  503  0.88347389296E+02 -0.32258178413E+03  0.38674928861E+03  0.51131133460E+03  0.00000000000E+00 0.  1.
<mgrwt>
<rscale>  0 0.16615057E+04</rscale>
<asrwt>0</asrwt>
<pdfrwt beam="1">  1        2 0.11771041E+00 0.16615057E+04</pdfrwt>
<pdfrwt beam="2">  1       -2 0.13877208E+00 0.16615057E+04</pdfrwt>
<totfact> 0.12809681E+01</totfact>
</mgrwt>
</event>
<event>
12    1  0.4802930E-008  0.2999505E+04  0.7818608E-02  0.8243872E-01
         -1   -1    0    0    0  501 -0.00000000000E+00  0.00000000000E+00  0.57206622997E+03  0.57206622997E+03  0.00000000000E+00 0.  1.
          1   -1    0    0  501    0  0.00000000000E+00 -0.00000000000E+00 -0.39318137589E+04  0.39318137589E+04  0.00000000000E+00 0. -1.
         23    2    1    2    0    0  0.10359122355E+04  0.64853866059E+03 -0.62297971402E+03  0.13750883648E+04  0.95119571446E+02 0.  0.
        254    2    1    2    0    0 -0.10359122355E+04 -0.64853866059E+03 -0.27367678149E+04  0.31287916240E+04  0.89762040984E+03 0.  0.
         23    2    4    4    0    0 -0.45943246265E+03  0.15301408309E+03 -0.62464252832E+03  0.79542228356E+03  0.89592542368E+02 0.  0.
         23    2    4    4    0    0 -0.57647977289E+03 -0.80155274368E+03 -0.21121252866E+04  0.23333693405E+04  0.93399804882E+02 0.  0.
         11    1    3    3    0    0  0.76310836043E+03  0.49716759199E+03 -0.42052762982E+03  0.10031717060E+04  0.00000000000E+00 0.  1.
        -11    1    3    3    0    0  0.27280387511E+03  0.15137106860E+03 -0.20245208420E+03  0.37191665878E+03  0.00000000000E+00 0. -1.
          4    1    5    5  502    0 -0.19003416789E+03  0.37523106382E+02 -0.19117519787E+03  0.27215606692E+03  0.00000000000E+00 0. -1.
          3    1    6    6  503    0 -0.36550585019E-01 -0.25096333768E+01 -0.27705611164E+02  0.27819066944E+02  0.00000000000E+00 0. -1.
         -4    1    5    5    0  502 -0.26939829475E+03  0.11549097670E+03 -0.43346733045E+03  0.52326621665E+03  0.00000000000E+00 0.  1.
         -3    1    6    6    0  503 -0.57644322230E+03 -0.79904311030E+03 -0.20844196754E+04  0.23055502735E+04  0.00000000000E+00 0.  1.
<mgrwt>
<rscale>  0 0.29995052E+04</rscale>
<asrwt>0</asrwt>
<pdfrwt beam="1">  1        1 0.60489440E+00 0.29995052E+04</pdfrwt>
<pdfrwt beam="2">  1       -1 0.88010192E-01 0.29995052E+04</pdfrwt>
<totfact> 0.11875878E-01</totfact>
</mgrwt>
</event>
<event>
12    1  0.4802930E-008  0.1755668E+04  0.7818608E-02  0.8730236E-01
         -2   -1    0    0    0  501 -0.00000000000E+00  0.00000000000E+00  0.89854112272E+03  0.89854112272E+03  0.00000000000E+00 0.  1.
          2   -1    0    0  501    0  0.00000000000E+00 -0.00000000000E+00 -0.85760444096E+03  0.85760444096E+03  0.00000000000E+00 0. -1.
         23    2    1    2    0    0 -0.42326989601E+03 -0.46789533667E+03  0.13052782396E+03  0.65052469727E+03  0.89785399572E+02 0.  0.
        254    2    1    2    0    0  0.42326989601E+03  0.46789533667E+03 -0.89591142209E+02  0.11056208664E+04  0.90348629018E+03 0.  0.
         23    2    4    4    0    0  0.54528528707E+03  0.65162177313E+03 -0.12630642437E+03  0.86397931883E+03  0.92520111354E+02 0.  0.
         23    2    4    4    0    0 -0.12201539107E+03 -0.18372643646E+03  0.36715282165E+02  0.24164154759E+03  0.91648603180E+02 0.  0.
         11    1    3    3    0    0 -0.60243182704E+02 -0.45348804626E+02  0.42440148813E+02  0.86526997951E+02  0.00000000000E+00 0.  1.
        -11    1    3    3    0    0 -0.36302671330E+03 -0.42254653205E+03  0.88087675151E+02  0.56399769931E+03  0.00000000000E+00 0. -1.
          1    1    5    5  502    0  0.12210779425E+03  0.13566389901E+03  0.10393156580E+02  0.18281965052E+03  0.00000000000E+00 0. -1.
          3    1    6    6  503    0  0.91719760109E+01  0.36477348385E+01 -0.57686641659E+00  0.98875623012E+01  0.00000000000E+00 0. -1.
         -1    1    5    5    0  502  0.42317749282E+03  0.51595787412E+03 -0.13669958095E+03  0.68115966831E+03  0.00000000000E+00 0.  1.
         -3    1    6    6    0  503 -0.13118736708E+03 -0.18737417130E+03  0.37292148582E+02  0.23175398529E+03  0.00000000000E+00 0.  1.
<mgrwt>
<rscale>  0 0.17556684E+04</rscale>
<asrwt>0</asrwt>
<pdfrwt beam="1">  1        2 0.13193914E+00 0.17556684E+04</pdfrwt>
<pdfrwt beam="2">  1       -2 0.13823710E+00 0.17556684E+04</pdfrwt>
<totfact> 0.11023134E+01</totfact>
</mgrwt>
</event>
<event>
12    1  0.4802930E-008  0.2979752E+04  0.7818608E-02  0.8249537E-01
         -1   -1    0    0    0  501 -0.00000000000E+00  0.00000000000E+00  0.10237919512E+04  0.10237919512E+04  0.00000000000E+00 0.  1.
          1   -1    0    0  501    0  0.00000000000E+00 -0.00000000000E+00 -0.21681459974E+04  0.21681459974E+04  0.00000000000E+00 0. -1.
         23    2    1    2    0    0 -0.69072909361E+03  0.10351894943E+04 -0.86980930371E+03  0.15204766745E+04  0.80976065158E+02 0.  0.
        254    2    1    2    0    0  0.69072909361E+03 -0.10351894943E+04 -0.27454474248E+03  0.16714612741E+04  0.10815193042E+04 0.  0.
         23    2    4    4    0    0  0.29011920839E+03 -0.56269001975E+03 -0.67335991742E+03  0.92887603663E+03  0.92778767158E+02 0.  0.
         23    2    4    4    0    0  0.40060988522E+03 -0.47249947453E+03  0.39881517494E+03  0.74258523747E+03  0.92926086646E+02 0.  0.
         11    1    3    3    0    0 -0.44366984586E+03  0.63755041976E+03 -0.58642129632E+03  0.97324375499E+03  0.00000000000E+00 0. -1.
        -11    1    3    3    0    0 -0.24705924775E+03  0.39763907452E+03 -0.28338800739E+03  0.54723291953E+03  0.00000000000E+00 0.  1.
          4    1    5    5  502    0  0.24029361190E+03 -0.52124201483E+03 -0.58791317868E+03  0.82163018665E+03  0.00000000000E+00 0. -1.
          3    1    6    6  503    0  0.12754871395E+03 -0.16278414635E+03  0.18564411414E+03  0.27790482156E+03  0.00000000000E+00 0. -1.
         -4    1    5    5    0  502  0.49825596491E+02 -0.41448004920E+02 -0.85446738736E+02  0.10724584998E+03  0.00000000000E+00 0.  1.
         -3    1    6    6    0  503  0.27306117127E+03 -0.30971532818E+03  0.21317106080E+03  0.46468041591E+03  0.00000000000E+00 0.  1.
<mgrwt>
<rscale>  0 0.29797520E+04</rscale>
<asrwt>0</asrwt>
<pdfrwt beam="1">  1        1 0.33356092E+00 0.29797520E+04</pdfrwt>
<pdfrwt beam="2">  1       -1 0.15750645E+00 0.29797520E+04</pdfrwt>
<totfact> 0.59602579E-01</totfact>
</mgrwt>
</event>
<event>
12    1  0.4802930E-008  0.1391313E+04  0.7818608E-02  0.8960131E-01
          2   -1    0    0  501    0  0.00000000000E+00  0.00000000000E+00  0.32823777724E+03  0.32823777724E+03  0.00000000000E+00 0. -1.
         -2   -1    0    0    0  501 -0.00000000000E+00 -0.00000000000E+00 -0.14743514037E+04  0.14743514037E+04  0.00000000000E+00 0.  1.
         23    2    1    2    0    0  0.18510027629E+03 -0.76099327826E+02 -0.77734177953E+03  0.80792000215E+03  0.91767465347E+02 0.  0.
        254    2    1    2    0    0 -0.18510027629E+03  0.76099327826E+02 -0.36877184693E+03  0.99466917879E+03  0.90184304630E+03 0.  0.
         23    2    4    4    0    0  0.17459132233E+03  0.17666819913E+03  0.18424379930E+03  0.32140684056E+03  0.87537404345E+02 0.  0.
         23    2    4    4    0    0 -0.35969159862E+03 -0.10056887131E+03 -0.55301564623E+03  0.67326233822E+03  0.89239717063E+02 0.  0.
         13    1    3    3    0    0  0.15918256572E+02  0.76969508218E+01 -0.17141828779E+02  0.24626738276E+02  0.00000000000E+00 0. -1.
        -13    1    3    3    0    0  0.16918201972E+03 -0.83796278648E+02 -0.76019995075E+03  0.78329326388E+03  0.00000000000E+00 0.  1.
          1    1    5    5  502    0  0.74709665115E+02  0.11564696143E+03  0.13977931114E+03  0.19619890309E+03  0.00000000000E+00 0. -1.
          3    1    6    6  503    0 -0.15552629988E+03 -0.88458350042E+02 -0.27611941694E+03  0.32902164375E+03  0.00000000000E+00 0. -1.
         -1    1    5    5    0  502  0.99881657214E+02  0.61021237701E+02  0.44464488163E+02  0.12520793747E+03  0.00000000000E+00 0.  1.
         -3    1    6    6    0  503 -0.20416529874E+03 -0.12110521265E+02 -0.27689622929E+03  0.34424069447E+03  0.00000000000E+00 0.  1.
<mgrwt>
<rscale>  0 0.13913128E+04</rscale>
<asrwt>0</asrwt>
<pdfrwt beam="1">  1        2 0.50498119E-01 0.13913128E+04</pdfrwt>
<pdfrwt beam="2">  1       -2 0.22682330E+00 0.13913128E+04</pdfrwt>
<totfact> 0.86554498E+00</totfact>
</mgrwt>
</event>
<event>
12    1  0.4802930E-008  0.1738819E+04  0.7818608E-02  0.8739529E-01
          2   -1    0    0  501    0  0.00000000000E+00  0.00000000000E+00  0.20531244324E+04  0.20531244324E+04  0.00000000000E+00 0.  1.
         -2   -1    0    0    0  501 -0.00000000000E+00 -0.00000000000E+00 -0.36815753189E+03  0.36815753189E+03  0.00000000000E+00 0. -1.
         23    2    1    2    0    0 -0.67132512138E+03 -0.21047363951E+03  0.52147522846E+03  0.88049030051E+03  0.91379340484E+02 0.  0.
        254    2    1    2    0    0  0.67132512138E+03  0.21047363951E+03  0.11634916720E+04  0.15407916637E+04  0.72480998108E+03 0.  0.
         23    2    4    4    0    0  0.57900126530E+03  0.32483026159E+03  0.45041666648E+03  0.80765365223E+03  0.93124027284E+02 0.  0.
         23    2    4    4    0    0  0.92323856083E+02 -0.11435662208E+03  0.71307500554E+03  0.73313801151E+03  0.86106033373E+02 0.  0.
         13    1    3    3    0    0 -0.22553772130E+03 -0.89001187811E+02  0.22997173656E+03  0.33417880660E+03  0.00000000000E+00 0.  1.
        -13    1    3    3    0    0 -0.44578740008E+03 -0.12147245170E+03  0.29150349190E+03  0.54631149391E+03  0.00000000000E+00 0. -1.
          3    1    5    5  502    0  0.10012786039E+03  0.21032169814E+02  0.53624524616E+02  0.11551419928E+03  0.00000000000E+00 0. -1.
          3    1    6    6  503    0 -0.48000212165E+01 -0.62598122762E+01  0.19246127944E+03  0.19262286868E+03  0.00000000000E+00 0. -1.
         -3    1    5    5    0  502  0.47887340491E+03  0.30379809178E+03  0.39679214187E+03  0.69213945296E+03  0.00000000000E+00 0.  1.
         -3    1    6    6    0  503  0.97123877299E+02 -0.10809680981E+03  0.52061372610E+03  0.54051514283E+03  0.00000000000E+00 0.  1.
<mgrwt>
<rscale>  0 0.17388194E+04</rscale>
<asrwt>0</asrwt>
<pdfrwt beam="1">  1        2 0.31586529E+00 0.17388194E+04</pdfrwt>
<pdfrwt beam="2">  1       -2 0.56639621E-01 0.17388194E+04</pdfrwt>
<totfact> 0.17314243E+01</totfact>
</mgrwt>
</event>
<event>
12    1  0.4802930E-008  0.1541260E+04  0.7818608E-02  0.8857470E-01
          2   -1    0    0  501    0  0.00000000000E+00  0.00000000000E+00  0.52263262217E+03  0.52263262217E+03  0.00000000000E+00 0. -1.
         -2   -1    0    0    0  501 -0.00000000000E+00 -0.00000000000E+00 -0.11363055701E+04  0.11363055701E+04  0.00000000000E+00 0.  1.
         23    2    1    2    0    0 -0.44073935766E+03  0.24251907570E+03 -0.23253224103E+03  0.56165619247E+03  0.91212674287E+02 0.  0.
        254    2    1    2    0    0  0.44073935766E+03 -0.24251907570E+03 -0.38114070690E+03  0.10972819998E+04  0.89760395785E+03 0.  0.
         23    2    4    4    0    0 -0.16106445093E+03 -0.24844987523E+03 -0.37818154610E+03  0.48863454174E+03  0.89851742996E+02 0.  0.
         23    2    4    4    0    0  0.60180380858E+03  0.59307995311E+01 -0.29591608034E+01  0.60864745806E+03  0.90774297883E+02 0.  0.
         11    1    3    3    0    0 -0.33093754737E+03  0.17116122308E+03 -0.12751714617E+03  0.39379746966E+03  0.00000000000E+00 0. -1.
        -11    1    3    3    0    0 -0.10980181029E+03  0.71357852620E+02 -0.10501509486E+03  0.16785872281E+03  0.00000000000E+00 0.  1.
          2    1    6    6  502    0  0.24191661946E+03 -0.38760417664E+02  0.15800866668E+02  0.24551107538E+03  0.00000000000E+00 0.  1.
          2    1    5    5  503    0  0.80169801325E+01 -0.22986565084E+01 -0.23732264800E+02  0.25155042928E+02  0.00000000000E+00 0.  1.
         -2    1    5    5    0  503 -0.16908143106E+03 -0.24615121872E+03 -0.35444928130E+03  0.46347949881E+03  0.00000000000E+00 0. -1.
         -2    1    6    6    0  502  0.35988718913E+03  0.44691217195E+02 -0.18760027471E+02  0.36313638268E+03  0.00000000000E+00 0. -1.
<mgrwt>
<rscale>  0 0.15412597E+04</rscale>
<asrwt>0</asrwt>
<pdfrwt beam="1">  1        2 0.80405020E-01 0.15412597E+04</pdfrwt>
<pdfrwt beam="2">  1       -2 0.17481624E+00 0.15412597E+04</pdfrwt>
<totfact> 0.11087113E+01</totfact>
</mgrwt>
</event>
<event>
12    1  0.4802930E-008  0.1440423E+04  0.7818608E-02  0.8925067E-01
          2   -1    0    0  501    0  0.00000000000E+00  0.00000000000E+00  0.26265312226E+04  0.26265312226E+04  0.00000000000E+00 0. -1.
         -2   -1    0    0    0  501 -0.00000000000E+00 -0.00000000000E+00 -0.19748651740E+03  0.19748651740E+03  0.00000000000E+00 0.  1.
         23    2    1    2    0    0  0.27349140240E+03 -0.24772796348E+03  0.28745985329E+03  0.47523101714E+03  0.83932480729E+02 0.  0.
        254    2    1    2    0    0 -0.27349140240E+03  0.24772796348E+03  0.21415848519E+04  0.23487867229E+04  0.89120519547E+03 0.  0.
         23    2    4    4    0    0  0.27327143023E+03 -0.90243891819E+01  0.11398130866E+04  0.11753719138E+04  0.86985913750E+02 0.  0.
         23    2    4    4    0    0 -0.54676283263E+03  0.25675235266E+03  0.10017717653E+04  0.11734148091E+04  0.92110143739E+02 0.  0.
         11    1    3    3    0    0  0.18687952781E+03 -0.21722049243E+03  0.22126838322E+03  0.36203369685E+03  0.00000000000E+00 0.  1.
        -11    1    3    3    0    0  0.86611874592E+02 -0.30507471056E+02  0.66191470074E+02  0.11319732029E+03  0.00000000000E+00 0. -1.
          1    1    5    5  502    0  0.79564967261E+02 -0.84504406098E+01  0.51627315719E+03  0.52243656724E+03  0.00000000000E+00 0. -1.
          1    1    6    6  503    0 -0.31792665530E+03  0.99129397039E+02  0.53370707190E+03  0.62908444115E+03  0.00000000000E+00 0. -1.
         -1    1    5    5    0  502  0.19370646297E+03 -0.57394857212E+00  0.62353992940E+03  0.65293534654E+03  0.00000000000E+00 0.  1.
         -1    1    6    6    0  503 -0.22883617734E+03  0.15762295563E+03  0.46806469343E+03  0.54433036792E+03  0.00000000000E+00 0.  1.
<mgrwt>
<rscale>  0 0.14404229E+04</rscale>
<asrwt>0</asrwt>
<pdfrwt beam="1">  1        2 0.40408170E+00 0.14404229E+04</pdfrwt>
<pdfrwt beam="2">  1       -2 0.30382543E-01 0.14404229E+04</pdfrwt>
<totfact> 0.28655595E+01</totfact>
</mgrwt>
</event>
<event>
12    1  0.4802930E-008  0.2743012E+04  0.7818608E-02  0.8321182E-01
          1   -1    0    0  501    0  0.00000000000E+00  0.00000000000E+00  0.96455285468E+03  0.96455285468E+03  0.00000000000E+00 0. -1.
         -1   -1    0    0    0  501 -0.00000000000E+00 -0.00000000000E+00 -0.19501563334E+04  0.19501563334E+04  0.00000000000E+00 0.  1.
         23    2    1    2    0    0  0.30886097636E+02  0.22676324218E+03 -0.17067526532E+04  0.17244789044E+04  0.91909483706E+02 0.  0.
        254    2    1    2    0    0 -0.30886097636E+02 -0.22676324218E+03  0.72114917447E+03  0.11902302838E+04  0.91881253666E+03 0.  0.
         23    2    4    4    0    0 -0.20060134196E+03 -0.11154600494E+03 -0.15038168521E+03  0.29018354143E+03  0.94384462993E+02 0.  0.
         23    2    4    4    0    0  0.16971524433E+03 -0.11521723724E+03  0.87153085967E+03  0.90004674234E+03  0.91868509907E+02 0.  0.
         13    1    3    3    0    0  0.14188470736E+02  0.14091367917E+03 -0.13390279846E+04  0.13464969073E+04  0.00000000000E+00 0.  1.
        -13    1    3    3    0    0  0.16697626899E+02  0.85849563010E+02 -0.36772466862E+03  0.37798199709E+03  0.00000000000E+00 0. -1.
          2    1    5    5  502    0 -0.10227025894E+03 -0.44981649044E+02 -0.12702014601E+03  0.16916463018E+03  0.00000000000E+00 0. -1.
          1    1    6    6  503    0  0.59786440755E+02 -0.47392449199E+02  0.51938690007E+03  0.52496020297E+03  0.00000000000E+00 0. -1.
         -2    1    5    5    0  502 -0.98331083027E+02 -0.66564355899E+02 -0.23361539202E+02  0.12101891125E+03  0.00000000000E+00 0.  1.
         -1    1    6    6    0  503  0.10992880357E+03 -0.67824788041E+02  0.35214395961E+03  0.37508653937E+03  0.00000000000E+00 0.  1.
<mgrwt>
<rscale>  0 0.27430121E+04</rscale>
<asrwt>0</asrwt>
<pdfrwt beam="1">  1        1 0.14839275E+00 0.27430121E+04</pdfrwt>
<pdfrwt beam="2">  1       -1 0.30002405E+00 0.27430121E+04</pdfrwt>
<totfact> 0.46344188E-01</totfact>
</mgrwt>
</event>
<event>
12    1  0.4802930E-008  0.1519446E+04  0.7818608E-02  0.8871623E-01
          2   -1    0    0  501    0  0.00000000000E+00  0.00000000000E+00  0.92937852078E+03  0.92937852078E+03  0.00000000000E+00 0. -1.
         -2   -1    0    0    0  501 -0.00000000000E+00 -0.00000000000E+00 -0.62103791731E+03  0.62103791731E+03  0.00000000000E+00 0.  1.
         23    2    1    2    0    0  0.71611124922E+02  0.41985835787E+03 -0.14293865373E+03  0.45835913264E+03  0.90842951634E+02 0.  0.
        254    2    1    2    0    0 -0.71611124922E+02 -0.41985835787E+03  0.45127925720E+03  0.10920573054E+04  0.89862505892E+03 0.  0.
         23    2    4    4    0    0  0.38112849162E+03 -0.27193484720E+03  0.84759867611E+02  0.48428661568E+03  0.90231938499E+02 0.  0.
         23    2    4    4    0    0 -0.45273961654E+03 -0.14792351067E+03  0.36651938959E+03  0.60777068977E+03  0.90521947624E+02 0.  0.
         11    1    3    3    0    0  0.54463631540E+01  0.24522301193E+03 -0.10960523027E+03  0.26865832381E+03  0.00000000000E+00 0.  1.
        -11    1    3    3    0    0  0.66164761768E+02  0.17463534594E+03 -0.33333423462E+02  0.18970080883E+03  0.00000000000E+00 0. -1.
          2    1    5    5  502    0  0.34220002034E+03 -0.23398660311E+03  0.45103098083E+02  0.41699505250E+03  0.00000000000E+00 0. -1.
          1    1    6    6  503    0 -0.44559246165E+03 -0.12835749272E+03  0.34639834304E+03  0.57880920852E+03  0.00000000000E+00 0. -1.
         -2    1    5    5    0  502  0.38928471282E+02 -0.37948244088E+02  0.39656769528E+02  0.67291563180E+02  0.00000000000E+00 0.  1.
         -1    1    6    6    0  503 -0.71471548957E+01 -0.19566017951E+02  0.20121046548E+02  0.28961481243E+02  0.00000000000E+00 0.  1.
<mgrwt>
<rscale>  0 0.15194463E+04</rscale>
<asrwt>0</asrwt>
<pdfrwt beam="1">  1        2 0.14298131E+00 0.15194463E+04</pdfrwt>
<pdfrwt beam="2">  1       -2 0.95544295E-01 0.15194463E+04</pdfrwt>
<totfact> 0.24864866E+01</totfact>
</mgrwt>
</event>
<event>
12    1  0.4802930E-008  0.1160450E+04  0.7818608E-02  0.9148197E-01
         -1   -1    0    0    0  501 -0.00000000000E+00  0.00000000000E+00  0.31439592025E+03  0.31439592025E+03  0.00000000000E+00 0.  1.
          1   -1    0    0  501    0  0.00000000000E+00 -0.00000000000E+00 -0.10708181913E+04  0.10708181913E+04  0.00000000000E+00 0. -1.
         23    2    1    2    0    0  0.41765961974E+02 -0.13989035103E+03  0.37880313268E+02  0.17727537930E+03  0.93155440435E+02 0.  0.
        254    2    1    2    0    0 -0.41765961974E+02  0.13989035103E+03 -0.79430258428E+03  0.12079387322E+04  0.89826815567E+03 0.  0.
         23    2    4    4    0    0 -0.18577594564E+02  0.18968067126E+03 -0.97494434317E+03  0.99731199952E+03  0.88265893999E+02 0.  0.
         23    2    4    4    0    0 -0.23188367410E+02 -0.49790320225E+02  0.18064175890E+03  0.21062673269E+03  0.93356301851E+02 0.  0.
         13    1    3    3    0    0  0.23036906360E+02 -0.17297329797E+02 -0.25077927307E+02  0.38194228762E+02  0.00000000000E+00 0. -1.
        -13    1    3    3    0    0  0.18729055614E+02 -0.12259302123E+03  0.62958240575E+02  0.13908115054E+03  0.00000000000E+00 0.  1.
          4    1    5    5  502    0  0.31097154658E+02  0.11829663353E+03 -0.52765000147E+03  0.54164162560E+03  0.00000000000E+00 0.  1.
          1    1    6    6  503    0  0.28637308995E+02 -0.45383944155E+02  0.11476572429E+03  0.12669242016E+03  0.00000000000E+00 0. -1.
         -4    1    5    5    0  502 -0.49674749222E+02  0.71384037725E+02 -0.44729434170E+03  0.45567037392E+03  0.00000000000E+00 0. -1.
         -1    1    6    6    0  503 -0.51825676405E+02 -0.44063760701E+01  0.65876034608E+02  0.83934312534E+02  0.00000000000E+00 0.  1.
<mgrwt>
<rscale>  0 0.11604497E+04</rscale>
<asrwt>0</asrwt>
<pdfrwt beam="1">  1        1 0.16474126E+00 0.11604497E+04</pdfrwt>
<pdfrwt beam="2">  1       -1 0.48368603E-01 0.11604497E+04</pdfrwt>
<totfact> 0.56583919E+01</totfact>
</mgrwt>
</event>
<event>
12    1  0.4802930E-008  0.1668901E+04  0.7818608E-02  0.8779303E-01
          2   -1    0    0  501    0  0.00000000000E+00  0.00000000000E+00  0.24565288712E+04  0.24565288712E+04  0.00000000000E+00 0. -1.
         -2   -1    0    0    0  501 -0.00000000000E+00 -0.00000000000E+00 -0.28345180572E+03  0.28345180572E+03  0.00000000000E+00 0.  1.
         23    2    1    2    0    0  0.20560396414E+03 -0.43421698668E+03  0.22324078789E+03  0.53758221491E+03  0.91328017727E+02 0.  0.
        254    2    1    2    0    0 -0.20560396414E+03  0.43421698668E+03  0.19498362776E+04  0.22023984620E+04  0.90436723429E+03 0.  0.
         23    2    4    4    0    0  0.26145895824E+03  0.38402925740E+03  0.13751659373E+04  0.14544597962E+04  0.92372541910E+02 0.  0.
         23    2    4    4    0    0 -0.46706292239E+03  0.50187729277E+02  0.57467034030E+03  0.74793866574E+03  0.92193633446E+02 0.  0.
         13    1    3    3    0    0  0.14808010165E+03 -0.37975776762E+03  0.16729051971E+03  0.44060163023E+03  0.00000000000E+00 0.  1.
        -13    1    3    3    0    0  0.57523862495E+02 -0.54459219051E+02  0.55950268179E+02  0.96980584682E+02  0.00000000000E+00 0. -1.
          2    1    5    5  502    0  0.12020739728E+03  0.14891618998E+03  0.70047312689E+03  0.72614630172E+03  0.00000000000E+00 0.  1.
          3    1    6    6  503    0 -0.45900613702E+03  0.52293341930E+02  0.53255456357E+03  0.70500751103E+03  0.00000000000E+00 0. -1.
         -2    1    5    5    0  502  0.14125156096E+03  0.23511306741E+03  0.67469281037E+03  0.72831349453E+03  0.00000000000E+00 0. -1.
         -3    1    6    6    0  503 -0.80567853678E+01 -0.21056126526E+01  0.42115776721E+02  0.42931154701E+02  0.00000000000E+00 0.  1.
<mgrwt>
<rscale>  0 0.16689009E+04</rscale>
<asrwt>0</asrwt>
<pdfrwt beam="1">  1        2 0.37792750E+00 0.16689009E+04</pdfrwt>
<pdfrwt beam="2">  1       -2 0.43607972E-01 0.16689009E+04</pdfrwt>
<totfact> 0.17572527E+01</totfact>
</mgrwt>
</event>
<event>
12    1  0.4948641E-008  0.3595117E+04  0.7818608E-02  0.8091611E-01
         -2   -1    0    0    0  501 -0.00000000000E+00  0.00000000000E+00  0.13849595686E+04  0.13849595686E+04  0.00000000000E+00 0. -1.
          2   -1    0    0  501    0  0.00000000000E+00 -0.00000000000E+00 -0.23330758570E+04  0.23330758570E+04  0.00000000000E+00 0.  1.
         23    2    1    2    0    0 -0.14174492020E+04 -0.82755091481E+03 -0.39091052475E+03  0.16897309111E+04  0.91524624157E+02 0.  0.
        254    2    1    2    0    0  0.14174492020E+04  0.82755091481E+03 -0.55720576367E+03  0.20283045145E+04  0.10533461842E+04 0.  0.
         23    2    4    4    0    0  0.39589188734E+03  0.64294704236E+03  0.14155848006E+03  0.77358391366E+03  0.91005397903E+02 0.  0.
         23    2    4    4    0    0  0.10215573147E+04  0.18460387245E+03 -0.69876424373E+03  0.12547206009E+04  0.91620854918E+02 0.  0.
         13    1    3    3    0    0 -0.75260781300E+02 -0.21933394981E+02 -0.22555180718E+02  0.81572024582E+02  0.00000000000E+00 0.  1.
        -13    1    3    3    0    0 -0.13421884207E+04 -0.80561751983E+03 -0.36835534403E+03  0.16081588865E+04  0.00000000000E+00 0. -1.
          2    1    5    5  502    0  0.15483840506E+03  0.17671609785E+03  0.59243148955E+02  0.24230819552E+03  0.00000000000E+00 0. -1.
          1    1    6    6  503    0  0.18900845563E+03  0.20377592816E+02 -0.16884282342E+03  0.25425841502E+03  0.00000000000E+00 0. -1.
         -2    1    5    5    0  502  0.24105348228E+03  0.46623094452E+03  0.82315331102E+02  0.53127571813E+03  0.00000000000E+00 0.  1.
         -1    1    6    6    0  503  0.83254885903E+03  0.16422627963E+03 -0.52992142030E+03  0.10004621858E+04  0.00000000000E+00 0.  1.
<mgrwt>
<rscale>  0 0.35951165E+04</rscale>
<asrwt>0</asrwt>
<pdfrwt beam="1">  1        2 0.35893475E+00 0.35951165E+04</pdfrwt>
<pdfrwt beam="2">  1       -2 0.21307070E+00 0.35951165E+04</pdfrwt>
<totfact> 0.38732850E-01</totfact>
</mgrwt>
</event>
<event>
12    1  0.4802930E-008  0.2293557E+04  0.7818608E-02  0.8480466E-01
         -1   -1    0    0    0  501 -0.00000000000E+00  0.00000000000E+00  0.12537232962E+04  0.12537232962E+04  0.00000000000E+00 0.  1.
          1   -1    0    0  501    0  0.00000000000E+00 -0.00000000000E+00 -0.10489567088E+04  0.10489567088E+04  0.00000000000E+00 0. -1.
         23    2    1    2    0    0 -0.85136325960E+03 -0.13010114332E+03 -0.33819978601E+03  0.92965991717E+03  0.90237237624E+02 0.  0.
        254    2    1    2    0    0  0.85136325960E+03  0.13010114332E+03  0.54296637344E+03  0.13730200878E+04  0.92120897272E+03 0.  0.
         23    2    4    4    0    0  0.48142166411E+03  0.50313386120E+03  0.17925910032E+03  0.72578219327E+03  0.98567063759E+02 0.  0.
         23    2    4    4    0    0  0.36994159549E+03 -0.37303271788E+03  0.36370727311E+03  0.64723789449E+03  0.10307142602E+03 0.  0.
         13    1    3    3    0    0 -0.75685958352E+03 -0.11239315164E+03 -0.32959395054E+03  0.83312713432E+03  0.00000000000E+00 0. -1.
        -13    1    3    3    0    0 -0.94503676074E+02 -0.17707991688E+02 -0.86058354655E+01  0.96532782853E+02  0.00000000000E+00 0.  1.
          3    1    6    6  502    0  0.70355123994E+02 -0.73773098221E+02  0.12444420576E+03  0.16086849859E+03  0.00000000000E+00 0. -1.
          3    1    5    5  503    0  0.35672912112E+02  0.77789514442E+01  0.39543560306E+01  0.36724728395E+02  0.00000000000E+00 0. -1.
         -3    1    5    5    0  503  0.44574875200E+03  0.49535490976E+03  0.17530474429E+03  0.68905746488E+03  0.00000000000E+00 0.  1.
         -3    1    6    6    0  502  0.29958647149E+03 -0.29925961966E+03  0.23926306736E+03  0.48636939589E+03  0.00000000000E+00 0.  1.
<mgrwt>
<rscale>  0 0.22935575E+04</rscale>
<asrwt>0</asrwt>
<pdfrwt beam="1">  1        1 0.16137796E+00 0.22935575E+04</pdfrwt>
<pdfrwt beam="2">  1       -1 0.19288051E+00 0.22935575E+04</pdfrwt>
<totfact> 0.21149882E+00</totfact>
</mgrwt>
</event>
<event>
12    1  0.4802930E-008  0.1795137E+04  0.7818608E-02  0.8708890E-01
         -2   -1    0    0    0  501 -0.00000000000E+00  0.00000000000E+00  0.30713708119E+03  0.30713708119E+03  0.00000000000E+00 0.  1.
          2   -1    0    0  501    0  0.00000000000E+00 -0.00000000000E+00 -0.26230286587E+04  0.26230286587E+04  0.00000000000E+00 0. -1.
         23    2    1    2    0    0 -0.35056675770E+03 -0.56752185001E+03 -0.92568500599E+03  0.11427024081E+04  0.62433656053E+02 0.  0.
        254    2    1    2    0    0  0.35056675770E+03  0.56752185001E+03 -0.13902065715E+04  0.17874633317E+04  0.90408669328E+03 0.  0.
         23    2    4    4    0    0  0.22912221885E+03  0.43162807174E+03 -0.14816942815E+04  0.15628453613E+04  0.90927971775E+02 0.  0.
         23    2    4    4    0    0  0.12144453886E+03  0.13589377827E+03  0.91487709965E+02  0.22461797045E+03  0.94166536427E+02 0.  0.
         13    1    3    3    0    0 -0.13115412119E+03 -0.20909634291E+03 -0.29220837248E+03  0.38250283276E+03  0.00000000000E+00 0. -1.
        -13    1    3    3    0    0 -0.21941263652E+03 -0.35842550709E+03 -0.63347663351E+03  0.76019957537E+03  0.00000000000E+00 0.  1.
          1    1    5    5  502    0  0.22323460640E+03  0.34998176167E+03 -0.12482007219E+04  0.13154185514E+04  0.00000000000E+00 0. -1.
          3    1    6    6  503    0  0.76461386168E+02  0.49531589325E+02  0.14025437029E+00  0.91102917555E+02  0.00000000000E+00 0. -1.
         -1    1    5    5    0  502  0.58876124513E+01  0.81646310068E+02 -0.23349355951E+03  0.24742680991E+03  0.00000000000E+00 0.  1.
         -3    1    6    6    0  503  0.44983152689E+02  0.86362188945E+02  0.91347455594E+02  0.13351505289E+03  0.00000000000E+00 0.  1.
<mgrwt>
<rscale>  0 0.17951372E+04</rscale>
<asrwt>0</asrwt>
<pdfrwt beam="1">  1        2 0.40354287E+00 0.17951372E+04</pdfrwt>
<pdfrwt beam="2">  1       -2 0.47251859E-01 0.17951372E+04</pdfrwt>
<totfact> 0.11846016E+01</totfact>
</mgrwt>
</event>
<event>
12    1  0.4802930E-008  0.1434309E+04  0.7818608E-02  0.8929352E-01
          1   -1    0    0  501    0  0.00000000000E+00  0.00000000000E+00  0.55091639564E+03  0.55091639564E+03  0.00000000000E+00 0. -1.
         -1   -1    0    0    0  501 -0.00000000000E+00 -0.00000000000E+00 -0.93355407279E+03  0.93355407279E+03  0.00000000000E+00 0.  1.
         23    2    1    2    0    0  0.29202065885E+03  0.48975635366E+02  0.20656131433E+03  0.37257395723E+03  0.92027707666E+02 0.  0.
        254    2    1    2    0    0 -0.29202065885E+03 -0.48975635366E+02 -0.58919899148E+03  0.11118965112E+04  0.89525623260E+03 0.  0.
         23    2    4    4    0    0  0.28796816884E+03  0.74755378220E+02 -0.71731831171E+02  0.31955476251E+03  0.91955194523E+02 0.  0.
         23    2    4    4    0    0 -0.57998882769E+03 -0.12373101359E+03 -0.51746716031E+03  0.79234174870E+03  0.91305973315E+02 0.  0.
         13    1    3    3    0    0  0.29469342851E+03  0.36145610841E+02  0.19930630141E+03  0.35759435645E+03  0.00000000000E+00 0. -1.
        -13    1    3    3    0    0 -0.26727696602E+01  0.12830024525E+02  0.72550129217E+01  0.14979600778E+02  0.00000000000E+00 0.  1.
          4    1    5    5  502    0  0.20626125228E+02  0.25880733062E+02  0.11956841571E+02  0.35188285637E+02  0.00000000000E+00 0. -1.
          1    1    6    6  503    0 -0.50605821338E+02 -0.22673041568E+01 -0.81113765397E+02  0.95632278852E+02  0.00000000000E+00 0. -1.
         -4    1    5    5    0  502  0.26734204361E+03  0.48874645159E+02 -0.83688672742E+02  0.28436647687E+03  0.00000000000E+00 0.  1.
         -1    1    6    6    0  503 -0.52938300635E+03 -0.12146370943E+03 -0.43635339491E+03  0.69670946984E+03  0.00000000000E+00 0.  1.
<mgrwt>
<rscale>  0 0.14343085E+04</rscale>
<asrwt>0</asrwt>
<pdfrwt beam="1">  1        1 0.84756369E-01 0.14343085E+04</pdfrwt>
<pdfrwt beam="2">  1       -1 0.14362370E+00 0.14343085E+04</pdfrwt>
<totfact> 0.14749437E+01</totfact>
</mgrwt>
</event>
<event>
12    1  0.4802930E-008  0.1535904E+04  0.7818608E-02  0.8860922E-01
         -2   -1    0    0    0  501 -0.00000000000E+00  0.00000000000E+00  0.44579567617E+03  0.44579567617E+03  0.00000000000E+00 0.  1.
          2   -1    0    0  501    0  0.00000000000E+00 -0.00000000000E+00 -0.13229162631E+04  0.13229162631E+04  0.00000000000E+00 0. -1.
         23    2    1    2    0    0 -0.18759155338E+03  0.22285415520E+03 -0.75924519723E+03  0.81809989816E+03  0.89328654283E+02 0.  0.
        254    2    1    2    0    0  0.18759155338E+03 -0.22285415520E+03 -0.11787538974E+03  0.95061204115E+03  0.89717003956E+03 0.  0.
         23    2    4    4    0    0  0.13899036349E+03  0.31821422013E+03 -0.17042630450E+03  0.39760110222E+03  0.91994022518E+02 0.  0.
         23    2    4    4    0    0  0.48601189890E+02 -0.54106837533E+03  0.52550914764E+02  0.55301093893E+03  0.89120353987E+02 0.  0.
         11    1    3    3    0    0  0.31317697579E+01  0.39763592113E+02 -0.11479591298E+03  0.12152799215E+03  0.00000000000E+00 0.  1.
        -11    1    3    3    0    0 -0.19072332314E+03  0.18309056309E+03 -0.64444928425E+03  0.69657190601E+03  0.00000000000E+00 0. -1.
          2    1    5    5  502    0  0.10656287171E+03  0.26889500121E+03 -0.10075192509E+03  0.30628600639E+03  0.00000000000E+00 0.  1.
          1    1    6    6  503    0  0.29132297440E+02 -0.31072067030E+03 -0.14173141936E+02  0.31240503142E+03  0.00000000000E+00 0. -1.
         -2    1    5    5    0  502  0.32427491785E+02  0.49319218926E+02 -0.69674379419E+02  0.91315095830E+02  0.00000000000E+00 0. -1.
         -1    1    6    6    0  503  0.19468892450E+02 -0.23034770503E+03  0.66724056700E+02  0.24060590751E+03  0.00000000000E+00 0.  1.
<mgrwt>
<rscale>  0 0.15359041E+04</rscale>
<asrwt>0</asrwt>
<pdfrwt beam="1">  1        2 0.20352558E+00 0.15359041E+04</pdfrwt>
<pdfrwt beam="2">  1       -2 0.68583951E-01 0.15359041E+04</pdfrwt>
<totfact> 0.30024835E+01</totfact>
</mgrwt>
</event>
<event>
12    1  0.4802930E-008  0.1317712E+04  0.7818608E-02  0.9015636E-01
          3   -1    0    0  501    0  0.00000000000E+00  0.00000000000E+00  0.97033878315E+03  0.97033878315E+03  0.00000000000E+00 0. -1.
         -3   -1    0    0    0  501 -0.00000000000E+00 -0.00000000000E+00 -0.44736077272E+03  0.44736077272E+03  0.00000000000E+00 0.  1.
         23    2    1    2    0    0  0.76375848553E+02 -0.30377072390E+03  0.27775055500E+03  0.42861972302E+03  0.91975938260E+02 0.  0.
        254    2    1    2    0    0 -0.76375848553E+02  0.30377072390E+03  0.24522745544E+03  0.98907983285E+03  0.90555645208E+03 0.  0.
         23    2    4    4    0    0  0.28891775635E+03  0.45896980519E+03  0.11690021582E+03  0.56227345516E+03  0.91427708668E+02 0.  0.
         23    2    4    4    0    0 -0.36529360490E+03 -0.15519908129E+03  0.12832723961E+03  0.42680637768E+03  0.90386011038E+02 0.  0.
         11    1    3    3    0    0  0.18887834676E+02 -0.14325163175E+02  0.51749715041E+02  0.56920941714E+02  0.00000000000E+00 0.  1.
        -11    1    3    3    0    0  0.57488013878E+02 -0.28944556072E+03  0.22600083996E+03  0.37169878130E+03  0.00000000000E+00 0. -1.
          1    1    5    5  502    0  0.17326764159E+03  0.19319752685E+03  0.41802449016E+02  0.26285814567E+03  0.00000000000E+00 0. -1.
          3    1    6    6  503    0 -0.24487401010E+03 -0.14735917603E+03  0.10064551944E+03  0.30299757123E+03  0.00000000000E+00 0.  1.
         -1    1    5    5    0  502  0.11565011476E+03  0.26577227834E+03  0.75097766808E+02  0.29941530949E+03  0.00000000000E+00 0.  1.
         -3    1    6    6    0  503 -0.12041959479E+03 -0.78399052602E+01  0.27681720174E+02  0.12380880646E+03  0.00000000000E+00 0. -1.
<mgrwt>
<rscale>  0 0.13177124E+04</rscale>
<asrwt>0</asrwt>
<pdfrwt beam="1">  1        3 0.14928289E+00 0.13177124E+04</pdfrwt>
<pdfrwt beam="2">  1       -3 0.68824734E-01 0.13177124E+04</pdfrwt>
<totfact> 0.17014492E+00</totfact>
</mgrwt>
</event>
<event>
12    1  0.4802930E-008  0.2322998E+04  0.7818608E-02  0.8468908E-01
         -2   -1    0    0    0  501 -0.00000000000E+00  0.00000000000E+00  0.35357839484E+03  0.35357839484E+03  0.00000000000E+00 0.  1.
          2   -1    0    0  501    0  0.00000000000E+00 -0.00000000000E+00 -0.38155028827E+04  0.38155028827E+04  0.00000000000E+00 0. -1.
         23    2    1    2    0    0 -0.89824857254E+03  0.38411846264E+03 -0.12375042097E+04  0.15793194109E+04  0.91845746097E+02 0.  0.
        254    2    1    2    0    0  0.89824857254E+03 -0.38411846264E+03 -0.22244202781E+04  0.25897618666E+04  0.89689657198E+03 0.  0.
         23    2    4    4    0    0  0.42054281401E+03 -0.58798379608E+03 -0.85897483871E+03  0.11263757471E+04  0.91122704251E+02 0.  0.
         23    2    4    4    0    0  0.47770575853E+03  0.20386533344E+03 -0.13654454394E+04  0.14633861196E+04  0.85403869965E+02 0.  0.
         13    1    3    3    0    0 -0.60232817711E+03  0.21120211370E+03 -0.82101615063E+03  0.10399389816E+04  0.00000000000E+00 0.  1.
        -13    1    3    3    0    0 -0.29592039543E+03  0.17291634894E+03 -0.41648805908E+03  0.53938042931E+03  0.00000000000E+00 0. -1.
          2    1    5    5  502    0  0.11827575694E+03 -0.23085114714E+03 -0.33970850542E+03  0.42741464115E+03  0.00000000000E+00 0. -1.
          1    1    6    6  503    0  0.32632924276E+03  0.17485184803E+03 -0.10201753556E+04  0.10852749420E+04  0.00000000000E+00 0. -1.
         -2    1    5    5    0  502  0.30226705707E+03 -0.35713264894E+03 -0.51926633328E+03  0.69896110594E+03  0.00000000000E+00 0.  1.
         -1    1    6    6    0  503  0.15137651577E+03  0.29013485404E+02 -0.34527008376E+03  0.37811117757E+03  0.00000000000E+00 0.  1.
<mgrwt>
<rscale>  0 0.23229975E+04</rscale>
<asrwt>0</asrwt>
<pdfrwt beam="1">  1        2 0.58700042E+00 0.23229975E+04</pdfrwt>
<pdfrwt beam="2">  1       -2 0.54396678E-01 0.23229975E+04</pdfrwt>
<totfact> 0.13816681E+00</totfact>
</mgrwt>
</event>
<event>
12    1  0.4802930E-008  0.1428007E+04  0.7818608E-02  0.8933791E-01
         -1   -1    0    0    0  501 -0.00000000000E+00  0.00000000000E+00  0.43315569230E+03  0.43315569230E+03  0.00000000000E+00 0.  1.
          1   -1    0    0  501    0  0.00000000000E+00 -0.00000000000E+00 -0.11769467489E+04  0.11769467489E+04  0.00000000000E+00 0. -1.
         23    2    1    2    0    0 -0.13966517635E+03  0.22231280859E+03  0.15158599596E+03  0.31471027792E+03  0.84468328455E+02 0.  0.
        254    2    1    2    0    0  0.13966517635E+03 -0.22231280859E+03 -0.89537705254E+03  0.12953921633E+04  0.89856076261E+03 0.  0.
         23    2    4    4    0    0  0.11260421655E+03  0.33809277742E+03 -0.36989518230E+03  0.52115392324E+03  0.88275308490E+02 0.  0.
         23    2    4    4    0    0  0.27060959801E+02 -0.56040558601E+03 -0.52548187025E+03  0.77423824004E+03  0.92341431665E+02 0.  0.
         13    1    3    3    0    0  0.14287512231E+01  0.19082839548E+02 -0.75186514161E+01  0.20560306768E+02  0.00000000000E+00 0. -1.
        -13    1    3    3    0    0 -0.14109392758E+03  0.20322996904E+03  0.15910464737E+03  0.29414997116E+03  0.00000000000E+00 0.  1.
          1    1    5    5  502    0  0.69865254127E+02  0.13544872348E+03 -0.10575643608E+03  0.18550453956E+03  0.00000000000E+00 0. -1.
          3    1    6    6  503    0 -0.20376868759E+02 -0.31724561789E+02 -0.38485142853E+02  0.53877368361E+02  0.00000000000E+00 0. -1.
         -1    1    5    5    0  502  0.42738962426E+02  0.20264405394E+03 -0.26413874622E+03  0.33564938367E+03  0.00000000000E+00 0.  1.
         -3    1    6    6    0  503  0.47437828560E+02 -0.52868102422E+03 -0.48699672740E+03  0.72036087168E+03  0.00000000000E+00 0.  1.
<mgrwt>
<rscale>  0 0.14280073E+04</rscale>
<asrwt>0</asrwt>
<pdfrwt beam="1">  1        1 0.18106873E+00 0.14280073E+04</pdfrwt>
<pdfrwt beam="2">  1       -1 0.66639338E-01 0.14280073E+04</pdfrwt>
<totfact> 0.24664280E+01</totfact>
</mgrwt>
</event>
<event>
12    1  0.4802930E-008  0.1230326E+04  0.7818608E-02  0.9086718E-01
         -1   -1    0    0    0  501 -0.00000000000E+00  0.00000000000E+00  0.46615161192E+03  0.46615161192E+03  0.00000000000E+00 0.  1.
          1   -1    0    0  501    0  0.00000000000E+00 -0.00000000000E+00 -0.81180832752E+03  0.81180832752E+03  0.00000000000E+00 0. -1.
         23    2    1    2    0    0 -0.93589318144E+02 -0.31422051664E+02 -0.34956942623E+03  0.37423890464E+03  0.90053696165E+02 0.  0.
        254    2    1    2    0    0  0.93589318144E+02  0.31422051664E+02  0.39127106232E+01  0.90372103480E+03  0.89830400958E+03 0.  0.
         23    2    4    4    0    0  0.32491194123E+03  0.33803662691E+03  0.11966857965E+03  0.49267928141E+03  0.92605478704E+02 0.  0.
         23    2    4    4    0    0 -0.23132262309E+03 -0.30661457524E+03 -0.11575586903E+03  0.41104175339E+03  0.89628388987E+02 0.  0.
         13    1    3    3    0    0 -0.45045026471E+02  0.98078664891E+01 -0.26161607549E+03  0.26564679484E+03  0.00000000000E+00 0. -1.
        -13    1    3    3    0    0 -0.48544291673E+02 -0.41229918153E+02 -0.87953350739E+02  0.10859210980E+03  0.00000000000E+00 0.  1.
          4    1    5    5  502    0  0.32718527828E+03  0.34194629616E+03  0.11733884098E+03  0.48759191890E+03  0.00000000000E+00 0. -1.
          1    1    6    6  503    0 -0.26215404222E+02 -0.39688952535E+02  0.15055235531E+02  0.49891086265E+02  0.00000000000E+00 0. -1.
         -4    1    5    5    0  502 -0.22733370470E+01 -0.39096692488E+01  0.23297386727E+01  0.50873625040E+01  0.00000000000E+00 0.  1.
         -1    1    6    6    0  503 -0.20510721887E+03 -0.26692562271E+03 -0.13081110456E+03  0.36115066713E+03  0.00000000000E+00 0.  1.
<mgrwt>
<rscale>  0 0.12303264E+04</rscale>
<asrwt>0</asrwt>
<pdfrwt beam="1">  1        1 0.12489359E+00 0.12303264E+04</pdfrwt>
<pdfrwt beam="2">  1       -1 0.71715634E-01 0.12303264E+04</pdfrwt>
<totfact> 0.41866000E+01</totfact>
</mgrwt>
</event>
<event>
12    1  0.4802930E-008  0.1997235E+04  0.7818608E-02  0.8607915E-01
         -2   -1    0    0    0  501 -0.00000000000E+00  0.00000000000E+00  0.54433753679E+03  0.54433753679E+03  0.00000000000E+00 0. -1.
          2   -1    0    0  501    0  0.00000000000E+00 -0.00000000000E+00 -0.18320186315E+04  0.18320186315E+04  0.00000000000E+00 0.  1.
         23    2    1    2    0    0 -0.39322049508E+02 -0.69155419973E+03 -0.59625012378E+02  0.70116924236E+03  0.91047952152E+02 0.  0.
        254    2    1    2    0    0  0.39322049508E+02  0.69155419973E+03 -0.12280560824E+04  0.16751869260E+04  0.90461929048E+03 0.  0.
         23    2    4    4    0    0  0.26831193950E+03  0.51715463360E+03 -0.12404597521E+04  0.13734483645E+04  0.90442254595E+02 0.  0.
         23    2    4    4    0    0 -0.22898988999E+03  0.17439956613E+03  0.12403669766E+02  0.30173856143E+03  0.89670117935E+02 0.  0.
         11    1    3    3    0    0 -0.25072379932E+02 -0.36777681188E+03 -0.77102602472E+02  0.37660751307E+03  0.00000000000E+00 0.  1.
        -11    1    3    3    0    0 -0.14249669576E+02 -0.32377738785E+03  0.17477590093E+02  0.32456172929E+03  0.00000000000E+00 0. -1.
          4    1    5    5  502    0 -0.36666191785E+01  0.65108918013E+01 -0.43609147865E+01  0.86517851351E+01  0.00000000000E+00 0. -1.
          1    1    6    6  503    0 -0.80094697359E+02  0.10985638721E+03  0.27663378584E+02  0.13874022081E+03  0.00000000000E+00 0. -1.
         -4    1    5    5    0  502  0.27197855867E+03  0.51064374180E+03 -0.12360988373E+04  0.13647965794E+04  0.00000000000E+00 0.  1.
         -1    1    6    6    0  503 -0.14889519263E+03  0.64543178915E+02 -0.15259708818E+02  0.16299834062E+03  0.00000000000E+00 0.  1.
<mgrwt>
<rscale>  0 0.19972346E+04</rscale>
<asrwt>0</asrwt>
<pdfrwt beam="1">  1        2 0.28184901E+00 0.19972346E+04</pdfrwt>
<pdfrwt beam="2">  1       -2 0.83744238E-01 0.19972346E+04</pdfrwt>
<totfact> 0.95929405E+00</totfact>
</mgrwt>
</event>
<event>
12    1  0.4802930E-008  0.2545739E+04  0.7818608E-02  0.8386869E-01
         -1   -1    0    0    0  501 -0.00000000000E+00  0.00000000000E+00  0.49859662977E+03  0.49859662977E+03  0.00000000000E+00 0.  1.
          1   -1    0    0  501    0  0.00000000000E+00 -0.00000000000E+00 -0.32495151271E+04  0.32495151271E+04  0.00000000000E+00 0. -1.
         23    2    1    2    0    0  0.83322594496E+02 -0.44980340122E+03  0.25448333169E+03  0.53286136179E+03  0.99567616608E+02 0.  0.
        254    2    1    2    0    0 -0.83322594496E+02  0.44980340122E+03 -0.30054018291E+04  0.32152503951E+04  0.10469618879E+04 0.  0.
         23    2    4    4    0    0 -0.41674604764E+03  0.46303415806E+03 -0.26323747255E+04  0.27066502804E+04  0.92093133443E+02 0.  0.
         23    2    4    4    0    0  0.33342345315E+03 -0.13230756837E+02 -0.37302710358E+03  0.50860011473E+03  0.90435638254E+02 0.  0.
         13    1    3    3    0    0 -0.98588493151E+00 -0.25692596442E+03  0.12494335279E+03  0.28569698033E+03  0.00000000000E+00 0. -1.
        -13    1    3    3    0    0  0.84308479427E+02 -0.19287743681E+03  0.12953997890E+03  0.24716438147E+03  0.00000000000E+00 0.  1.
          2    1    5    5  502    0 -0.36792977604E+03  0.35982567833E+03 -0.20953485836E+04  0.21576219608E+04  0.00000000000E+00 0. -1.
          3    1    6    6  503    0  0.33935886934E+03 -0.11958345998E+02 -0.36491196345E+03  0.49846583163E+03  0.00000000000E+00 0. -1.
         -2    1    5    5    0  502 -0.48816271608E+02  0.10320847973E+03 -0.53702614185E+03  0.54902831957E+03  0.00000000000E+00 0.  1.
         -3    1    6    6    0  503 -0.59354161876E+01 -0.12724108393E+01 -0.81151401249E+01  0.10134283098E+02  0.00000000000E+00 0.  1.
<mgrwt>
<rscale>  0 0.25457394E+04</rscale>
<asrwt>0</asrwt>
<pdfrwt beam="1">  1        1 0.49992541E+00 0.25457394E+04</pdfrwt>
<pdfrwt beam="2">  1       -1 0.76707173E-01 0.25457394E+04</pdfrwt>
<totfact> 0.58875424E-01</totfact>
</mgrwt>
</event>
<event>
12    1  0.4802930E-008  0.1529396E+04  0.7818608E-02  0.8865137E-01
         -2   -1    0    0    0  501 -0.00000000000E+00  0.00000000000E+00  0.61595360927E+03  0.61595360927E+03  0.00000000000E+00 0.  1.
          2   -1    0    0  501    0  0.00000000000E+00 -0.00000000000E+00 -0.94936209353E+03  0.94936209353E+03  0.00000000000E+00 0. -1.
         23    2    1    2    0    0 -0.51506198572E+02 -0.48587825068E+03 -0.42259265057E+02  0.49805297043E+03  0.86835205379E+02 0.  0.
        254    2    1    2    0    0  0.51506198572E+02  0.48587825068E+03 -0.29114921920E+03  0.10672627324E+04  0.90307879452E+03 0.  0.
         23    2    4    4    0    0  0.36443804618E+03  0.37988057835E+03  0.10424399081E+03  0.54428618795E+03  0.90864192437E+02 0.  0.
         23    2    4    4    0    0 -0.31293184761E+03  0.10599767233E+03 -0.39539321001E+03  0.52297654442E+03  0.89480879021E+02 0.  0.
         13    1    3    3    0    0 -0.20805007494E+02 -0.43477897873E+03 -0.49152274844E+02  0.43804286868E+03  0.00000000000E+00 0.  1.
        -13    1    3    3    0    0 -0.30701191078E+02 -0.51099271954E+02  0.68930097866E+01  0.60010101748E+02  0.00000000000E+00 0. -1.
          1    1    5    5  502    0  0.11047300193E+03  0.12699858840E+03  0.76279047771E+02  0.18480102472E+03  0.00000000000E+00 0. -1.
          1    1    6    6  503    0 -0.75242638099E+02  0.66716941413E+02 -0.13337479094E+03  0.16703724051E+03  0.00000000000E+00 0. -1.
         -1    1    5    5    0  502  0.25396504425E+03  0.25288198995E+03  0.27964943035E+02  0.35948516323E+03  0.00000000000E+00 0.  1.
         -1    1    6    6    0  503 -0.23768920951E+03  0.39280730917E+02 -0.26201841907E+03  0.35593930391E+03  0.00000000000E+00 0.  1.
<mgrwt>
<rscale>  0 0.15293960E+04</rscale>
<asrwt>0</asrwt>
<pdfrwt beam="1">  1        2 0.14605571E+00 0.15293960E+04</pdfrwt>
<pdfrwt beam="2">  1       -2 0.94762094E-01 0.15293960E+04</pdfrwt>
<totfact> 0.24567643E+01</totfact>
</mgrwt>
</event>
<event>
12    1  0.4802930E-008  0.2129892E+04  0.7818608E-02  0.8548189E-01
         -2   -1    0    0    0  501 -0.00000000000E+00  0.00000000000E+00  0.10571423921E+04  0.10571423921E+04  0.00000000000E+00 0.  1.
          2   -1    0    0  501    0  0.00000000000E+00 -0.00000000000E+00 -0.10728074460E+04  0.10728074460E+04  0.00000000000E+00 0. -1.
         23    2    1    2    0    0  0.48885193075E+03  0.63821087059E+03 -0.34210852198E+03  0.87839675962E+03  0.90847680020E+02 0.  0.
        254    2    1    2    0    0 -0.48885193075E+03 -0.63821087059E+03  0.32644346810E+03  0.12515530785E+04  0.90195922572E+03 0.  0.
         23    2    4    4    0    0 -0.56734549873E+03 -0.41999008497E+03  0.56378049057E+03  0.90809412774E+03  0.92270888575E+02 0.  0.
         23    2    4    4    0    0  0.78493567976E+02 -0.21822078562E+03 -0.23733702247E+03  0.34345895075E+03  0.88620748847E+02 0.  0.
         11    1    3    3    0    0  0.37350983047E+03  0.42518754494E+03 -0.22100190126E+03  0.60756553736E+03  0.00000000000E+00 0.  1.
        -11    1    3    3    0    0  0.11534210028E+03  0.21302332566E+03 -0.12110662072E+03  0.27083122226E+03  0.00000000000E+00 0. -1.
          2    1    5    5  502    0 -0.11667063902E+03 -0.11361910599E+03  0.17244101210E+03  0.23718609131E+03  0.00000000000E+00 0. -1.
          4    1    6    6  503    0 -0.11031022320E+02 -0.54299755766E+02 -0.25360898163E+02  0.60937033775E+02  0.00000000000E+00 0. -1.
         -2    1    5    5    0  502 -0.45067485971E+03 -0.30637097898E+03  0.39133947846E+03  0.67090803643E+03  0.00000000000E+00 0.  1.
         -4    1    6    6    0  503  0.89524590296E+02 -0.16392102985E+03 -0.21197612430E+03  0.28252191697E+03  0.00000000000E+00 0.  1.
<mgrwt>
<rscale>  0 0.21298922E+04</rscale>
<asrwt>0</asrwt>
<pdfrwt beam="1">  1        2 0.16504730E+00 0.21298922E+04</pdfrwt>
<pdfrwt beam="2">  1       -2 0.16263729E+00 0.21298922E+04</pdfrwt>
<totfact> 0.50153521E+00</totfact>
</mgrwt>
</event>
<event>
12    1  0.4802930E-008  0.1360298E+04  0.7818608E-02  0.8983069E-01
          2   -1    0    0  501    0  0.00000000000E+00  0.00000000000E+00  0.10971687880E+04  0.10971687880E+04  0.00000000000E+00 0. -1.
         -2   -1    0    0    0  501 -0.00000000000E+00 -0.00000000000E+00 -0.42163320177E+03  0.42163320177E+03  0.00000000000E+00 0.  1.
         23    2    1    2    0    0 -0.19607672214E+03  0.10108369361E+03 -0.10382603135E+03  0.26123983342E+03  0.93821168720E+02 0.  0.
        254    2    1    2    0    0  0.19607672214E+03 -0.10108369361E+03  0.77936161756E+03  0.12575621563E+04  0.96197403918E+03 0.  0.
         23    2    4    4    0    0 -0.35080178681E+03  0.53690307824E+02  0.12882204484E+03  0.38815277445E+03  0.90127211729E+02 0.  0.
         23    2    4    4    0    0  0.54687850895E+03 -0.15477400144E+03  0.65053957273E+03  0.86940938190E+03  0.98182699990E+02 0.  0.
         13    1    3    3    0    0 -0.12304565005E+03  0.21996768386E+02 -0.24138926911E+02  0.12730584279E+03  0.00000000000E+00 0.  1.
        -13    1    3    3    0    0 -0.73031072088E+02  0.79086925227E+02 -0.79687104439E+02  0.13393399063E+03  0.00000000000E+00 0. -1.
          2    1    5    5  502    0 -0.34635452633E+03  0.37965645839E+02  0.12970399196E+03  0.37178753840E+03  0.00000000000E+00 0.  1.
          3    1    6    6  503    0  0.11027172363E+03 -0.57247284930E+02  0.19275363273E+03  0.22932742443E+03  0.00000000000E+00 0. -1.
         -2    1    5    5    0  502 -0.44472604715E+01  0.15724661985E+02 -0.88194712430E+00  0.16365236050E+02  0.00000000000E+00 0. -1.
         -3    1    6    6    0  503  0.43660678532E+03 -0.97526716507E+02  0.45778593999E+03  0.64008195746E+03  0.00000000000E+00 0.  1.
<mgrwt>
<rscale>  0 0.13602982E+04</rscale>
<asrwt>0</asrwt>
<pdfrwt beam="1">  1        2 0.16879520E+00 0.13602982E+04</pdfrwt>
<pdfrwt beam="2">  1       -2 0.64866647E-01 0.13602982E+04</pdfrwt>
<totfact> 0.46823589E+01</totfact>
</mgrwt>
</event>
<event>
12    1  0.4802930E-008  0.2135324E+04  0.7818608E-02  0.8545841E-01
         -2   -1    0    0    0  501 -0.00000000000E+00  0.00000000000E+00  0.78684690897E+03  0.78684690897E+03  0.00000000000E+00 0. -1.
          2   -1    0    0  501    0  0.00000000000E+00 -0.00000000000E+00 -0.14486955929E+04  0.14486955929E+04  0.00000000000E+00 0.  1.
         23    2    1    2    0    0  0.39139017334E+03 -0.20031403971E+03  0.52104515042E+03  0.68780020441E+03  0.90934537475E+02 0.  0.
        254    2    1    2    0    0 -0.39139017334E+03  0.20031403971E+03 -0.11828938343E+04  0.15477422974E+04  0.89607835244E+03 0.  0.
         23    2    4    4    0    0 -0.25330465038E+03  0.47872481913E+03 -0.34468002071E+03  0.64867490619E+03  0.92919959557E+02 0.  0.
         23    2    4    4    0    0 -0.13808552296E+03 -0.27841077942E+03 -0.83821381362E+03  0.89906739126E+03  0.95601270528E+02 0.  0.
         11    1    3    3    0    0  0.20654414185E+03 -0.12065520931E+03  0.21576903577E+03  0.32214040240E+03  0.00000000000E+00 0. -1.
        -11    1    3    3    0    0  0.18484603150E+03 -0.79658830399E+02  0.30527611465E+03  0.36565980200E+03  0.00000000000E+00 0.  1.
          1    1    5    5  502    0 -0.77368301409E+02  0.20545657168E+03 -0.18229832273E+03  0.28536106143E+03  0.00000000000E+00 0. -1.
          3    1    6    6  503    0 -0.14154672181E+03 -0.28108868598E+03 -0.83743911036E+03  0.89462315385E+03  0.00000000000E+00 0. -1.
         -1    1    5    5    0  502 -0.17593634897E+03  0.27326824745E+03 -0.16238169798E+03  0.36331384476E+03  0.00000000000E+00 0.  1.
         -3    1    6    6    0  503  0.34611988478E+01  0.26779065565E+01 -0.77470325851E+00  0.44442374068E+01  0.00000000000E+00 0.  1.
<mgrwt>
<rscale>  0 0.21353235E+04</rscale>
<asrwt>0</asrwt>
<pdfrwt beam="1">  1        2 0.22287624E+00 0.21353235E+04</pdfrwt>
<pdfrwt beam="2">  1       -2 0.12105337E+00 0.21353235E+04</pdfrwt>
<totfact> 0.64814172E+00</totfact>
</mgrwt>
</event>
<event>
12    1  0.4802930E-008  0.1889856E+04  0.7818608E-02  0.8659922E-01
         -2   -1    0    0    0  501 -0.00000000000E+00  0.00000000000E+00  0.30716353408E+03  0.30716353408E+03  0.00000000000E+00 0.  1.
          2   -1    0    0  501    0  0.00000000000E+00 -0.00000000000E+00 -0.29068850496E+04  0.29068850496E+04  0.00000000000E+00 0. -1.
         23    2    1    2    0    0  0.34429335994E+03  0.67141728758E+02  0.71322916493E+02  0.36918896098E+03  0.90374781057E+02 0.  0.
        254    2    1    2    0    0 -0.34429335994E+03 -0.67141728758E+02 -0.26710444320E+04  0.28448596227E+04  0.91416737289E+03 0.  0.
         23    2    4    4    0    0 -0.51265224850E+03 -0.30916150660E+03 -0.21980937055E+04  0.22800148995E+04  0.91971946183E+02 0.  0.
         23    2    4    4    0    0  0.16835888856E+03  0.24201977784E+03 -0.47295072650E+03  0.56484472315E+03  0.91917807620E+02 0.  0.
         13    1    3    3    0    0  0.15284544467E+03  0.12988014012E+02 -0.11176865068E+02  0.15380292838E+03  0.00000000000E+00 0. -1.
        -13    1    3    3    0    0  0.19144791527E+03  0.54153714746E+02  0.82499781561E+02  0.21538603260E+03  0.00000000000E+00 0.  1.
          2    1    5    5  502    0 -0.45353247441E+03 -0.24382502529E+03 -0.17945439473E+04  0.18669575055E+04  0.00000000000E+00 0. -1.
          2    1    6    6  503    0  0.10794104789E+03  0.99959619659E+02 -0.29218091075E+03  0.32712823172E+03  0.00000000000E+00 0. -1.
         -2    1    5    5    0  502 -0.59119774084E+02 -0.65336481317E+02 -0.40354975815E+03  0.41305739405E+03  0.00000000000E+00 0.  1.
         -2    1    6    6    0  503  0.60417840669E+02  0.14206015819E+03 -0.18076981575E+03  0.23771649143E+03  0.00000000000E+00 0.  1.
<mgrwt>
<rscale>  0 0.18898562E+04</rscale>
<asrwt>0</asrwt>
<pdfrwt beam="1">  1        2 0.44721310E+00 0.18898562E+04</pdfrwt>
<pdfrwt beam="2">  1       -2 0.47255926E-01 0.18898562E+04</pdfrwt>
<totfact> 0.79353564E+00</totfact>
</mgrwt>
</event>
<event>
12    1  0.4802930E-008  0.1171431E+04  0.7818608E-02  0.9138237E-01
          2   -1    0    0  501    0  0.00000000000E+00  0.00000000000E+00  0.40509533510E+04  0.40509533510E+04  0.00000000000E+00 0. -1.
         -2   -1    0    0    0  501 -0.00000000000E+00 -0.00000000000E+00 -0.84686887523E+02  0.84686887523E+02  0.00000000000E+00 0.  1.
         23    2    1    2    0    0 -0.12893816594E+03 -0.92207254800E+02  0.25358582305E+03  0.31268654083E+03  0.91322914379E+02 0.  0.
        254    2    1    2    0    0  0.12893816594E+03  0.92207254800E+02  0.37126806405E+04  0.38229536977E+04  0.89769159984E+03 0.  0.
         23    2    4    4    0    0 -0.16417189376E+03  0.37334992348E+03  0.26303407165E+04  0.26633315752E+04  0.91105536258E+02 0.  0.
         23    2    4    4    0    0  0.29311005970E+03 -0.28114266868E+03  0.10823399240E+04  0.11596221225E+04  0.91153983463E+02 0.  0.
         13    1    3    3    0    0 -0.72814288345E+02 -0.10298660753E+02  0.16067205650E+03  0.17670170553E+03  0.00000000000E+00 0.  1.
        -13    1    3    3    0    0 -0.56123877598E+02 -0.81908594047E+02  0.92913766558E+02  0.13598483530E+03  0.00000000000E+00 0. -1.
          4    1    5    5  502    0 -0.16134026909E+03  0.27044685503E+03  0.19989781378E+04  0.20236318289E+04  0.00000000000E+00 0. -1.
          1    1    6    6  503    0  0.16319272910E+03 -0.11970913553E+03  0.63814208812E+03  0.66946804897E+03  0.00000000000E+00 0. -1.
         -4    1    5    5    0  502 -0.28316246732E+01  0.10290306846E+03  0.63136257870E+03  0.63969974627E+03  0.00000000000E+00 0.  1.
         -1    1    6    6    0  503  0.12991733061E+03 -0.16143353316E+03  0.44419783587E+03  0.49015407354E+03  0.00000000000E+00 0.  1.
<mgrwt>
<rscale>  0 0.11714310E+04</rscale>
<asrwt>0</asrwt>
<pdfrwt beam="1">  1        2 0.62322344E+00 0.11714310E+04</pdfrwt>
<pdfrwt beam="2">  1       -2 0.13028755E-01 0.11714310E+04</pdfrwt>
<totfact> 0.14290297E+01</totfact>
</mgrwt>
</event>
<event>
12    1  0.4802930E-008  0.1978611E+04  0.7818608E-02  0.8616687E-01
         -2   -1    0    0    0  501 -0.00000000000E+00  0.00000000000E+00  0.17434094715E+04  0.17434094715E+04  0.00000000000E+00 0.  1.
          2   -1    0    0  501    0  0.00000000000E+00 -0.00000000000E+00 -0.56138580602E+03  0.56138580602E+03  0.00000000000E+00 0. -1.
         23    2    1    2    0    0 -0.17169389619E+03  0.24027811349E+03  0.13501791385E+04  0.13851910277E+04  0.92510060558E+02 0.  0.
        254    2    1    2    0    0  0.17169389619E+03 -0.24027811349E+03 -0.16815547307E+03  0.91960424980E+03  0.85450766369E+03 0.  0.
         23    2    4    4    0    0  0.40854574321E+03 -0.16318233191E+03  0.17815614016E+03  0.48369298311E+03  0.93172924665E+02 0.  0.
         23    2    4    4    0    0 -0.23685184702E+03 -0.77095781580E+02 -0.34631161323E+03  0.43591126668E+03  0.89690255821E+02 0.  0.
         13    1    3    3    0    0 -0.81403954044E+02  0.18304714650E+03  0.95666157565E+03  0.97741200725E+03  0.00000000000E+00 0.  1.
        -13    1    3    3    0    0 -0.90289942146E+02  0.57230966989E+02  0.39351756286E+03  0.40777902044E+03  0.00000000000E+00 0. -1.
          2    1    6    6  502    0 -0.12273784226E+03 -0.26876397388E+01 -0.20963158014E+03  0.24293456058E+03  0.00000000000E+00 0. -1.
          2    1    5    5  503    0  0.38495725339E+03 -0.15204676661E+03  0.18954099293E+03  0.45523191252E+03  0.00000000000E+00 0. -1.
         -2    1    5    5    0  503  0.23588489823E+02 -0.11135565300E+02 -0.11384852772E+02  0.28461070594E+02  0.00000000000E+00 0.  1.
         -2    1    6    6    0  502 -0.11411400476E+03 -0.74408141841E+02 -0.13668003309E+03  0.19297670611E+03  0.00000000000E+00 0.  1.
<mgrwt>
<rscale>  0 0.19786110E+04</rscale>
<asrwt>0</asrwt>
<pdfrwt beam="1">  1        2 0.86367048E-01 0.19786110E+04</pdfrwt>
<pdfrwt beam="2">  1       -2 0.26821684E+00 0.19786110E+04</pdfrwt>
<totfact> 0.24854728E+00</totfact>
</mgrwt>
</event>
<event>
12    1  0.4802930E-008  0.1356999E+04  0.7818608E-02  0.8985547E-01
         -1   -1    0    0    0  501 -0.00000000000E+00  0.00000000000E+00  0.23352565641E+03  0.23352565641E+03  0.00000000000E+00 0.  1.
          1   -1    0    0  501    0  0.00000000000E+00 -0.00000000000E+00 -0.19713539055E+04  0.19713539055E+04  0.00000000000E+00 0. -1.
         23    2    1    2    0    0  0.33944510517E+03 -0.13390527691E+03 -0.46619690028E+03  0.59870229330E+03  0.89169970112E+02 0.  0.
        254    2    1    2    0    0 -0.33944510517E+03  0.13390527691E+03 -0.12716313488E+04  0.16061772686E+04  0.91082683772E+03 0.  0.
         23    2    4    4    0    0 -0.54157638641E+03  0.30775232505E+03 -0.56628330499E+03  0.84671152030E+03  0.90703589798E+02 0.  0.
         23    2    4    4    0    0  0.20213128124E+03 -0.17384704814E+03 -0.70534804381E+03  0.75946574831E+03  0.90512479415E+02 0.  0.
         13    1    3    3    0    0  0.29718754401E+03 -0.89710058078E+02 -0.35328257817E+03  0.47029449377E+03  0.00000000000E+00 0. -1.
        -13    1    3    3    0    0  0.42257561157E+02 -0.44195218833E+02 -0.11291432211E+03  0.12840779953E+03  0.00000000000E+00 0.  1.
          1    1    5    5  502    0 -0.44022579892E+03  0.20984433538E+03 -0.42023273766E+03  0.64376156528E+03  0.00000000000E+00 0. -1.
          3    1    6    6  503    0  0.17010670954E+03 -0.10605968976E+03 -0.57693797999E+03  0.61077195677E+03  0.00000000000E+00 0. -1.
         -1    1    5    5    0  502 -0.10135058749E+03  0.97907989670E+02 -0.14605056733E+03  0.20294995502E+03  0.00000000000E+00 0.  1.
         -3    1    6    6    0  503  0.32024571700E+02 -0.67787358383E+02 -0.12841006383E+03  0.14869379153E+03  0.00000000000E+00 0.  1.
<mgrwt>
<rscale>  0 0.13569992E+04</rscale>
<asrwt>0</asrwt>
<pdfrwt beam="1">  1        1 0.30328522E+00 0.13569992E+04</pdfrwt>
<pdfrwt beam="2">  1       -1 0.35927024E-01 0.13569992E+04</pdfrwt>
<totfact> 0.22593209E+01</totfact>
</mgrwt>
</event>
<event>
12    1  0.4802930E-008  0.1426283E+04  0.7818608E-02  0.8935010E-01
         -2   -1    0    0    0  501 -0.00000000000E+00  0.00000000000E+00  0.31546372698E+03  0.31546372698E+03  0.00000000000E+00 0.  1.
          2   -1    0    0  501    0  0.00000000000E+00 -0.00000000000E+00 -0.16121377712E+04  0.16121377712E+04  0.00000000000E+00 0. -1.
         23    2    1    2    0    0  0.39848762113E+03 -0.15602130240E+03 -0.47708697322E+03  0.64708621416E+03  0.89294778880E+02 0.  0.
        254    2    1    2    0    0 -0.39848762113E+03  0.15602130240E+03 -0.81958707103E+03  0.12805152841E+04  0.88592403440E+03 0.  0.
         23    2    4    4    0    0 -0.46667405446E+03 -0.99462514513E+00 -0.93941938943E+03  0.10522966410E+04  0.83867568509E+02 0.  0.
         23    2    4    4    0    0  0.68186433330E+02  0.15701592754E+03  0.11983231840E+03  0.22821864306E+03  0.91763681888E+02 0.  0.
         13    1    3    3    0    0  0.16181802474E+03 -0.51203929577E+02 -0.12838230664E+03  0.21281196440E+03  0.00000000000E+00 0.  1.
        -13    1    3    3    0    0  0.23666959639E+03 -0.10481737282E+03 -0.34870466659E+03  0.43427424975E+03  0.00000000000E+00 0. -1.
          1    1    6    6  502    0  0.57935530183E+02  0.11316252206E+03  0.13023371078E+03  0.18199753152E+03  0.00000000000E+00 0. -1.
          1    1    5    5  503    0 -0.33401937087E+03  0.30503663570E+02 -0.61793779782E+03  0.70309781367E+03  0.00000000000E+00 0. -1.
         -1    1    5    5    0  503 -0.13265468359E+03 -0.31498288715E+02 -0.32148159161E+03  0.34919882734E+03  0.00000000000E+00 0.  1.
         -1    1    6    6    0  502  0.10250903147E+02  0.43853405483E+02 -0.10401392385E+02  0.46221111532E+02  0.00000000000E+00 0.  1.
<mgrwt>
<rscale>  0 0.14262833E+04</rscale>
<asrwt>0</asrwt>
<pdfrwt beam="1">  1        2 0.24802120E+00 0.14262833E+04</pdfrwt>
<pdfrwt beam="2">  1       -2 0.48532881E-01 0.14262833E+04</pdfrwt>
<totfact> 0.42877446E+01</totfact>
</mgrwt>
</event>
<event>
12    1  0.7314637E-008  0.1344534E+04  0.7818608E-02  0.8994976E-01
          1   -1    0    0  501    0  0.00000000000E+00  0.00000000000E+00  0.11121004646E+04  0.11121004646E+04  0.00000000000E+00 0. -1.
         -1   -1    0    0    0  501 -0.00000000000E+00 -0.00000000000E+00 -0.40638697640E+03  0.40638697640E+03  0.00000000000E+00 0.  1.
         23    2    1    2    0    0  0.22571218635E+03  0.25246842945E+02  0.52827885393E+03  0.58248247788E+03  0.92864930843E+02 0.  0.
        254    2    1    2    0    0 -0.22571218635E+03 -0.25246842945E+02  0.17743463423E+03  0.93600496308E+03  0.89052728613E+03 0.  0.
         23    2    4    4    0    0 -0.13830673950E+03 -0.76758320147E+02  0.52874525564E+03  0.55952823310E+03  0.92085310283E+02 0.  0.
         23    2    4    4    0    0 -0.87405446848E+02  0.51511477202E+02 -0.35131062142E+03  0.37647672998E+03  0.89568024825E+02 0.  0.
         13    1    3    3    0    0  0.17146911710E+03 -0.13782318686E+02  0.31409857744E+03  0.35811943088E+03  0.00000000000E+00 0.  1.
        -13    1    3    3    0    0  0.54243069255E+02  0.39029161632E+02  0.21418027649E+03  0.22436304700E+03  0.00000000000E+00 0. -1.
          1    1    5    5  502    0 -0.10623692005E+03 -0.79747714667E+02  0.49645754420E+03  0.51392224545E+03  0.00000000000E+00 0. -1.
          3    1    6    6  503    0 -0.10265580342E+03  0.50359644520E+02 -0.33563041881E+03  0.35457310361E+03  0.00000000000E+00 0. -1.
         -1    1    5    5    0  502 -0.32069819455E+02  0.29893945192E+01  0.32287711443E+02  0.45605987652E+02  0.00000000000E+00 0.  1.
         -3    1    6    6    0  503  0.15250356576E+02  0.11518326827E+01 -0.15680202606E+02  0.21903626366E+02  0.00000000000E+00 0.  1.
<mgrwt>
<rscale>  0 0.13445343E+04</rscale>
<asrwt>0</asrwt>
<pdfrwt beam="1">  1        1 0.17109238E+00 0.13445343E+04</pdfrwt>
<pdfrwt beam="2">  1       -1 0.62521074E-01 0.13445343E+04</pdfrwt>
<totfact> 0.31547903E+01</totfact>
</mgrwt>
</event>
<event>
12    1  0.4802930E-008  0.1939754E+04  0.7818608E-02  0.8635317E-01
          1   -1    0    0  501    0  0.00000000000E+00  0.00000000000E+00  0.20891611561E+04  0.20891611561E+04  0.00000000000E+00 0. -1.
         -1   -1    0    0    0  501 -0.00000000000E+00 -0.00000000000E+00 -0.45025797818E+03  0.45025797818E+03  0.00000000000E+00 0.  1.
         23    2    1    2    0    0  0.74291513827E+02 -0.58885881262E+03  0.25597342399E+02  0.60087571270E+03  0.90124735494E+02 0.  0.
        254    2    1    2    0    0 -0.74291513827E+02  0.58885881262E+03  0.16133058355E+04  0.19385434216E+04  0.89605856292E+03 0.  0.
         23    2    4    4    0    0  0.26731377249E+03  0.52242132147E+03  0.52808124196E+03  0.79471275952E+03  0.91202422856E+02 0.  0.
         23    2    4    4    0    0 -0.34160528631E+03  0.66437491147E+02  0.10852245935E+04  0.11438306621E+04  0.97611746956E+02 0.  0.
         13    1    3    3    0    0  0.31259974349E+02 -0.30586326034E+03  0.57729638173E+02  0.31282939623E+03  0.00000000000E+00 0. -1.
        -13    1    3    3    0    0  0.43031539478E+02 -0.28299555228E+03 -0.32132295775E+02  0.28804631647E+03  0.00000000000E+00 0.  1.
          1    1    5    5  502    0  0.19614000893E+03  0.31642102718E+03  0.37473388444E+03  0.52822216320E+03  0.00000000000E+00 0. -1.
          1    1    6    6  503    0 -0.22735311332E+03  0.86795886731E+02  0.78926618984E+03  0.82593225056E+03  0.00000000000E+00 0. -1.
         -1    1    5    5    0  502  0.71173763552E+02  0.20600029429E+03  0.15334735752E+03  0.26649059631E+03  0.00000000000E+00 0.  1.
         -1    1    6    6    0  503 -0.11425217300E+03 -0.20358395584E+02  0.29595840371E+03  0.31789841150E+03  0.00000000000E+00 0.  1.
<mgrwt>
<rscale>  0 0.19397541E+04</rscale>
<asrwt>0</asrwt>
<pdfrwt beam="1">  1        1 0.32140940E+00 0.19397541E+04</pdfrwt>
<pdfrwt beam="2">  1       -1 0.69270459E-01 0.19397541E+04</pdfrwt>
<totfact> 0.50954878E+00</totfact>
</mgrwt>
</event>
<event>
12    1  0.4802930E-008  0.1291303E+04  0.7818608E-02  0.9036490E-01
         -2   -1    0    0    0  501 -0.00000000000E+00  0.00000000000E+00  0.51529975593E+03  0.51529975593E+03  0.00000000000E+00 0.  1.
          2   -1    0    0  501    0  0.00000000000E+00 -0.00000000000E+00 -0.80897776084E+03  0.80897776084E+03  0.00000000000E+00 0. -1.
         23    2    1    2    0    0  0.50716575295E+02 -0.76842656447E+02 -0.37981355679E+03  0.40267186466E+03  0.97001689709E+02 0.  0.
        254    2    1    2    0    0 -0.50716575295E+02  0.76842656447E+02  0.86135551874E+02  0.92160565211E+03  0.91294067707E+03 0.  0.
         23    2    4    4    0    0  0.18397380777E+03 -0.13493516797E+03  0.39822056860E+03  0.46801754692E+03  0.91689374860E+02 0.  0.
         23    2    4    4    0    0 -0.23469038306E+03  0.21177782441E+03 -0.31208501673E+03  0.45358810519E+03  0.91737062791E+02 0.  0.
         11    1    3    3    0    0  0.70660920356E+02 -0.78770482049E+02 -0.35678240497E+03  0.37214437925E+03  0.00000000000E+00 0. -1.
        -11    1    3    3    0    0 -0.19944345061E+02  0.19278256018E+01 -0.23031151819E+02  0.30527485412E+02  0.00000000000E+00 0.  1.
          2    1    6    6  502    0 -0.19277127624E+03  0.12866573705E+03 -0.25408976574E+03  0.34391459097E+03  0.00000000000E+00 0.  1.
          2    1    5    5  503    0 -0.86128371410E+01 -0.67665279639E+01  0.55746968758E+01  0.12290000389E+02  0.00000000000E+00 0. -1.
         -2    1    5    5    0  503  0.19258664491E+03 -0.12816864000E+03  0.39264587173E+03  0.45572754653E+03  0.00000000000E+00 0.  1.
         -2    1    6    6    0  502 -0.41919106828E+02  0.83112087368E+02 -0.57995250992E+02  0.10967351422E+03  0.00000000000E+00 0. -1.
<mgrwt>
<rscale>  0 0.12913033E+04</rscale>
<asrwt>0</asrwt>
<pdfrwt beam="1">  1        2 0.12445812E+00 0.12913033E+04</pdfrwt>
<pdfrwt beam="2">  1       -2 0.79276886E-01 0.12913033E+04</pdfrwt>
<totfact> 0.46976200E+01</totfact>
</mgrwt>
</event>
<event>
12    1  0.4802930E-008  0.2282930E+04  0.7818608E-02  0.8484682E-01
         -2   -1    0    0    0  501 -0.00000000000E+00  0.00000000000E+00  0.78909396446E+03  0.78909396446E+03  0.00000000000E+00 0.  1.
          2   -1    0    0  501    0  0.00000000000E+00 -0.00000000000E+00 -0.16511884284E+04  0.16511884284E+04  0.00000000000E+00 0. -1.
         23    2    1    2    0    0 -0.51792961005E+03 -0.15360822671E+03 -0.11924387556E+04  0.13123084349E+04  0.91633367198E+02 0.  0.
        254    2    1    2    0    0  0.51792961005E+03  0.15360822671E+03  0.33034429167E+03  0.11279739580E+04  0.93346201350E+03 0.  0.
         23    2    4    4    0    0  0.20912035853E+03  0.26427201891E+03 -0.26779948583E+03  0.43997131191E+03  0.91033874795E+02 0.  0.
         23    2    4    4    0    0  0.30880925152E+03 -0.11066379220E+03  0.59814377750E+03  0.68800264612E+03  0.89230229032E+02 0.  0.
         11    1    3    3    0    0 -0.49518505346E+03 -0.16408601835E+03 -0.11167329448E+04  0.12325684276E+04  0.00000000000E+00 0. -1.
        -11    1    3    3    0    0 -0.22744556596E+02  0.10477791636E+02 -0.75705810823E+02  0.79740007304E+02  0.00000000000E+00 0.  1.
          4    1    5    5  502    0  0.18575587958E+03  0.18727535775E+03 -0.17216080283E+03  0.31498674330E+03  0.00000000000E+00 0. -1.
          4    1    6    6  503    0  0.27204301690E+03 -0.12579725181E+03  0.51568400147E+03  0.59645816365E+03  0.00000000000E+00 0. -1.
         -4    1    5    5    0  502  0.23364478951E+02  0.76996661158E+02 -0.95638682993E+02  0.12498456861E+03  0.00000000000E+00 0.  1.
         -4    1    6    6    0  503  0.36766234626E+02  0.15133459613E+02  0.82459776026E+02  0.91544482470E+02  0.00000000000E+00 0.  1.
<mgrwt>
<rscale>  0 0.22829304E+04</rscale>
<asrwt>0</asrwt>
<pdfrwt beam="1">  1        2 0.25402899E+00 0.22829304E+04</pdfrwt>
<pdfrwt beam="2">  1       -2 0.12139907E+00 0.22829304E+04</pdfrwt>
<totfact> 0.48907475E+00</totfact>
</mgrwt>
</event>
<event>
12    1  0.4802930E-008  0.1381085E+04  0.7818608E-02  0.8967625E-01
         -2   -1    0    0    0  501 -0.00000000000E+00  0.00000000000E+00  0.25396492095E+04  0.25396492095E+04  0.00000000000E+00 0.  1.
          2   -1    0    0  501    0  0.00000000000E+00 -0.00000000000E+00 -0.18776169641E+03  0.18776169641E+03  0.00000000000E+00 0. -1.
         23    2    1    2    0    0  0.25976750108E+01  0.34606289506E+03  0.10873405662E+04  0.11447006840E+04  0.90905851325E+02 0.  0.
        254    2    1    2    0    0 -0.25976750108E+01 -0.34606289506E+03  0.12645469469E+04  0.15827102219E+04  0.88663768833E+03 0.  0.
         23    2    4    4    0    0 -0.29958466753E+03 -0.38748941808E+03  0.32849605095E+03  0.59664042128E+03  0.90394218171E+02 0.  0.
         23    2    4    4    0    0  0.29698699251E+03  0.41426523016E+02  0.93605089591E+03  0.98606980060E+03  0.78898297703E+02 0.  0.
         11    1    3    3    0    0 -0.22760705580E+02  0.16773867115E+03  0.40421408324E+03  0.43822749412E+03  0.00000000000E+00 0. -1.
        -11    1    3    3    0    0  0.25358380590E+02  0.17832422392E+03  0.68312648295E+03  0.70647318987E+03  0.00000000000E+00 0.  1.
          2    1    6    6  502    0  0.10212623376E+03 -0.19825087402E+02  0.26775540317E+03  0.28725556155E+03  0.00000000000E+00 0. -1.
          2    1    5    5  503    0 -0.26607000163E+02 -0.46134887179E+02  0.72998362534E+02  0.90361060227E+02  0.00000000000E+00 0. -1.
         -2    1    5    5    0  503 -0.27297766736E+03 -0.34135453090E+03  0.25549768841E+03  0.50627936105E+03  0.00000000000E+00 0.  1.
         -2    1    6    6    0  502  0.19486075875E+03  0.61251610419E+02  0.66829549274E+03  0.69881423905E+03  0.00000000000E+00 0.  1.
<mgrwt>
<rscale>  0 0.13810849E+04</rscale>
<asrwt>0</asrwt>
<pdfrwt beam="1">  1        2 0.28886417E-01 0.13810849E+04</pdfrwt>
<pdfrwt beam="2">  1       -2 0.39071524E+00 0.13810849E+04</pdfrwt>
<totfact> 0.15650029E+00</totfact>
</mgrwt>
</event>
<event>
12    1  0.4802930E-008  0.1606262E+04  0.7818608E-02  0.8816710E-01
         -1   -1    0    0    0  501 -0.00000000000E+00  0.00000000000E+00  0.98691679263E+03  0.98691679263E+03  0.00000000000E+00 0.  1.
          1   -1    0    0  501    0  0.00000000000E+00 -0.00000000000E+00 -0.65357037997E+03  0.65357037997E+03  0.00000000000E+00 0. -1.
         23    2    1    2    0    0  0.64231629282E+00 -0.29321786195E+03 -0.35817773204E+03  0.47182769735E+03  0.91394535511E+02 0.  0.
        254    2    1    2    0    0 -0.64231629282E+00  0.29321786195E+03  0.69152414470E+03  0.11686594752E+04  0.89531123038E+03 0.  0.
         23    2    4    4    0    0 -0.12068229039E+03 -0.29589631691E+03  0.29288921198E+03  0.44255020275E+03  0.89150131156E+02 0.  0.
         23    2    4    4    0    0  0.12003997409E+03  0.58911417886E+03  0.39863493272E+03  0.72610927250E+03  0.82823637384E+02 0.  0.
         11    1    3    3    0    0 -0.23921538434E+02 -0.31353448042E+02 -0.22575668447E+02  0.45441605506E+02  0.00000000000E+00 0.  1.
        -11    1    3    3    0    0  0.24563854727E+02 -0.26186441391E+03 -0.33560206359E+03  0.42638609185E+03  0.00000000000E+00 0. -1.
          2    1    5    5  502    0 -0.92731590505E+02 -0.28171363122E+03  0.24201661101E+03  0.38279728042E+03  0.00000000000E+00 0. -1.
          1    1    6    6  503    0  0.12227121781E+03  0.49625057418E+03  0.31024552614E+03  0.59788558234E+03  0.00000000000E+00 0. -1.
         -2    1    5    5    0  502 -0.27950699881E+02 -0.14182685689E+02  0.50872600972E+02  0.59752922329E+02  0.00000000000E+00 0.  1.
         -1    1    6    6    0  503 -0.22312437134E+01  0.92863604679E+02  0.88389406582E+02  0.12822369016E+03  0.00000000000E+00 0.  1.
<mgrwt>
<rscale>  0 0.16062622E+04</rscale>
<asrwt>0</asrwt>
<pdfrwt beam="1">  1        1 0.10054929E+00 0.16062622E+04</pdfrwt>
<pdfrwt beam="2">  1       -1 0.15183335E+00 0.16062622E+04</pdfrwt>
<totfact> 0.97819031E+00</totfact>
</mgrwt>
</event>
<event>
12    1  0.4802930E-008  0.1324379E+04  0.7818608E-02  0.9010453E-01
          1   -1    0    0  501    0  0.00000000000E+00  0.00000000000E+00  0.13819860101E+04  0.13819860101E+04  0.00000000000E+00 0. -1.
         -1   -1    0    0    0  501 -0.00000000000E+00 -0.00000000000E+00 -0.31729333579E+03  0.31729333579E+03  0.00000000000E+00 0.  1.
         23    2    1    2    0    0  0.21823142424E+03 -0.23416042403E+03  0.12913673240E+03  0.35736814319E+03  0.92626321333E+02 0.  0.
        254    2    1    2    0    0 -0.21823142424E+03  0.23416042403E+03  0.93555594196E+03  0.13419112028E+04  0.90719606306E+03 0.  0.
         23    2    4    4    0    0  0.30149883219E+03  0.25279036071E+03  0.24485090045E+03  0.47248953180E+03  0.92140555279E+02 0.  0.
         23    2    4    4    0    0 -0.51973025643E+03 -0.18629936687E+02  0.69070504150E+03  0.86942167095E+03  0.91400074288E+02 0.  0.
         11    1    3    3    0    0  0.46490100116E+02 -0.93729573511E+02  0.88239941211E+01  0.10499726297E+03  0.00000000000E+00 0.  1.
        -11    1    3    3    0    0  0.17174132412E+03 -0.14043085052E+03  0.12031273828E+03  0.25237088021E+03  0.00000000000E+00 0. -1.
          2    1    5    5  502    0  0.28963613267E+03  0.25463897626E+03  0.21783153779E+03  0.44292287866E+03  0.00000000000E+00 0. -1.
          4    1    6    6  503    0 -0.72328448048E+02 -0.17968010091E+02  0.15097075133E+03  0.16836395558E+03  0.00000000000E+00 0.  1.
         -2    1    5    5    0  502  0.11862699512E+02 -0.18486155506E+01  0.27019362663E+02  0.29566653140E+02  0.00000000000E+00 0.  1.
         -4    1    6    6    0  503 -0.44740180838E+03 -0.66192659563E+00  0.53973429018E+03  0.70105771537E+03  0.00000000000E+00 0. -1.
<mgrwt>
<rscale>  0 0.13243790E+04</rscale>
<asrwt>0</asrwt>
<pdfrwt beam="1">  1        1 0.21261323E+00 0.13243790E+04</pdfrwt>
<pdfrwt beam="2">  1       -1 0.48814360E-01 0.13243790E+04</pdfrwt>
<totfact> 0.32589192E+01</totfact>
</mgrwt>
</event>
<event>
12    1  0.4802930E-008  0.3172192E+04  0.7818608E-02  0.8196200E-01
          1   -1    0    0  501    0  0.00000000000E+00  0.00000000000E+00  0.23014954270E+04  0.23014954270E+04  0.00000000000E+00 0. -1.
         -1   -1    0    0    0  501 -0.00000000000E+00 -0.00000000000E+00 -0.10930723155E+04  0.10930723155E+04  0.00000000000E+00 0.  1.
         23    2    1    2    0    0  0.46828312007E+03  0.43529595503E+03 -0.84567998268E+03  0.10640284620E+04  0.90610627586E+02 0.  0.
        254    2    1    2    0    0 -0.46828312007E+03 -0.43529595503E+03  0.20541030942E+04  0.23305392805E+04  0.89627125765E+03 0.  0.
         23    2    4    4    0    0 -0.64074591344E+03 -0.47436324879E+03  0.19440169608E+04  0.21030706925E+04  0.90158618301E+02 0.  0.
         23    2    4    4    0    0  0.17246279336E+03  0.39067293764E+02  0.11008613344E+03  0.22746858801E+03  0.91396571152E+02 0.  0.
         13    1    3    3    0    0  0.41085560005E+03  0.33813314059E+03 -0.71680028805E+03  0.89271439879E+03  0.00000000000E+00 0.  1.
        -13    1    3    3    0    0  0.57427520020E+02  0.97162814440E+02 -0.12887969463E+03  0.17131406321E+03  0.00000000000E+00 0. -1.
          3    1    5    5  502    0 -0.34347399880E+03 -0.21611359629E+03  0.10730915469E+04  0.11472597537E+04  0.00000000000E+00 0. -1.
          3    1    6    6  503    0  0.78948255909E+02  0.22744106744E+02  0.70604373474E-01  0.82159153402E+02  0.00000000000E+00 0. -1.
         -3    1    5    5    0  502 -0.29727191463E+03 -0.25824965250E+03  0.87092541386E+03  0.95581093881E+03  0.00000000000E+00 0.  1.
         -3    1    6    6    0  503  0.93514537453E+02  0.16323187020E+02  0.11001552907E+03  0.14530943461E+03  0.00000000000E+00 0.  1.
<mgrwt>
<rscale>  0 0.31721923E+04</rscale>
<asrwt>0</asrwt>
<pdfrwt beam="1">  1        1 0.35407622E+00 0.31721923E+04</pdfrwt>
<pdfrwt beam="2">  1       -1 0.16816497E+00 0.31721923E+04</pdfrwt>
<totfact> 0.39523243E-01</totfact>
</mgrwt>
</event>
<event>
12    1  0.4802930E-008  0.1296862E+04  0.7818608E-02  0.9032057E-01
         -2   -1    0    0    0  501 -0.00000000000E+00  0.00000000000E+00  0.17546695178E+03  0.17546695178E+03  0.00000000000E+00 0.  1.
          2   -1    0    0  501    0  0.00000000000E+00 -0.00000000000E+00 -0.23962511278E+04  0.23962511278E+04  0.00000000000E+00 0. -1.
         23    2    1    2    0    0  0.93875459118E+02 -0.31063497624E+03 -0.66744287619E+03  0.74773118070E+03  0.91187912139E+02 0.  0.
        254    2    1    2    0    0 -0.93875459118E+02  0.31063497624E+03 -0.15533412998E+04  0.18239868989E+04  0.89930657914E+03 0.  0.
         23    2    4    4    0    0  0.39006271292E+03  0.18495656021E+03 -0.83269352984E+03  0.94220055903E+03  0.89473625242E+02 0.  0.
         23    2    4    4    0    0 -0.48393817204E+03  0.12567841602E+03 -0.72064776998E+03  0.88178633986E+03  0.90679226797E+02 0.  0.
         13    1    3    3    0    0 -0.23093057890E+01 -0.11607142630E+03 -0.28935617589E+03  0.31177701234E+03  0.00000000000E+00 0. -1.
        -13    1    3    3    0    0  0.96184764907E+02 -0.19456354993E+03 -0.37808670030E+03  0.43595416836E+03  0.00000000000E+00 0.  1.
          2    1    5    5  502    0  0.10736817507E+03  0.95828959792E+02 -0.25060983935E+03  0.28899205202E+03  0.00000000000E+00 0. -1.
          3    1    6    6  503    0 -0.29210810246E+03  0.50709121274E+02 -0.48865180400E+03  0.57155852199E+03  0.00000000000E+00 0. -1.
         -2    1    5    5    0  502  0.28269453786E+03  0.89127600422E+02 -0.58208369049E+03  0.65320850701E+03  0.00000000000E+00 0.  1.
         -3    1    6    6    0  503 -0.19183006958E+03  0.74969294750E+02 -0.23199596598E+03  0.31022781787E+03  0.00000000000E+00 0.  1.
<mgrwt>
<rscale>  0 0.12968622E+04</rscale>
<asrwt>0</asrwt>
<pdfrwt beam="1">  1        2 0.36865399E+00 0.12968622E+04</pdfrwt>
<pdfrwt beam="2">  1       -2 0.26994918E-01 0.12968622E+04</pdfrwt>
<totfact> 0.49025643E+01</totfact>
</mgrwt>
</event>
<event>
12    1  0.4802930E-008  0.2268366E+04  0.7818608E-02  0.8490499E-01
          2   -1    0    0  501    0  0.00000000000E+00  0.00000000000E+00  0.11721394463E+04  0.11721394463E+04  0.00000000000E+00 0. -1.
         -2   -1    0    0    0  501 -0.00000000000E+00 -0.00000000000E+00 -0.10974559837E+04  0.10974559837E+04  0.00000000000E+00 0.  1.
         23    2    1    2    0    0 -0.42321337127E+03 -0.78715490295E+03 -0.28295516484E+03  0.94151413540E+03  0.87537666039E+02 0.  0.
        254    2    1    2    0    0  0.42321337127E+03  0.78715490295E+03  0.35763862740E+03  0.13280812946E+04  0.91497111339E+03 0.  0.
         23    2    4    4    0    0  0.14118573282E+03  0.18487669116E+03 -0.29829560830E+03  0.38947774927E+03  0.92735350114E+02 0.  0.
         23    2    4    4    0    0  0.28202763846E+03  0.60227821180E+03  0.65593423570E+03  0.93860354530E+03  0.91914419080E+02 0.  0.
         13    1    3    3    0    0 -0.40905195538E+03 -0.71415420575E+03 -0.26901429262E+03  0.86585704445E+03  0.00000000000E+00 0.  1.
        -13    1    3    3    0    0 -0.14161415891E+02 -0.73000697202E+02 -0.13940872222E+02  0.75657090946E+02  0.00000000000E+00 0. -1.
          1    1    5    5  502    0 -0.10164187762E+02 -0.45163954467E+00 -0.20157876087E+02  0.22579961459E+02  0.00000000000E+00 0. -1.
          3    1    6    6  503    0  0.20278317672E+03  0.32604457806E+03  0.37918634601E+03  0.53963725654E+03  0.00000000000E+00 0. -1.
         -1    1    5    5    0  502  0.15134992058E+03  0.18532833070E+03 -0.27813773222E+03  0.36689778781E+03  0.00000000000E+00 0.  1.
         -3    1    6    6    0  503  0.79244461732E+02  0.27623363374E+03  0.27674788969E+03  0.39896628876E+03  0.00000000000E+00 0.  1.
<mgrwt>
<rscale>  0 0.22683663E+04</rscale>
<asrwt>0</asrwt>
<pdfrwt beam="1">  1        2 0.18032915E+00 0.22683663E+04</pdfrwt>
<pdfrwt beam="2">  1       -2 0.16883938E+00 0.22683663E+04</pdfrwt>
<totfact> 0.38870572E+00</totfact>
</mgrwt>
</event>
<event>
12    1  0.4802930E-008  0.1861874E+04  0.7818608E-02  0.8674070E-01
          2   -1    0    0  501    0  0.00000000000E+00  0.00000000000E+00  0.11530168828E+04  0.11530168828E+04  0.00000000000E+00 0. -1.
         -2   -1    0    0    0  501 -0.00000000000E+00 -0.00000000000E+00 -0.75163144304E+03  0.75163144304E+03  0.00000000000E+00 0.  1.
         23    2    1    2    0    0 -0.35083155296E+03  0.18681047012E+03 -0.44338226971E+03  0.60220501652E+03  0.89900581385E+02 0.  0.
        254    2    1    2    0    0  0.35083155296E+03 -0.18681047012E+03  0.84476770952E+03  0.13024433094E+04  0.90815481100E+03 0.  0.
         23    2    4    4    0    0 -0.16100927182E+03 -0.33361815436E+03  0.59752519781E+03  0.70898934399E+03  0.91675892942E+02 0.  0.
         23    2    4    4    0    0  0.51184082477E+03  0.14680768424E+03  0.24724251171E+03  0.59345396536E+03  0.86748045215E+02 0.  0.
         11    1    3    3    0    0 -0.18394871923E+02 -0.10217401177E+02 -0.21345268903E+02  0.29973106353E+02  0.00000000000E+00 0. -1.
        -11    1    3    3    0    0 -0.33243668103E+03  0.19702787130E+03 -0.42203700081E+03  0.57223191017E+03  0.00000000000E+00 0.  1.
          1    1    6    6  502    0  0.34152562996E+03  0.13977641494E+03  0.17126867573E+03  0.40682940083E+03  0.00000000000E+00 0. -1.
          1    1    5    5  503    0 -0.53997802536E+02 -0.21577588870E+03  0.34655004841E+03  0.41179112773E+03  0.00000000000E+00 0. -1.
         -1    1    5    5    0  503 -0.10701146928E+03 -0.11784226566E+03  0.25097514940E+03  0.29719821627E+03  0.00000000000E+00 0.  1.
         -1    1    6    6    0  502  0.17031519481E+03  0.70312692949E+01  0.75973835981E+02  0.18662456453E+03  0.00000000000E+00 0.  1.
<mgrwt>
<rscale>  0 0.18618740E+04</rscale>
<asrwt>0</asrwt>
<pdfrwt beam="1">  1        2 0.17738721E+00 0.18618740E+04</pdfrwt>
<pdfrwt beam="2">  1       -2 0.11563561E+00 0.18618740E+04</pdfrwt>
<totfact> 0.11050526E+01</totfact>
</mgrwt>
</event>
<event>
12    1  0.4802930E-008  0.1862938E+04  0.7818608E-02  0.8673528E-01
         -1   -1    0    0    0  501 -0.00000000000E+00  0.00000000000E+00  0.39425530183E+03  0.39425530183E+03  0.00000000000E+00 0.  1.
          1   -1    0    0  501    0  0.00000000000E+00 -0.00000000000E+00 -0.22006919000E+04  0.22006919000E+04  0.00000000000E+00 0. -1.
         23    2    1    2    0    0  0.55377292300E+03  0.24219790687E+03 -0.17089841349E+03  0.63425726783E+03  0.88043953368E+02 0.  0.
        254    2    1    2    0    0 -0.55377292300E+03 -0.24219790687E+03 -0.16355381847E+04  0.19606899340E+04  0.89665801030E+03 0.  0.
         23    2    4    4    0    0 -0.27622792039E+03  0.32884120306E+03 -0.62462864919E+03  0.76351912563E+03  0.91444545956E+02 0.  0.
         23    2    4    4    0    0 -0.27754500261E+03 -0.57103910993E+03 -0.10109095355E+04  0.11971708084E+04  0.90349111439E+02 0.  0.
         11    1    3    3    0    0  0.22896807605E+02  0.24356014376E+01  0.88173016865E+01  0.24656454772E+02  0.00000000000E+00 0. -1.
        -11    1    3    3    0    0  0.53087611539E+03  0.23976230544E+03 -0.17971571518E+03  0.60960081306E+03  0.00000000000E+00 0.  1.
          4    1    5    5  502    0 -0.71776816329E+02  0.84013575225E+02 -0.23723935937E+03  0.26171111138E+03  0.00000000000E+00 0. -1.
          1    1    6    6  503    0 -0.25746679020E+02 -0.13793118789E+03 -0.21797765765E+03  0.25923380047E+03  0.00000000000E+00 0. -1.
         -4    1    5    5    0  502 -0.20445110406E+03  0.24482762783E+03 -0.38738928982E+03  0.50180801425E+03  0.00000000000E+00 0.  1.
         -1    1    6    6    0  503 -0.25179832359E+03 -0.43310792204E+03 -0.79293187788E+03  0.93793700793E+03  0.00000000000E+00 0.  1.
<mgrwt>
<rscale>  0 0.18629379E+04</rscale>
<asrwt>0</asrwt>
<pdfrwt beam="1">  1        1 0.33856799E+00 0.18629379E+04</pdfrwt>
<pdfrwt beam="2">  1       -1 0.60654661E-01 0.18629379E+04</pdfrwt>
<totfact> 0.56315983E+00</totfact>
</mgrwt>
</event>
<event>
12    1  0.4802930E-008  0.1774062E+04  0.7818608E-02  0.8720216E-01
          2   -1    0    0  501    0  0.00000000000E+00  0.00000000000E+00  0.68631165892E+03  0.68631165892E+03  0.00000000000E+00 0.  1.
         -2   -1    0    0    0  501 -0.00000000000E+00 -0.00000000000E+00 -0.11464532310E+04  0.11464532310E+04  0.00000000000E+00 0. -1.
         23    2    1    2    0    0 -0.28952005707E+03  0.28693876920E+02 -0.77904093361E+03  0.83635271483E+03  0.89083586231E+02 0.  0.
        254    2    1    2    0    0  0.28952005707E+03 -0.28693876920E+02  0.31889936155E+03  0.99641217507E+03  0.89805078799E+03 0.  0.
         23    2    4    4    0    0  0.19661709343E+02  0.16820566676E+02 -0.29941412863E+03  0.31438078984E+03  0.92287303144E+02 0.  0.
         23    2    4    4    0    0  0.26985834773E+03 -0.45514443596E+02  0.61831349018E+03  0.68203138523E+03  0.89219649680E+02 0.  0.
         13    1    3    3    0    0 -0.12291301789E+03  0.49724677584E+02 -0.27981214820E+03  0.30963687088E+03  0.00000000000E+00 0.  1.
        -13    1    3    3    0    0 -0.16660703918E+03 -0.21030800664E+02 -0.49922878542E+03  0.52671584395E+03  0.00000000000E+00 0. -1.
          2    1    5    5  502    0  0.38069441751E+02  0.85051813649E+01 -0.28906499378E+03  0.29168508899E+03  0.00000000000E+00 0.  1.
          3    1    6    6  503    0  0.91236289575E+02 -0.51983628907E+02  0.28653333995E+03  0.30516833570E+03  0.00000000000E+00 0. -1.
         -2    1    5    5    0  502 -0.18407732408E+02  0.83153853112E+01 -0.10349134842E+02  0.22695700854E+02  0.00000000000E+00 0. -1.
         -3    1    6    6    0  503  0.17862205815E+03  0.64691853114E+01  0.33178015023E+03  0.37686304953E+03  0.00000000000E+00 0.  1.
<mgrwt>
<rscale>  0 0.17740623E+04</rscale>
<asrwt>0</asrwt>
<pdfrwt beam="1">  1        2 0.10558641E+00 0.17740623E+04</pdfrwt>
<pdfrwt beam="2">  1       -2 0.17637742E+00 0.17740623E+04</pdfrwt>
<totfact> 0.76309595E+00</totfact>
</mgrwt>
</event>
<event>
12    1  0.4802930E-008  0.2407651E+04  0.7818608E-02  0.8436645E-01
         -2   -1    0    0    0  501 -0.00000000000E+00  0.00000000000E+00  0.13795509197E+04  0.13795509197E+04  0.00000000000E+00 0.  1.
          2   -1    0    0  501    0  0.00000000000E+00 -0.00000000000E+00 -0.10504836344E+04  0.10504836344E+04  0.00000000000E+00 0. -1.
         23    2    1    2    0    0  0.33325647815E+03 -0.95332356349E+03  0.39758476315E+03  0.10891645895E+04  0.91214923448E+02 0.  0.
        254    2    1    2    0    0 -0.33325647815E+03  0.95332356349E+03 -0.68517477757E+02  0.13408699646E+04  0.87940429850E+03 0.  0.
         23    2    4    4    0    0 -0.56383528972E+03  0.35985084383E+03  0.83914370190E+02  0.68024997946E+03  0.91079906040E+02 0.  0.
         23    2    4    4    0    0  0.23057881157E+03  0.59347271966E+03 -0.15243184795E+03  0.66061998512E+03  0.88356319240E+02 0.  0.
         11    1    3    3    0    0  0.20591153042E+03 -0.71045334742E+03  0.29620084673E+03  0.79679260716E+03  0.00000000000E+00 0.  1.
        -11    1    3    3    0    0  0.12734494773E+03 -0.24287021608E+03  0.10138391641E+03  0.29237198237E+03  0.00000000000E+00 0. -1.
          2    1    5    5  502    0 -0.55998286569E+03  0.36511614105E+03  0.82456254069E+02  0.67356487450E+03  0.00000000000E+00 0. -1.
          4    1    6    6  503    0  0.54692666281E+02  0.20664834098E+03 -0.86499006298E+02  0.23060117663E+03  0.00000000000E+00 0.  1.
         -2    1    5    5    0  502 -0.38524240294E+01 -0.52652972165E+01  0.14581161212E+01  0.66851049582E+01  0.00000000000E+00 0.  1.
         -4    1    6    6    0  503  0.17588614529E+03  0.38682437868E+03 -0.65932841649E+02  0.43001880849E+03  0.00000000000E+00 0. -1.
<mgrwt>
<rscale>  0 0.24076509E+04</rscale>
<asrwt>0</asrwt>
<pdfrwt beam="1">  1        2 0.16161287E+00 0.24076509E+04</pdfrwt>
<pdfrwt beam="2">  1       -2 0.21223860E+00 0.24076509E+04</pdfrwt>
<totfact> 0.23282517E+00</totfact>
</mgrwt>
</event>
<event>
12    1  0.4802930E-008  0.1670099E+04  0.7818608E-02  0.8778604E-01
          2   -1    0    0  501    0  0.00000000000E+00  0.00000000000E+00  0.23134773449E+04  0.23134773449E+04  0.00000000000E+00 0. -1.
         -2   -1    0    0    0  501 -0.00000000000E+00 -0.00000000000E+00 -0.30141106951E+03  0.30141106951E+03  0.00000000000E+00 0.  1.
         23    2    1    2    0    0  0.41323028081E+02  0.34385478127E+03  0.13893968433E+04  0.14347578160E+04  0.90347656808E+02 0.  0.
        254    2    1    2    0    0 -0.41323028081E+02 -0.34385478127E+03  0.62266943205E+03  0.11801305984E+04  0.94076952779E+03 0.  0.
         23    2    4    4    0    0 -0.26397383281E+03  0.71601641893E+01  0.69469128065E+03  0.74880671630E+03  0.91553648740E+02 0.  0.
         23    2    4    4    0    0  0.22265080473E+03 -0.35101494546E+03 -0.72021848599E+02  0.43132388210E+03  0.89823559329E+02 0.  0.
         11    1    3    3    0    0 -0.21387880967E+02  0.33271874933E+02  0.11706470691E+03  0.12356619569E+03  0.00000000000E+00 0.  1.
        -11    1    3    3    0    0  0.62710909048E+02  0.31058290634E+03  0.12723321364E+04  0.13111916203E+04  0.00000000000E+00 0. -1.
          2    1    5    5  502    0 -0.11044729488E+03  0.38662100477E+02  0.37378764223E+03  0.39167660696E+03  0.00000000000E+00 0.  1.
          2    1    6    6  503    0  0.39228324825E+02 -0.29291705320E+02 -0.32768595364E+02  0.58912191533E+02  0.00000000000E+00 0. -1.
         -2    1    5    5    0  502 -0.15352653794E+03 -0.31501936287E+02  0.32090363843E+03  0.35713010934E+03  0.00000000000E+00 0. -1.
         -2    1    6    6    0  503  0.18342247991E+03 -0.32172324014E+03 -0.39253253235E+02  0.37241169057E+03  0.00000000000E+00 0.  1.
<mgrwt>
<rscale>  0 0.16700990E+04</rscale>
<asrwt>0</asrwt>
<pdfrwt beam="1">  1        2 0.35591958E+00 0.16700990E+04</pdfrwt>
<pdfrwt beam="2">  1       -2 0.46370935E-01 0.16700990E+04</pdfrwt>
<totfact> 0.18750516E+01</totfact>
</mgrwt>
</event>
<event>
12    1  0.4802930E-008  0.1706068E+04  0.7818608E-02  0.8757911E-01
          2   -1    0    0  501    0  0.00000000000E+00  0.00000000000E+00  0.27819123359E+04  0.27819123359E+04  0.00000000000E+00 0. -1.
         -2   -1    0    0    0  501 -0.00000000000E+00 -0.00000000000E+00 -0.26157093061E+03  0.26157093061E+03  0.00000000000E+00 0.  1.
         23    2    1    2    0    0  0.44206371486E+03  0.35178406657E+03  0.53102465243E+03  0.78065130853E+03  0.90867631908E+02 0.  0.
        254    2    1    2    0    0 -0.44206371486E+03 -0.35178406657E+03  0.19893167528E+04  0.22628319580E+04  0.91861578982E+03 0.  0.
         23    2    4    4    0    0 -0.85846294970E+01 -0.12666767499E+03 -0.49122021410E+02  0.16463140631E+03  0.92585804554E+02 0.  0.
         23    2    4    4    0    0 -0.43347908537E+03 -0.22511639158E+03  0.20384387742E+04  0.20982005516E+04  0.92905389150E+02 0.  0.
         13    1    3    3    0    0  0.46307854490E+02  0.56895420040E+02  0.10838602069E+03  0.13087794195E+03  0.00000000000E+00 0. -1.
        -13    1    3    3    0    0  0.39575586037E+03  0.29488864653E+03  0.42263863174E+03  0.64977336658E+03  0.00000000000E+00 0.  1.
          4    1    5    5  502    0 -0.82586702221E+01  0.91052447020E+01  0.10668014107E+02  0.16276290730E+02  0.00000000000E+00 0. -1.
          1    1    6    6  503    0 -0.13716033042E+03 -0.66868811914E+02  0.83144558311E+03  0.84533197734E+03  0.00000000000E+00 0. -1.
         -4    1    5    5    0  502 -0.32595927490E+00 -0.13577291970E+03 -0.59790035517E+02  0.14835511558E+03  0.00000000000E+00 0.  1.
         -1    1    6    6    0  503 -0.29631875494E+03 -0.15824757966E+03  0.12069931911E+04  0.12528685743E+04  0.00000000000E+00 0.  1.
<mgrwt>
<rscale>  0 0.17060685E+04</rscale>
<asrwt>0</asrwt>
<pdfrwt beam="1">  1        2 0.42798649E+00 0.17060685E+04</pdfrwt>
<pdfrwt beam="2">  1       -2 0.40241684E-01 0.17060685E+04</pdfrwt>
<totfact> 0.13224529E+01</totfact>
</mgrwt>
</event>
<event>
12    1  0.4802930E-008  0.1169440E+04  0.7818608E-02  0.9140034E-01
         -2   -1    0    0    0  501 -0.00000000000E+00  0.00000000000E+00  0.23139592099E+03  0.23139592099E+03  0.00000000000E+00 0.  1.
          2   -1    0    0  501    0  0.00000000000E+00 -0.00000000000E+00 -0.14775440813E+04  0.14775440813E+04  0.00000000000E+00 0. -1.
         23    2    1    2    0    0  0.59558507312E+02 -0.15907483971E+03 -0.69032129200E+02  0.20603833075E+03  0.93991161563E+02 0.  0.
        254    2    1    2    0    0 -0.59558507312E+02  0.15907483971E+03 -0.11771160311E+04  0.15029016716E+04  0.91883581951E+03 0.  0.
         23    2    4    4    0    0 -0.91491871566E+02 -0.22633071933E+03  0.12941381804E+01  0.25935436802E+03  0.87559444631E+02 0.  0.
         23    2    4    4    0    0  0.31933364254E+02  0.38540555904E+03 -0.11784101693E+04  0.12435473035E+04  0.90565911453E+02 0.  0.
         11    1    3    3    0    0 -0.16879675694E+02  0.61653502776E+00 -0.34537919231E+01  0.17240424752E+02  0.00000000000E+00 0. -1.
        -11    1    3    3    0    0  0.76438183006E+02 -0.15969137474E+03 -0.65578337277E+02  0.18879790599E+03  0.00000000000E+00 0.  1.
          1    1    5    5  502    0 -0.53110289800E+01 -0.16651607729E+02  0.25983382177E+02  0.31314840223E+02  0.00000000000E+00 0. -1.
          3    1    6    6  503    0  0.25183243744E+01 -0.36155703808E+01 -0.37933741251E+02  0.38188781495E+02  0.00000000000E+00 0. -1.
         -1    1    5    5    0  502 -0.86180842586E+02 -0.20967911160E+03 -0.24689243997E+02  0.22803952780E+03  0.00000000000E+00 0.  1.
         -3    1    6    6    0  503  0.29415039880E+02  0.38902112942E+03 -0.11404764281E+04  0.12053585221E+04  0.00000000000E+00 0.  1.
<mgrwt>
<rscale>  0 0.11694403E+04</rscale>
<asrwt>0</asrwt>
<pdfrwt beam="1">  1        2 0.22731448E+00 0.11694403E+04</pdfrwt>
<pdfrwt beam="2">  1       -2 0.35599372E-01 0.11694403E+04</pdfrwt>
<totfact> 0.95762704E+01</totfact>
</mgrwt>
</event>
<event>
12    1  0.4802930E-008  0.2461127E+04  0.7818608E-02  0.8416967E-01
         -1   -1    0    0    0  501 -0.00000000000E+00  0.00000000000E+00  0.60345567746E+03  0.60345567746E+03  0.00000000000E+00 0.  1.
          1   -1    0    0  501    0  0.00000000000E+00 -0.00000000000E+00 -0.25093586534E+04  0.25093586534E+04  0.00000000000E+00 0. -1.
         23    2    1    2    0    0 -0.58031234224E+03  0.52094206951E+03  0.85633052741E+02  0.78995606185E+03  0.92490570279E+02 0.  0.
        254    2    1    2    0    0  0.58031234224E+03 -0.52094206951E+03 -0.19915360287E+04  0.23228582690E+04  0.90626250615E+03 0.  0.
         23    2    4    4    0    0 -0.84407987448E+02  0.13701309973E+03 -0.98185099262E+02  0.20910018099E+03  0.90472504812E+02 0.  0.
         23    2    4    4    0    0  0.66472032969E+03 -0.65795516924E+03 -0.18933509295E+04  0.21137580881E+04  0.91855273874E+02 0.  0.
         11    1    3    3    0    0 -0.52164440915E+03  0.42623677125E+03  0.80505721207E+02  0.67843337617E+03  0.00000000000E+00 0.  1.
        -11    1    3    3    0    0 -0.58667933096E+02  0.94705298259E+02  0.51273315334E+01  0.11152268568E+03  0.00000000000E+00 0. -1.
          4    1    5    5  502    0  0.25231673765E+00  0.41757141265E+02  0.88369114350E+01  0.42682707436E+02  0.00000000000E+00 0. -1.
          1    1    6    6  503    0  0.77351443812E+02 -0.41770288078E+02 -0.15633075000E+03  0.17935246366E+03  0.00000000000E+00 0. -1.
         -4    1    5    5    0  502 -0.84660304186E+02  0.95255958470E+02 -0.10702201070E+03  0.16641747355E+03  0.00000000000E+00 0.  1.
         -1    1    6    6    0  503  0.58736888588E+03 -0.61618488116E+03 -0.17370201795E+04  0.19344056244E+04  0.00000000000E+00 0.  1.
<mgrwt>
<rscale>  0 0.24611272E+04</rscale>
<asrwt>0</asrwt>
<pdfrwt beam="1">  1        1 0.38605517E+00 0.24611272E+04</pdfrwt>
<pdfrwt beam="2">  1       -1 0.92839336E-01 0.24611272E+04</pdfrwt>
<totfact> 0.13408693E+00</totfact>
</mgrwt>
</event>
<event>
12    1  0.4802930E-008  0.2196829E+04  0.7818608E-02  0.8519749E-01
          2   -1    0    0  501    0  0.00000000000E+00  0.00000000000E+00  0.19442339909E+04  0.19442339909E+04  0.00000000000E+00 0. -1.
         -2   -1    0    0    0  501 -0.00000000000E+00 -0.00000000000E+00 -0.62056033562E+03  0.62056033562E+03  0.00000000000E+00 0.  1.
         23    2    1    2    0    0 -0.83144838711E+02 -0.78148357355E+03  0.28700593222E+02  0.79180745962E+03  0.92226293025E+02 0.  0.
        254    2    1    2    0    0  0.83144838711E+02  0.78148357355E+03  0.12949730620E+04  0.17729868669E+04  0.92135636905E+03 0.  0.
         23    2    4    4    0    0 -0.21839709233E+03 -0.78973394492E+02  0.10152410382E+03  0.26798926498E+03  0.87046053965E+02 0.  0.
         23    2    4    4    0    0  0.30154193104E+03  0.86045696805E+03  0.11934489582E+04  0.15049976019E+04  0.96869168566E+02 0.  0.
         13    1    3    3    0    0 -0.69753333349E+02 -0.65624708587E+03  0.58020565766E+02  0.66248935937E+03  0.00000000000E+00 0.  1.
        -13    1    3    3    0    0 -0.13391505362E+02 -0.12523648768E+03 -0.29319972544E+02  0.12931810025E+03  0.00000000000E+00 0. -1.
          4    1    5    5  502    0 -0.95932033088E+02  0.32214104196E+01  0.15456997168E+02  0.97222688807E+02  0.00000000000E+00 0. -1.
          3    1    6    6  503    0  0.76206192834E+02  0.18085262803E+03  0.32258417453E+03  0.37759185181E+03  0.00000000000E+00 0. -1.
         -4    1    5    5    0  502 -0.12246505924E+03 -0.82194804912E+02  0.86067106647E+02  0.17076657617E+03  0.00000000000E+00 0.  1.
         -3    1    6    6    0  503  0.22533573821E+03  0.67960434001E+03  0.87086478368E+03  0.11274057501E+04  0.00000000000E+00 0.  1.
<mgrwt>
<rscale>  0 0.21968291E+04</rscale>
<asrwt>0</asrwt>
<pdfrwt beam="1">  1        2 0.29911292E+00 0.21968291E+04</pdfrwt>
<pdfrwt beam="2">  1       -2 0.95470822E-01 0.21968291E+04</pdfrwt>
<totfact> 0.60438666E+00</totfact>
</mgrwt>
</event>
<event>
12    1  0.4802930E-008  0.5935871E+04  0.7818608E-02  0.7698404E-01
         -2   -1    0    0    0  501 -0.00000000000E+00  0.00000000000E+00  0.27264631469E+04  0.27264631469E+04  0.00000000000E+00 0.  1.
          2   -1    0    0  501    0  0.00000000000E+00 -0.00000000000E+00 -0.32307943831E+04  0.32307943831E+04  0.00000000000E+00 0. -1.
         23    2    1    2    0    0 -0.26170661429E+04 -0.60315843203E+03 -0.13358018044E+04  0.30009163832E+04  0.91089999797E+02 0.  0.
        254    2    1    2    0    0  0.26170661429E+04  0.60315843203E+03  0.83147056820E+03  0.29563411468E+04  0.91420696772E+03 0.  0.
         23    2    4    4    0    0  0.18202948543E+01  0.13872746994E+03 -0.17003328518E+02  0.16646300956E+03  0.90400199016E+02 0.  0.
         23    2    4    4    0    0  0.26152458480E+04  0.46443096209E+03  0.84847389672E+03  0.27898781372E+04  0.91132336627E+02 0.  0.
         11    1    3    3    0    0 -0.26670785512E+03 -0.63196874293E+02 -0.10616974097E+03  0.29393696399E+03  0.00000000000E+00 0. -1.
        -11    1    3    3    0    0 -0.23503582878E+04 -0.53996155773E+03 -0.12296320634E+04  0.27069794192E+04  0.00000000000E+00 0.  1.
          4    1    5    5  502    0 -0.30747546437E+02  0.10635417257E+03  0.13209275245E+02  0.11149487247E+03  0.00000000000E+00 0. -1.
          1    1    6    6  503    0  0.21697228288E+04  0.36771749034E+03  0.73377956051E+03  0.23197727798E+04  0.00000000000E+00 0. -1.
         -4    1    5    5    0  502  0.32567841291E+02  0.32373297369E+02 -0.30212603763E+02  0.54968137089E+02  0.00000000000E+00 0.  1.
         -1    1    6    6    0  503  0.44552301921E+03  0.96713471752E+02  0.11469433621E+03  0.47010535736E+03  0.00000000000E+00 0.  1.
<mgrwt>
<rscale>  0 0.59358712E+04</rscale>
<asrwt>0</asrwt>
<pdfrwt beam="1">  1        2 0.49704529E+00 0.59358712E+04</pdfrwt>
<pdfrwt beam="2">  1       -2 0.41945587E+00 0.59358712E+04</pdfrwt>
<totfact> 0.46349024E-03</totfact>
</mgrwt>
</event>
<event>
12    1  0.4802930E-008  0.1909828E+04  0.7818608E-02  0.8649980E-01
         -4   -1    0    0    0  501 -0.00000000000E+00  0.00000000000E+00  0.50857390046E+03  0.50857390046E+03  0.00000000000E+00 0.  1.
          4   -1    0    0  501    0  0.00000000000E+00 -0.00000000000E+00 -0.17929753694E+04  0.17929753694E+04  0.00000000000E+00 0. -1.
         23    2    1    2    0    0  0.38818491601E+03  0.94030625581E+02  0.24835428382E+03  0.47988342928E+03  0.95283617909E+02 0.  0.
        254    2    1    2    0    0 -0.38818491601E+03 -0.94030625581E+02 -0.15327557528E+04  0.18216658406E+04  0.89977605523E+03 0.  0.
         23    2    4    4    0    0  0.12955581854E+03  0.13250231775E+03 -0.22548780197E+02  0.20663674818E+03  0.88593023888E+02 0.  0.
         23    2    4    4    0    0 -0.51774073456E+03 -0.22653294333E+03 -0.15102069726E+04  0.16150290924E+04  0.90670980489E+02 0.  0.
         11    1    3    3    0    0  0.85085392811E+02  0.65892531133E+01  0.99446736734E+02  0.13104425120E+03  0.00000000000E+00 0. -1.
        -11    1    3    3    0    0  0.30309952320E+03  0.87441372468E+02  0.14890754708E+03  0.34883917808E+03  0.00000000000E+00 0.  1.
          2    1    5    5  502    0  0.12172510662E+03  0.78806047059E+02  0.63691810743E+01  0.14514806613E+03  0.00000000000E+00 0. -1.
          1    1    6    6  503    0 -0.34968050301E+03 -0.16921311977E+03 -0.91901432036E+03  0.99774588705E+03  0.00000000000E+00 0. -1.
         -2    1    5    5    0  502  0.78307119213E+01  0.53696270690E+02 -0.28917961271E+02  0.61488682042E+02  0.00000000000E+00 0.  1.
         -1    1    6    6    0  503 -0.16806023155E+03 -0.57319823556E+02 -0.59119265221E+03  0.61728320537E+03  0.00000000000E+00 0.  1.
<mgrwt>
<rscale>  0 0.19098277E+04</rscale>
<asrwt>0</asrwt>
<pdfrwt beam="1">  1        4 0.27584236E+00 0.19098277E+04</pdfrwt>
<pdfrwt beam="2">  1       -4 0.78242139E-01 0.19098277E+04</pdfrwt>
<totfact> 0.11943333E-01</totfact>
</mgrwt>
</event>
<event>
12    1  0.4802930E-008  0.2332995E+04  0.7818608E-02  0.8465024E-01
         -1   -1    0    0    0  501 -0.00000000000E+00  0.00000000000E+00  0.57522893501E+03  0.57522893501E+03  0.00000000000E+00 0.  1.
          1   -1    0    0  501    0  0.00000000000E+00 -0.00000000000E+00 -0.23655210770E+04  0.23655210770E+04  0.00000000000E+00 0. -1.
         23    2    1    2    0    0 -0.90383060600E+03  0.38653633713E+03 -0.63390658409E+03  0.11732691436E+04  0.91666906615E+02 0.  0.
        254    2    1    2    0    0  0.90383060600E+03 -0.38653633713E+03 -0.11563855579E+04  0.17674808684E+04  0.90578195906E+03 0.  0.
         23    2    4    4    0    0  0.62803543346E+03  0.65975026167E+02 -0.10354492838E+04  0.12165299622E+04  0.94914276255E+02 0.  0.
         23    2    4    4    0    0  0.27579517254E+03 -0.45251136330E+03 -0.12093627409E+03  0.55095090618E+03  0.89954474748E+02 0.  0.
         13    1    3    3    0    0 -0.40949461070E+03  0.20463385124E+03 -0.25114102450E+03  0.52214237852E+03  0.00000000000E+00 0. -1.
        -13    1    3    3    0    0 -0.49433599530E+03  0.18190248589E+03 -0.38276555959E+03  0.65112676510E+03  0.00000000000E+00 0.  1.
          4    1    5    5  502    0  0.53937818542E+03  0.69258369258E+02 -0.94182621070E+03  0.10875486931E+04  0.00000000000E+00 0. -1.
          3    1    6    6  503    0  0.16418067523E+03 -0.32373391533E+03 -0.50212428988E+02  0.36644266957E+03  0.00000000000E+00 0. -1.
         -4    1    5    5    0  502  0.88657248047E+02 -0.32833430901E+01 -0.93623073153E+02  0.12898126918E+03  0.00000000000E+00 0.  1.
         -3    1    6    6    0  503  0.11161449730E+03 -0.12877744797E+03 -0.70723845107E+02  0.18450823662E+03  0.00000000000E+00 0.  1.
<mgrwt>
<rscale>  0 0.23329948E+04</rscale>
<asrwt>0</asrwt>
<pdfrwt beam="1">  1        1 0.36392632E+00 0.23329948E+04</pdfrwt>
<pdfrwt beam="2">  1       -1 0.88496758E-01 0.23329948E+04</pdfrwt>
<totfact> 0.18956170E+00</totfact>
</mgrwt>
</event>
<event>
12    1  0.4802930E-008  0.1395565E+04  0.7818608E-02  0.8957035E-01
         -3   -1    0    0    0  501 -0.00000000000E+00  0.00000000000E+00  0.12613144850E+04  0.12613144850E+04  0.00000000000E+00 0.  1.
          3   -1    0    0  501    0  0.00000000000E+00 -0.00000000000E+00 -0.38602635074E+03  0.38602635074E+03  0.00000000000E+00 0. -1.
         23    2    1    2    0    0 -0.27961133099E+03  0.95969183042E+02  0.59348487884E+03  0.66756938763E+03  0.77665986031E+02 0.  0.
        254    2    1    2    0    0  0.27961133099E+03 -0.95969183042E+02  0.28180325538E+03  0.97977144807E+03  0.89058769091E+03 0.  0.
         23    2    4    4    0    0  0.47304565394E+02 -0.99387142350E+02  0.57601733072E+03  0.59369701708E+03  0.92545431143E+02 0.  0.
         23    2    4    4    0    0  0.23230676559E+03  0.34179593073E+01 -0.29421407534E+03  0.38607443099E+03  0.92268241308E+02 0.  0.
         11    1    3    3    0    0 -0.90647264756E+02  0.29264100927E+00  0.13611287252E+03  0.16353509199E+03  0.00000000000E+00 0. -1.
        -11    1    3    3    0    0 -0.18896406623E+03  0.95676542033E+02  0.45737200631E+03  0.50403429564E+03  0.00000000000E+00 0.  1.
          4    1    5    5  502    0  0.11243771628E+02 -0.78444716878E+02  0.50626573145E+03  0.51243047025E+03  0.00000000000E+00 0. -1.
          1    1    6    6  503    0  0.17075220231E+03  0.41176785119E+02 -0.23031419507E+03  0.28964887481E+03  0.00000000000E+00 0. -1.
         -4    1    5    5    0  502  0.36060793766E+02 -0.20942425472E+02  0.69751599277E+02  0.81266546828E+02  0.00000000000E+00 0.  1.
         -1    1    6    6    0  503  0.61554563283E+02 -0.37758825811E+02 -0.63899880269E+02  0.96425556187E+02  0.00000000000E+00 0.  1.
<mgrwt>
<rscale>  0 0.13955653E+04</rscale>
<asrwt>0</asrwt>
<pdfrwt beam="1">  1        3 0.59388670E-01 0.13955653E+04</pdfrwt>
<pdfrwt beam="2">  1       -3 0.19404838E+00 0.13955653E+04</pdfrwt>
<totfact> 0.11317524E+00</totfact>
</mgrwt>
</event>
<event>
12    1  0.4802930E-008  0.1769771E+04  0.7818608E-02  0.8722542E-01
          2   -1    0    0  501    0  0.00000000000E+00  0.00000000000E+00  0.48784290529E+03  0.48784290529E+03  0.00000000000E+00 0.  1.
         -2   -1    0    0    0  501 -0.00000000000E+00 -0.00000000000E+00 -0.16050701611E+04  0.16050701611E+04  0.00000000000E+00 0. -1.
         23    2    1    2    0    0 -0.11721116316E+03 -0.41458635013E+03  0.15771706670E+03  0.46955275071E+03  0.99924041571E+02 0.  0.
        254    2    1    2    0    0  0.11721116316E+03  0.41458635013E+03 -0.12749443226E+04  0.16233603157E+04  0.90785207527E+03 0.  0.
         23    2    4    4    0    0 -0.10754864130E+02 -0.12241382670E+03 -0.97771641145E+03  0.98944337605E+03  0.89263660649E+02 0.  0.
         23    2    4    4    0    0  0.12796602729E+03  0.53700017684E+03 -0.29722791110E+03  0.63391693968E+03  0.93604279863E+02 0.  0.
         11    1    3    3    0    0  0.13168347987E+02 -0.10621661257E+02  0.12050117608E+02  0.20770902988E+02  0.00000000000E+00 0. -1.
        -11    1    3    3    0    0 -0.13037951115E+03 -0.40396468888E+03  0.14566694910E+03  0.44878184772E+03  0.00000000000E+00 0.  1.
          3    1    6    6  502    0  0.27631449759E+02  0.20621283668E+03 -0.15805462799E+03  0.26128240748E+03  0.00000000000E+00 0. -1.
          3    1    5    5  503    0 -0.22144668941E+01 -0.13442728331E+03 -0.81015155246E+03  0.82123147548E+03  0.00000000000E+00 0. -1.
         -3    1    5    5    0  503 -0.85403972360E+01  0.12013456606E+02 -0.16756485899E+03  0.16821190057E+03  0.00000000000E+00 0.  1.
         -3    1    6    6    0  502  0.10033457753E+03  0.33078734016E+03 -0.13917328311E+03  0.37263453220E+03  0.00000000000E+00 0.  1.
<mgrwt>
<rscale>  0 0.17697707E+04</rscale>
<asrwt>0</asrwt>
<pdfrwt beam="1">  1        2 0.75052754E-01 0.17697707E+04</pdfrwt>
<pdfrwt beam="2">  1       -2 0.24693387E+00 0.17697707E+04</pdfrwt>
<totfact> 0.40244335E+00</totfact>
</mgrwt>
</event>
<event>
12    1  0.4802930E-008  0.1709511E+04  0.7818608E-02  0.8755958E-01
          1   -1    0    0  501    0  0.00000000000E+00  0.00000000000E+00  0.29759737378E+04  0.29759737378E+04  0.00000000000E+00 0. -1.
         -1   -1    0    0    0  501 -0.00000000000E+00 -0.00000000000E+00 -0.24550184346E+03  0.24550184346E+03  0.00000000000E+00 0.  1.
         23    2    1    2    0    0  0.28363075794E+03 -0.37415119414E+03  0.28472163065E+03  0.55642617384E+03  0.90045305525E+02 0.  0.
        254    2    1    2    0    0 -0.28363075794E+03  0.37415119414E+03  0.24457502637E+04  0.26650494074E+04  0.94887220887E+03 0.  0.
         23    2    4    4    0    0 -0.60802225926E+03  0.10322252116E+03  0.15386526414E+04  0.16601742681E+04  0.91546124274E+02 0.  0.
         23    2    4    4    0    0  0.32439150132E+03  0.27092867298E+03  0.90709762228E+03  0.10048751393E+04  0.91190774476E+02 0.  0.
         11    1    3    3    0    0  0.11780984058E+03 -0.22244097696E+03  0.17306963326E+03  0.30547053004E+03  0.00000000000E+00 0. -1.
        -11    1    3    3    0    0  0.16582091737E+03 -0.15171021718E+03  0.11165199740E+03  0.25095564380E+03  0.00000000000E+00 0.  1.
          4    1    5    5  502    0 -0.33838829823E+03  0.76759539721E+02  0.97216792240E+03  0.10322350201E+04  0.00000000000E+00 0. -1.
          1    1    6    6  503    0  0.26962997274E+03  0.18728125101E+03  0.63210590639E+03  0.71227274697E+03  0.00000000000E+00 0. -1.
         -4    1    5    5    0  502 -0.26963396103E+03  0.26462981442E+02  0.56648471901E+03  0.62793924801E+03  0.00000000000E+00 0.  1.
         -1    1    6    6    0  503  0.54761528576E+02  0.83647421967E+02  0.27499171589E+03  0.29260239237E+03  0.00000000000E+00 0.  1.
<mgrwt>
<rscale>  0 0.17095111E+04</rscale>
<asrwt>0</asrwt>
<pdfrwt beam="1">  1        1 0.45784209E+00 0.17095111E+04</pdfrwt>
<pdfrwt beam="2">  1       -1 0.37769516E-01 0.17095111E+04</pdfrwt>
<totfact> 0.40172480E+00</totfact>
</mgrwt>
</event>
<event>
12    1  0.4802930E-008  0.1297141E+04  0.7818608E-02  0.9031835E-01
          1   -1    0    0  501    0  0.00000000000E+00  0.00000000000E+00  0.10077076323E+04  0.10077076323E+04  0.00000000000E+00 0. -1.
         -1   -1    0    0    0  501 -0.00000000000E+00 -0.00000000000E+00 -0.41742641515E+03  0.41742641515E+03  0.00000000000E+00 0.  1.
         23    2    1    2    0    0  0.10789017280E+02  0.85754598285E+02  0.50064857968E+03  0.51624448804E+03  0.91592123382E+02 0.  0.
        254    2    1    2    0    0 -0.10789017280E+02 -0.85754598285E+02  0.89632637459E+02  0.90888955940E+03  0.90031992507E+03 0.  0.
         23    2    4    4    0    0  0.12255282659E+03  0.80924589390E+02 -0.36188508176E+03  0.40141105671E+03  0.92747180951E+02 0.  0.
         23    2    4    4    0    0 -0.13334184387E+03 -0.16667918768E+03  0.45151771922E+03  0.50747850269E+03  0.90023224754E+02 0.  0.
         11    1    3    3    0    0  0.50970603345E+02  0.46184815252E+02  0.30292399111E+03  0.31063480802E+03  0.00000000000E+00 0. -1.
        -11    1    3    3    0    0 -0.40181586064E+02  0.39569783032E+02  0.19772458858E+03  0.20560968002E+03  0.00000000000E+00 0.  1.
          1    1    5    5  502    0  0.85539745217E+02  0.90815399862E+02 -0.20553344840E+03  0.24043394784E+03  0.00000000000E+00 0. -1.
          3    1    6    6  503    0 -0.18536215946E+02 -0.56949899041E+02  0.59088409324E+02  0.84132766618E+02  0.00000000000E+00 0. -1.
         -1    1    5    5    0  502  0.37013081374E+02 -0.98908104719E+01 -0.15635163336E+03  0.16097710887E+03  0.00000000000E+00 0.  1.
         -3    1    6    6    0  503 -0.11480562793E+03 -0.10972928863E+03  0.39242930989E+03  0.42334573607E+03  0.00000000000E+00 0.  1.
<mgrwt>
<rscale>  0 0.12971411E+04</rscale>
<asrwt>0</asrwt>
<pdfrwt beam="1">  1        1 0.15503194E+00 0.12971411E+04</pdfrwt>
<pdfrwt beam="2">  1       -1 0.64219449E-01 0.12971411E+04</pdfrwt>
<totfact> 0.36062429E+01</totfact>
</mgrwt>
</event>
<event>
12    1  0.4802930E-008  0.2009720E+04  0.7818608E-02  0.8602090E-01
          1   -1    0    0  501    0  0.00000000000E+00  0.00000000000E+00  0.28479436746E+04  0.28479436746E+04  0.00000000000E+00 0. -1.
         -1   -1    0    0    0  501 -0.00000000000E+00 -0.00000000000E+00 -0.35455185131E+03  0.35455185131E+03  0.00000000000E+00 0.  1.
         23    2    1    2    0    0 -0.35535796977E+03 -0.65908859145E+03  0.14552846869E+04  0.16391705862E+04  0.91376324584E+02 0.  0.
        254    2    1    2    0    0  0.35535796977E+03  0.65908859145E+03  0.10381071364E+04  0.15633249397E+04  0.89757527953E+03 0.  0.
         23    2    4    4    0    0  0.28879261960E+03 -0.12965834545E+03  0.51162117817E+03  0.60835662028E+03  0.90161431925E+02 0.  0.
         23    2    4    4    0    0  0.66565350171E+02  0.78874693690E+03  0.52648595821E+03  0.95496831942E+03  0.90688205328E+02 0.  0.
         11    1    3    3    0    0 -0.10792775766E+03 -0.17016675500E+03  0.31304307128E+03  0.37229167310E+03  0.00000000000E+00 0.  1.
        -11    1    3    3    0    0 -0.24743021211E+03 -0.48892183645E+03  0.11422416157E+04  0.12668789131E+04  0.00000000000E+00 0. -1.
          2    1    5    5  502    0  0.13662678216E+03 -0.90483552546E+02  0.32818909535E+03  0.36682725252E+03  0.00000000000E+00 0. -1.
          1    1    6    6  503    0  0.32140161336E+02  0.96372788579E+02  0.90353688966E+02  0.13595768996E+03  0.00000000000E+00 0. -1.
         -2    1    5    5    0  502  0.15216583744E+03 -0.39174792907E+02  0.18343208281E+03  0.24152936776E+03  0.00000000000E+00 0.  1.
         -1    1    6    6    0  503  0.34425188835E+02  0.69237414833E+03  0.43613226925E+03  0.81901062946E+03  0.00000000000E+00 0.  1.
<mgrwt>
<rscale>  0 0.20097201E+04</rscale>
<asrwt>0</asrwt>
<pdfrwt beam="1">  1        1 0.43814517E+00 0.20097201E+04</pdfrwt>
<pdfrwt beam="2">  1       -1 0.54546440E-01 0.20097201E+04</pdfrwt>
<totfact> 0.24266989E+00</totfact>
</mgrwt>
</event>
<event>
12    1  0.4802930E-008  0.1383574E+04  0.7818608E-02  0.8965795E-01
          2   -1    0    0  501    0  0.00000000000E+00  0.00000000000E+00  0.14065957530E+04  0.14065957530E+04  0.00000000000E+00 0. -1.
         -2   -1    0    0    0  501 -0.00000000000E+00 -0.00000000000E+00 -0.34023246598E+03  0.34023246598E+03  0.00000000000E+00 0.  1.
         23    2    1    2    0    0 -0.11747180664E+03 -0.30786872064E+03  0.40720250251E+02  0.34406605387E+03  0.90224919760E+02 0.  0.
        254    2    1    2    0    0  0.11747180664E+03  0.30786872064E+03  0.10256430368E+04  0.14027621651E+04  0.89845160050E+03 0.  0.
         23    2    4    4    0    0  0.44820886984E+03 -0.53992252878E+01  0.32014652261E+03  0.55819286128E+03  0.90361118919E+02 0.  0.
         23    2    4    4    0    0 -0.33073706320E+03  0.31326794592E+03  0.70549651414E+03  0.84456930380E+03  0.89711574164E+02 0.  0.
         11    1    3    3    0    0 -0.32129937747E+02 -0.13132471970E+02  0.16986917877E+01  0.34751694541E+02  0.00000000000E+00 0. -1.
        -11    1    3    3    0    0 -0.85341868890E+02 -0.29473624867E+03  0.39021558463E+02  0.30931435933E+03  0.00000000000E+00 0.  1.
          2    1    5    5  502    0  0.25345911800E+03 -0.26949561677E+02  0.13415990858E+03  0.28803938002E+03  0.00000000000E+00 0. -1.
          3    1    6    6  503    0 -0.41195565909E+02  0.57857810685E+01  0.73037536789E+02  0.84053742887E+02  0.00000000000E+00 0. -1.
         -2    1    5    5    0  502  0.19474975183E+03  0.21550336389E+02  0.18598661403E+03  0.27015348126E+03  0.00000000000E+00 0.  1.
         -3    1    6    6    0  503 -0.28954149729E+03  0.30748216486E+03  0.63245897735E+03  0.76051556091E+03  0.00000000000E+00 0.  1.
<mgrwt>
<rscale>  0 0.13835744E+04</rscale>
<asrwt>0</asrwt>
<pdfrwt beam="1">  1        2 0.21639934E+00 0.13835744E+04</pdfrwt>
<pdfrwt beam="2">  1       -2 0.52343457E-01 0.13835744E+04</pdfrwt>
<totfact> 0.48143281E+01</totfact>
</mgrwt>
</event>
<event>
12    1  0.4802930E-008  0.2263461E+04  0.7818608E-02  0.8492469E-01
         -1   -1    0    0    0  501 -0.00000000000E+00  0.00000000000E+00  0.14090233349E+04  0.14090233349E+04  0.00000000000E+00 0.  1.
          1   -1    0    0  501    0  0.00000000000E+00 -0.00000000000E+00 -0.90900853335E+03  0.90900853335E+03  0.00000000000E+00 0. -1.
         23    2    1    2    0    0 -0.64584819694E+03 -0.22533966272E+03 -0.48487211515E+03  0.84352239058E+03  0.92364486022E+02 0.  0.
        254    2    1    2    0    0  0.64584819694E+03  0.22533966272E+03  0.98488691668E+03  0.14745094776E+04  0.85806649155E+03 0.  0.
         23    2    4    4    0    0  0.55263374939E+03 -0.23172310099E+03  0.42420061907E+03  0.73976492511E+03  0.90588756004E+02 0.  0.
         23    2    4    4    0    0  0.93214447549E+02  0.45706276371E+03  0.56068629761E+03  0.73474455252E+03  0.88798254126E+02 0.  0.
         13    1    3    3    0    0 -0.43219658161E+03 -0.14318067714E+03 -0.37384271019E+03  0.58911201263E+03  0.00000000000E+00 0. -1.
        -13    1    3    3    0    0 -0.21365161533E+03 -0.82158985577E+02 -0.11102940496E+03  0.25441037795E+03  0.00000000000E+00 0.  1.
          4    1    5    5  502    0  0.22560393461E+03 -0.11827507956E+03  0.22809039979E+03  0.34192303262E+03  0.00000000000E+00 0. -1.
          1    1    6    6  503    0  0.83021332152E+02  0.30573665121E+03  0.32029940446E+03  0.45050987778E+03  0.00000000000E+00 0. -1.
         -4    1    5    5    0  502  0.32702981478E+03 -0.11344802143E+03  0.19611021927E+03  0.39784189250E+03  0.00000000000E+00 0.  1.
         -1    1    6    6    0  503  0.10193115397E+02  0.15132611250E+03  0.24038689315E+03  0.28423467474E+03  0.00000000000E+00 0.  1.
<mgrwt>
<rscale>  0 0.22634613E+04</rscale>
<asrwt>0</asrwt>
<pdfrwt beam="1">  1        1 0.13984747E+00 0.22634613E+04</pdfrwt>
<pdfrwt beam="2">  1       -1 0.21677282E+00 0.22634613E+04</pdfrwt>
<totfact> 0.18764450E+00</totfact>
</mgrwt>
</event>
<event>
12    1  0.4802930E-008  0.1854108E+04  0.7818608E-02  0.8678043E-01
         -2   -1    0    0    0  501 -0.00000000000E+00  0.00000000000E+00  0.67957541299E+03  0.67957541299E+03  0.00000000000E+00 0.  1.
          2   -1    0    0  501    0  0.00000000000E+00 -0.00000000000E+00 -0.12646557677E+04  0.12646557677E+04  0.00000000000E+00 0. -1.
         23    2    1    2    0    0 -0.37707456762E+03 -0.54068718087E+03 -0.47040537694E+03  0.81631693133E+03  0.10278256964E+03 0.  0.
        254    2    1    2    0    0  0.37707456762E+03  0.54068718087E+03 -0.11467497780E+03  0.11279142494E+04  0.90802662203E+03 0.  0.
         23    2    4    4    0    0  0.34892373576E+03  0.73883413452E+03  0.89265867985E+02  0.82763003139E+03  0.96847415894E+02 0.  0.
         23    2    4    4    0    0  0.28150831864E+02 -0.19814695365E+03 -0.20394084578E+03  0.30028421799E+03  0.92325827467E+02 0.  0.
         13    1    3    3    0    0 -0.58902496031E+02 -0.13541944823E+03 -0.14475495269E+03  0.20678957257E+03  0.00000000000E+00 0.  1.
        -13    1    3    3    0    0 -0.31817207159E+03 -0.40526773264E+03 -0.32565042425E+03  0.60952735875E+03  0.00000000000E+00 0. -1.
          1    1    5    5  502    0  0.25293652802E+03  0.57519358488E+03  0.10580140339E+03  0.63719579742E+03  0.00000000000E+00 0. -1.
          1    1    6    6  503    0  0.31158282498E+02 -0.20397789109E+03 -0.20765674492E+03  0.29274415850E+03  0.00000000000E+00 0. -1.
         -1    1    5    5    0  502  0.95987207739E+02  0.16364054964E+03 -0.16535535404E+02  0.19043423397E+03  0.00000000000E+00 0.  1.
         -1    1    6    6    0  503 -0.30074506337E+01  0.58309374383E+01  0.37158991391E+01  0.75400594915E+01  0.00000000000E+00 0.  1.
<mgrwt>
<rscale>  0 0.18541078E+04</rscale>
<asrwt>0</asrwt>
<pdfrwt beam="1">  1        2 0.19456243E+00 0.18541078E+04</pdfrwt>
<pdfrwt beam="2">  1       -2 0.10455006E+00 0.18541078E+04</pdfrwt>
<totfact> 0.12107330E+01</totfact>
</mgrwt>
</event>
<event>
12    1  0.4802930E-008  0.1824763E+04  0.7818608E-02  0.8693241E-01
          2   -1    0    0  501    0  0.00000000000E+00  0.00000000000E+00  0.15639423033E+04  0.15639423033E+04  0.00000000000E+00 0. -1.
         -2   -1    0    0    0  501 -0.00000000000E+00 -0.00000000000E+00 -0.53227004002E+03  0.53227004002E+03  0.00000000000E+00 0.  1.
         23    2    1    2    0    0 -0.64070396625E+03  0.10590206400E+03  0.65384277384E+03  0.92594060047E+03  0.90215315612E+02 0.  0.
        254    2    1    2    0    0  0.64070396625E+03 -0.10590206400E+03  0.37782948946E+03  0.11702717429E+04  0.89725359265E+03 0.  0.
         23    2    4    4    0    0 -0.19370329258E+03 -0.18917401347E+02  0.22790679989E+03  0.31307291978E+03  0.90522428342E+02 0.  0.
         23    2    4    4    0    0  0.83440725883E+03 -0.86984662656E+02  0.14992268957E+03  0.85719882309E+03  0.92256188550E+02 0.  0.
         13    1    3    3    0    0 -0.12170821365E+03  0.41023260740E+02  0.89813323186E+02  0.15672341948E+03  0.00000000000E+00 0.  1.
        -13    1    3    3    0    0 -0.51899575260E+03  0.64878803264E+02  0.56402945065E+03  0.76921718099E+03  0.00000000000E+00 0. -1.
          2    1    5    5  502    0 -0.14445487645E+03  0.14853939901E+02  0.19999745962E+03  0.24715750993E+03  0.00000000000E+00 0. -1.
          4    1    6    6  503    0  0.81239962402E+03 -0.71200864856E+02  0.15364667906E+03  0.82986144280E+03  0.00000000000E+00 0. -1.
         -2    1    5    5    0  502 -0.49248416137E+02 -0.33771341247E+02  0.27909340269E+02  0.65915409851E+02  0.00000000000E+00 0.  1.
         -4    1    6    6    0  503  0.22007634810E+02 -0.15783797801E+02 -0.37239894944E+01  0.27337380282E+02  0.00000000000E+00 0.  1.
<mgrwt>
<rscale>  0 0.18247626E+04</rscale>
<asrwt>0</asrwt>
<pdfrwt beam="1">  1        2 0.24060651E+00 0.18247626E+04</pdfrwt>
<pdfrwt beam="2">  1       -2 0.81887699E-01 0.18247626E+04</pdfrwt>
<totfact> 0.14435994E+01</totfact>
</mgrwt>
</event>
<event>
12    1  0.4802930E-008  0.1243929E+04  0.7818608E-02  0.9075251E-01
         -1   -1    0    0    0  501 -0.00000000000E+00  0.00000000000E+00  0.40316005470E+03  0.40316005470E+03  0.00000000000E+00 0.  1.
          1   -1    0    0  501    0  0.00000000000E+00 -0.00000000000E+00 -0.95951921584E+03  0.95951921584E+03  0.00000000000E+00 0. -1.
         23    2    1    2    0    0  0.13647828141E+03 -0.11035935518E+03  0.10105476044E+03  0.23211608201E+03  0.11340327309E+03 0.  0.
        254    2    1    2    0    0 -0.13647828141E+03  0.11035935518E+03 -0.65741392158E+03  0.11305631885E+04  0.90287017361E+03 0.  0.
         23    2    4    4    0    0  0.39082076635E+02 -0.37888259393E+03 -0.27954093100E+03  0.48160510294E+03  0.93385836103E+02 0.  0.
         23    2    4    4    0    0 -0.17556035804E+03  0.48924194911E+03 -0.37787299058E+03  0.64895808559E+03  0.90440454194E+02 0.  0.
         11    1    3    3    0    0 -0.14344669647E+02 -0.39862771136E+02  0.17458186246E+02  0.45821374237E+02  0.00000000000E+00 0. -1.
        -11    1    3    3    0    0  0.15082295105E+03 -0.70496584043E+02  0.83596574198E+02  0.18629470777E+03  0.00000000000E+00 0.  1.
          4    1    5    5  502    0 -0.15587507187E+02 -0.62292514260E+02 -0.83150203772E+02  0.10505847943E+03  0.00000000000E+00 0. -1.
          1    1    6    6  503    0 -0.62573568675E+02  0.10542376887E+03 -0.12800045287E+03  0.17723921258E+03  0.00000000000E+00 0. -1.
         -4    1    5    5    0  502  0.54669583823E+02 -0.31659007967E+03 -0.19639072722E+03  0.37654662351E+03  0.00000000000E+00 0.  1.
         -1    1    6    6    0  503 -0.11298678937E+03  0.38381818023E+03 -0.24987253771E+03  0.47171887301E+03  0.00000000000E+00 0.  1.
<mgrwt>
<rscale>  0 0.12439290E+04</rscale>
<asrwt>0</asrwt>
<pdfrwt beam="1">  1        1 0.14761834E+00 0.12439290E+04</pdfrwt>
<pdfrwt beam="2">  1       -1 0.62024625E-01 0.12439290E+04</pdfrwt>
<totfact> 0.42368267E+01</totfact>
</mgrwt>
</event>
<event>
12    1  0.4802930E-008  0.2400647E+04  0.7818608E-02  0.8439261E-01
         -2   -1    0    0    0  501 -0.00000000000E+00  0.00000000000E+00  0.96355083482E+03  0.96355083482E+03  0.00000000000E+00 0.  1.
          2   -1    0    0  501    0  0.00000000000E+00 -0.00000000000E+00 -0.14952779248E+04  0.14952779248E+04  0.00000000000E+00 0. -1.
         23    2    1    2    0    0  0.91758869407E+03 -0.34187991399E+02 -0.71026666031E+03  0.11643165873E+04  0.89535224517E+02 0.  0.
        254    2    1    2    0    0 -0.91758869407E+03  0.34187991399E+02  0.17853957031E+03  0.12945121724E+04  0.89484498992E+03 0.  0.
         23    2    4    4    0    0 -0.41139745868E+03 -0.38057314946E+03  0.26797569244E+03  0.62782948828E+03  0.90967596017E+02 0.  0.
         23    2    4    4    0    0 -0.50619123540E+03  0.41476114086E+03 -0.89436122130E+02  0.66668268408E+03  0.90612419418E+02 0.  0.
         13    1    3    3    0    0  0.89766395800E+03 -0.46109570524E+02 -0.68588638543E+03  0.11306488437E+04  0.00000000000E+00 0. -1.
        -13    1    3    3    0    0  0.19924736072E+02  0.11921579125E+02 -0.24380274883E+02  0.33667743609E+02  0.00000000000E+00 0.  1.
          1    1    5    5  502    0 -0.33020607044E+03 -0.29356761150E+03  0.16902728330E+03  0.47306258991E+03  0.00000000000E+00 0. -1.
          1    1    6    6  503    0 -0.21649483164E+03  0.23577360759E+03 -0.39945495983E+02  0.32257533819E+03  0.00000000000E+00 0. -1.
         -1    1    5    5    0  502 -0.81191388240E+02 -0.87005537958E+02  0.98948409141E+02  0.15476689837E+03  0.00000000000E+00 0.  1.
         -1    1    6    6    0  503 -0.28969640376E+03  0.17898753327E+03 -0.49490626147E+02  0.34410734588E+03  0.00000000000E+00 0.  1.
<mgrwt>
<rscale>  0 0.24006468E+04</rscale>
<asrwt>0</asrwt>
<pdfrwt beam="1">  1        2 0.23004276E+00 0.24006468E+04</pdfrwt>
<pdfrwt beam="2">  1       -2 0.14823859E+00 0.24006468E+04</pdfrwt>
<totfact> 0.35509336E+00</totfact>
</mgrwt>
</event>
<event>
12    1  0.4802930E-008  0.1159313E+04  0.7818608E-02  0.9149235E-01
          2   -1    0    0  501    0  0.00000000000E+00  0.00000000000E+00  0.17107206548E+03  0.17107206548E+03  0.00000000000E+00 0. -1.
         -2   -1    0    0    0  501 -0.00000000000E+00 -0.00000000000E+00 -0.19640936317E+04  0.19640936317E+04  0.00000000000E+00 0.  1.
         23    2    1    2    0    0  0.56345999899E+02  0.17742861429E+03 -0.53799782196E+03  0.57640543525E+03  0.90253999805E+02 0.  0.
        254    2    1    2    0    0 -0.56345999899E+02 -0.17742861429E+03 -0.12550237442E+04  0.15587602619E+04  0.90553474293E+03 0.  0.
         23    2    4    4    0    0  0.39998695111E+03 -0.16407459329E+03 -0.75926544724E+03  0.87864773109E+03  0.92885858723E+02 0.  0.
         23    2    4    4    0    0 -0.45633295101E+03 -0.13354020991E+02 -0.49575829701E+03  0.68011253084E+03  0.91425781337E+02 0.  0.
         11    1    3    3    0    0 -0.10561962986E+02  0.75652490559E+02 -0.13175405358E+03  0.15229571571E+03  0.00000000000E+00 0. -1.
        -11    1    3    3    0    0  0.66907962885E+02  0.10177612373E+03 -0.40624376838E+03  0.42410971954E+03  0.00000000000E+00 0.  1.
          1    1    6    6  502    0 -0.81540880961E+01  0.23138546258E+01  0.33634807233E+01  0.91189954756E+01  0.00000000000E+00 0. -1.
          1    1    5    5  503    0  0.69778998537E+02 -0.47704929759E+02 -0.90861350161E+02  0.12409937112E+03  0.00000000000E+00 0. -1.
         -1    1    5    5    0  503  0.33020795258E+03 -0.11636966354E+03 -0.66840409707E+03  0.75454835996E+03  0.00000000000E+00 0.  1.
         -1    1    6    6    0  502 -0.44817886292E+03 -0.15667875617E+02 -0.49912177773E+03  0.67099353536E+03  0.00000000000E+00 0.  1.
<mgrwt>
<rscale>  0 0.11593128E+04</rscale>
<asrwt>0</asrwt>
<pdfrwt beam="1">  1        2 0.26318779E-01 0.11593128E+04</pdfrwt>
<pdfrwt beam="2">  1       -2 0.30216825E+00 0.11593128E+04</pdfrwt>
<totfact> 0.63677623E+00</totfact>
</mgrwt>
</event>
<event>
12    1  0.4802930E-008  0.1673235E+04  0.7818608E-02  0.8776779E-01
         -2   -1    0    0    0  501 -0.00000000000E+00  0.00000000000E+00  0.13122612164E+04  0.13122612164E+04  0.00000000000E+00 0. -1.
          2   -1    0    0  501    0  0.00000000000E+00 -0.00000000000E+00 -0.53337589155E+03  0.53337589155E+03  0.00000000000E+00 0.  1.
         23    2    1    2    0    0 -0.54125460255E+03 -0.19206429558E+03  0.16331003366E+03  0.60525674037E+03  0.99097508819E+02 0.  0.
        254    2    1    2    0    0  0.54125460255E+03  0.19206429558E+03  0.61557529115E+03  0.12403803675E+04  0.91091452875E+03 0.  0.
         23    2    4    4    0    0  0.54823138361E+03 -0.25697154249E+03  0.28650994941E+03  0.67630008737E+03  0.93283618242E+02 0.  0.
         23    2    4    4    0    0 -0.69767810644E+01  0.44903583807E+03  0.32906534174E+03  0.56408028017E+03  0.90668098051E+02 0.  0.
         13    1    3    3    0    0 -0.45544217615E+03 -0.19732991666E+03  0.13037454906E+03  0.51319021314E+03  0.00000000000E+00 0.  1.
        -13    1    3    3    0    0 -0.85812426399E+02  0.52656210800E+01  0.32935484595E+02  0.92066527225E+02  0.00000000000E+00 0. -1.
          2    1    5    5  502    0  0.15180757539E+03 -0.55009340015E+02  0.34970767421E+02  0.16521053843E+03  0.00000000000E+00 0. -1.
          1    1    6    6  503    0  0.12841700113E+01  0.50353199922E+02  0.78028404471E+02  0.92873708547E+02  0.00000000000E+00 0. -1.
         -2    1    5    5    0  502  0.39642380822E+03 -0.20196220248E+03  0.25153918199E+03  0.51108954894E+03  0.00000000000E+00 0.  1.
         -1    1    6    6    0  503 -0.82609510757E+01  0.39868263815E+03  0.25103693727E+03  0.47120657163E+03  0.00000000000E+00 0.  1.
<mgrwt>
<rscale>  0 0.16732346E+04</rscale>
<asrwt>0</asrwt>
<pdfrwt beam="1">  1        2 0.82057830E-01 0.16732346E+04</pdfrwt>
<pdfrwt beam="2">  1       -2 0.20188634E+00 0.16732346E+04</pdfrwt>
<totfact> 0.70300770E+00</totfact>
</mgrwt>
</event>
<event>
12    1  0.4802930E-008  0.1487571E+04  0.7818608E-02  0.8892760E-01
          2   -1    0    0  501    0  0.00000000000E+00  0.00000000000E+00  0.10178994445E+04  0.10178994445E+04  0.00000000000E+00 0.  1.
         -2   -1    0    0    0  501 -0.00000000000E+00 -0.00000000000E+00 -0.54348886988E+03  0.54348886988E+03  0.00000000000E+00 0. -1.
         23    2    1    2    0    0 -0.17398124524E+03  0.15424800841E+03  0.56852416490E+03  0.62091724761E+03  0.90865727905E+02 0.  0.
        254    2    1    2    0    0  0.17398124524E+03 -0.15424800841E+03 -0.94113590307E+02  0.94047106675E+03  0.90640307685E+03 0.  0.
         23    2    4    4    0    0 -0.29754142836E+03 -0.30210141030E+03 -0.43790819402E+02  0.43572630502E+03  0.90241970982E+02 0.  0.
         23    2    4    4    0    0  0.47152267359E+03  0.14785340189E+03 -0.50322770905E+02  0.50474476174E+03  0.89669577145E+02 0.  0.
         13    1    3    3    0    0 -0.23759625021E+02  0.18366189637E+01  0.13907968808E+03  0.14110652922E+03  0.00000000000E+00 0. -1.
        -13    1    3    3    0    0 -0.15022162022E+03  0.15241138945E+03  0.42944447682E+03  0.47981071839E+03  0.00000000000E+00 0.  1.
          2    1    6    6  502    0  0.13236271717E+03  0.55196948766E+00 -0.88398430304E+01  0.13265872151E+03  0.00000000000E+00 0.  1.
          2    1    5    5  503    0 -0.15708517936E+03 -0.21242712722E+03 -0.50357966108E+02  0.26895531730E+03  0.00000000000E+00 0. -1.
         -2    1    5    5    0  503 -0.14045624900E+03 -0.89674283077E+02  0.65671467062E+01  0.16677098772E+03  0.00000000000E+00 0.  1.
         -2    1    6    6    0  502  0.33915995642E+03  0.14730143240E+03 -0.41482927875E+02  0.37208604023E+03  0.00000000000E+00 0. -1.
<mgrwt>
<rscale>  0 0.14875712E+04</rscale>
<asrwt>0</asrwt>
<pdfrwt beam="1">  1        2 0.15659991E+00 0.14875712E+04</pdfrwt>
<pdfrwt beam="2">  1       -2 0.83613673E-01 0.14875712E+04</pdfrwt>
<totfact> 0.29682585E+01</totfact>
</mgrwt>
</event>
<event>
12    1  0.4802930E-008  0.1739606E+04  0.7818608E-02  0.8739093E-01
          2   -1    0    0  501    0  0.00000000000E+00  0.00000000000E+00  0.79206268555E+03  0.79206268555E+03  0.00000000000E+00 0. -1.
         -2   -1    0    0    0  501 -0.00000000000E+00 -0.00000000000E+00 -0.95517317917E+03  0.95517317917E+03  0.00000000000E+00 0.  1.
         23    2    1    2    0    0 -0.48806137694E+03 -0.19103195869E+03  0.28876872092E+03  0.60534514264E+03  0.91423468747E+02 0.  0.
        254    2    1    2    0    0  0.48806137694E+03  0.19103195869E+03 -0.45187921455E+03  0.11418907221E+04  0.90830748083E+03 0.  0.
         23    2    4    4    0    0 -0.30746026641E+02 -0.11576054115E+03 -0.50788969506E+03  0.52946204313E+03  0.89623053578E+02 0.  0.
         23    2    4    4    0    0  0.51880740358E+03  0.30679249984E+03  0.56010480511E+02  0.61242867895E+03  0.92999746760E+02 0.  0.
         13    1    3    3    0    0 -0.41387388281E+03 -0.16955350554E+03  0.27985778818E+03  0.52759867676E+03  0.00000000000E+00 0. -1.
        -13    1    3    3    0    0 -0.74187494130E+02 -0.21478453156E+02  0.89109327386E+01  0.77746465885E+02  0.00000000000E+00 0.  1.
          2    1    5    5  502    0 -0.58733919564E+02 -0.10200990501E+03 -0.37928263107E+03  0.39712845310E+03  0.00000000000E+00 0.  1.
          3    1    6    6  503    0  0.41930171672E+03  0.22502779292E+03  0.10987898981E+02  0.47599597809E+03  0.00000000000E+00 0. -1.
         -2    1    5    5    0  502  0.27987892923E+02 -0.13750636134E+02 -0.12860706399E+03  0.13233359004E+03  0.00000000000E+00 0. -1.
         -3    1    6    6    0  503  0.99505686857E+02  0.81764706920E+02  0.45022581530E+02  0.13643270085E+03  0.00000000000E+00 0.  1.
<mgrwt>
<rscale>  0 0.17396057E+04</rscale>
<asrwt>0</asrwt>
<pdfrwt beam="1">  1        2 0.12185580E+00 0.17396057E+04</pdfrwt>
<pdfrwt beam="2">  1       -2 0.14694972E+00 0.17396057E+04</pdfrwt>
<totfact> 0.10471172E+01</totfact>
</mgrwt>
</event>
<event>
12    1  0.4802930E-008  0.1551791E+04  0.7818608E-02  0.8850724E-01
          1   -1    0    0  501    0  0.00000000000E+00  0.00000000000E+00  0.95284321455E+03  0.95284321455E+03  0.00000000000E+00 0. -1.
         -1   -1    0    0    0  501 -0.00000000000E+00 -0.00000000000E+00 -0.63180799162E+03  0.63180799162E+03  0.00000000000E+00 0.  1.
         23    2    1    2    0    0  0.83254322138E+02  0.49797529131E+03  0.22018603313E+03  0.55817263821E+03  0.90355586156E+02 0.  0.
        254    2    1    2    0    0 -0.83254322138E+02 -0.49797529131E+03  0.10084918979E+03  0.10264785680E+04  0.88801859129E+03 0.  0.
         23    2    4    4    0    0 -0.97715518798E+02 -0.74441229367E+03  0.92987049134E+02  0.76235942410E+03  0.94060164971E+02 0.  0.
         23    2    4    4    0    0  0.14461196660E+02  0.24643700235E+03  0.78621406558E+01  0.26411914385E+03  0.93577703310E+02 0.  0.
         11    1    3    3    0    0  0.74046418784E+02  0.49052949963E+03  0.20023704566E+03  0.53497377188E+03  0.00000000000E+00 0. -1.
        -11    1    3    3    0    0  0.92079033544E+01  0.74457916786E+01  0.19948987471E+02  0.23198866331E+02  0.00000000000E+00 0.  1.
          2    1    5    5  502    0 -0.33347462914E+02 -0.31965337189E+03  0.85994400247E+02  0.33269410623E+03  0.00000000000E+00 0. -1.
          3    1    6    6  503    0  0.34659700817E+01  0.24864796379E+03  0.17561474476E+02  0.24929145238E+03  0.00000000000E+00 0. -1.
         -2    1    5    5    0  502 -0.64368055884E+02 -0.42475892178E+03  0.69926488865E+01  0.42966531788E+03  0.00000000000E+00 0.  1.
         -3    1    6    6    0  503  0.10995226578E+02 -0.22109614312E+01 -0.96993338205E+01  0.14827691476E+02  0.00000000000E+00 0.  1.
<mgrwt>
<rscale>  0 0.15517912E+04</rscale>
<asrwt>0</asrwt>
<pdfrwt beam="1">  1        1 0.14659126E+00 0.15517912E+04</pdfrwt>
<pdfrwt beam="2">  1       -1 0.97201230E-01 0.15517912E+04</pdfrwt>
<totfact> 0.16154226E+01</totfact>
</mgrwt>
</event>
<event>
12    1  0.4802930E-008  0.1277246E+04  0.7818608E-02  0.9047807E-01
         -1   -1    0    0    0  501 -0.00000000000E+00  0.00000000000E+00  0.32432972843E+03  0.32432972843E+03  0.00000000000E+00 0.  1.
          1   -1    0    0  501    0  0.00000000000E+00 -0.00000000000E+00 -0.12574832804E+04  0.12574832804E+04  0.00000000000E+00 0. -1.
         23    2    1    2    0    0 -0.22743081270E+03  0.18959426095E+03 -0.24427042364E+03  0.39452723594E+03  0.91175334826E+02 0.  0.
        254    2    1    2    0    0  0.22743081270E+03 -0.18959426095E+03 -0.68888312828E+03  0.11872857729E+04  0.92055243394E+03 0.  0.
         23    2    4    4    0    0  0.29165003380E+03 -0.52363729063E+03 -0.35500691600E+03  0.70172713908E+03  0.84470781702E+02 0.  0.
         23    2    4    4    0    0 -0.64219221098E+02  0.33404302969E+03 -0.33387621228E+03  0.48555863377E+03  0.92655316430E+02 0.  0.
         13    1    3    3    0    0 -0.12316057154E+02  0.16037330941E+02  0.65838102618E+01  0.21265648476E+02  0.00000000000E+00 0.  1.
        -13    1    3    3    0    0 -0.21511475554E+03  0.17355693000E+03 -0.25085423391E+03  0.37326158746E+03  0.00000000000E+00 0. -1.
          2    1    5    5  502    0  0.26199590529E+03 -0.45352450351E+03 -0.33911690483E+03  0.62396041927E+03  0.00000000000E+00 0.  1.
          3    1    6    6  503    0 -0.80958438784E+02  0.28669798648E+03 -0.25545814791E+03  0.39243963816E+03  0.00000000000E+00 0.  1.
         -2    1    5    5    0  502  0.29654128504E+02 -0.70112787121E+02 -0.15890011172E+02  0.77766719812E+02  0.00000000000E+00 0. -1.
         -3    1    6    6    0  503  0.16739217686E+02  0.47345043205E+02 -0.78418064369E+02  0.93118995614E+02  0.00000000000E+00 0. -1.
<mgrwt>
<rscale>  0 0.12772458E+04</rscale>
<asrwt>0</asrwt>
<pdfrwt beam="1">  1        1 0.19345897E+00 0.12772458E+04</pdfrwt>
<pdfrwt beam="2">  1       -1 0.49896881E-01 0.12772458E+04</pdfrwt>
<totfact> 0.38481543E+01</totfact>
</mgrwt>
</event>
<event>
12    1  0.4802930E-008  0.1974488E+04  0.7818608E-02  0.8618642E-01
         -1   -1    0    0    0  501 -0.00000000000E+00  0.00000000000E+00  0.18368946117E+04  0.18368946117E+04  0.00000000000E+00 0.  1.
          1   -1    0    0  501    0  0.00000000000E+00 -0.00000000000E+00 -0.53059688684E+03  0.53059688684E+03  0.00000000000E+00 0. -1.
         23    2    1    2    0    0  0.45087539843E+02  0.18361736680E+03 -0.38829522396E+03  0.44152237806E+03  0.91763858566E+02 0.  0.
        254    2    1    2    0    0 -0.45087539843E+02 -0.18361736680E+03  0.16945929488E+04  0.19259691205E+04  0.89552418572E+03 0.  0.
         23    2    4    4    0    0 -0.97916107212E+02 -0.53254072053E+03  0.95970001397E+03  0.11059044837E+04  0.93879854965E+02 0.  0.
         23    2    4    4    0    0  0.52828567369E+02  0.34892335372E+03  0.73489293484E+03  0.82006463678E+03  0.88882048286E+02 0.  0.
         13    1    3    3    0    0  0.50517807130E+02  0.19259142323E+03 -0.37507352971E+03  0.42464533181E+03  0.00000000000E+00 0. -1.
        -13    1    3    3    0    0 -0.54302672868E+01 -0.89740564209E+01 -0.13221694251E+02  0.16877046256E+02  0.00000000000E+00 0.  1.
          4    1    5    5  502    0 -0.18913076962E-01 -0.12990038608E+03  0.29923339546E+03  0.32621271529E+03  0.00000000000E+00 0. -1.
          1    1    6    6  503    0 -0.17239973153E+02  0.85025031049E+02  0.23436179764E+03  0.24990383105E+03  0.00000000000E+00 0. -1.
         -4    1    5    5    0  502 -0.97897194135E+02 -0.40264033445E+03  0.66046661851E+03  0.77969176840E+03  0.00000000000E+00 0.  1.
         -1    1    6    6    0  503  0.70068540522E+02  0.26389832267E+03  0.50053113720E+03  0.57016080573E+03  0.00000000000E+00 0.  1.
<mgrwt>
<rscale>  0 0.19744878E+04</rscale>
<asrwt>0</asrwt>
<pdfrwt beam="1">  1        1 0.81630291E-01 0.19744878E+04</pdfrwt>
<pdfrwt beam="2">  1       -1 0.28259917E+00 0.19744878E+04</pdfrwt>
<totfact> 0.16248883E+00</totfact>
</mgrwt>
</event>
<event>
12    1  0.4802930E-008  0.1342087E+04  0.7818608E-02  0.8996840E-01
          1   -1    0    0  501    0  0.00000000000E+00  0.00000000000E+00  0.15019440842E+04  0.15019440842E+04  0.00000000000E+00 0. -1.
         -1   -1    0    0    0  501 -0.00000000000E+00 -0.00000000000E+00 -0.29981112137E+03  0.29981112137E+03  0.00000000000E+00 0.  1.
         23    2    1    2    0    0 -0.11828762629E+03 -0.32509218216E+03  0.21311985006E+03  0.41636962419E+03  0.90921416749E+02 0.  0.
        254    2    1    2    0    0  0.11828762629E+03  0.32509218216E+03  0.98901311281E+03  0.13853855814E+04  0.90634948142E+03 0.  0.
         23    2    4    4    0    0  0.13057273730E+03 -0.22146823113E+03  0.28140085293E+02  0.27607271344E+03  0.96575677984E+02 0.  0.
         23    2    4    4    0    0 -0.12285111016E+02  0.54656041329E+03  0.96087302751E+03  0.11093128680E+04  0.91754317296E+02 0.  0.
         11    1    3    3    0    0  0.12551864635E+02 -0.68385522880E+02  0.43811945704E+02  0.82180384714E+02  0.00000000000E+00 0.  1.
        -11    1    3    3    0    0 -0.13083949092E+03 -0.25670665928E+03  0.16930790436E+03  0.33418923948E+03  0.00000000000E+00 0. -1.
          1    1    5    5  502    0  0.10137344945E+03 -0.22218112246E+03  0.16978127230E+02  0.24480458377E+03  0.00000000000E+00 0. -1.
          3    1    6    6  503    0  0.23896988829E+02  0.45251275523E+03  0.76865634868E+03  0.89228439529E+03  0.00000000000E+00 0. -1.
         -1    1    5    5    0  502  0.29199287849E+02  0.71289133094E+00  0.11161958063E+02  0.31268129665E+02  0.00000000000E+00 0.  1.
         -3    1    6    6    0  503 -0.36182099846E+02  0.94047658064E+02  0.19221667883E+03  0.21702847269E+03  0.00000000000E+00 0.  1.
<mgrwt>
<rscale>  0 0.13420872E+04</rscale>
<asrwt>0</asrwt>
<pdfrwt beam="1">  1        1 0.23106832E+00 0.13420872E+04</pdfrwt>
<pdfrwt beam="2">  1       -1 0.46124789E-01 0.13420872E+04</pdfrwt>
<totfact> 0.29862744E+01</totfact>
</mgrwt>
</event>
<event>
12    1  0.4802930E-008  0.1653291E+04  0.7818608E-02  0.8788462E-01
          1   -1    0    0  501    0  0.00000000000E+00  0.00000000000E+00  0.11168342893E+04  0.11168342893E+04  0.00000000000E+00 0. -1.
         -1   -1    0    0    0  501 -0.00000000000E+00 -0.00000000000E+00 -0.61185705503E+03  0.61185705503E+03  0.00000000000E+00 0.  1.
         23    2    1    2    0    0 -0.88071243896E+02 -0.21701302553E+03  0.73079251603E+03  0.77292594074E+03  0.92225870165E+02 0.  0.
        254    2    1    2    0    0  0.88071243896E+02  0.21701302553E+03 -0.22581528173E+03  0.95576540362E+03  0.89869002890E+03 0.  0.
         23    2    4    4    0    0 -0.24527541138E+03  0.24330918789E+03 -0.42566769085E+03  0.55568685279E+03  0.90749694139E+02 0.  0.
         23    2    4    4    0    0  0.33334665527E+03 -0.26296162357E+02  0.19985240912E+03  0.40007855084E+03  0.91161289323E+02 0.  0.
         13    1    3    3    0    0 -0.69454187741E+02 -0.57908723316E+02  0.29907610049E+03  0.31244810499E+03  0.00000000000E+00 0.  1.
        -13    1    3    3    0    0 -0.18617056155E+02 -0.15910430221E+03  0.43171641554E+03  0.46047783575E+03  0.00000000000E+00 0. -1.
          4    1    5    5  502    0 -0.27026050937E+02  0.78056711388E+02 -0.83052189774E+02  0.11713634725E+03  0.00000000000E+00 0. -1.
          3    1    6    6  503    0  0.12073575317E+03  0.20539618715E+02  0.36163026474E+02  0.12769793465E+03  0.00000000000E+00 0. -1.
         -4    1    5    5    0  502 -0.21824936044E+03  0.16525247650E+03 -0.34261550108E+03  0.43855050553E+03  0.00000000000E+00 0.  1.
         -3    1    6    6    0  503  0.21261090211E+03 -0.46835781072E+02  0.16368938265E+03  0.27238061619E+03  0.00000000000E+00 0.  1.
<mgrwt>
<rscale>  0 0.16532912E+04</rscale>
<asrwt>0</asrwt>
<pdfrwt beam="1">  1        1 0.17182066E+00 0.16532912E+04</pdfrwt>
<pdfrwt beam="2">  1       -1 0.94131855E-01 0.16532912E+04</pdfrwt>
<totfact> 0.12861206E+01</totfact>
</mgrwt>
</event>
<event>
12    1  0.4802930E-008  0.1367463E+04  0.7818608E-02  0.8977713E-01
         -2   -1    0    0    0  501 -0.00000000000E+00  0.00000000000E+00  0.55612792182E+03  0.55612792182E+03  0.00000000000E+00 0.  1.
          2   -1    0    0  501    0  0.00000000000E+00 -0.00000000000E+00 -0.84061363909E+03  0.84061363909E+03  0.00000000000E+00 0. -1.
         23    2    1    2    0    0 -0.10993546128E+03  0.24927463421E+01 -0.45275460182E+03  0.47510274210E+03  0.92972397278E+02 0.  0.
        254    2    1    2    0    0  0.10993546128E+03 -0.24927463421E+01  0.16826888454E+03  0.92163881881E+03  0.89945076319E+03 0.  0.
         23    2    4    4    0    0  0.48972164009E+03  0.38662874672E+02  0.17089773188E+03  0.52804280985E+03  0.91110216908E+02 0.  0.
         23    2    4    4    0    0 -0.37978617881E+03 -0.41155621014E+02 -0.26288473397E+01  0.39359600896E+03  0.94760649387E+02 0.  0.
         13    1    3    3    0    0  0.11996298066E+02 -0.81377559664E+01 -0.16308954424E+02  0.21820087851E+02  0.00000000000E+00 0.  1.
        -13    1    3    3    0    0 -0.12193175934E+03  0.10630502309E+02 -0.43644564739E+03  0.45328265425E+03  0.00000000000E+00 0. -1.
          1    1    5    5  502    0  0.38452577540E+03  0.61071778385E+02  0.11065486911E+03  0.40476454158E+03  0.00000000000E+00 0. -1.
          3    1    6    6  503    0 -0.11363577092E+01  0.55436155508E+01  0.10416471753E+02  0.11854360632E+02  0.00000000000E+00 0.  1.
         -1    1    5    5    0  502  0.10519586469E+03 -0.22408903713E+02  0.60242862776E+02  0.12327826827E+03  0.00000000000E+00 0.  1.
         -3    1    6    6    0  503 -0.37864982110E+03 -0.46699236565E+02 -0.13045319093E+02  0.38174164832E+03  0.00000000000E+00 0. -1.
<mgrwt>
<rscale>  0 0.13674629E+04</rscale>
<asrwt>0</asrwt>
<pdfrwt beam="1">  1        2 0.12932518E+00 0.13674629E+04</pdfrwt>
<pdfrwt beam="2">  1       -2 0.85558141E-01 0.13674629E+04</pdfrwt>
<totfact> 0.37329489E+01</totfact>
</mgrwt>
</event>
<event>
12    1  0.4802930E-008  0.1463681E+04  0.7818608E-02  0.8908971E-01
         -1   -1    0    0    0  501 -0.00000000000E+00  0.00000000000E+00  0.76645179345E+03  0.76645179345E+03  0.00000000000E+00 0.  1.
          1   -1    0    0  501    0  0.00000000000E+00 -0.00000000000E+00 -0.69879186428E+03  0.69879186428E+03  0.00000000000E+00 0. -1.
         23    2    1    2    0    0 -0.50640807065E+02 -0.33453524325E+01  0.46903661670E+03  0.48060004586E+03  0.91680824333E+02 0.  0.
        254    2    1    2    0    0  0.50640807065E+02  0.33453524325E+01 -0.40137668753E+03  0.98464361187E+03  0.89768820555E+03 0.  0.
         23    2    4    4    0    0 -0.18371609670E+02  0.43754868862E+03 -0.24243141233E+03  0.50874301290E+03  0.90885051234E+02 0.  0.
         23    2    4    4    0    0  0.69012416736E+02 -0.43420333619E+03 -0.15894527520E+03  0.47590059897E+03  0.89008588205E+02 0.  0.
         13    1    3    3    0    0  0.18732419917E+02 -0.63419985058E+01  0.28896203661E+02  0.35015926191E+02  0.00000000000E+00 0. -1.
        -13    1    3    3    0    0 -0.69373226982E+02  0.29966460733E+01  0.44014041304E+03  0.44558411967E+03  0.00000000000E+00 0.  1.
          3    1    6    6  502    0  0.85266009689E+02 -0.41360877131E+03 -0.15095411942E+03  0.44847480898E+03  0.00000000000E+00 0. -1.
          3    1    5    5  503    0 -0.47001878763E+02  0.13133386502E+03 -0.83153680887E+02  0.16239549056E+03  0.00000000000E+00 0. -1.
         -3    1    5    5    0  503  0.28630269093E+02  0.30621482360E+03 -0.15927773144E+03  0.34634752234E+03  0.00000000000E+00 0.  1.
         -3    1    6    6    0  502 -0.16253592954E+02 -0.20594564872E+02 -0.79911557763E+01  0.27425789994E+02  0.00000000000E+00 0.  1.
<mgrwt>
<rscale>  0 0.14636807E+04</rscale>
<asrwt>0</asrwt>
<pdfrwt beam="1">  1        1 0.10750644E+00 0.14636807E+04</pdfrwt>
<pdfrwt beam="2">  1       -1 0.11791566E+00 0.14636807E+04</pdfrwt>
<totfact> 0.17129788E+01</totfact>
</mgrwt>
</event>
<event>
12    1  0.4802930E-008  0.1645557E+04  0.7818608E-02  0.8793039E-01
          2   -1    0    0  501    0  0.00000000000E+00  0.00000000000E+00  0.18876989635E+04  0.18876989635E+04  0.00000000000E+00 0. -1.
         -2   -1    0    0    0  501 -0.00000000000E+00 -0.00000000000E+00 -0.35861902291E+03  0.35861902291E+03  0.00000000000E+00 0.  1.
         23    2    1    2    0    0 -0.58698908249E+03 -0.10737861260E+03  0.52639531691E+03  0.79975857770E+03  0.80220966961E+02 0.  0.
        254    2    1    2    0    0  0.58698908249E+03  0.10737861260E+03  0.10026846237E+04  0.14465594087E+04  0.85502708669E+03 0.  0.
         23    2    4    4    0    0  0.53297356716E+03 -0.25184909413E+03  0.34233773836E+03  0.68725289311E+03  0.87364881256E+02 0.  0.
         23    2    4    4    0    0  0.54015515335E+02  0.35922770673E+03  0.66034688537E+03  0.75930651564E+03  0.92337178346E+02 0.  0.
         11    1    3    3    0    0 -0.19593783214E+03 -0.67484610566E+02  0.21144922052E+03  0.29606853866E+03  0.00000000000E+00 0. -1.
        -11    1    3    3    0    0 -0.39105125035E+03 -0.39894002032E+02  0.31494609639E+03  0.50369003904E+03  0.00000000000E+00 0.  1.
          1    1    5    5  502    0  0.49804402940E+03 -0.24314468953E+03  0.34199996981E+03  0.65125354096E+03  0.00000000000E+00 0. -1.
          3    1    6    6  503    0  0.67176234052E+02  0.35285686539E+03  0.62197685222E+03  0.71824495722E+03  0.00000000000E+00 0. -1.
         -1    1    5    5    0  502  0.34929537756E+02 -0.87044046001E+01  0.33776855446E+00  0.35999352145E+02  0.00000000000E+00 0.  1.
         -3    1    6    6    0  503 -0.13160718717E+02  0.63708413426E+01  0.38370033145E+02  0.41061558423E+02  0.00000000000E+00 0.  1.
<mgrwt>
<rscale>  0 0.16455574E+04</rscale>
<asrwt>0</asrwt>
<pdfrwt beam="1">  1        2 0.29041522E+00 0.16455574E+04</pdfrwt>
<pdfrwt beam="2">  1       -2 0.55172158E-01 0.16455574E+04</pdfrwt>
<totfact> 0.22768337E+01</totfact>
</mgrwt>
</event>
<event>
12    1  0.4802930E-008  0.1193580E+04  0.7818608E-02  0.9118495E-01
         -2   -1    0    0    0  501 -0.00000000000E+00  0.00000000000E+00  0.73433739362E+03  0.73433739362E+03  0.00000000000E+00 0.  1.
          2   -1    0    0  501    0  0.00000000000E+00 -0.00000000000E+00 -0.48500635218E+03  0.48500635218E+03  0.00000000000E+00 0. -1.
         23    2    1    2    0    0 -0.66982499384E+02 -0.13568940790E+03 -0.15534492714E+03  0.23535634469E+03  0.91445568274E+02 0.  0.
        254    2    1    2    0    0  0.66982499384E+02  0.13568940790E+03  0.40467596858E+03  0.98398740112E+03  0.88406464434E+03 0.  0.
         23    2    4    4    0    0 -0.29384697403E+03 -0.21011274928E+03  0.26699552648E+03  0.45850324367E+03  0.91897778728E+02 0.  0.
         23    2    4    4    0    0  0.36082947341E+03  0.34580215718E+03  0.13768044210E+03  0.52548415745E+03  0.86027058513E+02 0.  0.
         13    1    3    3    0    0 -0.33615237604E+02 -0.12055459338E+03 -0.72175034460E+02  0.14447363006E+03  0.00000000000E+00 0. -1.
        -13    1    3    3    0    0 -0.33367261780E+02 -0.15134814519E+02 -0.83169892682E+02  0.90882714627E+02  0.00000000000E+00 0.  1.
          2    1    5    5  502    0 -0.97756359157E+02 -0.99328485008E+02  0.14984167875E+03  0.20463377624E+03  0.00000000000E+00 0. -1.
          4    1    6    6  503    0  0.17433294472E+03  0.18275143923E+03  0.26491636181E+02  0.25395249741E+03  0.00000000000E+00 0. -1.
         -2    1    5    5    0  502 -0.19609061487E+03 -0.11078426428E+03  0.11715384774E+03  0.25386946743E+03  0.00000000000E+00 0.  1.
         -4    1    6    6    0  503  0.18649652869E+03  0.16305071795E+03  0.11118880592E+03  0.27153166003E+03  0.00000000000E+00 0.  1.
<mgrwt>
<rscale>  0 0.11935800E+04</rscale>
<asrwt>0</asrwt>
<pdfrwt beam="1">  1        2 0.74616362E-01 0.11935800E+04</pdfrwt>
<pdfrwt beam="2">  1       -2 0.11297498E+00 0.11935800E+04</pdfrwt>
<totfact> 0.38775162E+01</totfact>
</mgrwt>
</event>
<event>
12    1  0.4802930E-008  0.1382663E+04  0.7818608E-02  0.8966465E-01
          2   -1    0    0  501    0  0.00000000000E+00  0.00000000000E+00  0.23365451538E+04  0.23365451538E+04  0.00000000000E+00 0. -1.
         -2   -1    0    0    0  501 -0.00000000000E+00 -0.00000000000E+00 -0.20454948822E+03  0.20454948822E+03  0.00000000000E+00 0.  1.
         23    2    1    2    0    0  0.30307383565E+03  0.32201488493E+02  0.10790065368E+04  0.11245788718E+04  0.86786213210E+02 0.  0.
        254    2    1    2    0    0 -0.30307383565E+03 -0.32201488493E+02  0.10529891288E+04  0.14165157702E+04  0.89712882917E+03 0.  0.
         23    2    4    4    0    0 -0.16779800674E+03  0.32764912163E+03  0.11117006342E+03  0.39518426577E+03  0.91113681434E+02 0.  0.
         23    2    4    4    0    0 -0.13527582891E+03 -0.35985061012E+03  0.94181906538E+03  0.10213315044E+04  0.91120132370E+02 0.  0.
         13    1    3    3    0    0  0.72596443990E+02 -0.17917284663E+02  0.17492477868E+03  0.19023656580E+03  0.00000000000E+00 0.  1.
        -13    1    3    3    0    0  0.23047739166E+03  0.50118773156E+02  0.90408175809E+03  0.93434230601E+03  0.00000000000E+00 0. -1.
          1    1    5    5  502    0 -0.17289355352E+03  0.31647294748E+03  0.11999398516E+03  0.38006034233E+03  0.00000000000E+00 0. -1.
          3    1    6    6  503    0 -0.13588549443E+03 -0.25864907426E+03  0.65594806556E+03  0.71807525784E+03  0.00000000000E+00 0. -1.
         -1    1    5    5    0  502  0.50955467798E+01  0.11176174149E+02 -0.88239217384E+01  0.15123923447E+02  0.00000000000E+00 0.  1.
         -3    1    6    6    0  503  0.60966552300E+00 -0.10120153586E+03  0.28587099982E+03  0.30325624658E+03  0.00000000000E+00 0.  1.
<mgrwt>
<rscale>  0 0.13826628E+04</rscale>
<asrwt>0</asrwt>
<pdfrwt beam="1">  1        2 0.35946847E+00 0.13826628E+04</pdfrwt>
<pdfrwt beam="2">  1       -2 0.31469154E-01 0.13826628E+04</pdfrwt>
<totfact> 0.39584211E+01</totfact>
</mgrwt>
</event>
<event>
12    1  0.4802930E-008  0.2591151E+04  0.7818608E-02  0.8371213E-01
          1   -1    0    0  501    0  0.00000000000E+00  0.00000000000E+00  0.15853090082E+04  0.15853090082E+04  0.00000000000E+00 0. -1.
         -1   -1    0    0    0  501 -0.00000000000E+00 -0.00000000000E+00 -0.10587943459E+04  0.10587943459E+04  0.00000000000E+00 0.  1.
         23    2    1    2    0    0  0.61574768104E+03  0.95770674376E+03  0.29705436077E+03  0.11801564346E+04  0.90446134365E+02 0.  0.
        254    2    1    2    0    0 -0.61574768104E+03 -0.95770674376E+03  0.22946030148E+03  0.14639469195E+04  0.89114596967E+03 0.  0.
         23    2    4    4    0    0 -0.75154184271E+03 -0.96268295947E+03  0.33933991365E+03  0.12707238706E+04  0.89520704623E+02 0.  0.
         23    2    4    4    0    0  0.13579416167E+03  0.49762157085E+01 -0.10987961217E+03  0.19322304884E+03  0.82442709594E+02 0.  0.
         13    1    3    3    0    0  0.33946885767E+03  0.52141107668E+03  0.20861922030E+03  0.65622450068E+03  0.00000000000E+00 0. -1.
        -13    1    3    3    0    0  0.27627882337E+03  0.43629566708E+03  0.88435140472E+02  0.52393193396E+03  0.00000000000E+00 0.  1.
          4    1    6    6  502    0  0.72230049960E+02  0.43620369734E+02 -0.53929142967E+02  0.10014124642E+03  0.00000000000E+00 0. -1.
          4    1    5    5  503    0 -0.23769701711E+03 -0.26054583587E+03  0.12946413208E+03  0.37569264835E+03  0.00000000000E+00 0.  1.
         -4    1    5    5    0  503 -0.51384482561E+03 -0.70213712360E+03  0.20987578157E+03  0.89503122226E+03  0.00000000000E+00 0. -1.
         -4    1    6    6    0  502  0.63564111711E+02 -0.38644154025E+02 -0.55950469199E+02  0.93081802419E+02  0.00000000000E+00 0.  1.
<mgrwt>
<rscale>  0 0.25911513E+04</rscale>
<asrwt>0</asrwt>
<pdfrwt beam="1">  1        1 0.24389369E+00 0.25911513E+04</pdfrwt>
<pdfrwt beam="2">  1       -1 0.16289144E+00 0.25911513E+04</pdfrwt>
<totfact> 0.13991171E+00</totfact>
</mgrwt>
</event>
<event>
12    1  0.4802930E-008  0.1403832E+04  0.7818608E-02  0.8951049E-01
         -2   -1    0    0    0  501 -0.00000000000E+00  0.00000000000E+00  0.11307029692E+04  0.11307029692E+04  0.00000000000E+00 0. -1.
          2   -1    0    0  501    0  0.00000000000E+00 -0.00000000000E+00 -0.43573445767E+03  0.43573445767E+03  0.00000000000E+00 0.  1.
         23    2    1    2    0    0 -0.27588045334E+03  0.19595173570E+03 -0.10277918497E+03  0.36572287438E+03  0.93180216390E+02 0.  0.
        254    2    1    2    0    0  0.27588045334E+03 -0.19595173570E+03  0.79774769650E+03  0.12007145525E+04  0.83114796637E+03 0.  0.
         23    2    4    4    0    0  0.55228977251E+03 -0.11579976235E+03  0.39171478503E+03  0.69431038902E+03  0.10095972326E+03 0.  0.
         23    2    4    4    0    0 -0.27640931917E+03 -0.80151973358E+02  0.40603291147E+03  0.50640416345E+03  0.93573505905E+02 0.  0.
         13    1    3    3    0    0 -0.97333642060E+02  0.76327430726E+02 -0.84979844374E+02  0.15007094492E+03  0.00000000000E+00 0. -1.
        -13    1    3    3    0    0 -0.17854681128E+03  0.11962430498E+03 -0.17799340598E+02  0.21565192947E+03  0.00000000000E+00 0.  1.
          1    1    5    5  502    0  0.28311736654E+03 -0.10607483286E+03  0.23277090960E+03  0.38156206540E+03  0.00000000000E+00 0. -1.
          3    1    6    6  503    0 -0.24033414670E+03 -0.32484679329E+02  0.31609779727E+03  0.39841382243E+03  0.00000000000E+00 0.  1.
         -1    1    5    5    0  502  0.26917240597E+03 -0.97249294851E+01  0.15894387543E+03  0.31274832362E+03  0.00000000000E+00 0.  1.
         -3    1    6    6    0  503 -0.36075172471E+02 -0.47667294029E+02  0.89935114195E+02  0.10799034102E+03  0.00000000000E+00 0. -1.
<mgrwt>
<rscale>  0 0.14038322E+04</rscale>
<asrwt>0</asrwt>
<pdfrwt beam="1">  1        2 0.67036071E-01 0.14038322E+04</pdfrwt>
<pdfrwt beam="2">  1       -2 0.17395430E+00 0.14038322E+04</pdfrwt>
<totfact> 0.14014553E+01</totfact>
</mgrwt>
</event>
<event>
12    1  0.4802930E-008  0.1745305E+04  0.7818608E-02  0.8735939E-01
         -1   -1    0    0    0  501 -0.00000000000E+00  0.00000000000E+00  0.77884583140E+03  0.77884583140E+03  0.00000000000E+00 0.  1.
          1   -1    0    0  501    0  0.00000000000E+00 -0.00000000000E+00 -0.97775708865E+03  0.97775708865E+03  0.00000000000E+00 0. -1.
         23    2    1    2    0    0 -0.99457833877E+02  0.21163549120E+03 -0.67118055938E+03  0.71690175144E+03  0.93719454051E+02 0.  0.
        254    2    1    2    0    0  0.99457833877E+02 -0.21163549120E+03  0.47226930213E+03  0.10397011686E+04  0.89624705547E+03 0.  0.
         23    2    4    4    0    0  0.10088802455E+03 -0.38333311797E+03  0.65630082226E+03  0.77183216566E+03  0.88721191545E+02 0.  0.
         23    2    4    4    0    0 -0.14301906756E+01  0.17169762677E+03 -0.18403152013E+03  0.26786900295E+03  0.91673779558E+02 0.  0.
         11    1    3    3    0    0 -0.10571836741E+03  0.14808458392E+03 -0.55842008230E+03  0.58731457118E+03  0.00000000000E+00 0. -1.
        -11    1    3    3    0    0  0.62605335328E+01  0.63550907274E+02 -0.11276047708E+03  0.12958718026E+03  0.00000000000E+00 0.  1.
          1    1    5    5  502    0  0.19722248726E+02 -0.14338923349E+02  0.18821937051E+02  0.30803200028E+02  0.00000000000E+00 0. -1.
          1    1    6    6  503    0 -0.17127351507E+02  0.88474604802E+00 -0.41300365231E+02  0.44719672555E+02  0.00000000000E+00 0. -1.
         -1    1    5    5    0  502  0.81165775826E+02 -0.36899419462E+03  0.63747888521E+03  0.74102896564E+03  0.00000000000E+00 0.  1.
         -1    1    6    6    0  503  0.15697160832E+02  0.17081288072E+03 -0.14273115490E+03  0.22314933040E+03  0.00000000000E+00 0.  1.
<mgrwt>
<rscale>  0 0.17453046E+04</rscale>
<asrwt>0</asrwt>
<pdfrwt beam="1">  1        1 0.15042417E+00 0.17453046E+04</pdfrwt>
<pdfrwt beam="2">  1       -1 0.11982244E+00 0.17453046E+04</pdfrwt>
<totfact> 0.92806622E+00</totfact>
</mgrwt>
</event>
<event>
12    1  0.4802930E-008  0.1230805E+04  0.7818608E-02  0.9086312E-01
          1   -1    0    0  501    0  0.00000000000E+00  0.00000000000E+00  0.92815867260E+03  0.92815867260E+03  0.00000000000E+00 0. -1.
         -1   -1    0    0    0  501 -0.00000000000E+00 -0.00000000000E+00 -0.40803383695E+03  0.40803383695E+03  0.00000000000E+00 0.  1.
         23    2    1    2    0    0  0.50316453098E+01  0.25078224341E+03 -0.39162627549E+01  0.26702845760E+03  0.91497590069E+02 0.  0.
        254    2    1    2    0    0 -0.50316453098E+01 -0.25078224341E+03  0.52404109840E+03  0.10691640520E+04  0.89753865995E+03 0.  0.
         23    2    4    4    0    0 -0.70676473912E+02 -0.47340941459E+03 -0.25955543210E+01  0.48720510144E+03  0.90831911687E+02 0.  0.
         23    2    4    4    0    0  0.65644828602E+02  0.22262717118E+03  0.52663665272E+03  0.58195895051E+03  0.86359453573E+02 0.  0.
         13    1    3    3    0    0 -0.38980292853E+02  0.10357645246E+03  0.17000664835E+02  0.11196681357E+03  0.00000000000E+00 0. -1.
        -13    1    3    3    0    0  0.44011938163E+02  0.14720579095E+03 -0.20916927590E+02  0.15506164403E+03  0.00000000000E+00 0.  1.
          2    1    5    5  502    0 -0.48583110446E+02 -0.37702071166E+03 -0.38313412044E+02  0.38206393861E+03  0.00000000000E+00 0.  1.
          1    1    6    6  503    0  0.73235844343E+01  0.10342384281E+03  0.14771491355E+03  0.18047111080E+03  0.00000000000E+00 0. -1.
         -2    1    5    5    0  502 -0.22093363465E+02 -0.96388702931E+02  0.35717857723E+02  0.10514116283E+03  0.00000000000E+00 0. -1.
         -1    1    6    6    0  503  0.58321244168E+02  0.11920332837E+03  0.37892173917E+03  0.40148783971E+03  0.00000000000E+00 0.  1.
<mgrwt>
<rscale>  0 0.12308048E+04</rscale>
<asrwt>0</asrwt>
<pdfrwt beam="1">  1        1 0.14279364E+00 0.12308048E+04</pdfrwt>
<pdfrwt beam="2">  1       -1 0.62774437E-01 0.12308048E+04</pdfrwt>
<totfact> 0.43874984E+01</totfact>
</mgrwt>
</event>
<event>
12    1  0.4802930E-008  0.1312420E+04  0.7818608E-02  0.9019773E-01
         -2   -1    0    0    0  501 -0.00000000000E+00  0.00000000000E+00  0.98857709757E+03  0.98857709757E+03  0.00000000000E+00 0.  1.
          2   -1    0    0  501    0  0.00000000000E+00 -0.00000000000E+00 -0.43558743603E+03  0.43558743603E+03  0.00000000000E+00 0. -1.
         23    2    1    2    0    0 -0.43765008839E+02 -0.33773363760E+03  0.21814548395E+03  0.41445839711E+03  0.90603116927E+02 0.  0.
        254    2    1    2    0    0  0.43765008839E+02  0.33773363760E+03  0.33484417759E+03  0.10097061365E+04  0.88961029267E+03 0.  0.
         23    2    4    4    0    0  0.35735187810E+03 -0.10222923971E+03  0.32380806925E+02  0.38409344304E+03  0.91258282361E+02 0.  0.
         23    2    4    4    0    0 -0.31358686926E+03  0.43996287731E+03  0.30246337066E+03  0.62561269344E+03  0.89460011303E+02 0.  0.
         11    1    3    3    0    0 -0.34520599852E+02 -0.99631699643E+02  0.26632716128E+02  0.10875407558E+03  0.00000000000E+00 0. -1.
        -11    1    3    3    0    0 -0.92444089863E+01 -0.23810193796E+03  0.19151276783E+03  0.30570432152E+03  0.00000000000E+00 0.  1.
          1    1    6    6  502    0 -0.33237890797E+02  0.86088407294E+02  0.80834709453E+02  0.12267934426E+03  0.00000000000E+00 0. -1.
          1    1    5    5  503    0  0.28843174161E+03 -0.96913265709E+02  0.59136347057E+02  0.30997122154E+03  0.00000000000E+00 0.  1.
         -1    1    5    5    0  503  0.68920136485E+02 -0.53159740006E+01 -0.26755540131E+02  0.74122221502E+02  0.00000000000E+00 0. -1.
         -1    1    6    6    0  502 -0.28034897846E+03  0.35387447002E+03  0.22162866121E+03  0.50293334919E+03  0.00000000000E+00 0.  1.
<mgrwt>
<rscale>  0 0.13124203E+04</rscale>
<asrwt>0</asrwt>
<pdfrwt beam="1">  1        2 0.67013452E-01 0.13124203E+04</pdfrwt>
<pdfrwt beam="2">  1       -2 0.15208878E+00 0.13124203E+04</pdfrwt>
<totfact> 0.20395429E+01</totfact>
</mgrwt>
</event>
<event>
12    1  0.4802930E-008  0.1343756E+04  0.7818608E-02  0.8995568E-01
          2   -1    0    0  501    0  0.00000000000E+00  0.00000000000E+00  0.74179768553E+03  0.74179768553E+03  0.00000000000E+00 0. -1.
         -2   -1    0    0    0  501 -0.00000000000E+00 -0.00000000000E+00 -0.60854855256E+03  0.60854855256E+03  0.00000000000E+00 0.  1.
         23    2    1    2    0    0  0.15081383228E+03  0.25730581360E+03 -0.18747744574E+03  0.36402218595E+03  0.91723854474E+02 0.  0.
        254    2    1    2    0    0 -0.15081383228E+03 -0.25730581360E+03  0.32072657871E+03  0.98632405214E+03  0.88375251276E+03 0.  0.
         23    2    4    4    0    0  0.15660293390E+03 -0.20657860070E+03 -0.22250636308E+03  0.35346495670E+03  0.90714920655E+02 0.  0.
         23    2    4    4    0    0 -0.30741676619E+03 -0.50727212904E+02  0.54323294180E+03  0.63285909544E+03  0.91270407941E+02 0.  0.
         13    1    3    3    0    0 -0.99789526785E+01  0.22409937941E+02 -0.29843618527E+02  0.38631934742E+02  0.00000000000E+00 0. -1.
        -13    1    3    3    0    0  0.16079278496E+03  0.23489587566E+03 -0.15763382722E+03  0.32539025121E+03  0.00000000000E+00 0.  1.
          2    1    5    5  502    0  0.23591449153E+02 -0.73674483876E+02 -0.26302677209E+02  0.81708731944E+02  0.00000000000E+00 0. -1.
          3    1    6    6  503    0 -0.16583061891E+03 -0.73194063810E+02  0.29815940753E+03  0.34893580705E+03  0.00000000000E+00 0. -1.
         -2    1    5    5    0  502  0.13301148475E+03 -0.13290411682E+03 -0.19620368587E+03  0.27175622476E+03  0.00000000000E+00 0.  1.
         -3    1    6    6    0  503 -0.14158614727E+03  0.22466850906E+02  0.24507353427E+03  0.28392328839E+03  0.00000000000E+00 0.  1.
<mgrwt>
<rscale>  0 0.13437558E+04</rscale>
<asrwt>0</asrwt>
<pdfrwt beam="1">  1        2 0.11412272E+00 0.13437558E+04</pdfrwt>
<pdfrwt beam="2">  1       -2 0.93622854E-01 0.13437558E+04</pdfrwt>
<totfact> 0.35857449E+01</totfact>
</mgrwt>
</event>
<event>
12    1  0.4802930E-008  0.1694655E+04  0.7818608E-02  0.8764419E-01
         -1   -1    0    0    0  501 -0.00000000000E+00  0.00000000000E+00  0.10490672891E+04  0.10490672891E+04  0.00000000000E+00 0.  1.
          1   -1    0    0  501    0  0.00000000000E+00 -0.00000000000E+00 -0.68438311505E+03  0.68438311505E+03  0.00000000000E+00 0. -1.
         23    2    1    2    0    0 -0.35836971316E+03  0.35634128702E+03  0.47018775000E+03  0.69633658733E+03  0.91652378403E+02 0.  0.
        254    2    1    2    0    0  0.35836971316E+03 -0.35634128702E+03 -0.10550357589E+03  0.10371138169E+04  0.89948101729E+03 0.  0.
         23    2    4    4    0    0  0.11161379876E+03 -0.37125913575E+03 -0.45127115563E+03  0.60171120868E+03  0.90109582149E+02 0.  0.
         23    2    4    4    0    0  0.24675591439E+03  0.14917848736E+02  0.34576757974E+03  0.43540260819E+03  0.94388497808E+02 0.  0.
         13    1    3    3    0    0 -0.21799927451E+02  0.22199895245E+02  0.66913552161E+02  0.73793601678E+02  0.00000000000E+00 0. -1.
        -13    1    3    3    0    0 -0.33656978570E+03  0.33414139177E+03  0.40327419783E+03  0.62254298565E+03  0.00000000000E+00 0.  1.
          1    1    5    5  502    0  0.65720177756E+01 -0.16083163211E+03 -0.15525504082E+03  0.22363839788E+03  0.00000000000E+00 0. -1.
          3    1    6    6  503    0  0.11057804836E+03  0.46312292968E+02  0.11823577538E+03  0.16838061598E+03  0.00000000000E+00 0. -1.
         -1    1    5    5    0  502  0.10504178099E+03 -0.21042750364E+03 -0.29601611481E+03  0.37807281080E+03  0.00000000000E+00 0.  1.
         -3    1    6    6    0  503  0.13617786604E+03 -0.31394444232E+02  0.22753180436E+03  0.26702199221E+03  0.00000000000E+00 0.  1.
<mgrwt>
<rscale>  0 0.16946551E+04</rscale>
<asrwt>0</asrwt>
<pdfrwt beam="1">  1        1 0.10528971E+00 0.16946551E+04</pdfrwt>
<pdfrwt beam="2">  1       -1 0.16139497E+00 0.16946551E+04</pdfrwt>
<totfact> 0.76555636E+00</totfact>
</mgrwt>
</event>
<event>
12    1  0.4802930E-008  0.1236814E+04  0.7818608E-02  0.9081230E-01
          2   -1    0    0  501    0  0.00000000000E+00  0.00000000000E+00  0.13920036421E+04  0.13920036421E+04  0.00000000000E+00 0. -1.
         -2   -1    0    0    0  501 -0.00000000000E+00 -0.00000000000E+00 -0.27473133262E+03  0.27473133262E+03  0.00000000000E+00 0.  1.
         23    2    1    2    0    0  0.27954556963E+03  0.26159865533E+02  0.33519738887E+03  0.44660461822E+03  0.90930365880E+02 0.  0.
        254    2    1    2    0    0 -0.27954556963E+03 -0.26159865533E+02  0.78207492056E+03  0.12201303565E+04  0.89344660798E+03 0.  0.
         23    2    4    4    0    0 -0.47737401747E+03  0.18986806109E+03  0.74669782492E+03  0.91092100063E+03  0.91014254234E+02 0.  0.
         23    2    4    4    0    0  0.19782844784E+03 -0.21602792662E+03  0.35377095639E+02  0.30920935582E+03  0.92491767077E+02 0.  0.
         11    1    3    3    0    0  0.86960176241E+02  0.19140714599E+02  0.49177772126E+02  0.10171967597E+03  0.00000000000E+00 0. -1.
        -11    1    3    3    0    0  0.19258539339E+03  0.70191509342E+01  0.28601961675E+03  0.34488494225E+03  0.00000000000E+00 0.  1.
          4    1    5    5  502    0 -0.14681193015E+03  0.60285071583E+02  0.16145267830E+03  0.22639567138E+03  0.00000000000E+00 0. -1.
          1    1    6    6  503    0  0.16215020555E+03 -0.12787216034E+03  0.51307039113E+02  0.21278249649E+03  0.00000000000E+00 0. -1.
         -4    1    5    5    0  502 -0.33056208732E+03  0.12958298951E+03  0.58524514662E+03  0.68452532925E+03  0.00000000000E+00 0.  1.
         -1    1    6    6    0  503  0.35678242287E+02 -0.88155766279E+02 -0.15929943474E+02  0.96426859328E+02  0.00000000000E+00 0.  1.
<mgrwt>
<rscale>  0 0.12368137E+04</rscale>
<asrwt>0</asrwt>
<pdfrwt beam="1">  1        2 0.21415440E+00 0.12368137E+04</pdfrwt>
<pdfrwt beam="2">  1       -2 0.42266360E-01 0.12368137E+04</pdfrwt>
<totfact> 0.76339933E+01</totfact>
</mgrwt>
</event>
<event>
12    1  0.4802930E-008  0.2135216E+04  0.7818608E-02  0.8545887E-01
          2   -1    0    0  501    0  0.00000000000E+00  0.00000000000E+00  0.14338773664E+04  0.14338773664E+04  0.00000000000E+00 0. -1.
         -2   -1    0    0    0  501 -0.00000000000E+00 -0.00000000000E+00 -0.79489844087E+03  0.79489844087E+03  0.00000000000E+00 0.  1.
         23    2    1    2    0    0  0.31358336854E+03  0.65292926548E+03  0.77124986292E+03  0.10620362510E+04  0.91888479125E+02 0.  0.
        254    2    1    2    0    0 -0.31358336854E+03 -0.65292926548E+03 -0.13227093737E+03  0.11667395563E+04  0.90506046020E+03 0.  0.
         23    2    4    4    0    0 -0.22329663050E+03 -0.61159531585E+03 -0.46665606311E+03  0.80618202236E+03  0.90836976876E+02 0.  0.
         23    2    4    4    0    0 -0.90286738044E+02 -0.41333949630E+02  0.33438512574E+03  0.36055753395E+03  0.91258602388E+02 0.  0.
         13    1    3    3    0    0  0.63731250838E+02  0.18101135161E+03  0.15545085656E+03  0.24696507962E+03  0.00000000000E+00 0.  1.
        -13    1    3    3    0    0  0.24985211771E+03  0.47191791387E+03  0.61579900637E+03  0.81507117137E+03  0.00000000000E+00 0. -1.
          2    1    5    5  502    0 -0.17475670641E+03 -0.55046614310E+03 -0.42946722092E+03  0.71971867766E+03  0.00000000000E+00 0. -1.
          1    1    6    6  503    0 -0.79871927876E+02 -0.67354800514E+02  0.28795361355E+03  0.30632250582E+03  0.00000000000E+00 0. -1.
         -2    1    5    5    0  502 -0.48539924087E+02 -0.61129172755E+02 -0.37188842191E+02  0.86463344693E+02  0.00000000000E+00 0.  1.
         -1    1    6    6    0  503 -0.10414810168E+02  0.26020850885E+02  0.46431512194E+02  0.54235028130E+02  0.00000000000E+00 0.  1.
<mgrwt>
<rscale>  0 0.21352160E+04</rscale>
<asrwt>0</asrwt>
<pdfrwt beam="1">  1        2 0.22059652E+00 0.21352160E+04</pdfrwt>
<pdfrwt beam="2">  1       -2 0.12229207E+00 0.21352160E+04</pdfrwt>
<totfact> 0.64428388E+00</totfact>
</mgrwt>
</event>
<event>
12    1  0.4802930E-008  0.1457109E+04  0.7818608E-02  0.8913487E-01
         -2   -1    0    0    0  501 -0.00000000000E+00  0.00000000000E+00  0.18786237287E+03  0.18786237287E+03  0.00000000000E+00 0.  1.
          2   -1    0    0  501    0  0.00000000000E+00 -0.00000000000E+00 -0.28254265868E+04  0.28254265868E+04  0.00000000000E+00 0. -1.
         23    2    1    2    0    0 -0.39525150066E+03  0.20758885125E+03 -0.78794802874E+03  0.90925816397E+03  0.81064374452E+02 0.  0.
        254    2    1    2    0    0  0.39525150066E+03 -0.20758885125E+03 -0.18496161852E+04  0.21040307957E+04  0.89808055140E+03 0.  0.
         23    2    4    4    0    0  0.28997610025E+02  0.32405019213E+03 -0.81487522853E+03  0.88143962444E+03  0.84052275710E+02 0.  0.
         23    2    4    4    0    0  0.36625389064E+03 -0.53163904339E+03 -0.10347409567E+04  0.12225911713E+04  0.85195890741E+02 0.  0.
         13    1    3    3    0    0 -0.26650074931E+03  0.17268962565E+03 -0.50686728260E+03  0.59812941606E+03  0.00000000000E+00 0.  1.
        -13    1    3    3    0    0 -0.12875075136E+03  0.34899225600E+02 -0.28108074614E+03  0.31112874790E+03  0.00000000000E+00 0. -1.
          1    1    5    5  502    0  0.56355154204E+02  0.18184531664E+03 -0.43174894395E+03  0.47185884880E+03  0.00000000000E+00 0. -1.
          1    1    6    6  503    0  0.89628542356E+02 -0.13247742762E+03 -0.33003132273E+03  0.36674816757E+03  0.00000000000E+00 0. -1.
         -1    1    5    5    0  502 -0.27357544178E+02  0.14220487550E+03 -0.38312628458E+03  0.40958077564E+03  0.00000000000E+00 0.  1.
         -1    1    6    6    0  503  0.27662534828E+03 -0.39916161577E+03 -0.70470963392E+03  0.85584300369E+03  0.00000000000E+00 0.  1.
<mgrwt>
<rscale>  0 0.14571086E+04</rscale>
<asrwt>0</asrwt>
<pdfrwt beam="1">  1        2 0.43468102E+00 0.14571086E+04</pdfrwt>
<pdfrwt beam="2">  1       -2 0.28901903E-01 0.14571086E+04</pdfrwt>
<totfact> 0.23922530E+01</totfact>
</mgrwt>
</event>
<event>
12    1  0.4802930E-008  0.1524354E+04  0.7818608E-02  0.8868417E-01
          2   -1    0    0  501    0  0.00000000000E+00  0.00000000000E+00  0.62234667076E+03  0.62234667076E+03  0.00000000000E+00 0.  1.
         -2   -1    0    0    0  501 -0.00000000000E+00 -0.00000000000E+00 -0.93342487170E+03  0.93342487170E+03  0.00000000000E+00 0. -1.
         23    2    1    2    0    0 -0.28917634993E+03 -0.30493087079E+03 -0.35773560951E+03  0.55932759424E+03  0.90921911829E+02 0.  0.
        254    2    1    2    0    0  0.28917634993E+03  0.30493087079E+03  0.46657408572E+02  0.99644394821E+03  0.90228478366E+03 0.  0.
         23    2    4    4    0    0  0.28654842763E+03 -0.14391495856E+03 -0.27869383475E+03  0.43456662818E+03  0.91413260093E+02 0.  0.
         23    2    4    4    0    0  0.26279222992E+01  0.44884582936E+03  0.32535124332E+03  0.56187732004E+03  0.91559853280E+02 0.  0.
         13    1    3    3    0    0 -0.29166455262E+03 -0.28678378795E+03 -0.32757481430E+03  0.52404046719E+03  0.00000000000E+00 0. -1.
        -13    1    3    3    0    0  0.24882026901E+01 -0.18147082841E+02 -0.30160795206E+02  0.35287127054E+02  0.00000000000E+00 0.  1.
          2    1    5    5  502    0  0.13528585940E+02  0.30863297393E+01 -0.42697290055E+02  0.44895508092E+02  0.00000000000E+00 0. -1.
          4    1    6    6  503    0  0.47610092166E+01  0.19172676214E+03  0.84539558130E+02  0.20959187823E+03  0.00000000000E+00 0. -1.
         -2    1    5    5    0  502  0.27301984169E+03 -0.14700128830E+03 -0.23599654469E+03  0.38967112008E+03  0.00000000000E+00 0.  1.
         -4    1    6    6    0  503 -0.21330869174E+01  0.25711906722E+03  0.24081168519E+03  0.35228544181E+03  0.00000000000E+00 0.  1.
<mgrwt>
<rscale>  0 0.15243541E+04</rscale>
<asrwt>0</asrwt>
<pdfrwt beam="1">  1        2 0.95745642E-01 0.15243541E+04</pdfrwt>
<pdfrwt beam="2">  1       -2 0.14360383E+00 0.15243541E+04</pdfrwt>
<totfact> 0.15366850E+01</totfact>
</mgrwt>
</event>
<event>
12    1  0.4802930E-008  0.1134964E+04  0.7818608E-02  0.9171768E-01
          1   -1    0    0  501    0  0.00000000000E+00  0.00000000000E+00  0.60316072358E+03  0.60316072358E+03  0.00000000000E+00 0. -1.
         -1   -1    0    0    0  501 -0.00000000000E+00 -0.00000000000E+00 -0.53391342475E+03  0.53391342475E+03  0.00000000000E+00 0.  1.
         23    2    1    2    0    0  0.18781656884E+03  0.21908684680E+02 -0.33733221535E+02  0.21020956393E+03  0.85411220206E+02 0.  0.
        254    2    1    2    0    0 -0.18781656884E+03 -0.21908684680E+02  0.10298052036E+03  0.92686458440E+03  0.90150868895E+03 0.  0.
         23    2    4    4    0    0 -0.42310058009E+03 -0.20910657738E+03  0.28877497256E+03  0.56102270110E+03  0.92821467335E+02 0.  0.
         23    2    4    4    0    0  0.23528401125E+03  0.18719789270E+03 -0.18579445220E+03  0.36584188330E+03  0.94440923991E+02 0.  0.
         13    1    3    3    0    0  0.70315734488E+02 -0.16342940715E+02  0.20820939909E+02  0.75132587913E+02  0.00000000000E+00 0. -1.
        -13    1    3    3    0    0  0.11750083435E+03  0.38251625395E+02 -0.54554161445E+02  0.13507697602E+03  0.00000000000E+00 0.  1.
          4    1    5    5  502    0 -0.35146420130E+03 -0.15666847519E+03  0.27055149970E+03  0.47039367545E+03  0.00000000000E+00 0. -1.
          3    1    6    6  503    0  0.19579341294E+03  0.19197708306E+03 -0.15124390025E+03  0.31315328249E+03  0.00000000000E+00 0. -1.
         -4    1    5    5    0  502 -0.71636378791E+02 -0.52438102191E+02  0.18223472860E+02  0.90629025652E+02  0.00000000000E+00 0.  1.
         -3    1    6    6    0  503  0.39490598312E+02 -0.47791903542E+01 -0.34550551949E+02  0.52688600811E+02  0.00000000000E+00 0.  1.
<mgrwt>
<rscale>  0 0.11349636E+04</rscale>
<asrwt>0</asrwt>
<pdfrwt beam="1">  1        1 0.92793957E-01 0.11349636E+04</pdfrwt>
<pdfrwt beam="2">  1       -1 0.82140527E-01 0.11349636E+04</pdfrwt>
<totfact> 0.49840405E+01</totfact>
</mgrwt>
</event>
<event>
12    1  0.4802930E-008  0.2301271E+04  0.7818608E-02  0.8477420E-01
          2   -1    0    0  501    0  0.00000000000E+00  0.00000000000E+00  0.13747411511E+04  0.13747411511E+04  0.00000000000E+00 0.  1.
         -2   -1    0    0    0  501 -0.00000000000E+00 -0.00000000000E+00 -0.96306315252E+03  0.96306315252E+03  0.00000000000E+00 0. -1.
         23    2    1    2    0    0 -0.74513049686E+03  0.26866697243E+03 -0.40145924086E+03  0.89271793304E+03  0.91511674051E+02 0.  0.
        254    2    1    2    0    0  0.74513049686E+03 -0.26866697243E+03  0.81313723946E+03  0.14450863706E+04  0.89424887414E+03 0.  0.
         23    2    4    4    0    0  0.80198611421E+03 -0.63681259333E+02  0.26813711649E+03  0.85306389454E+03  0.92646990014E+02 0.  0.
         23    2    4    4    0    0 -0.56855617352E+02 -0.20498571309E+03  0.54500012297E+03  0.59202247607E+03  0.90629875496E+02 0.  0.
         13    1    3    3    0    0 -0.83192854811E+02  0.62353364043E+02 -0.55544294424E+02  0.11787349890E+03  0.00000000000E+00 0.  1.
        -13    1    3    3    0    0 -0.66193764205E+03  0.20631360838E+03 -0.34591494643E+03  0.77484443415E+03  0.00000000000E+00 0. -1.
          3    1    6    6  502    0  0.20575429570E+02 -0.24597289653E+02  0.48704317079E+02  0.58313681605E+02  0.00000000000E+00 0. -1.
          3    1    5    5  503    0  0.43579032349E+03 -0.42543940730E+02  0.97869227429E+02  0.44866644472E+03  0.00000000000E+00 0. -1.
         -3    1    5    5    0  503  0.36619579072E+03 -0.21137318603E+02  0.17026788906E+03  0.40439744982E+03  0.00000000000E+00 0.  1.
         -3    1    6    6    0  502 -0.77431046922E+02 -0.18038842344E+03  0.49629580590E+03  0.53370879446E+03  0.00000000000E+00 0.  1.
<mgrwt>
<rscale>  0 0.23012714E+04</rscale>
<asrwt>0</asrwt>
<pdfrwt beam="1">  1        2 0.21149864E+00 0.23012714E+04</pdfrwt>
<pdfrwt beam="2">  1       -2 0.14816356E+00 0.23012714E+04</pdfrwt>
<totfact> 0.41993100E+00</totfact>
</mgrwt>
</event>
<event>
12    1  0.4802930E-008  0.1510604E+04  0.7818608E-02  0.8877432E-01
         -1   -1    0    0    0  501 -0.00000000000E+00  0.00000000000E+00  0.20975617959E+03  0.20975617959E+03  0.00000000000E+00 0.  1.
          1   -1    0    0  501    0  0.00000000000E+00 -0.00000000000E+00 -0.27197337979E+04  0.27197337979E+04  0.00000000000E+00 0. -1.
         23    2    1    2    0    0  0.51467862576E+01 -0.46187011391E+03 -0.10009018203E+04  0.11061728267E+04  0.91996614429E+02 0.  0.
        254    2    1    2    0    0 -0.51467862576E+01  0.46187011391E+03 -0.15090757980E+04  0.18233171508E+04  0.91314028319E+03 0.  0.
         23    2    4    4    0    0 -0.34558849342E+03  0.54660946096E+03 -0.85871528499E+03  0.10788675066E+04  0.91377494314E+02 0.  0.
         23    2    4    4    0    0  0.34044170716E+03 -0.84739347046E+02 -0.65036051300E+03  0.74444964423E+03  0.90305941177E+02 0.  0.
         11    1    3    3    0    0 -0.86080557132E+01 -0.52305161389E+01 -0.52702129549E+02  0.53656047015E+02  0.00000000000E+00 0. -1.
        -11    1    3    3    0    0  0.13754841971E+02 -0.45663959777E+03 -0.94819969075E+03  0.10525167797E+04  0.00000000000E+00 0.  1.
          1    1    5    5  502    0 -0.23557007304E+03  0.40290297924E+03 -0.67798170888E+03  0.82309371736E+03  0.00000000000E+00 0. -1.
          3    1    6    6  503    0  0.20927468687E+03 -0.79979533916E+02 -0.33659450994E+03  0.40433709270E+03  0.00000000000E+00 0. -1.
         -1    1    5    5    0  502 -0.11001842038E+03  0.14370648172E+03 -0.18073357612E+03  0.25577378921E+03  0.00000000000E+00 0.  1.
         -3    1    6    6    0  503  0.13116702029E+03 -0.47598131306E+01 -0.31376600306E+03  0.34011255153E+03  0.00000000000E+00 0.  1.
<mgrwt>
<rscale>  0 0.15106038E+04</rscale>
<asrwt>0</asrwt>
<pdfrwt beam="1">  1        1 0.41842054E+00 0.15106038E+04</pdfrwt>
<pdfrwt beam="2">  1       -1 0.32270185E-01 0.15106038E+04</pdfrwt>
<totfact> 0.82717036E+00</totfact>
</mgrwt>
</event>
<event>
12    1  0.4802930E-008  0.1314893E+04  0.7818608E-02  0.9017837E-01
          2   -1    0    0  501    0  0.00000000000E+00  0.00000000000E+00  0.10728834149E+04  0.10728834149E+04  0.00000000000E+00 0.  1.
         -2   -1    0    0    0  501 -0.00000000000E+00 -0.00000000000E+00 -0.40287330463E+03  0.40287330463E+03  0.00000000000E+00 0. -1.
         23    2    1    2    0    0  0.27748701484E+03 -0.13979786701E+03  0.29745514067E+02  0.32532767488E+03  0.91710486903E+02 0.  0.
        254    2    1    2    0    0 -0.27748701484E+03  0.13979786701E+03  0.64026459621E+03  0.11504290447E+04  0.90388370192E+03 0.  0.
         23    2    4    4    0    0  0.67448415381E+02 -0.32561742487E+03  0.36657309808E+03  0.50331766869E+03  0.91525096369E+02 0.  0.
         23    2    4    4    0    0 -0.34493543022E+03  0.46541529188E+03  0.27369149814E+03  0.64711137597E+03  0.90852913107E+02 0.  0.
         13    1    3    3    0    0  0.78572358665E+02 -0.44145642676E+02 -0.32818363662E+02  0.95914015175E+02  0.00000000000E+00 0. -1.
        -13    1    3    3    0    0  0.19891465617E+03 -0.95652224333E+02  0.62563877729E+02  0.22941365970E+03  0.00000000000E+00 0.  1.
          4    1    5    5  502    0  0.37685306857E+02 -0.29603712797E+03  0.34491061754E+03  0.45609373772E+03  0.00000000000E+00 0.  1.
          3    1    6    6  503    0 -0.10545545895E+03  0.81643591883E+02  0.75320286749E+02  0.15316551672E+03  0.00000000000E+00 0. -1.
         -4    1    5    5    0  502  0.29763108524E+02 -0.29580296899E+02  0.21662480532E+02  0.47223930972E+02  0.00000000000E+00 0. -1.
         -3    1    6    6    0  503 -0.23947997128E+03  0.38377169999E+03  0.19837121139E+03  0.49394585924E+03  0.00000000000E+00 0.  1.
<mgrwt>
<rscale>  0 0.13148933E+04</rscale>
<asrwt>0</asrwt>
<pdfrwt beam="1">  1        2 0.16505899E+00 0.13148933E+04</pdfrwt>
<pdfrwt beam="2">  1       -2 0.61980509E-01 0.13148933E+04</pdfrwt>
<totfact> 0.53610947E+01</totfact>
</mgrwt>
</event>
<event>
12    1  0.4802930E-008  0.1253277E+04  0.7818608E-02  0.9067460E-01
         -2   -1    0    0    0  501 -0.00000000000E+00  0.00000000000E+00  0.58641097356E+03  0.58641097356E+03  0.00000000000E+00 0.  1.
          2   -1    0    0  501    0  0.00000000000E+00 -0.00000000000E+00 -0.66962568372E+03  0.66962568372E+03  0.00000000000E+00 0. -1.
         23    2    1    2    0    0 -0.22579217166E+02  0.28561018082E+03 -0.83114994689E+02  0.31240302560E+03  0.92760722440E+02 0.  0.
        254    2    1    2    0    0  0.22579217166E+02 -0.28561018082E+03 -0.99715470125E-01  0.94363363168E+03  0.89908921941E+03 0.  0.
         23    2    4    4    0    0  0.20372966607E+03  0.25947665651E+03  0.93587777621E+02  0.35475428552E+03  0.90873642261E+02 0.  0.
         23    2    4    4    0    0 -0.18115044891E+03 -0.54508683733E+03 -0.93687493091E+02  0.58887934617E+03  0.89813098225E+02 0.  0.
         13    1    3    3    0    0 -0.35901189315E+02  0.60379359764E+02 -0.45420258275E+02  0.83651433589E+02  0.00000000000E+00 0. -1.
        -13    1    3    3    0    0  0.13321972149E+02  0.22523082105E+03 -0.37694736414E+02  0.22875159201E+03  0.00000000000E+00 0.  1.
          2    1    5    5  502    0  0.19105697889E+03  0.23396027449E+03  0.55381284896E+02  0.30709488101E+03  0.00000000000E+00 0. -1.
          1    1    6    6  503    0 -0.14248480945E+03 -0.46920256381E+03 -0.49280259430E+02  0.49283010336E+03  0.00000000000E+00 0. -1.
         -2    1    5    5    0  502  0.12672687183E+02  0.25516382022E+02  0.38206492725E+02  0.47659404510E+02  0.00000000000E+00 0.  1.
         -1    1    6    6    0  503 -0.38665639459E+02 -0.75884273516E+02 -0.44407233661E+02  0.96049242804E+02  0.00000000000E+00 0.  1.
<mgrwt>
<rscale>  0 0.12532771E+04</rscale>
<asrwt>0</asrwt>
<pdfrwt beam="1">  1        2 0.10301934E+00 0.12532771E+04</pdfrwt>
<pdfrwt beam="2">  1       -2 0.90217073E-01 0.12532771E+04</pdfrwt>
<totfact> 0.44792055E+01</totfact>
</mgrwt>
</event>
<event>
12    1  0.4802930E-008  0.1251372E+04  0.7818608E-02  0.9069042E-01
          1   -1    0    0  501    0  0.00000000000E+00  0.00000000000E+00  0.56172711643E+03  0.56172711643E+03  0.00000000000E+00 0. -1.
         -1   -1    0    0    0  501 -0.00000000000E+00 -0.00000000000E+00 -0.69692734023E+03  0.69692734023E+03  0.00000000000E+00 0.  1.
         23    2    1    2    0    0  0.49658839474E+02  0.47505022861E+02 -0.32070104404E+03  0.34084090255E+03  0.92739601393E+02 0.  0.
        254    2    1    2    0    0 -0.49658839474E+02 -0.47505022861E+02  0.18550082024E+03  0.91781355411E+03  0.89624128350E+03 0.  0.
         23    2    4    4    0    0  0.86468438980E+02  0.27969927575E+03  0.39200377312E+03  0.49771466352E+03  0.91347973988E+02 0.  0.
         23    2    4    4    0    0 -0.13612727845E+03 -0.32720429861E+03 -0.20650295287E+03  0.42009889059E+03  0.90809247085E+02 0.  0.
         11    1    3    3    0    0  0.76941181096E+02  0.40065863643E+02 -0.22906530061E+03  0.24494107602E+03  0.00000000000E+00 0.  1.
        -11    1    3    3    0    0 -0.27282341622E+02  0.74391592179E+01 -0.91635743439E+02  0.95899826537E+02  0.00000000000E+00 0. -1.
          2    1    5    5  502    0  0.16146470553E+02  0.29542282738E+02  0.10635042885E+03  0.11155208961E+03  0.00000000000E+00 0. -1.
          4    1    6    6  503    0 -0.58353757826E+02 -0.96403022765E+02 -0.22647159323E+02  0.11494171426E+03  0.00000000000E+00 0. -1.
         -2    1    5    5    0  502  0.70321968426E+02  0.25015699301E+03  0.28565334427E+03  0.38616257391E+03  0.00000000000E+00 0.  1.
         -4    1    6    6    0  503 -0.77773520627E+02 -0.23080127585E+03 -0.18385579355E+03  0.30515717633E+03  0.00000000000E+00 0.  1.
<mgrwt>
<rscale>  0 0.12513720E+04</rscale>
<asrwt>0</asrwt>
<pdfrwt beam="1">  1        1 0.86419556E-01 0.12513720E+04</pdfrwt>
<pdfrwt beam="2">  1       -1 0.10721959E+00 0.12513720E+04</pdfrwt>
<totfact> 0.30109334E+01</totfact>
</mgrwt>
</event>
<event>
12    1  0.4802930E-008  0.1666618E+04  0.7818608E-02  0.8780636E-01
         -2   -1    0    0    0  501 -0.00000000000E+00  0.00000000000E+00  0.29162219112E+03  0.29162219112E+03  0.00000000000E+00 0.  1.
          2   -1    0    0  501    0  0.00000000000E+00 -0.00000000000E+00 -0.23811750073E+04  0.23811750073E+04  0.00000000000E+00 0. -1.
         23    2    1    2    0    0 -0.52695907640E+03 -0.51282928209E+02 -0.11383755250E+04  0.12587591413E+04  0.90884172818E+02 0.  0.
        254    2    1    2    0    0  0.52695907640E+03  0.51282928209E+02 -0.95117729120E+03  0.14140380572E+04  0.90246860386E+03 0.  0.
         23    2    4    4    0    0 -0.19415540250E+03 -0.18256916728E+03 -0.23173953307E+03  0.36483151470E+03  0.91493178820E+02 0.  0.
         23    2    4    4    0    0  0.72111447890E+03  0.23385209549E+03 -0.71943775814E+03  0.10492065425E+04  0.92470464061E+02 0.  0.
         13    1    3    3    0    0 -0.45115120328E+03 -0.75551300636E+02 -0.98037013485E+03  0.10818368678E+04  0.00000000000E+00 0. -1.
        -13    1    3    3    0    0 -0.75807873118E+02  0.24268372427E+02 -0.15800539017E+03  0.17692227347E+03  0.00000000000E+00 0.  1.
          2    1    5    5  502    0 -0.12332530663E+03 -0.16240703605E+03 -0.19649656712E+03  0.28318911968E+03  0.00000000000E+00 0. -1.
          4    1    6    6  503    0  0.52289704316E+03  0.20939217378E+03 -0.55080738004E+03  0.78781671098E+03  0.00000000000E+00 0. -1.
         -2    1    5    5    0  502 -0.70830095863E+02 -0.20162131236E+02 -0.35242965942E+02  0.81642395018E+02  0.00000000000E+00 0.  1.
         -4    1    6    6    0  503  0.19821743574E+03  0.24459921710E+02 -0.16863037809E+03  0.26138983151E+03  0.00000000000E+00 0.  1.
<mgrwt>
<rscale>  0 0.16666175E+04</rscale>
<asrwt>0</asrwt>
<pdfrwt beam="1">  1        2 0.36633461E+00 0.16666175E+04</pdfrwt>
<pdfrwt beam="2">  1       -2 0.44864953E-01 0.16666175E+04</pdfrwt>
<totfact> 0.18341436E+01</totfact>
</mgrwt>
</event>
<event>
12    1  0.4802930E-008  0.1154787E+04  0.7818608E-02  0.9153378E-01
         -2   -1    0    0    0  501 -0.00000000000E+00  0.00000000000E+00  0.24254833392E+03  0.24254833392E+03  0.00000000000E+00 0.  1.
          2   -1    0    0  501    0  0.00000000000E+00 -0.00000000000E+00 -0.13745028760E+04  0.13745028760E+04  0.00000000000E+00 0. -1.
         23    2    1    2    0    0  0.51250086716E+02  0.12508932078E+03 -0.46474502328E+03  0.49277198766E+03  0.92533159454E+02 0.  0.
        254    2    1    2    0    0 -0.51250086716E+02 -0.12508932078E+03 -0.66720951882E+03  0.11242792223E+04  0.89474092232E+03 0.  0.
         23    2    4    4    0    0  0.21577419555E+03 -0.26759138964E+03 -0.72106745813E+03  0.80394456807E+03  0.90691422307E+02 0.  0.
         23    2    4    4    0    0 -0.26702428227E+03  0.14250206886E+03  0.53857939310E+02  0.32033465420E+03  0.90026696638E+02 0.  0.
         13    1    3    3    0    0  0.45649062208E+02  0.12870822709E+03 -0.46633240091E+03  0.48591722828E+03  0.00000000000E+00 0. -1.
        -13    1    3    3    0    0  0.56010245077E+01 -0.36189063082E+01  0.15873776322E+01  0.68547593795E+01  0.00000000000E+00 0.  1.
          2    1    5    5  502    0  0.21959777740E+03 -0.23840345898E+03 -0.63425983152E+03  0.71228149419E+03  0.00000000000E+00 0. -1.
          1    1    6    6  503    0 -0.59584811595E+02 -0.66382108626E+01  0.16050152706E+02  0.62064668034E+02  0.00000000000E+00 0. -1.
         -2    1    5    5    0  502 -0.38235818514E+01 -0.29187930659E+02 -0.86807626616E+02  0.91663073879E+02  0.00000000000E+00 0.  1.
         -1    1    6    6    0  503 -0.20743947067E+03  0.14914027972E+03  0.37807786604E+02  0.25826998617E+03  0.00000000000E+00 0.  1.
<mgrwt>
<rscale>  0 0.11547872E+04</rscale>
<asrwt>0</asrwt>
<pdfrwt beam="1">  1        2 0.21146198E+00 0.11547872E+04</pdfrwt>
<pdfrwt beam="2">  1       -2 0.37315129E-01 0.11547872E+04</pdfrwt>
<totfact> 0.10021879E+02</totfact>
</mgrwt>
</event>
<event>
12    1  0.4802930E-008  0.1736333E+04  0.7818608E-02  0.8740910E-01
         -1   -1    0    0    0  501 -0.00000000000E+00  0.00000000000E+00  0.39910242326E+03  0.39910242326E+03  0.00000000000E+00 0.  1.
          1   -1    0    0  501    0  0.00000000000E+00 -0.00000000000E+00 -0.18885196915E+04  0.18885196915E+04  0.00000000000E+00 0. -1.
         23    2    1    2    0    0 -0.62336314907E+03 -0.88303914307E+02 -0.60754910052E+03  0.87992353168E+03  0.93649960814E+02 0.  0.
        254    2    1    2    0    0  0.62336314907E+03  0.88303914307E+02 -0.88186816773E+03  0.14076985831E+04  0.89863487505E+03 0.  0.
         23    2    4    4    0    0  0.12829458915E+03 -0.15902539306E+03 -0.81236845045E+03  0.84240633977E+03  0.89204062459E+02 0.  0.
         23    2    4    4    0    0  0.49506855992E+03  0.24732930737E+03 -0.69499717280E+02  0.56529224331E+03  0.91980673726E+02 0.  0.
         11    1    3    3    0    0 -0.45059274785E+03 -0.72156588457E+02 -0.38047980320E+03  0.59414247308E+03  0.00000000000E+00 0. -1.
        -11    1    3    3    0    0 -0.17277040122E+03 -0.16147325850E+02 -0.22706929732E+03  0.28578105860E+03  0.00000000000E+00 0.  1.
          2    1    5    5  502    0  0.87226879828E+02 -0.85971249096E+02 -0.62874649851E+03  0.64056361404E+03  0.00000000000E+00 0. -1.
          4    1    6    6  503    0  0.30501389839E+03  0.10200046799E+03 -0.33714858198E+02  0.32337944484E+03  0.00000000000E+00 0. -1.
         -2    1    5    5    0  502  0.41067709319E+02 -0.73054143963E+02 -0.18362195193E+03  0.20184272573E+03  0.00000000000E+00 0.  1.
         -4    1    6    6    0  503  0.19005466153E+03  0.14532883938E+03 -0.35784859082E+02  0.24191279847E+03  0.00000000000E+00 0.  1.
<mgrwt>
<rscale>  0 0.17363327E+04</rscale>
<asrwt>0</asrwt>
<pdfrwt beam="1">  1        1 0.29054149E+00 0.17363327E+04</pdfrwt>
<pdfrwt beam="2">  1       -1 0.61400372E-01 0.17363327E+04</pdfrwt>
<totfact> 0.90542096E+00</totfact>
</mgrwt>
</event>
<event>
12    1  0.4802930E-008  0.2575802E+04  0.7818608E-02  0.8376468E-01
         -2   -1    0    0    0  501 -0.00000000000E+00  0.00000000000E+00  0.82561010809E+03  0.82561010809E+03  0.00000000000E+00 0. -1.
          2   -1    0    0  501    0  0.00000000000E+00 -0.00000000000E+00 -0.20090460279E+04  0.20090460279E+04  0.00000000000E+00 0.  1.
         23    2    1    2    0    0  0.45491322429E+03  0.84449784081E+03  0.14033440261E+03  0.97405423730E+03  0.94685098545E+02 0.  0.
        254    2    1    2    0    0 -0.45491322429E+03 -0.84449784081E+03 -0.13237703224E+04  0.18606018987E+04  0.88845310183E+03 0.  0.
         23    2    4    4    0    0  0.73871551284E+02 -0.52148202907E+03 -0.19316317961E+03  0.56813249209E+03  0.89788651196E+02 0.  0.
         23    2    4    4    0    0 -0.52878477557E+03 -0.32301581174E+03 -0.11306071428E+04  0.12924694066E+04  0.90841081785E+02 0.  0.
         11    1    3    3    0    0  0.41147111255E+03  0.79012493579E+03  0.15129044450E+03  0.90360095684E+03  0.00000000000E+00 0. -1.
        -11    1    3    3    0    0  0.43442111742E+02  0.54372905022E+02 -0.10956041896E+02  0.70453280457E+02  0.00000000000E+00 0.  1.
          1    1    5    5  502    0  0.82963721942E+02 -0.39770094873E+03 -0.11808063951E+03  0.42307453387E+03  0.00000000000E+00 0. -1.
          3    1    6    6  503    0 -0.38749704360E+03 -0.28037977106E+03 -0.84437692963E+03  0.97043246757E+03  0.00000000000E+00 0. -1.
         -1    1    5    5    0  502 -0.90921706571E+01 -0.12378108034E+03 -0.75082540099E+02  0.14505795823E+03  0.00000000000E+00 0.  1.
         -3    1    6    6    0  503 -0.14128773197E+03 -0.42636040676E+02 -0.28623021315E+03  0.32203693902E+03  0.00000000000E+00 0.  1.
<mgrwt>
<rscale>  0 0.25758018E+04</rscale>
<asrwt>0</asrwt>
<pdfrwt beam="1">  1        2 0.30908400E+00 0.25758018E+04</pdfrwt>
<pdfrwt beam="2">  1       -2 0.12701694E+00 0.25758018E+04</pdfrwt>
<totfact> 0.26958680E+00</totfact>
</mgrwt>
</event>
<event>
12    1  0.4802930E-008  0.1131191E+04  0.7818608E-02  0.9175313E-01
          1   -1    0    0  501    0  0.00000000000E+00  0.00000000000E+00  0.17593344314E+04  0.17593344314E+04  0.00000000000E+00 0. -1.
         -1   -1    0    0    0  501 -0.00000000000E+00 -0.00000000000E+00 -0.18182926316E+03  0.18182926316E+03  0.00000000000E+00 0.  1.
         23    2    1    2    0    0 -0.17616468757E+03 -0.39655047508E+02  0.41391190422E+03  0.46077680374E+03  0.91573350234E+02 0.  0.
        254    2    1    2    0    0  0.17616468757E+03  0.39655047508E+02  0.11635932640E+04  0.14803868908E+04  0.89721209448E+03 0.  0.
         23    2    4    4    0    0 -0.97040013747E+02  0.23421596199E+03  0.30125714551E+01  0.26893848379E+03  0.89693652816E+02 0.  0.
         23    2    4    4    0    0  0.27320470131E+03 -0.19456091448E+03  0.11605806926E+04  0.12114484070E+04  0.90360061209E+02 0.  0.
         13    1    3    3    0    0 -0.67842452378E+02 -0.44202167725E+02  0.26141454378E+03  0.27366767014E+03  0.00000000000E+00 0. -1.
        -13    1    3    3    0    0 -0.10832223519E+03  0.45471202169E+01  0.15249736043E+03  0.18710913360E+03  0.00000000000E+00 0.  1.
          4    1    5    5  502    0 -0.57968257796E+02  0.18731072900E+03 -0.31839117231E+02  0.19864379551E+03  0.00000000000E+00 0. -1.
          1    1    6    6  503    0  0.24250723696E+03 -0.20058796059E+03  0.10209337344E+04  0.10683402922E+04  0.00000000000E+00 0. -1.
         -4    1    5    5    0  502 -0.39071755951E+02  0.46905232991E+02  0.34851688686E+02  0.70294688273E+02  0.00000000000E+00 0.  1.
         -1    1    6    6    0  503  0.30697464353E+02  0.60270461059E+01  0.13964695816E+03  0.14310811482E+03  0.00000000000E+00 0.  1.
<mgrwt>
<rscale>  0 0.11311914E+04</rscale>
<asrwt>0</asrwt>
<pdfrwt beam="1">  1        1 0.27066682E+00 0.11311914E+04</pdfrwt>
<pdfrwt beam="2">  1       -1 0.27973734E-01 0.11311914E+04</pdfrwt>
<totfact> 0.49838004E+01</totfact>
</mgrwt>
</event>
<event>
12    1  0.4802930E-008  0.3058531E+04  0.7818608E-02  0.8227212E-01
         -2   -1    0    0    0  501 -0.00000000000E+00  0.00000000000E+00  0.11190049709E+04  0.11190049709E+04  0.00000000000E+00 0.  1.
          2   -1    0    0  501    0  0.00000000000E+00 -0.00000000000E+00 -0.20899403500E+04  0.20899403500E+04  0.00000000000E+00 0. -1.
         23    2    1    2    0    0 -0.10087675410E+03 -0.11548839918E+04  0.37123204445E+03  0.12207571996E+04  0.92204965029E+02 0.  0.
        254    2    1    2    0    0  0.10087675410E+03  0.11548839918E+04 -0.13421674235E+04  0.19881881213E+04  0.89863533131E+03 0.  0.
         23    2    4    4    0    0 -0.60259804268E+02  0.12409510481E+04 -0.10386882557E+04  0.16222698341E+04  0.96412522316E+02 0.  0.
         23    2    4    4    0    0  0.16113655836E+03 -0.86067056260E+02 -0.30347916783E+03  0.36591828713E+03  0.91782672336E+02 0.  0.
         11    1    3    3    0    0 -0.16465105119E+02 -0.70102617633E+03  0.23094611037E+03  0.73827156621E+03  0.00000000000E+00 0. -1.
        -11    1    3    3    0    0 -0.84411648977E+02 -0.45385781548E+03  0.14028593408E+03  0.48248563342E+03  0.00000000000E+00 0.  1.
          2    1    5    5  502    0 -0.82061888683E+02  0.10018679679E+04 -0.81436255945E+03  0.12937001031E+04  0.00000000000E+00 0. -1.
          2    1    6    6  503    0  0.15698139194E+03 -0.79044652036E+02 -0.30940026387E+03  0.35583667281E+03  0.00000000000E+00 0. -1.
         -2    1    5    5    0  502  0.21802084416E+02  0.23908308021E+03 -0.22432569627E+03  0.32856973101E+03  0.00000000000E+00 0.  1.
         -2    1    6    6    0  503  0.41551664215E+01 -0.70224042238E+01  0.59210960450E+01  0.10081614327E+02  0.00000000000E+00 0.  1.
<mgrwt>
<rscale>  0 0.30585314E+04</rscale>
<asrwt>0</asrwt>
<pdfrwt beam="1">  1        2 0.32152929E+00 0.30585314E+04</pdfrwt>
<pdfrwt beam="2">  1       -2 0.17215461E+00 0.30585314E+04</pdfrwt>
<totfact> 0.10434691E+00</totfact>
</mgrwt>
</event>
<event>
12    1  0.5471311E-008  0.1929024E+04  0.7818608E-02  0.8640543E-01
          1   -1    0    0  501    0  0.00000000000E+00  0.00000000000E+00  0.83168370827E+03  0.83168370827E+03  0.00000000000E+00 0. -1.
         -1   -1    0    0    0  501 -0.00000000000E+00 -0.00000000000E+00 -0.11185540703E+04  0.11185540703E+04  0.00000000000E+00 0.  1.
         23    2    1    2    0    0  0.68612795177E+03 -0.12291440126E+03 -0.40448260511E+03  0.81098275621E+03  0.90594353038E+02 0.  0.
        254    2    1    2    0    0 -0.68612795177E+03  0.12291440126E+03  0.11761224305E+03  0.11392550224E+04  0.89341471340E+03 0.  0.
         23    2    4    4    0    0  0.17937083979E+03 -0.11251462550E+03 -0.13257443551E+01  0.22988359564E+03  0.89505702778E+02 0.  0.
         23    2    4    4    0    0 -0.86549879156E+03  0.23542902676E+03  0.11893798740E+03  0.90937142676E+03  0.91077780633E+02 0.  0.
         11    1    3    3    0    0  0.66681212112E+03 -0.13369537103E+03 -0.39776652015E+03  0.78786487525E+03  0.00000000000E+00 0.  1.
        -11    1    3    3    0    0  0.19315830651E+02  0.10780969773E+02 -0.67160849696E+01  0.23117880965E+02  0.00000000000E+00 0. -1.
          1    1    5    5  502    0  0.17865827859E+02  0.12958618098E+02  0.11646618372E+02  0.24955105843E+02  0.00000000000E+00 0. -1.
          3    1    6    6  503    0 -0.12513974506E+03  0.26512988705E+02 -0.14061972764E+02  0.12868812471E+03  0.00000000000E+00 0. -1.
         -1    1    5    5    0  502  0.16150501193E+03 -0.12547324360E+03 -0.12972362728E+02  0.20492848980E+03  0.00000000000E+00 0.  1.
         -3    1    6    6    0  503 -0.74035904650E+03  0.20891603805E+03  0.13299996017E+03  0.78068330204E+03  0.00000000000E+00 0.  1.
<mgrwt>
<rscale>  0 0.19290238E+04</rscale>
<asrwt>0</asrwt>
<pdfrwt beam="1">  1        1 0.12795134E+00 0.19290238E+04</pdfrwt>
<pdfrwt beam="2">  1       -1 0.17208524E+00 0.19290238E+04</pdfrwt>
<totfact> 0.46021614E+00</totfact>
</mgrwt>
</event>
<event>
12    1  0.4802930E-008  0.1248000E+04  0.7818608E-02  0.9071849E-01
         -1   -1    0    0    0  501 -0.00000000000E+00  0.00000000000E+00  0.14156514671E+03  0.14156514671E+03  0.00000000000E+00 0.  1.
          1   -1    0    0  501    0  0.00000000000E+00 -0.00000000000E+00 -0.27505097170E+04  0.27505097170E+04  0.00000000000E+00 0. -1.
         23    2    1    2    0    0  0.15853281811E+02  0.99011713811E+02 -0.62252897411E+01  0.13556385185E+03  0.91017348240E+02 0.  0.
        254    2    1    2    0    0 -0.15853281811E+02 -0.99011713811E+02 -0.26027192806E+04  0.27565110119E+04  0.90230297526E+03 0.  0.
         23    2    4    4    0    0 -0.44526151655E+02  0.13672662617E+03 -0.24612234272E+04  0.24670374479E+04  0.89309920247E+02 0.  0.
         23    2    4    4    0    0  0.28672869844E+02 -0.23573833998E+03 -0.14149585333E+03  0.28947356402E+03  0.85902091672E+02 0.  0.
         11    1    3    3    0    0  0.49647504852E+02  0.67487916611E+02 -0.22186913342E+02  0.86670368351E+02  0.00000000000E+00 0. -1.
        -11    1    3    3    0    0 -0.33794223041E+02  0.31523797200E+02  0.15961623601E+02  0.48893483500E+02  0.00000000000E+00 0.  1.
          4    1    5    5  502    0 -0.13943638737E+02  0.13432000773E+03 -0.21713588641E+04  0.21755540918E+04  0.00000000000E+00 0. -1.
          4    1    6    6  503    0  0.26205481301E+02 -0.21659679908E+03 -0.15348260615E+03  0.26675421461E+03  0.00000000000E+00 0. -1.
         -4    1    5    5    0  502 -0.30582512918E+02  0.24066184455E+01 -0.28986456312E+03  0.29148335607E+03  0.00000000000E+00 0.  1.
         -4    1    6    6    0  503  0.24673885433E+01 -0.19141540906E+02  0.11986752821E+02  0.22719349411E+02  0.00000000000E+00 0.  1.
<mgrwt>
<rscale>  0 0.12480005E+04</rscale>
<asrwt>0</asrwt>
<pdfrwt beam="1">  1        1 0.42315531E+00 0.12480005E+04</pdfrwt>
<pdfrwt beam="2">  1       -1 0.21779255E-01 0.12480005E+04</pdfrwt>
<totfact> 0.15925972E+01</totfact>
</mgrwt>
</event>
<event>
12    1  0.4802930E-008  0.1708933E+04  0.7818608E-02  0.8756286E-01
         -1   -1    0    0    0  501 -0.00000000000E+00  0.00000000000E+00  0.49745722772E+03  0.49745722772E+03  0.00000000000E+00 0.  1.
          1   -1    0    0  501    0  0.00000000000E+00 -0.00000000000E+00 -0.14676893590E+04  0.14676893590E+04  0.00000000000E+00 0. -1.
         23    2    1    2    0    0  0.21139277543E+03  0.15668750956E+03  0.28347587112E+03  0.39750453201E+03  0.91724600311E+02 0.  0.
        254    2    1    2    0    0 -0.21139277543E+03 -0.15668750956E+03 -0.12537080024E+04  0.15676420547E+04  0.90359281496E+03 0.  0.
         23    2    4    4    0    0  0.18032032954E+01 -0.22726073100E+03 -0.12977162579E+04  0.13204582641E+04  0.88836083889E+02 0.  0.
         23    2    4    4    0    0 -0.21319597872E+03  0.70573221439E+02  0.44008255592E+02  0.24718379053E+03  0.93434441260E+02 0.  0.
         11    1    3    3    0    0  0.18059411739E+03  0.14826906784E+03  0.19803781111E+03  0.30629548861E+03  0.00000000000E+00 0.  1.
        -11    1    3    3    0    0  0.30798658034E+02  0.84184417164E+01  0.85438060016E+02  0.91209043394E+02  0.00000000000E+00 0. -1.
          1    1    5    5  502    0 -0.57184632412E+01 -0.20100147782E+03 -0.91820522059E+03  0.93996548981E+03  0.00000000000E+00 0.  1.
          3    1    6    6  503    0 -0.28910711040E+02  0.55725275428E+01 -0.26328697588E+02  0.39497880864E+02  0.00000000000E+00 0. -1.
         -1    1    5    5    0  502  0.75216665366E+01 -0.26259253179E+02 -0.37951103735E+03  0.38049277433E+03  0.00000000000E+00 0. -1.
         -3    1    6    6    0  503 -0.18428526768E+03  0.65000693896E+02  0.70336953180E+02  0.20768590967E+03  0.00000000000E+00 0.  1.
<mgrwt>
<rscale>  0 0.17089326E+04</rscale>
<asrwt>0</asrwt>
<pdfrwt beam="1">  1        1 0.22579836E+00 0.17089326E+04</pdfrwt>
<pdfrwt beam="2">  1       -1 0.76531881E-01 0.17089326E+04</pdfrwt>
<totfact> 0.11224586E+01</totfact>
</mgrwt>
</event>
<event>
12    1  0.4802930E-008  0.1899140E+04  0.7818608E-02  0.8655285E-01
         -2   -1    0    0    0  501 -0.00000000000E+00  0.00000000000E+00  0.13672034970E+04  0.13672034970E+04  0.00000000000E+00 0.  1.
          2   -1    0    0  501    0  0.00000000000E+00 -0.00000000000E+00 -0.65950905696E+03  0.65950905696E+03  0.00000000000E+00 0. -1.
         23    2    1    2    0    0  0.42882111270E+03 -0.58264679900E+03  0.42810355033E+03  0.84600012542E+03  0.95282334746E+02 0.  0.
        254    2    1    2    0    0 -0.42882111270E+03  0.58264679900E+03  0.27959088966E+03  0.11807124285E+04  0.89025048954E+03 0.  0.
         23    2    4    4    0    0 -0.63463942031E+03  0.54824263991E+03  0.31924047644E+02  0.84407466499E+03  0.90031712384E+02 0.  0.
         23    2    4    4    0    0  0.20581830761E+03  0.34404159095E+02  0.24766684201E+03  0.33663776351E+03  0.91876532777E+02 0.  0.
         11    1    3    3    0    0  0.23031327038E+03 -0.33893304112E+03  0.29360035922E+03  0.50410413588E+03  0.00000000000E+00 0.  1.
        -11    1    3    3    0    0  0.19850784232E+03 -0.24371375788E+03  0.13450319111E+03  0.34189598954E+03  0.00000000000E+00 0. -1.
          1    1    5    5  502    0 -0.39717522321E+03  0.39033310157E+03 -0.20990788125E+01  0.55687744993E+03  0.00000000000E+00 0. -1.
          1    1    6    6  503    0  0.17773808237E+03  0.46850701937E+02  0.15981255479E+03  0.24356901869E+03  0.00000000000E+00 0. -1.
         -1    1    5    5    0  502 -0.23746419709E+03  0.15790953834E+03  0.34023126457E+02  0.28719721505E+03  0.00000000000E+00 0.  1.
         -1    1    6    6    0  503  0.28080225238E+02 -0.12446542842E+02  0.87854287224E+02  0.93068744817E+02  0.00000000000E+00 0.  1.
<mgrwt>
<rscale>  0 0.18991399E+04</rscale>
<asrwt>0</asrwt>
<pdfrwt beam="1">  1        2 0.10146293E+00 0.18991399E+04</pdfrwt>
<pdfrwt beam="2">  1       -2 0.21033900E+00 0.18991399E+04</pdfrwt>
<totfact> 0.47091875E+00</totfact>
</mgrwt>
</event>
<event>
12    1  0.4802930E-008  0.3646519E+04  0.7818608E-02  0.8079918E-01
         -2   -1    0    0    0  501 -0.00000000000E+00  0.00000000000E+00  0.14918193904E+04  0.14918193904E+04  0.00000000000E+00 0.  1.
          2   -1    0    0  501    0  0.00000000000E+00 -0.00000000000E+00 -0.22283367416E+04  0.22283367416E+04  0.00000000000E+00 0. -1.
         23    2    1    2    0    0  0.62563399644E+03 -0.15291154591E+04  0.10613068707E+03  0.16588697472E+04  0.10475271225E+03 0.  0.
        254    2    1    2    0    0 -0.62563399644E+03  0.15291154591E+04 -0.84264803820E+03  0.20612863848E+04  0.89957426560E+03 0.  0.
         23    2    4    4    0    0 -0.68019018945E+03  0.15990379894E+04 -0.72283133352E+03  0.18842388036E+04  0.91046949358E+02 0.  0.
         23    2    4    4    0    0  0.54556193005E+02 -0.69922530348E+02 -0.11981670468E+03  0.17704758120E+03  0.95521017799E+02 0.  0.
         13    1    3    3    0    0  0.47654454054E+03 -0.11254910777E+04  0.34789934254E+02  0.12227163222E+04  0.00000000000E+00 0.  1.
        -13    1    3    3    0    0  0.14908945590E+03 -0.40362438139E+03  0.71340752812E+02  0.43615342499E+03  0.00000000000E+00 0. -1.
          4    1    5    5  502    0 -0.51723731985E+03  0.11814213351E+04 -0.57655188052E+03  0.14126934866E+04  0.00000000000E+00 0.  1.
          1    1    6    6  503    0  0.18526904229E+02 -0.13405496538E+02  0.14401336120E+02  0.27025025436E+02  0.00000000000E+00 0. -1.
         -4    1    5    5    0  502 -0.16295286960E+03  0.41761665433E+03 -0.14627945300E+03  0.47154531708E+03  0.00000000000E+00 0. -1.
         -1    1    6    6    0  503  0.36029288776E+02 -0.56517033809E+02 -0.13421804080E+03  0.15002255576E+03  0.00000000000E+00 0.  1.
<mgrwt>
<rscale>  0 0.36465194E+04</rscale>
<asrwt>0</asrwt>
<pdfrwt beam="1">  1        2 0.34282104E+00 0.36465194E+04</pdfrwt>
<pdfrwt beam="2">  1       -2 0.22951068E+00 0.36465194E+04</pdfrwt>
<totfact> 0.34799320E-01</totfact>
</mgrwt>
</event>
<event>
12    1  0.4802930E-008  0.2777046E+04  0.7818608E-02  0.8310430E-01
          2   -1    0    0  501    0  0.00000000000E+00  0.00000000000E+00  0.25202664448E+04  0.25202664448E+04  0.00000000000E+00 0. -1.
         -2   -1    0    0    0  501 -0.00000000000E+00 -0.00000000000E+00 -0.76499701757E+03  0.76499701757E+03  0.00000000000E+00 0.  1.
         23    2    1    2    0    0  0.42642679675E+03  0.51263824600E+02 -0.58907205969E+03  0.73456724024E+03  0.90085216540E+02 0.  0.
        254    2    1    2    0    0 -0.42642679675E+03 -0.51263824600E+02  0.23443414869E+04  0.25506962221E+04  0.90865087773E+03 0.  0.
         23    2    4    4    0    0 -0.90887505782E+02 -0.32342617043E+03  0.30183225236E+03  0.46129619386E+03  0.93949153705E+02 0.  0.
         23    2    4    4    0    0 -0.33553929096E+03  0.27216234583E+03  0.20425092345E+04  0.20894000283E+04  0.84199445376E+02 0.  0.
         13    1    3    3    0    0  0.28487731184E+03 -0.89511433702E+01 -0.38288092399E+03  0.47731856001E+03  0.00000000000E+00 0.  1.
        -13    1    3    3    0    0  0.14154948490E+03  0.60214967971E+02 -0.20619113570E+03  0.25724868024E+03  0.00000000000E+00 0. -1.
          2    1    5    5  502    0 -0.30960684932E+02 -0.19903833550E+03  0.22972707602E+03  0.30553126266E+03  0.00000000000E+00 0. -1.
          1    1    6    6  503    0 -0.30317231596E+03  0.21931156462E+03  0.16397860386E+04  0.16819361664E+04  0.00000000000E+00 0. -1.
         -2    1    5    5    0  502 -0.59926820850E+02 -0.12438783493E+03  0.72105176341E+02  0.15576493120E+03  0.00000000000E+00 0.  1.
         -1    1    6    6    0  503 -0.32366975007E+02  0.52850781205E+02  0.40272319595E+03  0.40746386184E+03  0.00000000000E+00 0.  1.
<mgrwt>
<rscale>  0 0.27770461E+04</rscale>
<asrwt>0</asrwt>
<pdfrwt beam="1">  1        2 0.38773329E+00 0.27770461E+04</pdfrwt>
<pdfrwt beam="2">  1       -2 0.11769185E+00 0.27770461E+04</pdfrwt>
<totfact> 0.16452626E+00</totfact>
</mgrwt>
</event>
<event>
12    1  0.4802930E-008  0.2434924E+04  0.7818608E-02  0.8426543E-01
          1   -1    0    0  501    0  0.00000000000E+00  0.00000000000E+00  0.16453991232E+04  0.16453991232E+04  0.00000000000E+00 0. -1.
         -1   -1    0    0    0  501 -0.00000000000E+00 -0.00000000000E+00 -0.90082357715E+03  0.90082357715E+03  0.00000000000E+00 0.  1.
         23    2    1    2    0    0 -0.14497629932E+03 -0.57325074649E+03  0.12303385152E+04  0.13680879586E+04  0.91089267224E+02 0.  0.
        254    2    1    2    0    0  0.14497629932E+03  0.57325074649E+03 -0.48576296918E+03  0.11781347418E+04  0.89576853139E+03 0.  0.
         23    2    4    4    0    0 -0.16110995905E+03 -0.78274149959E+01 -0.48072015180E+03  0.51521810881E+03  0.91324410592E+02 0.  0.
         23    2    4    4    0    0  0.30608625836E+03  0.58107816148E+03 -0.50428173822E+01  0.66291663296E+03  0.89957795320E+02 0.  0.
         13    1    3    3    0    0 -0.10962576201E+03 -0.28349212704E+03  0.68891519803E+03  0.75298721362E+03  0.00000000000E+00 0. -1.
        -13    1    3    3    0    0 -0.35350537306E+02 -0.28975861945E+03  0.54142331718E+03  0.61510074493E+03  0.00000000000E+00 0.  1.
          4    1    5    5  502    0 -0.43649782002E+02 -0.43912691530E+02 -0.18051687929E+03  0.19084017307E+03  0.00000000000E+00 0.  1.
          3    1    6    6  503    0  0.26638569691E+03  0.43328419211E+03  0.13244104579E+02  0.50879459210E+03  0.00000000000E+00 0. -1.
         -4    1    5    5    0  502 -0.11746017704E+03  0.36085276534E+02 -0.30020327251E+03  0.32437793574E+03  0.00000000000E+00 0. -1.
         -3    1    6    6    0  503  0.39700561456E+02  0.14779396938E+03 -0.18286921961E+02  0.15412204086E+03  0.00000000000E+00 0.  1.
<mgrwt>
<rscale>  0 0.24349245E+04</rscale>
<asrwt>0</asrwt>
<pdfrwt beam="1">  1        1 0.25313833E+00 0.24349245E+04</pdfrwt>
<pdfrwt beam="2">  1       -1 0.13858824E+00 0.24349245E+04</pdfrwt>
<totfact> 0.19972285E+00</totfact>
</mgrwt>
</event>
<event>
12    1  0.4802930E-008  0.2162159E+04  0.7818608E-02  0.8534345E-01
          2   -1    0    0  501    0  0.00000000000E+00  0.00000000000E+00  0.35149974191E+04  0.35149974191E+04  0.00000000000E+00 0. -1.
         -2   -1    0    0    0  501 -0.00000000000E+00 -0.00000000000E+00 -0.33249903567E+03  0.33249903567E+03  0.00000000000E+00 0.  1.
         23    2    1    2    0    0 -0.66725733507E+03  0.34140007005E+03  0.21874006005E+04  0.23139854170E+04  0.89558718983E+02 0.  0.
        254    2    1    2    0    0  0.66725733507E+03 -0.34140007005E+03  0.99509778293E+03  0.15335110377E+04  0.89423159542E+03 0.  0.
         23    2    4    4    0    0 -0.52318518664E+02  0.15954424186E+03 -0.17435895314E+02  0.19119934196E+03  0.89786332013E+02 0.  0.
         23    2    4    4    0    0  0.71957585373E+03 -0.50094431191E+03  0.10125336782E+04  0.13423116958E+04  0.88552956640E+02 0.  0.
         11    1    3    3    0    0 -0.51291656609E+03  0.28219097273E+03  0.17994637269E+04  0.18922961854E+04  0.00000000000E+00 0. -1.
        -11    1    3    3    0    0 -0.15434076897E+03  0.59209097319E+02  0.38793687353E+03  0.42168923157E+03  0.00000000000E+00 0.  1.
          2    1    5    5  502    0 -0.56636732521E+02  0.37417964593E+02 -0.93218730769E+00  0.67887351680E+02  0.00000000000E+00 0. -1.
          1    1    6    6  503    0  0.58104886043E+02 -0.20467505645E+02  0.96639329774E+02  0.11460478449E+03  0.00000000000E+00 0. -1.
         -2    1    5    5    0  502  0.43182138570E+01  0.12212627726E+03 -0.16503708007E+02  0.12331199028E+03  0.00000000000E+00 0.  1.
         -1    1    6    6    0  503  0.66147096769E+03 -0.48047680627E+03  0.91589434847E+03  0.12277069113E+04  0.00000000000E+00 0.  1.
<mgrwt>
<rscale>  0 0.21621593E+04</rscale>
<asrwt>0</asrwt>
<pdfrwt beam="1">  1        2 0.54076881E+00 0.21621593E+04</pdfrwt>
<pdfrwt beam="2">  1       -2 0.51153700E-01 0.21621593E+04</pdfrwt>
<totfact> 0.26380909E+00</totfact>
</mgrwt>
</event>
<event>
12    1  0.4802930E-008  0.1887176E+04  0.7818608E-02  0.8661266E-01
          2   -1    0    0  501    0  0.00000000000E+00  0.00000000000E+00  0.12705986053E+04  0.12705986053E+04  0.00000000000E+00 0. -1.
         -2   -1    0    0    0  501 -0.00000000000E+00 -0.00000000000E+00 -0.70073960623E+03  0.70073960623E+03  0.00000000000E+00 0.  1.
         23    2    1    2    0    0 -0.22600662549E+03  0.30950516218E+03  0.86570830463E+03  0.95126072494E+03  0.92594049124E+02 0.  0.
        254    2    1    2    0    0  0.22600662549E+03 -0.30950516218E+03 -0.29584930556E+03  0.10200774866E+04  0.89786347898E+03 0.  0.
         23    2    4    4    0    0 -0.30756134620E+03 -0.22373159922E+03  0.95377600153E+01  0.39230514124E+03  0.95721182665E+02 0.  0.
         23    2    4    4    0    0  0.53356797169E+03 -0.85773562962E+02 -0.30538706557E+03  0.62777234536E+03  0.93728188250E+02 0.  0.
         13    1    3    3    0    0 -0.97203651814E+02  0.18953675598E+03  0.39598610270E+03  0.44964177445E+03  0.00000000000E+00 0.  1.
        -13    1    3    3    0    0 -0.12880297367E+03  0.11996840619E+03  0.46972220192E+03  0.50161895049E+03  0.00000000000E+00 0. -1.
          3    1    6    6  502    0  0.45402630669E+03 -0.70500575668E+02 -0.29523329056E+03  0.54614367541E+03  0.00000000000E+00 0. -1.
          3    1    5    5  503    0 -0.24976590396E+03 -0.13099992842E+03 -0.49639708831E+01  0.28207911840E+03  0.00000000000E+00 0. -1.
         -3    1    5    5    0  503 -0.57795442237E+02 -0.92731670798E+02  0.14501730898E+02  0.11022602284E+03  0.00000000000E+00 0.  1.
         -3    1    6    6    0  502  0.79541664994E+02 -0.15272987294E+02 -0.10153775009E+02  0.81628669950E+02  0.00000000000E+00 0.  1.
<mgrwt>
<rscale>  0 0.18871765E+04</rscale>
<asrwt>0</asrwt>
<pdfrwt beam="1">  1        2 0.19547671E+00 0.18871765E+04</pdfrwt>
<pdfrwt beam="2">  1       -2 0.10780609E+00 0.18871765E+04</pdfrwt>
<totfact> 0.11126006E+01</totfact>
</mgrwt>
</event>
<event>
12    1  0.4802930E-008  0.1952364E+04  0.7818608E-02  0.8629222E-01
          2   -1    0    0  501    0  0.00000000000E+00  0.00000000000E+00  0.23755386562E+04  0.23755386562E+04  0.00000000000E+00 0.  1.
         -2   -1    0    0    0  501 -0.00000000000E+00 -0.00000000000E+00 -0.40114307971E+03  0.40114307971E+03  0.00000000000E+00 0. -1.
         23    2    1    2    0    0  0.72658744486E+02  0.63899524162E+03  0.13519205916E+04  0.14998501621E+04  0.90923103808E+02 0.  0.
        254    2    1    2    0    0 -0.72658744486E+02 -0.63899524162E+03  0.62247498495E+03  0.12768315739E+04  0.91062041991E+03 0.  0.
         23    2    4    4    0    0  0.20019418470E+02 -0.93986641148E+02  0.69984328804E+03  0.71145308512E+03  0.84561212600E+02 0.  0.
         23    2    4    4    0    0 -0.92678162956E+02 -0.54500860047E+03 -0.77368303090E+02  0.56537848875E+03  0.89684807718E+02 0.  0.
         11    1    3    3    0    0  0.10700545383E+02  0.15397085510E+03  0.41963324516E+03  0.44711697165E+03  0.00000000000E+00 0. -1.
        -11    1    3    3    0    0  0.61958199103E+02  0.48502438652E+03  0.93228734641E+03  0.10527331904E+04  0.00000000000E+00 0.  1.
          2    1    5    5  502    0  0.44419468439E+02 -0.27139857966E+02  0.20433985321E+03  0.21086592109E+03  0.00000000000E+00 0. -1.
          1    1    6    6  503    0 -0.57258841887E+02 -0.49030726513E+03 -0.80384910212E+02  0.50014150298E+03  0.00000000000E+00 0. -1.
         -2    1    5    5    0  502 -0.24400049969E+02 -0.66846783182E+02  0.49550343483E+03  0.50058716403E+03  0.00000000000E+00 0.  1.
         -1    1    6    6    0  503 -0.35419321069E+02 -0.54701335343E+02  0.30166071225E+01  0.65236985766E+02  0.00000000000E+00 0.  1.
<mgrwt>
<rscale>  0 0.19523636E+04</rscale>
<asrwt>0</asrwt>
<pdfrwt beam="1">  1        2 0.36546748E+00 0.19523636E+04</pdfrwt>
<pdfrwt beam="2">  1       -2 0.61714321E-01 0.19523636E+04</pdfrwt>
<totfact> 0.93451961E+00</totfact>
</mgrwt>
</event>
<event>
12    1  0.4802930E-008  0.1326996E+04  0.7818608E-02  0.9008427E-01
         -1   -1    0    0    0  501 -0.00000000000E+00  0.00000000000E+00  0.13168591627E+04  0.13168591627E+04  0.00000000000E+00 0.  1.
          1   -1    0    0  501    0  0.00000000000E+00 -0.00000000000E+00 -0.33430278984E+03  0.33430278984E+03  0.00000000000E+00 0. -1.
         23    2    1    2    0    0 -0.72769928574E+02  0.34395534035E+03  0.20889704664E+03  0.41918968857E+03  0.92093866541E+02 0.  0.
        254    2    1    2    0    0  0.72769928574E+02 -0.34395534035E+03  0.77365932626E+03  0.12319722640E+04  0.89196758210E+03 0.  0.
         23    2    4    4    0    0  0.36351231243E+01  0.20868848059E+03  0.59835927144E+03  0.64065282200E+03  0.94011300228E+02 0.  0.
         23    2    4    4    0    0  0.69134805450E+02 -0.55264382094E+03  0.17530005482E+03  0.59131944200E+03  0.93454583216E+02 0.  0.
         13    1    3    3    0    0 -0.57658218551E+02  0.28258661190E+03  0.12545397987E+03  0.31451290030E+03  0.00000000000E+00 0. -1.
        -13    1    3    3    0    0 -0.15111710023E+02  0.61368728447E+02  0.83443066770E+02  0.10467678827E+03  0.00000000000E+00 0.  1.
          4    1    5    5  502    0 -0.21553634043E+02  0.11117536313E+03  0.42820190875E+03  0.44292369000E+03  0.00000000000E+00 0. -1.
          3    1    6    6  503    0  0.42688323459E+02 -0.43682339689E+03  0.98394487811E+02  0.44979823061E+03  0.00000000000E+00 0. -1.
         -4    1    5    5    0  502  0.25188757167E+02  0.97513117460E+02  0.17015736270E+03  0.19772913201E+03  0.00000000000E+00 0.  1.
         -3    1    6    6    0  503  0.26446481991E+02 -0.11582042405E+03  0.76905567006E+02  0.14152121139E+03  0.00000000000E+00 0.  1.
<mgrwt>
<rscale>  0 0.13269961E+04</rscale>
<asrwt>0</asrwt>
<pdfrwt beam="1">  1        1 0.51431199E-01 0.13269961E+04</pdfrwt>
<pdfrwt beam="2">  1       -1 0.20259371E+00 0.13269961E+04</pdfrwt>
<totfact> 0.10775287E+01</totfact>
</mgrwt>
</event>
<event>
12    1  0.4802930E-008  0.1876746E+04  0.7818608E-02  0.8666519E-01
         -2   -1    0    0    0  501 -0.00000000000E+00  0.00000000000E+00  0.76774325449E+03  0.76774325449E+03  0.00000000000E+00 0.  1.
          2   -1    0    0  501    0  0.00000000000E+00 -0.00000000000E+00 -0.11469254220E+04  0.11469254220E+04  0.00000000000E+00 0. -1.
         23    2    1    2    0    0 -0.72594005993E+02 -0.21769201486E+03 -0.83520315445E+03  0.87086840963E+03  0.90486322982E+02 0.  0.
        254    2    1    2    0    0  0.72594005993E+02  0.21769201486E+03  0.45602098691E+03  0.10438002669E+04  0.91044173542E+03 0.  0.
         23    2    4    4    0    0  0.96554250899E+02 -0.24728854988E+03 -0.11306281314E+03  0.30260606450E+03  0.91174998152E+02 0.  0.
         23    2    4    4    0    0 -0.23960244906E+02  0.46498056475E+03  0.56908380005E+03  0.74119420238E+03  0.93442256134E+02 0.  0.
         11    1    3    3    0    0 -0.37416988366E+02 -0.86458187786E+02 -0.19704669443E+03  0.21840890329E+03  0.00000000000E+00 0.  1.
        -11    1    3    3    0    0 -0.35177017627E+02 -0.13123382707E+03 -0.63815646002E+03  0.65245950633E+03  0.00000000000E+00 0. -1.
          1    1    6    6  502    0 -0.38501710727E+02  0.12212569315E+03  0.11566322672E+03  0.17255448030E+03  0.00000000000E+00 0. -1.
          1    1    5    5  503    0 -0.94786524119E+01  0.61019707452E+00  0.15675208075E+01  0.96267498927E+01  0.00000000000E+00 0. -1.
         -1    1    5    5    0  503  0.10603290331E+03 -0.24789874696E+03 -0.11463033395E+03  0.29297931461E+03  0.00000000000E+00 0.  1.
         -1    1    6    6    0  502  0.14541465821E+02  0.34285487159E+03  0.45342057333E+03  0.56863972208E+03  0.00000000000E+00 0.  1.
<mgrwt>
<rscale>  0 0.18767464E+04</rscale>
<asrwt>0</asrwt>
<pdfrwt beam="1">  1        2 0.17645007E+00 0.18767464E+04</pdfrwt>
<pdfrwt beam="2">  1       -2 0.11811435E+00 0.18767464E+04</pdfrwt>
<totfact> 0.10567716E+01</totfact>
</mgrwt>
</event>
<event>
12    1  0.4802930E-008  0.1397552E+04  0.7818608E-02  0.8955593E-01
          2   -1    0    0  501    0  0.00000000000E+00  0.00000000000E+00  0.25917578489E+04  0.25917578489E+04  0.00000000000E+00 0.  1.
         -2   -1    0    0    0  501 -0.00000000000E+00 -0.00000000000E+00 -0.18840020478E+03  0.18840020478E+03  0.00000000000E+00 0. -1.
         23    2    1    2    0    0 -0.44078832840E+02 -0.95688136832E+02  0.14921374749E+04  0.14984141398E+04  0.87587254528E+02 0.  0.
        254    2    1    2    0    0  0.44078832840E+02  0.95688136832E+02  0.91122016920E+03  0.12817439139E+04  0.89523522109E+03 0.  0.
         23    2    4    4    0    0  0.47572984701E+02  0.46647670108E+03  0.69390430039E+03  0.84254205417E+03  0.92250926381E+02 0.  0.
         23    2    4    4    0    0 -0.34941518614E+01 -0.37078856425E+03  0.21731586881E+03  0.43920185976E+03  0.90419678734E+02 0.  0.
         11    1    3    3    0    0 -0.99010847748E+01 -0.13873561346E+02  0.85142717589E+03  0.85159775894E+03  0.00000000000E+00 0.  1.
        -11    1    3    3    0    0 -0.34177748065E+02 -0.81814575486E+02  0.64071029906E+03  0.64681638086E+03  0.00000000000E+00 0. -1.
          2    1    5    5  502    0 -0.22015578713E+02  0.39214007055E+02  0.63025626414E+02  0.77425148629E+02  0.00000000000E+00 0. -1.
          4    1    6    6  503    0  0.32519960809E+02 -0.98265701102E+02  0.34650760762E+02  0.10915297103E+03  0.00000000000E+00 0. -1.
         -2    1    5    5    0  502  0.69588563415E+02  0.42726269402E+03  0.63087867398E+03  0.76511690554E+03  0.00000000000E+00 0.  1.
         -4    1    6    6    0  503 -0.36014112670E+02 -0.27252286315E+03  0.18266510805E+03  0.33004888872E+03  0.00000000000E+00 0.  1.
<mgrwt>
<rscale>  0 0.13975517E+04</rscale>
<asrwt>0</asrwt>
<pdfrwt beam="1">  1        2 0.39873195E+00 0.13975517E+04</pdfrwt>
<pdfrwt beam="2">  1       -2 0.28984649E-01 0.13975517E+04</pdfrwt>
<totfact> 0.32903519E+01</totfact>
</mgrwt>
</event>
<event>
12    1  0.4802930E-008  0.1779564E+04  0.7818608E-02  0.8717243E-01
          1   -1    0    0  501    0  0.00000000000E+00  0.00000000000E+00  0.18278622219E+04  0.18278622219E+04  0.00000000000E+00 0. -1.
         -1   -1    0    0    0  501 -0.00000000000E+00 -0.00000000000E+00 -0.43313544087E+03  0.43313544087E+03  0.00000000000E+00 0.  1.
         23    2    1    2    0    0 -0.52225825104E+03  0.99716523325E+02  0.10321177299E+04  0.11645443478E+04  0.90550890730E+02 0.  0.
        254    2    1    2    0    0  0.52225825104E+03 -0.99716523325E+02  0.36260905112E+03  0.10964533150E+04  0.88770912023E+03 0.  0.
         23    2    4    4    0    0  0.75911005027E+01  0.10045465058E+03 -0.23802096352E+03  0.27425226853E+03  0.91714590370E+02 0.  0.
         23    2    4    4    0    0  0.51466715054E+03 -0.20017117390E+03  0.60063001464E+03  0.82220104644E+03  0.10152522631E+03 0.  0.
         11    1    3    3    0    0 -0.46410930190E+03  0.70773139035E+02  0.84768182224E+03  0.96900503253E+03  0.00000000000E+00 0. -1.
        -11    1    3    3    0    0 -0.58148949141E+02  0.28943384290E+02  0.18443590765E+03  0.19553931526E+03  0.00000000000E+00 0.  1.
          4    1    5    5  502    0 -0.19039435132E+02  0.36121677354E+02 -0.17706731203E+03  0.18171436007E+03  0.00000000000E+00 0. -1.
          3    1    6    6  503    0  0.34527907799E+03 -0.81848438598E+02  0.37733678430E+03  0.51797669580E+03  0.00000000000E+00 0. -1.
         -4    1    5    5    0  502  0.26630535635E+02  0.64332973222E+02 -0.60953651492E+02  0.92537908459E+02  0.00000000000E+00 0.  1.
         -3    1    6    6    0  503  0.16938807254E+03 -0.11832273530E+03  0.22329323034E+03  0.30422435064E+03  0.00000000000E+00 0.  1.
<mgrwt>
<rscale>  0 0.17795639E+04</rscale>
<asrwt>0</asrwt>
<pdfrwt beam="1">  1        1 0.28120957E+00 0.17795639E+04</pdfrwt>
<pdfrwt beam="2">  1       -1 0.66636223E-01 0.17795639E+04</pdfrwt>
<totfact> 0.84121055E+00</totfact>
</mgrwt>
</event>
<event>
12    1  0.4802930E-008  0.1444431E+04  0.7818608E-02  0.8922271E-01
         -2   -1    0    0    0  501 -0.00000000000E+00  0.00000000000E+00  0.28457427016E+03  0.28457427016E+03  0.00000000000E+00 0.  1.
          2   -1    0    0  501    0  0.00000000000E+00 -0.00000000000E+00 -0.18328961319E+04  0.18328961319E+04  0.00000000000E+00 0. -1.
         23    2    1    2    0    0 -0.20933906663E+03 -0.71063538713E+02  0.74361382226E+02  0.25082810380E+03  0.92261861770E+02 0.  0.
        254    2    1    2    0    0  0.20933906663E+03  0.71063538713E+02 -0.16226832439E+04  0.18666422982E+04  0.89575648925E+03 0.  0.
         23    2    4    4    0    0  0.69179469921E+01 -0.31348022527E+03 -0.12347985793E+04  0.12771475897E+04  0.89781538979E+02 0.  0.
         23    2    4    4    0    0  0.20242111964E+03  0.38454376398E+03 -0.38788466463E+03  0.58949470855E+03  0.90560931186E+02 0.  0.
         13    1    3    3    0    0 -0.14821248962E+03 -0.84062928777E+02  0.27230336999E+02  0.17255436630E+03  0.00000000000E+00 0. -1.
        -13    1    3    3    0    0 -0.61126577011E+02  0.12999390064E+02  0.47131045227E+02  0.78273737507E+02  0.00000000000E+00 0.  1.
          2    1    5    5  502    0  0.27813775221E+01 -0.31375017485E+03 -0.11437968271E+04  0.11860514702E+04  0.00000000000E+00 0. -1.
          3    1    6    6  503    0  0.18920912285E+03  0.30264977232E+03 -0.34370763194E+03  0.49551176889E+03  0.00000000000E+00 0. -1.
         -2    1    5    5    0  502  0.41365694700E+01  0.26994957981E+00 -0.91001752186E+02  0.91096119460E+02  0.00000000000E+00 0.  1.
         -3    1    6    6    0  503  0.13211996794E+02  0.81893991664E+02 -0.44177032691E+02  0.93982939660E+02  0.00000000000E+00 0.  1.
<mgrwt>
<rscale>  0 0.14444308E+04</rscale>
<asrwt>0</asrwt>
<pdfrwt beam="1">  1        2 0.28198403E+00 0.14444308E+04</pdfrwt>
<pdfrwt beam="2">  1       -2 0.43780656E-01 0.14444308E+04</pdfrwt>
<totfact> 0.39713953E+01</totfact>
</mgrwt>
</event>
<event>
12    1  0.4802930E-008  0.1274174E+04  0.7818608E-02  0.9050300E-01
          2   -1    0    0  501    0  0.00000000000E+00  0.00000000000E+00  0.18710223017E+04  0.18710223017E+04  0.00000000000E+00 0. -1.
         -2   -1    0    0    0  501 -0.00000000000E+00 -0.00000000000E+00 -0.21692940801E+03  0.21692940801E+03  0.00000000000E+00 0.  1.
         23    2    1    2    0    0 -0.11824043895E+03 -0.18661956819E+03  0.66163487193E+02  0.24724678821E+03  0.89138670691E+02 0.  0.
        254    2    1    2    0    0  0.11824043895E+03  0.18661956819E+03  0.15879294065E+04  0.18407049215E+04  0.90436007398E+03 0.  0.
         23    2    4    4    0    0  0.72753807425E+02  0.54445025130E+03  0.88786678445E+03  0.10480172556E+04  0.91178662850E+02 0.  0.
         23    2    4    4    0    0  0.45486631522E+02 -0.35783068312E+03  0.70006262206E+03  0.79268766587E+03  0.90300771834E+02 0.  0.
         13    1    3    3    0    0 -0.20150338455E+02 -0.10883887843E+02  0.37525050221E+02  0.43961625863E+02  0.00000000000E+00 0. -1.
        -13    1    3    3    0    0 -0.98090100492E+02 -0.17573568034E+03  0.28638436972E+02  0.20328516235E+03  0.00000000000E+00 0.  1.
          3    1    5    5  502    0  0.75904603824E+02  0.54706141069E+03  0.87716481286E+03  0.10365596002E+04  0.00000000000E+00 0. -1.
          3    1    6    6  503    0  0.15604049415E+02 -0.25274963406E+03  0.40066844226E+03  0.47398424499E+03  0.00000000000E+00 0. -1.
         -3    1    5    5    0  502 -0.31507963983E+01 -0.26111593843E+01  0.10701971592E+02  0.11457655398E+02  0.00000000000E+00 0.  1.
         -3    1    6    6    0  503  0.29882582106E+02 -0.10508104906E+03  0.29939417980E+03  0.31870342088E+03  0.00000000000E+00 0.  1.
<mgrwt>
<rscale>  0 0.12741739E+04</rscale>
<asrwt>0</asrwt>
<pdfrwt beam="1">  1        2 0.28784957E+00 0.12741739E+04</pdfrwt>
<pdfrwt beam="2">  1       -2 0.33373756E-01 0.12741739E+04</pdfrwt>
<totfact> 0.64931601E+01</totfact>
</mgrwt>
</event>
<event>
12    1  0.4802930E-008  0.2919599E+04  0.7818608E-02  0.8267070E-01
          2   -1    0    0  501    0  0.00000000000E+00  0.00000000000E+00  0.16571420165E+04  0.16571420165E+04  0.00000000000E+00 0. -1.
         -2   -1    0    0    0  501 -0.00000000000E+00 -0.00000000000E+00 -0.12859581088E+04  0.12859581088E+04  0.00000000000E+00 0.  1.
         23    2    1    2    0    0 -0.91160339959E+03 -0.51110102896E+03 -0.64247324853E+03  0.12322046669E+04  0.11537524085E+03 0.  0.
        254    2    1    2    0    0  0.91160339959E+03  0.51110102896E+03  0.10136571562E+04  0.17108954584E+04  0.89856408748E+03 0.  0.
         23    2    4    4    0    0  0.55550881934E+03  0.48205969917E+03  0.12960916492E+03  0.75318050177E+03  0.97522975180E+02 0.  0.
         23    2    4    4    0    0  0.35609458026E+03  0.29041329795E+02  0.88404799125E+03  0.95771495662E+03  0.89612155241E+02 0.  0.
         11    1    3    3    0    0 -0.42390627545E+03 -0.23435302155E+03 -0.36538428152E+03  0.60673185367E+03  0.00000000000E+00 0.  1.
        -11    1    3    3    0    0 -0.48769712415E+03 -0.27674800741E+03 -0.27708896701E+03  0.62547281328E+03  0.00000000000E+00 0. -1.
          2    1    5    5  502    0  0.55727686449E+03  0.46932118327E+03  0.12359385164E+03  0.73898262288E+03  0.00000000000E+00 0.  1.
          3    1    6    6  503    0  0.13924058533E+02 -0.17069564011E+02  0.72579644619E+02  0.75848890793E+02  0.00000000000E+00 0. -1.
         -2    1    5    5    0  502 -0.17680451507E+01  0.12738515900E+02  0.60153132823E+01  0.14197878886E+02  0.00000000000E+00 0. -1.
         -3    1    6    6    0  503  0.34217052172E+03  0.46110893806E+02  0.81146834664E+03  0.88186606583E+03  0.00000000000E+00 0.  1.
<mgrwt>
<rscale>  0 0.29195994E+04</rscale>
<asrwt>0</asrwt>
<pdfrwt beam="1">  1        2 0.25494493E+00 0.29195994E+04</pdfrwt>
<pdfrwt beam="2">  1       -2 0.19783971E+00 0.29195994E+04</pdfrwt>
<totfact> 0.12271511E+00</totfact>
</mgrwt>
</event>
<event>
12    1  0.4802930E-008  0.1997070E+04  0.7818608E-02  0.8607992E-01
          2   -1    0    0  501    0  0.00000000000E+00  0.00000000000E+00  0.13825017205E+04  0.13825017205E+04  0.00000000000E+00 0.  1.
         -2   -1    0    0    0  501 -0.00000000000E+00 -0.00000000000E+00 -0.72120886120E+03  0.72120886120E+03  0.00000000000E+00 0. -1.
         23    2    1    2    0    0 -0.29159027937E+01 -0.30351559572E+03  0.10382807003E+04  0.10858873972E+04  0.94838849929E+02 0.  0.
        254    2    1    2    0    0  0.29159027937E+01  0.30351559572E+03 -0.37698784095E+03  0.10178231846E+04  0.89538482423E+03 0.  0.
         23    2    4    4    0    0  0.25654635210E+03 -0.22229515485E+03 -0.17903092181E+03  0.39451333188E+03  0.91419535186E+02 0.  0.
         23    2    4    4    0    0 -0.25363044931E+03  0.52581075057E+03 -0.19795691913E+03  0.62330985267E+03  0.92319447434E+02 0.  0.
         13    1    3    3    0    0  0.10781123955E+02 -0.22607191220E+03  0.88657334449E+03  0.91500657773E+03  0.00000000000E+00 0.  1.
        -13    1    3    3    0    0 -0.13697026749E+02 -0.77443683513E+02  0.15170735579E+03  0.17088081946E+03  0.00000000000E+00 0. -1.
          4    1    5    5  502    0  0.20772637053E+03 -0.15323584424E+03 -0.94351705209E+02  0.27483397397E+03  0.00000000000E+00 0.  1.
          3    1    6    6  503    0 -0.55244759841E+02  0.12855005193E+03 -0.74193881054E+01  0.14011476247E+03  0.00000000000E+00 0. -1.
         -4    1    5    5    0  502  0.48819981571E+02 -0.69059310615E+02 -0.84679216605E+02  0.11967935790E+03  0.00000000000E+00 0. -1.
         -3    1    6    6    0  503 -0.19838568947E+03  0.39726069864E+03 -0.19053753103E+03  0.48319509021E+03  0.00000000000E+00 0.  1.
<mgrwt>
<rscale>  0 0.19970703E+04</rscale>
<asrwt>0</asrwt>
<pdfrwt beam="1">  1        2 0.21269257E+00 0.19970703E+04</pdfrwt>
<pdfrwt beam="2">  1       -2 0.11095521E+00 0.19970703E+04</pdfrwt>
<totfact> 0.88556193E+00</totfact>
</mgrwt>
</event>
<event>
12    1  0.4802930E-008  0.2272552E+04  0.7818608E-02  0.8488823E-01
          1   -1    0    0  501    0  0.00000000000E+00  0.00000000000E+00  0.74793160366E+03  0.74793160366E+03  0.00000000000E+00 0. -1.
         -1   -1    0    0    0  501 -0.00000000000E+00 -0.00000000000E+00 -0.17262576390E+04  0.17262576390E+04  0.00000000000E+00 0.  1.
         23    2    1    2    0    0 -0.54127064270E+03 -0.21695129783E+03  0.41821565756E+03  0.72315202705E+03  0.89458055567E+02 0.  0.
        254    2    1    2    0    0  0.54127064270E+03  0.21695129783E+03 -0.13965416929E+04  0.17510372156E+04  0.88077287435E+03 0.  0.
         23    2    4    4    0    0 -0.16228505138E+03  0.18664594209E+03 -0.11884325054E+03  0.28880602395E+03  0.90066951046E+02 0.  0.
         23    2    4    4    0    0  0.70355569409E+03  0.30305355741E+02 -0.12776984424E+04  0.14622311917E+04  0.98476997302E+02 0.  0.
         11    1    3    3    0    0 -0.38325620979E+03 -0.18232966414E+03  0.26504874120E+03  0.50038011949E+03  0.00000000000E+00 0. -1.
        -11    1    3    3    0    0 -0.15801443291E+03 -0.34621633692E+02  0.15316691636E+03  0.22277190755E+03  0.00000000000E+00 0.  1.
          4    1    5    5  502    0  0.92547828907E+01 -0.33457969122E+00 -0.21228383235E+01  0.95010206016E+01  0.00000000000E+00 0. -1.
          1    1    6    6  503    0  0.18860693727E+02  0.18271197758E+02 -0.47105796887E+02  0.53930682693E+02  0.00000000000E+00 0. -1.
         -4    1    5    5    0  502 -0.17153983427E+03  0.18698052178E+03 -0.11672041222E+03  0.27930500335E+03  0.00000000000E+00 0.  1.
         -1    1    6    6    0  503  0.68469500036E+03  0.12034157983E+02 -0.12305926455E+04  0.14083005090E+04  0.00000000000E+00 0.  1.
<mgrwt>
<rscale>  0 0.22725516E+04</rscale>
<asrwt>0</asrwt>
<pdfrwt beam="1">  1        1 0.11506640E+00 0.22725516E+04</pdfrwt>
<pdfrwt beam="2">  1       -1 0.26557810E+00 0.22725516E+04</pdfrwt>
<totfact> 0.12302428E+00</totfact>
</mgrwt>
</event>
<event>
12    1  0.4802930E-008  0.2477111E+04  0.7818608E-02  0.8411185E-01
          2   -1    0    0  501    0  0.00000000000E+00  0.00000000000E+00  0.15347842724E+04  0.15347842724E+04  0.00000000000E+00 0.  1.
         -2   -1    0    0    0  501 -0.00000000000E+00 -0.00000000000E+00 -0.99950200545E+03  0.99950200545E+03  0.00000000000E+00 0. -1.
         23    2    1    2    0    0 -0.81496607764E+03  0.28958893452E+03  0.88819550403E+03  0.12430665991E+04  0.91059638681E+02 0.  0.
        254    2    1    2    0    0  0.81496607764E+03 -0.28958893452E+03 -0.35291323708E+03  0.12912196787E+04  0.89144211651E+03 0.  0.
         23    2    4    4    0    0  0.89532340263E+03 -0.47318170396E+03 -0.33956624662E+03  0.10710078184E+04  0.79041704744E+02 0.  0.
         23    2    4    4    0    0 -0.80357324985E+02  0.18359276944E+03 -0.13346990460E+02  0.22021186026E+03  0.90285749584E+02 0.  0.
         13    1    3    3    0    0 -0.16360029722E+03  0.83198629156E+02  0.23085799471E+03  0.29492792825E+03  0.00000000000E+00 0. -1.
        -13    1    3    3    0    0 -0.65136578042E+03  0.20639030536E+03  0.65733750933E+03  0.94813867088E+03  0.00000000000E+00 0.  1.
          1    1    5    5  502    0  0.58943506670E+03 -0.34876080853E+03 -0.21118310544E+03  0.71670503238E+03  0.00000000000E+00 0. -1.
          3    1    6    6  503    0 -0.97596387159E+02  0.16926359575E+03 -0.21034022120E+02  0.19651373926E+03  0.00000000000E+00 0. -1.
         -1    1    5    5    0  502  0.30588833593E+03 -0.12442089542E+03 -0.12838314118E+03  0.35430278606E+03  0.00000000000E+00 0.  1.
         -3    1    6    6    0  503  0.17239062174E+02  0.14329173689E+02  0.76870316602E+01  0.23698121001E+02  0.00000000000E+00 0.  1.
<mgrwt>
<rscale>  0 0.24771112E+04</rscale>
<asrwt>0</asrwt>
<pdfrwt beam="1">  1        2 0.23612066E+00 0.24771112E+04</pdfrwt>
<pdfrwt beam="2">  1       -2 0.15376954E+00 0.24771112E+04</pdfrwt>
<totfact> 0.30409903E+00</totfact>
</mgrwt>
</event>
<event>
12    1  0.4802930E-008  0.2017436E+04  0.7818608E-02  0.8598512E-01
         -1   -1    0    0    0  501 -0.00000000000E+00  0.00000000000E+00  0.10409662964E+04  0.10409662964E+04  0.00000000000E+00 0.  1.
          1   -1    0    0  501    0  0.00000000000E+00 -0.00000000000E+00 -0.97746849063E+03  0.97746849063E+03  0.00000000000E+00 0. -1.
         23    2    1    2    0    0 -0.34158161075E+03  0.63170174511E+03  0.38487383221E+03  0.81986231039E+03  0.91220884098E+02 0.  0.
        254    2    1    2    0    0  0.34158161075E+03 -0.63170174511E+03 -0.32137602650E+03  0.11985724766E+04  0.90419485713E+03 0.  0.
         23    2    4    4    0    0  0.61859882448E+03 -0.57223183528E+03 -0.29751715981E+03  0.89831584814E+03  0.91329752435E+02 0.  0.
         23    2    4    4    0    0 -0.27701721373E+03 -0.59469909829E+02 -0.23858866682E+02  0.30025662846E+03  0.96486219404E+02 0.  0.
         13    1    3    3    0    0 -0.74083222879E+02  0.79534047570E+02  0.78468848942E+02  0.13405725974E+03  0.00000000000E+00 0. -1.
        -13    1    3    3    0    0 -0.26749838787E+03  0.55216769754E+03  0.30640498327E+03  0.68580505065E+03  0.00000000000E+00 0.  1.
          4    1    5    5  502    0  0.35809315348E+03 -0.38151279165E+03 -0.20996433543E+03  0.56379760457E+03  0.00000000000E+00 0. -1.
          1    1    6    6  503    0 -0.13989785612E+03 -0.51889684934E+02  0.30962871841E+02  0.15238979291E+03  0.00000000000E+00 0. -1.
         -4    1    5    5    0  502  0.26050567100E+03 -0.19071904363E+03 -0.87552824385E+02  0.33451824357E+03  0.00000000000E+00 0.  1.
         -1    1    6    6    0  503 -0.13711935761E+03 -0.75802248951E+01 -0.54821738523E+02  0.14786683555E+03  0.00000000000E+00 0.  1.
<mgrwt>
<rscale>  0 0.20174358E+04</rscale>
<asrwt>0</asrwt>
<pdfrwt beam="1">  1        1 0.15037977E+00 0.20174358E+04</pdfrwt>
<pdfrwt beam="2">  1       -1 0.16014866E+00 0.20174358E+04</pdfrwt>
<totfact> 0.42555949E+00</totfact>
</mgrwt>
</event>
<event>
12    1  0.4802930E-008  0.1663801E+04  0.7818608E-02  0.8782283E-01
          1   -1    0    0  501    0  0.00000000000E+00  0.00000000000E+00  0.24410450787E+04  0.24410450787E+04  0.00000000000E+00 0. -1.
         -1   -1    0    0    0  501 -0.00000000000E+00 -0.00000000000E+00 -0.28350914374E+03  0.28350914374E+03  0.00000000000E+00 0.  1.
         23    2    1    2    0    0  0.54967076191E+03  0.19366058783E+03  0.77192728727E+03  0.97159296332E+03  0.92080289799E+02 0.  0.
        254    2    1    2    0    0 -0.54967076191E+03 -0.19366058783E+03  0.13856086477E+04  0.17529612592E+04  0.90184227095E+03 0.  0.
         23    2    4    4    0    0 -0.45882562481E+03 -0.53227307613E+03  0.97756867521E+03  0.12073386717E+04  0.90501778990E+02 0.  0.
         23    2    4    4    0    0 -0.90845137104E+02  0.33861248830E+03  0.40803997252E+03  0.54562258741E+03  0.91083107948E+02 0.  0.
         11    1    3    3    0    0  0.42125972210E+03  0.14639607225E+03  0.52121874518E+03  0.68597415678E+03  0.00000000000E+00 0.  1.
        -11    1    3    3    0    0  0.12841103981E+03  0.47264515583E+02  0.25070854209E+03  0.28561880655E+03  0.00000000000E+00 0. -1.
          1    1    5    5  502    0 -0.38335088904E+03 -0.43110056576E+03  0.73978404031E+03  0.93812900404E+03  0.00000000000E+00 0. -1.
          3    1    6    6  503    0 -0.16192018449E+02  0.22120527048E+03  0.22795576305E+03  0.31805311358E+03  0.00000000000E+00 0. -1.
         -1    1    5    5    0  502 -0.75474735770E+02 -0.10117251037E+03  0.23778463490E+03  0.26920966771E+03  0.00000000000E+00 0.  1.
         -3    1    6    6    0  503 -0.74653118655E+02  0.11740721782E+03  0.18008420947E+03  0.22756947383E+03  0.00000000000E+00 0.  1.
<mgrwt>
<rscale>  0 0.16638012E+04</rscale>
<asrwt>0</asrwt>
<pdfrwt beam="1">  1        1 0.37554538E+00 0.16638012E+04</pdfrwt>
<pdfrwt beam="2">  1       -1 0.43616793E-01 0.16638012E+04</pdfrwt>
<totfact> 0.73854306E+00</totfact>
</mgrwt>
</event>
<event>
12    1  0.4802930E-008  0.2215147E+04  0.7818608E-02  0.8512150E-01
          1   -1    0    0  501    0  0.00000000000E+00  0.00000000000E+00  0.53284194151E+03  0.53284194151E+03  0.00000000000E+00 0. -1.
         -1   -1    0    0    0  501 -0.00000000000E+00 -0.00000000000E+00 -0.23022191430E+04  0.23022191430E+04  0.00000000000E+00 0.  1.
         23    2    1    2    0    0 -0.65660208742E+03  0.21570950498E+03 -0.15081229529E+04  0.16615091055E+04  0.92308042842E+02 0.  0.
        254    2    1    2    0    0  0.65660208742E+03 -0.21570950498E+03 -0.26125424856E+03  0.11735519790E+04  0.91176398992E+03 0.  0.
         23    2    4    4    0    0  0.11657460703E+03  0.17963283521E+03  0.23849975134E+03  0.33298079812E+03  0.90202472453E+02 0.  0.
         23    2    4    4    0    0  0.54002748039E+03 -0.39534234020E+03 -0.49975399990E+03  0.84057118090E+03  0.94236957796E+02 0.  0.
         13    1    3    3    0    0 -0.62526995607E+03  0.18197683350E+03 -0.14109966809E+04  0.15540237191E+04  0.00000000000E+00 0. -1.
        -13    1    3    3    0    0 -0.31332131353E+02  0.33732671482E+02 -0.97126272009E+02  0.10748538642E+03  0.00000000000E+00 0.  1.
          2    1    5    5  502    0  0.89638675253E+02  0.55881422668E+02  0.11299646827E+03  0.15468040387E+03  0.00000000000E+00 0.  1.
          3    1    6    6  503    0  0.33394735583E+03 -0.24118570693E+03 -0.24951812995E+03  0.48161258172E+03  0.00000000000E+00 0. -1.
         -2    1    5    5    0  502  0.26935931774E+02  0.12375141255E+03  0.12550328307E+03  0.17830039425E+03  0.00000000000E+00 0. -1.
         -3    1    6    6    0  503  0.20608012456E+03 -0.15415663327E+03 -0.25023586995E+03  0.35895859918E+03  0.00000000000E+00 0.  1.
<mgrwt>
<rscale>  0 0.22151469E+04</rscale>
<asrwt>0</asrwt>
<pdfrwt beam="1">  1        1 0.81975685E-01 0.22151469E+04</pdfrwt>
<pdfrwt beam="2">  1       -1 0.35418755E+00 0.22151469E+04</pdfrwt>
<totfact> 0.53874828E-01</totfact>
</mgrwt>
</event>
<event>
12    1  0.4802930E-008  0.1720391E+04  0.7818608E-02  0.8749819E-01
         -3   -1    0    0    0  501 -0.00000000000E+00  0.00000000000E+00  0.50456547698E+03  0.50456547698E+03  0.00000000000E+00 0.  1.
          3   -1    0    0  501    0  0.00000000000E+00 -0.00000000000E+00 -0.14664819122E+04  0.14664819122E+04  0.00000000000E+00 0. -1.
         23    2    1    2    0    0 -0.36422162757E+03 -0.19879128234E+03  0.17466404578E+03  0.45972246573E+03  0.93069053322E+02 0.  0.
        254    2    1    2    0    0  0.36422162757E+03  0.19879128234E+03 -0.11365804810E+04  0.15113249235E+04  0.90560061096E+03 0.  0.
         23    2    4    4    0    0  0.55236939215E+02  0.35795028275E+03 -0.10860271132E+04  0.11486142428E+04  0.93167933930E+02 0.  0.
         23    2    4    4    0    0  0.30898468835E+03 -0.15915900042E+03 -0.50553367856E+02  0.36271068065E+03  0.90555341129E+02 0.  0.
         11    1    3    3    0    0 -0.35949794713E+03 -0.17648101793E+03  0.17467878393E+03  0.43691761378E+03  0.00000000000E+00 0.  1.
        -11    1    3    3    0    0 -0.47236804378E+01 -0.22310264413E+02 -0.14738152274E-01  0.22804851945E+02  0.00000000000E+00 0. -1.
          1    1    5    5  502    0  0.32828820187E+02  0.34707426726E+03 -0.10265380958E+04  0.10841211835E+04  0.00000000000E+00 0. -1.
          3    1    6    6  503    0  0.28939665724E+03 -0.13526388594E+03 -0.68876485478E+02  0.32678848559E+03  0.00000000000E+00 0. -1.
         -1    1    5    5    0  502  0.22408119028E+02  0.10876015496E+02 -0.59489017360E+02  0.64493059301E+02  0.00000000000E+00 0.  1.
         -3    1    6    6    0  503  0.19588031109E+02 -0.23895114472E+02  0.18323117623E+02  0.35922195058E+02  0.00000000000E+00 0.  1.
<mgrwt>
<rscale>  0 0.17203908E+04</rscale>
<asrwt>0</asrwt>
<pdfrwt beam="1">  1        3 0.22561261E+00 0.17203908E+04</pdfrwt>
<pdfrwt beam="2">  1       -3 0.77625456E-01 0.17203908E+04</pdfrwt>
<totfact> 0.39695902E-01</totfact>
</mgrwt>
</event>
<event>
12    1  0.4802930E-008  0.1441845E+04  0.7818608E-02  0.8924074E-01
          2   -1    0    0  501    0  0.00000000000E+00  0.00000000000E+00  0.31596299622E+04  0.31596299622E+04  0.00000000000E+00 0.  1.
         -2   -1    0    0    0  501 -0.00000000000E+00 -0.00000000000E+00 -0.16449054306E+03  0.16449054306E+03  0.00000000000E+00 0. -1.
         23    2    1    2    0    0 -0.26426632387E+03  0.79587537580E+02  0.16989785123E+04  0.17236447376E+04  0.90842336166E+02 0.  0.
        254    2    1    2    0    0  0.26426632387E+03 -0.79587537580E+02  0.12961609068E+04  0.16004757676E+04  0.89739552063E+03 0.  0.
         23    2    4    4    0    0 -0.46708078495E+02  0.99708114286E+00  0.12607056509E+04  0.12649292588E+04  0.92112175865E+02 0.  0.
         23    2    4    4    0    0  0.31097440236E+03 -0.80584618723E+02  0.35455255885E+02  0.33554650878E+03  0.90196589109E+02 0.  0.
         11    1    3    3    0    0 -0.20292506756E+03  0.69663260393E+02  0.14977967069E+04  0.15130851027E+04  0.00000000000E+00 0.  1.
        -11    1    3    3    0    0 -0.61341256310E+02  0.99242771868E+01  0.20118180543E+03  0.21055963487E+03  0.00000000000E+00 0. -1.
          2    1    5    5  502    0  0.65169857694E+01 -0.17340601031E+02  0.57564933292E+02  0.60472217526E+02  0.00000000000E+00 0. -1.
          4    1    6    6  503    0  0.19752819513E+02  0.17074761144E+02 -0.16028122699E+01  0.26158944054E+02  0.00000000000E+00 0. -1.
         -2    1    5    5    0  502 -0.53225064264E+02  0.18337682174E+02  0.12031407176E+04  0.12044570413E+04  0.00000000000E+00 0.  1.
         -4    1    6    6    0  503  0.29122158285E+03 -0.97659379867E+02  0.37058068155E+02  0.30938756473E+03  0.00000000000E+00 0.  1.
<mgrwt>
<rscale>  0 0.14418450E+04</rscale>
<asrwt>0</asrwt>
<pdfrwt beam="1">  1        2 0.48609687E+00 0.14418450E+04</pdfrwt>
<pdfrwt beam="2">  1       -2 0.25306240E-01 0.14418450E+04</pdfrwt>
<totfact> 0.18954922E+01</totfact>
</mgrwt>
</event>
<event>
12    1  0.4802930E-008  0.1627745E+04  0.7818608E-02  0.8803682E-01
          1   -1    0    0  501    0  0.00000000000E+00  0.00000000000E+00  0.90588510103E+03  0.90588510103E+03  0.00000000000E+00 0. -1.
         -1   -1    0    0    0  501 -0.00000000000E+00 -0.00000000000E+00 -0.73120613644E+03  0.73120613644E+03  0.00000000000E+00 0.  1.
         23    2    1    2    0    0 -0.40998298038E+02  0.24329857633E+02 -0.50654913083E+03  0.51693434559E+03  0.91412763275E+02 0.  0.
        254    2    1    2    0    0  0.40998298038E+02 -0.24329857633E+02  0.68122809541E+03  0.11201568919E+04  0.88792282438E+03 0.  0.
         23    2    4    4    0    0 -0.31530586480E+03 -0.78704724901E+02 -0.75262969284E+01  0.33757859932E+03  0.91051872454E+02 0.  0.
         23    2    4    4    0    0  0.35630416284E+03  0.54374867268E+02  0.68875439234E+03  0.78257829256E+03  0.90204702614E+02 0.  0.
         11    1    3    3    0    0 -0.24643438823E+02  0.56786568867E+02 -0.38900546836E+03  0.39390007349E+03  0.00000000000E+00 0.  1.
        -11    1    3    3    0    0 -0.16354859215E+02 -0.32456711234E+02 -0.11754366247E+03  0.12303427209E+03  0.00000000000E+00 0. -1.
          1    1    5    5  502    0 -0.22337127106E+03 -0.11678692478E+02 -0.75830522818E+01  0.22380486874E+03  0.00000000000E+00 0. -1.
          3    1    6    6  503    0  0.23496908845E+03 -0.79485822574E+01  0.44116081802E+03  0.49989650913E+03  0.00000000000E+00 0. -1.
         -1    1    5    5    0  502 -0.91934593744E+02 -0.67026032423E+02  0.56755353338E-01  0.11377373058E+03  0.00000000000E+00 0.  1.
         -3    1    6    6    0  503  0.12133507438E+03  0.62323449526E+02  0.24759357433E+03  0.28268178343E+03  0.00000000000E+00 0.  1.
<mgrwt>
<rscale>  0 0.16277454E+04</rscale>
<asrwt>0</asrwt>
<pdfrwt beam="1">  1        1 0.13936694E+00 0.16277454E+04</pdfrwt>
<pdfrwt beam="2">  1       -1 0.11249325E+00 0.16277454E+04</pdfrwt>
<totfact> 0.12469158E+01</totfact>
</mgrwt>
</event>
<event>
12    1  0.4802930E-008  0.2662492E+04  0.7818608E-02  0.8347278E-01
          1   -1    0    0  501    0  0.00000000000E+00  0.00000000000E+00  0.25730801350E+04  0.25730801350E+04  0.00000000000E+00 0. -1.
         -1   -1    0    0    0  501 -0.00000000000E+00 -0.00000000000E+00 -0.68875287308E+03  0.68875287308E+03  0.00000000000E+00 0.  1.
         23    2    1    2    0    0 -0.61081278399E+03 -0.37355595962E+03  0.19664921993E+04  0.20947906827E+04  0.91761224016E+02 0.  0.
        254    2    1    2    0    0  0.61081278399E+03  0.37355595962E+03 -0.82164937408E+02  0.11670423254E+04  0.91793267741E+03 0.  0.
         23    2    4    4    0    0  0.56781095885E+03  0.32133260780E+03  0.33143074108E+03  0.73801501133E+03  0.95686420145E+02 0.  0.
         23    2    4    4    0    0  0.43001825141E+02  0.52223351814E+02 -0.41359567848E+03  0.42902731405E+03  0.91796598518E+02 0.  0.
         13    1    3    3    0    0 -0.16912087224E+03 -0.75806755186E+02  0.41816456105E+03  0.45739494278E+03  0.00000000000E+00 0.  1.
        -13    1    3    3    0    0 -0.44169191174E+03 -0.29774920443E+03  0.15483276383E+04  0.16373957399E+04  0.00000000000E+00 0. -1.
          1    1    5    5  502    0  0.28955734962E+03  0.19017751174E+03  0.22229751753E+03  0.41161527060E+03  0.00000000000E+00 0. -1.
          3    1    6    6  503    0  0.51030209716E+02  0.31133380251E+02 -0.39579916782E+03  0.40028783508E+03  0.00000000000E+00 0. -1.
         -1    1    5    5    0  502  0.27825360922E+03  0.13115509606E+03  0.10913322355E+03  0.32639974073E+03  0.00000000000E+00 0.  1.
         -3    1    6    6    0  503 -0.80283845749E+01  0.21089971563E+02 -0.17796510666E+02  0.28739478967E+02  0.00000000000E+00 0.  1.
<mgrwt>
<rscale>  0 0.26624923E+04</rscale>
<asrwt>0</asrwt>
<pdfrwt beam="1">  1        1 0.39585848E+00 0.26624923E+04</pdfrwt>
<pdfrwt beam="2">  1       -1 0.10596198E+00 0.26624923E+04</pdfrwt>
<totfact> 0.87928153E-01</totfact>
</mgrwt>
</event>
<event>
12    1  0.7140516E-008  0.1663506E+04  0.7818608E-02  0.8782457E-01
         -2   -1    0    0    0  501 -0.00000000000E+00  0.00000000000E+00  0.72798161734E+03  0.72798161734E+03  0.00000000000E+00 0.  1.
          2   -1    0    0  501    0  0.00000000000E+00 -0.00000000000E+00 -0.95031621085E+03  0.95031621085E+03  0.00000000000E+00 0. -1.
         23    2    1    2    0    0  0.18076211634E+03 -0.37174047791E+03 -0.49216212789E+03  0.64901446949E+03  0.90168153278E+02 0.  0.
        254    2    1    2    0    0 -0.18076211634E+03  0.37174047791E+03  0.26982753438E+03  0.10292833587E+04  0.90318957509E+03 0.  0.
         23    2    4    4    0    0 -0.43547066138E+03  0.51846475869E+01  0.35121780941E+03  0.56677742893E+03  0.90670429600E+02 0.  0.
         23    2    4    4    0    0  0.25470854504E+03  0.36655583032E+03 -0.81390275025E+02  0.46250592976E+03  0.89709188697E+02 0.  0.
         13    1    3    3    0    0  0.13720834221E+03 -0.33740149820E+03 -0.39623789535E+03  0.53821033981E+03  0.00000000000E+00 0. -1.
        -13    1    3    3    0    0  0.43553774125E+02 -0.34338979704E+02 -0.95924232536E+02  0.11080412968E+03  0.00000000000E+00 0.  1.
          1    1    6    6  502    0  0.24274873758E+03  0.29740995604E+03 -0.56426669779E+02  0.38802525769E+03  0.00000000000E+00 0. -1.
          1    1    5    5  503    0 -0.42037332623E+03  0.23544436932E+02  0.33408814611E+03  0.53747833751E+03  0.00000000000E+00 0. -1.
         -1    1    5    5    0  503 -0.15097335146E+02 -0.18359789345E+02  0.17129663292E+02  0.29299091416E+02  0.00000000000E+00 0.  1.
         -1    1    6    6    0  502  0.11959807466E+02  0.69145874282E+02 -0.24963605246E+02  0.74480672068E+02  0.00000000000E+00 0.  1.
<mgrwt>
<rscale>  0 0.16635056E+04</rscale>
<asrwt>0</asrwt>
<pdfrwt beam="1">  1        2 0.14620249E+00 0.16635056E+04</pdfrwt>
<pdfrwt beam="2">  1       -2 0.11199717E+00 0.16635056E+04</pdfrwt>
<totfact> 0.16288341E+01</totfact>
</mgrwt>
</event>
<event>
12    1  0.4802930E-008  0.1571932E+04  0.7818608E-02  0.8837979E-01
          2   -1    0    0  501    0  0.00000000000E+00  0.00000000000E+00  0.74581211873E+03  0.74581211873E+03  0.00000000000E+00 0. -1.
         -2   -1    0    0    0  501 -0.00000000000E+00 -0.00000000000E+00 -0.82828152866E+03  0.82828152866E+03  0.00000000000E+00 0.  1.
         23    2    1    2    0    0  0.58761160038E+02 -0.50251771484E+03 -0.14379526744E+03  0.53356343550E+03  0.89643366212E+02 0.  0.
        254    2    1    2    0    0 -0.58761160038E+02  0.50251771484E+03  0.61325857501E+02  0.10405302119E+04  0.90717436770E+03 0.  0.
         23    2    4    4    0    0  0.11205938004E+03 -0.64844105720E+00 -0.33921539904E+03  0.36856543105E+03  0.90640304973E+02 0.  0.
         23    2    4    4    0    0 -0.17082054008E+03  0.50316615590E+03  0.40054125654E+03  0.67196478085E+03  0.93528237227E+02 0.  0.
         11    1    3    3    0    0  0.43279244707E+02 -0.43657704830E+03 -0.15421663406E+03  0.46503266804E+03  0.00000000000E+00 0.  1.
        -11    1    3    3    0    0  0.15481915331E+02 -0.65940666539E+02  0.10421366620E+02  0.68530767456E+02  0.00000000000E+00 0. -1.
          2    1    5    5  502    0  0.86876540273E+02  0.18881227337E+02 -0.31821257995E+03  0.33039866833E+03  0.00000000000E+00 0.  1.
          4    1    6    6  503    0 -0.82356738236E+02  0.11746202777E+03  0.95792593533E+02  0.17249980080E+03  0.00000000000E+00 0. -1.
         -2    1    5    5    0  502  0.25182839770E+02 -0.19529668394E+02 -0.21002819086E+02  0.38166762713E+02  0.00000000000E+00 0. -1.
         -4    1    6    6    0  503 -0.88463801846E+02  0.38570412813E+03  0.30474866301E+03  0.49946498005E+03  0.00000000000E+00 0.  1.
<mgrwt>
<rscale>  0 0.15719318E+04</rscale>
<asrwt>0</asrwt>
<pdfrwt beam="1">  1        2 0.11474033E+00 0.15719318E+04</pdfrwt>
<pdfrwt beam="2">  1       -2 0.12742793E+00 0.15719318E+04</pdfrwt>
<totfact> 0.16578761E+01</totfact>
</mgrwt>
</event>
<event>
12    1  0.4802930E-008  0.1588401E+04  0.7818608E-02  0.8827706E-01
          2   -1    0    0  501    0  0.00000000000E+00  0.00000000000E+00  0.64704747458E+03  0.64704747458E+03  0.00000000000E+00 0. -1.
         -2   -1    0    0    0  501 -0.00000000000E+00 -0.00000000000E+00 -0.97481895925E+03  0.97481895925E+03  0.00000000000E+00 0.  1.
         23    2    1    2    0    0 -0.36204063154E+03 -0.50346532398E+02 -0.50278785834E+03  0.62823952970E+03  0.91000461431E+02 0.  0.
        254    2    1    2    0    0  0.36204063154E+03  0.50346532398E+02  0.17501637367E+03  0.99362690412E+03  0.90722406347E+03 0.  0.
         23    2    4    4    0    0 -0.41996603391E+02 -0.41059491091E+01 -0.32630779544E+03  0.34133955746E+03  0.90858915948E+02 0.  0.
         23    2    4    4    0    0  0.40403723493E+03  0.54452481507E+02  0.50132416911E+03  0.65228734666E+03  0.89116216956E+02 0.  0.
         11    1    3    3    0    0 -0.37735472608E+02  0.10584125053E+02 -0.10086948552E+03  0.10821572300E+03  0.00000000000E+00 0. -1.
        -11    1    3    3    0    0 -0.32430515893E+03 -0.60930657451E+02 -0.40191837282E+03  0.52002380670E+03  0.00000000000E+00 0.  1.
          3    1    5    5  502    0 -0.17873740911E+02 -0.46249477908E+02 -0.13054599900E+03  0.13964505962E+03  0.00000000000E+00 0. -1.
          3    1    6    6  503    0  0.24814330965E+03  0.67404035909E+02  0.26827000975E+03  0.37160086694E+03  0.00000000000E+00 0. -1.
         -3    1    5    5    0  502 -0.24122862480E+02  0.42143528799E+02 -0.19576179644E+03  0.20169449784E+03  0.00000000000E+00 0.  1.
         -3    1    6    6    0  503  0.15589392528E+03 -0.12951554402E+02  0.23305415936E+03  0.28068647972E+03  0.00000000000E+00 0.  1.
<mgrwt>
<rscale>  0 0.15884006E+04</rscale>
<asrwt>0</asrwt>
<pdfrwt beam="1">  1        2 0.99545766E-01 0.15884006E+04</pdfrwt>
<pdfrwt beam="2">  1       -2 0.14997215E+00 0.15884006E+04</pdfrwt>
<totfact> 0.13000853E+01</totfact>
</mgrwt>
</event>
<event>
12    1  0.4802930E-008  0.1647762E+04  0.7818608E-02  0.8791731E-01
         -2   -1    0    0    0  501 -0.00000000000E+00  0.00000000000E+00  0.37721160381E+03  0.37721160381E+03  0.00000000000E+00 0.  1.
          2   -1    0    0  501    0  0.00000000000E+00 -0.00000000000E+00 -0.17994676209E+04  0.17994676209E+04  0.00000000000E+00 0. -1.
         23    2    1    2    0    0  0.66787564131E+02  0.17538796817E+03 -0.12206987759E+04  0.12385952581E+04  0.93761365875E+02 0.  0.
        254    2    1    2    0    0 -0.66787564131E+02 -0.17538796817E+03 -0.20155724119E+03  0.93808396665E+03  0.89674672506E+03 0.  0.
         23    2    4    4    0    0 -0.22564513378E+03 -0.13830229548E+02 -0.49764923807E+03  0.55438466390E+03  0.92631472888E+02 0.  0.
         23    2    4    4    0    0  0.15885756964E+03 -0.16155773862E+03  0.29609199688E+03  0.38369930275E+03  0.90653482979E+02 0.  0.
         11    1    3    3    0    0 -0.60159620212E+01  0.75281745326E+02 -0.66516202768E+03  0.66943562502E+03  0.00000000000E+00 0.  1.
        -11    1    3    3    0    0  0.72803526152E+02  0.10010622284E+03 -0.55553674824E+03  0.56915963307E+03  0.00000000000E+00 0. -1.
          1    1    6    6  502    0  0.14199244354E+03 -0.14035435587E+03  0.19515420359E+03  0.27918875768E+03  0.00000000000E+00 0. -1.
          1    1    5    5  503    0 -0.21019377399E+03 -0.23388165745E+02 -0.49172035306E+03  0.53527314012E+03  0.00000000000E+00 0. -1.
         -1    1    5    5    0  503 -0.15451359785E+02  0.95579361970E+01 -0.59288850042E+01  0.19111523773E+02  0.00000000000E+00 0.  1.
         -1    1    6    6    0  502  0.16865126108E+02 -0.21203382747E+02  0.10093779328E+03  0.10451054507E+03  0.00000000000E+00 0.  1.
<mgrwt>
<rscale>  0 0.16477622E+04</rscale>
<asrwt>0</asrwt>
<pdfrwt beam="1">  1        2 0.27684118E+00 0.16477622E+04</pdfrwt>
<pdfrwt beam="2">  1       -2 0.58032553E-01 0.16477622E+04</pdfrwt>
<totfact> 0.22921934E+01</totfact>
</mgrwt>
</event>
<event>
12    1  0.4802930E-008  0.1124659E+04  0.7818608E-02  0.9181486E-01
          2   -1    0    0  501    0  0.00000000000E+00  0.00000000000E+00  0.10921071492E+04  0.10921071492E+04  0.00000000000E+00 0. -1.
         -2   -1    0    0    0  501 -0.00000000000E+00 -0.00000000000E+00 -0.28954504075E+03  0.28954504075E+03  0.00000000000E+00 0.  1.
         23    2    1    2    0    0 -0.15261889656E+03  0.10138071535E+03  0.13855327054E+03  0.24795408872E+03  0.93346903016E+02 0.  0.
        254    2    1    2    0    0  0.15261889656E+03 -0.10138071535E+03  0.66400883788E+03  0.11336981012E+04  0.90044048713E+03 0.  0.
         23    2    4    4    0    0 -0.33284142569E+03  0.12692240045E+03  0.33417432501E+03  0.49592433763E+03  0.85882237761E+02 0.  0.
         23    2    4    4    0    0  0.48546032225E+03 -0.22830311580E+03  0.32983451286E+03  0.63777376358E+03  0.10084904796E+03 0.  0.
         11    1    3    3    0    0  0.60523114557E+01  0.31381825902E+02  0.26071192603E+02  0.41245079157E+02  0.00000000000E+00 0. -1.
        -11    1    3    3    0    0 -0.15867120801E+03  0.69998889449E+02  0.11248207794E+03  0.20670900956E+03  0.00000000000E+00 0.  1.
          4    1    5    5  502    0  0.71069651382E-01  0.14556024388E+02  0.18848716902E+02  0.23815058802E+02  0.00000000000E+00 0.  1.
          3    1    6    6  503    0  0.31618071102E+03 -0.18486277231E+03  0.18258323738E+03  0.40924457868E+03  0.00000000000E+00 0. -1.
         -4    1    5    5    0  502 -0.33291249534E+03  0.11236637606E+03  0.31532560811E+03  0.47210927883E+03  0.00000000000E+00 0. -1.
         -3    1    6    6    0  503  0.16927961123E+03 -0.43440343498E+02  0.14725127548E+03  0.22852918490E+03  0.00000000000E+00 0.  1.
<mgrwt>
<rscale>  0 0.11246585E+04</rscale>
<asrwt>0</asrwt>
<pdfrwt beam="1">  1        2 0.16801648E+00 0.11246585E+04</pdfrwt>
<pdfrwt beam="2">  1       -2 0.44545392E-01 0.11246585E+04</pdfrwt>
<totfact> 0.10434214E+02</totfact>
</mgrwt>
</event>
<event>
12    1  0.4802930E-008  0.2736387E+04  0.7818608E-02  0.8323294E-01
         -2   -1    0    0    0  501 -0.00000000000E+00  0.00000000000E+00  0.79985141250E+03  0.79985141250E+03  0.00000000000E+00 0.  1.
          2   -1    0    0  501    0  0.00000000000E+00 -0.00000000000E+00 -0.23403764085E+04  0.23403764085E+04  0.00000000000E+00 0. -1.
         23    2    1    2    0    0 -0.23966002044E+03 -0.11740727156E+04 -0.43429756199E+03  0.12777914770E+04  0.90846130392E+02 0.  0.
        254    2    1    2    0    0  0.23966002044E+03  0.11740727156E+04 -0.11062274340E+04  0.18624363440E+04  0.89947002881E+03 0.  0.
         23    2    4    4    0    0 -0.16214322975E+03  0.10202482633E+04 -0.91680807977E+03  0.13840337908E+04  0.88405504200E+02 0.  0.
         23    2    4    4    0    0  0.40180325019E+03  0.15382445228E+03 -0.18941935420E+03  0.47840255317E+03  0.88777796501E+02 0.  0.
         11    1    3    3    0    0 -0.12702959305E+02 -0.11787247186E+03 -0.17371503751E+02  0.11982092446E+03  0.00000000000E+00 0.  1.
        -11    1    3    3    0    0 -0.22695706114E+03 -0.10562002438E+04 -0.41692605824E+03  0.11579705525E+04  0.00000000000E+00 0. -1.
          4    1    5    5  502    0 -0.67877808130E+02  0.21732746590E+03 -0.22305380558E+03  0.31873441053E+03  0.00000000000E+00 0.  1.
          3    1    6    6  503    0  0.39575413124E+03  0.13712283894E+03 -0.19145988061E+03  0.46052241122E+03  0.00000000000E+00 0. -1.
         -4    1    5    5    0  502 -0.94265421618E+02  0.80292079743E+03 -0.69375427420E+03  0.10652993803E+04  0.00000000000E+00 0. -1.
         -3    1    6    6    0  503  0.60491189483E+01  0.16701613341E+02  0.20405264020E+01  0.17880141952E+02  0.00000000000E+00 0.  1.
<mgrwt>
<rscale>  0 0.27363869E+04</rscale>
<asrwt>0</asrwt>
<pdfrwt beam="1">  1        2 0.36005791E+00 0.27363869E+04</pdfrwt>
<pdfrwt beam="2">  1       -2 0.12305406E+00 0.27363869E+04</pdfrwt>
<totfact> 0.18755360E+00</totfact>
</mgrwt>
</event>
<event>
12    1  0.4802930E-008  0.1270347E+04  0.7818608E-02  0.9053417E-01
          1   -1    0    0  501    0  0.00000000000E+00  0.00000000000E+00  0.15432005596E+04  0.15432005596E+04  0.00000000000E+00 0. -1.
         -1   -1    0    0    0  501 -0.00000000000E+00 -0.00000000000E+00 -0.26143403523E+03  0.26143403523E+03  0.00000000000E+00 0.  1.
         23    2    1    2    0    0 -0.11553923821E+03 -0.59640546486E+02  0.71645366237E+03  0.73386905391E+03  0.91387239884E+02 0.  0.
        254    2    1    2    0    0  0.11553923821E+03  0.59640546486E+02  0.56531286198E+03  0.10707655409E+04  0.90002994468E+03 0.  0.
         23    2    4    4    0    0  0.21568774907E+03  0.23378899512E+03  0.72591414919E+03  0.79752213224E+03  0.88947737938E+02 0.  0.
         23    2    4    4    0    0 -0.10014851086E+03 -0.17414844863E+03 -0.16060128721E+03  0.27324340867E+03  0.92259311406E+02 0.  0.
         13    1    3    3    0    0 -0.41625956073E+02 -0.40986999803E+02  0.51790483882E+03  0.52118909855E+03  0.00000000000E+00 0. -1.
        -13    1    3    3    0    0 -0.73913282138E+02 -0.18653546682E+02  0.19854882355E+03  0.21267995536E+03  0.00000000000E+00 0.  1.
          4    1    5    5  502    0  0.92739997425E+02  0.82904208789E+02  0.38927368241E+03  0.40866589627E+03  0.00000000000E+00 0.  1.
          1    1    6    6  503    0 -0.21966840238E+02 -0.62416480963E+02 -0.50232791880E+01  0.66359569767E+02  0.00000000000E+00 0. -1.
         -4    1    5    5    0  502  0.12294775164E+03  0.15088478633E+03  0.33664046677E+03  0.38885623597E+03  0.00000000000E+00 0. -1.
         -1    1    6    6    0  503 -0.78181670617E+02 -0.11173196767E+03 -0.15557800802E+03  0.20688383890E+03  0.00000000000E+00 0.  1.
<mgrwt>
<rscale>  0 0.12703466E+04</rscale>
<asrwt>0</asrwt>
<pdfrwt beam="1">  1        1 0.23741547E+00 0.12703466E+04</pdfrwt>
<pdfrwt beam="2">  1       -1 0.40220622E-01 0.12703466E+04</pdfrwt>
<totfact> 0.36251390E+01</totfact>
</mgrwt>
</event>
<event>
12    1  0.4802930E-008  0.1622236E+04  0.7818608E-02  0.8807003E-01
         -4   -1    0    0    0  501 -0.00000000000E+00  0.00000000000E+00  0.97627410785E+03  0.97627410785E+03  0.00000000000E+00 0.  1.
          4   -1    0    0  501    0  0.00000000000E+00 -0.00000000000E+00 -0.67390137313E+03  0.67390137313E+03  0.00000000000E+00 0. -1.
         23    2    1    2    0    0  0.61939005507E+02 -0.54901069905E+03  0.13961333790E+03  0.57975956413E+03  0.10667745780E+03 0.  0.
        254    2    1    2    0    0 -0.61939005507E+02  0.54901069905E+03  0.16275939682E+03  0.10704159169E+04  0.90224743043E+03 0.  0.
         23    2    4    4    0    0  0.14233783699E+03  0.67103756900E+02  0.43689290409E+03  0.47267097438E+03  0.88201283153E+02 0.  0.
         23    2    4    4    0    0 -0.20427684250E+03  0.48190694215E+03 -0.27413350726E+03  0.59774494247E+03  0.90479319039E+02 0.  0.
         11    1    3    3    0    0 -0.12454055948E+02 -0.46899153872E+01  0.38132285359E+01  0.13843392928E+02  0.00000000000E+00 0. -1.
        -11    1    3    3    0    0  0.74393061455E+02 -0.54432078366E+03  0.13580010936E+03  0.56591617120E+03  0.00000000000E+00 0.  1.
          1    1    5    5  502    0  0.11884232855E+03  0.78000035226E+02  0.41528727588E+03  0.43894307838E+03  0.00000000000E+00 0.  1.
          1    1    6    6  503    0 -0.25845641223E+01  0.23686432053E+02  0.52811617216E+01  0.24405280253E+02  0.00000000000E+00 0. -1.
         -1    1    5    5    0  502  0.23495508439E+02 -0.10896278327E+02  0.21605628203E+02  0.33727895995E+02  0.00000000000E+00 0. -1.
         -1    1    6    6    0  503 -0.20169227838E+03  0.45822051010E+03 -0.27941466898E+03  0.57333966222E+03  0.00000000000E+00 0.  1.
<mgrwt>
<rscale>  0 0.16222361E+04</rscale>
<asrwt>0</asrwt>
<pdfrwt beam="1">  1        4 0.10367713E+00 0.16222361E+04</pdfrwt>
<pdfrwt beam="2">  1       -4 0.15019602E+00 0.16222361E+04</pdfrwt>
<totfact> 0.43032263E-01</totfact>
</mgrwt>
</event>
<event>
12    1  0.4802930E-008  0.2122605E+04  0.7818608E-02  0.8551351E-01
         -2   -1    0    0    0  501 -0.00000000000E+00  0.00000000000E+00  0.21339516494E+04  0.21339516494E+04  0.00000000000E+00 0.  1.
          2   -1    0    0  501    0  0.00000000000E+00 -0.00000000000E+00 -0.52782946118E+03  0.52782946118E+03  0.00000000000E+00 0. -1.
         23    2    1    2    0    0 -0.73043252807E+03  0.31877226983E+03  0.43080539643E+03  0.91029879439E+03  0.88899760361E+02 0.  0.
        254    2    1    2    0    0  0.73043252807E+03 -0.31877226983E+03  0.11753167917E+04  0.17514823161E+04  0.10252674308E+04 0.  0.
         23    2    4    4    0    0  0.43863083575E+03 -0.43719385497E+03  0.12653352906E+04  0.14118201821E+04  0.92883539554E+02 0.  0.
         23    2    4    4    0    0  0.29180169232E+03  0.11842158514E+03 -0.90018498910E+02  0.33966213405E+03  0.89972972005E+02 0.  0.
         11    1    3    3    0    0 -0.72702132406E+03  0.30867901522E+03  0.41794960392E+03  0.89360204313E+03  0.00000000000E+00 0. -1.
        -11    1    3    3    0    0 -0.34112040155E+01  0.10093254613E+02  0.12855792510E+02  0.16696751258E+02  0.00000000000E+00 0.  1.
          1    1    5    5  502    0  0.10581930946E+03 -0.91203853411E+02  0.37718754693E+03  0.40222669564E+03  0.00000000000E+00 0. -1.
          3    1    6    6  503    0  0.42839711220E+02 -0.11943678763E+02 -0.25706823215E+02  0.51368600133E+02  0.00000000000E+00 0. -1.
         -1    1    5    5    0  502  0.33281152629E+03 -0.34599000156E+03  0.88814774372E+03  0.10095934865E+04  0.00000000000E+00 0.  1.
         -3    1    6    6    0  503  0.24896198110E+03  0.13036526391E+03 -0.64311675696E+02  0.28829353392E+03  0.00000000000E+00 0.  1.
<mgrwt>
<rscale>  0 0.21226046E+04</rscale>
<asrwt>0</asrwt>
<pdfrwt beam="1">  1        2 0.81204533E-01 0.21226046E+04</pdfrwt>
<pdfrwt beam="2">  1       -2 0.32830025E+00 0.21226046E+04</pdfrwt>
<totfact> 0.11322984E+00</totfact>
</mgrwt>
</event>
<event>
12    1  0.4802930E-008  0.1386874E+04  0.7818608E-02  0.8963375E-01
         -2   -1    0    0    0  501 -0.00000000000E+00  0.00000000000E+00  0.45767609869E+03  0.45767609869E+03  0.00000000000E+00 0.  1.
          2   -1    0    0  501    0  0.00000000000E+00 -0.00000000000E+00 -0.10506447565E+04  0.10506447565E+04  0.00000000000E+00 0. -1.
         23    2    1    2    0    0 -0.16275470241E+03 -0.73775483652E+02 -0.55857394517E+03  0.59341270640E+03  0.90564191342E+02 0.  0.
        254    2    1    2    0    0  0.16275470241E+03  0.73775483652E+02 -0.34394712684E+02  0.91490814883E+03  0.89662813328E+03 0.  0.
         23    2    4    4    0    0 -0.24219757996E+03  0.27305026756E+03 -0.19926098253E+03  0.42587215298E+03  0.91902313201E+02 0.  0.
         23    2    4    4    0    0  0.40495228236E+03 -0.19927478391E+03  0.16486626985E+03  0.48903599585E+03  0.90986415554E+02 0.  0.
         11    1    3    3    0    0 -0.21350095314E+02 -0.44827311366E+02 -0.21675148971E+03  0.22236574085E+03  0.00000000000E+00 0. -1.
        -11    1    3    3    0    0 -0.14140460709E+03 -0.28948172286E+02 -0.34182245546E+03  0.37104696555E+03  0.00000000000E+00 0.  1.
          2    1    5    5  502    0 -0.85526832749E+02  0.15757610157E+03 -0.11989248802E+03  0.21568327610E+03  0.00000000000E+00 0. -1.
          3    1    6    6  503    0  0.19248886798E+03 -0.50849969349E+02  0.48364896788E+02  0.20488251980E+03  0.00000000000E+00 0.  1.
         -2    1    5    5    0  502 -0.15667074721E+03  0.11547416599E+03 -0.79368494508E+02  0.21018887687E+03  0.00000000000E+00 0.  1.
         -3    1    6    6    0  503  0.21246341438E+03 -0.14842481456E+03  0.11650137306E+03  0.28415347605E+03  0.00000000000E+00 0. -1.
<mgrwt>
<rscale>  0 0.13868742E+04</rscale>
<asrwt>0</asrwt>
<pdfrwt beam="1">  1        2 0.16163765E+00 0.13868742E+04</pdfrwt>
<pdfrwt beam="2">  1       -2 0.70411709E-01 0.13868742E+04</pdfrwt>
<totfact> 0.41821362E+01</totfact>
</mgrwt>
</event>
<event>
12    1  0.4802930E-008  0.3150870E+04  0.7818608E-02  0.8201914E-01
          1   -1    0    0  501    0  0.00000000000E+00  0.00000000000E+00  0.39161869021E+04  0.39161869021E+04  0.00000000000E+00 0. -1.
         -1   -1    0    0    0  501 -0.00000000000E+00 -0.00000000000E+00 -0.63377872767E+03  0.63377872767E+03  0.00000000000E+00 0.  1.
         23    2    1    2    0    0 -0.33233571442E+03 -0.35262202360E+03 -0.45740846840E+03  0.67293020389E+03  0.93932069773E+02 0.  0.
        254    2    1    2    0    0  0.33233571442E+03  0.35262202360E+03  0.37398166428E+04  0.38770354259E+04  0.90021433723E+03 0.  0.
         23    2    4    4    0    0 -0.20282459791E+03 -0.15981512442E+03  0.11182570740E+04  0.11512432642E+04  0.90462580079E+02 0.  0.
         23    2    4    4    0    0  0.53516031232E+03  0.51243714802E+03  0.26215595688E+04  0.27257921617E+04  0.91542039519E+02 0.  0.
         11    1    3    3    0    0 -0.15875346488E+03 -0.23253541047E+03 -0.28184493556E+03  0.39838668080E+03  0.00000000000E+00 0. -1.
        -11    1    3    3    0    0 -0.17358224954E+03 -0.12008661313E+03 -0.17556353284E+03  0.27454352309E+03  0.00000000000E+00 0.  1.
          4    1    5    5  502    0 -0.64041372397E+02 -0.97653256141E+02  0.38224360681E+03  0.39968441396E+03  0.00000000000E+00 0.  1.
          3    1    6    6  503    0  0.30987401203E+03  0.32602306355E+03  0.14415764604E+04  0.15101177545E+04  0.00000000000E+00 0. -1.
         -4    1    5    5    0  502 -0.13878322551E+03 -0.62161868276E+02  0.73601346719E+03  0.75155885028E+03  0.00000000000E+00 0. -1.
         -3    1    6    6    0  503  0.22528630030E+03  0.18641408447E+03  0.11799831084E+04  0.12156744071E+04  0.00000000000E+00 0.  1.
<mgrwt>
<rscale>  0 0.31508703E+04</rscale>
<asrwt>0</asrwt>
<pdfrwt beam="1">  1        1 0.60249028E+00 0.31508703E+04</pdfrwt>
<pdfrwt beam="2">  1       -1 0.97504422E-01 0.31508703E+04</pdfrwt>
<totfact> 0.96162766E-02</totfact>
</mgrwt>
</event>
<event>
12    1  0.4802930E-008  0.1968037E+04  0.7818608E-02  0.8621712E-01
          2   -1    0    0  501    0  0.00000000000E+00  0.00000000000E+00  0.11252649145E+04  0.11252649145E+04  0.00000000000E+00 0. -1.
         -2   -1    0    0    0  501 -0.00000000000E+00 -0.00000000000E+00 -0.86050180090E+03  0.86050180090E+03  0.00000000000E+00 0.  1.
         23    2    1    2    0    0  0.59340835162E+03 -0.19055554509E+03  0.57296869868E+03  0.85141339046E+03  0.90370040651E+02 0.  0.
        254    2    1    2    0    0 -0.59340835162E+03  0.19055554509E+03 -0.30820558511E+03  0.11343533249E+04  0.89628226329E+03 0.  0.
         23    2    4    4    0    0 -0.64085151242E+03 -0.58497129361E+02 -0.48621325389E+03  0.81167145659E+03  0.91074969511E+02 0.  0.
         23    2    4    4    0    0  0.47443160801E+02  0.24905267445E+03  0.17800766877E+03  0.32268186832E+03  0.90325909011E+02 0.  0.
         13    1    3    3    0    0  0.54957588049E+03 -0.15095662714E+03  0.50629238166E+03  0.76233426227E+03  0.00000000000E+00 0. -1.
        -13    1    3    3    0    0  0.43832471127E+02 -0.39598917956E+02  0.66676317021E+02  0.89079128195E+02  0.00000000000E+00 0.  1.
          3    1    5    5  502    0 -0.16288274027E+03 -0.15762541614E+02 -0.17565799347E+03  0.24007285450E+03  0.00000000000E+00 0. -1.
          3    1    6    6  503    0  0.34134658327E+02  0.55963233165E+02  0.86661756801E+02  0.10866148562E+03  0.00000000000E+00 0. -1.
         -3    1    5    5    0  502 -0.47796877215E+03 -0.42734587747E+02 -0.31055526041E+03  0.57159860209E+03  0.00000000000E+00 0.  1.
         -3    1    6    6    0  503  0.13308502473E+02  0.19308944129E+03  0.91345911974E+02  0.21402038270E+03  0.00000000000E+00 0.  1.
<mgrwt>
<rscale>  0 0.19680371E+04</rscale>
<asrwt>0</asrwt>
<pdfrwt beam="1">  1        2 0.17311768E+00 0.19680371E+04</pdfrwt>
<pdfrwt beam="2">  1       -2 0.13238489E+00 0.19680371E+04</pdfrwt>
<totfact> 0.81204155E+00</totfact>
</mgrwt>
</event>
<event>
12    1  0.4802930E-008  0.2745422E+04  0.7818608E-02  0.8320416E-01
         -1   -1    0    0    0  501 -0.00000000000E+00  0.00000000000E+00  0.86929217030E+03  0.86929217030E+03  0.00000000000E+00 0.  1.
          1   -1    0    0  501    0  0.00000000000E+00 -0.00000000000E+00 -0.21676671116E+04  0.21676671116E+04  0.00000000000E+00 0. -1.
         23    2    1    2    0    0  0.68474390295E+03  0.84572138511E+03 -0.12078372963E+04  0.16282321747E+04  0.90278495326E+02 0.  0.
        254    2    1    2    0    0 -0.68474390295E+03 -0.84572138511E+03 -0.90537645001E+02  0.14087271071E+04  0.89005400026E+03 0.  0.
         23    2    4    4    0    0 -0.47350456881E+03 -0.96912681102E+03 -0.23916076718E+03  0.11082678045E+04  0.87443132725E+02 0.  0.
         23    2    4    4    0    0 -0.21123933414E+03  0.12340542592E+03  0.14862312218E+03  0.30045930262E+03  0.91301723131E+02 0.  0.
         11    1    3    3    0    0  0.23108269893E+03  0.30469373196E+03 -0.48716215316E+03  0.61932580078E+03  0.00000000000E+00 0. -1.
        -11    1    3    3    0    0  0.45366120402E+03  0.54102765315E+03 -0.72067514309E+03  0.10089063739E+04  0.00000000000E+00 0.  1.
          2    1    5    5  502    0 -0.14358865115E+02 -0.82758805917E+01  0.10082695575E+01  0.16603728932E+02  0.00000000000E+00 0. -1.
          3    1    6    6  503    0 -0.21525624907E+02 -0.10161094861E+02 -0.19234637270E+01  0.23880956621E+02  0.00000000000E+00 0. -1.
         -2    1    5    5    0  502 -0.45914570369E+03 -0.96085093043E+03 -0.24016903674E+03  0.10916640756E+04  0.00000000000E+00 0.  1.
         -3    1    6    6    0  503 -0.18971370924E+03  0.13356652078E+03  0.15054658591E+03  0.27657834599E+03  0.00000000000E+00 0.  1.
<mgrwt>
<rscale>  0 0.27454224E+04</rscale>
<asrwt>0</asrwt>
<pdfrwt beam="1">  1        1 0.33348725E+00 0.27454224E+04</pdfrwt>
<pdfrwt beam="2">  1       -1 0.13373726E+00 0.27454224E+04</pdfrwt>
<totfact> 0.94046455E-01</totfact>
</mgrwt>
</event>
<event>
12    1  0.4802930E-008  0.3094117E+04  0.7818608E-02  0.8217354E-01
          2   -1    0    0  501    0  0.00000000000E+00  0.00000000000E+00  0.78252868287E+03  0.78252868287E+03  0.00000000000E+00 0. -1.
         -2   -1    0    0    0  501 -0.00000000000E+00 -0.00000000000E+00 -0.30585340938E+04  0.30585340938E+04  0.00000000000E+00 0.  1.
         23    2    1    2    0    0 -0.10084681775E+04  0.60439296270E+02  0.18131949908E+03  0.10317926620E+04  0.10515875163E+03 0.  0.
        254    2    1    2    0    0  0.10084681775E+04 -0.60439296270E+02 -0.24573249100E+04  0.28092701146E+04  0.91262910861E+03 0.  0.
         23    2    4    4    0    0  0.65936373207E+03  0.26809674088E+03 -0.20535874066E+04  0.21754152807E+04  0.92595966987E+02 0.  0.
         23    2    4    4    0    0  0.34910444548E+03 -0.32853603715E+03 -0.40373750333E+03  0.63385483390E+03  0.94647436836E+02 0.  0.
         13    1    3    3    0    0 -0.42931459581E+03  0.53807222369E+02  0.33105907219E+02  0.43393806061E+03  0.00000000000E+00 0. -1.
        -13    1    3    3    0    0 -0.57915358173E+03  0.66320739003E+01  0.14821359186E+03  0.59785460143E+03  0.00000000000E+00 0.  1.
          1    1    5    5  502    0  0.62641149503E+03  0.26903659744E+03 -0.19939211333E+04  0.21072478587E+04  0.00000000000E+00 0. -1.
          3    1    6    6  503    0  0.33754048936E+03 -0.31674017528E+03 -0.40774374585E+03  0.61685726297E+03  0.00000000000E+00 0. -1.
         -1    1    5    5    0  502  0.32952237034E+02 -0.93985655308E+00 -0.59666273321E+02  0.68167422043E+02  0.00000000000E+00 0.  1.
         -3    1    6    6    0  503  0.11563956114E+02 -0.11795861868E+02  0.40062425226E+01  0.16997570926E+02  0.00000000000E+00 0.  1.
<mgrwt>
<rscale>  0 0.30941174E+04</rscale>
<asrwt>0</asrwt>
<pdfrwt beam="1">  1        2 0.12038903E+00 0.30941174E+04</pdfrwt>
<pdfrwt beam="2">  1       -2 0.47054371E+00 0.30941174E+04</pdfrwt>
<totfact> 0.76477667E-02</totfact>
</mgrwt>
</event>
<event>
12    1  0.4802930E-008  0.1456818E+04  0.7818608E-02  0.8913688E-01
         -2   -1    0    0    0  501 -0.00000000000E+00  0.00000000000E+00  0.94844586027E+03  0.94844586027E+03  0.00000000000E+00 0.  1.
          2   -1    0    0  501    0  0.00000000000E+00 -0.00000000000E+00 -0.55941980450E+03  0.55941980450E+03  0.00000000000E+00 0. -1.
         23    2    1    2    0    0 -0.21181656140E+03 -0.22611400777E+03  0.46063455545E+03  0.56271723684E+03  0.92047242034E+02 0.  0.
        254    2    1    2    0    0  0.21181656140E+03  0.22611400777E+03 -0.71608499689E+02  0.94514842793E+03  0.89004717482E+03 0.  0.
         23    2    4    4    0    0 -0.25365594004E+03  0.18084038710E+03 -0.27655349179E+03  0.42642934833E+03  0.91189767925E+02 0.  0.
         23    2    4    4    0    0  0.46547250144E+03  0.45273620668E+02  0.20494499210E+03  0.51871907960E+03  0.91393016269E+02 0.  0.
         13    1    3    3    0    0 -0.17452996219E+03 -0.14712832525E+03  0.27380018513E+03  0.35647439343E+03  0.00000000000E+00 0.  1.
        -13    1    3    3    0    0 -0.37286599206E+02 -0.78985682521E+02  0.18683437033E+03  0.20624284341E+03  0.00000000000E+00 0. -1.
          2    1    5    5  502    0 -0.17069504999E+03  0.67024372296E+02 -0.16643449641E+03  0.24764795207E+03  0.00000000000E+00 0. -1.
          4    1    6    6  503    0  0.95699850971E+02  0.32168801177E+00  0.83267564021E+02  0.12685445273E+03  0.00000000000E+00 0.  1.
         -2    1    5    5    0  502 -0.82960890058E+02  0.11381601481E+03 -0.11011899538E+03  0.17878139626E+03  0.00000000000E+00 0.  1.
         -4    1    6    6    0  503  0.36977265047E+03  0.44951932656E+02  0.12167742808E+03  0.39186462687E+03  0.00000000000E+00 0. -1.
<mgrwt>
<rscale>  0 0.14568176E+04</rscale>
<asrwt>0</asrwt>
<pdfrwt beam="1">  1        2 0.86064585E-01 0.14568176E+04</pdfrwt>
<pdfrwt beam="2">  1       -2 0.14591475E+00 0.14568176E+04</pdfrwt>
<totfact> 0.16842046E+01</totfact>
</mgrwt>
</event>
<event>
12    1  0.4802930E-008  0.1749799E+04  0.7818608E-02  0.8733461E-01
         -2   -1    0    0    0  501 -0.00000000000E+00  0.00000000000E+00  0.32870936690E+03  0.32870936690E+03  0.00000000000E+00 0.  1.
          2   -1    0    0  501    0  0.00000000000E+00 -0.00000000000E+00 -0.23286512425E+04  0.23286512425E+04  0.00000000000E+00 0. -1.
         23    2    1    2    0    0 -0.32697401833E+02  0.44115880326E+03 -0.55681260494E+02  0.45454654175E+03  0.88441766550E+02 0.  0.
        254    2    1    2    0    0  0.32697401833E+02 -0.44115880326E+03 -0.19442606151E+04  0.22028140676E+04  0.93624263276E+03 0.  0.
         23    2    4    4    0    0  0.10372930685E+03 -0.19539700021E+03 -0.19119446772E+04  0.19271704537E+04  0.97538464257E+02 0.  0.
         23    2    4    4    0    0 -0.71031905015E+02 -0.24576180304E+03 -0.32315937889E+02  0.27564361397E+03  0.97420155586E+02 0.  0.
         11    1    3    3    0    0 -0.62915268511E+01  0.17051752076E+03  0.21238728235E+02  0.17195025960E+03  0.00000000000E+00 0.  1.
        -11    1    3    3    0    0 -0.26405874982E+02  0.27064128249E+03 -0.76919988729E+02  0.28259628216E+03  0.00000000000E+00 0. -1.
          2    1    5    5  502    0  0.80478995007E+02 -0.14768258628E+03 -0.17140363993E+04  0.17222682117E+04  0.00000000000E+00 0. -1.
          1    1    6    6  503    0 -0.68923791756E+02 -0.21230045889E+03  0.78213542590E+01  0.22334535477E+03  0.00000000000E+00 0. -1.
         -2    1    5    5    0  502  0.23250311841E+02 -0.47714413934E+02 -0.19790827788E+03  0.20490224194E+03  0.00000000000E+00 0.  1.
         -1    1    6    6    0  503 -0.21081132593E+01 -0.33461344150E+02 -0.40137292148E+02  0.52298259195E+02  0.00000000000E+00 0.  1.
<mgrwt>
<rscale>  0 0.17497994E+04</rscale>
<asrwt>0</asrwt>
<pdfrwt beam="1">  1        2 0.35825404E+00 0.17497994E+04</pdfrwt>
<pdfrwt beam="2">  1       -2 0.50570672E-01 0.17497994E+04</pdfrwt>
<totfact> 0.15314984E+01</totfact>
</mgrwt>
</event>
<event>
12    1  0.4802930E-008  0.2500517E+04  0.7818608E-02  0.8402801E-01
         -2   -1    0    0    0  501 -0.00000000000E+00  0.00000000000E+00  0.81588250253E+03  0.81588250253E+03  0.00000000000E+00 0.  1.
          2   -1    0    0  501    0  0.00000000000E+00 -0.00000000000E+00 -0.19158960254E+04  0.19158960254E+04  0.00000000000E+00 0. -1.
         23    2    1    2    0    0 -0.89211155372E+03 -0.14815090750E+03  0.18154934570E+03  0.92762232585E+03  0.98545922451E+02 0.  0.
        254    2    1    2    0    0  0.89211155372E+03  0.14815090750E+03 -0.12815628686E+04  0.18041562021E+04  0.89149565324E+03 0.  0.
         23    2    4    4    0    0 -0.13283617968E+03 -0.12331760859E+03 -0.26032607877E+03  0.32921749354E+03  0.88101121129E+02 0.  0.
         23    2    4    4    0    0  0.10249477334E+04  0.27146851608E+03 -0.10212367898E+04  0.14749387085E+04  0.91140560070E+02 0.  0.
         13    1    3    3    0    0 -0.71113722008E+03 -0.97890174451E+02  0.17881112134E+03  0.73977837841E+03  0.00000000000E+00 0.  1.
        -13    1    3    3    0    0 -0.18097433363E+03 -0.50260733044E+02  0.27382243601E+01  0.18784394745E+03  0.00000000000E+00 0. -1.
          2    1    5    5  502    0 -0.10067798322E+03 -0.11788074596E+03 -0.15606064566E+03  0.21997011546E+03  0.00000000000E+00 0.  1.
          3    1    6    6  503    0  0.58109194807E+03  0.15827226342E+03 -0.51725237904E+03  0.79389419011E+03  0.00000000000E+00 0. -1.
         -2    1    5    5    0  502 -0.32158196461E+02 -0.54368626296E+01 -0.10426543311E+03  0.10924737807E+03  0.00000000000E+00 0. -1.
         -3    1    6    6    0  503  0.44385578533E+03  0.11319625267E+03 -0.50398441076E+03  0.68104451842E+03  0.00000000000E+00 0.  1.
<mgrwt>
<rscale>  0 0.25005168E+04</rscale>
<asrwt>0</asrwt>
<pdfrwt beam="1">  1        2 0.29475324E+00 0.25005168E+04</pdfrwt>
<pdfrwt beam="2">  1       -2 0.12552038E+00 0.25005168E+04</pdfrwt>
<totfact> 0.31489028E+00</totfact>
</mgrwt>
</event>
<event>
12    1  0.4802930E-008  0.1450849E+04  0.7818608E-02  0.8917812E-01
         -2   -1    0    0    0  501 -0.00000000000E+00  0.00000000000E+00  0.17084403936E+03  0.17084403936E+03  0.00000000000E+00 0.  1.
          2   -1    0    0  501    0  0.00000000000E+00 -0.00000000000E+00 -0.30802423341E+04  0.30802423341E+04  0.00000000000E+00 0. -1.
         23    2    1    2    0    0 -0.38179145963E+03 -0.56768425703E+02 -0.14319331167E+04  0.14859239157E+04  0.92466532449E+02 0.  0.
        254    2    1    2    0    0  0.38179145963E+03  0.56768425703E+02 -0.14774651780E+04  0.17651624578E+04  0.88538566586E+03 0.  0.
         23    2    4    4    0    0  0.45900897913E+02 -0.19307364226E+03  0.83139993747E+01  0.21878931794E+03  0.91735049441E+02 0.  0.
         23    2    4    4    0    0  0.33589056172E+03  0.24984206796E+03 -0.14857791774E+04  0.15463731399E+04  0.92122718545E+02 0.  0.
         11    1    3    3    0    0 -0.15923598819E+03 -0.43689388508E+02 -0.45964557174E+03  0.48840445762E+03  0.00000000000E+00 0.  1.
        -11    1    3    3    0    0 -0.22255547144E+03 -0.13079037195E+02 -0.97228754496E+03  0.99751945803E+03  0.00000000000E+00 0. -1.
          4    1    5    5  502    0  0.30935107567E+02 -0.17522632988E+03 -0.23371174625E+02  0.17946436796E+03  0.00000000000E+00 0. -1.
          1    1    6    6  503    0  0.61989032930E+02  0.57169619503E+02 -0.18732907783E+03  0.20543414759E+03  0.00000000000E+00 0. -1.
         -4    1    5    5    0  502  0.14965790346E+02 -0.17847312377E+02  0.31685173999E+02  0.39324949982E+02  0.00000000000E+00 0.  1.
         -1    1    6    6    0  503  0.27390152879E+03  0.19267244846E+03 -0.12984500996E+04  0.13409389923E+04  0.00000000000E+00 0.  1.
<mgrwt>
<rscale>  0 0.14508495E+04</rscale>
<asrwt>0</asrwt>
<pdfrwt beam="1">  1        2 0.47388344E+00 0.14508495E+04</pdfrwt>
<pdfrwt beam="2">  1       -2 0.26283698E-01 0.14508495E+04</pdfrwt>
<totfact> 0.19854197E+01</totfact>
</mgrwt>
</event>
<event>
12    1  0.4802930E-008  0.1178192E+04  0.7818608E-02  0.9132162E-01
         -2   -1    0    0    0  501 -0.00000000000E+00  0.00000000000E+00  0.25496254767E+03  0.25496254767E+03  0.00000000000E+00 0.  1.
          2   -1    0    0  501    0  0.00000000000E+00 -0.00000000000E+00 -0.13611176154E+04  0.13611176154E+04  0.00000000000E+00 0. -1.
         23    2    1    2    0    0  0.40655532882E+02  0.16099550814E+03 -0.13971645414E+02  0.19020560298E+03  0.91708988289E+02 0.  0.
        254    2    1    2    0    0 -0.40655532882E+02 -0.16099550814E+03 -0.10921834224E+04  0.14258745601E+04  0.90148832890E+03 0.  0.
         23    2    4    4    0    0  0.13410683006E+03  0.34040971501E+03 -0.45743277400E+03  0.59283649540E+03  0.91361652843E+02 0.  0.
         23    2    4    4    0    0 -0.17476236294E+03 -0.50140522315E+03 -0.63475064835E+03  0.83303806472E+03  0.95367449308E+02 0.  0.
         13    1    3    3    0    0  0.27107464451E+02  0.30731426854E+02 -0.39338891523E+02  0.56804785113E+02  0.00000000000E+00 0. -1.
        -13    1    3    3    0    0  0.13548068430E+02  0.13026408129E+03  0.25367246109E+02  0.13340081786E+03  0.00000000000E+00 0.  1.
          2    1    5    5  502    0  0.46767590998E+02  0.44463061102E+02 -0.11516073228E+03  0.13200820289E+03  0.00000000000E+00 0.  1.
          1    1    6    6  503    0 -0.13325188058E+03 -0.46541804856E+03 -0.57972136850E+03  0.75527934481E+03  0.00000000000E+00 0. -1.
         -2    1    5    5    0  502  0.87339239063E+02  0.29594665390E+03 -0.34227204172E+03  0.46082829251E+03  0.00000000000E+00 0. -1.
         -1    1    6    6    0  503 -0.41510482361E+02 -0.35987174587E+02 -0.55029279853E+02  0.77758719908E+02  0.00000000000E+00 0.  1.
<mgrwt>
<rscale>  0 0.11781919E+04</rscale>
<asrwt>0</asrwt>
<pdfrwt beam="1">  1        2 0.20940271E+00 0.11781919E+04</pdfrwt>
<pdfrwt beam="2">  1       -2 0.39225007E-01 0.11781919E+04</pdfrwt>
<totfact> 0.92446919E+01</totfact>
</mgrwt>
</event>
<event>
12    1  0.4802930E-008  0.2216164E+04  0.7818608E-02  0.8511730E-01
         -1   -1    0    0    0  501 -0.00000000000E+00  0.00000000000E+00  0.17594828074E+04  0.17594828074E+04  0.00000000000E+00 0.  1.
          1   -1    0    0  501    0  0.00000000000E+00 -0.00000000000E+00 -0.69784451054E+03  0.69784451054E+03  0.00000000000E+00 0. -1.
         23    2    1    2    0    0  0.74674692957E+02 -0.46696496197E+03  0.13253419227E+04  0.14103906014E+04  0.95067611767E+02 0.  0.
        254    2    1    2    0    0 -0.74674692957E+02  0.46696496197E+03 -0.26370362586E+03  0.10469367166E+04  0.89604927362E+03 0.  0.
         23    2    4    4    0    0  0.30850426447E+03 -0.61258347403E+02  0.27032068587E+02  0.32679785398E+03  0.84490462856E+02 0.  0.
         23    2    4    4    0    0 -0.38317895742E+03  0.52822330938E+03 -0.29073569445E+03  0.72013886260E+03  0.90701485233E+02 0.  0.
         11    1    3    3    0    0  0.98865886164E+01 -0.30581068870E+02  0.39214236488E+02  0.50702098093E+02  0.00000000000E+00 0. -1.
        -11    1    3    3    0    0  0.64788104341E+02 -0.43638389310E+03  0.12861276863E+04  0.13596885033E+04  0.00000000000E+00 0.  1.
          1    1    6    6  502    0 -0.24697704451E+03  0.40904207925E+03 -0.21426594849E+03  0.52366304032E+03  0.00000000000E+00 0. -1.
          1    1    5    5  503    0  0.92693194621E+02 -0.57218342207E+02 -0.23627388072E+01  0.10895664068E+03  0.00000000000E+00 0. -1.
         -1    1    5    5    0  503  0.21581106984E+03 -0.40400051965E+01  0.29394807394E+02  0.21784121330E+03  0.00000000000E+00 0.  1.
         -1    1    6    6    0  502 -0.13620191291E+03  0.11918123012E+03 -0.76469745955E+02  0.19647582228E+03  0.00000000000E+00 0.  1.
<mgrwt>
<rscale>  0 0.22161637E+04</rscale>
<asrwt>0</asrwt>
<pdfrwt beam="1">  1        1 0.10736069E+00 0.22161637E+04</pdfrwt>
<pdfrwt beam="2">  1       -1 0.27068966E+00 0.22161637E+04</pdfrwt>
<totfact> 0.12745218E+00</totfact>
</mgrwt>
</event>
<event>
12    1  0.4802930E-008  0.2447877E+04  0.7818608E-02  0.8421794E-01
          1   -1    0    0  501    0  0.00000000000E+00  0.00000000000E+00  0.18525030146E+04  0.18525030146E+04  0.00000000000E+00 0. -1.
         -1   -1    0    0    0  501 -0.00000000000E+00 -0.00000000000E+00 -0.80864930942E+03  0.80864930942E+03  0.00000000000E+00 0.  1.
         23    2    1    2    0    0  0.14692593129E+03  0.23595553038E+03  0.15629624398E+04  0.15903365969E+04  0.95166494601E+02 0.  0.
        254    2    1    2    0    0 -0.14692593129E+03 -0.23595553038E+03 -0.51910873454E+03  0.10708157272E+04  0.89437699080E+03 0.  0.
         23    2    4    4    0    0 -0.45040066380E+02 -0.56827281468E+03 -0.29767689068E+03  0.64924426994E+03  0.89129071148E+02 0.  0.
         23    2    4    4    0    0 -0.10188586491E+03  0.33231728430E+03 -0.22143184386E+03  0.42157145723E+03  0.88740775100E+02 0.  0.
         13    1    3    3    0    0  0.12321850438E+03  0.23189655493E+03  0.15023254488E+04  0.15251034608E+04  0.00000000000E+00 0. -1.
        -13    1    3    3    0    0  0.23707426908E+02  0.40589754575E+01  0.60636990996E+02  0.65233136130E+02  0.00000000000E+00 0.  1.
          4    1    5    5  502    0 -0.40938896001E+02 -0.56474320948E+03 -0.28180468149E+03  0.63247510968E+03  0.00000000000E+00 0. -1.
          1    1    6    6  503    0 -0.50400140879E+02  0.26976199870E+03 -0.14588634984E+03  0.31079661712E+03  0.00000000000E+00 0. -1.
         -4    1    5    5    0  502 -0.41011703784E+01 -0.35296052019E+01 -0.15872209184E+02  0.16769160257E+02  0.00000000000E+00 0.  1.
         -1    1    6    6    0  503 -0.51485724029E+02  0.62555285596E+02 -0.75545494016E+02  0.11077484011E+03  0.00000000000E+00 0.  1.
<mgrwt>
<rscale>  0 0.24478769E+04</rscale>
<asrwt>0</asrwt>
<pdfrwt beam="1">  1        1 0.28500046E+00 0.24478769E+04</pdfrwt>
<pdfrwt beam="2">  1       -1 0.12440759E+00 0.24478769E+04</pdfrwt>
<totfact> 0.18962675E+00</totfact>
</mgrwt>
</event>
<event>
12    1  0.4802930E-008  0.1339817E+04  0.7818608E-02  0.8998573E-01
          2   -1    0    0  501    0  0.00000000000E+00  0.00000000000E+00  0.13485539880E+04  0.13485539880E+04  0.00000000000E+00 0.  1.
         -2   -1    0    0    0  501 -0.00000000000E+00 -0.00000000000E+00 -0.33278414250E+03  0.33278414250E+03  0.00000000000E+00 0. -1.
         23    2    1    2    0    0  0.30476501694E+03  0.12636678169E+02  0.10818211127E+03  0.33631089988E+03  0.91434408164E+02 0.  0.
        254    2    1    2    0    0 -0.30476501694E+03 -0.12636678169E+02  0.90758773420E+03  0.13450272306E+04  0.94463821358E+03 0.  0.
         23    2    4    4    0    0 -0.10794319117E+02  0.20520590144E+03  0.93997784336E+03  0.96636367117E+03  0.89857774506E+02 0.  0.
         23    2    4    4    0    0 -0.29397069782E+03 -0.21784257961E+03 -0.32390109164E+02  0.37866355941E+03  0.91993539899E+02 0.  0.
         13    1    3    3    0    0  0.23455480882E+03  0.43269119562E+01  0.39791907495E+02  0.23794553245E+03  0.00000000000E+00 0.  1.
        -13    1    3    3    0    0  0.70210208114E+02  0.83097662127E+01  0.68390203779E+02  0.98365367436E+02  0.00000000000E+00 0. -1.
          4    1    5    5  502    0  0.71974675434E+01 -0.71826188541E+01  0.27454847041E+02  0.29277332165E+02  0.00000000000E+00 0. -1.
          3    1    6    6  503    0 -0.56138838706E+01 -0.43889578562E+01  0.15169875818E+02  0.16760184233E+02  0.00000000000E+00 0. -1.
         -4    1    5    5    0  502 -0.17991786660E+02  0.21238852030E+03  0.91252299632E+03  0.93708633901E+03  0.00000000000E+00 0.  1.
         -3    1    6    6    0  503 -0.28835681395E+03 -0.21345362175E+03 -0.47559984982E+02  0.36190337517E+03  0.00000000000E+00 0.  1.
<mgrwt>
<rscale>  0 0.13398170E+04</rscale>
<asrwt>0</asrwt>
<pdfrwt beam="1">  1        2 0.20746984E+00 0.13398170E+04</pdfrwt>
<pdfrwt beam="2">  1       -2 0.51197561E-01 0.13398170E+04</pdfrwt>
<totfact> 0.54579771E+01</totfact>
</mgrwt>
</event>
<event>
12    1  0.4802930E-008  0.1325044E+04  0.7818608E-02  0.9009937E-01
          1   -1    0    0  501    0  0.00000000000E+00  0.00000000000E+00  0.64928821556E+03  0.64928821556E+03  0.00000000000E+00 0. -1.
         -1   -1    0    0    0  501 -0.00000000000E+00 -0.00000000000E+00 -0.67602600203E+03  0.67602600203E+03  0.00000000000E+00 0.  1.
         23    2    1    2    0    0 -0.29162146937E+03  0.61285964000E+02  0.17376050411E+03  0.35643965570E+03  0.89763381094E+02 0.  0.
        254    2    1    2    0    0  0.29162146937E+03 -0.61285964000E+02 -0.20049829058E+03  0.96887456189E+03  0.89984404280E+03 0.  0.
         23    2    4    4    0    0  0.19161584885E+03 -0.88501745683E+02 -0.54935798321E+03  0.59550876410E+03  0.91034619151E+02 0.  0.
         23    2    4    4    0    0  0.10000562053E+03  0.27215781683E+02  0.34885969263E+03  0.37336579778E+03  0.83409297454E+02 0.  0.
         13    1    3    3    0    0 -0.13900585640E+03  0.53420907594E+02  0.12947858451E+03  0.19733505853E+03  0.00000000000E+00 0.  1.
        -13    1    3    3    0    0 -0.15261561298E+03  0.78650564061E+01  0.44281919608E+02  0.15910459717E+03  0.00000000000E+00 0. -1.
          4    1    5    5  502    0  0.97714784339E+02 -0.87839045502E+02 -0.26032224774E+03  0.29160169695E+03  0.00000000000E+00 0. -1.
          3    1    6    6  503    0  0.52467142320E+02  0.31153229789E+02  0.29575024695E+03  0.30197935909E+03  0.00000000000E+00 0. -1.
         -4    1    5    5    0  502  0.93901064507E+02 -0.66270018099E+00 -0.28903573547E+03  0.30390706715E+03  0.00000000000E+00 0.  1.
         -3    1    6    6    0  503  0.47538478208E+02 -0.39374481063E+01  0.53109445685E+02  0.71386438690E+02  0.00000000000E+00 0.  1.
<mgrwt>
<rscale>  0 0.13250445E+04</rscale>
<asrwt>0</asrwt>
<pdfrwt beam="1">  1        1 0.99890494E-01 0.13250445E+04</pdfrwt>
<pdfrwt beam="2">  1       -1 0.10400400E+00 0.13250445E+04</pdfrwt>
<totfact> 0.26054515E+01</totfact>
</mgrwt>
</event>
<event>
12    1  0.4802930E-008  0.1184054E+04  0.7818608E-02  0.9126929E-01
          2   -1    0    0  501    0  0.00000000000E+00  0.00000000000E+00  0.36618243265E+03  0.36618243265E+03  0.00000000000E+00 0. -1.
         -2   -1    0    0    0  501 -0.00000000000E+00 -0.00000000000E+00 -0.95716284867E+03  0.95716284867E+03  0.00000000000E+00 0.  1.
         23    2    1    2    0    0  0.11993229208E+03 -0.39693346288E+02  0.98711813883E+02  0.17996558176E+03  0.81757397194E+02 0.  0.
        254    2    1    2    0    0 -0.11993229208E+03  0.39693346288E+02 -0.68969222991E+03  0.11433796996E+04  0.90315139868E+03 0.  0.
         23    2    4    4    0    0  0.19436179022E+03 -0.21481275703E+03 -0.66168613163E+03  0.72782347335E+03  0.89316546549E+02 0.  0.
         23    2    4    4    0    0 -0.31429408230E+03  0.25450610332E+03 -0.28006098278E+02  0.41555622621E+03  0.91370174589E+02 0.  0.
         13    1    3    3    0    0  0.12408320654E+03 -0.19164912288E+02  0.97537139446E+02  0.15898877186E+03  0.00000000000E+00 0. -1.
        -13    1    3    3    0    0 -0.41509144606E+01 -0.20528434000E+02  0.11746744366E+01  0.20976809896E+02  0.00000000000E+00 0.  1.
          2    1    5    5  502    0  0.31103932665E+01 -0.33829912800E+02 -0.38807611685E+02  0.51576819124E+02  0.00000000000E+00 0.  1.
          4    1    6    6  503    0 -0.26787768120E+03  0.25172867769E+03 -0.31399145912E+02  0.36893317230E+03  0.00000000000E+00 0. -1.
         -2    1    5    5    0  502  0.19125139695E+03 -0.18098284423E+03 -0.62287851995E+03  0.67624665423E+03  0.00000000000E+00 0. -1.
         -4    1    6    6    0  503 -0.46416401094E+02  0.27774256326E+01  0.33930476340E+01  0.46623053910E+02  0.00000000000E+00 0.  1.
<mgrwt>
<rscale>  0 0.11840544E+04</rscale>
<asrwt>0</asrwt>
<pdfrwt beam="1">  1        2 0.56335759E-01 0.11840544E+04</pdfrwt>
<pdfrwt beam="2">  1       -2 0.14725582E+00 0.11840544E+04</pdfrwt>
<totfact> 0.27269141E+01</totfact>
</mgrwt>
</event>
<event>
12    1  0.4802930E-008  0.1487320E+04  0.7818608E-02  0.8892929E-01
         -2   -1    0    0    0  501 -0.00000000000E+00  0.00000000000E+00  0.95248660149E+03  0.95248660149E+03  0.00000000000E+00 0.  1.
          2   -1    0    0  501    0  0.00000000000E+00 -0.00000000000E+00 -0.58061717170E+03  0.58061717170E+03  0.00000000000E+00 0. -1.
         23    2    1    2    0    0 -0.36864120181E+02 -0.22462446063E+03  0.51138787667E+03  0.56753650052E+03  0.93621617912E+02 0.  0.
        254    2    1    2    0    0  0.36864120181E+02  0.22462446063E+03 -0.13951844689E+03  0.96556727267E+03  0.92792222162E+03 0.  0.
         23    2    4    4    0    0  0.32341188702E+03  0.17322768960E+03 -0.40949592904E+03  0.55749406300E+03  0.92247673502E+02 0.  0.
         23    2    4    4    0    0 -0.28654776684E+03  0.51396771024E+02  0.26997748215E+03  0.40807320968E+03  0.94258436439E+02 0.  0.
         11    1    3    3    0    0 -0.21559104833E+02 -0.80739001921E+02  0.29961199269E+03  0.31104811139E+03  0.00000000000E+00 0.  1.
        -11    1    3    3    0    0 -0.15305015347E+02 -0.14388545871E+03  0.21177588398E+03  0.25648838913E+03  0.00000000000E+00 0. -1.
          4    1    5    5  502    0  0.16363327712E+03  0.13127339038E+03 -0.19204686801E+03  0.28441264373E+03  0.00000000000E+00 0. -1.
          1    1    6    6  503    0 -0.93941450655E+02 -0.21478294097E+02  0.57693909634E+02  0.11231607399E+03  0.00000000000E+00 0. -1.
         -4    1    5    5    0  502  0.15977860990E+03  0.41954299224E+02 -0.21744906103E+03  0.27308141927E+03  0.00000000000E+00 0.  1.
         -1    1    6    6    0  503 -0.19260631618E+03  0.72875065121E+02  0.21228357252E+03  0.29575713569E+03  0.00000000000E+00 0.  1.
<mgrwt>
<rscale>  0 0.14873198E+04</rscale>
<asrwt>0</asrwt>
<pdfrwt beam="1">  1        2 0.89325719E-01 0.14873198E+04</pdfrwt>
<pdfrwt beam="2">  1       -2 0.14653640E+00 0.14873198E+04</pdfrwt>
<totfact> 0.15893886E+01</totfact>
</mgrwt>
</event>
<event>
12    1  0.4802930E-008  0.1290262E+04  0.7818608E-02  0.9037324E-01
          2   -1    0    0  501    0  0.00000000000E+00  0.00000000000E+00  0.13285688368E+04  0.13285688368E+04  0.00000000000E+00 0. -1.
         -2   -1    0    0    0  501 -0.00000000000E+00 -0.00000000000E+00 -0.31326473017E+03  0.31326473017E+03  0.00000000000E+00 0.  1.
         23    2    1    2    0    0 -0.73565361061E+02 -0.76905245430E+02  0.65638446472E+03  0.67129651218E+03  0.92044351354E+02 0.  0.
        254    2    1    2    0    0  0.73565361061E+02  0.76905245430E+02  0.35891964196E+03  0.97053705484E+03  0.89542871648E+03 0.  0.
         23    2    4    4    0    0  0.38152734025E+03  0.28497549934E+03  0.33203250672E+03  0.58763970103E+03  0.91108101363E+02 0.  0.
         23    2    4    4    0    0 -0.30796197919E+03 -0.20807025391E+03  0.26887135236E+02  0.38289735380E+03  0.88054837012E+02 0.  0.
         11    1    3    3    0    0 -0.83639387000E+02 -0.85369521650E+02  0.63529587685E+03  0.64643975236E+03  0.00000000000E+00 0. -1.
        -11    1    3    3    0    0  0.10074025938E+02  0.84642762201E+01  0.21088587869E+02  0.24856759822E+02  0.00000000000E+00 0.  1.
          2    1    5    5  502    0  0.29215295307E+03  0.25470088648E+03  0.24029961406E+03  0.45603705341E+03  0.00000000000E+00 0. -1.
          1    1    6    6  503    0 -0.24353774754E+03 -0.12772241426E+03  0.44010043246E+02  0.27849691828E+03  0.00000000000E+00 0. -1.
         -2    1    5    5    0  502  0.89374387176E+02  0.30274612856E+02  0.91732892661E+02  0.13160264763E+03  0.00000000000E+00 0.  1.
         -1    1    6    6    0  503 -0.64424231642E+02 -0.80347839651E+02 -0.17122908010E+02  0.10440043553E+03  0.00000000000E+00 0.  1.
<mgrwt>
<rscale>  0 0.12902616E+04</rscale>
<asrwt>0</asrwt>
<pdfrwt beam="1">  1        2 0.20439520E+00 0.12902616E+04</pdfrwt>
<pdfrwt beam="2">  1       -2 0.48194575E-01 0.12902616E+04</pdfrwt>
<totfact> 0.63625187E+01</totfact>
</mgrwt>
</event>
<event>
12    1  0.4802930E-008  0.3516859E+04  0.7818608E-02  0.8109806E-01
          3   -1    0    0  501    0  0.00000000000E+00  0.00000000000E+00  0.11201381266E+04  0.11201381266E+04  0.00000000000E+00 0. -1.
         -3   -1    0    0    0  501 -0.00000000000E+00 -0.00000000000E+00 -0.27604404466E+04  0.27604404466E+04  0.00000000000E+00 0.  1.
         23    2    1    2    0    0 -0.96591212487E+02 -0.55788159118E+03 -0.24709186455E+04  0.25366195514E+04  0.91858933947E+02 0.  0.
        254    2    1    2    0    0  0.96591212487E+02  0.55788159118E+03  0.83061632553E+03  0.13439590219E+04  0.89204295866E+03 0.  0.
         23    2    4    4    0    0 -0.35049134441E+03  0.46619830262E+03  0.45515331764E+03  0.74564873486E+03  0.92964796310E+02 0.  0.
         23    2    4    4    0    0  0.44708255690E+03  0.91683288558E+02  0.37546300788E+03  0.59831028700E+03  0.93349296528E+02 0.  0.
         13    1    3    3    0    0 -0.83194232940E+00  0.33180254854E+00 -0.62373142308E+02  0.62379572797E+02  0.00000000000E+00 0. -1.
        -13    1    3    3    0    0 -0.95759270157E+02 -0.55821339373E+03 -0.24085455032E+04  0.24742399786E+04  0.00000000000E+00 0.  1.
          1    1    5    5  502    0 -0.32222719582E+03  0.37999392334E+03  0.36384724326E+03  0.61693643426E+03  0.00000000000E+00 0. -1.
          1    1    6    6  503    0  0.24648151464E+03  0.45314322204E+01  0.21404267194E+03  0.32647807943E+03  0.00000000000E+00 0. -1.
         -1    1    5    5    0  502 -0.28264148599E+02  0.86204379285E+02  0.91306074383E+02  0.12871230059E+03  0.00000000000E+00 0.  1.
         -1    1    6    6    0  503  0.20060104226E+03  0.87151856338E+02  0.16142033594E+03  0.27183220757E+03  0.00000000000E+00 0.  1.
<mgrwt>
<rscale>  0 0.35168592E+04</rscale>
<asrwt>0</asrwt>
<pdfrwt beam="1">  1        3 0.17232894E+00 0.35168592E+04</pdfrwt>
<pdfrwt beam="2">  1       -3 0.42468315E+00 0.35168592E+04</pdfrwt>
<totfact> 0.36726603E-03</totfact>
</mgrwt>
</event>
<event>
12    1  0.4802930E-008  0.1270014E+04  0.7818608E-02  0.9053688E-01
          1   -1    0    0  501    0  0.00000000000E+00  0.00000000000E+00  0.11478267012E+04  0.11478267012E+04  0.00000000000E+00 0.  1.
         -1   -1    0    0    0  501 -0.00000000000E+00 -0.00000000000E+00 -0.35130224099E+03  0.35130224099E+03  0.00000000000E+00 0. -1.
         23    2    1    2    0    0 -0.12192491756E+03  0.28121504640E+03  0.20327675885E+03  0.37909739484E+03  0.91901067696E+02 0.  0.
        254    2    1    2    0    0  0.12192491756E+03 -0.28121504640E+03  0.59324770132E+03  0.11200315473E+04  0.89921090073E+03 0.  0.
         23    2    4    4    0    0 -0.34287922380E+03  0.33215278586E+02  0.10770006974E+03  0.37227572648E+03  0.91216745526E+02 0.  0.
         23    2    4    4    0    0  0.46480414136E+03 -0.31443032499E+03  0.48554763158E+03  0.74775582082E+03  0.92048606430E+02 0.  0.
         11    1    3    3    0    0 -0.36567952179E+02  0.52654101582E+02  0.88991672113E+02  0.10967765153E+03  0.00000000000E+00 0.  1.
        -11    1    3    3    0    0 -0.85356965380E+02  0.22856094482E+03  0.11428508674E+03  0.26941974331E+03  0.00000000000E+00 0. -1.
          1    1    5    5  502    0 -0.10150730778E+02  0.20684094848E+01 -0.13302592763E+02  0.16860445645E+02  0.00000000000E+00 0. -1.
          3    1    6    6  503    0  0.72158389388E+02 -0.86644863290E+02  0.12253284962E+03  0.16651866180E+03  0.00000000000E+00 0. -1.
         -1    1    5    5    0  502 -0.33272849302E+03  0.31146869102E+02  0.12100266250E+03  0.35541528084E+03  0.00000000000E+00 0.  1.
         -3    1    6    6    0  503  0.39264575197E+03 -0.22778546170E+03  0.36301478196E+03  0.58123715902E+03  0.00000000000E+00 0.  1.
<mgrwt>
<rscale>  0 0.12700143E+04</rscale>
<asrwt>0</asrwt>
<pdfrwt beam="1">  1        1 0.17658872E+00 0.12700143E+04</pdfrwt>
<pdfrwt beam="2">  1       -1 0.54046499E-01 0.12700143E+04</pdfrwt>
<totfact> 0.39732015E+01</totfact>
</mgrwt>
</event>
<event>
12    1  0.4802930E-008  0.3782465E+04  0.7818608E-02  0.8049928E-01
         -2   -1    0    0    0  501 -0.00000000000E+00  0.00000000000E+00  0.22487242423E+04  0.22487242423E+04  0.00000000000E+00 0.  1.
          2   -1    0    0  501    0  0.00000000000E+00 -0.00000000000E+00 -0.15905734506E+04  0.15905734506E+04  0.00000000000E+00 0. -1.
         23    2    1    2    0    0  0.15373582189E+03  0.11839228950E+04 -0.10378646614E+04  0.15845994869E+04  0.92110554402E+02 0.  0.
        254    2    1    2    0    0 -0.15373582189E+03 -0.11839228950E+04  0.16960154531E+04  0.22546982059E+04  0.88424400373E+03 0.  0.
         23    2    4    4    0    0 -0.45859628888E+03 -0.46512015344E+03  0.51894176116E+03  0.83931424903E+03  0.92198393946E+02 0.  0.
         23    2    4    4    0    0  0.30486046699E+03 -0.71880274160E+03  0.11770736920E+04  0.14153839569E+04  0.90509576220E+02 0.  0.
         11    1    3    3    0    0  0.14514256196E+03  0.80662376492E+03 -0.69063431585E+03  0.10717667748E+04  0.00000000000E+00 0. -1.
        -11    1    3    3    0    0  0.85932599265E+01  0.37729913012E+03 -0.34723034557E+03  0.51283271209E+03  0.00000000000E+00 0.  1.
          1    1    5    5  502    0 -0.37121239495E+03 -0.36792483920E+03  0.45871515986E+03  0.69540414677E+03  0.00000000000E+00 0. -1.
          3    1    6    6  503    0  0.17085421708E+03 -0.29057517096E+03  0.48841438673E+03  0.59344225215E+03  0.00000000000E+00 0. -1.
         -1    1    5    5    0  502 -0.87383893929E+02 -0.97195314237E+02  0.60226601298E+02  0.14391010226E+03  0.00000000000E+00 0.  1.
         -3    1    6    6    0  503  0.13400624990E+03 -0.42822757065E+03  0.68865930524E+03  0.82194170472E+03  0.00000000000E+00 0.  1.
<mgrwt>
<rscale>  0 0.37824654E+04</rscale>
<asrwt>0</asrwt>
<pdfrwt beam="1">  1        2 0.24470361E+00 0.37824654E+04</pdfrwt>
<pdfrwt beam="2">  1       -2 0.34595757E+00 0.37824654E+04</pdfrwt>
<totfact> 0.14948760E-01</totfact>
</mgrwt>
</event>
<event>
12    1  0.4802930E-008  0.1061189E+04  0.7818608E-02  0.9243868E-01
          2   -1    0    0  501    0  0.00000000000E+00  0.00000000000E+00  0.13925774979E+04  0.13925774979E+04  0.00000000000E+00 0. -1.
         -2   -1    0    0    0  501 -0.00000000000E+00 -0.00000000000E+00 -0.20216501378E+03  0.20216501378E+03  0.00000000000E+00 0.  1.
         23    2    1    2    0    0  0.57584855039E+02 -0.10592890812E+03  0.10784274744E+03  0.18459978514E+03  0.88938593394E+02 0.  0.
        254    2    1    2    0    0 -0.57584855039E+02  0.10592890812E+03  0.10825697367E+04  0.14101427266E+04  0.89554917526E+03 0.  0.
         23    2    4    4    0    0 -0.43366890157E+03 -0.10300482897E+03  0.64671997762E+03  0.79075785281E+03  0.91501592064E+02 0.  0.
         23    2    4    4    0    0  0.37608404653E+03  0.20893373709E+03  0.43584975909E+03  0.61938487374E+03  0.92628790224E+02 0.  0.
         11    1    3    3    0    0  0.83258676448E+01 -0.54238087831E+02  0.98277252615E+02  0.11255891180E+03  0.00000000000E+00 0. -1.
        -11    1    3    3    0    0  0.49258987394E+02 -0.51690820285E+02  0.95654948216E+01  0.72040873343E+02  0.00000000000E+00 0.  1.
          3    1    5    5  502    0 -0.11289509073E+03  0.12892772575E+02  0.17490796793E+03  0.20857689791E+03  0.00000000000E+00 0. -1.
          3    1    6    6  503    0  0.31769666045E+02  0.37749475223E+02  0.87920398666E+02  0.10081830718E+03  0.00000000000E+00 0. -1.
         -3    1    5    5    0  502 -0.32077381084E+03 -0.11589760154E+03  0.47181200969E+03  0.58218095490E+03  0.00000000000E+00 0.  1.
         -3    1    6    6    0  503  0.34431438048E+03  0.17118426186E+03  0.34792936042E+03  0.51856656657E+03  0.00000000000E+00 0.  1.
<mgrwt>
<rscale>  0 0.10611889E+04</rscale>
<asrwt>0</asrwt>
<pdfrwt beam="1">  1        2 0.21424269E+00 0.10611889E+04</pdfrwt>
<pdfrwt beam="2">  1       -2 0.31102311E-01 0.10611889E+04</pdfrwt>
<totfact> 0.13921812E+02</totfact>
</mgrwt>
</event>
<event>
12    1  0.4802930E-008  0.1658819E+04  0.7818608E-02  0.8785206E-01
         -1   -1    0    0    0  501 -0.00000000000E+00  0.00000000000E+00  0.31413359009E+03  0.31413359009E+03  0.00000000000E+00 0.  1.
          1   -1    0    0  501    0  0.00000000000E+00 -0.00000000000E+00 -0.21898958630E+04  0.21898958630E+04  0.00000000000E+00 0. -1.
         23    2    1    2    0    0 -0.21658762196E+03 -0.45745320076E+03 -0.10976137770E+04  0.12119358781E+04  0.88650664284E+02 0.  0.
        254    2    1    2    0    0  0.21658762196E+03  0.45745320076E+03 -0.77814849598E+03  0.12920935751E+04  0.89878645743E+03 0.  0.
         23    2    4    4    0    0 -0.11419753068E+03  0.41194635122E+03 -0.83394819476E+03  0.94143192690E+03  0.89908893535E+02 0.  0.
         23    2    4    4    0    0  0.33078515264E+03  0.45506849542E+02  0.55799698786E+02  0.35066164817E+03  0.91434646324E+02 0.  0.
         13    1    3    3    0    0 -0.59105989125E+02 -0.22770915367E+03 -0.49424675055E+03  0.54737996587E+03  0.00000000000E+00 0.  1.
        -13    1    3    3    0    0 -0.15748163283E+03 -0.22974404709E+03 -0.60336702642E+03  0.66455591219E+03  0.00000000000E+00 0. -1.
          2    1    5    5  502    0 -0.95334468936E+01  0.95618723666E+02 -0.12138602907E+03  0.15481729548E+03  0.00000000000E+00 0. -1.
          2    1    6    6  503    0  0.15258577966E+02  0.11277091898E+01 -0.17970059272E+02  0.23601249116E+02  0.00000000000E+00 0. -1.
         -2    1    5    5    0  502 -0.10466408379E+03  0.31632762755E+03 -0.71256216569E+03  0.78661463142E+03  0.00000000000E+00 0.  1.
         -2    1    6    6    0  503  0.31552657468E+03  0.44379140352E+02  0.73769758058E+02  0.32706039905E+03  0.00000000000E+00 0.  1.
<mgrwt>
<rscale>  0 0.16588187E+04</rscale>
<asrwt>0</asrwt>
<pdfrwt beam="1">  1        1 0.33690707E+00 0.16588187E+04</pdfrwt>
<pdfrwt beam="2">  1       -1 0.48328243E-01 0.16588187E+04</pdfrwt>
<totfact> 0.90565641E+00</totfact>
</mgrwt>
</event>
<event>
12    1  0.4802930E-008  0.1360969E+04  0.7818608E-02  0.8982566E-01
          1   -1    0    0  501    0  0.00000000000E+00  0.00000000000E+00  0.10589105828E+04  0.10589105828E+04  0.00000000000E+00 0. -1.
         -1   -1    0    0    0  501 -0.00000000000E+00 -0.00000000000E+00 -0.43729752683E+03  0.43729752683E+03  0.00000000000E+00 0.  1.
         23    2    1    2    0    0 -0.28765752341E+03  0.22481260337E+03  0.29185041802E+03  0.47622624819E+03  0.91253578337E+02 0.  0.
        254    2    1    2    0    0  0.28765752341E+03 -0.22481260337E+03  0.32976263794E+03  0.10199818614E+04  0.89349428808E+03 0.  0.
         23    2    4    4    0    0  0.22679156501E+03  0.14287142259E+03 -0.21465374696E+03  0.35404707440E+03  0.86176809257E+02 0.  0.
         23    2    4    4    0    0  0.60865958400E+02 -0.36768402596E+03  0.54441638490E+03  0.66593478702E+03  0.90463985009E+02 0.  0.
         11    1    3    3    0    0 -0.27768887282E+03  0.21704761796E+03  0.29857031295E+03  0.46191450543E+03  0.00000000000E+00 0. -1.
        -11    1    3    3    0    0 -0.99686505895E+01  0.77649854100E+01 -0.67198949309E+01  0.14311742762E+02  0.00000000000E+00 0.  1.
          2    1    5    5  502    0  0.13481640487E+03  0.55224609821E+02 -0.70351719125E+02  0.16178561412E+03  0.00000000000E+00 0. -1.
          1    1    6    6  503    0  0.11508021562E+01  0.54175509610E+01  0.10042666686E+02  0.11468624947E+02  0.00000000000E+00 0. -1.
         -2    1    5    5    0  502  0.91975160135E+02  0.87646812770E+02 -0.14430202783E+03  0.19226146028E+03  0.00000000000E+00 0.  1.
         -1    1    6    6    0  503  0.59715156243E+02 -0.37310157693E+03  0.53437371821E+03  0.65446616208E+03  0.00000000000E+00 0.  1.
<mgrwt>
<rscale>  0 0.13609687E+04</rscale>
<asrwt>0</asrwt>
<pdfrwt beam="1">  1        1 0.16290932E+00 0.13609687E+04</pdfrwt>
<pdfrwt beam="2">  1       -1 0.67276543E-01 0.13609687E+04</pdfrwt>
<totfact> 0.29819397E+01</totfact>
</mgrwt>
</event>
<event>
12    1  0.4802930E-008  0.1363907E+04  0.7818608E-02  0.8980367E-01
         -1   -1    0    0    0  501 -0.00000000000E+00  0.00000000000E+00  0.61032842910E+03  0.61032842910E+03  0.00000000000E+00 0.  1.
          1   -1    0    0  501    0  0.00000000000E+00 -0.00000000000E+00 -0.76198359854E+03  0.76198359854E+03  0.00000000000E+00 0. -1.
         23    2    1    2    0    0  0.83679361579E+02  0.25062090774E+03  0.21492248163E+03  0.35268743971E+03  0.91562449002E+02 0.  0.
        254    2    1    2    0    0 -0.83679361579E+02 -0.25062090774E+03 -0.36657765107E+03  0.10196245879E+04  0.91402519172E+03 0.  0.
         23    2    4    4    0    0  0.29459007900E+03  0.51603593551E+02 -0.41916901190E+03  0.52441606861E+03  0.99314183118E+02 0.  0.
         23    2    4    4    0    0 -0.37826944058E+03 -0.30222450129E+03  0.52591360832E+02  0.49520851932E+03  0.89656051193E+02 0.  0.
         13    1    3    3    0    0  0.46705352694E+02  0.80755593562E+02  0.27955508603E+02  0.97387711356E+02  0.00000000000E+00 0. -1.
        -13    1    3    3    0    0  0.36974008885E+02  0.16986531418E+03  0.18696697303E+03  0.25529972836E+03  0.00000000000E+00 0.  1.
          2    1    5    5  502    0  0.34641792648E+02 -0.13563973520E+02 -0.16448236365E+02  0.40676524618E+02  0.00000000000E+00 0. -1.
          1    1    6    6  503    0 -0.16605851725E+02 -0.30394832727E+02 -0.15026824442E+02  0.37754544373E+02  0.00000000000E+00 0. -1.
         -2    1    5    5    0  502  0.25994828635E+03  0.65167567071E+02 -0.40272077554E+03  0.48373954400E+03  0.00000000000E+00 0.  1.
         -1    1    6    6    0  503 -0.36166358885E+03 -0.27182966857E+03  0.67618185273E+02  0.45745397495E+03  0.00000000000E+00 0.  1.
<mgrwt>
<rscale>  0 0.13639065E+04</rscale>
<asrwt>0</asrwt>
<pdfrwt beam="1">  1        1 0.11722825E+00 0.13639065E+04</pdfrwt>
<pdfrwt beam="2">  1       -1 0.93896681E-01 0.13639065E+04</pdfrwt>
<totfact> 0.25689369E+01</totfact>
</mgrwt>
</event>
<event>
12    1  0.4802930E-008  0.1309280E+04  0.7818608E-02  0.9022239E-01
         -2   -1    0    0    0  501 -0.00000000000E+00  0.00000000000E+00  0.11653897866E+04  0.11653897866E+04  0.00000000000E+00 0.  1.
          2   -1    0    0  501    0  0.00000000000E+00 -0.00000000000E+00 -0.36773387140E+03  0.36773387140E+03  0.00000000000E+00 0. -1.
         23    2    1    2    0    0  0.26169185011E+03 -0.21033891275E+03  0.18501422245E+03  0.39976782093E+03  0.11339737878E+03 0.  0.
        254    2    1    2    0    0 -0.26169185011E+03  0.21033891275E+03  0.61264169277E+03  0.11333558371E+04  0.89243516690E+03 0.  0.
         23    2    4    4    0    0  0.41643517185E+02 -0.18234035607E+03 -0.12415542558E+03  0.24035000201E+03  0.85856658401E+02 0.  0.
         23    2    4    4    0    0 -0.30333536730E+03  0.39267926881E+03  0.73679711835E+03  0.89300583508E+03  0.91542747712E+02 0.  0.
         11    1    3    3    0    0  0.23835991837E+03 -0.16500261372E+03  0.19284563338E+03  0.34818206664E+03  0.00000000000E+00 0.  1.
        -11    1    3    3    0    0  0.23331931745E+02 -0.45336299025E+02 -0.78314109312E+01  0.51585754288E+02  0.00000000000E+00 0. -1.
          4    1    5    5  502    0 -0.12091808536E+02 -0.91526772612E+02 -0.91276095043E+02  0.12982560404E+03  0.00000000000E+00 0. -1.
          3    1    6    6  503    0 -0.22580391052E+03  0.33225777506E+03  0.63573929849E+03  0.75202865022E+03  0.00000000000E+00 0. -1.
         -4    1    5    5    0  502  0.53735325721E+02 -0.90813583453E+02 -0.32879330541E+02  0.11052439797E+03  0.00000000000E+00 0.  1.
         -3    1    6    6    0  503 -0.77531456771E+02  0.60421493747E+02  0.10105781986E+03  0.14097718486E+03  0.00000000000E+00 0.  1.
<mgrwt>
<rscale>  0 0.13092796E+04</rscale>
<asrwt>0</asrwt>
<pdfrwt beam="1">  1        2 0.56574442E-01 0.13092796E+04</pdfrwt>
<pdfrwt beam="2">  1       -2 0.17929073E+00 0.13092796E+04</pdfrwt>
<totfact> 0.15685741E+01</totfact>
</mgrwt>
</event>
<event>
12    1  0.4802930E-008  0.1198326E+04  0.7818608E-02  0.9114323E-01
         -1   -1    0    0    0  501 -0.00000000000E+00  0.00000000000E+00  0.17196494884E+03  0.17196494884E+03  0.00000000000E+00 0.  1.
          1   -1    0    0  501    0  0.00000000000E+00 -0.00000000000E+00 -0.20876140488E+04  0.20876140488E+04  0.00000000000E+00 0. -1.
         23    2    1    2    0    0  0.12574688914E+03 -0.17433490417E+03 -0.21931635162E+03  0.32055363927E+03  0.91924069856E+02 0.  0.
        254    2    1    2    0    0 -0.12574688914E+03  0.17433490417E+03 -0.16963327484E+04  0.19390253584E+04  0.91436842051E+03 0.  0.
         23    2    4    4    0    0  0.60096230929E+02  0.32400038887E+03 -0.15359306013E+03  0.37522745103E+03  0.92827813311E+02 0.  0.
         23    2    4    4    0    0 -0.18584312006E+03 -0.14966548470E+03 -0.15427396882E+04  0.15637979074E+04  0.92090862030E+02 0.  0.
         13    1    3    3    0    0  0.13429521699E+03 -0.17485672642E+03 -0.19347567262E+03  0.29333072798E+03  0.00000000000E+00 0.  1.
        -13    1    3    3    0    0 -0.85483278530E+01  0.52182225255E+00 -0.25840679009E+02  0.27222911292E+02  0.00000000000E+00 0. -1.
          2    1    6    6  502    0 -0.17057457142E+03 -0.15118543306E+03 -0.15154085136E+04  0.15324541372E+04  0.00000000000E+00 0. -1.
          2    1    5    5  503    0 -0.14244352146E+00  0.23362217471E+03 -0.10937613625E+03  0.25795829118E+03  0.00000000000E+00 0. -1.
         -2    1    5    5    0  503  0.60238674451E+02  0.90378214162E+02 -0.44216923875E+02  0.11726915985E+03  0.00000000000E+00 0.  1.
         -2    1    6    6    0  502 -0.15268548649E+02  0.15199483550E+01 -0.27331174643E+02  0.31343770166E+02  0.00000000000E+00 0.  1.
<mgrwt>
<rscale>  0 0.11983262E+04</rscale>
<asrwt>0</asrwt>
<pdfrwt beam="1">  1        1 0.32117139E+00 0.11983262E+04</pdfrwt>
<pdfrwt beam="2">  1       -1 0.26456146E-01 0.11983262E+04</pdfrwt>
<totfact> 0.32759001E+01</totfact>
</mgrwt>
</event>
<event>
12    1  0.4802930E-008  0.1577347E+04  0.7818608E-02  0.8834587E-01
          2   -1    0    0  501    0  0.00000000000E+00  0.00000000000E+00  0.20918649154E+04  0.20918649154E+04  0.00000000000E+00 0. -1.
         -2   -1    0    0    0  501 -0.00000000000E+00 -0.00000000000E+00 -0.29734498422E+03  0.29734498422E+03  0.00000000000E+00 0.  1.
         23    2    1    2    0    0 -0.22277296086E+03 -0.47131252048E+03  0.58185815953E+03  0.78649766397E+03  0.90864589137E+02 0.  0.
        254    2    1    2    0    0  0.22277296086E+03  0.47131252048E+03  0.12126617717E+04  0.16027122357E+04  0.90905151330E+03 0.  0.
         23    2    4    4    0    0  0.18950467249E+03  0.44597739118E+03  0.13482745014E+04  0.14357162854E+04  0.92893845794E+02 0.  0.
         23    2    4    4    0    0  0.33268288376E+02  0.25335129303E+02 -0.13561272975E+03  0.16699595029E+03  0.88023787441E+02 0.  0.
         13    1    3    3    0    0 -0.20286768089E+03 -0.37690995015E+03  0.51216570123E+03  0.66748042068E+03  0.00000000000E+00 0. -1.
        -13    1    3    3    0    0 -0.19905279971E+02 -0.94402570334E+02  0.69692458301E+02  0.11901724329E+03  0.00000000000E+00 0.  1.
          1    1    5    5  502    0  0.18806854037E+03  0.36353328753E+03  0.10754584264E+04  0.11507115425E+04  0.00000000000E+00 0. -1.
          1    1    6    6  503    0  0.93538443959E+01  0.52168595067E+02 -0.11223178762E+03  0.12411700475E+03  0.00000000000E+00 0. -1.
         -1    1    5    5    0  502  0.14361321180E+01  0.82444103652E+02  0.27281607497E+03  0.28500474288E+03  0.00000000000E+00 0.  1.
         -1    1    6    6    0  503  0.23914443980E+02 -0.26833465764E+02 -0.23380942132E+02  0.42878945542E+02  0.00000000000E+00 0.  1.
<mgrwt>
<rscale>  0 0.15773466E+04</rscale>
<asrwt>0</asrwt>
<pdfrwt beam="1">  1        2 0.32182536E+00 0.15773466E+04</pdfrwt>
<pdfrwt beam="2">  1       -2 0.45745383E-01 0.15773466E+04</pdfrwt>
<totfact> 0.25858056E+01</totfact>
</mgrwt>
</event>
<event>
12    1  0.4802930E-008  0.1603339E+04  0.7818608E-02  0.8818499E-01
          1   -1    0    0  501    0  0.00000000000E+00  0.00000000000E+00  0.45731892976E+03  0.45731892976E+03  0.00000000000E+00 0. -1.
         -1   -1    0    0    0  501 -0.00000000000E+00 -0.00000000000E+00 -0.14053078985E+04  0.14053078985E+04  0.00000000000E+00 0.  1.
         23    2    1    2    0    0 -0.42806230405E+02 -0.54412819441E+03 -0.39168699881E+03  0.67814285184E+03  0.92472466959E+02 0.  0.
        254    2    1    2    0    0  0.42806230405E+02  0.54412819441E+03 -0.55630196995E+03  0.11844839764E+04  0.89197676168E+03 0.  0.
         23    2    4    4    0    0  0.25825365149E+03 -0.94838493640E+02  0.20474224545E+02  0.29243944000E+03  0.97017234634E+02 0.  0.
         23    2    4    4    0    0 -0.21544742108E+03  0.63896668805E+03 -0.57677619449E+03  0.89204453644E+03  0.91524077569E+02 0.  0.
         11    1    3    3    0    0 -0.40190055144E+02 -0.36442089439E+03 -0.20968500229E+03  0.42235722912E+03  0.00000000000E+00 0.  1.
        -11    1    3    3    0    0 -0.26161752611E+01 -0.17970730002E+03 -0.18200199652E+03  0.25578562272E+03  0.00000000000E+00 0. -1.
          3    1    5    5  502    0 -0.28221595961E+01 -0.12803469680E+02 -0.10814641802E+02  0.16995584660E+02  0.00000000000E+00 0. -1.
          3    1    6    6  503    0 -0.17381974473E+02  0.70411182920E+02 -0.10273219000E+03  0.12575281540E+03  0.00000000000E+00 0. -1.
         -3    1    5    5    0  502  0.26107581108E+03 -0.82035023960E+02  0.31288866346E+02  0.27544385534E+03  0.00000000000E+00 0.  1.
         -3    1    6    6    0  503 -0.19806544661E+03  0.56855550513E+03 -0.47404400449E+03  0.76629172105E+03  0.00000000000E+00 0.  1.
<mgrwt>
<rscale>  0 0.16033389E+04</rscale>
<asrwt>0</asrwt>
<pdfrwt beam="1">  1        1 0.70356761E-01 0.16033389E+04</pdfrwt>
<pdfrwt beam="2">  1       -1 0.21620121E+00 0.16033389E+04</pdfrwt>
<totfact> 0.56079010E+00</totfact>
</mgrwt>
</event>
<event>
12    1  0.4802930E-008  0.1288790E+04  0.7818608E-02  0.9038502E-01
          2   -1    0    0  501    0  0.00000000000E+00  0.00000000000E+00  0.53591551009E+03  0.53591551009E+03  0.00000000000E+00 0. -1.
         -2   -1    0    0    0  501 -0.00000000000E+00 -0.00000000000E+00 -0.77483322128E+03  0.77483322128E+03  0.00000000000E+00 0.  1.
         23    2    1    2    0    0 -0.24733070877E+03  0.24845534660E+02  0.14827995687E+03  0.30325211934E+03  0.90471665072E+02 0.  0.
        254    2    1    2    0    0  0.24733070877E+03 -0.24845534660E+02 -0.38719766806E+03  0.10074966120E+04  0.89629102920E+03 0.  0.
         23    2    4    4    0    0  0.80610237996E+02 -0.43599284620E+03 -0.80110154482E+02  0.46019508774E+03  0.93670216846E+02 0.  0.
         23    2    4    4    0    0  0.16672047077E+03  0.41114731154E+03 -0.30708751358E+03  0.54730152429E+03  0.91642732038E+02 0.  0.
         13    1    3    3    0    0 -0.60994633457E+02  0.44203359388E+02  0.26702272067E+02  0.79920545702E+02  0.00000000000E+00 0.  1.
        -13    1    3    3    0    0 -0.18633607531E+03 -0.19357824728E+02  0.12157768480E+03  0.22333157364E+03  0.00000000000E+00 0. -1.
          2    1    5    5  502    0 -0.11565899249E+01 -0.18310220659E+03 -0.17896322682E+01  0.18311460494E+03  0.00000000000E+00 0. -1.
          4    1    6    6  503    0  0.31894351408E+02  0.58979552428E+02 -0.89844322494E+02  0.11210637600E+03  0.00000000000E+00 0.  1.
         -2    1    5    5    0  502  0.81766827921E+02 -0.25289063961E+03 -0.78320522214E+02  0.27708048280E+03  0.00000000000E+00 0.  1.
         -4    1    6    6    0  503  0.13482611936E+03  0.35216775911E+03 -0.21724319108E+03  0.43519514829E+03  0.00000000000E+00 0. -1.
<mgrwt>
<rscale>  0 0.12887903E+04</rscale>
<asrwt>0</asrwt>
<pdfrwt beam="1">  1        2 0.82448540E-01 0.12887903E+04</pdfrwt>
<pdfrwt beam="2">  1       -2 0.11920511E+00 0.12887903E+04</pdfrwt>
<totfact> 0.30054515E+01</totfact>
</mgrwt>
</event>
<event>
12    1  0.4802930E-008  0.2806187E+04  0.7818608E-02  0.8301350E-01
          2   -1    0    0  501    0  0.00000000000E+00  0.00000000000E+00  0.22064611488E+04  0.22064611488E+04  0.00000000000E+00 0. -1.
         -2   -1    0    0    0  501 -0.00000000000E+00 -0.00000000000E+00 -0.89223041449E+03  0.89223041449E+03  0.00000000000E+00 0.  1.
         23    2    1    2    0    0 -0.32142594093E+03 -0.15664143772E+03  0.19178695254E+04  0.19526633810E+04  0.82580794549E+02 0.  0.
        254    2    1    2    0    0  0.32142594093E+03  0.15664143772E+03 -0.60363879111E+03  0.11460281823E+04  0.90617306784E+03 0.  0.
         23    2    4    4    0    0 -0.20257442303E+02  0.18718657280E+03 -0.73763346561E+03  0.76679184927E+03  0.91746572257E+02 0.  0.
         23    2    4    4    0    0  0.34168338323E+03 -0.30545135086E+02  0.13399467450E+03  0.37923633298E+03  0.90471452974E+02 0.  0.
         11    1    3    3    0    0 -0.88971084228E+02 -0.44584130013E+01  0.45158360616E+03  0.46028630723E+03  0.00000000000E+00 0.  1.
        -11    1    3    3    0    0 -0.23245485670E+03 -0.15218302472E+03  0.14662859192E+04  0.14923770738E+04  0.00000000000E+00 0. -1.
          2    1    5    5  502    0  0.25490095618E+02  0.10445493516E+03 -0.49159515787E+03  0.50321603481E+03  0.00000000000E+00 0.  1.
          1    1    6    6  503    0  0.14827599415E+03  0.49695874920E+01  0.14337519826E+02  0.14905043346E+03  0.00000000000E+00 0. -1.
         -2    1    5    5    0  502 -0.45747537922E+02  0.82731637641E+02 -0.24603830774E+03  0.26357581446E+03  0.00000000000E+00 0. -1.
         -1    1    6    6    0  503  0.19340738908E+03 -0.35514722578E+02  0.11965715467E+03  0.23018589952E+03  0.00000000000E+00 0.  1.
<mgrwt>
<rscale>  0 0.28061873E+04</rscale>
<asrwt>0</asrwt>
<pdfrwt beam="1">  1        2 0.33945556E+00 0.28061873E+04</pdfrwt>
<pdfrwt beam="2">  1       -2 0.13726622E+00 0.28061873E+04</pdfrwt>
<totfact> 0.16834091E+00</totfact>
</mgrwt>
</event>
<event>
12    1  0.4802930E-008  0.3098486E+04  0.7818608E-02  0.8216153E-01
          1   -1    0    0  501    0  0.00000000000E+00  0.00000000000E+00  0.40225216890E+04  0.40225216890E+04  0.00000000000E+00 0. -1.
         -1   -1    0    0    0  501 -0.00000000000E+00 -0.00000000000E+00 -0.59667904106E+03  0.59667904106E+03  0.00000000000E+00 0.  1.
         23    2    1    2    0    0 -0.54002280019E+03 -0.26455023088E+03 -0.34143684488E+03  0.69746606611E+03  0.90930440181E+02 0.  0.
        254    2    1    2    0    0  0.54002280019E+03  0.26455023088E+03  0.37672794928E+04  0.39217346640E+04  0.90884352231E+03 0.  0.
         23    2    4    4    0    0  0.31958138036E+03  0.31356167999E+03  0.64836054817E+03  0.79330114155E+03  0.92206913636E+02 0.  0.
         23    2    4    4    0    0  0.22044141983E+03 -0.49011449116E+02  0.31189189447E+04  0.31284335224E+04  0.91893302810E+02 0.  0.
         11    1    3    3    0    0 -0.74199988563E+02 -0.66766057671E+02 -0.34618248048E+02  0.10564926814E+03  0.00000000000E+00 0. -1.
        -11    1    3    3    0    0 -0.46582281163E+03 -0.19778417320E+03 -0.30681859683E+03  0.59181679798E+03  0.00000000000E+00 0.  1.
          1    1    6    6  502    0  0.58257404940E+01  0.22641381655E+01  0.10697345752E+02  0.12389462461E+02  0.00000000000E+00 0. -1.
          1    1    5    5  503    0  0.74842218296E+02  0.13020715052E+03  0.24027516813E+03  0.28335034163E+03  0.00000000000E+00 0. -1.
         -1    1    5    5    0  503  0.24473916206E+03  0.18335452948E+03  0.40808538004E+03  0.50995079991E+03  0.00000000000E+00 0.  1.
         -1    1    6    6    0  502  0.21461567934E+03 -0.51275587282E+02  0.31082215989E+04  0.31160440600E+04  0.00000000000E+00 0.  1.
<mgrwt>
<rscale>  0 0.30984863E+04</rscale>
<asrwt>0</asrwt>
<pdfrwt beam="1">  1        1 0.61884947E+00 0.30984863E+04</pdfrwt>
<pdfrwt beam="2">  1       -1 0.91796778E-01 0.30984863E+04</pdfrwt>
<totfact> 0.89321294E-02</totfact>
</mgrwt>
</event>
<event>
12    1  0.4802930E-008  0.1181351E+04  0.7818608E-02  0.9129339E-01
          2   -1    0    0  501    0  0.00000000000E+00  0.00000000000E+00  0.38511179138E+04  0.38511179138E+04  0.00000000000E+00 0. -1.
         -2   -1    0    0    0  501 -0.00000000000E+00 -0.00000000000E+00 -0.90596359141E+02  0.90596359141E+02  0.00000000000E+00 0.  1.
         23    2    1    2    0    0 -0.21192304115E+03 -0.73105143101E+02  0.57281157179E+03  0.62193278435E+03  0.91823494560E+02 0.  0.
        254    2    1    2    0    0  0.21192304115E+03  0.73105143101E+02  0.31877099829E+04  0.33197814886E+04  0.89955458968E+03 0.  0.
         23    2    4    4    0    0  0.38427415177E+03  0.30940411818E+03  0.10921952442E+04  0.12019737452E+04  0.91939658737E+02 0.  0.
         23    2    4    4    0    0 -0.17235111061E+03 -0.23629897508E+03  0.20955147387E+04  0.21178077434E+04  0.91572412074E+02 0.  0.
         11    1    3    3    0    0 -0.20506076703E+03 -0.41066875632E+02  0.50618083133E+03  0.54768187888E+03  0.00000000000E+00 0.  1.
        -11    1    3    3    0    0 -0.68622741205E+01 -0.32038267469E+02  0.66630740468E+02  0.74250905475E+02  0.00000000000E+00 0. -1.
          3    1    5    5  502    0  0.10726528878E+03  0.77271386367E+02  0.20431292042E+03  0.24335258121E+03  0.00000000000E+00 0. -1.
          3    1    6    6  503    0  0.54191132943E+01 -0.22090616028E+01  0.93048855265E+01  0.10992162513E+02  0.00000000000E+00 0. -1.
         -3    1    5    5    0  502  0.27700886299E+03  0.23213273181E+03  0.88788232373E+03  0.95862116404E+03  0.00000000000E+00 0.  1.
         -3    1    6    6    0  503 -0.17777022391E+03 -0.23408991347E+03  0.20862098532E+04  0.21068155809E+04  0.00000000000E+00 0.  1.
<mgrwt>
<rscale>  0 0.11813505E+04</rscale>
<asrwt>0</asrwt>
<pdfrwt beam="1">  1        2 0.59247955E+00 0.11813505E+04</pdfrwt>
<pdfrwt beam="2">  1       -2 0.13937904E-01 0.11813505E+04</pdfrwt>
<totfact> 0.18282033E+01</totfact>
</mgrwt>
</event>
<event>
12    1  0.4802930E-008  0.2469747E+04  0.7818608E-02  0.8413843E-01
          1   -1    0    0  501    0  0.00000000000E+00  0.00000000000E+00  0.30299377676E+04  0.30299377676E+04  0.00000000000E+00 0. -1.
         -1   -1    0    0    0  501 -0.00000000000E+00 -0.00000000000E+00 -0.50328191418E+03  0.50328191418E+03  0.00000000000E+00 0.  1.
         23    2    1    2    0    0 -0.38720262632E+03  0.64674001666E+03  0.21831379246E+04  0.23113691891E+04  0.90209798796E+02 0.  0.
        254    2    1    2    0    0  0.38720262632E+03 -0.64674001666E+03  0.34351792888E+03  0.12218504927E+04  0.89817344428E+03 0.  0.
         23    2    4    4    0    0  0.50050912625E+03  0.87996837750E+00  0.14909872818E+03  0.53006406907E+03  0.90704612745E+02 0.  0.
         23    2    4    4    0    0 -0.11330649993E+03 -0.64761998503E+03  0.19441920070E+03  0.69178642360E+03  0.92301800330E+02 0.  0.
         11    1    3    3    0    0 -0.26521860656E+03  0.41592844813E+03  0.12996697697E+04  0.13901362859E+04  0.00000000000E+00 0. -1.
        -11    1    3    3    0    0 -0.12198401976E+03  0.23081156852E+03  0.88346815490E+03  0.92123290322E+03  0.00000000000E+00 0.  1.
          3    1    5    5  502    0  0.39594543805E+02 -0.24337647902E+02  0.64522875957E+01  0.46922073907E+02  0.00000000000E+00 0. -1.
          3    1    6    6  503    0 -0.10999333816E+03 -0.37175591522E+03  0.10275550812E+03  0.40107317212E+03  0.00000000000E+00 0. -1.
         -3    1    5    5    0  502  0.46091458244E+03  0.25217616279E+02  0.14264644059E+03  0.48314199516E+03  0.00000000000E+00 0.  1.
         -3    1    6    6    0  503 -0.33131617604E+01 -0.27586406981E+03  0.91663692574E+02  0.29071325148E+03  0.00000000000E+00 0.  1.
<mgrwt>
<rscale>  0 0.24697473E+04</rscale>
<asrwt>0</asrwt>
<pdfrwt beam="1">  1        1 0.46614426E+00 0.24697473E+04</pdfrwt>
<pdfrwt beam="2">  1       -1 0.77427988E-01 0.24697473E+04</pdfrwt>
<totfact> 0.84650044E-01</totfact>
</mgrwt>
</event>
<event>
12    1  0.4802930E-008  0.1245894E+04  0.7818608E-02  0.9073608E-01
         -2   -1    0    0    0  501 -0.00000000000E+00  0.00000000000E+00  0.55935617575E+03  0.55935617575E+03  0.00000000000E+00 0.  1.
          2   -1    0    0  501    0  0.00000000000E+00 -0.00000000000E+00 -0.69376728400E+03  0.69376728400E+03  0.00000000000E+00 0. -1.
         23    2    1    2    0    0 -0.41059328085E+02  0.14193963723E+03  0.22074649503E+03  0.28032627257E+03  0.89560454374E+02 0.  0.
        254    2    1    2    0    0  0.41059328085E+02 -0.14193963723E+03 -0.35515760328E+03  0.97279718718E+03  0.89351257136E+03 0.  0.
         23    2    4    4    0    0 -0.22561488386E+02  0.15590508598E+03  0.23889385404E+03  0.29907471538E+03  0.86948233380E+02 0.  0.
         23    2    4    4    0    0  0.63620816471E+02 -0.29784472321E+03 -0.59405145733E+03  0.67372247179E+03  0.90806098984E+02 0.  0.
         13    1    3    3    0    0 -0.11537829703E+02  0.41950372303E+02  0.91790754931E+01  0.44465837196E+02  0.00000000000E+00 0. -1.
        -13    1    3    3    0    0 -0.29521498382E+02  0.99989264924E+02  0.21156741954E+03  0.23586043538E+03  0.00000000000E+00 0.  1.
          1    1    5    5  502    0  0.12440436615E+02  0.12404564329E+03  0.20817404661E+03  0.24264896407E+03  0.00000000000E+00 0. -1.
          3    1    6    6  503    0  0.14754908188E+02 -0.24441732377E+03 -0.47450775593E+03  0.53396174574E+03  0.00000000000E+00 0. -1.
         -1    1    5    5    0  502 -0.35001925001E+02  0.31859442690E+02  0.30719807436E+02  0.56425751313E+02  0.00000000000E+00 0.  1.
         -3    1    6    6    0  503  0.48865908283E+02 -0.53427399439E+02 -0.11954370140E+03  0.13976072605E+03  0.00000000000E+00 0.  1.
<mgrwt>
<rscale>  0 0.12458941E+04</rscale>
<asrwt>0</asrwt>
<pdfrwt beam="1">  1        2 0.10673343E+00 0.12458941E+04</pdfrwt>
<pdfrwt beam="2">  1       -2 0.86054797E-01 0.12458941E+04</pdfrwt>
<totfact> 0.47778813E+01</totfact>
</mgrwt>
</event>
<event>
12    1  0.4802930E-008  0.1448165E+04  0.7818608E-02  0.8919674E-01
         -1   -1    0    0    0  501 -0.00000000000E+00  0.00000000000E+00  0.23897559717E+03  0.23897559717E+03  0.00000000000E+00 0.  1.
          1   -1    0    0  501    0  0.00000000000E+00 -0.00000000000E+00 -0.21939283054E+04  0.21939283054E+04  0.00000000000E+00 0. -1.
         23    2    1    2    0    0 -0.23440345143E+03  0.14003067776E+03 -0.11700463140E+04  0.12056174534E+04  0.99757196349E+02 0.  0.
        254    2    1    2    0    0  0.23440345143E+03 -0.14003067776E+03 -0.78490639421E+03  0.12272864492E+04  0.90310598043E+03 0.  0.
         23    2    4    4    0    0  0.55883272060E+03  0.12955533318E+02 -0.40813121602E+03  0.69895653703E+03  0.97505362477E+02 0.  0.
         23    2    4    4    0    0 -0.32442926916E+03 -0.15298621108E+03 -0.37677517819E+03  0.52832991214E+03  0.92270416147E+02 0.  0.
         11    1    3    3    0    0 -0.10032592173E+03  0.77341246048E+02 -0.74122467736E+03  0.75197139656E+03  0.00000000000E+00 0. -1.
        -11    1    3    3    0    0 -0.13407752970E+03  0.62689431713E+02 -0.42882163669E+03  0.45364605687E+03  0.00000000000E+00 0.  1.
          1    1    5    5  502    0  0.35799303144E+03 -0.12338313850E+02 -0.31125639899E+03  0.47454377086E+03  0.00000000000E+00 0. -1.
          3    1    6    6  503    0 -0.15799658194E+03 -0.51374526985E+02 -0.11564479398E+03  0.20242524621E+03  0.00000000000E+00 0. -1.
         -1    1    5    5    0  502  0.20083968916E+03  0.25293847168E+02 -0.96874817030E+02  0.22441276617E+03  0.00000000000E+00 0.  1.
         -3    1    6    6    0  503 -0.16643268722E+03 -0.10161168409E+03 -0.26113038421E+03  0.32590466593E+03  0.00000000000E+00 0.  1.
<mgrwt>
<rscale>  0 0.14481648E+04</rscale>
<asrwt>0</asrwt>
<pdfrwt beam="1">  1        1 0.33752744E+00 0.14481648E+04</pdfrwt>
<pdfrwt beam="2">  1       -1 0.36765476E-01 0.14481648E+04</pdfrwt>
<totfact> 0.15194278E+01</totfact>
</mgrwt>
</event>
<event>
12    1  0.4802930E-008  0.1466405E+04  0.7818608E-02  0.8907106E-01
          1   -1    0    0  501    0  0.00000000000E+00  0.00000000000E+00  0.26127207456E+04  0.26127207456E+04  0.00000000000E+00 0. -1.
         -1   -1    0    0    0  501 -0.00000000000E+00 -0.00000000000E+00 -0.20575720237E+03  0.20575720237E+03  0.00000000000E+00 0.  1.
         23    2    1    2    0    0  0.35929643694E+02  0.38476908040E+03  0.11737240344E+04  0.12395341781E+04  0.97358539545E+02 0.  0.
        254    2    1    2    0    0 -0.35929643694E+02 -0.38476908040E+03  0.12332395088E+04  0.15789437699E+04  0.90710834950E+03 0.  0.
         23    2    4    4    0    0 -0.24280472267E+03 -0.11395411550E+03  0.11910747180E+04  0.12236963532E+04  0.82668659754E+02 0.  0.
         23    2    4    4    0    0  0.20687507898E+03 -0.27081496490E+03  0.42164790882E+02  0.35524741667E+03  0.91020953312E+02 0.  0.
         13    1    3    3    0    0  0.19229023066E+02  0.15973006577E+03  0.34554419939E+03  0.38116170187E+03  0.00000000000E+00 0.  1.
        -13    1    3    3    0    0  0.16700620628E+02  0.22503901462E+03  0.82817983499E+03  0.85837247621E+03  0.00000000000E+00 0. -1.
          4    1    6    6  502    0  0.18252420256E+03 -0.24743512532E+03  0.65290820881E+02  0.31432804051E+03  0.00000000000E+00 0. -1.
          4    1    5    5  503    0 -0.22775592320E+03 -0.98122032702E+02  0.11565710884E+04  0.11828598296E+04  0.00000000000E+00 0. -1.
         -4    1    5    5    0  503 -0.15048799477E+02 -0.15832082794E+02  0.34503629549E+02  0.40836523644E+02  0.00000000000E+00 0.  1.
         -4    1    6    6    0  502  0.24350876417E+02 -0.23379839581E+02 -0.23126029999E+02  0.40919376152E+02  0.00000000000E+00 0.  1.
<mgrwt>
<rscale>  0 0.14664053E+04</rscale>
<asrwt>0</asrwt>
<pdfrwt beam="1">  1        1 0.40195701E+00 0.14664053E+04</pdfrwt>
<pdfrwt beam="2">  1       -1 0.31654956E-01 0.14664053E+04</pdfrwt>
<totfact> 0.10213974E+01</totfact>
</mgrwt>
</event>
<event>
12    1  0.4802930E-008  0.1318918E+04  0.7818608E-02  0.9014696E-01
          2   -1    0    0  501    0  0.00000000000E+00  0.00000000000E+00  0.37618625526E+04  0.37618625526E+04  0.00000000000E+00 0. -1.
         -2   -1    0    0    0  501 -0.00000000000E+00 -0.00000000000E+00 -0.11560388408E+03  0.11560388408E+03  0.00000000000E+00 0.  1.
         23    2    1    2    0    0 -0.26225671224E+02 -0.12837845975E+03  0.51128543994E+02  0.16914230945E+03  0.93947741187E+02 0.  0.
        254    2    1    2    0    0  0.26225671224E+02  0.12837845975E+03  0.35951301245E+04  0.37083241272E+04  0.89974352212E+03 0.  0.
         23    2    4    4    0    0 -0.21391314185E+03 -0.20582379513E+03  0.27079769287E+04  0.27256631971E+04  0.89322734498E+02 0.  0.
         23    2    4    4    0    0  0.24013881307E+03  0.33420225488E+03  0.88715319583E+03  0.98266093012E+03  0.96041209835E+02 0.  0.
         13    1    3    3    0    0  0.33509515125E+02 -0.27156611810E+02  0.75384503863E+01  0.43785812806E+02  0.00000000000E+00 0.  1.
        -13    1    3    3    0    0 -0.59735186348E+02 -0.10122184794E+03  0.43590093608E+02  0.12535649664E+03  0.00000000000E+00 0. -1.
          1    1    5    5  502    0  0.26663856146E+01  0.20084339707E+01  0.46591297380E+01  0.57315712659E+01  0.00000000000E+00 0. -1.
          3    1    6    6  503    0  0.36603946235E+02  0.44781818306E+02  0.61691141647E+02  0.84563923091E+02  0.00000000000E+00 0. -1.
         -1    1    5    5    0  502 -0.21657952746E+03 -0.20783222910E+03  0.27033177990E+04  0.27199316259E+04  0.00000000000E+00 0.  1.
         -3    1    6    6    0  503  0.20353486684E+03  0.28942043658E+03  0.82546205419E+03  0.89809700702E+03  0.00000000000E+00 0.  1.
<mgrwt>
<rscale>  0 0.13189176E+04</rscale>
<asrwt>0</asrwt>
<pdfrwt beam="1">  1        2 0.57874799E+00 0.13189176E+04</pdfrwt>
<pdfrwt beam="2">  1       -2 0.17785216E-01 0.13189176E+04</pdfrwt>
<totfact> 0.13835795E+01</totfact>
</mgrwt>
</event>
<event>
12    1  0.4802930E-008  0.1736160E+04  0.7818608E-02  0.8741006E-01
          1   -1    0    0  501    0  0.00000000000E+00  0.00000000000E+00  0.15248498264E+04  0.15248498264E+04  0.00000000000E+00 0. -1.
         -1   -1    0    0    0  501 -0.00000000000E+00 -0.00000000000E+00 -0.49418815251E+03  0.49418815251E+03  0.00000000000E+00 0.  1.
         23    2    1    2    0    0  0.31017799441E+02  0.48460758911E+03 -0.93580686329E+02  0.50306391870E+03  0.92246095503E+02 0.  0.
        254    2    1    2    0    0 -0.31017799441E+02 -0.48460758911E+03  0.11242423602E+04  0.15159740602E+04  0.89356020915E+03 0.  0.
         23    2    4    4    0    0  0.51982123323E+02 -0.31858035211E+03  0.12362848396E+04  0.12809963254E+04  0.91410060671E+02 0.  0.
         23    2    4    4    0    0 -0.82999922764E+02 -0.16602723700E+03 -0.11204247945E+03  0.23497773474E+03  0.90592428032E+02 0.  0.
         13    1    3    3    0    0 -0.92436651438E+01  0.28785641419E+03 -0.91617702695E+02  0.30222601474E+03  0.00000000000E+00 0.  1.
        -13    1    3    3    0    0  0.40261464585E+02  0.19675117492E+03 -0.19629836336E+01  0.20083790396E+03  0.00000000000E+00 0. -1.
          2    1    5    5  502    0  0.13648148819E+02 -0.30366389100E+02  0.26627962356E+03  0.26835280411E+03  0.00000000000E+00 0. -1.
          1    1    6    6  503    0  0.83443102227E+01 -0.54632923947E+02 -0.49752311408E+01  0.55489970418E+02  0.00000000000E+00 0. -1.
         -2    1    5    5    0  502  0.38333974504E+02 -0.28821396301E+03  0.97000521606E+03  0.10126435213E+04  0.00000000000E+00 0.  1.
         -1    1    6    6    0  503 -0.91344232987E+02 -0.11139431306E+03 -0.10706724831E+03  0.17948776432E+03  0.00000000000E+00 0.  1.
<mgrwt>
<rscale>  0 0.17361598E+04</rscale>
<asrwt>0</asrwt>
<pdfrwt beam="1">  1        1 0.23459228E+00 0.17361598E+04</pdfrwt>
<pdfrwt beam="2">  1       -1 0.76028947E-01 0.17361598E+04</pdfrwt>
<totfact> 0.10363600E+01</totfact>
</mgrwt>
</event>
<event>
12    1  0.4802930E-008  0.1223569E+04  0.7818608E-02  0.9092473E-01
          1   -1    0    0  501    0  0.00000000000E+00  0.00000000000E+00  0.26687665122E+04  0.26687665122E+04  0.00000000000E+00 0. -1.
         -1   -1    0    0    0  501 -0.00000000000E+00 -0.00000000000E+00 -0.14024459218E+03  0.14024459218E+03  0.00000000000E+00 0.  1.
         23    2    1    2    0    0  0.54639825510E+01  0.12993095109E+02 -0.23227697163E+02  0.10547105175E+03  0.10191143810E+03 0.  0.
        254    2    1    2    0    0 -0.54639825510E+01 -0.12993095109E+02  0.25517496172E+04  0.27035400527E+04  0.89303081233E+03 0.  0.
         23    2    4    4    0    0  0.28382506756E+03 -0.20861846992E+02  0.26939399735E+03  0.40110100706E+03  0.85539502128E+02 0.  0.
         23    2    4    4    0    0 -0.28928905011E+03  0.78687518834E+01  0.22823556199E+04  0.23024390456E+04  0.91259582491E+02 0.  0.
         13    1    3    3    0    0 -0.88840815426E+01  0.36236176022E+02  0.28516801149E+02  0.46959507081E+02  0.00000000000E+00 0. -1.
        -13    1    3    3    0    0  0.14348064094E+02 -0.23243080913E+02 -0.51744498311E+02  0.58511544665E+02  0.00000000000E+00 0.  1.
          4    1    5    5  502    0  0.25897783201E+03 -0.22127932218E+02  0.27183393227E+03  0.37610217972E+03  0.00000000000E+00 0. -1.
          1    1    6    6  503    0 -0.27749858169E+03  0.21421611780E+02  0.22248935246E+04  0.22422344981E+04  0.00000000000E+00 0. -1.
         -4    1    5    5    0  502  0.24847235550E+02  0.12660852258E+01 -0.24399349173E+01  0.24998827346E+02  0.00000000000E+00 0.  1.
         -1    1    6    6    0  503 -0.11790468422E+02 -0.13552859897E+02  0.57462095212E+02  0.60204547529E+02  0.00000000000E+00 0.  1.
<mgrwt>
<rscale>  0 0.12235687E+04</rscale>
<asrwt>0</asrwt>
<pdfrwt beam="1">  1        1 0.41057942E+00 0.12235687E+04</pdfrwt>
<pdfrwt beam="2">  1       -1 0.21576093E-01 0.12235687E+04</pdfrwt>
<totfact> 0.18508853E+01</totfact>
</mgrwt>
</event>
<event>
12    1  0.4802930E-008  0.2254003E+04  0.7818608E-02  0.8496281E-01
         -2   -1    0    0    0  501 -0.00000000000E+00  0.00000000000E+00  0.39892907245E+03  0.39892907245E+03  0.00000000000E+00 0.  1.
          2   -1    0    0  501    0  0.00000000000E+00 -0.00000000000E+00 -0.31838555524E+04  0.31838555524E+04  0.00000000000E+00 0. -1.
         23    2    1    2    0    0 -0.51016051260E+03 -0.62409010079E+03 -0.19506630636E+04  0.21126524024E+04  0.91986863484E+02 0.  0.
        254    2    1    2    0    0  0.51016051260E+03  0.62409010079E+03 -0.83426341641E+03  0.14701322225E+04  0.90307314281E+03 0.  0.
         23    2    4    4    0    0 -0.22054527134E+03  0.23108149909E+03 -0.75336873074E+02  0.34136141493E+03  0.93878087027E+02 0.  0.
         23    2    4    4    0    0  0.73070578394E+03  0.39300860170E+03 -0.75892654334E+03  0.11287708076E+04  0.98829824669E+02 0.  0.
         13    1    3    3    0    0 -0.33437634364E+03 -0.45654856928E+03 -0.12854983295E+04  0.14045462222E+04  0.00000000000E+00 0.  1.
        -13    1    3    3    0    0 -0.17578416896E+03 -0.16754153151E+03 -0.66516473412E+03  0.70810618014E+03  0.00000000000E+00 0. -1.
          4    1    5    5  502    0 -0.20604906415E+02 -0.47349256004E+01 -0.16086324205E+02  0.26565984176E+02  0.00000000000E+00 0. -1.
          1    1    6    6  503    0  0.35336803015E+03  0.18210859028E+03 -0.29776952665E+03  0.49668822654E+03  0.00000000000E+00 0. -1.
         -4    1    5    5    0  502 -0.19994036493E+03  0.23581642469E+03 -0.59250548868E+02  0.31479543075E+03  0.00000000000E+00 0.  1.
         -1    1    6    6    0  503  0.37733775380E+03  0.21090001142E+03 -0.46115701669E+03  0.63208258107E+03  0.00000000000E+00 0.  1.
<mgrwt>
<rscale>  0 0.22540031E+04</rscale>
<asrwt>0</asrwt>
<pdfrwt beam="1">  1        2 0.48982391E+00 0.22540031E+04</pdfrwt>
<pdfrwt beam="2">  1       -2 0.61373706E-01 0.22540031E+04</pdfrwt>
<totfact> 0.29892613E+00</totfact>
</mgrwt>
</event>
<event>
12    1  0.4802930E-008  0.1531349E+04  0.7818608E-02  0.8863870E-01
         -2   -1    0    0    0  501 -0.00000000000E+00  0.00000000000E+00  0.30745876537E+03  0.30745876537E+03  0.00000000000E+00 0.  1.
          2   -1    0    0  501    0  0.00000000000E+00 -0.00000000000E+00 -0.19067837132E+04  0.19067837132E+04  0.00000000000E+00 0. -1.
         23    2    1    2    0    0 -0.12469091187E+03  0.10851777252E+03 -0.11789846372E+04  0.11942079359E+04  0.93829040920E+02 0.  0.
        254    2    1    2    0    0  0.12469091187E+03 -0.10851777252E+03 -0.42034031063E+03  0.10200345427E+04  0.91458217842E+03 0.  0.
         23    2    4    4    0    0  0.55474391204E+02 -0.10199414350E+03 -0.70118888338E+03  0.71682134548E+03  0.93202885020E+02 0.  0.
         23    2    4    4    0    0  0.69216520669E+02 -0.65236290160E+01  0.28084857274E+03  0.30321319722E+03  0.90712941109E+02 0.  0.
         11    1    3    3    0    0 -0.37401394459E+02  0.27789913967E+02 -0.66586784033E+03  0.66749616059E+03  0.00000000000E+00 0.  1.
        -11    1    3    3    0    0 -0.87289517414E+02  0.80727858554E+02 -0.51311679688E+03  0.52671177530E+03  0.00000000000E+00 0. -1.
          2    1    5    5  502    0  0.42692256367E+01 -0.93137391672E+02 -0.52151403143E+03  0.52978267714E+03  0.00000000000E+00 0. -1.
          1    1    6    6  503    0  0.53982749678E+02 -0.21259229399E+02  0.27524113792E+03  0.28128948807E+03  0.00000000000E+00 0. -1.
         -2    1    5    5    0  502  0.51205165568E+02 -0.88567518323E+01 -0.17967485195E+03  0.18703866834E+03  0.00000000000E+00 0.  1.
         -1    1    6    6    0  503  0.15233770991E+02  0.14735600383E+02  0.56074348246E+01  0.21923709143E+02  0.00000000000E+00 0.  1.
<mgrwt>
<rscale>  0 0.15313489E+04</rscale>
<asrwt>0</asrwt>
<pdfrwt beam="1">  1        2 0.29335134E+00 0.15313489E+04</pdfrwt>
<pdfrwt beam="2">  1       -2 0.47301348E-01 0.15313489E+04</pdfrwt>
<totfact> 0.30740990E+01</totfact>
</mgrwt>
</event>
<event>
12    1  0.5091716E-008  0.1961747E+04  0.7818608E-02  0.8624717E-01
          1   -1    0    0  501    0  0.00000000000E+00  0.00000000000E+00  0.10448974023E+04  0.10448974023E+04  0.00000000000E+00 0. -1.
         -1   -1    0    0    0  501 -0.00000000000E+00 -0.00000000000E+00 -0.92077215076E+03  0.92077215076E+03  0.00000000000E+00 0.  1.
         23    2    1    2    0    0 -0.13180112320E+03 -0.70044382984E+03 -0.24883816668E+03  0.76071314471E+03  0.93653406173E+02 0.  0.
        254    2    1    2    0    0  0.13180112320E+03  0.70044382984E+03  0.37296341822E+03  0.12049564083E+04  0.89712047120E+03 0.  0.
         23    2    4    4    0    0  0.32439491941E+03  0.59958305333E+03 -0.80894278129E+02  0.69351442560E+03  0.98419879599E+02 0.  0.
         23    2    4    4    0    0 -0.19259379621E+03  0.10086077651E+03  0.45385769635E+03  0.51144198275E+03  0.91218565007E+02 0.  0.
         11    1    3    3    0    0 -0.13942463330E+03 -0.69605155143E+03 -0.24764430654E+03  0.75183421921E+03  0.00000000000E+00 0. -1.
        -11    1    3    3    0    0  0.76235100984E+01 -0.43922784176E+01 -0.11938601397E+01  0.88789254953E+01  0.00000000000E+00 0.  1.
          1    1    5    5  502    0  0.11813631196E+02  0.70357230269E+02 -0.27852007171E+02  0.76586134754E+02  0.00000000000E+00 0. -1.
          3    1    6    6  503    0 -0.25923320592E+02  0.58182473834E+02  0.11948954226E+03  0.13540668197E+03  0.00000000000E+00 0. -1.
         -1    1    5    5    0  502  0.31258128822E+03  0.52922582306E+03 -0.53042270958E+02  0.61692829085E+03  0.00000000000E+00 0.  1.
         -3    1    6    6    0  503 -0.16667047562E+03  0.42678302681E+02  0.33436815408E+03  0.37603530077E+03  0.00000000000E+00 0.  1.
<mgrwt>
<rscale>  0 0.19617466E+04</rscale>
<asrwt>0</asrwt>
<pdfrwt beam="1">  1        1 0.16075345E+00 0.19617466E+04</pdfrwt>
<pdfrwt beam="2">  1       -1 0.14165725E+00 0.19617466E+04</pdfrwt>
<totfact> 0.52825593E+00</totfact>
</mgrwt>
</event>
<event>
12    1  0.4802930E-008  0.2282251E+04  0.7818608E-02  0.8484952E-01
          1   -1    0    0  501    0  0.00000000000E+00  0.00000000000E+00  0.23119489902E+04  0.23119489902E+04  0.00000000000E+00 0. -1.
         -1   -1    0    0    0  501 -0.00000000000E+00 -0.00000000000E+00 -0.56323381049E+03  0.56323381049E+03  0.00000000000E+00 0.  1.
         23    2    1    2    0    0 -0.43475652434E+02 -0.91911189891E+03  0.10862484634E+04  0.14264626461E+04  0.90571194970E+02 0.  0.
        254    2    1    2    0    0  0.43475652434E+02  0.91911189891E+03  0.66246671635E+03  0.14487201546E+04  0.90181545847E+03 0.  0.
         23    2    4    4    0    0 -0.35612066679E+03  0.68685364119E+03  0.23761570544E+03  0.81447305718E+03  0.91188177294E+02 0.  0.
         23    2    4    4    0    0  0.39959631922E+03  0.23225825772E+03  0.42485101092E+03  0.63424709746E+03  0.90276699935E+02 0.  0.
         13    1    3    3    0    0  0.26255861292E+02 -0.14689130442E+03  0.17369487543E+03  0.22898981488E+03  0.00000000000E+00 0.  1.
        -13    1    3    3    0    0 -0.69731513726E+02 -0.77222059449E+03  0.91255358796E+03  0.11974728312E+04  0.00000000000E+00 0. -1.
          2    1    5    5  502    0 -0.28608965999E+03  0.61345705819E+03  0.21817851636E+03  0.71118121516E+03  0.00000000000E+00 0. -1.
          3    1    6    6  503    0  0.93511030166E+02  0.13326829280E+02  0.78982740165E+02  0.12312672490E+03  0.00000000000E+00 0. -1.
         -2    1    5    5    0  502 -0.70031006801E+02  0.73396583006E+02  0.19437189075E+02  0.10329184203E+03  0.00000000000E+00 0.  1.
         -3    1    6    6    0  503  0.30608528905E+03  0.21893142844E+03  0.34586827075E+03  0.51112037256E+03  0.00000000000E+00 0.  1.
<mgrwt>
<rscale>  0 0.22822514E+04</rscale>
<asrwt>0</asrwt>
<pdfrwt beam="1">  1        1 0.35568446E+00 0.22822514E+04</pdfrwt>
<pdfrwt beam="2">  1       -1 0.86651357E-01 0.22822514E+04</pdfrwt>
<totfact> 0.21702945E+00</totfact>
</mgrwt>
</event>
<event>
12    1  0.4802930E-008  0.2412154E+04  0.7818608E-02  0.8434967E-01
         -1   -1    0    0    0  501 -0.00000000000E+00  0.00000000000E+00  0.19310439584E+04  0.19310439584E+04  0.00000000000E+00 0.  1.
          1   -1    0    0  501    0  0.00000000000E+00 -0.00000000000E+00 -0.75328242748E+03  0.75328242748E+03  0.00000000000E+00 0. -1.
         23    2    1    2    0    0  0.99536451598E+03  0.25985282982E+03  0.58351175137E+03  0.11862962692E+04  0.92405960482E+02 0.  0.
        254    2    1    2    0    0 -0.99536451598E+03 -0.25985282982E+03  0.59424977958E+03  0.14980301167E+04  0.91251707772E+03 0.  0.
         23    2    4    4    0    0 -0.40020518672E+03 -0.26240311816E+02  0.73026352093E+03  0.83791588280E+03  0.89249488566E+02 0.  0.
         23    2    4    4    0    0 -0.59515932926E+03 -0.23361251800E+03 -0.13601374135E+03  0.66011423389E+03  0.91987108710E+02 0.  0.
         11    1    3    3    0    0  0.49723775941E+03  0.12774827463E+03  0.23818756732E+03  0.56594905096E+03  0.00000000000E+00 0. -1.
        -11    1    3    3    0    0  0.49812675658E+03  0.13210455519E+03  0.34532418405E+03  0.62034721826E+03  0.00000000000E+00 0.  1.
          2    1    5    5  502    0 -0.40460819955E+02  0.24100911089E+02  0.70945173740E+02  0.85153681915E+02  0.00000000000E+00 0. -1.
          1    1    6    6  503    0  0.17587753046E+01 -0.51499722854E+01  0.27226216858E+01  0.60850779745E+01  0.00000000000E+00 0. -1.
         -2    1    5    5    0  502 -0.35974436677E+03 -0.50341222904E+02  0.65931834719E+03  0.75276220089E+03  0.00000000000E+00 0.  1.
         -1    1    6    6    0  503 -0.59691810457E+03 -0.22846254572E+03 -0.13873636303E+03  0.65402915591E+03  0.00000000000E+00 0.  1.
<mgrwt>
<rscale>  0 0.24121538E+04</rscale>
<asrwt>0</asrwt>
<pdfrwt beam="1">  1        1 0.11588960E+00 0.24121538E+04</pdfrwt>
<pdfrwt beam="2">  1       -1 0.29708368E+00 0.24121538E+04</pdfrwt>
<totfact> 0.75126047E-01</totfact>
</mgrwt>
</event>
<event>
12    1  0.4802930E-008  0.1212844E+04  0.7818608E-02  0.9101688E-01
          2   -1    0    0  501    0  0.00000000000E+00  0.00000000000E+00  0.32192919522E+03  0.32192919522E+03  0.00000000000E+00 0. -1.
         -2   -1    0    0    0  501 -0.00000000000E+00 -0.00000000000E+00 -0.11423248953E+04  0.11423248953E+04  0.00000000000E+00 0.  1.
         23    2    1    2    0    0 -0.18921128745E+03  0.12090022383E+03 -0.35031523505E+03  0.42607859921E+03  0.91675696755E+02 0.  0.
        254    2    1    2    0    0  0.18921128745E+03 -0.12090022383E+03 -0.47008046506E+03  0.10381754913E+04  0.89800608672E+03 0.  0.
         23    2    4    4    0    0 -0.86661423163E+02 -0.27020286649E+03 -0.61210628800E+03  0.68099612740E+03  0.92530137805E+02 0.  0.
         23    2    4    4    0    0  0.27587271061E+03  0.14930264266E+03  0.14202582294E+03  0.35717936394E+03  0.94914340753E+02 0.  0.
         13    1    3    3    0    0 -0.24992198829E+02  0.14260215891E+02 -0.51345594448E+01  0.29228880585E+02  0.00000000000E+00 0. -1.
        -13    1    3    3    0    0 -0.16421908862E+03  0.10664000794E+03 -0.34518067561E+03  0.39684971863E+03  0.00000000000E+00 0.  1.
          4    1    5    5  502    0 -0.91891622448E+02 -0.18205493815E+03 -0.35833896946E+03  0.41230436308E+03  0.00000000000E+00 0. -1.
          3    1    6    6  503    0  0.19727490103E+03  0.62383350962E+02  0.64712856536E+02  0.21678750622E+03  0.00000000000E+00 0. -1.
         -4    1    5    5    0  502  0.52301992848E+01 -0.88147928337E+02 -0.25376731854E+03  0.26869176432E+03  0.00000000000E+00 0.  1.
         -3    1    6    6    0  503  0.78597809584E+02  0.86919291695E+02  0.77312966407E+02  0.14039185772E+03  0.00000000000E+00 0.  1.
<mgrwt>
<rscale>  0 0.12128442E+04</rscale>
<asrwt>0</asrwt>
<pdfrwt beam="1">  1        2 0.49527568E-01 0.12128442E+04</pdfrwt>
<pdfrwt beam="2">  1       -2 0.17574229E+00 0.12128442E+04</pdfrwt>
<totfact> 0.19399588E+01</totfact>
</mgrwt>
</event>
<event>
12    1  0.4802930E-008  0.2028108E+04  0.7818608E-02  0.8593591E-01
          2   -1    0    0  501    0  0.00000000000E+00  0.00000000000E+00  0.40235572933E+04  0.40235572933E+04  0.00000000000E+00 0. -1.
         -2   -1    0    0    0  501 -0.00000000000E+00 -0.00000000000E+00 -0.25557128475E+03  0.25557128475E+03  0.00000000000E+00 0.  1.
         23    2    1    2    0    0 -0.46404845666E+03 -0.66921795900E+03  0.17395328691E+04  0.19228797427E+04  0.91094761885E+02 0.  0.
        254    2    1    2    0    0  0.46404845666E+03  0.66921795900E+03  0.20284531395E+04  0.23562488353E+04  0.87982543049E+03 0.  0.
         23    2    4    4    0    0 -0.19511261507E+03  0.44804292884E+03  0.78098553907E+03  0.92517258736E+03  0.84820431062E+02 0.  0.
         23    2    4    4    0    0  0.65916107173E+03  0.22117503016E+03  0.12474676004E+04  0.14310762479E+04  0.91608410985E+02 0.  0.
         13    1    3    3    0    0 -0.11917678021E+03 -0.16647913987E+03  0.53526953694E+03  0.57308977144E+03  0.00000000000E+00 0. -1.
        -13    1    3    3    0    0 -0.34487167645E+03 -0.50273881913E+03  0.12042633322E+04  0.13497899713E+04  0.00000000000E+00 0.  1.
          2    1    6    6  502    0  0.17536740409E+03  0.90646732935E+02  0.29728481298E+03  0.35685965958E+03  0.00000000000E+00 0. -1.
          2    1    5    5  503    0 -0.28000295796E+02  0.13066385024E+03  0.16454358296E+03  0.21197086832E+03  0.00000000000E+00 0.  1.
         -2    1    5    5    0  503 -0.16711231928E+03  0.31737907860E+03  0.61644195612E+03  0.71320171904E+03  0.00000000000E+00 0. -1.
         -2    1    6    6    0  502  0.48379366764E+03  0.13052829723E+03  0.95018278742E+03  0.10742165884E+04  0.00000000000E+00 0.  1.
<mgrwt>
<rscale>  0 0.20281082E+04</rscale>
<asrwt>0</asrwt>
<pdfrwt beam="1">  1        2 0.61900877E+00 0.20281082E+04</pdfrwt>
<pdfrwt beam="2">  1       -2 0.39318662E-01 0.20281082E+04</pdfrwt>
<totfact> 0.18752393E+00</totfact>
</mgrwt>
</event>
<event>
12    1  0.4802930E-008  0.1996003E+04  0.7818608E-02  0.8608492E-01
         -2   -1    0    0    0  501 -0.00000000000E+00  0.00000000000E+00  0.48804938176E+03  0.48804938176E+03  0.00000000000E+00 0. -1.
          2   -1    0    0  501    0  0.00000000000E+00 -0.00000000000E+00 -0.20407915916E+04  0.20407915916E+04  0.00000000000E+00 0.  1.
         23    2    1    2    0    0 -0.75391321998E+03  0.32287200719E+02 -0.90317281246E+03  0.11831480379E+04  0.12120455319E+03 0.  0.
        254    2    1    2    0    0  0.75391321998E+03 -0.32287200719E+02 -0.64956939735E+03  0.13456929355E+04  0.90527425019E+03 0.  0.
         23    2    4    4    0    0  0.15792158122E+03  0.31050175067E+03  0.45169784422E+02  0.36286674882E+03  0.91002225216E+02 0.  0.
         23    2    4    4    0    0  0.59599163876E+03 -0.34278895138E+03 -0.69473918177E+03  0.98282618667E+03  0.10283230930E+03 0.  0.
         13    1    3    3    0    0 -0.70266834833E+03  0.60887590852E+02 -0.84217890373E+03  0.10985059910E+04  0.00000000000E+00 0. -1.
        -13    1    3    3    0    0 -0.51244871655E+02 -0.28600390133E+02 -0.60993908730E+02  0.84642046814E+02  0.00000000000E+00 0.  1.
          4    1    5    5  502    0  0.44894723716E+02  0.21603650449E+02  0.65444787381E+01  0.50250215245E+02  0.00000000000E+00 0. -1.
          1    1    6    6  503    0  0.46582939637E+02 -0.49681149481E+01 -0.74628210956E+02  0.88113689639E+02  0.00000000000E+00 0. -1.
         -4    1    5    5    0  502  0.11302685750E+03  0.28889810022E+03  0.38625305684E+02  0.31261653358E+03  0.00000000000E+00 0.  1.
         -1    1    6    6    0  503  0.54940869913E+03 -0.33782083644E+03 -0.62011097082E+03  0.89471249703E+03  0.00000000000E+00 0.  1.
<mgrwt>
<rscale>  0 0.19960031E+04</rscale>
<asrwt>0</asrwt>
<pdfrwt beam="1">  1        2 0.31396794E+00 0.19960031E+04</pdfrwt>
<pdfrwt beam="2">  1       -2 0.75084519E-01 0.19960031E+04</pdfrwt>
<totfact> 0.93853749E+00</totfact>
</mgrwt>
</event>
<event>
12    1  0.4802930E-008  0.1415103E+04  0.7818608E-02  0.8942958E-01
          1   -1    0    0  501    0  0.00000000000E+00  0.00000000000E+00  0.58420917645E+03  0.58420917645E+03  0.00000000000E+00 0. -1.
         -1   -1    0    0    0  501 -0.00000000000E+00 -0.00000000000E+00 -0.85693530798E+03  0.85693530798E+03  0.00000000000E+00 0.  1.
         23    2    1    2    0    0 -0.29124005871E+03  0.22988440863E+03  0.10063670020E+03  0.39537541855E+03  0.92338307543E+02 0.  0.
        254    2    1    2    0    0  0.29124005871E+03 -0.22988440863E+03 -0.37336283173E+03  0.10457690659E+04  0.90364015068E+03 0.  0.
         23    2    4    4    0    0  0.26571963834E+03 -0.20405935081E+03 -0.65834060884E+03  0.74428032695E+03  0.91069769841E+02 0.  0.
         23    2    4    4    0    0  0.25520420371E+02 -0.25825057817E+02  0.28497777711E+03  0.30148873894E+03  0.91459831593E+02 0.  0.
         13    1    3    3    0    0 -0.85988274734E+02  0.38661895549E+02 -0.78438797617E+01  0.94605771541E+02  0.00000000000E+00 0. -1.
        -13    1    3    3    0    0 -0.20525178397E+03  0.19122251308E+03  0.10848057996E+03  0.30076964701E+03  0.00000000000E+00 0.  1.
          2    1    5    5  502    0  0.21444086052E+03 -0.12143438474E+03 -0.51684394483E+03  0.57258960501E+03  0.00000000000E+00 0. -1.
          3    1    6    6  503    0 -0.33677344607E+02 -0.16595662585E+02  0.13071212374E+03  0.13599720162E+03  0.00000000000E+00 0. -1.
         -2    1    5    5    0  502  0.51278777821E+02 -0.82624966074E+02 -0.14149666401E+03  0.17169072194E+03  0.00000000000E+00 0.  1.
         -3    1    6    6    0  503  0.59197764978E+02 -0.92293952324E+01  0.15426565337E+03  0.16549153731E+03  0.00000000000E+00 0.  1.
<mgrwt>
<rscale>  0 0.14151035E+04</rscale>
<asrwt>0</asrwt>
<pdfrwt beam="1">  1        1 0.89878335E-01 0.14151035E+04</pdfrwt>
<pdfrwt beam="2">  1       -1 0.13183620E+00 0.14151035E+04</pdfrwt>
<totfact> 0.16969295E+01</totfact>
</mgrwt>
</event>
<event>
12    1  0.4802930E-008  0.1050432E+04  0.7818608E-02  0.9254898E-01
         -3   -1    0    0    0  501 -0.00000000000E+00  0.00000000000E+00  0.13503857078E+03  0.13503857078E+03  0.00000000000E+00 0.  1.
          3   -1    0    0  501    0  0.00000000000E+00 -0.00000000000E+00 -0.20427649228E+04  0.20427649228E+04  0.00000000000E+00 0. -1.
         23    2    1    2    0    0 -0.30842230524E+02 -0.45577060266E+02 -0.40135495774E+02  0.11360998088E+03  0.90927763245E+02 0.  0.
        254    2    1    2    0    0  0.30842230524E+02  0.45577060266E+02 -0.18675908562E+04  0.20641935127E+04  0.87747976611E+03 0.  0.
         23    2    4    4    0    0  0.18059937842E+03 -0.13681762298E+03 -0.77159785189E+02  0.25597803501E+03  0.90751994537E+02 0.  0.
         23    2    4    4    0    0 -0.14975714790E+03  0.18239468325E+03 -0.17904310710E+04  0.18082154777E+04  0.91130509407E+02 0.  0.
         11    1    3    3    0    0 -0.21451279168E+02 -0.70997263426E+02 -0.13070685604E+02  0.75310103001E+02  0.00000000000E+00 0.  1.
        -11    1    3    3    0    0 -0.93909513560E+01  0.25420203160E+02 -0.27064810170E+02  0.38299877880E+02  0.00000000000E+00 0. -1.
          1    1    5    5  502    0  0.74952552196E+02 -0.10264226713E+03 -0.13054072242E+02  0.12776434903E+03  0.00000000000E+00 0. -1.
          1    1    6    6  503    0 -0.98832943778E+02  0.81764187424E+02 -0.12212826297E+04  0.12280002422E+04  0.00000000000E+00 0. -1.
         -1    1    5    5    0  502  0.10564682623E+03 -0.34175355854E+02 -0.64105712946E+02  0.12821368598E+03  0.00000000000E+00 0.  1.
         -1    1    6    6    0  503 -0.50924204119E+02  0.10063049582E+03 -0.56914844130E+03  0.58021523549E+03  0.00000000000E+00 0.  1.
<mgrwt>
<rscale>  0 0.10504324E+04</rscale>
<asrwt>0</asrwt>
<pdfrwt beam="1">  1        3 0.31427153E+00 0.10504324E+04</pdfrwt>
<pdfrwt beam="2">  1       -3 0.20775164E-01 0.10504324E+04</pdfrwt>
<totfact> 0.18347765E+00</totfact>
</mgrwt>
</event>
<event>
12    1  0.4802930E-008  0.1365144E+04  0.7818608E-02  0.8979443E-01
          2   -1    0    0  501    0  0.00000000000E+00  0.00000000000E+00  0.44125675782E+04  0.44125675782E+04  0.00000000000E+00 0. -1.
         -2   -1    0    0    0  501 -0.00000000000E+00 -0.00000000000E+00 -0.10558575302E+03  0.10558575302E+03  0.00000000000E+00 0.  1.
         23    2    1    2    0    0 -0.15921006389E+03  0.15443827112E+02  0.22952048210E+04  0.23025811893E+04  0.91261199836E+02 0.  0.
        254    2    1    2    0    0  0.15921006389E+03 -0.15443827112E+02  0.20117770041E+04  0.22155721419E+04  0.91429035070E+03 0.  0.
         23    2    4    4    0    0  0.10789862410E+02  0.25409582814E+03  0.18240531855E+04  0.18440501954E+04  0.93112773917E+02 0.  0.
         23    2    4    4    0    0  0.14842020148E+03 -0.26953965525E+03  0.18772381864E+03  0.37152194650E+03  0.90045225774E+02 0.  0.
         11    1    3    3    0    0 -0.78256888413E+02 -0.27048321775E+02  0.72414603956E+03  0.72886434876E+03  0.00000000000E+00 0.  1.
        -11    1    3    3    0    0 -0.80953175480E+02  0.42492148887E+02  0.15710587815E+04  0.15737168405E+04  0.00000000000E+00 0. -1.
          4    1    5    5  502    0 -0.17096229834E+02  0.21567312304E+03  0.13030620268E+04  0.13209003834E+04  0.00000000000E+00 0.  1.
          1    1    6    6  503    0  0.63929471514E+02 -0.83733419513E+02  0.19762940331E+02  0.10718599107E+03  0.00000000000E+00 0. -1.
         -4    1    5    5    0  502  0.27886092244E+02  0.38422705099E+02  0.52099115864E+03  0.52314981200E+03  0.00000000000E+00 0. -1.
         -1    1    6    6    0  503  0.84490729969E+02 -0.18580623574E+03  0.16796087831E+03  0.26433595543E+03  0.00000000000E+00 0.  1.
<mgrwt>
<rscale>  0 0.13651436E+04</rscale>
<asrwt>0</asrwt>
<pdfrwt beam="1">  1        2 0.67885641E+00 0.13651436E+04</pdfrwt>
<pdfrwt beam="2">  1       -2 0.16243965E-01 0.13651436E+04</pdfrwt>
<totfact> 0.46574067E+00</totfact>
</mgrwt>
</event>
<event>
12    1  0.4802930E-008  0.1291364E+04  0.7818608E-02  0.9036441E-01
         -1   -1    0    0    0  501 -0.00000000000E+00  0.00000000000E+00  0.13469780543E+04  0.13469780543E+04  0.00000000000E+00 0.  1.
          1   -1    0    0  501    0  0.00000000000E+00 -0.00000000000E+00 -0.30951173442E+03  0.30951173442E+03  0.00000000000E+00 0. -1.
         23    2    1    2    0    0  0.79643875303E+02  0.22840400004E+03  0.53510363255E+03  0.59419925489E+03  0.90693565591E+02 0.  0.
        254    2    1    2    0    0 -0.79643875303E+02 -0.22840400004E+03  0.50236268732E+03  0.10622905338E+04  0.90420206508E+03 0.  0.
         23    2    4    4    0    0  0.29215820355E+03  0.16437743008E+03  0.49417557947E+02  0.35087957077E+03  0.91093483457E+02 0.  0.
         23    2    4    4    0    0 -0.37180207885E+03 -0.39278143012E+03  0.45294512937E+03  0.71141096304E+03  0.91827176942E+02 0.  0.
         11    1    3    3    0    0 -0.17390517963E+01 -0.60660652519E+01  0.28522051598E+01  0.69250648418E+01  0.00000000000E+00 0. -1.
        -11    1    3    3    0    0  0.81382927100E+02  0.23447006530E+03  0.53225142739E+03  0.58727419005E+03  0.00000000000E+00 0.  1.
          3    1    5    5  502    0  0.29533363627E+03  0.16869814853E+03  0.43492838135E+02  0.34288868310E+03  0.00000000000E+00 0. -1.
          3    1    6    6  503    0 -0.35977841484E+03 -0.39094497591E+03  0.42310777802E+03  0.67918971855E+03  0.00000000000E+00 0. -1.
         -3    1    5    5    0  502 -0.31754327192E+01 -0.43207184500E+01  0.59247198122E+01  0.79908876685E+01  0.00000000000E+00 0.  1.
         -3    1    6    6    0  503 -0.12023664012E+02 -0.18364542160E+01  0.29837351356E+02  0.32221244488E+02  0.00000000000E+00 0.  1.
<mgrwt>
<rscale>  0 0.12913644E+04</rscale>
<asrwt>0</asrwt>
<pdfrwt beam="1">  1        1 0.47617191E-01 0.12913644E+04</pdfrwt>
<pdfrwt beam="2">  1       -1 0.20722739E+00 0.12913644E+04</pdfrwt>
<totfact> 0.11112587E+01</totfact>
</mgrwt>
</event>
<event>
12    1  0.4802930E-008  0.1681669E+04  0.7818608E-02  0.8771889E-01
          2   -1    0    0  501    0  0.00000000000E+00  0.00000000000E+00  0.22244277583E+04  0.22244277583E+04  0.00000000000E+00 0.  1.
         -2   -1    0    0    0  501 -0.00000000000E+00 -0.00000000000E+00 -0.31783589224E+03  0.31783589224E+03  0.00000000000E+00 0. -1.
         23    2    1    2    0    0 -0.40321130603E+03 -0.39699061366E+03  0.90900447007E+03  0.10747782465E+04  0.93157114293E+02 0.  0.
        254    2    1    2    0    0  0.40321130603E+03  0.39699061366E+03  0.99758739599E+03  0.14674854040E+04  0.91550635920E+03 0.  0.
         23    2    4    4    0    0 -0.12109043489E+03  0.32975385207E+03  0.34419027869E+02  0.36512954345E+03  0.93458106353E+02 0.  0.
         23    2    4    4    0    0  0.52430174092E+03  0.67236761593E+02  0.96316836812E+03  0.11023558606E+04  0.89900168823E+02 0.  0.
         13    1    3    3    0    0 -0.68801566408E+02 -0.83015319922E+02  0.11385584531E+03  0.15680673580E+03  0.00000000000E+00 0. -1.
        -13    1    3    3    0    0 -0.33440973962E+03 -0.31397529374E+03  0.79514862476E+03  0.91797151072E+03  0.00000000000E+00 0.  1.
          4    1    5    5  502    0 -0.50446503184E+02  0.18837461927E+03  0.62133778031E+02  0.20467157409E+03  0.00000000000E+00 0.  1.
          1    1    6    6  503    0  0.42875917786E+03  0.25819055673E+02  0.81486873925E+03  0.92114717524E+03  0.00000000000E+00 0. -1.
         -4    1    5    5    0  502 -0.70643931705E+02  0.14137923280E+03 -0.27714750162E+02  0.16045796936E+03  0.00000000000E+00 0. -1.
         -1    1    6    6    0  503  0.95542563057E+02  0.41417705920E+02  0.14829962887E+03  0.18120868534E+03  0.00000000000E+00 0.  1.
<mgrwt>
<rscale>  0 0.16816694E+04</rscale>
<asrwt>0</asrwt>
<pdfrwt beam="1">  1        2 0.34221965E+00 0.16816694E+04</pdfrwt>
<pdfrwt beam="2">  1       -2 0.48897831E-01 0.16816694E+04</pdfrwt>
<totfact> 0.18890774E+01</totfact>
</mgrwt>
</event>
<event>
12    1  0.4802930E-008  0.2084708E+04  0.7818608E-02  0.8568010E-01
          1   -1    0    0  501    0  0.00000000000E+00  0.00000000000E+00  0.22773664883E+04  0.22773664883E+04  0.00000000000E+00 0. -1.
         -1   -1    0    0    0  501 -0.00000000000E+00 -0.00000000000E+00 -0.47708715202E+03  0.47708715202E+03  0.00000000000E+00 0.  1.
         23    2    1    2    0    0  0.57650506493E+03 -0.22888360629E+02  0.15502828103E+04  0.16566691585E+04  0.91071080553E+02 0.  0.
        254    2    1    2    0    0 -0.57650506493E+03  0.22888360629E+02  0.24999652596E+03  0.10977844818E+04  0.89986139968E+03 0.  0.
         23    2    4    4    0    0  0.13126557239E+03  0.72619564072E+02  0.33191577707E+03  0.37814355280E+03  0.10158844361E+03 0.  0.
         23    2    4    4    0    0 -0.70777063732E+03 -0.49731203443E+02 -0.81919251112E+02  0.71964092904E+03  0.88089927950E+02 0.  0.
         13    1    3    3    0    0  0.53867799499E+03 -0.86075267645E+01  0.14868496179E+04  0.15814454964E+04  0.00000000000E+00 0. -1.
        -13    1    3    3    0    0  0.37827069939E+02 -0.14280833864E+02  0.63433192407E+02  0.75223662068E+02  0.00000000000E+00 0.  1.
          1    1    5    5  502    0  0.41771061936E+02 -0.99338666362E-01  0.21454994154E+02  0.46959006139E+02  0.00000000000E+00 0. -1.
          3    1    6    6  503    0 -0.19343072162E+02 -0.16624404969E+02 -0.63747662681E+01  0.26289977676E+02  0.00000000000E+00 0. -1.
         -1    1    5    5    0  502  0.89494510449E+02  0.72718902738E+02  0.31046078292E+03  0.33118454666E+03  0.00000000000E+00 0.  1.
         -3    1    6    6    0  503 -0.68842756515E+03 -0.33106798474E+02 -0.75544484844E+02  0.69335095137E+03  0.00000000000E+00 0.  1.
<mgrwt>
<rscale>  0 0.20847084E+04</rscale>
<asrwt>0</asrwt>
<pdfrwt beam="1">  1        1 0.35036407E+00 0.20847084E+04</pdfrwt>
<pdfrwt beam="2">  1       -1 0.73398025E-01 0.20847084E+04</pdfrwt>
<totfact> 0.33223136E+00</totfact>
</mgrwt>
</event>
<event>
12    1  0.4802930E-008  0.1472268E+04  0.7818608E-02  0.8903107E-01
          2   -1    0    0  501    0  0.00000000000E+00  0.00000000000E+00  0.10382384017E+04  0.10382384017E+04  0.00000000000E+00 0. -1.
         -2   -1    0    0    0  501 -0.00000000000E+00 -0.00000000000E+00 -0.52193500748E+03  0.52193500748E+03  0.00000000000E+00 0.  1.
         23    2    1    2    0    0 -0.49444204092E+02  0.14960873703E+03 -0.29933912327E+03  0.35048258002E+03  0.91687647286E+02 0.  0.
        254    2    1    2    0    0  0.49444204092E+02 -0.14960873703E+03  0.81564251751E+03  0.12096908292E+04  0.87934730472E+03 0.  0.
         23    2    4    4    0    0  0.33886208222E+03  0.15512218152E+03  0.64079264213E+03  0.74665977964E+03  0.89415962605E+02 0.  0.
         23    2    4    4    0    0 -0.28941787812E+03 -0.30473091854E+03  0.17484987539E+03  0.46303104954E+03  0.84862435858E+02 0.  0.
         13    1    3    3    0    0 -0.51799922333E+01  0.13583168320E+03 -0.22503875778E+03  0.26290591661E+03  0.00000000000E+00 0.  1.
        -13    1    3    3    0    0 -0.44264211858E+02  0.13777053824E+02 -0.74300365484E+02  0.87576663413E+02  0.00000000000E+00 0. -1.
          2    1    5    5  502    0  0.27933408314E+03  0.16240336189E+03  0.53216430750E+03  0.62257628620E+03  0.00000000000E+00 0. -1.
          1    1    6    6  503    0 -0.28988643089E+03 -0.30766393873E+03  0.16677699833E+03  0.45442910248E+03  0.00000000000E+00 0. -1.
         -2    1    5    5    0  502  0.59527999076E+02 -0.72811803771E+01  0.10862833462E+03  0.12408349344E+03  0.00000000000E+00 0.  1.
         -1    1    6    6    0  503  0.46855276899E+00  0.29330201902E+01  0.80728770578E+01  0.86019470542E+01  0.00000000000E+00 0.  1.
<mgrwt>
<rscale>  0 0.14722676E+04</rscale>
<asrwt>0</asrwt>
<pdfrwt beam="1">  1        2 0.15972898E+00 0.14722676E+04</pdfrwt>
<pdfrwt beam="2">  1       -2 0.80297694E-01 0.14722676E+04</pdfrwt>
<totfact> 0.31610106E+01</totfact>
</mgrwt>
</event>
<event>
12    1  0.4802930E-008  0.2129619E+04  0.7818608E-02  0.8548307E-01
         -1   -1    0    0    0  501 -0.00000000000E+00  0.00000000000E+00  0.65281583043E+03  0.65281583043E+03  0.00000000000E+00 0.  1.
          1   -1    0    0  501    0  0.00000000000E+00 -0.00000000000E+00 -0.17368129374E+04  0.17368129374E+04  0.00000000000E+00 0. -1.
         23    2    1    2    0    0  0.70373538989E+03  0.27484283323E+02  0.13181912133E+03  0.72235809479E+03  0.91793526740E+02 0.  0.
        254    2    1    2    0    0 -0.70373538989E+03 -0.27484283323E+02 -0.12158162283E+04  0.16672706731E+04  0.89754304152E+03 0.  0.
         23    2    4    4    0    0 -0.41174053844E+03 -0.16724794163E+02 -0.12857255347E+04  0.13529023556E+04  0.86282347192E+02 0.  0.
         23    2    4    4    0    0 -0.29199485145E+03 -0.10759489161E+02  0.69909306367E+02  0.31436831749E+03  0.92538467902E+02 0.  0.
         13    1    3    3    0    0  0.39357750555E+03  0.33346986259E+02  0.11631434370E+03  0.41175757542E+03  0.00000000000E+00 0. -1.
        -13    1    3    3    0    0  0.31015788434E+03 -0.58627029353E+01  0.15504777631E+02  0.31060051937E+03  0.00000000000E+00 0.  1.
          2    1    5    5  502    0 -0.64662551321E+01  0.10993408142E+02 -0.21308504787E+02  0.24833844935E+02  0.00000000000E+00 0. -1.
          1    1    6    6  503    0 -0.12422406440E+03  0.41155970291E+02  0.28432835878E+02  0.13391735595E+03  0.00000000000E+00 0. -1.
         -2    1    5    5    0  502 -0.40527428331E+03 -0.27718202304E+02 -0.12644170299E+04  0.13280685106E+04  0.00000000000E+00 0.  1.
         -1    1    6    6    0  503 -0.16777078705E+03 -0.51915459452E+02  0.41476470489E+02  0.18045096154E+03  0.00000000000E+00 0.  1.
<mgrwt>
<rscale>  0 0.21296187E+04</rscale>
<asrwt>0</asrwt>
<pdfrwt beam="1">  1        1 0.26720199E+00 0.21296187E+04</pdfrwt>
<pdfrwt beam="2">  1       -1 0.10043320E+00 0.21296187E+04</pdfrwt>
<totfact> 0.38936063E+00</totfact>
</mgrwt>
</event>
<event>
12    1  0.4802930E-008  0.1486315E+04  0.7818608E-02  0.8893604E-01
          2   -1    0    0  501    0  0.00000000000E+00  0.00000000000E+00  0.17715033236E+04  0.17715033236E+04  0.00000000000E+00 0. -1.
         -2   -1    0    0    0  501 -0.00000000000E+00 -0.00000000000E+00 -0.31175968996E+03  0.31175968996E+03  0.00000000000E+00 0.  1.
         23    2    1    2    0    0  0.35346848435E+03 -0.24676935857E+03  0.22174464930E+03  0.49507812358E+03  0.10048170577E+03 0.  0.
        254    2    1    2    0    0 -0.35346848435E+03  0.24676935857E+03  0.12379989843E+04  0.15881848900E+04  0.89657942971E+03 0.  0.
         23    2    4    4    0    0  0.24473809232E+03  0.11932966226E+02  0.69311595062E+03  0.74090949253E+03  0.92184736264E+02 0.  0.
         23    2    4    4    0    0 -0.59820657667E+03  0.23483639235E+03  0.54488303372E+03  0.84727539745E+03  0.89324348031E+02 0.  0.
         13    1    3    3    0    0  0.28056278532E+03 -0.16205732361E+03  0.12507430493E+03  0.34730625448E+03  0.00000000000E+00 0.  1.
        -13    1    3    3    0    0  0.72905699028E+02 -0.84712034965E+02  0.96670344369E+02  0.14777186911E+03  0.00000000000E+00 0. -1.
          2    1    5    5  502    0  0.15488782446E+03 -0.11956797726E+01  0.55019259654E+03  0.57157988164E+03  0.00000000000E+00 0. -1.
          4    1    6    6  503    0 -0.40989142045E+03  0.15511766389E+03  0.31573435541E+03  0.54014872896E+03  0.00000000000E+00 0. -1.
         -2    1    5    5    0  502  0.89850267858E+02  0.13128645998E+02  0.14292335409E+03  0.16932961089E+03  0.00000000000E+00 0.  1.
         -4    1    6    6    0  503 -0.18831515621E+03  0.79718728458E+02  0.22914867831E+03  0.30712666849E+03  0.00000000000E+00 0.  1.
<mgrwt>
<rscale>  0 0.14863153E+04</rscale>
<asrwt>0</asrwt>
<pdfrwt beam="1">  1        2 0.27253897E+00 0.14863153E+04</pdfrwt>
<pdfrwt beam="2">  1       -2 0.47963030E-01 0.14863153E+04</pdfrwt>
<totfact> 0.35645028E+01</totfact>
</mgrwt>
</event>
<event>
12    1  0.4802930E-008  0.1634409E+04  0.7818608E-02  0.8799684E-01
         -2   -1    0    0    0  501 -0.00000000000E+00  0.00000000000E+00  0.20746353954E+03  0.20746353954E+03  0.00000000000E+00 0.  1.
          2   -1    0    0  501    0  0.00000000000E+00 -0.00000000000E+00 -0.32189898960E+04  0.32189898960E+04  0.00000000000E+00 0. -1.
         23    2    1    2    0    0 -0.37076983636E+03 -0.36653436545E+03 -0.60402693343E+03  0.80323678941E+03  0.92320587803E+02 0.  0.
        254    2    1    2    0    0  0.37076983636E+03  0.36653436545E+03 -0.24074994230E+04  0.26232166462E+04  0.90188379965E+03 0.  0.
         23    2    4    4    0    0 -0.23472288388E+03  0.20300539142E+03 -0.38099043468E+03  0.49973668897E+03  0.90978161235E+02 0.  0.
         23    2    4    4    0    0  0.60549272025E+03  0.16352897403E+03 -0.20265089884E+04  0.21234799572E+04  0.95211811177E+02 0.  0.
         13    1    3    3    0    0 -0.61046981336E+02 -0.66413413054E+02 -0.16355246890E+03  0.18678031333E+03  0.00000000000E+00 0. -1.
        -13    1    3    3    0    0 -0.30972285503E+03 -0.30012095240E+03 -0.44047446453E+03  0.61645647608E+03  0.00000000000E+00 0.  1.
          2    1    5    5  502    0 -0.25145935717E+02  0.79361653158E+00 -0.77542337593E+01  0.26326337601E+02  0.00000000000E+00 0. -1.
          3    1    6    6  503    0  0.38686290858E+03  0.12799423708E+03 -0.14398076454E+04  0.14963594123E+04  0.00000000000E+00 0. -1.
         -2    1    5    5    0  502 -0.20957694817E+03  0.20221177489E+03 -0.37323620092E+03  0.47341035137E+03  0.00000000000E+00 0.  1.
         -3    1    6    6    0  503  0.21862981167E+03  0.35534736946E+02 -0.58670134293E+03  0.62712054493E+03  0.00000000000E+00 0.  1.
<mgrwt>
<rscale>  0 0.16344088E+04</rscale>
<asrwt>0</asrwt>
<pdfrwt beam="1">  1        2 0.49522922E+00 0.16344088E+04</pdfrwt>
<pdfrwt beam="2">  1       -2 0.31917468E-01 0.16344088E+04</pdfrwt>
<totfact> 0.11087751E+01</totfact>
</mgrwt>
</event>
<event>
12    1  0.4802930E-008  0.2559606E+04  0.7818608E-02  0.8382053E-01
          2   -1    0    0  501    0  0.00000000000E+00  0.00000000000E+00  0.27674201782E+04  0.27674201782E+04  0.00000000000E+00 0. -1.
         -2   -1    0    0    0  501 -0.00000000000E+00 -0.00000000000E+00 -0.59184940187E+03  0.59184940187E+03  0.00000000000E+00 0.  1.
         23    2    1    2    0    0 -0.56182812294E+03  0.75644369479E+03  0.16754917397E+04  0.19244357530E+04  0.91227707906E+02 0.  0.
        254    2    1    2    0    0  0.56182812294E+03 -0.75644369479E+03  0.50007903665E+03  0.14348338270E+04  0.95958906058E+03 0.  0.
         23    2    4    4    0    0  0.19875611125E+03  0.12092295894E+02 -0.22488355384E+03  0.31400628717E+03  0.91526609338E+02 0.  0.
         23    2    4    4    0    0  0.36307201169E+03 -0.76853599069E+03  0.72496259049E+03  0.11208275399E+04  0.90635323447E+02 0.  0.
         11    1    3    3    0    0 -0.43110663738E+03  0.55211559607E+03  0.13149473701E+04  0.14898896437E+04  0.00000000000E+00 0. -1.
        -11    1    3    3    0    0 -0.13072148556E+03  0.20432809872E+03  0.36054436957E+03  0.43454610934E+03  0.00000000000E+00 0.  1.
          2    1    5    5  502    0  0.11656654170E+03  0.40465588380E+02 -0.17384633424E+03  0.21318482688E+03  0.00000000000E+00 0. -1.
          1    1    6    6  503    0  0.31256697485E+03 -0.61217672018E+03  0.54556626977E+03  0.87755398991E+03  0.00000000000E+00 0. -1.
         -2    1    5    5    0  502  0.82189569552E+02 -0.28373292487E+02 -0.51037219604E+02  0.10082146029E+03  0.00000000000E+00 0.  1.
         -1    1    6    6    0  503  0.50505036840E+02 -0.15635927051E+03  0.17939632072E+03  0.24327354996E+03  0.00000000000E+00 0.  1.
<mgrwt>
<rscale>  0 0.25596062E+04</rscale>
<asrwt>0</asrwt>
<pdfrwt beam="1">  1        2 0.42575694E+00 0.25596062E+04</pdfrwt>
<pdfrwt beam="2">  1       -2 0.91053756E-01 0.25596062E+04</pdfrwt>
<totfact> 0.22087946E+00</totfact>
</mgrwt>
</event>
<event>
12    1  0.4802930E-008  0.2799837E+04  0.7818608E-02  0.8303319E-01
         -1   -1    0    0    0  501 -0.00000000000E+00  0.00000000000E+00  0.15160957935E+04  0.15160957935E+04  0.00000000000E+00 0.  1.
          1   -1    0    0  501    0  0.00000000000E+00 -0.00000000000E+00 -0.12926434372E+04  0.12926434372E+04  0.00000000000E+00 0. -1.
         23    2    1    2    0    0 -0.10445545106E+03  0.41898940000E+03 -0.10791732734E+04  0.11659919432E+04  0.91973903715E+02 0.  0.
        254    2    1    2    0    0  0.10445545106E+03 -0.41898940000E+03  0.13026256297E+04  0.16427472875E+04  0.90295185968E+03 0.  0.
         23    2    4    4    0    0  0.31362750121E+03 -0.61374015116E+03  0.82801860300E+03  0.10815248318E+04  0.95089285287E+02 0.  0.
         23    2    4    4    0    0 -0.20917205015E+03  0.19475075116E+03  0.47460702674E+03  0.56122245576E+03  0.89654968504E+02 0.  0.
         11    1    3    3    0    0 -0.70010717687E+02  0.28576005506E+03 -0.61327420551E+03  0.68019523727E+03  0.00000000000E+00 0. -1.
        -11    1    3    3    0    0 -0.34444733375E+02  0.13322934494E+03 -0.46589906790E+03  0.48579670592E+03  0.00000000000E+00 0.  1.
          2    1    6    6  502    0 -0.21403874280E+03  0.18238404277E+03  0.46890339219E+03  0.54676038050E+03  0.00000000000E+00 0. -1.
          2    1    5    5  503    0  0.28312107515E+03 -0.46971713925E+03  0.66006855476E+03  0.85818542931E+03  0.00000000000E+00 0. -1.
         -2    1    5    5    0  503  0.30506426066E+02 -0.14402301191E+03  0.16795004824E+03  0.22333940247E+03  0.00000000000E+00 0.  1.
         -2    1    6    6    0  502  0.48666926509E+01  0.12366708391E+02  0.57036345509E+01  0.14462075262E+02  0.00000000000E+00 0.  1.
<mgrwt>
<rscale>  0 0.27998366E+04</rscale>
<asrwt>0</asrwt>
<pdfrwt beam="1">  1        1 0.19886822E+00 0.27998366E+04</pdfrwt>
<pdfrwt beam="2">  1       -1 0.23324551E+00 0.27998366E+04</pdfrwt>
<totfact> 0.71206908E-01</totfact>
</mgrwt>
</event>
<event>
12    1  0.4802930E-008  0.1378010E+04  0.7818608E-02  0.8969892E-01
          1   -1    0    0  501    0  0.00000000000E+00  0.00000000000E+00  0.21457336341E+04  0.21457336341E+04  0.00000000000E+00 0. -1.
         -1   -1    0    0    0  501 -0.00000000000E+00 -0.00000000000E+00 -0.22124273068E+03  0.22124273068E+03  0.00000000000E+00 0.  1.
         23    2    1    2    0    0  0.10097373432E+03 -0.95940110043E+02  0.11576555371E+04  0.11694385695E+04  0.89554595222E+02 0.  0.
        254    2    1    2    0    0 -0.10097373432E+03  0.95940110043E+02  0.76683536638E+03  0.11975377953E+04  0.90920849775E+03 0.  0.
         23    2    4    4    0    0 -0.10139071703E+03 -0.34125034234E+03  0.63216109160E+03  0.73145023070E+03  0.93058694423E+02 0.  0.
         23    2    4    4    0    0  0.41698270713E+00  0.43719045238E+03  0.13467427477E+03  0.46608756463E+03  0.89245683861E+02 0.  0.
         13    1    3    3    0    0  0.21888356934E+02 -0.47912027875E+02  0.72950332322E+03  0.73140259856E+03  0.00000000000E+00 0. -1.
        -13    1    3    3    0    0  0.79085377390E+02 -0.48028082168E+02  0.42815221384E+03  0.43803597091E+03  0.00000000000E+00 0.  1.
          1    1    5    5  502    0 -0.19511143506E+02 -0.35687149260E+02  0.14494580095E+03  0.15054415484E+03  0.00000000000E+00 0. -1.
          3    1    6    6  503    0 -0.39310915355E+00  0.99493434914E+02 -0.72942060394E+01  0.99761232789E+02  0.00000000000E+00 0. -1.
         -1    1    5    5    0  502 -0.81879573526E+02 -0.30556319308E+03  0.48721529065E+03  0.58090607586E+03  0.00000000000E+00 0.  1.
         -3    1    6    6    0  503  0.81009186068E+00  0.33769701747E+03  0.14196848081E+03  0.36632633184E+03  0.00000000000E+00 0.  1.
<mgrwt>
<rscale>  0 0.13780101E+04</rscale>
<asrwt>0</asrwt>
<pdfrwt beam="1">  1        1 0.33011285E+00 0.13780101E+04</pdfrwt>
<pdfrwt beam="2">  1       -1 0.34037345E-01 0.13780101E+04</pdfrwt>
<totfact> 0.18931365E+01</totfact>
</mgrwt>
</event>
<event>
12    1  0.4802930E-008  0.1203018E+04  0.7818608E-02  0.9110219E-01
          2   -1    0    0  501    0  0.00000000000E+00  0.00000000000E+00  0.14870426322E+04  0.14870426322E+04  0.00000000000E+00 0. -1.
         -2   -1    0    0    0  501 -0.00000000000E+00 -0.00000000000E+00 -0.24331061858E+03  0.24331061858E+03  0.00000000000E+00 0.  1.
         23    2    1    2    0    0 -0.79493353298E+02 -0.13216183640E+03 -0.10312655057E+02  0.17812255384E+03  0.88517507367E+02 0.  0.
        254    2    1    2    0    0  0.79493353298E+02  0.13216183640E+03  0.12540446687E+04  0.15522306970E+04  0.90166854292E+03 0.  0.
         23    2    4    4    0    0 -0.30347739679E+03 -0.12701072983E+03  0.90014277929E+03  0.96262121012E+03  0.90290172350E+02 0.  0.
         23    2    4    4    0    0  0.38297075008E+03  0.25917256623E+03  0.35390188942E+03  0.58960948685E+03  0.92497487227E+02 0.  0.
         13    1    3    3    0    0 -0.20747408300E+02 -0.27076144552E+02 -0.41536495481E+02  0.53748051238E+02  0.00000000000E+00 0.  1.
        -13    1    3    3    0    0 -0.58745944998E+02 -0.10508569185E+03  0.31223840424E+02  0.12437450260E+03  0.00000000000E+00 0. -1.
          2    1    5    5  502    0 -0.27902586456E+02  0.14405114569E+02  0.84461067737E+02  0.90109564531E+02  0.00000000000E+00 0. -1.
          3    1    6    6  503    0  0.40915131328E+02  0.15504260675E+02  0.70454511492E+02  0.82935325768E+02  0.00000000000E+00 0. -1.
         -2    1    5    5    0  502 -0.27557481033E+03 -0.14141584440E+03  0.81568171155E+03  0.87251164559E+03  0.00000000000E+00 0.  1.
         -3    1    6    6    0  503  0.34205561876E+03  0.24366830556E+03  0.28344737792E+03  0.50667416108E+03  0.00000000000E+00 0.  1.
<mgrwt>
<rscale>  0 0.12030183E+04</rscale>
<asrwt>0</asrwt>
<pdfrwt beam="1">  1        2 0.22877578E+00 0.12030183E+04</pdfrwt>
<pdfrwt beam="2">  1       -2 0.37432404E-01 0.12030183E+04</pdfrwt>
<totfact> 0.85673865E+01</totfact>
</mgrwt>
</event>
<event>
12    1  0.4802930E-008  0.2782626E+04  0.7818608E-02  0.8308683E-01
          1   -1    0    0  501    0  0.00000000000E+00  0.00000000000E+00  0.26521201107E+04  0.26521201107E+04  0.00000000000E+00 0. -1.
         -1   -1    0    0    0  501 -0.00000000000E+00 -0.00000000000E+00 -0.72988840731E+03  0.72988840731E+03  0.00000000000E+00 0.  1.
         23    2    1    2    0    0  0.33614400562E+02  0.10056145066E+04  0.17564040456E+04  0.20263326961E+04  0.93158791556E+02 0.  0.
        254    2    1    2    0    0 -0.33614400562E+02 -0.10056145066E+04  0.16582765783E+03  0.13556758219E+04  0.89329035486E+03 0.  0.
         23    2    4    4    0    0 -0.43283902022E+03 -0.71984574268E+03  0.82877521063E+02  0.84895922722E+03  0.91299371811E+02 0.  0.
         23    2    4    4    0    0  0.39922461966E+03 -0.28576876391E+03  0.82950136768E+02  0.50671659464E+03  0.94004780362E+02 0.  0.
         11    1    3    3    0    0  0.60748289151E+02  0.86906941800E+03  0.15227992736E+04  0.17543915286E+04  0.00000000000E+00 0. -1.
        -11    1    3    3    0    0 -0.27133888589E+02  0.13654508860E+03  0.23360477191E+03  0.27194116751E+03  0.00000000000E+00 0.  1.
          1    1    5    5  502    0 -0.33553480459E+03 -0.60566495805E+03  0.42996101374E+02  0.69373071954E+03  0.00000000000E+00 0. -1.
          3    1    6    6  503    0  0.77295623821E+02 -0.37545849863E+02  0.48677435498E+02  0.98761313430E+02  0.00000000000E+00 0. -1.
         -1    1    5    5    0  502 -0.97304215627E+02 -0.11418078464E+03  0.39881419689E+02  0.15522850768E+03  0.00000000000E+00 0.  1.
         -3    1    6    6    0  503  0.32192899584E+03 -0.24822291404E+03  0.34272701270E+02  0.40795528121E+03  0.00000000000E+00 0.  1.
<mgrwt>
<rscale>  0 0.27826259E+04</rscale>
<asrwt>0</asrwt>
<pdfrwt beam="1">  1        1 0.40801847E+00 0.27826259E+04</pdfrwt>
<pdfrwt beam="2">  1       -1 0.11229053E+00 0.27826259E+04</pdfrwt>
<totfact> 0.66795154E-01</totfact>
</mgrwt>
</event>
<event>
12    1  0.4802930E-008  0.1725214E+04  0.7818608E-02  0.8747113E-01
         -2   -1    0    0    0  501 -0.00000000000E+00  0.00000000000E+00  0.31010700783E+03  0.31010700783E+03  0.00000000000E+00 0.  1.
          2   -1    0    0  501    0  0.00000000000E+00 -0.00000000000E+00 -0.23994636649E+04  0.23994636649E+04  0.00000000000E+00 0. -1.
         23    2    1    2    0    0 -0.43952811294E+03  0.38721421451E+03 -0.10411213481E+04  0.11982387914E+04  0.93395556391E+02 0.  0.
        254    2    1    2    0    0  0.43952811294E+03 -0.38721421451E+03 -0.10482353090E+04  0.15113318813E+04  0.91771835677E+03 0.  0.
         23    2    4    4    0    0  0.66127893959E+03 -0.43420338617E+02 -0.66159658333E+03  0.94071068136E+03  0.89729511243E+02 0.  0.
         23    2    4    4    0    0 -0.22175082665E+03 -0.34379387589E+03 -0.38663872566E+03  0.57062119991E+03  0.93548871664E+02 0.  0.
         13    1    3    3    0    0 -0.36993660108E+03  0.32430383396E+03 -0.93550539796E+03  0.10569751251E+04  0.00000000000E+00 0. -1.
        -13    1    3    3    0    0 -0.69591511861E+02  0.62910380552E+02 -0.10561595010E+03  0.14126366631E+03  0.00000000000E+00 0.  1.
          2    1    5    5  502    0  0.26995629431E+03 -0.57722780417E+02 -0.30039984088E+03  0.40798086306E+03  0.00000000000E+00 0.  1.
          4    1    6    6  503    0 -0.13650959304E+03 -0.13717235979E+03 -0.14778966879E+03  0.24350135828E+03  0.00000000000E+00 0.  1.
         -2    1    5    5    0  502  0.39132264528E+03  0.14302441800E+02 -0.36119674245E+03  0.53272981830E+03  0.00000000000E+00 0. -1.
         -4    1    6    6    0  503 -0.85241233612E+02 -0.20662151610E+03 -0.23884905687E+03  0.32711984164E+03  0.00000000000E+00 0. -1.
<mgrwt>
<rscale>  0 0.17252136E+04</rscale>
<asrwt>0</asrwt>
<pdfrwt beam="1">  1        2 0.36914827E+00 0.17252136E+04</pdfrwt>
<pdfrwt beam="2">  1       -2 0.47708769E-01 0.17252136E+04</pdfrwt>
<totfact> 0.15745809E+01</totfact>
</mgrwt>
</event>
<event>
12    1  0.4802930E-008  0.1772228E+04  0.7818608E-02  0.8721209E-01
          2   -1    0    0  501    0  0.00000000000E+00  0.00000000000E+00  0.17795419444E+04  0.17795419444E+04  0.00000000000E+00 0. -1.
         -2   -1    0    0    0  501 -0.00000000000E+00 -0.00000000000E+00 -0.44123622565E+03  0.44123622565E+03  0.00000000000E+00 0.  1.
         23    2    1    2    0    0 -0.35424427154E+03 -0.17952465032E+03  0.11308123349E+04  0.12019870860E+04  0.91204792851E+02 0.  0.
        254    2    1    2    0    0  0.35424427154E+03  0.17952465032E+03  0.20749338382E+03  0.10187910840E+04  0.91496648273E+03 0.  0.
         23    2    4    4    0    0  0.48751349238E+03  0.20359713884E+03 -0.20598249669E+03  0.57429910222E+03  0.90936624481E+02 0.  0.
         23    2    4    4    0    0 -0.13326922084E+03 -0.24072488525E+02  0.41347588051E+03  0.44449198178E+03  0.90943104049E+02 0.  0.
         13    1    3    3    0    0 -0.30030965676E+03 -0.16621764810E+03  0.86869610276E+03  0.93404877572E+03  0.00000000000E+00 0. -1.
        -13    1    3    3    0    0 -0.53934614773E+02 -0.13307002221E+02  0.26211623214E+03  0.26793831031E+03  0.00000000000E+00 0.  1.
          4    1    5    5  502    0  0.75060005686E+01  0.21101999857E+02 -0.58319064935E+01  0.23144018144E+02  0.00000000000E+00 0. -1.
          3    1    6    6  503    0 -0.12922529749E+03 -0.44626208745E+02  0.30833985193E+03  0.33728940142E+03  0.00000000000E+00 0. -1.
         -4    1    5    5    0  502  0.48000749181E+03  0.18249513899E+03 -0.20015059019E+03  0.55115508408E+03  0.00000000000E+00 0.  1.
         -3    1    6    6    0  503 -0.40439233506E+01  0.20553720220E+02  0.10513602858E+03  0.10720258036E+03  0.00000000000E+00 0.  1.
<mgrwt>
<rscale>  0 0.17722284E+04</rscale>
<asrwt>0</asrwt>
<pdfrwt beam="1">  1        2 0.27377568E+00 0.17722284E+04</pdfrwt>
<pdfrwt beam="2">  1       -2 0.67882497E-01 0.17722284E+04</pdfrwt>
<totfact> 0.16655657E+01</totfact>
</mgrwt>
</event>
<event>
12    1  0.4802930E-008  0.2027110E+04  0.7818608E-02  0.8594050E-01
          1   -1    0    0  501    0  0.00000000000E+00  0.00000000000E+00  0.50570793575E+03  0.50570793575E+03  0.00000000000E+00 0. -1.
         -1   -1    0    0    0  501 -0.00000000000E+00 -0.00000000000E+00 -0.20313970193E+04  0.20313970193E+04  0.00000000000E+00 0.  1.
         23    2    1    2    0    0 -0.92973176750E+02 -0.48363652615E+03 -0.14155949110E+04  0.15015427987E+04  0.90407540166E+02 0.  0.
        254    2    1    2    0    0  0.92973176750E+02  0.48363652615E+03 -0.11009417258E+03  0.10355621564E+04  0.90427869147E+03 0.  0.
         23    2    4    4    0    0  0.20968307592E+03 -0.18953617923E+03 -0.17262679341E+03  0.34351955755E+03  0.91185092273E+02 0.  0.
         23    2    4    4    0    0 -0.11670989917E+03  0.67317270537E+03  0.62532620823E+02  0.69204259882E+03  0.90719006217E+02 0.  0.
         11    1    3    3    0    0  0.63741357805E+00 -0.22249879175E+03 -0.58781362795E+03  0.62851490025E+03  0.00000000000E+00 0.  1.
        -11    1    3    3    0    0 -0.93610590328E+02 -0.26113773440E+03 -0.82778128301E+03  0.87302789844E+03  0.00000000000E+00 0. -1.
          2    1    5    5  502    0 -0.46418051061E+00  0.71292692218E+01  0.12563864761E+01  0.72539954619E+01  0.00000000000E+00 0. -1.
          3    1    6    6  503    0  0.52200872832E+00 -0.10629441155E+01  0.51557461028E+01  0.52899963309E+01  0.00000000000E+00 0. -1.
         -2    1    5    5    0  502  0.21014725643E+03 -0.19666544845E+03 -0.17388317988E+03  0.33626556208E+03  0.00000000000E+00 0.  1.
         -3    1    6    6    0  503 -0.11723190790E+03  0.67423564949E+03  0.57376874720E+02  0.68675260249E+03  0.00000000000E+00 0.  1.
<mgrwt>
<rscale>  0 0.20271099E+04</rscale>
<asrwt>0</asrwt>
<pdfrwt beam="1">  1        1 0.77801220E-01 0.20271099E+04</pdfrwt>
<pdfrwt beam="2">  1       -1 0.31252262E+00 0.20271099E+04</pdfrwt>
<totfact> 0.11066155E+00</totfact>
</mgrwt>
</event>
<event>
12    1  0.4802930E-008  0.1745369E+04  0.7818608E-02  0.8735904E-01
         -1   -1    0    0    0  501 -0.00000000000E+00  0.00000000000E+00  0.34356876685E+03  0.34356876685E+03  0.00000000000E+00 0.  1.
          1   -1    0    0  501    0  0.00000000000E+00 -0.00000000000E+00 -0.22166687187E+04  0.22166687187E+04  0.00000000000E+00 0. -1.
         23    2    1    2    0    0 -0.55619383221E+03 -0.29317781723E+03 -0.66554595722E+03  0.92014179371E+03  0.91677084704E+02 0.  0.
        254    2    1    2    0    0  0.55619383221E+03  0.29317781723E+03 -0.12075539947E+04  0.16400956919E+04  0.91456132489E+03 0.  0.
         23    2    4    4    0    0  0.58155707876E+03  0.19655886027E+03 -0.13236939445E+04  0.14619214492E+04  0.90579487207E+02 0.  0.
         23    2    4    4    0    0 -0.25363246556E+02  0.96618956962E+02  0.11613994987E+03  0.17817424265E+03  0.90989316238E+02 0.  0.
         13    1    3    3    0    0 -0.10147603348E+03 -0.31839629786E+02 -0.73933056766E+02  0.12952700212E+03  0.00000000000E+00 0.  1.
        -13    1    3    3    0    0 -0.45471779873E+03 -0.26133818745E+03 -0.59161290045E+03  0.79061479159E+03  0.00000000000E+00 0. -1.
          1    1    5    5  502    0  0.24149790616E+03  0.35350435962E+02 -0.53460486964E+03  0.58768465918E+03  0.00000000000E+00 0. -1.
          3    1    6    6  503    0  0.69284994851E+01 -0.93351235187E+01 -0.61713821863E+01  0.13161861354E+02  0.00000000000E+00 0. -1.
         -1    1    5    5    0  502  0.34005917260E+03  0.16120842431E+03 -0.78908907489E+03  0.87423679003E+03  0.00000000000E+00 0.  1.
         -3    1    6    6    0  503 -0.32291746041E+02  0.10595408048E+03  0.12231133206E+03  0.16501238130E+03  0.00000000000E+00 0.  1.
<mgrwt>
<rscale>  0 0.17453689E+04</rscale>
<asrwt>0</asrwt>
<pdfrwt beam="1">  1        1 0.34102595E+00 0.17453689E+04</pdfrwt>
<pdfrwt beam="2">  1       -1 0.52856735E-01 0.17453689E+04</pdfrwt>
<totfact> 0.72633612E+00</totfact>
</mgrwt>
</event>
<event>
12    1  0.4802930E-008  0.3610047E+04  0.7818608E-02  0.8088194E-01
          1   -1    0    0  501    0  0.00000000000E+00  0.00000000000E+00  0.18712551406E+04  0.18712551406E+04  0.00000000000E+00 0.  1.
         -1   -1    0    0    0  501 -0.00000000000E+00 -0.00000000000E+00 -0.17411365122E+04  0.17411365122E+04  0.00000000000E+00 0. -1.
         23    2    1    2    0    0  0.42407661241E+03  0.16206410895E+04  0.28429258560E+03  0.17015617312E+04  0.90396552918E+02 0.  0.
        254    2    1    2    0    0 -0.42407661241E+03 -0.16206410895E+04 -0.15417395711E+03  0.19108299216E+04  0.90619140685E+03 0.  0.
         23    2    4    4    0    0 -0.39546801399E+03 -0.10127618016E+04 -0.50395070231E+03  0.12019803663E+04  0.93322418818E+02 0.  0.
         23    2    4    4    0    0 -0.28608598422E+02 -0.60787928792E+03  0.34977674520E+03  0.70884955522E+03  0.98935533827E+02 0.  0.
         11    1    3    3    0    0  0.52120118981E+02  0.24111595011E+03  0.11426293257E+02  0.24694932350E+03  0.00000000000E+00 0. -1.
        -11    1    3    3    0    0  0.37195649343E+03  0.13795251394E+04  0.27286629234E+03  0.14546124078E+04  0.00000000000E+00 0.  1.
          2    1    5    5  502    0 -0.37670270669E+03 -0.97832883836E+03 -0.50295439305E+03  0.11627533559E+04  0.00000000000E+00 0. -1.
          3    1    6    6  503    0 -0.20540247008E+02 -0.44867638412E+03  0.20581279080E+03  0.49405597282E+03  0.00000000000E+00 0. -1.
         -2    1    5    5    0  502 -0.18765307302E+02 -0.34432963235E+02 -0.99630926086E+00  0.39227010432E+02  0.00000000000E+00 0.  1.
         -3    1    6    6    0  503 -0.80683514147E+01 -0.15920290380E+03  0.14396395440E+03  0.21479358240E+03  0.00000000000E+00 0.  1.
<mgrwt>
<rscale>  0 0.36100475E+04</rscale>
<asrwt>0</asrwt>
<pdfrwt beam="1">  1        1 0.28788541E+00 0.36100475E+04</pdfrwt>
<pdfrwt beam="2">  1       -1 0.26786716E+00 0.36100475E+04</pdfrwt>
<totfact> 0.15714559E-01</totfact>
</mgrwt>
</event>
<event>
12    1  0.4802930E-008  0.1280845E+04  0.7818608E-02  0.9044894E-01
          1   -1    0    0  501    0  0.00000000000E+00  0.00000000000E+00  0.22841941146E+04  0.22841941146E+04  0.00000000000E+00 0. -1.
         -1   -1    0    0    0  501 -0.00000000000E+00 -0.00000000000E+00 -0.17955619530E+03  0.17955619530E+03  0.00000000000E+00 0.  1.
         23    2    1    2    0    0 -0.66086895181E+01  0.98162653769E+02  0.11195645018E+04  0.11274681743E+04  0.89890093412E+02 0.  0.
        254    2    1    2    0    0  0.66086895181E+01 -0.98162653769E+02  0.98507341742E+03  0.13362821356E+04  0.89755263173E+03 0.  0.
         23    2    4    4    0    0 -0.37997728031E+03 -0.12564739916E+03  0.79335861410E+03  0.89412095503E+03  0.99319631443E+02 0.  0.
         23    2    4    4    0    0  0.38658596983E+03  0.27484745390E+02  0.19171480332E+03  0.44216118053E+03  0.92454423655E+02 0.  0.
         11    1    3    3    0    0 -0.33577029746E+02  0.39120638590E+02  0.23812205039E+03  0.24363897917E+03  0.00000000000E+00 0. -1.
        -11    1    3    3    0    0  0.26968340228E+02  0.59042015179E+02  0.88144245145E+03  0.88382919512E+03  0.00000000000E+00 0.  1.
          3    1    6    6  502    0  0.21883505531E+03  0.20493049158E+02  0.57437234789E+02  0.22717346332E+03  0.00000000000E+00 0. -1.
          3    1    5    5  503    0 -0.36562412691E+03 -0.95424262967E+02  0.74448297452E+03  0.83489022721E+03  0.00000000000E+00 0. -1.
         -3    1    5    5    0  503 -0.14353153405E+02 -0.30223136191E+02  0.48875639579E+02  0.59230727820E+02  0.00000000000E+00 0.  1.
         -3    1    6    6    0  502  0.16775091452E+03  0.69916962316E+01  0.13427756853E+03  0.21498771721E+03  0.00000000000E+00 0.  1.
<mgrwt>
<rscale>  0 0.12808454E+04</rscale>
<asrwt>0</asrwt>
<pdfrwt beam="1">  1        1 0.35141446E+00 0.12808454E+04</pdfrwt>
<pdfrwt beam="2">  1       -1 0.27624032E-01 0.12808454E+04</pdfrwt>
<totfact> 0.22200632E+01</totfact>
</mgrwt>
</event>
<event>
12    1  0.4802930E-008  0.1578066E+04  0.7818608E-02  0.8834138E-01
          2   -1    0    0  501    0  0.00000000000E+00  0.00000000000E+00  0.62635635392E+03  0.62635635392E+03  0.00000000000E+00 0. -1.
         -2   -1    0    0    0  501 -0.00000000000E+00 -0.00000000000E+00 -0.99395937491E+03  0.99395937491E+03  0.00000000000E+00 0.  1.
         23    2    1    2    0    0  0.34062860675E+03  0.31623361903E+03 -0.38440227483E+03  0.61059900604E+03  0.95049922324E+02 0.  0.
        254    2    1    2    0    0 -0.34062860675E+03 -0.31623361903E+03  0.16799253839E+02  0.10097167228E+04  0.89622212414E+03 0.  0.
         23    2    4    4    0    0  0.17888435571E+03  0.80713810959E+02  0.23005648822E+03  0.31643080633E+03  0.93210168038E+02 0.  0.
         23    2    4    4    0    0 -0.51951296246E+03 -0.39694742999E+03 -0.21325723438E+03  0.69328591646E+03  0.87782308051E+02 0.  0.
         13    1    3    3    0    0  0.28285720717E+03  0.29734767032E+03 -0.30881200609E+03  0.51360363297E+03  0.00000000000E+00 0.  1.
        -13    1    3    3    0    0  0.57771399581E+02  0.18885948712E+02 -0.75590268742E+02  0.96995373069E+02  0.00000000000E+00 0. -1.
          2    1    5    5  502    0  0.14961191702E+03  0.21942490006E+02  0.16896543426E+03  0.22674769361E+03  0.00000000000E+00 0.  1.
          4    1    6    6  503    0 -0.17502270263E+01 -0.15783692991E+02 -0.10890691604E+02  0.19256048990E+02  0.00000000000E+00 0. -1.
         -2    1    5    5    0  502  0.29272438687E+02  0.58771320953E+02  0.61091053952E+02  0.89683112714E+02  0.00000000000E+00 0. -1.
         -4    1    6    6    0  503 -0.51776273544E+03 -0.38116373700E+03 -0.20236654277E+03  0.67402986747E+03  0.00000000000E+00 0.  1.
<mgrwt>
<rscale>  0 0.15780656E+04</rscale>
<asrwt>0</asrwt>
<pdfrwt beam="1">  1        2 0.96362517E-01 0.15780656E+04</pdfrwt>
<pdfrwt beam="2">  1       -2 0.15291683E+00 0.15780656E+04</pdfrwt>
<totfact> 0.12858613E+01</totfact>
</mgrwt>
</event>
<event>
12    1  0.4802930E-008  0.1875616E+04  0.7818608E-02  0.8667090E-01
          1   -1    0    0  501    0  0.00000000000E+00  0.00000000000E+00  0.22917985537E+04  0.22917985537E+04  0.00000000000E+00 0. -1.
         -1   -1    0    0    0  501 -0.00000000000E+00 -0.00000000000E+00 -0.38375255014E+03  0.38375255014E+03  0.00000000000E+00 0.  1.
         23    2    1    2    0    0  0.23110435211E+02  0.58017607053E+03  0.14098625086E+03  0.60455887806E+03  0.92064917743E+02 0.  0.
        254    2    1    2    0    0 -0.23110435211E+02 -0.58017607053E+03  0.17670597528E+04  0.20709922258E+04  0.91069768013E+03 0.  0.
         23    2    4    4    0    0 -0.43379237487E+03 -0.36359049249E+03  0.70836805657E+03  0.91134555106E+03  0.91605344508E+02 0.  0.
         23    2    4    4    0    0  0.41068193966E+03 -0.21658557803E+03  0.10586916962E+04  0.11596466748E+04  0.91560551283E+02 0.  0.
         11    1    3    3    0    0  0.90970142020E+01  0.44569109882E+03  0.68110176806E+02  0.45095710153E+03  0.00000000000E+00 0.  1.
        -11    1    3    3    0    0  0.14013421009E+02  0.13448497171E+03  0.72876074054E+02  0.15360177653E+03  0.00000000000E+00 0. -1.
          2    1    5    5  502    0 -0.10752270780E+03 -0.14506371725E+03  0.21442420022E+03  0.28032544015E+03  0.00000000000E+00 0. -1.
          3    1    6    6  503    0  0.23017961591E+03 -0.70303063864E+02  0.52082636861E+03  0.57374670597E+03  0.00000000000E+00 0. -1.
         -2    1    5    5    0  502 -0.32626966707E+03 -0.21852677524E+03  0.49394385634E+03  0.63102011091E+03  0.00000000000E+00 0.  1.
         -3    1    6    6    0  503  0.18050232375E+03 -0.14628251417E+03  0.53786532757E+03  0.58589996880E+03  0.00000000000E+00 0.  1.
<mgrwt>
<rscale>  0 0.18756157E+04</rscale>
<asrwt>0</asrwt>
<pdfrwt beam="1">  1        1 0.35258438E+00 0.18756157E+04</pdfrwt>
<pdfrwt beam="2">  1       -1 0.59038855E-01 0.18756157E+04</pdfrwt>
<totfact> 0.51423742E+00</totfact>
</mgrwt>
</event>
<event>
12    1  0.4802930E-008  0.2110825E+04  0.7818608E-02  0.8556490E-01
          1   -1    0    0  501    0  0.00000000000E+00  0.00000000000E+00  0.18402364357E+04  0.18402364357E+04  0.00000000000E+00 0. -1.
         -1   -1    0    0    0  501 -0.00000000000E+00 -0.00000000000E+00 -0.60530040600E+03  0.60530040600E+03  0.00000000000E+00 0.  1.
         23    2    1    2    0    0  0.73023066974E+03 -0.18441923650E+03  0.27823660992E+02  0.75923945127E+03  0.91777461510E+02 0.  0.
        254    2    1    2    0    0 -0.73023066974E+03  0.18441923650E+03  0.12071123688E+04  0.16862973905E+04  0.90511398867E+03 0.  0.
         23    2    4    4    0    0 -0.67600349110E+03  0.30568097488E+03  0.37091912949E+03  0.83448776940E+03  0.91472718695E+02 0.  0.
         23    2    4    4    0    0 -0.54227178634E+02 -0.12126173838E+03  0.83619323926E+03  0.85180962107E+03  0.93356848015E+02 0.  0.
         11    1    3    3    0    0  0.70723384396E+03 -0.18186545576E+03  0.10472206686E+02  0.73031802740E+03  0.00000000000E+00 0. -1.
        -11    1    3    3    0    0  0.22996825778E+02 -0.25537807358E+01  0.17351454306E+02  0.28921423866E+02  0.00000000000E+00 0.  1.
          2    1    5    5  502    0 -0.98928817136E+02  0.30371139048E+02  0.20925703442E+02  0.10558031072E+03  0.00000000000E+00 0. -1.
          4    1    6    6  503    0 -0.14865680798E+02 -0.83035085946E+02  0.69868000713E+03  0.70375391034E+03  0.00000000000E+00 0.  1.
         -2    1    5    5    0  502 -0.57707467397E+03  0.27530983583E+03  0.34999342605E+03  0.72890745868E+03  0.00000000000E+00 0.  1.
         -4    1    6    6    0  503 -0.39361497836E+02 -0.38226652435E+02  0.13751323213E+03  0.14805571073E+03  0.00000000000E+00 0. -1.
<mgrwt>
<rscale>  0 0.21108253E+04</rscale>
<asrwt>0</asrwt>
<pdfrwt beam="1">  1        1 0.28311330E+00 0.21108253E+04</pdfrwt>
<pdfrwt beam="2">  1       -1 0.93123140E-01 0.21108253E+04</pdfrwt>
<totfact> 0.39351891E+00</totfact>
</mgrwt>
</event>
<event>
12    1  0.4802930E-008  0.1519048E+04  0.7818608E-02  0.8871884E-01
         -1   -1    0    0    0  501 -0.00000000000E+00  0.00000000000E+00  0.61244126995E+03  0.61244126995E+03  0.00000000000E+00 0.  1.
          1   -1    0    0  501    0  0.00000000000E+00 -0.00000000000E+00 -0.94192952025E+03  0.94192952025E+03  0.00000000000E+00 0. -1.
         23    2    1    2    0    0  0.88890064279E+02 -0.16707440396E+03 -0.56652322847E+03  0.60407283264E+03  0.90222606693E+02 0.  0.
        254    2    1    2    0    0 -0.88890064279E+02  0.16707440396E+03  0.23703497817E+03  0.95029795756E+03  0.90059165401E+03 0.  0.
         23    2    4    4    0    0  0.21308233210E+03 -0.11199658614E+03  0.41837930358E+03  0.49159506351E+03  0.93151217056E+02 0.  0.
         23    2    4    4    0    0 -0.30197239638E+03  0.27907099010E+03 -0.18134432541E+03  0.45870289405E+03  0.91949088947E+02 0.  0.
         11    1    3    3    0    0  0.53994387684E+02 -0.53178170328E+02 -0.33770667588E+03  0.34610563508E+03  0.00000000000E+00 0.  1.
        -11    1    3    3    0    0  0.34895676596E+02 -0.11389623363E+03 -0.22881655259E+03  0.25796719757E+03  0.00000000000E+00 0. -1.
          1    1    5    5  502    0  0.17963293891E+03 -0.61857347898E+02  0.25907307418E+03  0.32126808431E+03  0.00000000000E+00 0. -1.
          3    1    6    6  503    0 -0.17565908901E+03  0.14210049609E+03 -0.14614338303E+03  0.26908466130E+03  0.00000000000E+00 0. -1.
         -1    1    5    5    0  502  0.33449393189E+02 -0.50139238240E+02  0.15930622941E+03  0.17032697920E+03  0.00000000000E+00 0.  1.
         -3    1    6    6    0  503 -0.12631330738E+03  0.13697049400E+03 -0.35200942380E+02  0.18961823275E+03  0.00000000000E+00 0.  1.
<mgrwt>
<rscale>  0 0.15190477E+04</rscale>
<asrwt>0</asrwt>
<pdfrwt beam="1">  1        1 0.14491223E+00 0.15190477E+04</pdfrwt>
<pdfrwt beam="2">  1       -1 0.94221735E-01 0.15190477E+04</pdfrwt>
<totfact> 0.17728792E+01</totfact>
</mgrwt>
</event>
<event>
12    1  0.4802930E-008  0.1646243E+04  0.7818608E-02  0.8792632E-01
          1   -1    0    0  501    0  0.00000000000E+00  0.00000000000E+00  0.13688189627E+04  0.13688189627E+04  0.00000000000E+00 0. -1.
         -1   -1    0    0    0  501 -0.00000000000E+00 -0.00000000000E+00 -0.49497339492E+03  0.49497339492E+03  0.00000000000E+00 0.  1.
         23    2    1    2    0    0 -0.27996992931E+03  0.47218680027E+03  0.47499723531E+03  0.73186802292E+03  0.93085411022E+02 0.  0.
        254    2    1    2    0    0  0.27996992931E+03 -0.47218680027E+03  0.39884833249E+03  0.11319243347E+04  0.90599623152E+03 0.  0.
         23    2    4    4    0    0 -0.83398122981E+02 -0.36913422212E+03 -0.18452689464E+03  0.43105377840E+03  0.92422206066E+02 0.  0.
         23    2    4    4    0    0  0.36336805230E+03 -0.10305257815E+03  0.58337522713E+03  0.70087055632E+03  0.90756298917E+02 0.  0.
         13    1    3    3    0    0 -0.22709824768E+03  0.40076703502E+03  0.35008600598E+03  0.57857414567E+03  0.00000000000E+00 0. -1.
        -13    1    3    3    0    0 -0.52871681633E+02  0.71419765250E+02  0.12491122933E+03  0.15329387724E+03  0.00000000000E+00 0.  1.
          1    1    6    6  502    0  0.25502460660E+03 -0.31793863856E+02  0.35525626297E+03  0.43846939703E+03  0.00000000000E+00 0. -1.
          1    1    5    5  503    0 -0.26288596095E+02 -0.26955773628E+03 -0.15683765086E+03  0.31297046538E+03  0.00000000000E+00 0. -1.
         -1    1    5    5    0  503 -0.57109526886E+02 -0.99576485841E+02 -0.27689243777E+02  0.11808331302E+03  0.00000000000E+00 0.  1.
         -1    1    6    6    0  502  0.10834344570E+03 -0.71258714299E+02  0.22811896415E+03  0.26240115929E+03  0.00000000000E+00 0.  1.
<mgrwt>
<rscale>  0 0.16462430E+04</rscale>
<asrwt>0</asrwt>
<pdfrwt beam="1">  1        1 0.21058753E+00 0.16462430E+04</pdfrwt>
<pdfrwt beam="2">  1       -1 0.76149754E-01 0.16462430E+04</pdfrwt>
<totfact> 0.13377673E+01</totfact>
</mgrwt>
</event>
<event>
12    1  0.4802930E-008  0.1421074E+04  0.7818608E-02  0.8938704E-01
         -2   -1    0    0    0  501 -0.00000000000E+00  0.00000000000E+00  0.65684070032E+03  0.65684070032E+03  0.00000000000E+00 0. -1.
          2   -1    0    0  501    0  0.00000000000E+00 -0.00000000000E+00 -0.76862282290E+03  0.76862282290E+03  0.00000000000E+00 0.  1.
         23    2    1    2    0    0  0.11173160030E+03  0.37168739190E+03  0.97849450298E+02  0.41062144923E+03  0.91651469399E+02 0.  0.
        254    2    1    2    0    0 -0.11173160030E+03 -0.37168739190E+03 -0.20963157288E+03  0.10148420740E+04  0.91396037714E+03 0.  0.
         23    2    4    4    0    0 -0.24656495229E+03  0.23993931466E+03 -0.10593808832E+03  0.37229247753E+03  0.94940296226E+02 0.  0.
         23    2    4    4    0    0  0.13483335200E+03 -0.61162670656E+03 -0.10369348457E+03  0.64254959646E+03  0.99249101629E+02 0.  0.
         13    1    3    3    0    0 -0.10898879198E+02  0.70445850061E+01  0.89736838303E+01  0.15777792848E+02  0.00000000000E+00 0.  1.
        -13    1    3    3    0    0  0.12263047949E+03  0.36464280689E+03  0.88875766468E+02  0.39484365638E+03  0.00000000000E+00 0. -1.
          2    1    5    5  502    0 -0.12652709730E+03  0.10083394307E+03 -0.32878199829E+01  0.16182521493E+03  0.00000000000E+00 0. -1.
          1    1    6    6  503    0  0.14709854945E+03 -0.59765406632E+03 -0.99355082013E+02  0.62345793648E+03  0.00000000000E+00 0. -1.
         -2    1    5    5    0  502 -0.12003785499E+03  0.13910537159E+03 -0.10265026833E+03  0.21046726260E+03  0.00000000000E+00 0.  1.
         -1    1    6    6    0  503 -0.12265197455E+02 -0.13972640248E+02 -0.43384025517E+01  0.19091659980E+02  0.00000000000E+00 0.  1.
<mgrwt>
<rscale>  0 0.14210739E+04</rscale>
<asrwt>0</asrwt>
<pdfrwt beam="1">  1        2 0.11824966E+00 0.14210739E+04</pdfrwt>
<pdfrwt beam="2">  1       -2 0.10105242E+00 0.14210739E+04</pdfrwt>
<totfact> 0.28442613E+01</totfact>
</mgrwt>
</event>
<event>
12    1  0.4802930E-008  0.1679937E+04  0.7818608E-02  0.8772891E-01
          2   -1    0    0  501    0  0.00000000000E+00  0.00000000000E+00  0.22909282968E+04  0.22909282968E+04  0.00000000000E+00 0.  1.
         -2   -1    0    0    0  501 -0.00000000000E+00 -0.00000000000E+00 -0.30797415878E+03  0.30797415878E+03  0.00000000000E+00 0. -1.
         23    2    1    2    0    0 -0.10836235347E+03 -0.41272189757E+03  0.24204035556E+02  0.43683026838E+03  0.90294427572E+02 0.  0.
        254    2    1    2    0    0  0.10836235347E+03  0.41272189757E+03  0.19587501025E+04  0.21620721872E+04  0.80979776138E+03 0.  0.
         23    2    4    4    0    0 -0.29611791950E+02  0.47184680405E+03  0.19245523490E+04  0.19841913595E+04  0.97966026152E+02 0.  0.
         23    2    4    4    0    0  0.13797414542E+03 -0.59124906478E+02  0.34197753485E+02  0.17788082773E+03  0.89103777473E+02 0.  0.
         13    1    3    3    0    0 -0.10392887117E+03 -0.36474898033E+03  0.49386542681E+02  0.38246837714E+03  0.00000000000E+00 0. -1.
        -13    1    3    3    0    0 -0.44334823009E+01 -0.47972917240E+02 -0.25182507125E+02  0.54361891238E+02  0.00000000000E+00 0.  1.
          2    1    5    5  502    0 -0.41312375386E+02  0.26662623079E+03  0.91621696642E+03  0.95511768325E+03  0.00000000000E+00 0. -1.
          3    1    6    6  503    0  0.13153208952E+03 -0.63827296058E+02  0.35833033817E+01  0.14624450198E+03  0.00000000000E+00 0. -1.
         -2    1    5    5    0  502  0.11700583436E+02  0.20522057326E+03  0.10083353826E+04  0.10290736762E+04  0.00000000000E+00 0.  1.
         -3    1    6    6    0  503  0.64420559015E+01  0.47023895800E+01  0.30614450104E+02  0.31636325753E+02  0.00000000000E+00 0.  1.
<mgrwt>
<rscale>  0 0.16799366E+04</rscale>
<asrwt>0</asrwt>
<pdfrwt beam="1">  1        2 0.35245050E+00 0.16799366E+04</pdfrwt>
<pdfrwt beam="2">  1       -2 0.47380641E-01 0.16799366E+04</pdfrwt>
<totfact> 0.18473804E+01</totfact>
</mgrwt>
</event>
<event>
12    1  0.4802930E-008  0.1625243E+04  0.7818608E-02  0.8805189E-01
          2   -1    0    0  501    0  0.00000000000E+00  0.00000000000E+00  0.96953362196E+03  0.96953362196E+03  0.00000000000E+00 0. -1.
         -2   -1    0    0    0  501 -0.00000000000E+00 -0.00000000000E+00 -0.68110441596E+03  0.68110441596E+03  0.00000000000E+00 0.  1.
         23    2    1    2    0    0 -0.23706727488E+03 -0.16781783918E+03  0.57168953479E+03  0.65197070327E+03  0.11778435281E+03 0.  0.
        254    2    1    2    0    0  0.23706727488E+03  0.16781783918E+03 -0.28326032880E+03  0.99866733465E+03  0.91254386824E+03 0.  0.
         23    2    4    4    0    0  0.24105607665E+03  0.42822140416E+03  0.11587967654E+03  0.51254879217E+03  0.88298141824E+02 0.  0.
         23    2    4    4    0    0 -0.39888017740E+01 -0.26040356498E+03 -0.39914000534E+03  0.48611854248E+03  0.95773515586E+02 0.  0.
         13    1    3    3    0    0 -0.24691535643E+03 -0.17080512974E+03  0.56462995234E+03  0.63949086676E+03  0.00000000000E+00 0. -1.
        -13    1    3    3    0    0  0.98480815460E+01  0.29872905597E+01  0.70595824468E+01  0.12479836511E+02  0.00000000000E+00 0.  1.
          4    1    5    5  502    0  0.49491722682E+02  0.16288095708E+03  0.19266965869E+02  0.17132090581E+03  0.00000000000E+00 0. -1.
          3    1    6    6  503    0 -0.26328364396E+02 -0.26575966545E+02 -0.27340707389E+02  0.46335505286E+02  0.00000000000E+00 0. -1.
         -4    1    5    5    0  502  0.19156435397E+03  0.26534044708E+03  0.96612710670E+02  0.34122788637E+03  0.00000000000E+00 0.  1.
         -3    1    6    6    0  503  0.22339562623E+02 -0.23382759844E+03 -0.37179929795E+03  0.43978303719E+03  0.00000000000E+00 0.  1.
<mgrwt>
<rscale>  0 0.16252429E+04</rscale>
<asrwt>0</asrwt>
<pdfrwt beam="1">  1        2 0.14915902E+00 0.16252429E+04</pdfrwt>
<pdfrwt beam="2">  1       -2 0.10478530E+00 0.16252429E+04</pdfrwt>
<totfact> 0.18639862E+01</totfact>
</mgrwt>
</event>
<event>
12    1  0.4802930E-008  0.1408072E+04  0.7818608E-02  0.8947996E-01
          1   -1    0    0  501    0  0.00000000000E+00  0.00000000000E+00  0.15007086291E+04  0.15007086291E+04  0.00000000000E+00 0.  1.
         -1   -1    0    0    0  501 -0.00000000000E+00 -0.00000000000E+00 -0.33028834340E+03  0.33028834340E+03  0.00000000000E+00 0. -1.
         23    2    1    2    0    0  0.27849230110E+02 -0.36674164547E+03  0.58959439733E+03  0.70105347974E+03  0.92625125892E+02 0.  0.
        254    2    1    2    0    0 -0.27849230110E+02  0.36674164547E+03  0.58082588839E+03  0.11299434928E+04  0.89673773764E+03 0.  0.
         23    2    4    4    0    0 -0.11591598254E+03  0.61952085688E+03  0.22387183349E+03  0.67467317384E+03  0.88445952737E+02 0.  0.
         23    2    4    4    0    0  0.88066752431E+02 -0.25277921141E+03  0.35695405490E+03  0.45527031893E+03  0.90563697941E+02 0.  0.
         11    1    3    3    0    0  0.34499460643E+02 -0.20388005275E+03  0.25050951309E+03  0.32482657657E+03  0.00000000000E+00 0. -1.
        -11    1    3    3    0    0 -0.66502305335E+01 -0.16286159272E+03  0.33908488424E+03  0.37622690317E+03  0.00000000000E+00 0.  1.
          2    1    5    5  502    0 -0.67159509866E+02  0.39763296325E+03  0.98200716345E+02  0.41504909821E+03  0.00000000000E+00 0. -1.
          3    1    6    6  503    0  0.82474125443E+02 -0.24452665344E+03  0.29256786217E+03  0.39011693065E+03  0.00000000000E+00 0.  1.
         -2    1    5    5    0  502 -0.48756472675E+02  0.22188789363E+03  0.12567111715E+03  0.25962407564E+03  0.00000000000E+00 0.  1.
         -3    1    6    6    0  503  0.55926269876E+01 -0.82525579749E+01  0.64386192728E+02  0.65153388275E+02  0.00000000000E+00 0. -1.
<mgrwt>
<rscale>  0 0.14080718E+04</rscale>
<asrwt>0</asrwt>
<pdfrwt beam="1">  1        1 0.23087825E+00 0.14080718E+04</pdfrwt>
<pdfrwt beam="2">  1       -1 0.50813592E-01 0.14080718E+04</pdfrwt>
<totfact> 0.24779805E+01</totfact>
</mgrwt>
</event>
<event>
12    1  0.4802930E-008  0.1376761E+04  0.7818608E-02  0.8970814E-01
         -1   -1    0    0    0  501 -0.00000000000E+00  0.00000000000E+00  0.41310360385E+03  0.41310360385E+03  0.00000000000E+00 0.  1.
          1   -1    0    0  501    0  0.00000000000E+00 -0.00000000000E+00 -0.11470913900E+04  0.11470913900E+04  0.00000000000E+00 0. -1.
         23    2    1    2    0    0 -0.19559173998E+03 -0.12801929175E+03  0.13572668348E+03  0.28579698499E+03  0.92806875890E+02 0.  0.
        254    2    1    2    0    0  0.19559173998E+03  0.12801929175E+03 -0.86971446961E+03  0.12743980088E+04  0.90168839323E+03 0.  0.
         23    2    4    4    0    0  0.52757404253E+03 -0.56642961506E+02 -0.53292456577E+03  0.75838477494E+03  0.97959576525E+02 0.  0.
         23    2    4    4    0    0 -0.33198230254E+03  0.18466225326E+03 -0.33678990384E+03  0.51601323390E+03  0.92357031383E+02 0.  0.
         11    1    3    3    0    0 -0.20378925901E+03 -0.12903566626E+03  0.13706434450E+03  0.27742908966E+03  0.00000000000E+00 0.  1.
        -11    1    3    3    0    0  0.81975190262E+01  0.10163745111E+01 -0.13376610200E+01  0.83678953349E+01  0.00000000000E+00 0. -1.
          1    1    5    5  502    0  0.17786790364E+03 -0.59825867618E+02 -0.15418209176E+03  0.24287495342E+03  0.00000000000E+00 0. -1.
          3    1    6    6  503    0 -0.33367021364E+02  0.43293722985E+02 -0.19759033778E+02  0.58121630917E+02  0.00000000000E+00 0. -1.
         -1    1    5    5    0  502  0.34970613889E+03  0.31829061122E+01 -0.37874247400E+03  0.51550982152E+03  0.00000000000E+00 0.  1.
         -3    1    6    6    0  503 -0.29861528118E+03  0.14136853027E+03 -0.31703087006E+03  0.45789160298E+03  0.00000000000E+00 0.  1.
<mgrwt>
<rscale>  0 0.13767608E+04</rscale>
<asrwt>0</asrwt>
<pdfrwt beam="1">  1        1 0.17647559E+00 0.13767608E+04</pdfrwt>
<pdfrwt beam="2">  1       -1 0.63554402E-01 0.13767608E+04</pdfrwt>
<totfact> 0.28673516E+01</totfact>
</mgrwt>
</event>
<event>
12    1  0.4802930E-008  0.2110875E+04  0.7818608E-02  0.8556468E-01
         -2   -1    0    0    0  501 -0.00000000000E+00  0.00000000000E+00  0.53497989854E+03  0.53497989854E+03  0.00000000000E+00 0. -1.
          2   -1    0    0  501    0  0.00000000000E+00 -0.00000000000E+00 -0.20822241832E+04  0.20822241832E+04  0.00000000000E+00 0.  1.
         23    2    1    2    0    0  0.76662898210E+03  0.28420153635E+03 -0.96411116430E+03  0.12675101384E+04  0.92634249951E+02 0.  0.
        254    2    1    2    0    0 -0.76662898210E+03 -0.28420153635E+03 -0.58313312041E+03  0.13496939434E+04  0.90174220004E+03 0.  0.
         23    2    4    4    0    0  0.18875261174E+03 -0.86120999978E+02 -0.18264515987E+03  0.29093212811E+03  0.90762732785E+02 0.  0.
         23    2    4    4    0    0 -0.95538159384E+03 -0.19808053637E+03 -0.40048796053E+03  0.10587618153E+04  0.92715081275E+02 0.  0.
         11    1    3    3    0    0  0.30431991708E+03  0.16154696816E+03 -0.40416250242E+03  0.53108884682E+03  0.00000000000E+00 0.  1.
        -11    1    3    3    0    0  0.46230906502E+03  0.12265456820E+03 -0.55994866188E+03  0.73642129154E+03  0.00000000000E+00 0. -1.
          4    1    5    5  502    0  0.31769644630E+01 -0.29946477351E+02 -0.11253693655E+02  0.32148564973E+02  0.00000000000E+00 0.  1.
          1    1    6    6  503    0 -0.88532287012E+03 -0.20761872999E+03 -0.37429678139E+03  0.98336168420E+03  0.00000000000E+00 0. -1.
         -4    1    5    5    0  502  0.18557564728E+03 -0.56174522627E+02 -0.17139146622E+03  0.25878356313E+03  0.00000000000E+00 0. -1.
         -1    1    6    6    0  503 -0.70058723723E+02  0.95381936121E+01 -0.26191179141E+02  0.75400131113E+02  0.00000000000E+00 0.  1.
<mgrwt>
<rscale>  0 0.21108748E+04</rscale>
<asrwt>0</asrwt>
<pdfrwt beam="1">  1        2 0.32034219E+00 0.21108748E+04</pdfrwt>
<pdfrwt beam="2">  1       -2 0.82304598E-01 0.21108748E+04</pdfrwt>
<totfact> 0.71754312E+00</totfact>
</mgrwt>
</event>
<event>
12    1  0.4802930E-008  0.1594795E+04  0.7818608E-02  0.8823752E-01
          2   -1    0    0  501    0  0.00000000000E+00  0.00000000000E+00  0.28414640068E+03  0.28414640068E+03  0.00000000000E+00 0. -1.
         -2   -1    0    0    0  501 -0.00000000000E+00 -0.00000000000E+00 -0.22377282860E+04  0.22377282860E+04  0.00000000000E+00 0.  1.
         23    2    1    2    0    0 -0.60255471507E+02  0.51406086414E+03 -0.91175496238E+03  0.10521226243E+04  0.88179426360E+02 0.  0.
        254    2    1    2    0    0  0.60255471507E+02 -0.51406086414E+03 -0.10418269229E+04  0.14697520624E+04  0.89826415583E+03 0.  0.
         23    2    4    4    0    0  0.63742736614E+02 -0.73175329981E+03 -0.53925400405E+03  0.91586102431E+03  0.92089666625E+02 0.  0.
         23    2    4    4    0    0 -0.34872651074E+01  0.21769243567E+03 -0.50257291886E+03  0.55389103806E+03  0.82544446863E+02 0.  0.
         13    1    3    3    0    0 -0.42285486023E+02  0.45481550652E+03 -0.84834539033E+03  0.96350148345E+03  0.00000000000E+00 0.  1.
        -13    1    3    3    0    0 -0.17969985484E+02  0.59245357617E+02 -0.63409572042E+02  0.88621140841E+02  0.00000000000E+00 0. -1.
          1    1    5    5  502    0  0.76971164838E+02 -0.41269099074E+03 -0.28109991455E+03  0.50522824151E+03  0.00000000000E+00 0. -1.
          3    1    6    6  503    0  0.21113670404E+02  0.12888989098E+02 -0.78608885984E+02  0.82409162558E+02  0.00000000000E+00 0. -1.
         -1    1    5    5    0  502 -0.13228428223E+02 -0.31906230907E+03 -0.25815408950E+03  0.41063278280E+03  0.00000000000E+00 0.  1.
         -3    1    6    6    0  503 -0.24600935511E+02  0.20480344657E+03 -0.42396403288E+03  0.47148187550E+03  0.00000000000E+00 0.  1.
<mgrwt>
<rscale>  0 0.15947946E+04</rscale>
<asrwt>0</asrwt>
<pdfrwt beam="1">  1        2 0.43714832E-01 0.15947946E+04</pdfrwt>
<pdfrwt beam="2">  1       -2 0.34426588E+00 0.15947946E+04</pdfrwt>
<totfact> 0.19023683E+00</totfact>
</mgrwt>
</event>
<event>
12    1  0.4802930E-008  0.1331887E+04  0.7818608E-02  0.9004654E-01
         -2   -1    0    0    0  501 -0.00000000000E+00  0.00000000000E+00  0.35187953817E+03  0.35187953817E+03  0.00000000000E+00 0. -1.
          2   -1    0    0  501    0  0.00000000000E+00 -0.00000000000E+00 -0.12603190297E+04  0.12603190297E+04  0.00000000000E+00 0.  1.
         23    2    1    2    0    0 -0.19753038628E+03  0.96473014523E+02 -0.58426333816E+03  0.63079873940E+03  0.90653765907E+02 0.  0.
        254    2    1    2    0    0  0.19753038628E+03 -0.96473014523E+02 -0.32417615340E+03  0.98139982849E+03  0.89985007023E+03 0.  0.
         23    2    4    4    0    0  0.20385559434E+03  0.34672936952E+03  0.19904113095E+02  0.41280485350E+03  0.90737612479E+02 0.  0.
         23    2    4    4    0    0 -0.63252080626E+01 -0.44320238405E+03 -0.34408026649E+03  0.56859497499E+03  0.91873033668E+02 0.  0.
         13    1    3    3    0    0 -0.20444554403E+03  0.10236444697E+03 -0.55899087432E+03  0.60394309174E+03  0.00000000000E+00 0.  1.
        -13    1    3    3    0    0  0.69151577526E+01 -0.58914324457E+01 -0.25272463839E+02  0.26855647665E+02  0.00000000000E+00 0. -1.
          4    1    5    5  502    0  0.10489764015E+03  0.11885452886E+03 -0.24582543111E+02  0.16041887471E+03  0.00000000000E+00 0. -1.
          3    1    6    6  503    0  0.10054246988E+01 -0.47293692975E+00 -0.19623225845E+02  0.19654656973E+02  0.00000000000E+00 0. -1.
         -4    1    5    5    0  502  0.98957954199E+02  0.22787484067E+03  0.44486656206E+02  0.25238597879E+03  0.00000000000E+00 0.  1.
         -3    1    6    6    0  503 -0.73306327614E+01 -0.44272944712E+03 -0.32445704065E+03  0.54894031802E+03  0.00000000000E+00 0.  1.
<mgrwt>
<rscale>  0 0.13318866E+04</rscale>
<asrwt>0</asrwt>
<pdfrwt beam="1">  1        2 0.19389524E+00 0.13318866E+04</pdfrwt>
<pdfrwt beam="2">  1       -2 0.54135313E-01 0.13318866E+04</pdfrwt>
<totfact> 0.54800435E+01</totfact>
</mgrwt>
</event>
<event>
12    1  0.4802930E-008  0.2380172E+04  0.7818608E-02  0.8446964E-01
          2   -1    0    0  501    0  0.00000000000E+00  0.00000000000E+00  0.14900092752E+04  0.14900092752E+04  0.00000000000E+00 0. -1.
         -2   -1    0    0    0  501 -0.00000000000E+00 -0.00000000000E+00 -0.95053451508E+03  0.95053451508E+03  0.00000000000E+00 0.  1.
         23    2    1    2    0    0  0.10252609901E+03  0.87113315342E+03  0.76220767057E+03  0.11657293504E+04  0.92627282004E+02 0.  0.
        254    2    1    2    0    0 -0.10252609901E+03 -0.87113315342E+03 -0.22273291041E+03  0.12748144399E+04  0.89786264809E+03 0.  0.
         23    2    4    4    0    0 -0.22752331710E+03 -0.17506360506E+01 -0.30046146178E+03  0.38819909677E+03  0.93013569787E+02 0.  0.
         23    2    4    4    0    0  0.12499721810E+03 -0.86938251737E+03  0.77728551371E+02  0.88661534313E+03  0.92707998253E+02 0.  0.
         13    1    3    3    0    0  0.71076027753E+02  0.56567394754E+03  0.43601388353E+03  0.71773736372E+03  0.00000000000E+00 0. -1.
        -13    1    3    3    0    0  0.31450071255E+02  0.30545920588E+03  0.32619378704E+03  0.44799198669E+03  0.00000000000E+00 0.  1.
          2    1    5    5  502    0 -0.72008203385E+02  0.40091942892E+02 -0.12797530390E+03  0.15221768507E+03  0.00000000000E+00 0. -1.
          1    1    6    6  503    0  0.11327831885E+03 -0.64606910245E+03  0.22670486799E+02  0.65631639750E+03  0.00000000000E+00 0. -1.
         -2    1    5    5    0  502 -0.15551511372E+03 -0.41842578943E+02 -0.17248615789E+03  0.23598141170E+03  0.00000000000E+00 0.  1.
         -1    1    6    6    0  503  0.11718899242E+02 -0.22331341492E+03  0.55058064572E+02  0.23029894563E+03  0.00000000000E+00 0.  1.
<mgrwt>
<rscale>  0 0.23801725E+04</rscale>
<asrwt>0</asrwt>
<pdfrwt beam="1">  1        2 0.22923220E+00 0.23801725E+04</pdfrwt>
<pdfrwt beam="2">  1       -2 0.14623608E+00 0.23801725E+04</pdfrwt>
<totfact> 0.37122871E+00</totfact>
</mgrwt>
</event>
<event>
12    1  0.4802930E-008  0.1194626E+04  0.7818608E-02  0.9117573E-01
         -1   -1    0    0    0  501 -0.00000000000E+00  0.00000000000E+00  0.52835606435E+03  0.52835606435E+03  0.00000000000E+00 0.  1.
          1   -1    0    0  501    0  0.00000000000E+00 -0.00000000000E+00 -0.67527001599E+03  0.67527001599E+03  0.00000000000E+00 0. -1.
         23    2    1    2    0    0 -0.16035232924E+03 -0.21341756521E+03 -0.11841541082E+03  0.30534131457E+03  0.89169401870E+02 0.  0.
        254    2    1    2    0    0  0.16035232924E+03  0.21341756521E+03 -0.28498540822E+02  0.89828476576E+03  0.85723008985E+03 0.  0.
         23    2    4    4    0    0  0.33335962771E+03 -0.22558558522E+03  0.31872115769E+02  0.41393787833E+03  0.91165989876E+02 0.  0.
         23    2    4    4    0    0 -0.17300729846E+03  0.43900315043E+03 -0.60370656591E+02  0.48434688744E+03  0.91060418315E+02 0.  0.
         11    1    3    3    0    0 -0.12494358651E+03 -0.11966470409E+03 -0.10946233318E+03  0.20472553236E+03  0.00000000000E+00 0. -1.
        -11    1    3    3    0    0 -0.35408742731E+02 -0.93752861126E+02 -0.89530776414E+01  0.10061578221E+03  0.00000000000E+00 0.  1.
          3    1    6    6  502    0 -0.62781490420E+02  0.27794160156E+03 -0.25436752110E+02  0.28607704866E+03  0.00000000000E+00 0. -1.
          3    1    5    5  503    0  0.19927586144E+03 -0.18480331361E+03  0.89344409088E+01  0.27192454452E+03  0.00000000000E+00 0. -1.
         -3    1    5    5    0  503  0.13408376626E+03 -0.40782271601E+02  0.22937674860E+02  0.14201333381E+03  0.00000000000E+00 0.  1.
         -3    1    6    6    0  502 -0.11022580804E+03  0.16106154887E+03 -0.34933904481E+02  0.19826983877E+03  0.00000000000E+00 0.  1.
<mgrwt>
<rscale>  0 0.11946263E+04</rscale>
<asrwt>0</asrwt>
<pdfrwt beam="1">  1        1 0.10388770E+00 0.11946263E+04</pdfrwt>
<pdfrwt beam="2">  1       -1 0.81285548E-01 0.11946263E+04</pdfrwt>
<totfact> 0.42964884E+01</totfact>
</mgrwt>
</event>
<event>
12    1  0.4802930E-008  0.1783619E+04  0.7818608E-02  0.8715060E-01
         -2   -1    0    0    0  501 -0.00000000000E+00  0.00000000000E+00  0.48819716167E+03  0.48819716167E+03  0.00000000000E+00 0. -1.
          2   -1    0    0  501    0  0.00000000000E+00 -0.00000000000E+00 -0.16291041381E+04  0.16291041381E+04  0.00000000000E+00 0.  1.
         23    2    1    2    0    0 -0.27127762199E+03 -0.57352537481E+03 -0.21430683144E+03  0.67595891682E+03  0.92033339000E+02 0.  0.
        254    2    1    2    0    0  0.27127762199E+03  0.57352537481E+03 -0.92660014498E+03  0.14413423829E+04  0.90352483775E+03 0.  0.
         23    2    4    4    0    0  0.51467018872E+03  0.24758402907E+03 -0.21594261449E+03  0.61730945346E+03  0.90865251753E+02 0.  0.
         23    2    4    4    0    0 -0.24339256672E+03  0.32594134574E+03 -0.71065753049E+03  0.82403292947E+03  0.92295399766E+02 0.  0.
         11    1    3    3    0    0 -0.13565631110E+03 -0.20251362568E+03 -0.54079877046E+02  0.24967786531E+03  0.00000000000E+00 0.  1.
        -11    1    3    3    0    0 -0.13562131089E+03 -0.37101174913E+03 -0.16022695439E+03  0.42628105151E+03  0.00000000000E+00 0. -1.
          2    1    5    5  502    0  0.31253849327E+03  0.11052370527E+03 -0.15300457622E+03  0.36511121531E+03  0.00000000000E+00 0. -1.
          1    1    6    6  503    0 -0.11932428882E+03  0.22617915026E+03 -0.39599525186E+03  0.47138894070E+03  0.00000000000E+00 0. -1.
         -2    1    5    5    0  502  0.20213169545E+03  0.13706032380E+03 -0.62938038262E+02  0.25219823815E+03  0.00000000000E+00 0.  1.
         -1    1    6    6    0  503 -0.12406827791E+03  0.99762195477E+02 -0.31466227863E+03  0.35264398878E+03  0.00000000000E+00 0.  1.
<mgrwt>
<rscale>  0 0.17836188E+04</rscale>
<asrwt>0</asrwt>
<pdfrwt beam="1">  1        2 0.25063140E+00 0.17836188E+04</pdfrwt>
<pdfrwt beam="2">  1       -2 0.75107257E-01 0.17836188E+04</pdfrwt>
<totfact> 0.16161471E+01</totfact>
</mgrwt>
</event>
<event>
12    1  0.4802930E-008  0.1281090E+04  0.7818608E-02  0.9044697E-01
          2   -1    0    0  501    0  0.00000000000E+00  0.00000000000E+00  0.46887070682E+04  0.46887070682E+04  0.00000000000E+00 0. -1.
         -2   -1    0    0    0  501 -0.00000000000E+00 -0.00000000000E+00 -0.87507732473E+02  0.87507732473E+02  0.00000000000E+00 0.  1.
         23    2    1    2    0    0  0.21952800516E+03 -0.14545922664E+03  0.18940485417E+04  0.19144184354E+04  0.90703559327E+02 0.  0.
        254    2    1    2    0    0 -0.21952800516E+03  0.14545922664E+03  0.27071507940E+04  0.28617963653E+04  0.88986632886E+03 0.  0.
         23    2    4    4    0    0  0.29262049568E+03 -0.98300503033E+02  0.66405617195E+03  0.73950054943E+03  0.10295979655E+03 0.  0.
         23    2    4    4    0    0 -0.51214850085E+03  0.24375972967E+03  0.20430946221E+04  0.21222958159E+04  0.90493108209E+02 0.  0.
         11    1    3    3    0    0  0.15290797027E+03 -0.85323097753E+02  0.15050170861E+04  0.15151690691E+04  0.00000000000E+00 0. -1.
        -11    1    3    3    0    0  0.66620034891E+02 -0.60136128887E+02  0.38903145557E+03  0.39924936628E+03  0.00000000000E+00 0.  1.
          1    1    5    5  502    0  0.29935949367E+03 -0.10212433905E+03  0.63481190348E+03  0.70924723466E+03  0.00000000000E+00 0. -1.
          3    1    6    6  503    0 -0.16318192057E+03  0.12556885267E+03  0.74318817973E+03  0.77118386034E+03  0.00000000000E+00 0. -1.
         -1    1    5    5    0  502 -0.67389979879E+01  0.38238360151E+01  0.29244268474E+02  0.30253314766E+02  0.00000000000E+00 0.  1.
         -3    1    6    6    0  503 -0.34896658027E+03  0.11819087701E+03  0.12999064424E+04  0.13511119555E+04  0.00000000000E+00 0.  1.
<mgrwt>
<rscale>  0 0.12810904E+04</rscale>
<asrwt>0</asrwt>
<pdfrwt beam="1">  1        2 0.72133935E+00 0.12810904E+04</pdfrwt>
<pdfrwt beam="2">  1       -2 0.13462732E-01 0.12810904E+04</pdfrwt>
<totfact> 0.34561919E+00</totfact>
</mgrwt>
</event>
<event>
12    1  0.4802930E-008  0.1129295E+04  0.7818608E-02  0.9177100E-01
         -2   -1    0    0    0  501 -0.00000000000E+00  0.00000000000E+00  0.43436221676E+03  0.43436221676E+03  0.00000000000E+00 0.  1.
          2   -1    0    0  501    0  0.00000000000E+00 -0.00000000000E+00 -0.73401118890E+03  0.73401118890E+03  0.00000000000E+00 0. -1.
         23    2    1    2    0    0  0.13335942869E+03  0.12419864882E+03 -0.42265366557E+02  0.21208666274E+03  0.99921717924E+02 0.  0.
        254    2    1    2    0    0 -0.13335942869E+03 -0.12419864882E+03 -0.25738360558E+03  0.95628674292E+03  0.90278899676E+03 0.  0.
         23    2    4    4    0    0  0.10898682867E+03  0.75662028213E+02  0.28147284886E+03  0.32514193097E+03  0.94273216211E+02 0.  0.
         23    2    4    4    0    0 -0.24234625736E+03 -0.19986067703E+03 -0.53885645443E+03  0.63114481195E+03  0.96444266215E+02 0.  0.
         11    1    3    3    0    0  0.37822849554E+02  0.98332055595E+02 -0.23978380842E+01  0.10538268707E+03  0.00000000000E+00 0.  1.
        -11    1    3    3    0    0  0.95536579136E+02  0.25866593226E+02 -0.39867528473E+02  0.10670397567E+03  0.00000000000E+00 0. -1.
          4    1    6    6  502    0 -0.22455681844E+03 -0.20188626349E+03 -0.45983248882E+03  0.55011793814E+03  0.00000000000E+00 0. -1.
          4    1    5    5  503    0  0.78310397749E+02 -0.29416499397E+01  0.13775869176E+03  0.15848857642E+03  0.00000000000E+00 0.  1.
         -4    1    5    5    0  503  0.30676430923E+02  0.78603678153E+02  0.14371415709E+03  0.16665335455E+03  0.00000000000E+00 0. -1.
         -4    1    6    6    0  502 -0.17789438920E+02  0.20255864541E+01 -0.79023965611E+02  0.81026873804E+02  0.00000000000E+00 0.  1.
<mgrwt>
<rscale>  0 0.11292949E+04</rscale>
<asrwt>0</asrwt>
<pdfrwt beam="1">  1        2 0.11292480E+00 0.11292949E+04</pdfrwt>
<pdfrwt beam="2">  1       -2 0.66824957E-01 0.11292949E+04</pdfrwt>
<totfact> 0.78636022E+01</totfact>
</mgrwt>
</event>
<event>
12    1  0.4802930E-008  0.1926580E+04  0.7818608E-02  0.8641738E-01
         -1   -1    0    0    0  501 -0.00000000000E+00  0.00000000000E+00  0.10316180872E+04  0.10316180872E+04  0.00000000000E+00 0.  1.
          1   -1    0    0  501    0  0.00000000000E+00 -0.00000000000E+00 -0.89948779122E+03  0.89948779122E+03  0.00000000000E+00 0. -1.
         23    2    1    2    0    0 -0.48653774318E+03 -0.46859715504E+03 -0.98716087457E+02  0.68907642624E+03  0.93697310678E+02 0.  0.
        254    2    1    2    0    0  0.48653774318E+03  0.46859715504E+03  0.23084638343E+03  0.12420294522E+04  0.10163881336E+04 0.  0.
         23    2    4    4    0    0 -0.44198763305E+02 -0.27434822613E+03 -0.15692051407E+02  0.29181519681E+03  0.87689159811E+02 0.  0.
         23    2    4    4    0    0  0.53073650648E+03  0.74294538118E+03  0.24653843484E+03  0.95021425538E+03  0.92069824286E+02 0.  0.
         11    1    3    3    0    0 -0.37904640311E+03 -0.41230777487E+03 -0.70350369982E+02  0.56446705084E+03  0.00000000000E+00 0. -1.
        -11    1    3    3    0    0 -0.10749134007E+03 -0.56289380174E+02 -0.28365717475E+02  0.12460937540E+03  0.00000000000E+00 0.  1.
          1    1    5    5  502    0 -0.53410598122E+02 -0.82487194954E+02 -0.16999531024E+02  0.99728698870E+02  0.00000000000E+00 0. -1.
          1    1    6    6  503    0  0.60609896752E+02  0.13691724736E+03  0.56358141377E+02  0.15998791301E+03  0.00000000000E+00 0. -1.
         -1    1    5    5    0  502  0.92118348168E+01 -0.19186103118E+03  0.13074796168E+01  0.19208649794E+03  0.00000000000E+00 0.  1.
         -1    1    6    6    0  503  0.47012660973E+03  0.60602813382E+03  0.19018029346E+03  0.79022634237E+03  0.00000000000E+00 0.  1.
<mgrwt>
<rscale>  0 0.19265803E+04</rscale>
<asrwt>0</asrwt>
<pdfrwt beam="1">  1        1 0.13838274E+00 0.19265803E+04</pdfrwt>
<pdfrwt beam="2">  1       -1 0.15871048E+00 0.19265803E+04</pdfrwt>
<totfact> 0.50825950E+00</totfact>
</mgrwt>
</event>
<event>
12    1  0.4802930E-008  0.2714197E+04  0.7818608E-02  0.8330413E-01
         -1   -1    0    0    0  501 -0.00000000000E+00  0.00000000000E+00  0.11007941422E+04  0.11007941422E+04  0.00000000000E+00 0.  1.
          1   -1    0    0  501    0  0.00000000000E+00 -0.00000000000E+00 -0.16730791988E+04  0.16730791988E+04  0.00000000000E+00 0. -1.
         23    2    1    2    0    0  0.34412786333E+01 -0.12017886977E+04 -0.33309326368E+03  0.12503083577E+04  0.89509500413E+02 0.  0.
        254    2    1    2    0    0 -0.34412786333E+01  0.12017886977E+04 -0.23919179298E+03  0.15235649832E+04  0.90538921350E+03 0.  0.
         23    2    4    4    0    0  0.45922471892E+02  0.62095835232E+03  0.32451706686E+03  0.70757127312E+03  0.87450735372E+02 0.  0.
         23    2    4    4    0    0 -0.49363750526E+02  0.58083034542E+03 -0.56370885983E+03  0.81599371013E+03  0.90980142261E+02 0.  0.
         13    1    3    3    0    0 -0.35930837360E+02 -0.64262212360E+03 -0.15331830273E+03  0.66163488478E+03  0.00000000000E+00 0.  1.
        -13    1    3    3    0    0  0.39372115993E+02 -0.55916657415E+03 -0.17977496095E+03  0.58867347294E+03  0.00000000000E+00 0. -1.
          1    1    5    5  502    0  0.41129963459E+02  0.41568690818E+03  0.17175057467E+03  0.45164758322E+03  0.00000000000E+00 0. -1.
          1    1    6    6  503    0 -0.37055222625E+02  0.25553277438E+03 -0.30885339579E+03  0.40256739609E+03  0.00000000000E+00 0. -1.
         -1    1    5    5    0  502  0.47925084331E+01  0.20527144414E+03  0.15276649219E+03  0.25592368990E+03  0.00000000000E+00 0.  1.
         -1    1    6    6    0  503 -0.12308527901E+02  0.32529757104E+03 -0.25485546404E+03  0.41342631403E+03  0.00000000000E+00 0.  1.
<mgrwt>
<rscale>  0 0.27141966E+04</rscale>
<asrwt>0</asrwt>
<pdfrwt beam="1">  1        1 0.25739680E+00 0.27141966E+04</pdfrwt>
<pdfrwt beam="2">  1       -1 0.16935295E+00 0.27141966E+04</pdfrwt>
<totfact> 0.10787979E+00</totfact>
</mgrwt>
</event>
<event>
12    1  0.4802930E-008  0.1699825E+04  0.7818608E-02  0.8761464E-01
         -2   -1    0    0    0  501 -0.00000000000E+00  0.00000000000E+00  0.45111071159E+03  0.45111071159E+03  0.00000000000E+00 0.  1.
          2   -1    0    0  501    0  0.00000000000E+00 -0.00000000000E+00 -0.16012725725E+04  0.16012725725E+04  0.00000000000E+00 0. -1.
         23    2    1    2    0    0 -0.44111395288E+01 -0.57392734396E+03 -0.17748670389E+03  0.60770555578E+03  0.91610360606E+02 0.  0.
        254    2    1    2    0    0  0.44111395288E+01  0.57392734396E+03 -0.97267515700E+03  0.14446777283E+04  0.90087997163E+03 0.  0.
         23    2    4    4    0    0 -0.16322480064E+03  0.23223066824E+03 -0.10087817687E+04  0.10520028284E+04  0.92173072222E+02 0.  0.
         23    2    4    4    0    0  0.16763594017E+03  0.34169667572E+03  0.36106611680E+02  0.39267489993E+03  0.89618429993E+02 0.  0.
         11    1    3    3    0    0  0.27167499915E+02 -0.11504469244E+03 -0.61907393331E+02  0.13343867378E+03  0.00000000000E+00 0. -1.
        -11    1    3    3    0    0 -0.31578639444E+02 -0.45888265152E+03 -0.11557931056E+03  0.47426688201E+03  0.00000000000E+00 0.  1.
          1    1    6    6  502    0  0.16343479579E+03  0.27815756434E+03  0.52642657003E+02  0.32688501405E+03  0.00000000000E+00 0. -1.
          1    1    5    5  503    0 -0.11783358343E+03  0.21055647435E+03 -0.73359463010E+03  0.77225634577E+03  0.00000000000E+00 0. -1.
         -1    1    5    5    0  503 -0.45391217216E+02  0.21674193892E+02 -0.27518713858E+03  0.27974648259E+03  0.00000000000E+00 0.  1.
         -1    1    6    6    0  502  0.42011443768E+01  0.63539111383E+02 -0.16536045323E+02  0.65789885882E+02  0.00000000000E+00 0.  1.
<mgrwt>
<rscale>  0 0.16998249E+04</rscale>
<asrwt>0</asrwt>
<pdfrwt beam="1">  1        2 0.24634963E+00 0.16998249E+04</pdfrwt>
<pdfrwt beam="2">  1       -2 0.69401648E-01 0.16998249E+04</pdfrwt>
<totfact> 0.20064989E+01</totfact>
</mgrwt>
</event>
<event>
12    1  0.4802930E-008  0.1353837E+04  0.7818608E-02  0.8987929E-01
          2   -1    0    0  501    0  0.00000000000E+00  0.00000000000E+00  0.10364767946E+04  0.10364767946E+04  0.00000000000E+00 0. -1.
         -2   -1    0    0    0  501 -0.00000000000E+00 -0.00000000000E+00 -0.44209258977E+03  0.44209258977E+03  0.00000000000E+00 0.  1.
         23    2    1    2    0    0  0.83370355663E+01  0.36107820850E+03  0.21700879272E+03  0.43794317684E+03  0.11939192272E+03 0.  0.
        254    2    1    2    0    0 -0.83370355663E+01 -0.36107820850E+03  0.37737541208E+03  0.10406262075E+04  0.90002429038E+03 0.  0.
         23    2    4    4    0    0  0.34637415792E+03  0.10652467937E+03  0.18190097625E+03  0.41527327936E+03  0.89673668374E+02 0.  0.
         23    2    4    4    0    0 -0.35471119349E+03 -0.46760288787E+03  0.19547443583E+03  0.62535292813E+03  0.91561662994E+02 0.  0.
         13    1    3    3    0    0  0.20141018182E+01  0.41229680018E+02  0.79810388409E+02  0.89853442998E+02  0.00000000000E+00 0. -1.
        -13    1    3    3    0    0  0.63229337481E+01  0.31984852848E+03  0.13719840431E+03  0.34808973385E+03  0.00000000000E+00 0.  1.
          4    1    6    6  502    0 -0.26121407095E+03 -0.37776379553E+03  0.18542968072E+03  0.49530035592E+03  0.00000000000E+00 0. -1.
          4    1    5    5  503    0  0.10974785487E+02 -0.54571528509E+01 -0.72711032338E+01  0.14251153496E+02  0.00000000000E+00 0. -1.
         -4    1    5    5    0  503  0.33539937243E+03  0.11198183223E+03  0.18917207948E+03  0.40102212587E+03  0.00000000000E+00 0.  1.
         -4    1    6    6    0  502 -0.93497122535E+02 -0.89839092340E+02  0.10044755104E+02  0.13005257222E+03  0.00000000000E+00 0.  1.
<mgrwt>
<rscale>  0 0.13538371E+04</rscale>
<asrwt>0</asrwt>
<pdfrwt beam="1">  1        2 0.15945797E+00 0.13538371E+04</pdfrwt>
<pdfrwt beam="2">  1       -2 0.68014245E-01 0.13538371E+04</pdfrwt>
<totfact> 0.46150914E+01</totfact>
</mgrwt>
</event>
<event>
12    1  0.4802930E-008  0.1369199E+04  0.7818608E-02  0.8976420E-01
          1   -1    0    0  501    0  0.00000000000E+00  0.00000000000E+00  0.14067322894E+04  0.14067322894E+04  0.00000000000E+00 0.  1.
         -1   -1    0    0    0  501 -0.00000000000E+00 -0.00000000000E+00 -0.33316697213E+03  0.33316697213E+03  0.00000000000E+00 0. -1.
         23    2    1    2    0    0  0.79406808277E+02 -0.20296289016E+03 -0.90440657034E+02  0.25230877467E+03  0.89335487604E+02 0.  0.
        254    2    1    2    0    0 -0.79406808277E+02  0.20296289016E+03  0.11640059743E+04  0.14875904869E+04  0.90028671679E+03 0.  0.
         23    2    4    4    0    0  0.15202890223E+03 -0.12359180458E+03  0.10336739586E+04  0.10563029722E+04  0.94373699878E+02 0.  0.
         23    2    4    4    0    0 -0.23143571051E+03  0.32655469474E+03  0.13033201573E+03  0.43128751464E+03  0.93925657870E+02 0.  0.
         11    1    3    3    0    0 -0.10903635033E+02 -0.58816990789E+01 -0.21515972221E+02  0.24827821121E+02  0.00000000000E+00 0.  1.
        -11    1    3    3    0    0  0.90310443311E+02 -0.19708119108E+03 -0.68924684813E+02  0.22748095355E+03  0.00000000000E+00 0. -1.
          4    1    5    5  502    0  0.11800412077E+03 -0.36231934407E+02  0.61379650410E+03  0.62608615544E+03  0.00000000000E+00 0.  1.
          1    1    6    6  503    0 -0.58356618270E+02  0.26202651057E+02  0.28148566582E+02  0.69888594341E+02  0.00000000000E+00 0. -1.
         -4    1    5    5    0  502  0.34024781459E+02 -0.87359870168E+02  0.41987745449E+03  0.43021681680E+03  0.00000000000E+00 0. -1.
         -1    1    6    6    0  503 -0.17307909224E+03  0.30035204368E+03  0.10218344915E+03  0.36139892030E+03  0.00000000000E+00 0.  1.
<mgrwt>
<rscale>  0 0.13691994E+04</rscale>
<asrwt>0</asrwt>
<pdfrwt beam="1">  1        1 0.21642035E+00 0.13691994E+04</pdfrwt>
<pdfrwt beam="2">  1       -1 0.51256458E-01 0.13691994E+04</pdfrwt>
<totfact> 0.28429177E+01</totfact>
</mgrwt>
</event>
<event>
12    1  0.4802930E-008  0.1737876E+04  0.7818608E-02  0.8740053E-01
         -2   -1    0    0    0  501 -0.00000000000E+00  0.00000000000E+00  0.35924767792E+03  0.35924767792E+03  0.00000000000E+00 0.  1.
          2   -1    0    0  501    0  0.00000000000E+00 -0.00000000000E+00 -0.21017615385E+04  0.21017615385E+04  0.00000000000E+00 0. -1.
         23    2    1    2    0    0  0.62561912475E+03 -0.82664976911E+02 -0.64247677954E+03  0.90519184496E+03  0.91449856557E+02 0.  0.
        254    2    1    2    0    0 -0.62561912475E+03  0.82664976911E+02 -0.11000370811E+04  0.15558173715E+04  0.90125097839E+03 0.  0.
         23    2    4    4    0    0  0.74473381572E+02 -0.11347029835E+03 -0.70567792352E+03  0.72416616174E+03  0.89518181921E+02 0.  0.
         23    2    4    4    0    0 -0.70009250632E+03  0.19613527526E+03 -0.39435915753E+03  0.83165120974E+03  0.86752670986E+02 0.  0.
         11    1    3    3    0    0  0.16143526159E+02 -0.48997357121E+01 -0.45464656442E+02  0.48493874173E+02  0.00000000000E+00 0. -1.
        -11    1    3    3    0    0  0.60947559859E+03 -0.77765241199E+02 -0.59701212310E+03  0.85669797078E+03  0.00000000000E+00 0.  1.
          4    1    5    5  502    0  0.74184440081E+02 -0.97862913591E+02 -0.40802779496E+03  0.42610698477E+03  0.00000000000E+00 0. -1.
          1    1    6    6  503    0 -0.41135004074E+03  0.13283948010E+03 -0.27817435651E+03  0.51403906088E+03  0.00000000000E+00 0. -1.
         -4    1    5    5    0  502  0.28894149070E+00 -0.15607384759E+02 -0.29765012856E+03  0.29805917697E+03  0.00000000000E+00 0.  1.
         -1    1    6    6    0  503 -0.28874246558E+03  0.63295795160E+02 -0.11618480102E+03  0.31761214886E+03  0.00000000000E+00 0.  1.
<mgrwt>
<rscale>  0 0.17378757E+04</rscale>
<asrwt>0</asrwt>
<pdfrwt beam="1">  1        2 0.32334793E+00 0.17378757E+04</pdfrwt>
<pdfrwt beam="2">  1       -2 0.55268873E-01 0.17378757E+04</pdfrwt>
<totfact> 0.17121009E+01</totfact>
</mgrwt>
</event>
<event>
12    1  0.4802930E-008  0.1692851E+04  0.7818608E-02  0.8765452E-01
          2   -1    0    0  501    0  0.00000000000E+00  0.00000000000E+00  0.34910819285E+04  0.34910819285E+04  0.00000000000E+00 0. -1.
         -2   -1    0    0    0  501 -0.00000000000E+00 -0.00000000000E+00 -0.20521888719E+03  0.20521888719E+03  0.00000000000E+00 0.  1.
         23    2    1    2    0    0 -0.32728584113E+02  0.59901411811E+03  0.10505131882E+04  0.12132160399E+04  0.91793937355E+02 0.  0.
        254    2    1    2    0    0  0.32728584113E+02 -0.59901411811E+03  0.22353498531E+04  0.24830847758E+04  0.89946204151E+03 0.  0.
         23    2    4    4    0    0 -0.10462061906E+03 -0.27921378634E+03  0.11354059781E+03  0.33096263904E+03  0.87971521961E+02 0.  0.
         23    2    4    4    0    0  0.13734920317E+03 -0.31980033177E+03  0.21218092553E+04  0.21521221367E+04  0.91750312626E+02 0.  0.
         11    1    3    3    0    0 -0.39185705701E+02  0.19755848158E+03  0.41864461863E+03  0.46457312652E+03  0.00000000000E+00 0.  1.
        -11    1    3    3    0    0  0.64571215879E+01  0.40145563653E+03  0.63186856959E+03  0.74864291339E+03  0.00000000000E+00 0. -1.
          4    1    5    5  502    0  0.12374401838E+02 -0.53537531595E+02  0.72104327256E+01  0.55420063608E+02  0.00000000000E+00 0. -1.
          3    1    6    6  503    0  0.14165622107E+02 -0.43912367311E+02  0.52174577221E+03  0.52378202687E+03  0.00000000000E+00 0. -1.
         -4    1    5    5    0  502 -0.11699502090E+03 -0.22567625474E+03  0.10633016509E+03  0.27554257543E+03  0.00000000000E+00 0.  1.
         -3    1    6    6    0  503  0.12318358107E+03 -0.27588796446E+03  0.16000634831E+04  0.16283401099E+04  0.00000000000E+00 0.  1.
<mgrwt>
<rscale>  0 0.16928508E+04</rscale>
<asrwt>0</asrwt>
<pdfrwt beam="1">  1        2 0.53708948E+00 0.16928508E+04</pdfrwt>
<pdfrwt beam="2">  1       -2 0.31572139E-01 0.16928508E+04</pdfrwt>
<totfact> 0.73897168E+00</totfact>
</mgrwt>
</event>
<event>
12    1  0.4802930E-008  0.1914544E+04  0.7818608E-02  0.8647650E-01
         -1   -1    0    0    0  501 -0.00000000000E+00  0.00000000000E+00  0.74935694907E+03  0.74935694907E+03  0.00000000000E+00 0.  1.
          1   -1    0    0  501    0  0.00000000000E+00 -0.00000000000E+00 -0.12228752214E+04  0.12228752214E+04  0.00000000000E+00 0. -1.
         23    2    1    2    0    0 -0.67638719641E+03  0.31882948083E+03 -0.19124234365E+03  0.77547661269E+03  0.75089716439E+02 0.  0.
        254    2    1    2    0    0  0.67638719641E+03 -0.31882948083E+03 -0.28227592867E+03  0.11967555578E+04  0.89072570852E+03 0.  0.
         23    2    4    4    0    0  0.26017781838E+03 -0.11152305935E+03  0.31574875275E+03  0.43358867552E+03  0.90398975273E+02 0.  0.
         23    2    4    4    0    0  0.41620937803E+03 -0.20730642149E+03 -0.59802468142E+03  0.76316688225E+03  0.92649726518E+02 0.  0.
         11    1    3    3    0    0 -0.60609433572E+02  0.53888955347E+02 -0.17404967343E+02  0.82948513154E+02  0.00000000000E+00 0. -1.
        -11    1    3    3    0    0 -0.61577776284E+03  0.26494052549E+03 -0.17383737630E+03  0.69252809954E+03  0.00000000000E+00 0.  1.
          2    1    5    5  502    0  0.10285890462E+03 -0.68591246582E+00  0.13362397230E+03  0.16862915142E+03  0.00000000000E+00 0. -1.
          3    1    6    6  503    0  0.28279783947E+03 -0.16974656742E+03 -0.47210888318E+03  0.57591259123E+03  0.00000000000E+00 0. -1.
         -2    1    5    5    0  502  0.15731891376E+03 -0.11083714688E+03  0.18212478045E+03  0.26495952409E+03  0.00000000000E+00 0.  1.
         -3    1    6    6    0  503  0.13341153856E+03 -0.37559854060E+02 -0.12591579824E+03  0.18725429102E+03  0.00000000000E+00 0.  1.
<mgrwt>
<rscale>  0 0.19145444E+04</rscale>
<asrwt>0</asrwt>
<pdfrwt beam="1">  1        1 0.18813465E+00 0.19145444E+04</pdfrwt>
<pdfrwt beam="2">  1       -1 0.11528569E+00 0.19145444E+04</pdfrwt>
<totfact> 0.65567342E+00</totfact>
</mgrwt>
</event>
<event>
12    1  0.4802930E-008  0.1855586E+04  0.7818608E-02  0.8677285E-01
          1   -1    0    0  501    0  0.00000000000E+00  0.00000000000E+00  0.14043893168E+04  0.14043893168E+04  0.00000000000E+00 0. -1.
         -1   -1    0    0    0  501 -0.00000000000E+00 -0.00000000000E+00 -0.61293533165E+03  0.61293533165E+03  0.00000000000E+00 0.  1.
         23    2    1    2    0    0 -0.37214256935E+03 -0.39397329091E+03  0.80402710863E+03  0.97388309792E+03  0.91014565547E+02 0.  0.
        254    2    1    2    0    0  0.37214256935E+03  0.39397329091E+03 -0.12573123462E+02  0.10434415505E+04  0.89157565023E+03 0.  0.
         23    2    4    4    0    0 -0.15266740760E+03  0.14589472436E+02  0.27620252909E+03  0.32856484080E+03  0.90259777775E+02 0.  0.
         23    2    4    4    0    0  0.52480997694E+03  0.37938381847E+03 -0.28877565255E+03  0.71487670974E+03  0.91102903421E+02 0.  0.
         13    1    3    3    0    0 -0.94643482625E+02 -0.55569354297E+02  0.12855367901E+03  0.16903073782E+03  0.00000000000E+00 0.  1.
        -13    1    3    3    0    0 -0.27749908672E+03 -0.33840393661E+03  0.67547342962E+03  0.80485236011E+03  0.00000000000E+00 0. -1.
          4    1    5    5  502    0  0.83541190238E+01  0.13801044129E+02  0.35173227662E+02  0.38696460663E+02  0.00000000000E+00 0. -1.
          1    1    6    6  503    0  0.12661646572E+03  0.14249044183E+03 -0.85452796813E+02  0.20889575364E+03  0.00000000000E+00 0. -1.
         -4    1    5    5    0  502 -0.16102152662E+03  0.78842830749E+00  0.24102930143E+03  0.28986838013E+03  0.00000000000E+00 0.  1.
         -1    1    6    6    0  503  0.39819351122E+03  0.23689337663E+03 -0.20332285574E+03  0.50598095610E+03  0.00000000000E+00 0.  1.
<mgrwt>
<rscale>  0 0.18555860E+04</rscale>
<asrwt>0</asrwt>
<pdfrwt beam="1">  1        1 0.21605989E+00 0.18555860E+04</pdfrwt>
<pdfrwt beam="2">  1       -1 0.94297744E-01 0.18555860E+04</pdfrwt>
<totfact> 0.78001421E+00</totfact>
</mgrwt>
</event>
<event>
12    1  0.4802930E-008  0.1875795E+04  0.7818608E-02  0.8667000E-01
         -2   -1    0    0    0  501 -0.00000000000E+00  0.00000000000E+00  0.26192216755E+03  0.26192216755E+03  0.00000000000E+00 0.  1.
          2   -1    0    0  501    0  0.00000000000E+00 -0.00000000000E+00 -0.33584462988E+04  0.33584462988E+04  0.00000000000E+00 0. -1.
         23    2    1    2    0    0 -0.66855100504E+02 -0.57905477093E+03 -0.38641888299E+03  0.70560112459E+03  0.93698248082E+02 0.  0.
        254    2    1    2    0    0  0.66855100504E+02  0.57905477093E+03 -0.27101052483E+04  0.29147673418E+04  0.90079085680E+03 0.  0.
         23    2    4    4    0    0  0.90301205452E+02 -0.20549039510E+03 -0.10288034343E+04  0.10570080946E+04  0.91918417083E+02 0.  0.
         23    2    4    4    0    0 -0.23446104947E+02  0.78454516603E+03 -0.16813018140E+04  0.18577592472E+04  0.91830242495E+02 0.  0.
         13    1    3    3    0    0 -0.54940565572E+02 -0.28328206770E+03 -0.24016834822E+03  0.37543046109E+03  0.00000000000E+00 0. -1.
        -13    1    3    3    0    0 -0.11914534932E+02 -0.29577270323E+03 -0.14625053477E+03  0.33017066351E+03  0.00000000000E+00 0.  1.
          3    1    6    6  502    0 -0.28953125585E+00  0.71118773286E+03 -0.14728339513E+04  0.16355512598E+04  0.00000000000E+00 0. -1.
          3    1    5    5  503    0  0.50015938338E+02 -0.18500881927E+03 -0.90853859562E+03  0.92853230263E+03  0.00000000000E+00 0. -1.
         -3    1    5    5    0  503  0.40285267114E+02 -0.20481575833E+02 -0.12026483867E+03  0.12847579194E+03  0.00000000000E+00 0.  1.
         -3    1    6    6    0  502 -0.23156573692E+02  0.73357433175E+02 -0.20846786267E+03  0.22220798742E+03  0.00000000000E+00 0.  1.
<mgrwt>
<rscale>  0 0.18757948E+04</rscale>
<asrwt>0</asrwt>
<pdfrwt beam="1">  1        2 0.51668404E+00 0.18757948E+04</pdfrwt>
<pdfrwt beam="2">  1       -2 0.40295719E-01 0.18757948E+04</pdfrwt>
<totfact> 0.55987240E+00</totfact>
</mgrwt>
</event>
<event>
12    1  0.4802930E-008  0.1358655E+04  0.7818608E-02  0.8984302E-01
          2   -1    0    0  501    0  0.00000000000E+00  0.00000000000E+00  0.11347387128E+04  0.11347387128E+04  0.00000000000E+00 0. -1.
         -2   -1    0    0    0  501 -0.00000000000E+00 -0.00000000000E+00 -0.40668909703E+03  0.40668909703E+03  0.00000000000E+00 0.  1.
         23    2    1    2    0    0  0.16227068349E+03  0.16048844001E+03  0.54941597230E+03  0.60163546882E+03  0.89548939874E+02 0.  0.
        254    2    1    2    0    0 -0.16227068349E+03 -0.16048844001E+03  0.17863364345E+03  0.93979234100E+03  0.89398621439E+03 0.  0.
         23    2    4    4    0    0  0.33920548131E+03 -0.12279055835E+03 -0.59939302373E+02  0.37562125911E+03  0.85794700065E+02 0.  0.
         23    2    4    4    0    0 -0.50147616480E+03 -0.37697881662E+02  0.23857294583E+03  0.56417108188E+03  0.92046102658E+02 0.  0.
         11    1    3    3    0    0  0.52372160583E+02  0.44353899006E+02  0.78267348009E+02  0.10409557784E+03  0.00000000000E+00 0.  1.
        -11    1    3    3    0    0  0.10989852290E+03  0.11613454100E+03  0.47114862429E+03  0.49753989098E+03  0.00000000000E+00 0. -1.
          2    1    5    5  502    0  0.92328474054E+01 -0.77719515951E+01 -0.20726191694E+02  0.23983822150E+02  0.00000000000E+00 0. -1.
          4    1    6    6  503    0 -0.32004801286E+02  0.18359181997E+02  0.64439391326E+01  0.37455189500E+02  0.00000000000E+00 0. -1.
         -2    1    5    5    0  502  0.32997263390E+03 -0.11501860675E+03 -0.39213110680E+02  0.35163743696E+03  0.00000000000E+00 0.  1.
         -4    1    6    6    0  503 -0.46947136351E+03 -0.56057063659E+02  0.23212900669E+03  0.52671589238E+03  0.00000000000E+00 0.  1.
<mgrwt>
<rscale>  0 0.13586550E+04</rscale>
<asrwt>0</asrwt>
<pdfrwt beam="1">  1        2 0.17457519E+00 0.13586550E+04</pdfrwt>
<pdfrwt beam="2">  1       -2 0.62567554E-01 0.13586550E+04</pdfrwt>
<totfact> 0.47972939E+01</totfact>
</mgrwt>
</event>
<event>
12    1  0.4802930E-008  0.2790202E+04  0.7818608E-02  0.8306317E-01
          2   -1    0    0  501    0  0.00000000000E+00  0.00000000000E+00  0.21212771563E+04  0.21212771563E+04  0.00000000000E+00 0. -1.
         -2   -1    0    0    0  501 -0.00000000000E+00 -0.00000000000E+00 -0.91751647817E+03  0.91751647817E+03  0.00000000000E+00 0.  1.
         23    2    1    2    0    0 -0.23605245026E+03  0.11884637816E+04  0.35311470689E+03  0.12653492192E+04  0.90839037220E+02 0.  0.
        254    2    1    2    0    0  0.23605245026E+03 -0.11884637816E+04  0.85064597120E+03  0.17734444153E+04  0.97639111330E+03 0.  0.
         23    2    4    4    0    0  0.44493510401E+03 -0.17570023517E+03  0.11373623331E+03  0.50036854263E+03  0.92708835990E+02 0.  0.
         23    2    4    4    0    0 -0.20888265375E+03 -0.10127635465E+04  0.73690973789E+03  0.12730758726E+04  0.91456282269E+02 0.  0.
         11    1    3    3    0    0 -0.84320654425E+02  0.39225611750E+03  0.16129363803E+03  0.43242394955E+03  0.00000000000E+00 0. -1.
        -11    1    3    3    0    0 -0.15173179583E+03  0.79620766414E+03  0.19182106886E+03  0.83292526962E+03  0.00000000000E+00 0.  1.
          1    1    5    5  502    0  0.38973138067E+03 -0.11754569674E+03  0.96485309466E+02  0.41835027768E+03  0.00000000000E+00 0. -1.
          3    1    6    6  503    0 -0.15073681260E+03 -0.62269119448E+03  0.40818352588E+03  0.75965762101E+03  0.00000000000E+00 0. -1.
         -1    1    5    5    0  502  0.55203723340E+02 -0.58154538433E+02  0.17250923842E+02  0.82018264944E+02  0.00000000000E+00 0.  1.
         -3    1    6    6    0  503 -0.58145841146E+02 -0.39007235199E+03  0.32872621202E+03  0.51341825162E+03  0.00000000000E+00 0.  1.
<mgrwt>
<rscale>  0 0.27902020E+04</rscale>
<asrwt>0</asrwt>
<pdfrwt beam="1">  1        2 0.32635033E+00 0.27902020E+04</pdfrwt>
<pdfrwt beam="2">  1       -2 0.14115638E+00 0.27902020E+04</pdfrwt>
<totfact> 0.17502352E+00</totfact>
</mgrwt>
</event>
<event>
12    1  0.4802930E-008  0.1557669E+04  0.7818608E-02  0.8846984E-01
         -2   -1    0    0    0  501 -0.00000000000E+00  0.00000000000E+00  0.20812469209E+03  0.20812469209E+03  0.00000000000E+00 0.  1.
          2   -1    0    0  501    0  0.00000000000E+00 -0.00000000000E+00 -0.29145162487E+04  0.29145162487E+04  0.00000000000E+00 0. -1.
         23    2    1    2    0    0 -0.24471714342E+03 -0.45189137862E+03 -0.93427866014E+03  0.10704860064E+04  0.94717352429E+02 0.  0.
        254    2    1    2    0    0  0.24471714342E+03  0.45189137862E+03 -0.17721128965E+04  0.20521549343E+04  0.89825578669E+03 0.  0.
         23    2    4    4    0    0  0.41377280527E+02  0.62618171410E+03 -0.15999821397E+04  0.17210620251E+04  0.91082536209E+02 0.  0.
         23    2    4    4    0    0  0.20333986290E+03 -0.17429033548E+03 -0.17213075675E+03  0.33109290923E+03  0.90935670894E+02 0.  0.
         11    1    3    3    0    0 -0.25062688127E+03 -0.41794218706E+03 -0.85693254441E+03  0.98581077850E+03  0.00000000000E+00 0.  1.
        -11    1    3    3    0    0  0.59097378528E+01 -0.33949191559E+02 -0.77346115731E+02  0.84675227946E+02  0.00000000000E+00 0. -1.
          4    1    5    5  502    0 -0.19659119103E+02  0.37288097712E+03 -0.96210325227E+03  0.10320219824E+04  0.00000000000E+00 0.  1.
          3    1    6    6  503    0  0.18544885488E+03 -0.17097728737E+03 -0.12694619613E+03  0.28238244861E+03  0.00000000000E+00 0. -1.
         -4    1    5    5    0  502  0.61036399630E+02  0.25330073698E+03 -0.63787888745E+03  0.68904004274E+03  0.00000000000E+00 0. -1.
         -3    1    6    6    0  503  0.17891008010E+02 -0.33130481156E+01 -0.45184560619E+02  0.48710460620E+02  0.00000000000E+00 0.  1.
<mgrwt>
<rscale>  0 0.15576685E+04</rscale>
<asrwt>0</asrwt>
<pdfrwt beam="1">  1        2 0.44838710E+00 0.15576685E+04</pdfrwt>
<pdfrwt beam="2">  1       -2 0.32019184E-01 0.15576685E+04</pdfrwt>
<totfact> 0.17276973E+01</totfact>
</mgrwt>
</event>
<event>
12    1  0.4802930E-008  0.2068948E+04  0.7818608E-02  0.8575047E-01
          2   -1    0    0  501    0  0.00000000000E+00  0.00000000000E+00  0.24670401941E+04  0.24670401941E+04  0.00000000000E+00 0. -1.
         -2   -1    0    0    0  501 -0.00000000000E+00 -0.00000000000E+00 -0.43377341565E+03  0.43377341565E+03  0.00000000000E+00 0.  1.
         23    2    1    2    0    0  0.79249178757E+03 -0.21960404218E+03  0.11022571543E+04  0.13782044543E+04  0.90595337303E+02 0.  0.
        254    2    1    2    0    0 -0.79249178757E+03  0.21960404218E+03  0.93100962417E+03  0.15226091554E+04  0.88050584955E+03 0.  0.
         23    2    4    4    0    0 -0.94020546387E+03  0.87256281170E+02  0.58746124757E+03  0.11158470029E+04  0.91672479561E+02 0.  0.
         23    2    4    4    0    0  0.14771367630E+03  0.13234776101E+03  0.34354837660E+03  0.40676215253E+03  0.89970559944E+02 0.  0.
         13    1    3    3    0    0  0.75866199155E+03 -0.20732422602E+03  0.10795253446E+04  0.13356370472E+04  0.00000000000E+00 0. -1.
        -13    1    3    3    0    0  0.33829796017E+02 -0.12279816162E+02  0.22731809664E+02  0.42567407181E+02  0.00000000000E+00 0.  1.
          2    1    5    5  502    0 -0.63672066144E+03  0.15913205209E+02  0.39223600940E+03  0.74800769907E+03  0.00000000000E+00 0. -1.
          3    1    6    6  503    0  0.10639886621E+03  0.13664436920E+03  0.30122641262E+03  0.34746187421E+03  0.00000000000E+00 0. -1.
         -2    1    5    5    0  502 -0.30348480243E+03  0.71343075961E+02  0.19522523817E+03  0.36783930379E+03  0.00000000000E+00 0.  1.
         -3    1    6    6    0  503  0.41314810091E+02 -0.42966081850E+01  0.42321963972E+02  0.59300278323E+02  0.00000000000E+00 0.  1.
<mgrwt>
<rscale>  0 0.20689480E+04</rscale>
<asrwt>0</asrwt>
<pdfrwt beam="1">  1        2 0.37954464E+00 0.20689480E+04</pdfrwt>
<pdfrwt beam="2">  1       -2 0.66734373E-01 0.20689480E+04</pdfrwt>
<totfact> 0.69335029E+00</totfact>
</mgrwt>
</event>
<event>
12    1  0.4802930E-008  0.1568076E+04  0.7818608E-02  0.8840404E-01
          2   -1    0    0  501    0  0.00000000000E+00  0.00000000000E+00  0.27014988303E+04  0.27014988303E+04  0.00000000000E+00 0.  1.
         -2   -1    0    0    0  501 -0.00000000000E+00 -0.00000000000E+00 -0.22754613261E+03  0.22754613261E+03  0.00000000000E+00 0. -1.
         23    2    1    2    0    0 -0.31430557081E+03  0.39742152713E+03  0.10357305308E+04  0.11565939979E+04  0.90774893988E+02 0.  0.
        254    2    1    2    0    0  0.31430557081E+03 -0.39742152713E+03  0.14382221668E+04  0.17724509650E+04  0.90353060826E+03 0.  0.
         23    2    4    4    0    0 -0.13006684633E+03 -0.44238952048E+03  0.11236934586E+04  0.12182353524E+04  0.93725730034E+02 0.  0.
         23    2    4    4    0    0  0.44437241714E+03  0.44967993348E+02  0.31452870822E+03  0.55421561263E+03  0.93475512526E+02 0.  0.
         11    1    3    3    0    0 -0.62078280310E+02  0.36031513269E+02  0.11050076722E+03  0.13176646915E+03  0.00000000000E+00 0. -1.
        -11    1    3    3    0    0 -0.25222729050E+03  0.36139001387E+03  0.92522976360E+03  0.10248275287E+04  0.00000000000E+00 0.  1.
          2    1    5    5  502    0  0.57392838556E+01 -0.12218171059E+03  0.27052107713E+03  0.29688880571E+03  0.00000000000E+00 0.  1.
          1    1    6    6  503    0  0.38872063245E+03  0.69577904223E+02  0.26281573992E+03  0.47435949236E+03  0.00000000000E+00 0. -1.
         -2    1    5    5    0  502 -0.13580613019E+03 -0.32020780990E+03  0.85317238147E+03  0.92134654665E+03  0.00000000000E+00 0. -1.
         -1    1    6    6    0  503  0.55651784698E+02 -0.24609910876E+02  0.51712968297E+02  0.79856120263E+02  0.00000000000E+00 0.  1.
<mgrwt>
<rscale>  0 0.15680760E+04</rscale>
<asrwt>0</asrwt>
<pdfrwt beam="1">  1        2 0.41561518E+00 0.15680760E+04</pdfrwt>
<pdfrwt beam="2">  1       -2 0.35007099E-01 0.15680760E+04</pdfrwt>
<totfact> 0.19580208E+01</totfact>
</mgrwt>
</event>
<event>
12    1  0.4802930E-008  0.1380026E+04  0.7818608E-02  0.8968405E-01
          1   -1    0    0  501    0  0.00000000000E+00  0.00000000000E+00  0.74542317036E+03  0.74542317036E+03  0.00000000000E+00 0. -1.
         -1   -1    0    0    0  501 -0.00000000000E+00 -0.00000000000E+00 -0.63872197879E+03  0.63872197879E+03  0.00000000000E+00 0.  1.
         23    2    1    2    0    0 -0.26333144869E+03  0.28807141847E+03  0.89100884929E+02  0.41066653986E+03  0.91539309909E+02 0.  0.
        254    2    1    2    0    0  0.26333144869E+03 -0.28807141847E+03  0.17600306642E+02  0.97347860929E+03  0.89164019534E+03 0.  0.
         23    2    4    4    0    0  0.24887506790E+03  0.98133082517E+02  0.35354683926E+03  0.45307408448E+03  0.93337330007E+02 0.  0.
         23    2    4    4    0    0  0.14456380796E+02 -0.38620450098E+03 -0.33594653261E+03  0.52040452482E+03  0.92724824884E+02 0.  0.
         11    1    3    3    0    0 -0.15261726937E+03  0.16477887457E+03  0.97275735062E+02  0.24475840546E+03  0.00000000000E+00 0. -1.
        -11    1    3    3    0    0 -0.11071417933E+03  0.12329254390E+03 -0.81748501336E+01  0.16590813440E+03  0.00000000000E+00 0.  1.
          1    1    5    5  502    0  0.20640837144E+03  0.10888773777E+03  0.32739232575E+03  0.40205309375E+03  0.00000000000E+00 0. -1.
          3    1    6    6  503    0  0.20812326470E+02 -0.23137382421E+03 -0.25720437041E+03  0.34658489237E+03  0.00000000000E+00 0. -1.
         -1    1    5    5    0  502  0.42466696461E+02 -0.10754655252E+02  0.26154513504E+02  0.51020990724E+02  0.00000000000E+00 0.  1.
         -3    1    6    6    0  503 -0.63559456741E+01 -0.15483067677E+03 -0.78742162207E+02  0.17381963245E+03  0.00000000000E+00 0.  1.
<mgrwt>
<rscale>  0 0.13800263E+04</rscale>
<asrwt>0</asrwt>
<pdfrwt beam="1">  1        1 0.11468049E+00 0.13800263E+04</pdfrwt>
<pdfrwt beam="2">  1       -1 0.98264920E-01 0.13800263E+04</pdfrwt>
<totfact> 0.23965177E+01</totfact>
</mgrwt>
</event>
<event>
12    1  0.4802930E-008  0.1655200E+04  0.7818608E-02  0.8787336E-01
         -1   -1    0    0    0  501 -0.00000000000E+00  0.00000000000E+00  0.51874843543E+03  0.51874843543E+03  0.00000000000E+00 0.  1.
          1   -1    0    0  501    0  0.00000000000E+00 -0.00000000000E+00 -0.13203342960E+04  0.13203342960E+04  0.00000000000E+00 0. -1.
         23    2    1    2    0    0  0.12114392155E+03 -0.94171293271E+02 -0.87274141490E+03  0.89102520054E+03  0.93296562099E+02 0.  0.
        254    2    1    2    0    0 -0.12114392155E+03  0.94171293271E+02  0.71155554282E+02  0.94805753093E+03  0.93284826572E+03 0.  0.
         23    2    4    4    0    0 -0.52260062732E+03  0.40252212295E+02  0.34585994151E+02  0.53118471453E+03  0.78926254755E+02 0.  0.
         23    2    4    4    0    0  0.40145670576E+03  0.53919080976E+02  0.36569560131E+02  0.41687281641E+03  0.91492395511E+02 0.  0.
         13    1    3    3    0    0  0.60275967533E+02 -0.73392025493E+02 -0.70513598369E+03  0.71150287221E+03  0.00000000000E+00 0. -1.
        -13    1    3    3    0    0  0.60867954021E+02 -0.20779267778E+02 -0.16760543121E+03  0.17952232833E+03  0.00000000000E+00 0.  1.
          2    1    5    5  502    0 -0.40692671464E+03  0.21240919570E+02 -0.48311743916E+01  0.40750934713E+03  0.00000000000E+00 0. -1.
          4    1    6    6  503    0  0.90067562800E+01  0.85757073242E+01 -0.13842561186E+02  0.18608624747E+02  0.00000000000E+00 0.  1.
         -2    1    5    5    0  502 -0.11567391267E+03  0.19011292726E+02  0.39417168543E+02  0.12367536740E+03  0.00000000000E+00 0.  1.
         -4    1    6    6    0  503  0.39244994948E+03  0.45343373651E+02  0.50412121317E+02  0.39826419166E+03  0.00000000000E+00 0. -1.
<mgrwt>
<rscale>  0 0.16551995E+04</rscale>
<asrwt>0</asrwt>
<pdfrwt beam="1">  1        1 0.20312835E+00 0.16551995E+04</pdfrwt>
<pdfrwt beam="2">  1       -1 0.79807451E-01 0.16551995E+04</pdfrwt>
<totfact> 0.13101956E+01</totfact>
</mgrwt>
</event>
<event>
12    1  0.4806254E-008  0.1887345E+04  0.7818608E-02  0.8661181E-01
          1   -1    0    0  501    0  0.00000000000E+00  0.00000000000E+00  0.17683746457E+04  0.17683746457E+04  0.00000000000E+00 0. -1.
         -1   -1    0    0    0  501 -0.00000000000E+00 -0.00000000000E+00 -0.50357992570E+03  0.50357992570E+03  0.00000000000E+00 0.  1.
         23    2    1    2    0    0 -0.50902744865E+03 -0.47676451800E+03  0.73266726344E+03  0.10154886118E+04  0.89456429343E+02 0.  0.
        254    2    1    2    0    0  0.50902744865E+03  0.47676451800E+03  0.53212745655E+03  0.12564659595E+04  0.89951860924E+03 0.  0.
         23    2    4    4    0    0  0.70981432990E+03  0.14582291937E+03  0.41999754666E+03  0.84258842500E+03  0.91959817312E+02 0.  0.
         23    2    4    4    0    0 -0.20078688125E+03  0.33094159863E+03  0.11212990988E+03  0.41387753454E+03  0.94253824955E+02 0.  0.
         11    1    3    3    0    0 -0.29307075086E+03 -0.26825474668E+03  0.48016162765E+03  0.62322248258E+03  0.00000000000E+00 0. -1.
        -11    1    3    3    0    0 -0.21595669779E+03 -0.20850977132E+03  0.25250563579E+03  0.39226612925E+03  0.00000000000E+00 0.  1.
          2    1    5    5  502    0  0.66370949767E+03  0.13311690515E+03  0.36275820423E+03  0.76799994952E+03  0.00000000000E+00 0. -1.
          3    1    6    6  503    0 -0.19766465164E+03  0.27242413235E+03  0.76065099302E+02  0.34506828559E+03  0.00000000000E+00 0. -1.
         -2    1    5    5    0  502  0.46104832236E+02  0.12706014225E+02  0.57239342428E+02  0.74588475481E+02  0.00000000000E+00 0.  1.
         -3    1    6    6    0  503 -0.31222296160E+01  0.58517466281E+02  0.36064810582E+02  0.68809248943E+02  0.00000000000E+00 0.  1.
<mgrwt>
<rscale>  0 0.18873452E+04</rscale>
<asrwt>0</asrwt>
<pdfrwt beam="1">  1        1 0.27205764E+00 0.18873452E+04</pdfrwt>
<pdfrwt beam="2">  1       -1 0.77473835E-01 0.18873452E+04</pdfrwt>
<totfact> 0.66950580E+00</totfact>
</mgrwt>
</event>
<event>
12    1  0.4802930E-008  0.1823065E+04  0.7818608E-02  0.8694129E-01
         -2   -1    0    0    0  501 -0.00000000000E+00  0.00000000000E+00  0.59160167132E+03  0.59160167132E+03  0.00000000000E+00 0.  1.
          2   -1    0    0  501    0  0.00000000000E+00 -0.00000000000E+00 -0.14044782391E+04  0.14044782391E+04  0.00000000000E+00 0. -1.
         23    2    1    2    0    0 -0.90124687602E+02 -0.33340621641E+03 -0.96613634038E+03  0.10300878412E+04  0.91538887624E+02 0.  0.
        254    2    1    2    0    0  0.90124687602E+02  0.33340621641E+03  0.15325977257E+03  0.96599206925E+03  0.88902753360E+03 0.  0.
         23    2    4    4    0    0 -0.82980264569E+02 -0.26527434282E+03  0.16571286991E+03  0.33617876889E+03  0.91099989744E+02 0.  0.
         23    2    4    4    0    0  0.17310495217E+03  0.59868055923E+03 -0.12453097341E+02  0.62981330035E+03  0.90144202303E+02 0.  0.
         13    1    3    3    0    0 -0.98974221553E+01 -0.45138442021E+02 -0.59419231224E+02  0.75273388078E+02  0.00000000000E+00 0.  1.
        -13    1    3    3    0    0 -0.80227265446E+02 -0.28826777439E+03 -0.90671710916E+03  0.95481445313E+03  0.00000000000E+00 0. -1.
          4    1    5    5  502    0 -0.56482004892E+02 -0.14148563319E+03  0.14020655060E+03  0.20704173035E+03  0.00000000000E+00 0. -1.
          3    1    6    6  503    0  0.72250897483E+02  0.38244452569E+03 -0.31331028181E+02  0.39046848880E+03  0.00000000000E+00 0. -1.
         -4    1    5    5    0  502 -0.26498259678E+02 -0.12378870963E+03  0.25506319315E+02  0.12913703854E+03  0.00000000000E+00 0.  1.
         -3    1    6    6    0  503  0.10085405469E+03  0.21623603354E+03  0.18877930840E+02  0.23934481156E+03  0.00000000000E+00 0.  1.
<mgrwt>
<rscale>  0 0.18230652E+04</rscale>
<asrwt>0</asrwt>
<pdfrwt beam="1">  1        2 0.21607357E+00 0.18230652E+04</pdfrwt>
<pdfrwt beam="2">  1       -2 0.91015642E-01 0.18230652E+04</pdfrwt>
<totfact> 0.13960190E+01</totfact>
</mgrwt>
</event>
<event>
12    1  0.4802930E-008  0.1914706E+04  0.7818608E-02  0.8647571E-01
         -1   -1    0    0    0  501 -0.00000000000E+00  0.00000000000E+00  0.67150862111E+03  0.67150862111E+03  0.00000000000E+00 0.  1.
          1   -1    0    0  501    0  0.00000000000E+00 -0.00000000000E+00 -0.13648739267E+04  0.13648739267E+04  0.00000000000E+00 0. -1.
         23    2    1    2    0    0 -0.44884404325E+02  0.32876285042E+03  0.43850111427E+03  0.55737642345E+03  0.91025428490E+02 0.  0.
        254    2    1    2    0    0  0.44884404325E+02 -0.32876285042E+03 -0.11318664199E+04  0.14790061244E+04  0.89232163590E+03 0.  0.
         23    2    4    4    0    0  0.13363005107E+03 -0.48558626837E+03 -0.11649791240E+04  0.12724848099E+04  0.91598131616E+02 0.  0.
         23    2    4    4    0    0 -0.88745646747E+02  0.15682341795E+03  0.33112704095E+02  0.20652131440E+03  0.95316461827E+02 0.  0.
         11    1    3    3    0    0 -0.17026498607E+02  0.14363585658E+03  0.26613120268E+03  0.30289763615E+03  0.00000000000E+00 0.  1.
        -11    1    3    3    0    0 -0.27857905718E+02  0.18512699384E+03  0.17236991160E+03  0.25447878730E+03  0.00000000000E+00 0. -1.
          3    1    6    6  502    0 -0.24632770221E+02  0.13183714988E+03  0.12548146383E+02  0.13470435566E+03  0.00000000000E+00 0. -1.
          3    1    5    5  503    0  0.13767597654E+03 -0.34853800457E+03 -0.84521889653E+03  0.92456930416E+03  0.00000000000E+00 0. -1.
         -3    1    5    5    0  503 -0.40459254652E+01 -0.13704826380E+03 -0.31976022742E+03  0.34791550578E+03  0.00000000000E+00 0.  1.
         -3    1    6    6    0  502 -0.64112876526E+02  0.24986268074E+02  0.20564557713E+02  0.71816958739E+02  0.00000000000E+00 0.  1.
<mgrwt>
<rscale>  0 0.19147058E+04</rscale>
<asrwt>0</asrwt>
<pdfrwt beam="1">  1        1 0.20998060E+00 0.19147058E+04</pdfrwt>
<pdfrwt beam="2">  1       -1 0.10330902E+00 0.19147058E+04</pdfrwt>
<totfact> 0.67201054E+00</totfact>
</mgrwt>
</event>
<event>
12    1  0.4802930E-008  0.1701955E+04  0.7818608E-02  0.8760250E-01
          2   -1    0    0  501    0  0.00000000000E+00  0.00000000000E+00  0.94167945713E+03  0.94167945713E+03  0.00000000000E+00 0. -1.
         -2   -1    0    0    0  501 -0.00000000000E+00 -0.00000000000E+00 -0.76901223319E+03  0.76901223319E+03  0.00000000000E+00 0.  1.
         23    2    1    2    0    0  0.11331740656E+03 -0.55355872278E+03 -0.15524136751E+03  0.59311626875E+03  0.91754737624E+02 0.  0.
        254    2    1    2    0    0 -0.11331740656E+03  0.55355872278E+03  0.32790859146E+03  0.11175754216E+04  0.90674289870E+03 0.  0.
         23    2    4    4    0    0  0.48442185443E+02  0.69793150377E+03 -0.97959763618E+01  0.70622554755E+03  0.95935048747E+02 0.  0.
         23    2    4    4    0    0 -0.16175959201E+03 -0.14437278099E+03  0.33770456782E+03  0.41134987401E+03  0.90303256996E+02 0.  0.
         13    1    3    3    0    0  0.88524079837E+02 -0.24847262299E+03 -0.43879021510E+02  0.26739582198E+03  0.00000000000E+00 0. -1.
        -13    1    3    3    0    0  0.24793326725E+02 -0.30508609979E+03 -0.11136234600E+03  0.32572044677E+03  0.00000000000E+00 0.  1.
          2    1    5    5  502    0  0.17343679627E+02  0.58966652964E+03 -0.34411878585E+02  0.59092435793E+03  0.00000000000E+00 0. -1.
          1    1    6    6  503    0 -0.12682294845E+03 -0.92572606673E+02  0.16536378283E+03  0.22803273544E+03  0.00000000000E+00 0. -1.
         -2    1    5    5    0  502  0.31098505816E+02  0.10826497413E+03  0.24615902224E+02  0.11530118963E+03  0.00000000000E+00 0.  1.
         -1    1    6    6    0  503 -0.34936643551E+02 -0.51800174320E+02  0.17234078499E+03  0.18331713857E+03  0.00000000000E+00 0.  1.
<mgrwt>
<rscale>  0 0.17019554E+04</rscale>
<asrwt>0</asrwt>
<pdfrwt beam="1">  1        2 0.14487376E+00 0.17019554E+04</pdfrwt>
<pdfrwt beam="2">  1       -2 0.11830957E+00 0.17019554E+04</pdfrwt>
<totfact> 0.14389461E+01</totfact>
</mgrwt>
</event>
<event>
12    1  0.4802930E-008  0.2003234E+04  0.7818608E-02  0.8605110E-01
         -1   -1    0    0    0  501 -0.00000000000E+00  0.00000000000E+00  0.76566263126E+03  0.76566263126E+03  0.00000000000E+00 0.  1.
          1   -1    0    0  501    0  0.00000000000E+00 -0.00000000000E+00 -0.13102852080E+04  0.13102852080E+04  0.00000000000E+00 0. -1.
         23    2    1    2    0    0 -0.36431314667E+03 -0.56950769954E+03 -0.65299126058E+03  0.94448487193E+03  0.92687637997E+02 0.  0.
        254    2    1    2    0    0  0.36431314667E+03  0.56950769954E+03  0.10836868382E+03  0.11314629674E+04  0.90077832245E+03 0.  0.
         23    2    4    4    0    0  0.38561131395E+02  0.14680131542E+03  0.45516088042E+03  0.48847787166E+03  0.91660334792E+02 0.  0.
         23    2    4    4    0    0  0.32575201527E+03  0.42270638412E+03 -0.34679219660E+03  0.64298509570E+03  0.91487392763E+02 0.  0.
         11    1    3    3    0    0 -0.32694595423E+03 -0.55094182919E+03 -0.61453565248E+03  0.88774130483E+03  0.00000000000E+00 0. -1.
        -11    1    3    3    0    0 -0.37367192434E+02 -0.18565870354E+02 -0.38455608097E+02  0.56743567094E+02  0.00000000000E+00 0.  1.
          1    1    6    6  502    0  0.29559225705E+03  0.40840441102E+03 -0.34213536265E+03  0.60928281754E+03  0.00000000000E+00 0.  1.
          1    1    5    5  503    0  0.59595318368E+01 -0.92591555734E+01  0.76279288895E+01  0.13395270837E+02  0.00000000000E+00 0. -1.
         -1    1    5    5    0  503  0.32601599558E+02  0.15606047099E+03  0.44753295153E+03  0.47508260082E+03  0.00000000000E+00 0.  1.
         -1    1    6    6    0  502  0.30159758225E+02  0.14301973098E+02 -0.46568339479E+01  0.33702278159E+02  0.00000000000E+00 0. -1.
<mgrwt>
<rscale>  0 0.20032338E+04</rscale>
<asrwt>0</asrwt>
<pdfrwt beam="1">  1        1 0.20158234E+00 0.20032338E+04</pdfrwt>
<pdfrwt beam="2">  1       -1 0.11779425E+00 0.20032338E+04</pdfrwt>
<totfact> 0.53431356E+00</totfact>
</mgrwt>
</event>
<event>
12    1  0.4802930E-008  0.1170593E+04  0.7818608E-02  0.9138993E-01
         -2   -1    0    0    0  501 -0.00000000000E+00  0.00000000000E+00  0.75536896731E+03  0.75536896731E+03  0.00000000000E+00 0.  1.
          2   -1    0    0  501    0  0.00000000000E+00 -0.00000000000E+00 -0.45351573582E+03  0.45351573582E+03  0.00000000000E+00 0. -1.
         23    2    1    2    0    0 -0.14167937523E+03 -0.17635775812E+03 -0.60289782453E+02  0.25136368020E+03  0.91508128799E+02 0.  0.
        254    2    1    2    0    0  0.14167937523E+03  0.17635775812E+03  0.36214301395E+03  0.95752102293E+03  0.85704366434E+03 0.  0.
         23    2    4    4    0    0  0.44978495342E+03 -0.43737182880E+02  0.59869280344E+02  0.46470827339E+03  0.90277367806E+02 0.  0.
         23    2    4    4    0    0 -0.30810557819E+03  0.22009494100E+03  0.30227373360E+03  0.49281274954E+03  0.90134154002E+02 0.  0.
         11    1    3    3    0    0 -0.81325674658E+02 -0.16105087293E+03 -0.56178060155E+02  0.18896355065E+03  0.00000000000E+00 0. -1.
        -11    1    3    3    0    0 -0.60353700576E+02 -0.15306885193E+02 -0.41117222989E+01  0.62400129550E+02  0.00000000000E+00 0.  1.
          2    1    5    5  502    0  0.89461248921E+02 -0.19669657349E+02  0.47939347257E+02  0.10338467727E+03  0.00000000000E+00 0. -1.
          3    1    6    6  503    0 -0.14588000536E+03  0.51243882495E+02  0.10867335174E+03  0.18898891193E+03  0.00000000000E+00 0. -1.
         -2    1    5    5    0  502  0.36032370450E+03 -0.24067525531E+02  0.11929933087E+02  0.36132359612E+03  0.00000000000E+00 0.  1.
         -3    1    6    6    0  503 -0.16222557283E+03  0.16885105851E+03  0.19360038187E+03  0.30382383761E+03  0.00000000000E+00 0.  1.
<mgrwt>
<rscale>  0 0.11705925E+04</rscale>
<asrwt>0</asrwt>
<pdfrwt beam="1">  1        2 0.69771652E-01 0.11705925E+04</pdfrwt>
<pdfrwt beam="2">  1       -2 0.11621061E+00 0.11705925E+04</pdfrwt>
<totfact> 0.39155722E+01</totfact>
</mgrwt>
</event>
<event>
12    1  0.4802930E-008  0.1488312E+04  0.7818608E-02  0.8892263E-01
         -2   -1    0    0    0  501 -0.00000000000E+00  0.00000000000E+00  0.51608723557E+03  0.51608723557E+03  0.00000000000E+00 0.  1.
          2   -1    0    0  501    0  0.00000000000E+00 -0.00000000000E+00 -0.10730126581E+04  0.10730126581E+04  0.00000000000E+00 0. -1.
         23    2    1    2    0    0  0.28158683547E+02 -0.45267808391E+03 -0.30553059554E+03  0.55420497854E+03  0.89910256973E+02 0.  0.
        254    2    1    2    0    0 -0.28158683547E+02  0.45267808391E+03 -0.25139482695E+03  0.10348949151E+04  0.89559911073E+03 0.  0.
         23    2    4    4    0    0 -0.75488326032E+02 -0.21170469152E+03  0.11575160946E+03  0.26870346852E+03  0.91026123319E+02 0.  0.
         23    2    4    4    0    0  0.47329642485E+02  0.66438277543E+03 -0.36714643641E+03  0.76619144656E+03  0.92780707416E+02 0.  0.
         13    1    3    3    0    0  0.33232761511E+02 -0.37525029912E+03 -0.28916561373E+03  0.47490415411E+03  0.00000000000E+00 0. -1.
        -13    1    3    3    0    0 -0.50740779643E+01 -0.77427784798E+02 -0.16364981815E+02  0.79300824433E+02  0.00000000000E+00 0.  1.
          2    1    5    5  502    0  0.20996819406E+02 -0.49364118292E+02  0.25325200677E+02  0.59321567657E+02  0.00000000000E+00 0. -1.
          3    1    6    6  503    0  0.14456896658E+02  0.17584785096E+02 -0.23518414674E+01  0.22885752908E+02  0.00000000000E+00 0. -1.
         -2    1    5    5    0  502 -0.96485145438E+02 -0.16234057322E+03  0.90426408782E+02  0.20938190087E+03  0.00000000000E+00 0.  1.
         -3    1    6    6    0  503  0.32872745827E+02  0.64679799034E+03 -0.36479459494E+03  0.74330569365E+03  0.00000000000E+00 0.  1.
<mgrwt>
<rscale>  0 0.14883120E+04</rscale>
<asrwt>0</asrwt>
<pdfrwt beam="1">  1        2 0.16507887E+00 0.14883120E+04</pdfrwt>
<pdfrwt beam="2">  1       -2 0.79398037E-01 0.14883120E+04</pdfrwt>
<totfact> 0.30793110E+01</totfact>
</mgrwt>
</event>
<event>
12    1  0.4802930E-008  0.1396388E+04  0.7818608E-02  0.8956437E-01
          2   -1    0    0  501    0  0.00000000000E+00  0.00000000000E+00  0.11464135425E+04  0.11464135425E+04  0.00000000000E+00 0. -1.
         -2   -1    0    0    0  501 -0.00000000000E+00 -0.00000000000E+00 -0.42521725974E+03  0.42521725974E+03  0.00000000000E+00 0.  1.
         23    2    1    2    0    0 -0.13486002913E+03 -0.37477560735E+03  0.24000854642E+03  0.47432438882E+03  0.93464111573E+02 0.  0.
        254    2    1    2    0    0  0.13486002913E+03  0.37477560735E+03  0.48118773631E+03  0.10973064134E+04  0.90216170611E+03 0.  0.
         23    2    4    4    0    0 -0.14957240315E+02  0.12293466102E+03  0.70253742041E+03  0.71936777479E+03  0.92706625542E+02 0.  0.
         23    2    4    4    0    0  0.14981726944E+03  0.25184094633E+03 -0.22134968410E+03  0.37793863860E+03  0.89290847346E+02 0.  0.
         11    1    3    3    0    0 -0.12789137708E+03 -0.36181855505E+03  0.24864263318E+03  0.45726582001E+03  0.00000000000E+00 0. -1.
        -11    1    3    3    0    0 -0.69686520463E+01 -0.12957052305E+02 -0.86340867637E+01  0.17058568815E+02  0.00000000000E+00 0.  1.
          2    1    5    5  502    0 -0.54232423428E+02  0.65306513441E+02  0.37494930561E+03  0.38443865339E+03  0.00000000000E+00 0. -1.
          4    1    6    6  503    0  0.11896683512E+03  0.15497178174E+03 -0.99499570098E+02  0.21924763498E+03  0.00000000000E+00 0. -1.
         -2    1    5    5    0  502  0.39275183113E+02  0.57628147580E+02  0.32758811480E+03  0.33492912140E+03  0.00000000000E+00 0.  1.
         -4    1    6    6    0  503  0.30850434322E+02  0.96869164593E+02 -0.12185011400E+03  0.15869100362E+03  0.00000000000E+00 0.  1.
<mgrwt>
<rscale>  0 0.13963879E+04</rscale>
<asrwt>0</asrwt>
<pdfrwt beam="1">  1        2 0.17637131E+00 0.13963879E+04</pdfrwt>
<pdfrwt beam="2">  1       -2 0.65418040E-01 0.13963879E+04</pdfrwt>
<totfact> 0.42777479E+01</totfact>
</mgrwt>
</event>
<event>
12    1  0.4802930E-008  0.1785234E+04  0.7818608E-02  0.8714191E-01
         -2   -1    0    0    0  501 -0.00000000000E+00  0.00000000000E+00  0.26168288273E+03  0.26168288273E+03  0.00000000000E+00 0.  1.
          2   -1    0    0  501    0  0.00000000000E+00 -0.00000000000E+00 -0.30447743949E+04  0.30447743949E+04  0.00000000000E+00 0. -1.
         23    2    1    2    0    0  0.60135831277E+03 -0.95405252442E+02 -0.55320106862E+03  0.82752516358E+03  0.89624168150E+02 0.  0.
        254    2    1    2    0    0 -0.60135831277E+03  0.95405252442E+02 -0.22298904436E+04  0.24789321141E+04  0.89552166545E+03 0.  0.
         23    2    4    4    0    0 -0.15280166641E+03  0.20818790198E+03 -0.91887632834E+02  0.28956631847E+03  0.93352899975E+02 0.  0.
         23    2    4    4    0    0 -0.44855664636E+03 -0.11278264954E+03 -0.21380028107E+04  0.21893657956E+04  0.91343183547E+02 0.  0.
         11    1    3    3    0    0  0.41560243831E+03 -0.79904307572E+02 -0.43444302722E+03  0.60650707250E+03  0.00000000000E+00 0.  1.
        -11    1    3    3    0    0  0.18575587446E+03 -0.15500944871E+02 -0.11875804140E+03  0.22101809108E+03  0.00000000000E+00 0. -1.
          2    1    5    5  502    0 -0.13712383899E+03  0.20476407689E+03 -0.59647086364E+02  0.25355285310E+03  0.00000000000E+00 0. -1.
          4    1    6    6  503    0 -0.32541967664E+03 -0.12155749663E+03 -0.16254976774E+04  0.16622024215E+04  0.00000000000E+00 0. -1.
         -2    1    5    5    0  502 -0.15677827419E+02  0.34238250896E+01 -0.32240546470E+02  0.36013465364E+02  0.00000000000E+00 0.  1.
         -4    1    6    6    0  503 -0.12313696972E+03  0.87748470917E+01 -0.51250513336E+03  0.52716337409E+03  0.00000000000E+00 0.  1.
<mgrwt>
<rscale>  0 0.17852343E+04</rscale>
<asrwt>0</asrwt>
<pdfrwt beam="1">  1        2 0.46842683E+00 0.17852343E+04</pdfrwt>
<pdfrwt beam="2">  1       -2 0.40258905E-01 0.17852343E+04</pdfrwt>
<totfact> 0.90453438E+00</totfact>
</mgrwt>
</event>
<event>
12    1  0.4802930E-008  0.1149132E+04  0.7818608E-02  0.9158585E-01
          2   -1    0    0  501    0  0.00000000000E+00  0.00000000000E+00  0.16327029724E+03  0.16327029724E+03  0.00000000000E+00 0.  1.
         -2   -1    0    0    0  501 -0.00000000000E+00 -0.00000000000E+00 -0.20219611013E+04  0.20219611013E+04  0.00000000000E+00 0. -1.
         23    2    1    2    0    0 -0.16549600887E+03  0.58332710401E+02 -0.17062120021E+03  0.26200128756E+03  0.93495704017E+02 0.  0.
        254    2    1    2    0    0  0.16549600887E+03 -0.58332710401E+02 -0.16880696039E+04  0.19232301110E+04  0.90467863813E+03 0.  0.
         23    2    4    4    0    0 -0.11961745408E+02  0.37166654833E+03 -0.41352222976E+03  0.56333301875E+03  0.89801720520E+02 0.  0.
         23    2    4    4    0    0  0.17745775427E+03 -0.42999925873E+03 -0.12745473741E+04  0.13598970923E+04  0.91969971106E+02 0.  0.
         13    1    3    3    0    0 -0.40237529776E+02  0.10488166000E+02 -0.10456219706E+03  0.11252694558E+03  0.00000000000E+00 0.  1.
        -13    1    3    3    0    0 -0.12525847909E+03  0.47844544401E+02 -0.66059003153E+02  0.14947434198E+03  0.00000000000E+00 0. -1.
          4    1    5    5  502    0  0.33952701723E+02  0.25293960565E+03 -0.27994146554E+03  0.37881189817E+03  0.00000000000E+00 0. -1.
          1    1    6    6  503    0  0.22771853998E+02 -0.15981765911E+03 -0.48633771187E+03  0.51243010400E+03  0.00000000000E+00 0. -1.
         -4    1    5    5    0  502 -0.45914447132E+02  0.11872694268E+03 -0.13358076421E+03  0.18452112058E+03  0.00000000000E+00 0.  1.
         -1    1    6    6    0  503  0.15468590028E+03 -0.27018159962E+03 -0.78820966224E+03  0.84746698825E+03  0.00000000000E+00 0.  1.
<mgrwt>
<rscale>  0 0.11491322E+04</rscale>
<asrwt>0</asrwt>
<pdfrwt beam="1">  1        2 0.25118510E-01 0.11491322E+04</pdfrwt>
<pdfrwt beam="2">  1       -2 0.31107091E+00 0.11491322E+04</pdfrwt>
<totfact> 0.59369097E+00</totfact>
</mgrwt>
</event>
<event>
12    1  0.4802930E-008  0.1549118E+04  0.7818608E-02  0.8852431E-01
          2   -1    0    0  501    0  0.00000000000E+00  0.00000000000E+00  0.74935124202E+03  0.74935124202E+03  0.00000000000E+00 0. -1.
         -2   -1    0    0    0  501 -0.00000000000E+00 -0.00000000000E+00 -0.80061462204E+03  0.80061462204E+03  0.00000000000E+00 0.  1.
         23    2    1    2    0    0 -0.25211630319E+03  0.17079073608E+03  0.39496813149E+03  0.50669477445E+03  0.89485550167E+02 0.  0.
        254    2    1    2    0    0  0.25211630319E+03 -0.17079073608E+03 -0.44623151152E+03  0.10432710896E+04  0.89250204407E+03 0.  0.
         23    2    4    4    0    0  0.41787862882E+03 -0.37991918450E+03 -0.49596998655E+03  0.75711984861E+03  0.91011551039E+02 0.  0.
         23    2    4    4    0    0 -0.16576232563E+03  0.20912844842E+03  0.49738475035E+02  0.28615124099E+03  0.90535961281E+02 0.  0.
         13    1    3    3    0    0 -0.21870774411E+03  0.17854323931E+03  0.36242885517E+03  0.45941858984E+03  0.00000000000E+00 0. -1.
        -13    1    3    3    0    0 -0.33408559086E+02 -0.77525032343E+01  0.32539276329E+02  0.47276184603E+02  0.00000000000E+00 0.  1.
          1    1    5    5  502    0  0.32044783742E+03 -0.24203880807E+03 -0.32244242882E+03  0.51501332121E+03  0.00000000000E+00 0. -1.
          3    1    6    6  503    0 -0.17722439489E+03  0.19883376885E+03  0.48066811615E+02  0.27065434073E+03  0.00000000000E+00 0. -1.
         -1    1    5    5    0  502  0.97430791402E+02 -0.13788037644E+03 -0.17352755773E+03  0.24210652741E+03  0.00000000000E+00 0.  1.
         -3    1    6    6    0  503  0.11462069256E+02  0.10294679576E+02  0.16716634202E+01  0.15496900264E+02  0.00000000000E+00 0.  1.
<mgrwt>
<rscale>  0 0.15491179E+04</rscale>
<asrwt>0</asrwt>
<pdfrwt beam="1">  1        2 0.11528481E+00 0.15491179E+04</pdfrwt>
<pdfrwt beam="2">  1       -2 0.12317148E+00 0.15491179E+04</pdfrwt>
<totfact> 0.17978078E+01</totfact>
</mgrwt>
</event>
<event>
12    1  0.4802930E-008  0.1997061E+04  0.7818608E-02  0.8607996E-01
          1   -1    0    0  501    0  0.00000000000E+00  0.00000000000E+00  0.12753321539E+04  0.12753321539E+04  0.00000000000E+00 0. -1.
         -1   -1    0    0    0  501 -0.00000000000E+00 -0.00000000000E+00 -0.78180683758E+03  0.78180683758E+03  0.00000000000E+00 0.  1.
         23    2    1    2    0    0 -0.66186902356E+03  0.28704307456E+03  0.48408292911E+03  0.87444120989E+03  0.99231125623E+02 0.  0.
        254    2    1    2    0    0  0.66186902356E+03 -0.28704307456E+03  0.94423871870E+01  0.11826977816E+04  0.93713422350E+03 0.  0.
         23    2    4    4    0    0  0.63935717887E+03 -0.35946644106E+03  0.35311378361E+03  0.81918829795E+03  0.91577283781E+02 0.  0.
         23    2    4    4    0    0  0.22511844689E+02  0.72423366497E+02 -0.34367139643E+03  0.36350948361E+03  0.90979056867E+02 0.  0.
         11    1    3    3    0    0 -0.47814075755E+03  0.15994888953E+03  0.35214945791E+03  0.61498900153E+03  0.00000000000E+00 0. -1.
        -11    1    3    3    0    0 -0.18372826601E+03  0.12709418504E+03  0.13193347120E+03  0.25945220836E+03  0.00000000000E+00 0.  1.
          1    1    5    5  502    0  0.27363079517E+02  0.10814623031E+01  0.23701725151E+02  0.36217115519E+02  0.00000000000E+00 0. -1.
          3    1    6    6  503    0  0.32765505555E+01  0.17640238901E+01  0.55557925964E+01  0.66868823230E+01  0.00000000000E+00 0. -1.
         -1    1    5    5    0  502  0.61199409935E+03 -0.36054790337E+03  0.32941205846E+03  0.78297118243E+03  0.00000000000E+00 0.  1.
         -3    1    6    6    0  503  0.19235294133E+02  0.70659342607E+02 -0.34922718902E+03  0.35682260129E+03  0.00000000000E+00 0.  1.
<mgrwt>
<rscale>  0 0.19970612E+04</rscale>
<asrwt>0</asrwt>
<pdfrwt beam="1">  1        1 0.19620495E+00 0.19970612E+04</pdfrwt>
<pdfrwt beam="2">  1       -1 0.12027797E+00 0.19970612E+04</pdfrwt>
<totfact> 0.53820083E+00</totfact>
</mgrwt>
</event>
<event>
12    1  0.4802930E-008  0.1796520E+04  0.7818608E-02  0.8708152E-01
          2   -1    0    0  501    0  0.00000000000E+00  0.00000000000E+00  0.13557425294E+04  0.13557425294E+04  0.00000000000E+00 0. -1.
         -2   -1    0    0    0  501 -0.00000000000E+00 -0.00000000000E+00 -0.59515087023E+03  0.59515087023E+03  0.00000000000E+00 0.  1.
         23    2    1    2    0    0  0.69068265960E+01 -0.42649192512E+03  0.83779102625E+03  0.94446534352E+03  0.90431825142E+02 0.  0.
        254    2    1    2    0    0 -0.69068265960E+01  0.42649192512E+03 -0.77199367125E+02  0.10064280561E+04  0.90829214645E+03 0.  0.
         23    2    4    4    0    0  0.22127271538E+03  0.32966646477E+03  0.32763302525E+03  0.52287916833E+03  0.91747658670E+02 0.  0.
         23    2    4    4    0    0 -0.22817954198E+03  0.96825460354E+02 -0.40483239238E+03  0.48354888773E+03  0.92136788306E+02 0.  0.
         13    1    3    3    0    0  0.22693111824E+02 -0.53710209599E+02  0.16701456071E+03  0.17690004926E+03  0.00000000000E+00 0.  1.
        -13    1    3    3    0    0 -0.15786285228E+02 -0.37278171553E+03  0.67077646555E+03  0.76756529427E+03  0.00000000000E+00 0. -1.
          3    1    5    5  502    0  0.14270278604E+03  0.16500301374E+03  0.22566298490E+03  0.31386918045E+03  0.00000000000E+00 0. -1.
          3    1    6    6  503    0 -0.17122251437E+03  0.96074925546E+02 -0.36362617434E+03  0.41324512751E+03  0.00000000000E+00 0. -1.
         -3    1    5    5    0  502  0.78569929348E+02  0.16466345103E+03  0.10197004035E+03  0.20900998788E+03  0.00000000000E+00 0.  1.
         -3    1    6    6    0  503 -0.56957027612E+02  0.75053480836E+00 -0.41206218041E+02  0.70303760228E+02  0.00000000000E+00 0.  1.
<mgrwt>
<rscale>  0 0.17965204E+04</rscale>
<asrwt>0</asrwt>
<pdfrwt beam="1">  1        2 0.20857577E+00 0.17965204E+04</pdfrwt>
<pdfrwt beam="2">  1       -2 0.91561672E-01 0.17965204E+04</pdfrwt>
<totfact> 0.14717135E+01</totfact>
</mgrwt>
</event>
<event>
12    1  0.4802930E-008  0.3061800E+04  0.7818608E-02  0.8226301E-01
         -2   -1    0    0    0  501 -0.00000000000E+00  0.00000000000E+00  0.14213376895E+04  0.14213376895E+04  0.00000000000E+00 0.  1.
          2   -1    0    0  501    0  0.00000000000E+00 -0.00000000000E+00 -0.16489074666E+04  0.16489074666E+04  0.00000000000E+00 0. -1.
         23    2    1    2    0    0 -0.74722911006E+03 -0.97802687656E+03  0.57035276263E+03  0.13594259480E+04  0.88593001531E+02 0.  0.
        254    2    1    2    0    0  0.74722911006E+03  0.97802687656E+03 -0.79792253965E+03  0.17108192081E+04  0.88053056132E+03 0.  0.
         23    2    4    4    0    0 -0.11735848887E+03 -0.34718554723E+02 -0.19033470122E+03  0.24425912977E+03  0.91961029988E+02 0.  0.
         23    2    4    4    0    0  0.86458759893E+03  0.10127454313E+04 -0.60758783843E+03  0.14665600784E+04  0.92035086767E+02 0.  0.
         13    1    3    3    0    0 -0.20054465709E+03 -0.28486222126E+03  0.12059328912E+03  0.36865618938E+03  0.00000000000E+00 0. -1.
        -13    1    3    3    0    0 -0.54668445297E+03 -0.69316465530E+03  0.44975947352E+03  0.99076975857E+03  0.00000000000E+00 0.  1.
          1    1    5    5  502    0 -0.94124312709E+01 -0.15820767527E+02 -0.10159037203E+03  0.10324482668E+03  0.00000000000E+00 0. -1.
          3    1    6    6  503    0  0.14044024205E+03  0.22050174440E+03 -0.12222703062E+03  0.28858954917E+03  0.00000000000E+00 0. -1.
         -1    1    5    5    0  502 -0.10794605760E+03 -0.18897787196E+02 -0.88744329192E+02  0.14101430309E+03  0.00000000000E+00 0.  1.
         -3    1    6    6    0  503  0.72414735688E+03  0.79224368688E+03 -0.48536080781E+03  0.11779705292E+04  0.00000000000E+00 0.  1.
<mgrwt>
<rscale>  0 0.30617997E+04</rscale>
<asrwt>0</asrwt>
<pdfrwt beam="1">  1        2 0.25367807E+00 0.30617997E+04</pdfrwt>
<pdfrwt beam="2">  1       -2 0.21866734E+00 0.30617997E+04</pdfrwt>
<totfact> 0.89886896E-01</totfact>
</mgrwt>
</event>
<event>
12    1  0.4802930E-008  0.2072009E+04  0.7818608E-02  0.8573675E-01
          2   -1    0    0  501    0  0.00000000000E+00  0.00000000000E+00  0.14005278189E+04  0.14005278189E+04  0.00000000000E+00 0. -1.
         -2   -1    0    0    0  501 -0.00000000000E+00 -0.00000000000E+00 -0.76635777597E+03  0.76635777597E+03  0.00000000000E+00 0.  1.
         23    2    1    2    0    0  0.23576959781E+03 -0.60551216011E+03 -0.27060766018E+03  0.70976977854E+03  0.91172109167E+02 0.  0.
        254    2    1    2    0    0 -0.23576959781E+03  0.60551216011E+03  0.90477770311E+03  0.14571158163E+04  0.93932504005E+03 0.  0.
         23    2    4    4    0    0  0.76731411396E+02  0.64061193182E+03  0.20605798584E+03  0.68426409110E+03  0.97396592093E+02 0.  0.
         23    2    4    4    0    0 -0.31250100920E+03 -0.35099771710E+02  0.69871971727E+03  0.77285172524E+03  0.10100332260E+03 0.  0.
         13    1    3    3    0    0  0.53179737987E+02 -0.11124350615E+03 -0.90398963507E+02  0.15288942016E+03  0.00000000000E+00 0. -1.
        -13    1    3    3    0    0  0.18258985982E+03 -0.49426865396E+03 -0.18020869668E+03  0.55688035838E+03  0.00000000000E+00 0.  1.
          4    1    5    5  502    0  0.45853634910E+02  0.12964494292E+03  0.16969762690E+02  0.13855807413E+03  0.00000000000E+00 0. -1.
          1    1    6    6  503    0 -0.10625583304E+03 -0.48620115405E+02  0.33106866869E+03  0.35108500547E+03  0.00000000000E+00 0. -1.
         -4    1    5    5    0  502  0.30877776486E+02  0.51096698889E+03  0.18908822315E+03  0.54570601697E+03  0.00000000000E+00 0.  1.
         -1    1    6    6    0  503 -0.20624517616E+03  0.13520343695E+02  0.36765104857E+03  0.42176671976E+03  0.00000000000E+00 0.  1.
<mgrwt>
<rscale>  0 0.20720091E+04</rscale>
<asrwt>0</asrwt>
<pdfrwt beam="1">  1        2 0.21546582E+00 0.20720091E+04</pdfrwt>
<pdfrwt beam="2">  1       -2 0.11790120E+00 0.20720091E+04</pdfrwt>
<totfact> 0.74106112E+00</totfact>
</mgrwt>
</event>
<event>
12    1  0.4802930E-008  0.2178101E+04  0.7818608E-02  0.8527599E-01
         -2   -1    0    0    0  501 -0.00000000000E+00  0.00000000000E+00  0.13478028966E+04  0.13478028966E+04  0.00000000000E+00 0.  1.
          2   -1    0    0  501    0  0.00000000000E+00 -0.00000000000E+00 -0.87997324811E+03  0.87997324811E+03  0.00000000000E+00 0. -1.
         23    2    1    2    0    0 -0.17866525951E+03  0.33513893617E+03 -0.64831563491E+03  0.75676038229E+03  0.90187206602E+02 0.  0.
        254    2    1    2    0    0  0.17866525951E+03 -0.33513893617E+03  0.11161452834E+04  0.14710157624E+04  0.87969750377E+03 0.  0.
         23    2    4    4    0    0 -0.34875689150E+03 -0.11456125421E+03  0.38902643729E+03  0.54149501354E+03  0.84377902552E+02 0.  0.
         23    2    4    4    0    0  0.52742215101E+03 -0.22057768196E+03  0.72711884608E+03  0.92952074886E+03  0.92078048871E+02 0.  0.
         13    1    3    3    0    0 -0.52674525395E+02  0.57282001976E+02 -0.79235705882E+02  0.11105913048E+03  0.00000000000E+00 0.  1.
        -13    1    3    3    0    0 -0.12599073412E+03  0.27785693420E+03 -0.56907992903E+03  0.64570125181E+03  0.00000000000E+00 0. -1.
          1    1    5    5  502    0 -0.19126131764E+03 -0.19399084968E+02  0.18616322095E+03  0.26760784921E+03  0.00000000000E+00 0. -1.
          3    1    6    6  503    0  0.77587644139E+02 -0.60965358387E+02  0.16325513403E+03  0.19075863345E+03  0.00000000000E+00 0. -1.
         -1    1    5    5    0  502 -0.15749557386E+03 -0.95162169242E+02  0.20286321634E+03  0.27388716433E+03  0.00000000000E+00 0.  1.
         -3    1    6    6    0  503  0.44983450687E+03 -0.15961232358E+03  0.56386371205E+03  0.73876211542E+03  0.00000000000E+00 0.  1.
<mgrwt>
<rscale>  0 0.21781005E+04</rscale>
<asrwt>0</asrwt>
<pdfrwt beam="1">  1        2 0.13538050E+00 0.21781005E+04</pdfrwt>
<pdfrwt beam="2">  1       -2 0.20735429E+00 0.21781005E+04</pdfrwt>
<totfact> 0.32986454E+00</totfact>
</mgrwt>
</event>
<event>
12    1  0.4802930E-008  0.1384632E+04  0.7818608E-02  0.8965019E-01
          2   -1    0    0  501    0  0.00000000000E+00  0.00000000000E+00  0.57962807596E+03  0.57962807596E+03  0.00000000000E+00 0. -1.
         -2   -1    0    0    0  501 -0.00000000000E+00 -0.00000000000E+00 -0.82691154539E+03  0.82691154539E+03  0.00000000000E+00 0.  1.
         23    2    1    2    0    0 -0.24400003319E+03 -0.27217677600E+03  0.81206080131E+02  0.38530594131E+03  0.90829661276E+02 0.  0.
        254    2    1    2    0    0  0.24400003319E+03  0.27217677600E+03 -0.32848954956E+03  0.10212336800E+04  0.89520759128E+03 0.  0.
         23    2    4    4    0    0  0.39300574724E+03  0.11720996447E+03  0.18351520587E+03  0.45847358476E+03  0.91260637745E+02 0.  0.
         23    2    4    4    0    0 -0.14900571406E+03  0.15496681153E+03 -0.51200475544E+03  0.56276009528E+03  0.91283293909E+02 0.  0.
         13    1    3    3    0    0 -0.73135426143E+02 -0.67788376867E+02 -0.17429186242E+02  0.10123157180E+03  0.00000000000E+00 0. -1.
        -13    1    3    3    0    0 -0.17086460704E+03 -0.20438839913E+03  0.98635266372E+02  0.28407436951E+03  0.00000000000E+00 0.  1.
          2    1    5    5  502    0  0.34289752906E+03  0.69545020190E+02  0.16527497127E+03  0.38695095477E+03  0.00000000000E+00 0. -1.
          1    1    6    6  503    0 -0.13022829885E+03  0.16120304877E+03 -0.49515350645E+03  0.53677074036E+03  0.00000000000E+00 0. -1.
         -2    1    5    5    0  502  0.50108218179E+02  0.47664944283E+02  0.18240234609E+02  0.71522629993E+02  0.00000000000E+00 0.  1.
         -1    1    6    6    0  503 -0.18777415202E+02 -0.62362372384E+01 -0.16851248985E+02  0.25989354916E+02  0.00000000000E+00 0.  1.
<mgrwt>
<rscale>  0 0.13846316E+04</rscale>
<asrwt>0</asrwt>
<pdfrwt beam="1">  1        2 0.89173550E-01 0.13846316E+04</pdfrwt>
<pdfrwt beam="2">  1       -2 0.12721716E+00 0.13846316E+04</pdfrwt>
<totfact> 0.23103180E+01</totfact>
</mgrwt>
</event>
<event>
12    1  0.4802930E-008  0.1298555E+04  0.7818608E-02  0.9030712E-01
          2   -1    0    0  501    0  0.00000000000E+00  0.00000000000E+00  0.20987876255E+04  0.20987876255E+04  0.00000000000E+00 0. -1.
         -2   -1    0    0    0  501 -0.00000000000E+00 -0.00000000000E+00 -0.20085950001E+03  0.20085950001E+03  0.00000000000E+00 0.  1.
         23    2    1    2    0    0  0.23338551239E+03 -0.19026350823E+03  0.72044344706E+03  0.78480239015E+03  0.78784714327E+02 0.  0.
        254    2    1    2    0    0 -0.23338551239E+03  0.19026350823E+03  0.11774846784E+04  0.15148447354E+04  0.90422088253E+03 0.  0.
         23    2    4    4    0    0 -0.15068463762E+03  0.54083450200E+03  0.82898064309E+03  0.10053806568E+04  0.91507048703E+02 0.  0.
         23    2    4    4    0    0 -0.82700874766E+02 -0.35057099377E+03  0.34850403535E+03  0.50946407855E+03  0.91428268678E+02 0.  0.
         13    1    3    3    0    0  0.19681317791E+03 -0.14725898766E+03  0.64734874829E+03  0.69244569344E+03  0.00000000000E+00 0. -1.
        -13    1    3    3    0    0  0.36572334484E+02 -0.43004520574E+02  0.73094698767E+02  0.92356696710E+02  0.00000000000E+00 0.  1.
          1    1    5    5  502    0  0.64623436495E-01  0.14574692260E+03  0.20030706991E+03  0.24771978500E+03  0.00000000000E+00 0. -1.
          3    1    6    6  503    0 -0.24148287620E+02 -0.11446624436E+02  0.34127279466E+02  0.43345544289E+02  0.00000000000E+00 0. -1.
         -1    1    5    5    0  502 -0.15074926106E+03  0.39508757940E+03  0.62867357318E+03  0.75766087184E+03  0.00000000000E+00 0.  1.
         -3    1    6    6    0  503 -0.58552587146E+02 -0.33912436933E+03  0.31437675589E+03  0.46611853426E+03  0.00000000000E+00 0.  1.
<mgrwt>
<rscale>  0 0.12985552E+04</rscale>
<asrwt>0</asrwt>
<pdfrwt beam="1">  1        2 0.32289039E+00 0.12985552E+04</pdfrwt>
<pdfrwt beam="2">  1       -2 0.30901463E-01 0.12985552E+04</pdfrwt>
<totfact> 0.56048106E+01</totfact>
</mgrwt>
</event>
<event>
12    1  0.4802930E-008  0.1459441E+04  0.7818608E-02  0.8911881E-01
         -4   -1    0    0    0  501 -0.00000000000E+00  0.00000000000E+00  0.57381434145E+03  0.57381434145E+03  0.00000000000E+00 0.  1.
          4   -1    0    0  501    0  0.00000000000E+00 -0.00000000000E+00 -0.92798715423E+03  0.92798715423E+03  0.00000000000E+00 0. -1.
         23    2    1    2    0    0 -0.22920039146E+03 -0.14708223688E+03 -0.47596987236E+03  0.55566135088E+03  0.89700689097E+02 0.  0.
        254    2    1    2    0    0  0.22920039146E+03  0.14708223688E+03  0.12179705958E+03  0.94614014479E+03  0.89787562948E+03 0.  0.
         23    2    4    4    0    0  0.29137856093E+03 -0.32316354656E+03  0.12303692317E+03  0.46103144609E+03  0.89865267089E+02 0.  0.
         23    2    4    4    0    0 -0.62178169470E+02  0.47024578343E+03 -0.12398635911E+01  0.48510869870E+03  0.10164492459E+03 0.  0.
         11    1    3    3    0    0 -0.15558100158E+03 -0.13606461114E+03 -0.39409561582E+03  0.44500604588E+03  0.00000000000E+00 0.  1.
        -11    1    3    3    0    0 -0.73619389879E+02 -0.11017625741E+02 -0.81874256535E+02  0.11065530501E+03  0.00000000000E+00 0. -1.
          3    1    5    5  502    0  0.19816202821E+03 -0.17211462059E+03  0.41615629300E+02  0.26575080931E+03  0.00000000000E+00 0. -1.
          3    1    6    6  503    0 -0.25543683162E+02  0.41466579156E+03  0.17922133152E+02  0.41583819124E+03  0.00000000000E+00 0. -1.
         -3    1    5    5    0  502  0.93216532724E+02 -0.15104892596E+03  0.81421293870E+02  0.19528063679E+03  0.00000000000E+00 0.  1.
         -3    1    6    6    0  503 -0.36634486308E+02  0.55579991872E+02 -0.19161996743E+02  0.69270507453E+02  0.00000000000E+00 0.  1.
<mgrwt>
<rscale>  0 0.14594415E+04</rscale>
<asrwt>0</asrwt>
<pdfrwt beam="1">  1        4 0.14276725E+00 0.14594415E+04</pdfrwt>
<pdfrwt beam="2">  1       -4 0.88279130E-01 0.14594415E+04</pdfrwt>
<totfact> 0.72797263E-01</totfact>
</mgrwt>
</event>
<event>
12    1  0.4802930E-008  0.2685875E+04  0.7818608E-02  0.8339602E-01
         -2   -1    0    0    0  501 -0.00000000000E+00  0.00000000000E+00  0.13229987166E+04  0.13229987166E+04  0.00000000000E+00 0.  1.
          2   -1    0    0  501    0  0.00000000000E+00 -0.00000000000E+00 -0.13631772225E+04  0.13631772225E+04  0.00000000000E+00 0. -1.
         23    2    1    2    0    0 -0.86418837400E+03  0.17704902484E+03  0.77345666319E+03  0.11767818915E+04  0.91719721273E+02 0.  0.
        254    2    1    2    0    0  0.86418837400E+03 -0.17704902484E+03 -0.81363516913E+03  0.15093940477E+04  0.91547818093E+03 0.  0.
         23    2    4    4    0    0 -0.12771555991E+03 -0.10821495885E+03  0.40016428820E+02  0.19572981165E+03  0.93204629888E+02 0.  0.
         23    2    4    4    0    0  0.99190393391E+03 -0.68834065988E+02 -0.85365159795E+03  0.13136642360E+04  0.91548520287E+02 0.  0.
         11    1    3    3    0    0 -0.15458283270E+03  0.28244001098E+02  0.18693767947E+03  0.24421153079E+03  0.00000000000E+00 0. -1.
        -11    1    3    3    0    0 -0.70960554129E+03  0.14880502374E+03  0.58651898372E+03  0.93257036067E+03  0.00000000000E+00 0.  1.
          2    1    5    5  502    0 -0.40767758095E+02 -0.54643257032E+02 -0.27272778927E+02  0.73428196965E+02  0.00000000000E+00 0. -1.
          3    1    6    6  503    0  0.24607108781E+01  0.35648095542E+01 -0.11658461321E+02  0.12437149415E+02  0.00000000000E+00 0. -1.
         -2    1    5    5    0  502 -0.86947801817E+02 -0.53571701816E+02  0.67289207747E+02  0.12230161469E+03  0.00000000000E+00 0.  1.
         -3    1    6    6    0  503  0.98944322303E+03 -0.72398875542E+02 -0.84199313663E+03  0.13012270866E+04  0.00000000000E+00 0.  1.
<mgrwt>
<rscale>  0 0.26858754E+04</rscale>
<asrwt>0</asrwt>
<pdfrwt beam="1">  1        2 0.20971957E+00 0.26858754E+04</pdfrwt>
<pdfrwt beam="2">  1       -2 0.20353826E+00 0.26858754E+04</pdfrwt>
<totfact> 0.16827566E+00</totfact>
</mgrwt>
</event>
<event>
12    1  0.5812943E-008  0.2617177E+04  0.7818608E-02  0.8362390E-01
         -2   -1    0    0    0  501 -0.00000000000E+00  0.00000000000E+00  0.11723465927E+04  0.11723465927E+04  0.00000000000E+00 0.  1.
          2   -1    0    0  501    0  0.00000000000E+00 -0.00000000000E+00 -0.14606635601E+04  0.14606635601E+04  0.00000000000E+00 0. -1.
         23    2    1    2    0    0 -0.10632551378E+04 -0.21283363877E+03 -0.50970731301E+03  0.12014828064E+04  0.89161332139E+02 0.  0.
        254    2    1    2    0    0  0.10632551378E+04  0.21283363877E+03  0.22139034569E+03  0.14315273465E+04  0.90799075578E+03 0.  0.
         23    2    4    4    0    0  0.65669576187E+03 -0.27525802659E+03  0.31315923399E+03  0.78320533672E+03  0.91244664348E+02 0.  0.
         23    2    4    4    0    0  0.40655937595E+03  0.48809166536E+03 -0.91768888306E+02  0.64832200973E+03  0.91519940334E+02 0.  0.
         11    1    3    3    0    0 -0.10355142444E+04 -0.21866204355E+03 -0.48633039351E+03  0.11647403536E+04  0.00000000000E+00 0. -1.
        -11    1    3    3    0    0 -0.27740893454E+02  0.58284047788E+01 -0.23376919504E+02  0.36742452795E+02  0.00000000000E+00 0.  1.
          4    1    5    5  502    0  0.13508532915E+03 -0.59063572213E+02  0.25885354320E+02  0.14968835386E+03  0.00000000000E+00 0. -1.
          3    1    6    6  503    0  0.92036665832E+02  0.95783967514E+02  0.16855668965E+02  0.13390082101E+03  0.00000000000E+00 0. -1.
         -4    1    5    5    0  502  0.52161043272E+03 -0.21619445437E+03  0.28727387968E+03  0.63351698286E+03  0.00000000000E+00 0.  1.
         -3    1    6    6    0  503  0.31452271012E+03  0.39230769784E+03 -0.10862455727E+03  0.51442118873E+03  0.00000000000E+00 0.  1.
<mgrwt>
<rscale>  0 0.26171771E+04</rscale>
<asrwt>0</asrwt>
<pdfrwt beam="1">  1        2 0.22471747E+00 0.26171771E+04</pdfrwt>
<pdfrwt beam="2">  1       -2 0.18036101E+00 0.26171771E+04</pdfrwt>
<totfact> 0.21282324E+00</totfact>
</mgrwt>
</event>
<event>
12    1  0.4802930E-008  0.1667477E+04  0.7818608E-02  0.8780134E-01
          2   -1    0    0  501    0  0.00000000000E+00  0.00000000000E+00  0.20229748401E+04  0.20229748401E+04  0.00000000000E+00 0. -1.
         -2   -1    0    0    0  501 -0.00000000000E+00 -0.00000000000E+00 -0.34361261854E+03  0.34361261854E+03  0.00000000000E+00 0.  1.
         23    2    1    2    0    0  0.10694254470E+03 -0.16643071758E+03  0.13776386081E+04  0.13947639078E+04  0.91336369103E+02 0.  0.
        254    2    1    2    0    0 -0.10694254470E+03  0.16643071758E+03  0.30172361347E+03  0.97182355087E+03  0.90236798673E+03 0.  0.
         23    2    4    4    0    0 -0.29564317388E+03 -0.28900339546E+03  0.13770002764E+03  0.44452739814E+03  0.87837698244E+02 0.  0.
         23    2    4    4    0    0  0.18870062919E+03  0.45543411303E+03  0.16402358583E+03  0.52729615273E+03  0.90051858413E+02 0.  0.
         11    1    3    3    0    0 -0.14215830386E+01 -0.73692159783E+01  0.57876347176E+01  0.94774974595E+01  0.00000000000E+00 0.  1.
        -11    1    3    3    0    0  0.10836412774E+03 -0.15906150160E+03  0.13718509734E+04  0.13852864103E+04  0.00000000000E+00 0. -1.
          2    1    5    5  502    0 -0.31576350756E+02 -0.74967733991E+02  0.41169786355E+02  0.91171148810E+02  0.00000000000E+00 0. -1.
          4    1    6    6  503    0  0.36353872822E+02  0.14842158234E+03  0.87629431866E+02  0.17615188760E+03  0.00000000000E+00 0. -1.
         -2    1    5    5    0  502 -0.26406682313E+03 -0.21403566147E+03  0.96530241287E+02  0.35335624933E+03  0.00000000000E+00 0.  1.
         -4    1    6    6    0  503  0.15234675636E+03  0.30701253069E+03  0.76394153962E+02  0.35114426513E+03  0.00000000000E+00 0.  1.
<mgrwt>
<rscale>  0 0.16674768E+04</rscale>
<asrwt>0</asrwt>
<pdfrwt beam="1">  1        2 0.31122689E+00 0.16674768E+04</pdfrwt>
<pdfrwt beam="2">  1       -2 0.52863481E-01 0.16674768E+04</pdfrwt>
<totfact> 0.20891456E+01</totfact>
</mgrwt>
</event>
<event>
12    1  0.4802930E-008  0.2245606E+04  0.7818608E-02  0.8499682E-01
         -2   -1    0    0    0  501 -0.00000000000E+00  0.00000000000E+00  0.14548214061E+04  0.14548214061E+04  0.00000000000E+00 0.  1.
          2   -1    0    0  501    0  0.00000000000E+00 -0.00000000000E+00 -0.86655737124E+03  0.86655737124E+03  0.00000000000E+00 0. -1.
         23    2    1    2    0    0 -0.10492374435E+03  0.47943319489E+03 -0.58620970443E+03  0.77000033823E+03  0.91616171191E+02 0.  0.
        254    2    1    2    0    0  0.10492374435E+03 -0.47943319489E+03  0.11744737393E+04  0.15513784391E+04  0.88686037035E+03 0.  0.
         23    2    4    4    0    0  0.23883280439E+03 -0.65737967542E+03  0.59629097711E+03  0.92367912574E+03  0.91820759241E+02 0.  0.
         23    2    4    4    0    0 -0.13390906004E+03  0.17794648054E+03  0.57818276214E+03  0.62769931332E+03  0.10057104558E+03 0.  0.
         13    1    3    3    0    0 -0.21788086005E+02  0.28044515114E+03 -0.36814053320E+03  0.46330514315E+03  0.00000000000E+00 0. -1.
        -13    1    3    3    0    0 -0.83135658347E+02  0.19898804375E+03 -0.21806917123E+03  0.30669519508E+03  0.00000000000E+00 0.  1.
          2    1    5    5  502    0  0.22127495260E+03 -0.64791018762E+03  0.58620910196E+03  0.90132753596E+03  0.00000000000E+00 0. -1.
          4    1    6    6  503    0  0.74186956342E+01  0.56502638371E+02  0.16115586857E+03  0.17093507294E+03  0.00000000000E+00 0. -1.
         -2    1    5    5    0  502  0.17557851793E+02 -0.94694878070E+01  0.10081875150E+02  0.22351589775E+02  0.00000000000E+00 0.  1.
         -4    1    6    6    0  503 -0.14132775568E+03  0.12144384216E+03  0.41702689357E+03  0.45676424038E+03  0.00000000000E+00 0.  1.
<mgrwt>
<rscale>  0 0.22456057E+04</rscale>
<asrwt>0</asrwt>
<pdfrwt beam="1">  1        2 0.13331652E+00 0.22456057E+04</pdfrwt>
<pdfrwt beam="2">  1       -2 0.22381868E+00 0.22456057E+04</pdfrwt>
<totfact> 0.26306347E+00</totfact>
</mgrwt>
</event>
<event>
12    1  0.4802930E-008  0.1825722E+04  0.7818608E-02  0.8692739E-01
         -1   -1    0    0    0  501 -0.00000000000E+00  0.00000000000E+00  0.78695240709E+03  0.78695240709E+03  0.00000000000E+00 0.  1.
          1   -1    0    0  501    0  0.00000000000E+00 -0.00000000000E+00 -0.10589139011E+04  0.10589139011E+04  0.00000000000E+00 0. -1.
         23    2    1    2    0    0 -0.41294261525E+03  0.22230621234E+03  0.40194408405E+03  0.62459172301E+03  0.92812274049E+02 0.  0.
        254    2    1    2    0    0  0.41294261525E+03 -0.22230621234E+03 -0.67390557802E+03  0.12212745851E+04  0.90411350433E+03 0.  0.
         23    2    4    4    0    0  0.34840512606E+03  0.26468455107E+03 -0.54535820165E+03  0.70504861099E+03  0.90741017830E+02 0.  0.
         23    2    4    4    0    0  0.64537489191E+02 -0.48699076342E+03 -0.12854737637E+03  0.51622597416E+03  0.92950186974E+02 0.  0.
         13    1    3    3    0    0 -0.11153623247E+03  0.10765080150E+03  0.11619760227E+03  0.19372895754E+03  0.00000000000E+00 0. -1.
        -13    1    3    3    0    0 -0.30140638278E+03  0.11465541084E+03  0.28574648178E+03  0.43086276547E+03  0.00000000000E+00 0.  1.
          1    1    6    6  502    0  0.24322499196E+02 -0.81451130036E+02  0.10450077481E+02  0.85645050474E+02  0.00000000000E+00 0. -1.
          1    1    5    5  503    0  0.16416491039E+03  0.12257198965E+03 -0.32746106440E+03  0.38627031875E+03  0.00000000000E+00 0. -1.
         -1    1    5    5    0  503  0.18424021567E+03  0.14211256142E+03 -0.21789713725E+03  0.31877829224E+03  0.00000000000E+00 0.  1.
         -1    1    6    6    0  502  0.40214989995E+02 -0.40553963338E+03 -0.13899745385E+03  0.43058092368E+03  0.00000000000E+00 0.  1.
<mgrwt>
<rscale>  0 0.18257216E+04</rscale>
<asrwt>0</asrwt>
<pdfrwt beam="1">  1        1 0.16290983E+00 0.18257216E+04</pdfrwt>
<pdfrwt beam="2">  1       -1 0.12106960E+00 0.18257216E+04</pdfrwt>
<totfact> 0.77706997E+00</totfact>
</mgrwt>
</event>
<event>
12    1  0.4802930E-008  0.1144480E+04  0.7818608E-02  0.9162892E-01
         -1   -1    0    0    0  501 -0.00000000000E+00  0.00000000000E+00  0.23349818449E+03  0.23349818449E+03  0.00000000000E+00 0.  1.
          1   -1    0    0  501    0  0.00000000000E+00 -0.00000000000E+00 -0.14024021519E+04  0.14024021519E+04  0.00000000000E+00 0. -1.
         23    2    1    2    0    0 -0.16558885000E+03 -0.69362372520E+02 -0.39703787751E+03  0.44513776939E+03  0.90982149882E+02 0.  0.
        254    2    1    2    0    0  0.16558885000E+03  0.69362372520E+02 -0.77186608987E+03  0.11907625670E+04  0.88876736228E+03 0.  0.
         23    2    4    4    0    0  0.19631086128E+03 -0.35386202119E+03 -0.58998650401E+03  0.72124239408E+03  0.91379602776E+02 0.  0.
         23    2    4    4    0    0 -0.30722011285E+02  0.42322439371E+03 -0.18187958586E+03  0.46952017290E+03  0.85476778144E+02 0.  0.
         13    1    3    3    0    0 -0.90665362393E+02 -0.33496936522E+02 -0.31045249560E+03  0.32515074154E+03  0.00000000000E+00 0. -1.
        -13    1    3    3    0    0 -0.74923487603E+02 -0.35865435998E+02 -0.86585381901E+02  0.11998702785E+03  0.00000000000E+00 0.  1.
          4    1    5    5  502    0  0.19838726459E+03 -0.33253790074E+03 -0.58053549359E+03  0.69782549502E+03  0.00000000000E+00 0. -1.
          4    1    6    6  503    0 -0.41739595229E+02  0.41339272581E+03 -0.18433775364E+03  0.45455048892E+03  0.00000000000E+00 0. -1.
         -4    1    5    5    0  502 -0.20764033112E+01 -0.21324120446E+02 -0.94510104220E+01  0.23416899059E+02  0.00000000000E+00 0.  1.
         -4    1    6    6    0  503  0.11017583944E+02  0.98316679005E+01  0.24581677802E+01  0.14969683981E+02  0.00000000000E+00 0.  1.
<mgrwt>
<rscale>  0 0.11444795E+04</rscale>
<asrwt>0</asrwt>
<pdfrwt beam="1">  1        1 0.21575417E+00 0.11444795E+04</pdfrwt>
<pdfrwt beam="2">  1       -1 0.35922799E-01 0.11444795E+04</pdfrwt>
<totfact> 0.56278782E+01</totfact>
</mgrwt>
</event>
<event>
12    1  0.4802930E-008  0.1036024E+04  0.7818608E-02  0.9269894E-01
          2   -1    0    0  501    0  0.00000000000E+00  0.00000000000E+00  0.19631217632E+04  0.19631217632E+04  0.00000000000E+00 0. -1.
         -2   -1    0    0    0  501 -0.00000000000E+00 -0.00000000000E+00 -0.13668858728E+03  0.13668858728E+03  0.00000000000E+00 0.  1.
         23    2    1    2    0    0  0.60821966287E+02  0.42442935246E+02  0.10572993604E+03  0.15840169623E+03  0.91714577132E+02 0.  0.
        254    2    1    2    0    0 -0.60821966287E+02 -0.42442935246E+02  0.17207032399E+04  0.19414086542E+04  0.89596161119E+03 0.  0.
         23    2    4    4    0    0 -0.98059060033E+02 -0.23303413097E+01 -0.68271555456E+02  0.14926928396E+03  0.89438828842E+02 0.  0.
         23    2    4    4    0    0  0.37237093745E+02 -0.40112593936E+02  0.17889747953E+04  0.17921393703E+04  0.91307627596E+02 0.  0.
         13    1    3    3    0    0  0.19424356793E+02  0.60603563363E+02  0.30352748871E+02  0.70508062611E+02  0.00000000000E+00 0.  1.
        -13    1    3    3    0    0  0.41397609494E+02 -0.18160628117E+02  0.75377187167E+02  0.87893633619E+02  0.00000000000E+00 0. -1.
          4    1    6    6  502    0  0.36411733442E+02  0.71706482242E+01  0.28308104107E+03  0.28550325452E+03  0.00000000000E+00 0. -1.
          4    1    5    5  503    0 -0.62121123727E+02  0.12137463764E+02  0.79247056804E+01  0.63789912995E+02  0.00000000000E+00 0.  1.
         -4    1    5    5    0  503 -0.35937936305E+02 -0.14467805074E+02 -0.76196261137E+02  0.85479370966E+02  0.00000000000E+00 0. -1.
         -4    1    6    6    0  502  0.82536030307E+00 -0.47283242161E+02  0.15058937543E+04  0.15066361158E+04  0.00000000000E+00 0.  1.
<mgrwt>
<rscale>  0 0.10360238E+04</rscale>
<asrwt>0</asrwt>
<pdfrwt beam="1">  1        2 0.30201871E+00 0.10360238E+04</pdfrwt>
<pdfrwt beam="2">  1       -2 0.21029015E-01 0.10360238E+04</pdfrwt>
<totfact> 0.13690243E+02</totfact>
</mgrwt>
</event>
<event>
12    1  0.4802930E-008  0.1100624E+04  0.7818608E-02  0.9204584E-01
          1   -1    0    0  501    0  0.00000000000E+00  0.00000000000E+00  0.16199015089E+04  0.16199015089E+04  0.00000000000E+00 0. -1.
         -1   -1    0    0    0  501 -0.00000000000E+00 -0.00000000000E+00 -0.18695167566E+03  0.18695167566E+03  0.00000000000E+00 0.  1.
         23    2    1    2    0    0 -0.30612379141E+02 -0.35241163715E+02 -0.12766128382E+02  0.10450657802E+03  0.92626094804E+02 0.  0.
        254    2    1    2    0    0  0.30612379141E+02  0.35241163715E+02  0.14457159616E+04  0.17023466065E+04  0.89761365283E+03 0.  0.
         23    2    4    4    0    0 -0.31267756281E+03  0.29180947766E+03  0.91356578560E+03  0.10129044417E+04  0.91939837852E+02 0.  0.
         23    2    4    4    0    0  0.34328994195E+03 -0.25656831394E+03  0.53215017597E+03  0.68944216484E+03  0.92040235280E+02 0.  0.
         11    1    3    3    0    0  0.96268619582E+01 -0.41495153257E+02  0.24641158322E+02  0.49210881911E+02  0.00000000000E+00 0. -1.
        -11    1    3    3    0    0 -0.40239241099E+02  0.62539895421E+01 -0.37407286704E+02  0.55295696107E+02  0.00000000000E+00 0.  1.
          2    1    5    5  502    0 -0.56239010580E+02  0.82309724739E+02  0.14419653633E+03  0.17530076494E+03  0.00000000000E+00 0. -1.
          3    1    6    6  503    0  0.78246808523E+02 -0.76221044493E+02  0.80999588921E+02  0.13598949986E+03  0.00000000000E+00 0. -1.
         -2    1    5    5    0  502 -0.25643855223E+03  0.20949975292E+03  0.76936924927E+03  0.83760367672E+03  0.00000000000E+00 0.  1.
         -3    1    6    6    0  503  0.26504313342E+03 -0.18034726945E+03  0.45115058705E+03  0.55345266498E+03  0.00000000000E+00 0.  1.
<mgrwt>
<rscale>  0 0.11006240E+04</rscale>
<asrwt>0</asrwt>
<pdfrwt beam="1">  1        1 0.24921561E+00 0.11006240E+04</pdfrwt>
<pdfrwt beam="2">  1       -1 0.28761797E-01 0.11006240E+04</pdfrwt>
<totfact> 0.59209230E+01</totfact>
</mgrwt>
</event>
<event>
12    1  0.4802930E-008  0.1383516E+04  0.7818608E-02  0.8965837E-01
          2   -1    0    0  501    0  0.00000000000E+00  0.00000000000E+00  0.26188206281E+04  0.26188206281E+04  0.00000000000E+00 0. -1.
         -2   -1    0    0    0  501 -0.00000000000E+00 -0.00000000000E+00 -0.18272708716E+03  0.18272708716E+03  0.00000000000E+00 0.  1.
         23    2    1    2    0    0 -0.14496016659E+03  0.31801780834E+03  0.99498435387E+03  0.10584521047E+04  0.90433495375E+02 0.  0.
        254    2    1    2    0    0  0.14496016659E+03 -0.31801780834E+03  0.14411091871E+04  0.17430956106E+04  0.91620840551E+03 0.  0.
         23    2    4    4    0    0 -0.98435093168E+02  0.25986511276E+03  0.74928005174E+03  0.80485211110E+03  0.95639847401E+02 0.  0.
         23    2    4    4    0    0  0.24339525976E+03 -0.57788292110E+03  0.69182913537E+03  0.93824349954E+03  0.92105314164E+02 0.  0.
         13    1    3    3    0    0 -0.39257061028E+02  0.31957307011E+02  0.21710786735E+03  0.22293095876E+03  0.00000000000E+00 0. -1.
        -13    1    3    3    0    0 -0.10570310556E+03  0.28606050133E+03  0.77787648652E+03  0.83552114589E+03  0.00000000000E+00 0.  1.
          1    1    6    6  502    0  0.22815447171E+03 -0.45659059885E+03  0.57934751224E+03  0.77212238529E+03  0.00000000000E+00 0. -1.
          1    1    5    5  503    0 -0.36021418868E+02  0.17474266510E+03  0.56479455174E+03  0.59230518088E+03  0.00000000000E+00 0. -1.
         -1    1    5    5    0  503 -0.62413674300E+02  0.85122447667E+02  0.18448550000E+03  0.21254693022E+03  0.00000000000E+00 0.  1.
         -1    1    6    6    0  502  0.15240788046E+02 -0.12129232225E+03  0.11248162313E+03  0.16612111425E+03  0.00000000000E+00 0.  1.
<mgrwt>
<rscale>  0 0.13835165E+04</rscale>
<asrwt>0</asrwt>
<pdfrwt beam="1">  1        2 0.40289545E+00 0.13835165E+04</pdfrwt>
<pdfrwt beam="2">  1       -2 0.28111862E-01 0.13835165E+04</pdfrwt>
<totfact> 0.33617375E+01</totfact>
</mgrwt>
</event>
<event>
12    1  0.4802930E-008  0.2449385E+04  0.7818608E-02  0.8421243E-01
         -2   -1    0    0    0  501 -0.00000000000E+00  0.00000000000E+00  0.14041901275E+04  0.14041901275E+04  0.00000000000E+00 0. -1.
          2   -1    0    0  501    0  0.00000000000E+00 -0.00000000000E+00 -0.10681397395E+04  0.10681397395E+04  0.00000000000E+00 0.  1.
         23    2    1    2    0    0 -0.89161239535E+03  0.27614978874E+03  0.63593135153E+03  0.11331845183E+04  0.92016842047E+02 0.  0.
        254    2    1    2    0    0  0.89161239535E+03 -0.27614978874E+03 -0.29988096356E+03  0.13391453487E+04  0.91222272675E+03 0.  0.
         23    2    4    4    0    0  0.88514284695E+03 -0.27560932156E+03 -0.54216399603E+03  0.10779263246E+04  0.92439196121E+02 0.  0.
         23    2    4    4    0    0  0.64695483994E+01 -0.54046717991E+00  0.24228303247E+03  0.26121902410E+03  0.97427735099E+02 0.  0.
         13    1    3    3    0    0 -0.11535095769E+03  0.25681919697E+02  0.11782160697E+03  0.16687520939E+03  0.00000000000E+00 0. -1.
        -13    1    3    3    0    0 -0.77626143766E+03  0.25046786904E+03  0.51810974456E+03  0.96630930888E+03  0.00000000000E+00 0.  1.
          4    1    5    5  502    0  0.28065486625E+03 -0.12090286278E+03 -0.14469265440E+03  0.33811332481E+03  0.00000000000E+00 0. -1.
          4    1    6    6  503    0  0.30533036428E+02 -0.26872968612E+02  0.20731304925E+03  0.21126552758E+03  0.00000000000E+00 0.  1.
         -4    1    5    5    0  502  0.60448798070E+03 -0.15470645878E+03 -0.39747134163E+03  0.73981299977E+03  0.00000000000E+00 0.  1.
         -4    1    6    6    0  503 -0.24063488028E+02  0.26332501432E+02  0.34969983222E+02  0.49953496517E+02  0.00000000000E+00 0. -1.
<mgrwt>
<rscale>  0 0.24493846E+04</rscale>
<asrwt>0</asrwt>
<pdfrwt beam="1">  1        2 0.16432919E+00 0.24493846E+04</pdfrwt>
<pdfrwt beam="2">  1       -2 0.21602925E+00 0.24493846E+04</pdfrwt>
<totfact> 0.21389640E+00</totfact>
</mgrwt>
</event>
<event>
12    1  0.4802930E-008  0.1233185E+04  0.7818608E-02  0.9084295E-01
         -2   -1    0    0    0  501 -0.00000000000E+00  0.00000000000E+00  0.17701389130E+03  0.17701389130E+03  0.00000000000E+00 0. -1.
          2   -1    0    0  501    0  0.00000000000E+00 -0.00000000000E+00 -0.21477783110E+04  0.21477783110E+04  0.00000000000E+00 0.  1.
         23    2    1    2    0    0 -0.18344399183E+03 -0.15259500808E+03 -0.75385521261E+03  0.79596520198E+03  0.91246844077E+02 0.  0.
        254    2    1    2    0    0  0.18344399183E+03  0.15259500808E+03 -0.12169092071E+04  0.15288270003E+04  0.89415157775E+03 0.  0.
         23    2    4    4    0    0  0.20071206652E+03  0.52949496152E+02 -0.13326092276E+04  0.13516613792E+04  0.89733760638E+02 0.  0.
         23    2    4    4    0    0 -0.17268074695E+02  0.99645511931E+02  0.11570002052E+03  0.17716562110E+03  0.88168861283E+02 0.  0.
         11    1    3    3    0    0 -0.79623586173E+02 -0.34529027855E+02 -0.16438508448E+03  0.18588874425E+03  0.00000000000E+00 0. -1.
        -11    1    3    3    0    0 -0.10382040566E+03 -0.11806598023E+03 -0.58947012813E+03  0.61007645773E+03  0.00000000000E+00 0.  1.
          2    1    5    5  502    0  0.62266508329E+02 -0.37909971935E+01 -0.20831241715E+03  0.21745241516E+03  0.00000000000E+00 0. -1.
          3    1    6    6  503    0 -0.11419046470E+02  0.52669977835E+01 -0.12588572844E+02  0.17793483476E+02  0.00000000000E+00 0. -1.
         -2    1    5    5    0  502  0.13844555819E+03  0.56740493346E+02 -0.11242968105E+04  0.11342089641E+04  0.00000000000E+00 0.  1.
         -3    1    6    6    0  503 -0.58490282244E+01  0.94378514147E+02  0.12828859336E+03  0.15937213762E+03  0.00000000000E+00 0.  1.
<mgrwt>
<rscale>  0 0.12331855E+04</rscale>
<asrwt>0</asrwt>
<pdfrwt beam="1">  1        2 0.33042742E+00 0.12331855E+04</pdfrwt>
<pdfrwt beam="2">  1       -2 0.27232907E-01 0.12331855E+04</pdfrwt>
<totfact> 0.66892007E+01</totfact>
</mgrwt>
</event>
<event>
12    1  0.4802930E-008  0.2503559E+04  0.7818608E-02  0.8401719E-01
         -2   -1    0    0    0  501 -0.00000000000E+00  0.00000000000E+00  0.15237465936E+04  0.15237465936E+04  0.00000000000E+00 0.  1.
          2   -1    0    0  501    0  0.00000000000E+00 -0.00000000000E+00 -0.10283542720E+04  0.10283542720E+04  0.00000000000E+00 0. -1.
         23    2    1    2    0    0 -0.37128342766E+03  0.19110411503E+03  0.12227204002E+04  0.12953997623E+04  0.92968815516E+02 0.  0.
        254    2    1    2    0    0  0.37128342766E+03 -0.19110411503E+03 -0.72732807864E+03  0.12567011033E+04  0.93590563770E+03 0.  0.
         23    2    4    4    0    0  0.60617290323E+03  0.46658556180E+02 -0.66568441117E+03  0.90504230310E+03  0.79644369840E+02 0.  0.
         23    2    4    4    0    0 -0.23488947557E+03 -0.23776267121E+03 -0.61643667471E+02  0.35165880023E+03  0.90331702555E+02 0.  0.
         13    1    3    3    0    0 -0.16115473543E+03  0.10113466542E+03  0.68910516247E+03  0.71488809911E+03  0.00000000000E+00 0.  1.
        -13    1    3    3    0    0 -0.21012869224E+03  0.89969449612E+02  0.53361523770E+03  0.58051166316E+03  0.00000000000E+00 0. -1.
          2    1    5    5  502    0  0.78044448636E+02 -0.20723091014E+02 -0.86871891224E+02  0.11860483948E+03  0.00000000000E+00 0.  1.
          4    1    6    6  503    0 -0.11755981034E+03 -0.11007036677E+03  0.15643438412E+02  0.16180393016E+03  0.00000000000E+00 0. -1.
         -2    1    5    5    0  502  0.52812845459E+03  0.67381647194E+02 -0.57881251995E+03  0.78643746362E+03  0.00000000000E+00 0. -1.
         -4    1    6    6    0  503 -0.11732966523E+03 -0.12769230443E+03 -0.77287105883E+02  0.18985487007E+03  0.00000000000E+00 0.  1.
<mgrwt>
<rscale>  0 0.25035585E+04</rscale>
<asrwt>0</asrwt>
<pdfrwt beam="1">  1        2 0.15820835E+00 0.25035585E+04</pdfrwt>
<pdfrwt beam="2">  1       -2 0.23442255E+00 0.25035585E+04</pdfrwt>
<totfact> 0.17278897E+00</totfact>
</mgrwt>
</event>
<event>
12    1  0.4802930E-008  0.1434266E+04  0.7818608E-02  0.8929382E-01
          2   -1    0    0  501    0  0.00000000000E+00  0.00000000000E+00  0.28277585638E+04  0.28277585638E+04  0.00000000000E+00 0.  1.
         -2   -1    0    0    0  501 -0.00000000000E+00 -0.00000000000E+00 -0.18186825110E+03  0.18186825110E+03  0.00000000000E+00 0. -1.
         23    2    1    2    0    0 -0.15863761366E+03 -0.27279999852E+03  0.13917738238E+04  0.14298618171E+04  0.88795877388E+02 0.  0.
        254    2    1    2    0    0  0.15863761366E+03  0.27279999852E+03  0.12541164889E+04  0.15797649978E+04  0.90733871779E+03 0.  0.
         23    2    4    4    0    0 -0.20438435030E+03  0.40591714575E+03  0.10145371101E+04  0.11153585599E+04  0.90539921753E+02 0.  0.
         23    2    4    4    0    0  0.36302196396E+03 -0.13311714723E+03  0.23957937885E+03  0.46440643795E+03  0.93647955826E+02 0.  0.
         11    1    3    3    0    0 -0.14640003048E+03 -0.19632481021E+03  0.11572934378E+04  0.11829220182E+04  0.00000000000E+00 0.  1.
        -11    1    3    3    0    0 -0.12237583181E+02 -0.76475188310E+02  0.23448038598E+03  0.24693979890E+03  0.00000000000E+00 0. -1.
          4    1    5    5  502    0 -0.11479097735E+03  0.19059248461E+03  0.59685334460E+03  0.63697439402E+03  0.00000000000E+00 0. -1.
          3    1    6    6  503    0  0.56905460593E+02 -0.34416361236E+02  0.57399541139E+01  0.66750763585E+02  0.00000000000E+00 0. -1.
         -4    1    5    5    0  502 -0.89593372948E+02  0.21532466115E+03  0.41768376549E+03  0.47838416584E+03  0.00000000000E+00 0.  1.
         -3    1    6    6    0  503  0.30611650337E+03 -0.98700785998E+02  0.23383942473E+03  0.39765567436E+03  0.00000000000E+00 0.  1.
<mgrwt>
<rscale>  0 0.14342657E+04</rscale>
<asrwt>0</asrwt>
<pdfrwt beam="1">  1        2 0.43503975E+00 0.14342657E+04</pdfrwt>
<pdfrwt beam="2">  1       -2 0.27979733E-01 0.14342657E+04</pdfrwt>
<totfact> 0.25372404E+01</totfact>
</mgrwt>
</event>
<event>
12    1  0.4802930E-008  0.1857296E+04  0.7818608E-02  0.8676410E-01
          2   -1    0    0  501    0  0.00000000000E+00  0.00000000000E+00  0.21644778093E+04  0.21644778093E+04  0.00000000000E+00 0. -1.
         -2   -1    0    0    0  501 -0.00000000000E+00 -0.00000000000E+00 -0.39842746231E+03  0.39842746231E+03  0.00000000000E+00 0.  1.
         23    2    1    2    0    0  0.76391911149E+02  0.39789100648E+03 -0.12373135443E+03  0.43356608776E+03  0.92288283440E+02 0.  0.
        254    2    1    2    0    0 -0.76391911149E+02 -0.39789100648E+03  0.18897817014E+04  0.21293391838E+04  0.89367639764E+03 0.  0.
         23    2    4    4    0    0 -0.24653578056E+03  0.17188087027E+03  0.10514241088E+04  0.10973980740E+04  0.92016039467E+02 0.  0.
         23    2    4    4    0    0  0.17014386941E+03 -0.56977187675E+03  0.83835759260E+03  0.10319411099E+04  0.92033001194E+02 0.  0.
         13    1    3    3    0    0  0.98068928342E+02  0.32399366680E+03 -0.10219180278E+03  0.35359945614E+03  0.00000000000E+00 0.  1.
        -13    1    3    3    0    0 -0.21677017193E+02  0.73897339686E+02 -0.21539551645E+02  0.79966631616E+02  0.00000000000E+00 0. -1.
          1    1    5    5  502    0 -0.36551246710E+02  0.51964698837E+02  0.12887275200E+03  0.14368197441E+03  0.00000000000E+00 0. -1.
          3    1    6    6  503    0  0.12152921808E+03 -0.33174394066E+03  0.56358794941E+03  0.66517273676E+03  0.00000000000E+00 0. -1.
         -1    1    5    5    0  502 -0.20998453385E+03  0.11991617143E+03  0.92255135679E+03  0.95371609955E+03  0.00000000000E+00 0.  1.
         -3    1    6    6    0  503  0.48614651332E+02 -0.23802793609E+03  0.27476964319E+03  0.36676837310E+03  0.00000000000E+00 0.  1.
<mgrwt>
<rscale>  0 0.18572963E+04</rscale>
<asrwt>0</asrwt>
<pdfrwt beam="1">  1        2 0.33299658E+00 0.18572963E+04</pdfrwt>
<pdfrwt beam="2">  1       -2 0.61296534E-01 0.18572963E+04</pdfrwt>
<totfact> 0.12577882E+01</totfact>
</mgrwt>
</event>
<event>
12    1  0.4802930E-008  0.1740412E+04  0.7818608E-02  0.8738646E-01
         -1   -1    0    0    0  501 -0.00000000000E+00  0.00000000000E+00  0.82025968522E+03  0.82025968522E+03  0.00000000000E+00 0.  1.
          1   -1    0    0  501    0  0.00000000000E+00 -0.00000000000E+00 -0.92319348365E+03  0.92319348365E+03  0.00000000000E+00 0. -1.
         23    2    1    2    0    0 -0.30672361824E+03 -0.51853129171E+03  0.16732388113E+03  0.63199599321E+03  0.92019431430E+02 0.  0.
        254    2    1    2    0    0  0.30672361824E+03  0.51853129171E+03 -0.27025767956E+03  0.11114571757E+04  0.89406026727E+03 0.  0.
         23    2    4    4    0    0 -0.24951272824E+03  0.14846066789E+03 -0.31267113442E+03  0.43610362542E+03  0.90144119844E+02 0.  0.
         23    2    4    4    0    0  0.55623634648E+03  0.37007062383E+03  0.42413454860E+02  0.67535355025E+03  0.89176100602E+02 0.  0.
         11    1    3    3    0    0 -0.12721349097E+03 -0.17118756221E+03  0.98783203052E+02  0.23504589965E+03  0.00000000000E+00 0.  1.
        -11    1    3    3    0    0 -0.17951012727E+03 -0.34734372951E+03  0.68540678082E+02  0.39695009356E+03  0.00000000000E+00 0. -1.
          2    1    5    5  502    0  0.96664463654E+00  0.23080980697E+02 -0.16059324703E+02  0.28134817961E+02  0.00000000000E+00 0. -1.
          4    1    6    6  503    0  0.15322910203E+03  0.56252596703E+02  0.11971525663E+02  0.16366682550E+03  0.00000000000E+00 0. -1.
         -2    1    5    5    0  502 -0.25047937287E+03  0.12537968719E+03 -0.29661180972E+03  0.40796880746E+03  0.00000000000E+00 0.  1.
         -4    1    6    6    0  503  0.40300724445E+03  0.31381802712E+03  0.30441929197E+02  0.51168672474E+03  0.00000000000E+00 0.  1.
<mgrwt>
<rscale>  0 0.17404119E+04</rscale>
<asrwt>0</asrwt>
<pdfrwt beam="1">  1        1 0.14202977E+00 0.17404119E+04</pdfrwt>
<pdfrwt beam="2">  1       -1 0.12619380E+00 0.17404119E+04</pdfrwt>
<totfact> 0.90305454E+00</totfact>
</mgrwt>
</event>
<event>
12    1  0.4802930E-008  0.1718607E+04  0.7818608E-02  0.8750823E-01
          2   -1    0    0  501    0  0.00000000000E+00  0.00000000000E+00  0.15884099354E+04  0.15884099354E+04  0.00000000000E+00 0. -1.
         -2   -1    0    0    0  501 -0.00000000000E+00 -0.00000000000E+00 -0.46486905482E+03  0.46486905482E+03  0.00000000000E+00 0.  1.
         23    2    1    2    0    0  0.24256632604E+03 -0.51002431846E+03  0.76320936463E+03  0.95356888285E+03  0.88554232783E+02 0.  0.
        254    2    1    2    0    0 -0.24256632604E+03  0.51002431846E+03  0.36033151591E+03  0.10997101073E+04  0.87210107834E+03 0.  0.
         23    2    4    4    0    0 -0.17211165458E+02 -0.13160456680E+03  0.37847983667E+03  0.41330882870E+03  0.99805886052E+02 0.  0.
         23    2    4    4    0    0 -0.22535516059E+03  0.64162888526E+03 -0.18148320765E+02  0.68640127862E+03  0.91349761612E+02 0.  0.
         11    1    3    3    0    0  0.11334667648E+03 -0.15627852394E+03  0.22172480899E+03  0.29399377040E+03  0.00000000000E+00 0.  1.
        -11    1    3    3    0    0  0.12921964957E+03 -0.35374579452E+03  0.54148455564E+03  0.65957511246E+03  0.00000000000E+00 0. -1.
          2    1    5    5  502    0 -0.31818004023E+02 -0.14339508860E+03  0.32564264748E+03  0.35723615533E+03  0.00000000000E+00 0. -1.
          4    1    6    6  503    0 -0.22191996050E+03  0.60569921210E+03  0.19758285275E+01  0.64507666855E+03  0.00000000000E+00 0. -1.
         -2    1    5    5    0  502  0.14606838565E+02  0.11790521796E+02  0.52837189192E+02  0.56072673369E+02  0.00000000000E+00 0.  1.
         -4    1    6    6    0  503 -0.34352000817E+01  0.35929673155E+02 -0.20124149292E+02  0.41324610069E+02  0.00000000000E+00 0.  1.
<mgrwt>
<rscale>  0 0.17186071E+04</rscale>
<asrwt>0</asrwt>
<pdfrwt beam="1">  1        2 0.24437076E+00 0.17186071E+04</pdfrwt>
<pdfrwt beam="2">  1       -2 0.71518317E-01 0.17186071E+04</pdfrwt>
<totfact> 0.19073987E+01</totfact>
</mgrwt>
</event>
<event>
12    1  0.4802930E-008  0.3390851E+04  0.7818608E-02  0.8140155E-01
          1   -1    0    0  501    0  0.00000000000E+00  0.00000000000E+00  0.12828421291E+04  0.12828421291E+04  0.00000000000E+00 0. -1.
         -1   -1    0    0    0  501 -0.00000000000E+00 -0.00000000000E+00 -0.22407032016E+04  0.22407032016E+04  0.00000000000E+00 0.  1.
         23    2    1    2    0    0  0.15197830524E+03  0.15655443614E+04 -0.51562033234E+03  0.16578025715E+04  0.91752309552E+02 0.  0.
        254    2    1    2    0    0 -0.15197830524E+03 -0.15655443614E+04 -0.44224074012E+03  0.18657427591E+04  0.90077334457E+03 0.  0.
         23    2    4    4    0    0 -0.18783663860E+03 -0.96071462528E+03  0.17221103780E+03  0.99806055559E+03  0.90625807930E+02 0.  0.
         23    2    4    4    0    0  0.35858333353E+02 -0.60482973610E+03 -0.61445177792E+03  0.86768220354E+03  0.90645403639E+02 0.  0.
         13    1    3    3    0    0  0.13070914585E+03  0.11505734722E+04 -0.41676248258E+03  0.12306888975E+04  0.00000000000E+00 0. -1.
        -13    1    3    3    0    0  0.21269159393E+02  0.41497088923E+03 -0.98857849767E+02  0.42711367399E+03  0.00000000000E+00 0.  1.
          4    1    5    5  502    0 -0.68442735238E+02 -0.40205160860E+03  0.11606521618E+03  0.42402952538E+03  0.00000000000E+00 0. -1.
          3    1    6    6  503    0 -0.26948030344E+02 -0.30266935029E+03 -0.29526227953E+03  0.42369180504E+03  0.00000000000E+00 0. -1.
         -4    1    5    5    0  502 -0.11939390336E+03 -0.55866301668E+03  0.56145821623E+02  0.57403103022E+03  0.00000000000E+00 0.  1.
         -3    1    6    6    0  503  0.62806363698E+02 -0.30216038581E+03 -0.31918949839E+03  0.44399039850E+03  0.00000000000E+00 0.  1.
<mgrwt>
<rscale>  0 0.33908515E+04</rscale>
<asrwt>0</asrwt>
<pdfrwt beam="1">  1        1 0.19736033E+00 0.33908515E+04</pdfrwt>
<pdfrwt beam="2">  1       -1 0.34472357E+00 0.33908515E+04</pdfrwt>
<totfact> 0.12896372E-01</totfact>
</mgrwt>
</event>
<event>
12    1  0.4802930E-008  0.1624195E+04  0.7818608E-02  0.8805820E-01
         -2   -1    0    0    0  501 -0.00000000000E+00  0.00000000000E+00  0.56307674566E+03  0.56307674566E+03  0.00000000000E+00 0.  1.
          2   -1    0    0  501    0  0.00000000000E+00 -0.00000000000E+00 -0.11712484297E+04  0.11712484297E+04  0.00000000000E+00 0. -1.
         23    2    1    2    0    0 -0.46303350690E+03 -0.27000979410E+03 -0.34384588290E+02  0.54428214229E+03  0.88064936696E+02 0.  0.
        254    2    1    2    0    0  0.46303350690E+03  0.27000979410E+03 -0.57378709578E+03  0.11900430331E+04  0.89424016456E+03 0.  0.
         23    2    4    4    0    0  0.13839599983E+03  0.54974323737E+03 -0.18190967977E+03  0.60227784076E+03  0.90974645232E+02 0.  0.
         23    2    4    4    0    0  0.32463750707E+03 -0.27973344327E+03 -0.39187741601E+03  0.58776519233E+03  0.90882901930E+02 0.  0.
         11    1    3    3    0    0 -0.39053669505E+03 -0.26194566215E+03 -0.30227519928E+02  0.47121984578E+03  0.00000000000E+00 0.  1.
        -11    1    3    3    0    0 -0.72496811854E+02 -0.80641319528E+01 -0.41570683619E+01  0.73062296505E+02  0.00000000000E+00 0. -1.
          2    1    5    5  502    0  0.29863214286E+02  0.24097267954E+03 -0.42378980504E+02  0.24648655509E+03  0.00000000000E+00 0. -1.
          3    1    6    6  503    0  0.21025383697E+03 -0.14814043583E+03 -0.18289166762E+03  0.31559725406E+03  0.00000000000E+00 0. -1.
         -2    1    5    5    0  502  0.10853278554E+03  0.30877055783E+03 -0.13953069927E+03  0.35579128567E+03  0.00000000000E+00 0.  1.
         -3    1    6    6    0  503  0.11438367010E+03 -0.13159300744E+03 -0.20898574839E+03  0.27216793827E+03  0.00000000000E+00 0.  1.
<mgrwt>
<rscale>  0 0.16241955E+04</rscale>
<asrwt>0</asrwt>
<pdfrwt beam="1">  1        2 0.18019207E+00 0.16241955E+04</pdfrwt>
<pdfrwt beam="2">  1       -2 0.86627192E-01 0.16241955E+04</pdfrwt>
<totfact> 0.21770852E+01</totfact>
</mgrwt>
</event>
<event>
12    1  0.5360920E-008  0.2144124E+04  0.7818608E-02  0.8542052E-01
         -2   -1    0    0    0  501 -0.00000000000E+00  0.00000000000E+00  0.11793761891E+04  0.11793761891E+04  0.00000000000E+00 0.  1.
          2   -1    0    0  501    0  0.00000000000E+00 -0.00000000000E+00 -0.97451223798E+03  0.97451223798E+03  0.00000000000E+00 0. -1.
         23    2    1    2    0    0 -0.46094652098E+03  0.15913427821E+03 -0.65084217930E+03  0.81791592688E+03  0.87152208109E+02 0.  0.
        254    2    1    2    0    0  0.46094652098E+03 -0.15913427821E+03  0.85570613043E+03  0.13359725002E+04  0.90265947397E+03 0.  0.
         23    2    4    4    0    0  0.18679110663E+03  0.36933394672E+03  0.34186043420E+03  0.54445616558E+03  0.90914674534E+02 0.  0.
         23    2    4    4    0    0  0.27415541435E+03 -0.52846822493E+03  0.51384569623E+03  0.79151633463E+03  0.89559212086E+02 0.  0.
         13    1    3    3    0    0 -0.45793175820E+03  0.16567647074E+03 -0.63280690656E+03  0.79849531564E+03  0.00000000000E+00 0. -1.
        -13    1    3    3    0    0 -0.30147627850E+01 -0.65421925272E+01 -0.18035272749E+02  0.19420611238E+02  0.00000000000E+00 0.  1.
          2    1    5    5  502    0 -0.12388614052E+01  0.68459383830E+02  0.65138611320E+02  0.94505347450E+02  0.00000000000E+00 0. -1.
          3    1    6    6  503    0  0.14065132267E+03 -0.18926044657E+03  0.17301308972E+03  0.29246510975E+03  0.00000000000E+00 0. -1.
         -2    1    5    5    0  502  0.18802996803E+03  0.30087456289E+03  0.27672182288E+03  0.44995081813E+03  0.00000000000E+00 0.  1.
         -3    1    6    6    0  503  0.13350409168E+03 -0.33920777836E+03  0.34083260651E+03  0.49905122488E+03  0.00000000000E+00 0.  1.
<mgrwt>
<rscale>  0 0.21441236E+04</rscale>
<asrwt>0</asrwt>
<pdfrwt beam="1">  1        2 0.14992496E+00 0.21441236E+04</pdfrwt>
<pdfrwt beam="2">  1       -2 0.18144249E+00 0.21441236E+04</pdfrwt>
<totfact> 0.42565924E+00</totfact>
</mgrwt>
</event>
<event>
12    1  0.4802930E-008  0.1831053E+04  0.7818608E-02  0.8689958E-01
          2   -1    0    0  501    0  0.00000000000E+00  0.00000000000E+00  0.19399675800E+04  0.19399675800E+04  0.00000000000E+00 0.  1.
         -2   -1    0    0    0  501 -0.00000000000E+00 -0.00000000000E+00 -0.43206341336E+03  0.43206341336E+03  0.00000000000E+00 0. -1.
         23    2    1    2    0    0  0.29909372954E+03 -0.61709379544E+03  0.67366643089E+03  0.96567706319E+03  0.91890798470E+02 0.  0.
        254    2    1    2    0    0 -0.29909372954E+03  0.61709379544E+03  0.83423773578E+03  0.14063539302E+04  0.90089786644E+03 0.  0.
         23    2    4    4    0    0  0.52528688407E+02  0.71155472167E+03  0.36836327656E+03  0.80817272834E+03  0.91554739262E+02 0.  0.
         23    2    4    4    0    0 -0.35162241795E+03 -0.94460926225E+02  0.46587445922E+03  0.59818120185E+03  0.90667232847E+02 0.  0.
         11    1    3    3    0    0  0.97407851806E+02 -0.23918168013E+03  0.19701258979E+03  0.32482322306E+03  0.00000000000E+00 0. -1.
        -11    1    3    3    0    0  0.20168587774E+03 -0.37791211531E+03  0.47665384110E+03  0.64085384013E+03  0.00000000000E+00 0.  1.
          4    1    5    5  502    0 -0.16176145594E+02  0.19055649475E+03  0.68564765877E+02  0.20316144442E+03  0.00000000000E+00 0. -1.
          1    1    6    6  503    0 -0.25801895757E+02 -0.34997161565E+02  0.64728673419E+02  0.77976536887E+02  0.00000000000E+00 0. -1.
         -4    1    5    5    0  502  0.68704834001E+02  0.52099822691E+03  0.29979851069E+03  0.60501128392E+03  0.00000000000E+00 0.  1.
         -1    1    6    6    0  503 -0.32582052219E+03 -0.59463764659E+02  0.40114578580E+03  0.52020466497E+03  0.00000000000E+00 0.  1.
<mgrwt>
<rscale>  0 0.18310533E+04</rscale>
<asrwt>0</asrwt>
<pdfrwt beam="1">  1        2 0.29845655E+00 0.18310533E+04</pdfrwt>
<pdfrwt beam="2">  1       -2 0.66471296E-01 0.18310533E+04</pdfrwt>
<totfact> 0.14133347E+01</totfact>
</mgrwt>
</event>
<event>
12    1  0.4802930E-008  0.2211689E+04  0.7818608E-02  0.8513579E-01
         -1   -1    0    0    0  501 -0.00000000000E+00  0.00000000000E+00  0.61365736189E+03  0.61365736189E+03  0.00000000000E+00 0.  1.
          1   -1    0    0  501    0  0.00000000000E+00 -0.00000000000E+00 -0.19927921802E+04  0.19927921802E+04  0.00000000000E+00 0. -1.
         23    2    1    2    0    0 -0.37597077421E+02  0.28102033643E+03 -0.16059157238E+04  0.16330789625E+04  0.87152831813E+02 0.  0.
        254    2    1    2    0    0  0.37597077421E+02 -0.28102033643E+03  0.22678090552E+03  0.97337057957E+03  0.90312498379E+03 0.  0.
         23    2    4    4    0    0 -0.19986107148E+02 -0.60010169657E+03  0.18591097076E+03  0.63482467056E+03  0.88983046643E+02 0.  0.
         23    2    4    4    0    0  0.57583184569E+02  0.31908136014E+03  0.40869934753E+02  0.33854590901E+03  0.88398209300E+02 0.  0.
         13    1    3    3    0    0 -0.55799876426E+02  0.22765192174E+03 -0.11463776942E+04  0.11700943729E+04  0.00000000000E+00 0. -1.
        -13    1    3    3    0    0  0.18202799005E+02  0.53368414686E+02 -0.45953802962E+03  0.46298458964E+03  0.00000000000E+00 0.  1.
          2    1    5    5  502    0 -0.25987173136E+02 -0.60040995850E+03  0.18444718268E+03  0.62863997218E+03  0.00000000000E+00 0.  1.
          1    1    6    6  503    0 -0.14011131195E+02  0.13274800480E+03  0.38465930097E+02  0.13891714204E+03  0.00000000000E+00 0. -1.
         -2    1    5    5    0  502  0.60010659881E+01  0.30826192429E+00  0.14637880839E+01  0.61846983728E+01  0.00000000000E+00 0. -1.
         -1    1    6    6    0  503  0.71594315764E+02  0.18633335535E+03  0.24040046561E+01  0.19962876697E+03  0.00000000000E+00 0.  1.
<mgrwt>
<rscale>  0 0.22116886E+04</rscale>
<asrwt>0</asrwt>
<pdfrwt beam="1">  1        1 0.30658341E+00 0.22116886E+04</pdfrwt>
<pdfrwt beam="2">  1       -1 0.94408824E-01 0.22116886E+04</pdfrwt>
<totfact> 0.29801373E+00</totfact>
</mgrwt>
</event>
<event>
12    1  0.4802930E-008  0.1738700E+04  0.7818608E-02  0.8739595E-01
          2   -1    0    0  501    0  0.00000000000E+00  0.00000000000E+00  0.61778072391E+03  0.61778072391E+03  0.00000000000E+00 0. -1.
         -2   -1    0    0    0  501 -0.00000000000E+00 -0.00000000000E+00 -0.12233612537E+04  0.12233612537E+04  0.00000000000E+00 0.  1.
         23    2    1    2    0    0  0.45601558794E+03 -0.31927890135E+03  0.96168033159E+02  0.57205288328E+03  0.90038754857E+02 0.  0.
        254    2    1    2    0    0 -0.45601558794E+03  0.31927890135E+03 -0.70174856296E+03  0.12690890943E+04  0.89902550045E+03 0.  0.
         23    2    4    4    0    0  0.18753181180E+03 -0.36491581018E+02 -0.42971730061E+03  0.47982487350E+03  0.95263502267E+02 0.  0.
         23    2    4    4    0    0 -0.64354739975E+03  0.35577048236E+03 -0.27203126235E+03  0.78926422084E+03  0.90615179538E+02 0.  0.
         13    1    3    3    0    0  0.32913226473E+03 -0.21503263661E+03  0.27665498887E+02  0.39412239511E+03  0.00000000000E+00 0.  1.
        -13    1    3    3    0    0  0.12688332321E+03 -0.10424626473E+03  0.68502534272E+02  0.17793048817E+03  0.00000000000E+00 0. -1.
          2    1    5    5  502    0  0.12315635654E+03  0.84817464735E+01 -0.18167142045E+03  0.21964501631E+03  0.00000000000E+00 0. -1.
          4    1    6    6  503    0 -0.53468614389E+03  0.27950516883E+03 -0.25593940720E+03  0.65537576399E+03  0.00000000000E+00 0. -1.
         -2    1    5    5    0  502  0.64375455260E+02 -0.44973327491E+02 -0.24804588016E+03  0.26017985719E+03  0.00000000000E+00 0.  1.
         -4    1    6    6    0  503 -0.10886125586E+03  0.76265313536E+02 -0.16091855150E+02  0.13388845685E+03  0.00000000000E+00 0.  1.
<mgrwt>
<rscale>  0 0.17386995E+04</rscale>
<asrwt>0</asrwt>
<pdfrwt beam="1">  1        2 0.95043188E-01 0.17386995E+04</pdfrwt>
<pdfrwt beam="2">  1       -2 0.18820942E+00 0.17386995E+04</pdfrwt>
<totfact> 0.72299864E+00</totfact>
</mgrwt>
</event>
<event>
12    1  0.4802930E-008  0.1652341E+04  0.7818608E-02  0.8789023E-01
         -2   -1    0    0    0  501 -0.00000000000E+00  0.00000000000E+00  0.37699115608E+03  0.37699115608E+03  0.00000000000E+00 0.  1.
          2   -1    0    0  501    0  0.00000000000E+00 -0.00000000000E+00 -0.18105405698E+04  0.18105405698E+04  0.00000000000E+00 0. -1.
         23    2    1    2    0    0  0.12191421508E+03  0.54340720538E+03 -0.78094938481E+03  0.96366520261E+03  0.92812792095E+02 0.  0.
        254    2    1    2    0    0 -0.12191421508E+03 -0.54340720538E+03 -0.65260002889E+03  0.12238665233E+04  0.87281613318E+03 0.  0.
         23    2    4    4    0    0 -0.40259251436E+03 -0.80593383702E+02 -0.75560145454E+02  0.42738010069E+03  0.91478897939E+02 0.  0.
         23    2    4    4    0    0  0.28067829928E+03 -0.46281382168E+03 -0.57703988344E+03  0.79648642257E+03  0.91862141460E+02 0.  0.
         13    1    3    3    0    0  0.51042972020E+02  0.29433027602E+03 -0.49259855621E+03  0.57609811140E+03  0.00000000000E+00 0. -1.
        -13    1    3    3    0    0  0.70871243055E+02  0.24907692936E+03 -0.28835082860E+03  0.38756709121E+03  0.00000000000E+00 0.  1.
          1    1    5    5  502    0 -0.65586132602E+02  0.20623937534E+02 -0.13776520358E+02  0.70119042366E+02  0.00000000000E+00 0. -1.
          3    1    6    6  503    0  0.27538746911E+02 -0.11193704626E+03 -0.10169065916E+03  0.15371816766E+03  0.00000000000E+00 0. -1.
         -1    1    5    5    0  502 -0.33700638176E+03 -0.10121732124E+03 -0.61783625096E+02  0.35726105832E+03  0.00000000000E+00 0.  1.
         -3    1    6    6    0  503  0.25313955237E+03 -0.35087677542E+03 -0.47534922427E+03  0.64276825491E+03  0.00000000000E+00 0.  1.
<mgrwt>
<rscale>  0 0.16523411E+04</rscale>
<asrwt>0</asrwt>
<pdfrwt beam="1">  1        2 0.27854470E+00 0.16523411E+04</pdfrwt>
<pdfrwt beam="2">  1       -2 0.57998640E-01 0.16523411E+04</pdfrwt>
<totfact> 0.22619680E+01</totfact>
</mgrwt>
</event>
<event>
12    1  0.4802930E-008  0.1706469E+04  0.7818608E-02  0.8757683E-01
          1   -1    0    0  501    0  0.00000000000E+00  0.00000000000E+00  0.12706523591E+04  0.12706523591E+04  0.00000000000E+00 0. -1.
         -1   -1    0    0    0  501 -0.00000000000E+00 -0.00000000000E+00 -0.57294123090E+03  0.57294123090E+03  0.00000000000E+00 0.  1.
         23    2    1    2    0    0  0.28739282548E+03  0.92818406840E+01  0.83840517696E+03  0.89103021989E+03  0.91273343938E+02 0.  0.
        254    2    1    2    0    0 -0.28739282548E+03 -0.92818406840E+01 -0.14069404873E+03  0.95256337014E+03  0.89716295626E+03 0.  0.
         23    2    4    4    0    0  0.52550904276E+02 -0.31256737663E+03  0.19167652358E+03  0.38131762674E+03  0.90571962018E+02 0.  0.
         23    2    4    4    0    0 -0.33994372975E+03  0.30328553594E+03 -0.33237057231E+03  0.57124574340E+03  0.91146290679E+02 0.  0.
         11    1    3    3    0    0  0.34864052311E+01 -0.67448257338E+01  0.91689142000E+02  0.92002969824E+02  0.00000000000E+00 0.  1.
        -11    1    3    3    0    0  0.28390642024E+03  0.16026666418E+02  0.74671603496E+03  0.79902725007E+03  0.00000000000E+00 0. -1.
          3    1    5    5  502    0  0.42767063958E+02 -0.19945601575E+03  0.71916782589E+02  0.21629550989E+03  0.00000000000E+00 0. -1.
          3    1    6    6  503    0 -0.23327907177E+03  0.23933777263E+03 -0.19940457879E+03  0.38918360805E+03  0.00000000000E+00 0. -1.
         -3    1    5    5    0  502  0.97838403183E+01 -0.11311136087E+03  0.11975974099E+03  0.16502211686E+03  0.00000000000E+00 0.  1.
         -3    1    6    6    0  503 -0.10666465798E+03  0.63947763316E+02 -0.13296599352E+03  0.18206213535E+03  0.00000000000E+00 0.  1.
<mgrwt>
<rscale>  0 0.17064690E+04</rscale>
<asrwt>0</asrwt>
<pdfrwt beam="1">  1        1 0.19548498E+00 0.17064690E+04</pdfrwt>
<pdfrwt beam="2">  1       -1 0.88144805E-01 0.17064690E+04</pdfrwt>
<totfact> 0.11421830E+01</totfact>
</mgrwt>
</event>
<event>
12    1  0.4802930E-008  0.1880209E+04  0.7818608E-02  0.8664771E-01
          1   -1    0    0  501    0  0.00000000000E+00  0.00000000000E+00  0.10327993601E+04  0.10327993601E+04  0.00000000000E+00 0. -1.
         -1   -1    0    0    0  501 -0.00000000000E+00 -0.00000000000E+00 -0.85572943601E+03  0.85572943601E+03  0.00000000000E+00 0.  1.
         23    2    1    2    0    0 -0.11996623787E+03  0.32794492466E+03  0.69970099375E+03  0.78735881262E+03  0.91720484750E+02 0.  0.
        254    2    1    2    0    0  0.11996623787E+03 -0.32794492466E+03 -0.52263106963E+03  0.11011699835E+04  0.90415282216E+03 0.  0.
         23    2    4    4    0    0 -0.27886652589E+03 -0.25988257555E+03 -0.56119335626E+03  0.68473386804E+03  0.92827768468E+02 0.  0.
         23    2    4    4    0    0  0.39883276376E+03 -0.68062349106E+02  0.38562286632E+02  0.41643611547E+03  0.90729992298E+02 0.  0.
         11    1    3    3    0    0 -0.88553855659E+02  0.22641384139E+03  0.56996076049E+03  0.61964528678E+03  0.00000000000E+00 0. -1.
        -11    1    3    3    0    0 -0.31412382215E+02  0.10153108327E+03  0.12974023326E+03  0.16771352584E+03  0.00000000000E+00 0.  1.
          4    1    5    5  502    0 -0.23090295034E+02 -0.68549420610E+02 -0.89749378303E+02  0.11526983862E+03  0.00000000000E+00 0. -1.
          1    1    6    6  503    0  0.20582707870E+03 -0.80963908648E+02  0.17994643705E+02  0.22190932389E+03  0.00000000000E+00 0. -1.
         -4    1    5    5    0  502 -0.25577623086E+03 -0.19133315494E+03 -0.47144397796E+03  0.56946402942E+03  0.00000000000E+00 0.  1.
         -1    1    6    6    0  503  0.19300568507E+03  0.12901559542E+02  0.20567642928E+02  0.19452679158E+03  0.00000000000E+00 0.  1.
<mgrwt>
<rscale>  0 0.18802094E+04</rscale>
<asrwt>0</asrwt>
<pdfrwt beam="1">  1        1 0.15889221E+00 0.18802094E+04</pdfrwt>
<pdfrwt beam="2">  1       -1 0.13165068E+00 0.18802094E+04</pdfrwt>
<totfact> 0.65687114E+00</totfact>
</mgrwt>
</event>
<event>
12    1  0.4802930E-008  0.1479680E+04  0.7818608E-02  0.8898079E-01
          2   -1    0    0  501    0  0.00000000000E+00  0.00000000000E+00  0.76585115609E+03  0.76585115609E+03  0.00000000000E+00 0.  1.
         -2   -1    0    0    0  501 -0.00000000000E+00 -0.00000000000E+00 -0.71471213390E+03  0.71471213390E+03  0.00000000000E+00 0. -1.
         23    2    1    2    0    0 -0.38535485589E+03 -0.61904462583E+02 -0.22767132207E+03  0.46083997157E+03  0.90601992562E+02 0.  0.
        254    2    1    2    0    0  0.38535485589E+03  0.61904462583E+02  0.27881034427E+03  0.10197233184E+04  0.89987216348E+03 0.  0.
         23    2    4    4    0    0  0.66118863141E+03 -0.22814557447E+02  0.12058872041E+03  0.67871975930E+03  0.91803931525E+02 0.  0.
         23    2    4    4    0    0 -0.27583377552E+03  0.84719020030E+02  0.15822162386E+03  0.34100355912E+03  0.89374274844E+02 0.  0.
         13    1    3    3    0    0 -0.81385042467E+02  0.23535273262E+02 -0.54245119331E+02  0.10059804768E+03  0.00000000000E+00 0. -1.
        -13    1    3    3    0    0 -0.30396981343E+03 -0.85439735844E+02 -0.17342620274E+03  0.36024192389E+03  0.00000000000E+00 0.  1.
          1    1    5    5  502    0  0.38750717940E+03  0.15612042155E+02  0.34968980419E+02  0.38939488895E+03  0.00000000000E+00 0. -1.
          1    1    6    6  503    0 -0.24786849520E+03  0.44357445771E+02  0.12089686404E+03  0.27932494633E+03  0.00000000000E+00 0. -1.
         -1    1    5    5    0  502  0.27368145200E+03 -0.38426599602E+02  0.85619739989E+02  0.28932487035E+03  0.00000000000E+00 0.  1.
         -1    1    6    6    0  503 -0.27965280319E+02  0.40361574258E+02  0.37324759822E+02  0.61678612790E+02  0.00000000000E+00 0.  1.
<mgrwt>
<rscale>  0 0.14796798E+04</rscale>
<asrwt>0</asrwt>
<pdfrwt beam="1">  1        2 0.11782325E+00 0.14796798E+04</pdfrwt>
<pdfrwt beam="2">  1       -2 0.10995571E+00 0.14796798E+04</pdfrwt>
<totfact> 0.23224063E+01</totfact>
</mgrwt>
</event>
<event>
12    1  0.4802930E-008  0.2115661E+04  0.7818608E-02  0.8554376E-01
         -1   -1    0    0    0  501 -0.00000000000E+00  0.00000000000E+00  0.11195368735E+04  0.11195368735E+04  0.00000000000E+00 0.  1.
          1   -1    0    0  501    0  0.00000000000E+00 -0.00000000000E+00 -0.99952512986E+03  0.99952512986E+03  0.00000000000E+00 0. -1.
         23    2    1    2    0    0 -0.17966759039E+03  0.14474796289E+03  0.88540467289E+03  0.91946556876E+03  0.90791417881E+02 0.  0.
        254    2    1    2    0    0  0.17966759039E+03 -0.14474796289E+03 -0.76539292926E+03  0.11995964346E+04  0.89441201576E+03 0.  0.
         23    2    4    4    0    0  0.29093290471E+02  0.19864992465E+03 -0.78178995755E+03  0.81216562869E+03  0.90051421933E+02 0.  0.
         23    2    4    4    0    0  0.15057429992E+03 -0.34339788754E+03  0.16397028292E+02  0.38743080590E+03  0.96119913965E+02 0.  0.
         11    1    3    3    0    0 -0.13034786813E+03  0.81088812536E+02  0.71075848073E+03  0.72714756424E+03  0.00000000000E+00 0.  1.
        -11    1    3    3    0    0 -0.49319722267E+02  0.63659150355E+02  0.17464619216E+03  0.19231800452E+03  0.00000000000E+00 0. -1.
          2    1    5    5  502    0  0.27083857868E+01  0.55061795628E+02 -0.93322124936E+02  0.10838890946E+03  0.00000000000E+00 0.  1.
          3    1    6    6  503    0  0.93045605182E+02 -0.23305149617E+03  0.55473201731E+02  0.25699758875E+03  0.00000000000E+00 0. -1.
         -2    1    5    5    0  502  0.26384904684E+02  0.14358812902E+03 -0.68846783262E+03  0.70377671923E+03  0.00000000000E+00 0. -1.
         -3    1    6    6    0  503  0.57528694742E+02 -0.11034639136E+03 -0.39076173439E+02  0.13043321715E+03  0.00000000000E+00 0.  1.
<mgrwt>
<rscale>  0 0.21156609E+04</rscale>
<asrwt>0</asrwt>
<pdfrwt beam="1">  1        1 0.15377310E+00 0.21156609E+04</pdfrwt>
<pdfrwt beam="2">  1       -1 0.17223644E+00 0.21156609E+04</pdfrwt>
<totfact> 0.32956132E+00</totfact>
</mgrwt>
</event>
<event>
12    1  0.4802930E-008  0.1939153E+04  0.7818608E-02  0.8635609E-01
          2   -1    0    0  501    0  0.00000000000E+00  0.00000000000E+00  0.17714402062E+04  0.17714402062E+04  0.00000000000E+00 0. -1.
         -2   -1    0    0    0  501 -0.00000000000E+00 -0.00000000000E+00 -0.53068613988E+03  0.53068613988E+03  0.00000000000E+00 0.  1.
         23    2    1    2    0    0 -0.30559034244E+03 -0.39146827735E+03 -0.19119262694E+03  0.54007935807E+03  0.92185806135E+02 0.  0.
        254    2    1    2    0    0  0.30559034244E+03  0.39146827735E+03  0.14319466933E+04  0.17620469880E+04  0.89872431039E+03 0.  0.
         23    2    4    4    0    0 -0.28936791732E+03  0.27568898156E+03  0.50298154128E+03  0.64901600012E+03  0.92158186938E+02 0.  0.
         23    2    4    4    0    0  0.59495825976E+03  0.11577929579E+03  0.92896515197E+03  0.11130309879E+04  0.92095332371E+02 0.  0.
         11    1    3    3    0    0  0.11662027131E+01 -0.26078529027E+02 -0.21151444553E+02  0.33598114704E+02  0.00000000000E+00 0. -1.
        -11    1    3    3    0    0 -0.30675654515E+03 -0.36538974832E+03 -0.17004118239E+03  0.50648124336E+03  0.00000000000E+00 0.  1.
          4    1    5    5  502    0 -0.23709555206E+03  0.21346630357E+03  0.45140762676E+03  0.55276668592E+03  0.00000000000E+00 0. -1.
          4    1    6    6  503    0  0.32405581346E+03  0.60337310242E+02  0.58740642123E+03  0.67357187066E+03  0.00000000000E+00 0. -1.
         -4    1    5    5    0  502 -0.52272365257E+02  0.62222677988E+02  0.51573914528E+02  0.96249314207E+02  0.00000000000E+00 0.  1.
         -4    1    6    6    0  503  0.27090244630E+03  0.55441985546E+02  0.34155873074E+03  0.43945911723E+03  0.00000000000E+00 0.  1.
<mgrwt>
<rscale>  0 0.19391532E+04</rscale>
<asrwt>0</asrwt>
<pdfrwt beam="1">  1        2 0.27252926E+00 0.19391532E+04</pdfrwt>
<pdfrwt beam="2">  1       -2 0.81644022E-01 0.19391532E+04</pdfrwt>
<totfact> 0.11031243E+01</totfact>
</mgrwt>
</event>
<event>
12    1  0.4802930E-008  0.1136462E+04  0.7818608E-02  0.9170364E-01
         -1   -1    0    0    0  501 -0.00000000000E+00  0.00000000000E+00  0.22020866124E+03  0.22020866124E+03  0.00000000000E+00 0.  1.
          1   -1    0    0  501    0  0.00000000000E+00 -0.00000000000E+00 -0.14662759243E+04  0.14662759243E+04  0.00000000000E+00 0. -1.
         23    2    1    2    0    0 -0.97942066855E+02  0.86704819479E+02 -0.19197123831E+02  0.16027293070E+03  0.90600819921E+02 0.  0.
        254    2    1    2    0    0  0.97942066855E+02 -0.86704819479E+02 -0.12268701392E+04  0.15262116548E+04  0.89833251230E+03 0.  0.
         23    2    4    4    0    0  0.17290156112E+03  0.34120762000E+03 -0.87610711903E+03  0.96025501802E+03  0.90600363306E+02 0.  0.
         23    2    4    4    0    0 -0.74959494261E+02 -0.42791243948E+03 -0.35076302016E+03  0.56595663678E+03  0.92435040821E+02 0.  0.
         11    1    3    3    0    0 -0.66211973307E+02  0.75024093422E+01 -0.32128484359E+02  0.73976692697E+02  0.00000000000E+00 0. -1.
        -11    1    3    3    0    0 -0.31730093547E+02  0.79202410137E+02  0.12931360527E+02  0.86296238001E+02  0.00000000000E+00 0.  1.
          2    1    5    5  502    0  0.15959118989E+03  0.25491151714E+03 -0.73716467874E+03  0.79615387523E+03  0.00000000000E+00 0. -1.
          2    1    6    6  503    0 -0.91974737455E+02 -0.39624352439E+03 -0.30887342491E+03  0.51075539700E+03  0.00000000000E+00 0. -1.
         -2    1    5    5    0  502  0.13310371224E+02  0.86296102857E+02 -0.13894244030E+03  0.16410114279E+03  0.00000000000E+00 0.  1.
         -2    1    6    6    0  503  0.17015243194E+02 -0.31668915093E+02 -0.41889595244E+02  0.55201239785E+02  0.00000000000E+00 0.  1.
<mgrwt>
<rscale>  0 0.11364623E+04</rscale>
<asrwt>0</asrwt>
<pdfrwt beam="1">  1        1 0.22558092E+00 0.11364623E+04</pdfrwt>
<pdfrwt beam="2">  1       -1 0.33878254E-01 0.11364623E+04</pdfrwt>
<totfact> 0.56442078E+01</totfact>
</mgrwt>
</event>
<event>
12    1  0.4802930E-008  0.1071883E+04  0.7818608E-02  0.9233039E-01
          1   -1    0    0  501    0  0.00000000000E+00  0.00000000000E+00  0.10511157774E+04  0.10511157774E+04  0.00000000000E+00 0. -1.
         -1   -1    0    0    0  501 -0.00000000000E+00 -0.00000000000E+00 -0.27326490173E+03  0.27326490173E+03  0.00000000000E+00 0.  1.
         23    2    1    2    0    0  0.22479252718E+02 -0.85641251808E+02  0.25098830260E+03  0.28565632919E+03  0.10375292548E+03 0.  0.
        254    2    1    2    0    0 -0.22479252718E+02  0.85641251808E+02  0.52686257309E+03  0.10387243500E+04  0.89079984479E+03 0.  0.
         23    2    4    4    0    0  0.13250809109E+03  0.23675021827E+03  0.69386010443E+03  0.75031695110E+03  0.89020348919E+02 0.  0.
         23    2    4    4    0    0 -0.15498734381E+03 -0.15110896647E+03 -0.16699753134E+03  0.28840739887E+03  0.91845826048E+02 0.  0.
         11    1    3    3    0    0 -0.34924117717E+02 -0.24730665992E+01  0.56170527538E+02  0.66188656284E+02  0.00000000000E+00 0. -1.
        -11    1    3    3    0    0  0.57403370434E+02 -0.83168185209E+02  0.19481777506E+03  0.21946767290E+03  0.00000000000E+00 0.  1.
          4    1    5    5  502    0  0.14529423643E+03  0.22576192266E+03  0.65917052404E+03  0.71174759615E+03  0.00000000000E+00 0.  1.
          1    1    6    6  503    0  0.38440033884E+01 -0.20504736329E+02  0.36630618931E+01  0.21181090538E+02  0.00000000000E+00 0. -1.
         -4    1    5    5    0  502 -0.12786145338E+02  0.10988295616E+02  0.34689580394E+02  0.38569354948E+02  0.00000000000E+00 0. -1.
         -1    1    6    6    0  503 -0.15883134720E+03 -0.13060423014E+03 -0.17066059324E+03  0.26722630834E+03  0.00000000000E+00 0.  1.
<mgrwt>
<rscale>  0 0.10718825E+04</rscale>
<asrwt>0</asrwt>
<pdfrwt beam="1">  1        1 0.16171012E+00 0.10718825E+04</pdfrwt>
<pdfrwt beam="2">  1       -1 0.42040755E-01 0.10718825E+04</pdfrwt>
<totfact> 0.76575308E+01</totfact>
</mgrwt>
</event>
<event>
12    1  0.4802930E-008  0.2053393E+04  0.7818608E-02  0.8582057E-01
          1   -1    0    0  501    0  0.00000000000E+00  0.00000000000E+00  0.31589477134E+04  0.31589477134E+04  0.00000000000E+00 0. -1.
         -1   -1    0    0    0  501 -0.00000000000E+00 -0.00000000000E+00 -0.33368889720E+03  0.33368889720E+03  0.00000000000E+00 0.  1.
         23    2    1    2    0    0 -0.36920558230E+03  0.48820732691E+03  0.20141213151E+03  0.65084764867E+03  0.91524089803E+02 0.  0.
        254    2    1    2    0    0  0.36920558230E+03 -0.48820732691E+03  0.26238466847E+04  0.28417889620E+04  0.90362266648E+03 0.  0.
         23    2    4    4    0    0  0.65103074569E+03 -0.32346785838E+03  0.15189542999E+04  0.16864514176E+04  0.91780888267E+02 0.  0.
         23    2    4    4    0    0 -0.28182516339E+03 -0.16473946853E+03  0.11048923848E+04  0.11553375444E+04  0.86331594495E+02 0.  0.
         13    1    3    3    0    0 -0.23436580122E+03  0.32760903845E+03  0.17612200026E+03  0.43962935506E+03  0.00000000000E+00 0. -1.
        -13    1    3    3    0    0 -0.13483978108E+03  0.16059828846E+03  0.25290131252E+02  0.21121829361E+03  0.00000000000E+00 0.  1.
          2    1    6    6  502    0 -0.68774885417E+02 -0.50209769308E+02  0.43146393751E+03  0.43978646543E+03  0.00000000000E+00 0. -1.
          2    1    5    5  503    0  0.99057420553E+02 -0.32112750201E+02  0.15838022475E+03  0.18954655598E+03  0.00000000000E+00 0. -1.
         -2    1    5    5    0  503  0.55197332514E+03 -0.29135510818E+03  0.13605740752E+04  0.14969048616E+04  0.00000000000E+00 0.  1.
         -2    1    6    6    0  502 -0.21305027797E+03 -0.11452969922E+03  0.67342844730E+03  0.71555107894E+03  0.00000000000E+00 0.  1.
<mgrwt>
<rscale>  0 0.20533931E+04</rscale>
<asrwt>0</asrwt>
<pdfrwt beam="1">  1        1 0.48599193E+00 0.20533931E+04</pdfrwt>
<pdfrwt beam="2">  1       -1 0.51336756E-01 0.20533931E+04</pdfrwt>
<totfact> 0.16114227E+00</totfact>
</mgrwt>
</event>
<event>
12    1  0.4802930E-008  0.1519210E+04  0.7818608E-02  0.8871778E-01
          2   -1    0    0  501    0  0.00000000000E+00  0.00000000000E+00  0.50051732869E+03  0.50051732869E+03  0.00000000000E+00 0.  1.
         -2   -1    0    0    0  501 -0.00000000000E+00 -0.00000000000E+00 -0.11528061926E+04  0.11528061926E+04  0.00000000000E+00 0. -1.
         23    2    1    2    0    0  0.15862523835E+03  0.24580875014E+03 -0.64368776764E+03  0.71498926780E+03  0.10626289554E+03 0.  0.
        254    2    1    2    0    0 -0.15862523835E+03 -0.24580875014E+03 -0.86010962406E+01  0.93833425347E+03  0.89152301400E+03 0.  0.
         23    2    4    4    0    0  0.15905526202E+03 -0.45036163472E+03  0.16353576711E+03  0.51331587604E+03  0.92871217650E+02 0.  0.
         23    2    4    4    0    0 -0.31768050037E+03  0.20455288458E+03 -0.17213686335E+03  0.42501837743E+03  0.90811554980E+02 0.  0.
         11    1    3    3    0    0  0.30972619814E+02  0.33252865380E+02 -0.21512128872E+03  0.21986865419E+03  0.00000000000E+00 0. -1.
        -11    1    3    3    0    0  0.12765261854E+03  0.21255588476E+03 -0.42856647892E+03  0.49512061361E+03  0.00000000000E+00 0.  1.
          1    1    5    5  502    0  0.11999093080E+03 -0.30718330448E+03  0.15570838036E+03  0.36469782798E+03  0.00000000000E+00 0. -1.
          3    1    6    6  503    0 -0.32525431582E+02  0.10648480475E+02 -0.47081499796E+02  0.58206197772E+02  0.00000000000E+00 0. -1.
         -1    1    5    5    0  502  0.39064331223E+02 -0.14317833025E+03  0.78273867552E+01  0.14861804806E+03  0.00000000000E+00 0.  1.
         -3    1    6    6    0  503 -0.28515506879E+03  0.19390440411E+03 -0.12505536356E+03  0.36681217966E+03  0.00000000000E+00 0.  1.
<mgrwt>
<rscale>  0 0.15192096E+04</rscale>
<asrwt>0</asrwt>
<pdfrwt beam="1">  1        2 0.77002666E-01 0.15192096E+04</pdfrwt>
<pdfrwt beam="2">  1       -2 0.17735480E+00 0.15192096E+04</pdfrwt>
<totfact> 0.11212830E+01</totfact>
</mgrwt>
</event>
<event>
12    1  0.4802930E-008  0.1795817E+04  0.7818608E-02  0.8708527E-01
          2   -1    0    0  501    0  0.00000000000E+00  0.00000000000E+00  0.12656529783E+04  0.12656529783E+04  0.00000000000E+00 0. -1.
         -2   -1    0    0    0  501 -0.00000000000E+00 -0.00000000000E+00 -0.63701459911E+03  0.63701459911E+03  0.00000000000E+00 0.  1.
         23    2    1    2    0    0 -0.36104709555E+03 -0.30360521667E+03  0.73342148106E+03  0.87691189324E+03  0.92391919765E+02 0.  0.
        254    2    1    2    0    0  0.36104709555E+03  0.30360521667E+03 -0.10478310184E+03  0.10257556842E+04  0.90480058160E+03 0.  0.
         23    2    4    4    0    0  0.86237325720E+02  0.59506730873E+03 -0.84966685805E+02  0.61407971014E+03  0.91282936178E+02 0.  0.
         23    2    4    4    0    0  0.27480976983E+03 -0.29146209207E+03 -0.19816416036E+02  0.41167597406E+03  0.92810864520E+02 0.  0.
         11    1    3    3    0    0  0.71406649228E+00  0.14526422587E+01 -0.18907240360E+01  0.24889551759E+01  0.00000000000E+00 0.  1.
        -11    1    3    3    0    0 -0.36176116204E+03 -0.30505785893E+03  0.73531220509E+03  0.87442293806E+03  0.00000000000E+00 0. -1.
          4    1    5    5  502    0  0.35120735464E+02  0.16473673751E+03 -0.64094699179E+02  0.18022150040E+03  0.00000000000E+00 0. -1.
          3    1    6    6  503    0  0.25597434968E+03 -0.26195495978E+03  0.89521189901E+01  0.36636513082E+03  0.00000000000E+00 0. -1.
         -4    1    5    5    0  502  0.51116590256E+02  0.43033057122E+03 -0.20871986626E+02  0.43385820974E+03  0.00000000000E+00 0.  1.
         -3    1    6    6    0  503  0.18835420150E+02 -0.29507132288E+02 -0.28768535026E+02  0.45310843245E+02  0.00000000000E+00 0.  1.
<mgrwt>
<rscale>  0 0.17958167E+04</rscale>
<asrwt>0</asrwt>
<pdfrwt beam="1">  1        2 0.19471584E+00 0.17958167E+04</pdfrwt>
<pdfrwt beam="2">  1       -2 0.98002246E-01 0.17958167E+04</pdfrwt>
<totfact> 0.14169494E+01</totfact>
</mgrwt>
</event>
<event>
12    1  0.4802930E-008  0.1767851E+04  0.7818608E-02  0.8723585E-01
          2   -1    0    0  501    0  0.00000000000E+00  0.00000000000E+00  0.12413258085E+04  0.12413258085E+04  0.00000000000E+00 0. -1.
         -2   -1    0    0    0  501 -0.00000000000E+00 -0.00000000000E+00 -0.62942760499E+03  0.62942760499E+03  0.00000000000E+00 0.  1.
         23    2    1    2    0    0 -0.43382989874E+03 -0.32932188479E+03  0.59960447545E+03  0.81515256921E+03  0.91032407757E+02 0.  0.
        254    2    1    2    0    0  0.43382989874E+03  0.32932188479E+03  0.12293728049E+02  0.10556008443E+04  0.90414640509E+03 0.  0.
         23    2    4    4    0    0  0.29272736769E+02 -0.28857782065E+03 -0.54564372857E+02  0.30842178907E+03  0.89513560402E+02 0.  0.
         23    2    4    4    0    0  0.40455716197E+03  0.61789970544E+03  0.66858100907E+02  0.74717905520E+03  0.91323554441E+02 0.  0.
         13    1    3    3    0    0 -0.13963197625E+03 -0.56158556871E+02  0.15251344333E+03  0.21426904279E+03  0.00000000000E+00 0.  1.
        -13    1    3    3    0    0 -0.29419792248E+03 -0.27316332792E+03  0.44709103212E+03  0.60088352641E+03  0.00000000000E+00 0. -1.
          2    1    5    5  502    0  0.23784959621E+02 -0.28573754842E+03 -0.67076327360E+02  0.29446715364E+03  0.00000000000E+00 0. -1.
          3    1    6    6  503    0  0.31511276288E+03  0.40519402707E+03  0.39564930646E+02  0.51482388896E+03  0.00000000000E+00 0. -1.
         -2    1    5    5    0  502  0.54877771480E+01 -0.28402722311E+01  0.12511954503E+02  0.13954635425E+02  0.00000000000E+00 0.  1.
         -3    1    6    6    0  503  0.89444399088E+02  0.21270567837E+03  0.27293170260E+02  0.23235516625E+03  0.00000000000E+00 0.  1.
<mgrwt>
<rscale>  0 0.17678515E+04</rscale>
<asrwt>0</asrwt>
<pdfrwt beam="1">  1        2 0.19097320E+00 0.17678515E+04</pdfrwt>
<pdfrwt beam="2">  1       -2 0.96835016E-01 0.17678515E+04</pdfrwt>
<totfact> 0.15098137E+01</totfact>
</mgrwt>
</event>
<event>
12    1  0.4802930E-008  0.3915493E+04  0.7818608E-02  0.8021815E-01
         -2   -1    0    0    0  501 -0.00000000000E+00  0.00000000000E+00  0.10250958588E+04  0.10250958588E+04  0.00000000000E+00 0.  1.
          2   -1    0    0  501    0  0.00000000000E+00 -0.00000000000E+00 -0.37389401726E+04  0.37389401726E+04  0.00000000000E+00 0. -1.
         23    2    1    2    0    0 -0.66468792063E+03 -0.14636037663E+04 -0.16486395314E+03  0.16184081245E+04  0.90103928442E+02 0.  0.
        254    2    1    2    0    0  0.66468792063E+03  0.14636037663E+04 -0.25489803606E+04  0.31456279069E+04  0.90206875214E+03 0.  0.
         23    2    4    4    0    0  0.14765809085E+02  0.10759701358E+04 -0.15388773596E+04  0.18802102365E+04  0.95484256457E+02 0.  0.
         23    2    4    4    0    0  0.64992211155E+03  0.38763363045E+03 -0.10101030011E+04  0.12654176705E+04  0.91187858120E+02 0.  0.
         13    1    3    3    0    0 -0.53909291543E+03 -0.12394399658E+04 -0.16347564802E+03  0.13614539610E+04  0.00000000000E+00 0.  1.
        -13    1    3    3    0    0 -0.12559500520E+03 -0.22416380045E+03 -0.13883051134E+01  0.25695416352E+03  0.00000000000E+00 0. -1.
          2    1    6    6  502    0  0.21572414227E+02  0.28489254882E+01 -0.54946465517E+02  0.59098219134E+02  0.00000000000E+00 0. -1.
          2    1    5    5  503    0 -0.31131736869E+01  0.41359170525E+02 -0.32621724250E+02  0.52767885404E+02  0.00000000000E+00 0. -1.
         -2    1    5    5    0  503  0.17878982772E+02  0.10346109653E+04 -0.15062556353E+04  0.18274423511E+04  0.00000000000E+00 0.  1.
         -2    1    6    6    0  502  0.62834969732E+03  0.38478470496E+03 -0.95515653553E+03  0.12063194513E+04  0.00000000000E+00 0.  1.
<mgrwt>
<rscale>  0 0.39154934E+04</rscale>
<asrwt>0</asrwt>
<pdfrwt beam="1">  1        2 0.57522157E+00 0.39154934E+04</pdfrwt>
<pdfrwt beam="2">  1       -2 0.15770705E+00 0.39154934E+04</pdfrwt>
<totfact> 0.11333233E-01</totfact>
</mgrwt>
</event>
<event>
12    1  0.5027414E-008  0.1720244E+04  0.7818608E-02  0.8749902E-01
         -1   -1    0    0    0  501 -0.00000000000E+00  0.00000000000E+00  0.63628369567E+03  0.63628369567E+03  0.00000000000E+00 0.  1.
          1   -1    0    0  501    0  0.00000000000E+00 -0.00000000000E+00 -0.11627039031E+04  0.11627039031E+04  0.00000000000E+00 0. -1.
         23    2    1    2    0    0  0.89228357743E+02  0.34476666084E+03  0.34013260621E+03  0.50088699291E+03  0.91497757400E+02 0.  0.
        254    2    1    2    0    0 -0.89228357743E+02 -0.34476666084E+03 -0.86655281369E+03  0.12981006059E+04  0.89851302378E+03 0.  0.
         23    2    4    4    0    0 -0.48595758577E+03 -0.16611022325E+03 -0.48002843112E+03  0.70896542527E+03  0.91963569486E+02 0.  0.
         23    2    4    4    0    0  0.39672922802E+03 -0.17865643759E+03 -0.38652438257E+03  0.58913518064E+03  0.91471086626E+02 0.  0.
         13    1    3    3    0    0  0.46949048483E+02  0.52593792563E+02  0.87210364529E+02  0.11214262281E+03  0.00000000000E+00 0. -1.
        -13    1    3    3    0    0  0.42279309260E+02  0.29217286827E+03  0.25292224168E+03  0.38874437010E+03  0.00000000000E+00 0.  1.
          4    1    5    5  502    0 -0.16508011185E+03 -0.63737629255E+02 -0.22632622006E+03  0.28729338071E+03  0.00000000000E+00 0. -1.
          1    1    6    6  503    0  0.13275029498E+03 -0.62743890944E+02 -0.75736469631E+02  0.16521334541E+03  0.00000000000E+00 0. -1.
         -4    1    5    5    0  502 -0.32087747392E+03 -0.10237259400E+03 -0.25370221105E+03  0.42167204456E+03  0.00000000000E+00 0.  1.
         -1    1    6    6    0  503  0.26397893304E+03 -0.11591254664E+03 -0.31078791294E+03  0.42392183523E+03  0.00000000000E+00 0.  1.
<mgrwt>
<rscale>  0 0.17202436E+04</rscale>
<asrwt>0</asrwt>
<pdfrwt beam="1">  1        1 0.17887752E+00 0.17202436E+04</pdfrwt>
<pdfrwt beam="2">  1       -1 0.97889800E-01 0.17202436E+04</pdfrwt>
<totfact> 0.10821899E+01</totfact>
</mgrwt>
</event>
<event>
12    1  0.6123630E-008  0.2566257E+04  0.7818608E-02  0.8379754E-01
          1   -1    0    0  501    0  0.00000000000E+00  0.00000000000E+00  0.15880965814E+04  0.15880965814E+04  0.00000000000E+00 0. -1.
         -1   -1    0    0    0  501 -0.00000000000E+00 -0.00000000000E+00 -0.10367242292E+04  0.10367242292E+04  0.00000000000E+00 0.  1.
         23    2    1    2    0    0 -0.25052587308E+03  0.88343841099E+02 -0.87444439597E+03  0.91842667984E+03  0.91031408089E+02 0.  0.
        254    2    1    2    0    0  0.25052587308E+03 -0.88343841099E+02  0.14258167481E+04  0.17063941308E+04  0.89903263736E+03 0.  0.
         23    2    4    4    0    0  0.66285479406E+02  0.24183672081E+02 -0.10734755414E+03  0.15552258971E+03  0.87665065761E+02 0.  0.
         23    2    4    4    0    0  0.18424039367E+03 -0.11252751318E+03  0.15331643023E+04  0.15508715411E+04  0.89458344043E+02 0.  0.
         11    1    3    3    0    0 -0.51277574782E+02  0.59763773743E+02 -0.21626007038E+03  0.23015107293E+03  0.00000000000E+00 0. -1.
        -11    1    3    3    0    0 -0.19924829830E+03  0.28580067356E+02 -0.65818432558E+03  0.68827560691E+03  0.00000000000E+00 0.  1.
          1    1    6    6  502    0  0.18399938018E+03 -0.12026516506E+03  0.13699210213E+04  0.13874448048E+04  0.00000000000E+00 0. -1.
          1    1    5    5  503    0  0.63019319698E+02  0.33418704022E+02 -0.11995217331E+03  0.13955919288E+03  0.00000000000E+00 0. -1.
         -1    1    5    5    0  503  0.32661597078E+01 -0.92350319412E+01  0.12604619169E+02  0.15963396837E+02  0.00000000000E+00 0.  1.
         -1    1    6    6    0  502  0.24101349330E+00  0.77376518780E+01  0.16324328099E+03  0.16342673629E+03  0.00000000000E+00 0.  1.
<mgrwt>
<rscale>  0 0.25662566E+04</rscale>
<asrwt>0</asrwt>
<pdfrwt beam="1">  1        1 0.24432255E+00 0.25662566E+04</pdfrwt>
<pdfrwt beam="2">  1       -1 0.15949604E+00 0.25662566E+04</pdfrwt>
<totfact> 0.14809041E+00</totfact>
</mgrwt>
</event>
<event>
12    1  0.4802930E-008  0.1169146E+04  0.7818608E-02  0.9140300E-01
          2   -1    0    0  501    0  0.00000000000E+00  0.00000000000E+00  0.61605098372E+03  0.61605098372E+03  0.00000000000E+00 0. -1.
         -2   -1    0    0    0  501 -0.00000000000E+00 -0.00000000000E+00 -0.55470356979E+03  0.55470356979E+03  0.00000000000E+00 0.  1.
         23    2    1    2    0    0  0.10437599181E+03  0.19085738137E+03  0.12593162107E+02  0.23695335357E+03  0.93098959971E+02 0.  0.
        254    2    1    2    0    0 -0.10437599181E+03 -0.19085738137E+03  0.48754251823E+02  0.93380119994E+03  0.90680031774E+03 0.  0.
         23    2    4    4    0    0  0.15512737463E+03 -0.43901965891E+03  0.22301797539E+03  0.52442215792E+03  0.92080503390E+02 0.  0.
         23    2    4    4    0    0 -0.25950336644E+03  0.24816227754E+03 -0.17426372357E+03  0.40937904202E+03  0.91086999645E+02 0.  0.
         11    1    3    3    0    0  0.83690019335E+02  0.16124203451E+03  0.46376393323E+02  0.18749342092E+03  0.00000000000E+00 0. -1.
        -11    1    3    3    0    0  0.20685972476E+02  0.29615346856E+02 -0.33783231216E+02  0.49459932654E+02  0.00000000000E+00 0.  1.
          1    1    5    5  502    0  0.16146034170E+03 -0.42839209939E+03  0.20279353158E+03  0.50071393950E+03  0.00000000000E+00 0. -1.
          3    1    6    6  503    0 -0.19175521782E+03  0.21915014007E+03 -0.16607183142E+03  0.33522634241E+03  0.00000000000E+00 0. -1.
         -1    1    5    5    0  502 -0.63329670682E+01 -0.10627559523E+02  0.20224443814E+02  0.23708218425E+02  0.00000000000E+00 0.  1.
         -3    1    6    6    0  503 -0.67748148623E+02  0.29012137472E+02 -0.81918921429E+01  0.74152699610E+02  0.00000000000E+00 0.  1.
<mgrwt>
<rscale>  0 0.11691461E+04</rscale>
<asrwt>0</asrwt>
<pdfrwt beam="1">  1        2 0.94777074E-01 0.11691461E+04</pdfrwt>
<pdfrwt beam="2">  1       -2 0.85339011E-01 0.11691461E+04</pdfrwt>
<totfact> 0.56727664E+01</totfact>
</mgrwt>
</event>
<event>
12    1  0.4802930E-008  0.1767445E+04  0.7818608E-02  0.8723806E-01
          2   -1    0    0  501    0  0.00000000000E+00  0.00000000000E+00  0.73751548443E+03  0.73751548443E+03  0.00000000000E+00 0. -1.
         -2   -1    0    0    0  501 -0.00000000000E+00 -0.00000000000E+00 -0.10589145269E+04  0.10589145269E+04  0.00000000000E+00 0.  1.
         23    2    1    2    0    0  0.16424640839E+03 -0.60439455525E+02 -0.68313646055E+03  0.71117949909E+03  0.92038284167E+02 0.  0.
        254    2    1    2    0    0 -0.16424640839E+03  0.60439455525E+02  0.36173741808E+03  0.10852505122E+04  0.10081095696E+04 0.  0.
         23    2    4    4    0    0 -0.99408563788E+02  0.13035596009E+02 -0.34317739243E+03  0.37000173948E+03  0.95281557634E+02 0.  0.
         23    2    4    4    0    0 -0.64837844598E+02  0.47403859516E+02  0.70491481051E+03  0.71524877276E+03  0.90690930451E+02 0.  0.
         11    1    3    3    0    0 -0.77818500305E+01 -0.19142580316E+02 -0.80642570962E+02  0.83247941851E+02  0.00000000000E+00 0. -1.
        -11    1    3    3    0    0  0.17202825842E+03 -0.41296875210E+02 -0.60249388958E+03  0.62793155724E+03  0.00000000000E+00 0.  1.
          2    1    5    5  502    0  0.11732321064E+02  0.28985052894E+01 -0.11868754519E+03  0.11930122411E+03  0.00000000000E+00 0. -1.
          2    1    6    6  503    0  0.74694080996E+01 -0.60483620721E+01  0.78537110442E+01  0.12411910340E+02  0.00000000000E+00 0. -1.
         -2    1    5    5    0  502 -0.11114088485E+03  0.10137090719E+02 -0.22448984725E+03  0.25070051538E+03  0.00000000000E+00 0.  1.
         -2    1    6    6    0  503 -0.72307252697E+02  0.53452221589E+02  0.69706109946E+03  0.70283686242E+03  0.00000000000E+00 0.  1.
<mgrwt>
<rscale>  0 0.17674455E+04</rscale>
<asrwt>0</asrwt>
<pdfrwt beam="1">  1        2 0.11346392E+00 0.17674455E+04</pdfrwt>
<pdfrwt beam="2">  1       -2 0.16290993E+00 0.17674455E+04</pdfrwt>
<totfact> 0.86927375E+00</totfact>
</mgrwt>
</event>
<event>
12    1  0.4802930E-008  0.1524787E+04  0.7818608E-02  0.8868135E-01
         -1   -1    0    0    0  501 -0.00000000000E+00  0.00000000000E+00  0.73715991676E+03  0.73715991676E+03  0.00000000000E+00 0.  1.
          1   -1    0    0  501    0  0.00000000000E+00 -0.00000000000E+00 -0.78849095547E+03  0.78849095547E+03  0.00000000000E+00 0. -1.
         23    2    1    2    0    0 -0.21871498914E+03  0.13218195392E+03  0.38659196522E+03  0.47235126050E+03  0.91400494003E+02 0.  0.
        254    2    1    2    0    0  0.21871498914E+03 -0.13218195392E+03 -0.43792300392E+03  0.10532996117E+04  0.92323084833E+03 0.  0.
         23    2    4    4    0    0  0.24641887097E+03  0.40897883228E+02  0.23293636383E+03  0.35351950219E+03  0.91223856565E+02 0.  0.
         23    2    4    4    0    0 -0.27703881830E+02 -0.17307983715E+03 -0.67085936775E+03  0.69978010955E+03  0.94423383335E+02 0.  0.
         11    1    3    3    0    0 -0.15764049307E+03  0.49229271156E+02  0.27248530696E+03  0.31862562468E+03  0.00000000000E+00 0.  1.
        -11    1    3    3    0    0 -0.61074496077E+02  0.82952682766E+02  0.11410665826E+03  0.15372563582E+03  0.00000000000E+00 0. -1.
          1    1    5    5  502    0  0.10729964123E+03  0.31050836585E+02  0.47236631794E+02  0.12127929272E+03  0.00000000000E+00 0. -1.
          3    1    6    6  503    0  0.28427037012E+02 -0.64275505443E+02 -0.16554866018E+03  0.17984937009E+03  0.00000000000E+00 0. -1.
         -1    1    5    5    0  502  0.13911922975E+03  0.98470466429E+01  0.18569973204E+03  0.23224020946E+03  0.00000000000E+00 0.  1.
         -3    1    6    6    0  503 -0.56130918843E+02 -0.10880433171E+03 -0.50531070758E+03  0.51993073946E+03  0.00000000000E+00 0.  1.
<mgrwt>
<rscale>  0 0.15247871E+04</rscale>
<asrwt>0</asrwt>
<pdfrwt beam="1">  1        1 0.12130630E+00 0.15247871E+04</pdfrwt>
<pdfrwt beam="2">  1       -1 0.11340922E+00 0.15247871E+04</pdfrwt>
<totfact> 0.15509823E+01</totfact>
</mgrwt>
</event>
<event>
12    1  0.4802930E-008  0.1826693E+04  0.7818608E-02  0.8692232E-01
         -1   -1    0    0    0  501 -0.00000000000E+00  0.00000000000E+00  0.65151887092E+03  0.65151887092E+03  0.00000000000E+00 0.  1.
          1   -1    0    0  501    0  0.00000000000E+00 -0.00000000000E+00 -0.12803948786E+04  0.12803948786E+04  0.00000000000E+00 0. -1.
         23    2    1    2    0    0 -0.28293731516E+03 -0.59685953348E+03 -0.44273437170E+03  0.80015590118E+03  0.89111813425E+02 0.  0.
        254    2    1    2    0    0  0.28293731516E+03  0.59685953348E+03 -0.18614163603E+03  0.11317578484E+04  0.89996238348E+03 0.  0.
         23    2    4    4    0    0  0.24443567475E+02  0.58247427690E+03  0.22984130588E+03  0.63304578357E+03  0.89700429001E+02 0.  0.
         23    2    4    4    0    0  0.25849374769E+03  0.14385256582E+02 -0.41598294191E+03  0.49871206481E+03  0.92983667528E+02 0.  0.
         13    1    3    3    0    0 -0.27443402455E+03 -0.54661692068E+03 -0.38308891067E+03  0.72170714648E+03  0.00000000000E+00 0.  1.
        -13    1    3    3    0    0 -0.85032906076E+01 -0.50242612802E+02 -0.59645461027E+02  0.78448754696E+02  0.00000000000E+00 0. -1.
          4    1    5    5  502    0  0.42082812607E+01  0.52263302021E+03  0.18067652704E+03  0.55299818342E+03  0.00000000000E+00 0. -1.
          1    1    6    6  503    0  0.25665472946E+03 -0.19480219491E+01 -0.40288885907E+03  0.47769747509E+03  0.00000000000E+00 0. -1.
         -4    1    5    5    0  502  0.20235286214E+02  0.59841256688E+02  0.49164778844E+02  0.80047600145E+02  0.00000000000E+00 0.  1.
         -1    1    6    6    0  503  0.18390182245E+01  0.16333278531E+02 -0.13094082833E+02  0.21014589714E+02  0.00000000000E+00 0.  1.
<mgrwt>
<rscale>  0 0.18266926E+04</rscale>
<asrwt>0</asrwt>
<pdfrwt beam="1">  1        1 0.19698383E+00 0.18266926E+04</pdfrwt>
<pdfrwt beam="2">  1       -1 0.10023367E+00 0.18266926E+04</pdfrwt>
<totfact> 0.83397642E+00</totfact>
</mgrwt>
</event>
<event>
12    1  0.4802930E-008  0.1384088E+04  0.7818608E-02  0.8965417E-01
          2   -1    0    0  501    0  0.00000000000E+00  0.00000000000E+00  0.14983418628E+04  0.14983418628E+04  0.00000000000E+00 0. -1.
         -2   -1    0    0    0  501 -0.00000000000E+00 -0.00000000000E+00 -0.31963682111E+03  0.31963682111E+03  0.00000000000E+00 0.  1.
         23    2    1    2    0    0  0.37499859459E+02 -0.27008939729E+02  0.85945322508E+03  0.86508585679E+03  0.87051543543E+02 0.  0.
        254    2    1    2    0    0 -0.37499859459E+02  0.27008939729E+02  0.31925181656E+03  0.95289282707E+03  0.89663108090E+03 0.  0.
         23    2    4    4    0    0  0.29952694629E+03 -0.24024126143E+03 -0.22755812948E+02  0.39552077596E+03  0.92122754759E+02 0.  0.
         23    2    4    4    0    0 -0.33702680575E+03  0.26725020116E+03  0.34200762951E+03  0.55737205112E+03  0.93191452988E+02 0.  0.
         11    1    3    3    0    0  0.11060595126E+02  0.31691295651E+02  0.25048098561E+03  0.25272000146E+03  0.00000000000E+00 0.  1.
        -11    1    3    3    0    0  0.26439264333E+02 -0.58700235380E+02  0.60897223947E+03  0.61236585533E+03  0.00000000000E+00 0. -1.
          4    1    5    5  502    0  0.56767952072E+02 -0.59108503070E+01  0.28404101165E+01  0.57145485066E+02  0.00000000000E+00 0.  1.
          1    1    6    6  503    0 -0.23956135360E+03  0.13487641689E+03  0.23015207566E+03  0.35854046899E+03  0.00000000000E+00 0. -1.
         -4    1    5    5    0  502  0.24275899421E+03 -0.23433041113E+03 -0.25596223064E+02  0.33837529089E+03  0.00000000000E+00 0. -1.
         -1    1    6    6    0  503 -0.97465452150E+02  0.13237378427E+03  0.11185555385E+03  0.19883158213E+03  0.00000000000E+00 0.  1.
<mgrwt>
<rscale>  0 0.13840885E+04</rscale>
<asrwt>0</asrwt>
<pdfrwt beam="1">  1        2 0.23051413E+00 0.13840885E+04</pdfrwt>
<pdfrwt beam="2">  1       -2 0.49174896E-01 0.13840885E+04</pdfrwt>
<totfact> 0.48516595E+01</totfact>
</mgrwt>
</event>
<event>
12    1  0.4802930E-008  0.2186599E+04  0.7818608E-02  0.8524027E-01
         -2   -1    0    0    0  501 -0.00000000000E+00  0.00000000000E+00  0.37446573452E+03  0.37446573452E+03  0.00000000000E+00 0. -1.
          2   -1    0    0  501    0  0.00000000000E+00 -0.00000000000E+00 -0.31920238283E+04  0.31920238283E+04  0.00000000000E+00 0.  1.
         23    2    1    2    0    0  0.31418717247E+02  0.14143256066E+03 -0.26178772439E+04  0.26234921638E+04  0.91867101504E+02 0.  0.
        254    2    1    2    0    0 -0.31418717247E+02 -0.14143256066E+03 -0.19968084994E+03  0.94299739909E+03  0.91015457360E+03 0.  0.
         23    2    4    4    0    0  0.29509332577E+03 -0.77378635172E+01 -0.41658151179E+03  0.51929468173E+03  0.94799077360E+02 0.  0.
         23    2    4    4    0    0 -0.32651204302E+03 -0.13369469714E+03  0.21690066184E+03  0.42370271736E+03  0.89407546159E+02 0.  0.
         11    1    3    3    0    0 -0.10610735833E+02  0.41863901667E+02 -0.29956485764E+03  0.30266198623E+03  0.00000000000E+00 0. -1.
        -11    1    3    3    0    0  0.42029453080E+02  0.99568658991E+02 -0.23183123862E+04  0.23208301775E+04  0.00000000000E+00 0.  1.
          2    1    5    5  502    0  0.21876603388E+02 -0.16523959077E+01 -0.10666923777E+01  0.21964836004E+02  0.00000000000E+00 0. -1.
          1    1    6    6  503    0 -0.23471002306E+02 -0.40684048353E+02  0.26794870885E+02  0.54074438003E+02  0.00000000000E+00 0. -1.
         -2    1    5    5    0  502  0.27321672238E+03 -0.60854676095E+01 -0.41551481941E+03  0.49732984573E+03  0.00000000000E+00 0.  1.
         -1    1    6    6    0  503 -0.30304104071E+03 -0.93010648788E+02  0.19010579096E+03  0.36962827935E+03  0.00000000000E+00 0.  1.
<mgrwt>
<rscale>  0 0.21865988E+04</rscale>
<asrwt>0</asrwt>
<pdfrwt beam="1">  1        2 0.49108059E+00 0.21865988E+04</pdfrwt>
<pdfrwt beam="2">  1       -2 0.57610113E-01 0.21865988E+04</pdfrwt>
<totfact> 0.33955724E+00</totfact>
</mgrwt>
</event>
<event>
12    1  0.4802930E-008  0.2657049E+04  0.7818608E-02  0.8349077E-01
         -1   -1    0    0    0  501 -0.00000000000E+00  0.00000000000E+00  0.33954314999E+03  0.33954314999E+03  0.00000000000E+00 0.  1.
          1   -1    0    0  501    0  0.00000000000E+00 -0.00000000000E+00 -0.51980958200E+04  0.51980958200E+04  0.00000000000E+00 0. -1.
         23    2    1    2    0    0  0.78557264261E+03 -0.86661778694E+03 -0.18844880341E+04  0.22197886708E+04  0.89531150878E+02 0.  0.
        254    2    1    2    0    0 -0.78557264261E+03  0.86661778694E+03 -0.29740646359E+04  0.33178502992E+04  0.89158251647E+03 0.  0.
         23    2    4    4    0    0 -0.37614058211E+03  0.22504508166E+02 -0.16344860342E+04  0.16798263016E+04  0.91014379332E+02 0.  0.
         23    2    4    4    0    0 -0.40943206049E+03  0.84411327877E+03 -0.13395786017E+04  0.16380239976E+04  0.92140907421E+02 0.  0.
         13    1    3    3    0    0  0.41118090813E+03 -0.44592366287E+03 -0.89291712635E+03  0.10794529387E+04  0.00000000000E+00 0.  1.
        -13    1    3    3    0    0  0.37439173447E+03 -0.42069412406E+03 -0.99157090777E+03  0.11403357321E+04  0.00000000000E+00 0. -1.
          3    1    6    6  502    0 -0.31572167307E+03  0.60255308831E+03 -0.90648023532E+03  0.11333387914E+04  0.00000000000E+00 0. -1.
          3    1    5    5  503    0 -0.16116855214E+03  0.54474113144E+02 -0.74366891472E+03  0.76288019107E+03  0.00000000000E+00 0. -1.
         -3    1    5    5    0  503 -0.21497202998E+03 -0.31969604978E+02 -0.89081711943E+03  0.91694611051E+03  0.00000000000E+00 0.  1.
         -3    1    6    6    0  502 -0.93710387423E+02  0.24156019047E+03 -0.43309836642E+03  0.50468520617E+03  0.00000000000E+00 0.  1.
<mgrwt>
<rscale>  0 0.26570494E+04</rscale>
<asrwt>0</asrwt>
<pdfrwt beam="1">  1        1 0.79970699E+00 0.26570494E+04</pdfrwt>
<pdfrwt beam="2">  1       -1 0.52237412E-01 0.26570494E+04</pdfrwt>
<totfact> 0.15159212E-02</totfact>
</mgrwt>
</event>
<event>
12    1  0.4802930E-008  0.2378291E+04  0.7818608E-02  0.8447676E-01
         -2   -1    0    0    0  501 -0.00000000000E+00  0.00000000000E+00  0.63078413103E+03  0.63078413103E+03  0.00000000000E+00 0.  1.
          2   -1    0    0  501    0  0.00000000000E+00 -0.00000000000E+00 -0.22417609812E+04  0.22417609812E+04  0.00000000000E+00 0. -1.
         23    2    1    2    0    0  0.40974919811E+03  0.47499253231E+03  0.29206519052E+03  0.69666058648E+03  0.80756338074E+02 0.  0.
        254    2    1    2    0    0 -0.40974919811E+03 -0.47499253231E+03 -0.19030420407E+04  0.21758845257E+04  0.84816988253E+03 0.  0.
         23    2    4    4    0    0 -0.14592607500E+02 -0.14802608781E+03 -0.15126720264E+04  0.15231299753E+04  0.98099925356E+02 0.  0.
         23    2    4    4    0    0 -0.39515659061E+03 -0.32696644450E+03 -0.39037001426E+03  0.65275455041E+03  0.10316960848E+03 0.  0.
         13    1    3    3    0    0 -0.68892439948E+00 -0.22752850810E+01  0.34020212812E+01  0.41503358691E+01  0.00000000000E+00 0. -1.
        -13    1    3    3    0    0  0.41043812251E+03  0.47726781739E+03  0.28866316924E+03  0.69251025061E+03  0.00000000000E+00 0.  1.
          4    1    5    5  502    0  0.23214036090E+02 -0.59962600958E+02 -0.30734444694E+03  0.31399843001E+03  0.00000000000E+00 0. -1.
          1    1    6    6  503    0 -0.95684485709E+02 -0.30334169543E+02 -0.57713476940E+02  0.11578656255E+03  0.00000000000E+00 0. -1.
         -4    1    5    5    0  502 -0.37806643590E+02 -0.88063486848E+02 -0.12053275795E+04  0.12091315453E+04  0.00000000000E+00 0.  1.
         -1    1    6    6    0  503 -0.29947210490E+03 -0.29663227496E+03 -0.33265653732E+03  0.53696798786E+03  0.00000000000E+00 0.  1.
<mgrwt>
<rscale>  0 0.23782912E+04</rscale>
<asrwt>0</asrwt>
<pdfrwt beam="1">  1        2 0.34488630E+00 0.23782912E+04</pdfrwt>
<pdfrwt beam="2">  1       -2 0.97043713E-01 0.23782912E+04</pdfrwt>
<totfact> 0.39061459E+00</totfact>
</mgrwt>
</event>
<event>
12    1  0.4802930E-008  0.1559724E+04  0.7818608E-02  0.8845680E-01
         -2   -1    0    0    0  501 -0.00000000000E+00  0.00000000000E+00  0.15148630245E+04  0.15148630245E+04  0.00000000000E+00 0.  1.
          2   -1    0    0  501    0  0.00000000000E+00 -0.00000000000E+00 -0.40147849274E+03  0.40147849274E+03  0.00000000000E+00 0. -1.
         23    2    1    2    0    0  0.13245151701E+03  0.99400863759E+02 -0.22072585866E+03  0.28934332685E+03  0.87038612350E+02 0.  0.
        254    2    1    2    0    0 -0.13245151701E+03 -0.99400863759E+02  0.13341103904E+04  0.16269981904E+04  0.91643256251E+03 0.  0.
         23    2    4    4    0    0 -0.49632766955E+03 -0.16050678750E+03  0.59541144067E+03  0.79632793671E+03  0.86716865176E+02 0.  0.
         23    2    4    4    0    0  0.36387615254E+03  0.61105923741E+02  0.73869894974E+03  0.83067025368E+03  0.90538078705E+02 0.  0.
         11    1    3    3    0    0  0.17579955763E+02 -0.11591299391E+02 -0.56277474909E+02  0.60087995875E+02  0.00000000000E+00 0.  1.
        -11    1    3    3    0    0  0.11487156125E+03  0.11099216315E+03 -0.16444838375E+03  0.22925533098E+03  0.00000000000E+00 0. -1.
          1    1    6    6  502    0  0.90788682169E+01  0.17089261961E+02  0.19295864828E+02  0.27327625618E+02  0.00000000000E+00 0. -1.
          1    1    5    5  503    0 -0.20983428622E+03 -0.97178912933E+02  0.21359851684E+03  0.31479913467E+03  0.00000000000E+00 0. -1.
         -1    1    5    5    0  503 -0.28649338333E+03 -0.63327874567E+02  0.38181292383E+03  0.48152880204E+03  0.00000000000E+00 0.  1.
         -1    1    6    6    0  502  0.35479728432E+03  0.44016661780E+02  0.71940308491E+03  0.80334262806E+03  0.00000000000E+00 0.  1.
<mgrwt>
<rscale>  0 0.15597242E+04</rscale>
<asrwt>0</asrwt>
<pdfrwt beam="1">  1        2 0.61765922E-01 0.15597242E+04</pdfrwt>
<pdfrwt beam="2">  1       -2 0.23305585E+00 0.15597242E+04</pdfrwt>
<totfact> 0.62303697E+00</totfact>
</mgrwt>
</event>
<event>
12    1  0.4802930E-008  0.1812369E+04  0.7818608E-02  0.8699749E-01
         -2   -1    0    0    0  501 -0.00000000000E+00  0.00000000000E+00  0.77912780266E+03  0.77912780266E+03  0.00000000000E+00 0.  1.
          2   -1    0    0  501    0  0.00000000000E+00 -0.00000000000E+00 -0.10539610195E+04  0.10539610195E+04  0.00000000000E+00 0. -1.
         23    2    1    2    0    0  0.71923007682E+03 -0.13775164206E+03 -0.20366968816E+03  0.76551192614E+03  0.90883160669E+02 0.  0.
        254    2    1    2    0    0 -0.71923007682E+03  0.13775164206E+03 -0.71163528712E+02  0.10675768960E+04  0.77355592096E+03 0.  0.
         23    2    4    4    0    0 -0.75038149206E+03  0.29966481512E+03 -0.20178718138E+03  0.83807453489E+03  0.93698849593E+02 0.  0.
         23    2    4    4    0    0  0.31151415242E+02 -0.16191317306E+03  0.13062365267E+03  0.22950236115E+03  0.91774227626E+02 0.  0.
         11    1    3    3    0    0  0.36199894906E+03 -0.71577565191E+02 -0.14969906448E+03  0.39821652009E+03  0.00000000000E+00 0. -1.
        -11    1    3    3    0    0  0.35723112776E+03 -0.66174076872E+02 -0.53970623673E+02  0.36729540605E+03  0.00000000000E+00 0.  1.
          4    1    5    5  502    0 -0.41808578676E+03  0.13973694571E+03 -0.15019743707E+03  0.46570528147E+03  0.00000000000E+00 0.  1.
          1    1    6    6  503    0  0.21284819287E+02 -0.14836059651E+03  0.67837822062E+02  0.16451711227E+03  0.00000000000E+00 0. -1.
         -4    1    5    5    0  502 -0.33229570530E+03  0.15992786941E+03 -0.51589744314E+02  0.37236925342E+03  0.00000000000E+00 0. -1.
         -1    1    6    6    0  503  0.98665959546E+01 -0.13552576550E+02  0.62785830607E+02  0.64985248879E+02  0.00000000000E+00 0.  1.
<mgrwt>
<rscale>  0 0.18123690E+04</rscale>
<asrwt>0</asrwt>
<pdfrwt beam="1">  1        2 0.16214785E+00 0.18123690E+04</pdfrwt>
<pdfrwt beam="2">  1       -2 0.11986582E+00 0.18123690E+04</pdfrwt>
<totfact> 0.11689632E+01</totfact>
</mgrwt>
</event>
<event>
12    1  0.4802930E-008  0.1203371E+04  0.7818608E-02  0.9109911E-01
         -2   -1    0    0    0  501 -0.00000000000E+00  0.00000000000E+00  0.20544055557E+03  0.20544055557E+03  0.00000000000E+00 0.  1.
          2   -1    0    0  501    0  0.00000000000E+00 -0.00000000000E+00 -0.17621917438E+04  0.17621917438E+04  0.00000000000E+00 0. -1.
         23    2    1    2    0    0 -0.41261502313E+02 -0.39887147559E+02 -0.73977728084E+03  0.74753382713E+03  0.90790425385E+02 0.  0.
        254    2    1    2    0    0  0.41261502313E+02  0.39887147559E+02 -0.81697390735E+03  0.12200984722E+04  0.90437847191E+03 0.  0.
         23    2    4    4    0    0  0.25292630267E+01 -0.26142866907E+03 -0.85659706062E+03  0.90027415284E+03  0.91562436747E+02 0.  0.
         23    2    4    4    0    0  0.38732239286E+02  0.30131581663E+03  0.39623153267E+02  0.31982431936E+03  0.91794298695E+02 0.  0.
         13    1    3    3    0    0 -0.64422976819E+02 -0.50356585497E+02 -0.54313623625E+03  0.54925684044E+03  0.00000000000E+00 0. -1.
        -13    1    3    3    0    0  0.23161474506E+02  0.10469437937E+02 -0.19664104459E+03  0.19827698669E+03  0.00000000000E+00 0.  1.
          2    1    5    5  502    0  0.20287396807E+01 -0.19660641717E+03 -0.48974753111E+03  0.52774126548E+03  0.00000000000E+00 0. -1.
          3    1    6    6  503    0  0.98044783813E+01  0.18614256955E+03 -0.19046624195E+02  0.18737117678E+03  0.00000000000E+00 0. -1.
         -2    1    5    5    0  502  0.50052334598E+00 -0.64822251895E+02 -0.36684952951E+03  0.37253288736E+03  0.00000000000E+00 0.  1.
         -3    1    6    6    0  503  0.28927760905E+02  0.11517324708E+03  0.58669777462E+02  0.13245314259E+03  0.00000000000E+00 0.  1.
<mgrwt>
<rscale>  0 0.12033713E+04</rscale>
<asrwt>0</asrwt>
<pdfrwt beam="1">  1        2 0.27110642E+00 0.12033713E+04</pdfrwt>
<pdfrwt beam="2">  1       -2 0.31606240E-01 0.12033713E+04</pdfrwt>
<totfact> 0.83081788E+01</totfact>
</mgrwt>
</event>
<event>
12    1  0.4802930E-008  0.1371429E+04  0.7818608E-02  0.8974763E-01
          2   -1    0    0  501    0  0.00000000000E+00  0.00000000000E+00  0.18427230048E+04  0.18427230048E+04  0.00000000000E+00 0. -1.
         -2   -1    0    0    0  501 -0.00000000000E+00 -0.00000000000E+00 -0.25516833112E+03  0.25516833112E+03  0.00000000000E+00 0.  1.
         23    2    1    2    0    0 -0.11621291716E+03  0.26702212949E+03  0.60851495440E+02  0.30332636320E+03  0.59141511316E+02 0.  0.
        254    2    1    2    0    0  0.11621291716E+03 -0.26702212949E+03  0.15267031783E+04  0.17945649728E+04  0.89712573652E+03 0.  0.
         23    2    4    4    0    0  0.53392280609E+02  0.32021939037E+03  0.67091473800E+03  0.75087400719E+03  0.91071375380E+02 0.  0.
         23    2    4    4    0    0  0.62820636554E+02 -0.58724151986E+03  0.85578844028E+03  0.10436909656E+04  0.90099623024E+02 0.  0.
         13    1    3    3    0    0 -0.71888701764E+02  0.22071534724E+03  0.37681340260E+02  0.23516618242E+03  0.00000000000E+00 0.  1.
        -13    1    3    3    0    0 -0.44324215400E+02  0.46306782252E+02  0.23170155180E+02  0.68160180783E+02  0.00000000000E+00 0. -1.
          2    1    5    5  502    0 -0.22412563550E+02  0.38293178187E+02  0.10799858418E+03  0.11675780353E+03  0.00000000000E+00 0. -1.
          1    1    6    6  503    0 -0.13535283679E+02 -0.50274509139E+02  0.48679142651E+02  0.71276848294E+02  0.00000000000E+00 0. -1.
         -2    1    5    5    0  502  0.75804844159E+02  0.28192621218E+03  0.56291615382E+03  0.63411620366E+03  0.00000000000E+00 0.  1.
         -1    1    6    6    0  503  0.76355920233E+02 -0.53696701072E+03  0.80710929763E+03  0.97241411727E+03  0.00000000000E+00 0.  1.
<mgrwt>
<rscale>  0 0.13714293E+04</rscale>
<asrwt>0</asrwt>
<pdfrwt beam="1">  1        2 0.28349584E+00 0.13714293E+04</pdfrwt>
<pdfrwt beam="2">  1       -2 0.39256667E-01 0.13714293E+04</pdfrwt>
<totfact> 0.48897210E+01</totfact>
</mgrwt>
</event>
<event>
12    1  0.4802930E-008  0.3255600E+04  0.7818608E-02  0.8174286E-01
         -1   -1    0    0    0  501 -0.00000000000E+00  0.00000000000E+00  0.12170957561E+04  0.12170957561E+04  0.00000000000E+00 0. -1.
          1   -1    0    0  501    0  0.00000000000E+00 -0.00000000000E+00 -0.21770951508E+04  0.21770951508E+04  0.00000000000E+00 0.  1.
         23    2    1    2    0    0 -0.15646633294E+03  0.41211780113E+03 -0.19520402108E+04  0.20031939925E+04  0.89456087726E+02 0.  0.
        254    2    1    2    0    0  0.15646633294E+03 -0.41211780113E+03  0.99204081611E+03  0.13909969144E+04  0.86971526361E+03 0.  0.
         23    2    4    4    0    0  0.25889771489E+03  0.18832988362E+03  0.19954534281E+03  0.38735830549E+03  0.87931457142E+02 0.  0.
         23    2    4    4    0    0 -0.10243138195E+03 -0.60044768475E+03  0.79249547329E+03  0.10036386089E+04  0.90618828181E+02 0.  0.
         11    1    3    3    0    0 -0.13249197566E+03  0.39639113394E+03 -0.17550906433E+04  0.18041682906E+04  0.00000000000E+00 0.  1.
        -11    1    3    3    0    0 -0.23974357278E+02  0.15726667187E+02 -0.19694956747E+03  0.19902570184E+03  0.00000000000E+00 0. -1.
          2    1    5    5  502    0  0.21617603056E+03  0.19027838464E+03  0.16186626380E+03  0.33036135852E+03  0.00000000000E+00 0.  1.
          2    1    6    6  503    0  0.15710413974E+02 -0.52609030614E+02  0.82640446265E+02  0.99216785718E+02  0.00000000000E+00 0. -1.
         -2    1    5    5    0  502  0.42721684337E+02 -0.19485010202E+01  0.37679079010E+02  0.56996946970E+02  0.00000000000E+00 0. -1.
         -2    1    6    6    0  503 -0.11814179593E+03 -0.54783865413E+03  0.70985502703E+03  0.90442182321E+03  0.00000000000E+00 0.  1.
<mgrwt>
<rscale>  0 0.32556003E+04</rscale>
<asrwt>0</asrwt>
<pdfrwt beam="1">  1        1 0.33493771E+00 0.32556003E+04</pdfrwt>
<pdfrwt beam="2">  1       -1 0.18724550E+00 0.32556003E+04</pdfrwt>
<totfact> 0.34746805E-01</totfact>
</mgrwt>
</event>
<event>
12    1  0.4802930E-008  0.1752435E+04  0.7818608E-02  0.8732011E-01
         -2   -1    0    0    0  501 -0.00000000000E+00  0.00000000000E+00  0.43905635948E+03  0.43905635948E+03  0.00000000000E+00 0.  1.
          2   -1    0    0  501    0  0.00000000000E+00 -0.00000000000E+00 -0.17486528508E+04  0.17486528508E+04  0.00000000000E+00 0. -1.
         23    2    1    2    0    0 -0.26805534257E+03  0.57374739625E+03 -0.59950699577E+03  0.87710713895E+03  0.94172999498E+02 0.  0.
        254    2    1    2    0    0  0.26805534257E+03 -0.57374739625E+03 -0.71008949551E+03  0.13106020713E+04  0.90133842491E+03 0.  0.
         23    2    4    4    0    0 -0.29648441814E+03 -0.41977169075E+02 -0.27525367722E+03  0.41682113999E+03  0.91160205107E+02 0.  0.
         23    2    4    4    0    0  0.56453976072E+03 -0.53177022718E+03 -0.43483581829E+03  0.89378093129E+03  0.90980483227E+02 0.  0.
         13    1    3    3    0    0 -0.21166003627E+03  0.50318214680E+03 -0.47721283203E+03  0.72506850081E+03  0.00000000000E+00 0.  1.
        -13    1    3    3    0    0 -0.56395306302E+02  0.70565249454E+02 -0.12229416374E+03  0.15203863814E+03  0.00000000000E+00 0. -1.
          1    1    6    6  502    0  0.33285345019E+03 -0.37105548401E+03 -0.29191539912E+03  0.57765750386E+03  0.00000000000E+00 0. -1.
          1    1    5    5  503    0 -0.11478455143E+03  0.23096001522E+02 -0.13213105186E+03  0.17654329044E+03  0.00000000000E+00 0. -1.
         -1    1    5    5    0  503 -0.18169986671E+03 -0.65073170598E+02 -0.14312262536E+03  0.24027784955E+03  0.00000000000E+00 0.  1.
         -1    1    6    6    0  502  0.23168631053E+03 -0.16071474316E+03 -0.14292041917E+03  0.31612342743E+03  0.00000000000E+00 0.  1.
<mgrwt>
<rscale>  0 0.17524351E+04</rscale>
<asrwt>0</asrwt>
<pdfrwt beam="1">  1        2 0.26902351E+00 0.17524351E+04</pdfrwt>
<pdfrwt beam="2">  1       -2 0.67547133E-01 0.17524351E+04</pdfrwt>
<totfact> 0.17541709E+01</totfact>
</mgrwt>
</event>
<event>
12    1  0.4802930E-008  0.1390772E+04  0.7818608E-02  0.8960526E-01
          2   -1    0    0  501    0  0.00000000000E+00  0.00000000000E+00  0.10247585124E+04  0.10247585124E+04  0.00000000000E+00 0. -1.
         -2   -1    0    0    0  501 -0.00000000000E+00 -0.00000000000E+00 -0.47187842123E+03  0.47187842123E+03  0.00000000000E+00 0.  1.
         23    2    1    2    0    0  0.15471743201E+03  0.22900327026E+03  0.47403972288E+03  0.55627516612E+03  0.91369688743E+02 0.  0.
        254    2    1    2    0    0 -0.15471743201E+03 -0.22900327026E+03  0.78840368289E+02  0.94036176750E+03  0.89536834239E+03 0.  0.
         23    2    4    4    0    0  0.84853854107E+02  0.28797644940E+03  0.16941822727E+03  0.35681949903E+03  0.92124954221E+02 0.  0.
         23    2    4    4    0    0 -0.23957128611E+03 -0.51697971966E+03 -0.90577858985E+02  0.58354226847E+03  0.87491707485E+02 0.  0.
         13    1    3    3    0    0  0.13072896645E+03  0.23257575470E+03  0.43230092084E+03  0.50800160482E+03  0.00000000000E+00 0. -1.
        -13    1    3    3    0    0  0.23988465560E+02 -0.35724844398E+01  0.41738802044E+02  0.48273561305E+02  0.00000000000E+00 0.  1.
          4    1    6    6  502    0 -0.41811989798E+02 -0.60549000407E+02 -0.39448908950E+02  0.83490360872E+02  0.00000000000E+00 0.  1.
          4    1    5    5  503    0  0.49596223603E+01  0.22298420763E+02 -0.11536024529E+02  0.25590960991E+02  0.00000000000E+00 0.  1.
         -4    1    5    5    0  503  0.79894231747E+02  0.26567802864E+03  0.18095425180E+03  0.33122853804E+03  0.00000000000E+00 0. -1.
         -4    1    6    6    0  502 -0.19775929632E+03 -0.45643071926E+03 -0.51128950035E+02  0.50005190760E+03  0.00000000000E+00 0. -1.
<mgrwt>
<rscale>  0 0.13907716E+04</rscale>
<asrwt>0</asrwt>
<pdfrwt beam="1">  1        2 0.15765516E+00 0.13907716E+04</pdfrwt>
<pdfrwt beam="2">  1       -2 0.72596680E-01 0.13907716E+04</pdfrwt>
<totfact> 0.40600059E+01</totfact>
</mgrwt>
</event>
<event>
12    1  0.4802930E-008  0.1736038E+04  0.7818608E-02  0.8741074E-01
         -2   -1    0    0    0  501 -0.00000000000E+00  0.00000000000E+00  0.98720885026E+03  0.98720885026E+03  0.00000000000E+00 0.  1.
          2   -1    0    0  501    0  0.00000000000E+00 -0.00000000000E+00 -0.76321906742E+03  0.76321906742E+03  0.00000000000E+00 0. -1.
         23    2    1    2    0    0  0.60615239466E+03  0.17656119158E+03  0.69335569116E+02  0.64167171935E+03  0.91326854402E+02 0.  0.
        254    2    1    2    0    0 -0.60615239466E+03 -0.17656119158E+03  0.15465421372E+03  0.11087561983E+04  0.89823593871E+03 0.  0.
         23    2    4    4    0    0  0.22745391824E+03 -0.37203714945E+02  0.42527451203E+02  0.25133089472E+03  0.90770222036E+02 0.  0.
         23    2    4    4    0    0 -0.83360631290E+03 -0.13935747664E+03  0.11212676252E+03  0.85742530361E+03  0.91026090756E+02 0.  0.
         13    1    3    3    0    0  0.42909679869E+03  0.16488823616E+03  0.64281549074E+02  0.46415978996E+03  0.00000000000E+00 0. -1.
        -13    1    3    3    0    0  0.17705559598E+03  0.11672955425E+02  0.50540200421E+01  0.17751192939E+03  0.00000000000E+00 0.  1.
          2    1    5    5  502    0  0.80578459740E+02  0.24591504772E+02 -0.68091954469E+01  0.84522159364E+02  0.00000000000E+00 0.  1.
          3    1    6    6  503    0 -0.54716777637E+03 -0.47636184374E+02  0.77293570482E+02  0.55464950879E+03  0.00000000000E+00 0. -1.
         -2    1    5    5    0  502  0.14687545850E+03 -0.61795219717E+02  0.49336646650E+02  0.16680873536E+03  0.00000000000E+00 0. -1.
         -3    1    6    6    0  503 -0.28643853653E+03 -0.91721292265E+02  0.34833192036E+02  0.30277579482E+03  0.00000000000E+00 0.  1.
<mgrwt>
<rscale>  0 0.17360376E+04</rscale>
<asrwt>0</asrwt>
<pdfrwt beam="1">  1        2 0.11741832E+00 0.17360376E+04</pdfrwt>
<pdfrwt beam="2">  1       -2 0.15187828E+00 0.17360376E+04</pdfrwt>
<totfact> 0.10077103E+01</totfact>
</mgrwt>
</event>
<event>
12    1  0.4802930E-008  0.2882727E+04  0.7818608E-02  0.8278035E-01
          1   -1    0    0  501    0  0.00000000000E+00  0.00000000000E+00  0.33725311235E+04  0.33725311235E+04  0.00000000000E+00 0. -1.
         -1   -1    0    0    0  501 -0.00000000000E+00 -0.00000000000E+00 -0.61601451949E+03  0.61601451949E+03  0.00000000000E+00 0.  1.
         23    2    1    2    0    0 -0.38017693116E+03  0.88194656114E+03  0.24492678329E+04  0.26324356675E+04  0.91871596508E+02 0.  0.
        254    2    1    2    0    0  0.38017693116E+03 -0.88194656114E+03  0.30724877107E+03  0.13561099755E+04  0.90679006538E+03 0.  0.
         23    2    4    4    0    0 -0.24123748328E+02  0.14820432694E+03 -0.60145311907E+02  0.18623632452E+03  0.92304020880E+02 0.  0.
         23    2    4    4    0    0  0.40430067948E+03 -0.10301508881E+04  0.36739408298E+03  0.11698736510E+04  0.94636438143E+02 0.  0.
         13    1    3    3    0    0 -0.57070574828E+02  0.13326329811E+03  0.28733996416E+03  0.32183910909E+03  0.00000000000E+00 0.  1.
        -13    1    3    3    0    0 -0.32310635633E+03  0.74868326303E+03  0.21619278688E+04  0.23105965584E+04  0.00000000000E+00 0. -1.
          3    1    5    5  502    0  0.27526272171E+02  0.39941582938E+02  0.66158106959E+01  0.48957069545E+02  0.00000000000E+00 0. -1.
          3    1    6    6  503    0  0.25580550723E+03 -0.56580660973E+03  0.24250936681E+03  0.66662160941E+03  0.00000000000E+00 0. -1.
         -3    1    5    5    0  502 -0.51650020500E+02  0.10826274400E+03 -0.66761122603E+02  0.13727925498E+03  0.00000000000E+00 0.  1.
         -3    1    6    6    0  503  0.14849517225E+03 -0.46434427835E+03  0.12488471617E+03  0.50325204157E+03  0.00000000000E+00 0.  1.
<mgrwt>
<rscale>  0 0.28827266E+04</rscale>
<asrwt>0</asrwt>
<pdfrwt beam="1">  1        1 0.51885093E+00 0.28827266E+04</pdfrwt>
<pdfrwt beam="2">  1       -1 0.94771467E-01 0.28827266E+04</pdfrwt>
<totfact> 0.29058880E-01</totfact>
</mgrwt>
</event>
<event>
12    1  0.4802930E-008  0.2438679E+04  0.7818608E-02  0.8425163E-01
         -1   -1    0    0    0  501 -0.00000000000E+00  0.00000000000E+00  0.96661287028E+03  0.96661287028E+03  0.00000000000E+00 0.  1.
          1   -1    0    0  501    0  0.00000000000E+00 -0.00000000000E+00 -0.15381436102E+04  0.15381436102E+04  0.00000000000E+00 0. -1.
         23    2    1    2    0    0 -0.11884712070E+03  0.69100974165E+03 -0.10522129972E+04  0.12671911581E+04  0.83678783139E+02 0.  0.
        254    2    1    2    0    0  0.11884712070E+03 -0.69100974165E+03  0.48068225729E+03  0.12375653223E+04  0.89938500838E+03 0.  0.
         23    2    4    4    0    0  0.43065281199E+03 -0.64986728697E+03  0.45931736152E+03  0.90952145881E+03  0.92019075714E+02 0.  0.
         23    2    4    4    0    0 -0.31180569129E+03 -0.41142454676E+02  0.21364895771E+02  0.32804386347E+03  0.90779000284E+02 0.  0.
         11    1    3    3    0    0 -0.14294300709E+02  0.24515433544E+03 -0.42036584405E+03  0.48683921172E+03  0.00000000000E+00 0. -1.
        -11    1    3    3    0    0 -0.10455281999E+03  0.44585540621E+03 -0.63184715310E+03  0.78035194643E+03  0.00000000000E+00 0.  1.
          1    1    6    6  502    0 -0.18768615283E+03 -0.52878018181E+02 -0.21576259786E+02  0.19618285286E+03  0.00000000000E+00 0. -1.
          1    1    5    5  503    0  0.29549415486E+03 -0.42708916043E+03  0.35373369512E+03  0.62837049070E+03  0.00000000000E+00 0. -1.
         -1    1    5    5    0  503  0.13515865713E+03 -0.22277812654E+03  0.10558366640E+03  0.28115096811E+03  0.00000000000E+00 0.  1.
         -1    1    6    6    0  502 -0.12411953846E+03  0.11735563505E+02  0.42941155557E+02  0.13186101061E+03  0.00000000000E+00 0.  1.
<mgrwt>
<rscale>  0 0.24386795E+04</rscale>
<asrwt>0</asrwt>
<pdfrwt beam="1">  1        1 0.23663748E+00 0.24386795E+04</pdfrwt>
<pdfrwt beam="2">  1       -1 0.14870967E+00 0.24386795E+04</pdfrwt>
<totfact> 0.19634173E+00</totfact>
</mgrwt>
</event>
<event>
12    1  0.4802930E-008  0.2242233E+04  0.7818608E-02  0.8501053E-01
         -1   -1    0    0    0  501 -0.00000000000E+00  0.00000000000E+00  0.70806511093E+03  0.70806511093E+03  0.00000000000E+00 0.  1.
          1   -1    0    0  501    0  0.00000000000E+00 -0.00000000000E+00 -0.17751219783E+04  0.17751219783E+04  0.00000000000E+00 0. -1.
         23    2    1    2    0    0 -0.73092018606E+03 -0.22965891479E+03  0.14420512281E+03  0.78497138233E+03  0.91637427341E+02 0.  0.
        254    2    1    2    0    0  0.73092018606E+03  0.22965891479E+03 -0.12112619901E+04  0.16982157069E+04  0.91092998785E+03 0.  0.
         23    2    4    4    0    0 -0.68282849258E+02  0.35636271560E+03 -0.33533408412E+03  0.50224554260E+03  0.90248016694E+02 0.  0.
         23    2    4    4    0    0  0.79920303532E+03 -0.12670380081E+03 -0.87592790602E+03  0.11959701643E+04  0.91189870439E+02 0.  0.
         13    1    3    3    0    0 -0.63521560769E+03 -0.17926125793E+03  0.14925292302E+03  0.67669040327E+03  0.00000000000E+00 0.  1.
        -13    1    3    3    0    0 -0.95704578370E+02 -0.50397656862E+02 -0.50478002065E+01  0.10828097906E+03  0.00000000000E+00 0. -1.
          4    1    5    5  502    0 -0.26368103884E+02  0.29191406443E+03 -0.29319380008E+03  0.41457412162E+03  0.00000000000E+00 0. -1.
          3    1    6    6  503    0  0.75305669436E+03 -0.13303027035E+03 -0.84700072808E+03  0.11411405133E+04  0.00000000000E+00 0. -1.
         -4    1    5    5    0  502 -0.41914745374E+02  0.64448651176E+02 -0.42140284045E+02  0.87671420985E+02  0.00000000000E+00 0.  1.
         -3    1    6    6    0  503  0.46146340956E+02  0.63264695378E+01 -0.28927177944E+02  0.54829650958E+02  0.00000000000E+00 0.  1.
<mgrwt>
<rscale>  0 0.22422328E+04</rscale>
<asrwt>0</asrwt>
<pdfrwt beam="1">  1        1 0.27309569E+00 0.22422328E+04</pdfrwt>
<pdfrwt beam="2">  1       -1 0.10893310E+00 0.22422328E+04</pdfrwt>
<totfact> 0.30047227E+00</totfact>
</mgrwt>
</event>
<event>
12    1  0.4802930E-008  0.1378492E+04  0.7818608E-02  0.8969536E-01
         -2   -1    0    0    0  501 -0.00000000000E+00  0.00000000000E+00  0.15776860564E+03  0.15776860564E+03  0.00000000000E+00 0.  1.
          2   -1    0    0  501    0  0.00000000000E+00 -0.00000000000E+00 -0.30111198681E+04  0.30111198681E+04  0.00000000000E+00 0. -1.
         23    2    1    2    0    0  0.37543468971E+03 -0.43551527640E+02 -0.10153010057E+04  0.10872743354E+04  0.92094551910E+02 0.  0.
        254    2    1    2    0    0 -0.37543468971E+03  0.43551527640E+02 -0.18380502567E+04  0.20816141383E+04  0.90102204893E+03 0.  0.
         23    2    4    4    0    0  0.28843724898E+03  0.16989514831E+02 -0.65899506972E+03  0.72515156322E+03  0.89919950518E+02 0.  0.
         23    2    4    4    0    0 -0.66387193869E+03  0.26562012809E+02 -0.11790551870E+04  0.13564625751E+04  0.91586527696E+02 0.  0.
         13    1    3    3    0    0  0.13490831261E+03 -0.57858480314E+02 -0.42771743388E+03  0.45220577152E+03  0.00000000000E+00 0. -1.
        -13    1    3    3    0    0  0.24052637711E+03  0.14306952674E+02 -0.58758357184E+03  0.63506856391E+03  0.00000000000E+00 0.  1.
          4    1    5    5  502    0  0.19170379617E+03  0.42625241512E+02 -0.36330712313E+03  0.41298828361E+03  0.00000000000E+00 0.  1.
          1    1    6    6  503    0 -0.47118555910E+03  0.34131171123E+02 -0.75499593169E+03  0.89061755249E+03  0.00000000000E+00 0. -1.
         -4    1    5    5    0  502  0.96733452807E+02 -0.25635726682E+02 -0.29568794659E+03  0.31216327960E+03  0.00000000000E+00 0. -1.
         -1    1    6    6    0  503 -0.19268637959E+03 -0.75691583131E+01 -0.42405925533E+03  0.46584502259E+03  0.00000000000E+00 0.  1.
<mgrwt>
<rscale>  0 0.13784922E+04</rscale>
<asrwt>0</asrwt>
<pdfrwt beam="1">  1        2 0.46324923E+00 0.13784922E+04</pdfrwt>
<pdfrwt beam="2">  1       -2 0.24272092E-01 0.13784922E+04</pdfrwt>
<totfact> 0.25526642E+01</totfact>
</mgrwt>
</event>
<event>
12    1  0.4802930E-008  0.2440003E+04  0.7818608E-02  0.8424677E-01
         -1   -1    0    0    0  501 -0.00000000000E+00  0.00000000000E+00  0.24903383547E+04  0.24903383547E+04  0.00000000000E+00 0.  1.
          1   -1    0    0  501    0  0.00000000000E+00 -0.00000000000E+00 -0.59767109062E+03  0.59767109062E+03  0.00000000000E+00 0. -1.
         23    2    1    2    0    0 -0.52926557306E+03 -0.97048904430E+02 -0.32875271818E+03  0.63684138426E+03  0.89151905839E+02 0.  0.
        254    2    1    2    0    0  0.52926557306E+03  0.97048904430E+02  0.22214199823E+04  0.24511680611E+04  0.88542508960E+03 0.  0.
         23    2    4    4    0    0  0.17344279548E+03 -0.15016242149E+03  0.73169196396E+02  0.25777575502E+03  0.91997024084E+02 0.  0.
         23    2    4    4    0    0  0.35582277757E+03  0.24721132592E+03  0.21482507859E+04  0.21933923061E+04  0.90912488315E+02 0.  0.
         11    1    3    3    0    0 -0.46430487030E+02 -0.89790503956E+01 -0.22217885827E+01  0.47342896155E+02  0.00000000000E+00 0.  1.
        -11    1    3    3    0    0 -0.48283508603E+03 -0.88069854034E+02 -0.32653092960E+03  0.58949848810E+03  0.00000000000E+00 0. -1.
          4    1    5    5  502    0  0.18448614801E+03 -0.13678424483E+03  0.70384807430E+02  0.24020634787E+03  0.00000000000E+00 0. -1.
          1    1    6    6  503    0  0.31147137333E+03  0.23002223221E+03  0.17507738481E+04  0.17930793933E+04  0.00000000000E+00 0. -1.
         -4    1    5    5    0  502 -0.11043352520E+02 -0.13378176661E+02  0.27843889661E+01  0.17569407149E+02  0.00000000000E+00 0.  1.
         -1    1    6    6    0  503  0.44351404243E+02  0.17189093705E+02  0.39747693782E+03  0.40031291273E+03  0.00000000000E+00 0.  1.
<mgrwt>
<rscale>  0 0.24400027E+04</rscale>
<asrwt>0</asrwt>
<pdfrwt beam="1">  1        1 0.91949400E-01 0.24400027E+04</pdfrwt>
<pdfrwt beam="2">  1       -1 0.38312897E+00 0.24400027E+04</pdfrwt>
<totfact> 0.28671190E-01</totfact>
</mgrwt>
</event>
<event>
12    1  0.4802930E-008  0.1576786E+04  0.7818608E-02  0.8834937E-01
          2   -1    0    0  501    0  0.00000000000E+00  0.00000000000E+00  0.10695612091E+04  0.10695612091E+04  0.00000000000E+00 0. -1.
         -2   -1    0    0    0  501 -0.00000000000E+00 -0.00000000000E+00 -0.58113915853E+03  0.58113915853E+03  0.00000000000E+00 0.  1.
         23    2    1    2    0    0  0.19027980701E+03 -0.48432095094E+03  0.22722483835E+03  0.57547297931E+03  0.93620693572E+02 0.  0.
        254    2    1    2    0    0 -0.19027980701E+03  0.48432095094E+03  0.26119721222E+03  0.10752273883E+04  0.90394511141E+03 0.  0.
         23    2    4    4    0    0 -0.38141449833E+03 -0.24348899208E+02 -0.11334202498E+03  0.40902905229E+03  0.91588550395E+02 0.  0.
         23    2    4    4    0    0  0.19113469132E+03  0.50866985015E+03  0.37453923720E+03  0.66619833603E+03  0.90901573399E+02 0.  0.
         11    1    3    3    0    0 -0.14761987570E+01  0.31321984144E+01  0.58565544909E+01  0.68036064100E+01  0.00000000000E+00 0.  1.
        -11    1    3    3    0    0  0.19175600577E+03 -0.48745314936E+03  0.22136828386E+03  0.56866937290E+03  0.00000000000E+00 0. -1.
          2    1    5    5  502    0 -0.31326422892E+03 -0.42311415613E+02 -0.12026183856E+03  0.33821242264E+03  0.00000000000E+00 0. -1.
          3    1    6    6  503    0  0.18207740647E+03  0.48728352114E+03  0.33018909039E+03  0.61613492624E+03  0.00000000000E+00 0. -1.
         -2    1    5    5    0  502 -0.68150269404E+02  0.17962516404E+02  0.69198135728E+01  0.70816629653E+02  0.00000000000E+00 0.  1.
         -3    1    6    6    0  503  0.90572848508E+01  0.21386329012E+02  0.44350146813E+02  0.50063409790E+02  0.00000000000E+00 0.  1.
<mgrwt>
<rscale>  0 0.15767865E+04</rscale>
<asrwt>0</asrwt>
<pdfrwt beam="1">  1        2 0.16454788E+00 0.15767865E+04</pdfrwt>
<pdfrwt beam="2">  1       -2 0.89406024E-01 0.15767865E+04</pdfrwt>
<totfact> 0.23462615E+01</totfact>
</mgrwt>
</event>
<event>
12    1  0.4802930E-008  0.1937175E+04  0.7818608E-02  0.8636570E-01
          1   -1    0    0  501    0  0.00000000000E+00  0.00000000000E+00  0.19881562796E+04  0.19881562796E+04  0.00000000000E+00 0. -1.
         -1   -1    0    0    0  501 -0.00000000000E+00 -0.00000000000E+00 -0.47187508129E+03  0.47187508129E+03  0.00000000000E+00 0.  1.
         23    2    1    2    0    0  0.23505172421E+03  0.13539127110E+03 -0.29789184398E+03  0.41274810719E+03  0.89673518582E+02 0.  0.
        254    2    1    2    0    0 -0.23505172421E+03 -0.13539127110E+03  0.18141730423E+04  0.20472832537E+04  0.90915608348E+03 0.  0.
         23    2    4    4    0    0 -0.19669373373E+03 -0.17172890298E+03  0.51594208460E+02  0.28154541505E+03  0.91796608780E+02 0.  0.
         23    2    4    4    0    0 -0.38357990478E+02  0.36337631877E+02  0.17625788338E+04  0.17657378386E+04  0.91401369822E+02 0.  0.
         13    1    3    3    0    0  0.22908001832E+03  0.10491584229E+03 -0.24516140334E+03  0.35155241778E+03  0.00000000000E+00 0.  1.
        -13    1    3    3    0    0  0.59717058870E+01  0.30475428815E+02 -0.52730440642E+02  0.61195689415E+02  0.00000000000E+00 0. -1.
          2    1    6    6  502    0  0.69999692561E+01  0.27152094385E+02  0.15648062090E+03  0.15897301820E+03  0.00000000000E+00 0.  1.
          2    1    5    5  503    0 -0.10415375232E+03 -0.14580972380E+03  0.19594484011E+02  0.18025654906E+03  0.00000000000E+00 0. -1.
         -2    1    5    5    0  503 -0.92539981410E+02 -0.25919179183E+02  0.31999724449E+02  0.10128886599E+03  0.00000000000E+00 0.  1.
         -2    1    6    6    0  502 -0.45357959735E+02  0.91855374920E+01  0.16060982129E+04  0.16067648204E+04  0.00000000000E+00 0. -1.
<mgrwt>
<rscale>  0 0.19371746E+04</rscale>
<asrwt>0</asrwt>
<pdfrwt beam="1">  1        1 0.30587019E+00 0.19371746E+04</pdfrwt>
<pdfrwt beam="2">  1       -1 0.72596168E-01 0.19371746E+04</pdfrwt>
<totfact> 0.54177512E+00</totfact>
</mgrwt>
</event>
<event>
12    1  0.4802930E-008  0.1415688E+04  0.7818608E-02  0.8942540E-01
         -2   -1    0    0    0  501 -0.00000000000E+00  0.00000000000E+00  0.40830963471E+03  0.40830963471E+03  0.00000000000E+00 0.  1.
          2   -1    0    0  501    0  0.00000000000E+00 -0.00000000000E+00 -0.12271163097E+04  0.12271163097E+04  0.00000000000E+00 0. -1.
         23    2    1    2    0    0  0.16023535118E+03  0.19121938608E+03 -0.61903213712E+03  0.67377145391E+03  0.92341561272E+02 0.  0.
        254    2    1    2    0    0 -0.16023535118E+03 -0.19121938608E+03 -0.19977453783E+03  0.96165449046E+03  0.90698912435E+03 0.  0.
         23    2    4    4    0    0 -0.18212399068E+03  0.54932951221E+02  0.31734321796E+03  0.38122451039E+03  0.91862028208E+02 0.  0.
         23    2    4    4    0    0  0.21888639502E+02 -0.24615233730E+03 -0.51711775579E+03  0.58042998007E+03  0.91750219162E+02 0.  0.
         11    1    3    3    0    0  0.16662998138E+03  0.16567540768E+03 -0.58713671761E+03  0.63241079732E+03  0.00000000000E+00 0. -1.
        -11    1    3    3    0    0 -0.63946301986E+01  0.25543978395E+02 -0.31895419508E+02  0.41360656586E+02  0.00000000000E+00 0.  1.
          2    1    5    5  502    0 -0.56575676529E+02 -0.94167847187E+01  0.15962273757E+03  0.16961397749E+03  0.00000000000E+00 0. -1.
          1    1    6    6  503    0 -0.24925879586E+02 -0.75679323216E+02 -0.22827872316E+03  0.24178468703E+03  0.00000000000E+00 0. -1.
         -2    1    5    5    0  502 -0.12554831415E+03  0.64349735940E+02  0.15772048039E+03  0.21161053290E+03  0.00000000000E+00 0.  1.
         -1    1    6    6    0  503  0.46814519088E+02 -0.17047301408E+03 -0.28883903263E+03  0.33864529304E+03  0.00000000000E+00 0.  1.
<mgrwt>
<rscale>  0 0.14156884E+04</rscale>
<asrwt>0</asrwt>
<pdfrwt beam="1">  1        2 0.18878712E+00 0.14156884E+04</pdfrwt>
<pdfrwt beam="2">  1       -2 0.62816868E-01 0.14156884E+04</pdfrwt>
<totfact> 0.41677029E+01</totfact>
</mgrwt>
</event>
<event>
12    1  0.4802930E-008  0.1942175E+04  0.7818608E-02  0.8634143E-01
          2   -1    0    0  501    0  0.00000000000E+00  0.00000000000E+00  0.10476146363E+04  0.10476146363E+04  0.00000000000E+00 0. -1.
         -2   -1    0    0    0  501 -0.00000000000E+00 -0.00000000000E+00 -0.90015040395E+03  0.90015040395E+03  0.00000000000E+00 0.  1.
         23    2    1    2    0    0 -0.37628773432E+02 -0.43365093736E+02 -0.69976542039E+03  0.70796827062E+03  0.90834864894E+02 0.  0.
        254    2    1    2    0    0  0.37628773432E+02  0.43365093736E+02  0.84722965279E+03  0.12397967697E+04  0.90332800776E+03 0.  0.
         23    2    4    4    0    0  0.28398744918E+03 -0.14889962482E+03  0.31456869465E+01  0.33524676269E+03  0.97777947330E+02 0.  0.
         23    2    4    4    0    0 -0.24635867574E+03  0.19226471856E+03  0.84408396584E+03  0.90455000699E+03  0.89859082176E+02 0.  0.
         13    1    3    3    0    0 -0.48987364445E+02 -0.21450104479E+02 -0.65211477570E+03  0.65430386637E+03  0.00000000000E+00 0.  1.
        -13    1    3    3    0    0  0.11358591013E+02 -0.21914989257E+02 -0.47650644691E+02  0.53664404249E+02  0.00000000000E+00 0. -1.
          4    1    5    5  502    0  0.24593012318E+03 -0.15192989595E+03 -0.21388943445E+02  0.28986515084E+03  0.00000000000E+00 0. -1.
          3    1    6    6  503    0 -0.14536438932E+03  0.16626438567E+03  0.57893991261E+03  0.61963382254E+03  0.00000000000E+00 0. -1.
         -4    1    5    5    0  502  0.38057325997E+02  0.30302711310E+01  0.24534630392E+02  0.45381611845E+02  0.00000000000E+00 0.  1.
         -3    1    6    6    0  503 -0.10099428642E+03  0.26000332892E+02  0.26514405323E+03  0.28491618445E+03  0.00000000000E+00 0.  1.
<mgrwt>
<rscale>  0 0.19421748E+04</rscale>
<asrwt>0</asrwt>
<pdfrwt beam="1">  1        2 0.16117148E+00 0.19421748E+04</pdfrwt>
<pdfrwt beam="2">  1       -2 0.13848468E+00 0.19421748E+04</pdfrwt>
<totfact> 0.81003898E+00</totfact>
</mgrwt>
</event>
<event>
12    1  0.4802930E-008  0.1245030E+04  0.7818608E-02  0.9074330E-01
          1   -1    0    0  501    0  0.00000000000E+00  0.00000000000E+00  0.94840323699E+03  0.94840323699E+03  0.00000000000E+00 0. -1.
         -1   -1    0    0    0  501 -0.00000000000E+00 -0.00000000000E+00 -0.40860777442E+03  0.40860777442E+03  0.00000000000E+00 0.  1.
         23    2    1    2    0    0  0.15323651407E+03 -0.25512223000E+03  0.60625157043E+02  0.31666120502E+03  0.89610979327E+02 0.  0.
        254    2    1    2    0    0 -0.15323651407E+03  0.25512223000E+03  0.47917030552E+03  0.10403498064E+04  0.87415945712E+03 0.  0.
         23    2    4    4    0    0 -0.17886288262E+03  0.88872596939E+02 -0.22277034545E+03  0.31282231341E+03  0.91328548078E+02 0.  0.
         23    2    4    4    0    0  0.25626368550E+02  0.16624963306E+03  0.70194065097E+03  0.72752749298E+03  0.90994089332E+02 0.  0.
         13    1    3    3    0    0  0.16323482990E+03 -0.21866720811E+03  0.50268747390E+02  0.27746694319E+03  0.00000000000E+00 0.  1.
        -13    1    3    3    0    0 -0.99983158289E+01 -0.36455021886E+02  0.10356409653E+02  0.39194261838E+02  0.00000000000E+00 0. -1.
          1    1    5    5  502    0  0.15634898817E+01 -0.87753517023E+01  0.13128905802E+01  0.90097158548E+01  0.00000000000E+00 0. -1.
          3    1    6    6  503    0  0.39981656878E+02  0.13220424147E+03  0.39665120404E+03  0.42001032370E+03  0.00000000000E+00 0. -1.
         -1    1    5    5    0  502 -0.18042637250E+03  0.97647948641E+02 -0.22408323603E+03  0.30381259756E+03  0.00000000000E+00 0.  1.
         -3    1    6    6    0  503 -0.14355288328E+02  0.34045391590E+02  0.30528944693E+03  0.30751716927E+03  0.00000000000E+00 0.  1.
<mgrwt>
<rscale>  0 0.12450300E+04</rscale>
<asrwt>0</asrwt>
<pdfrwt beam="1">  1        1 0.14590819E+00 0.12450300E+04</pdfrwt>
<pdfrwt beam="2">  1       -1 0.62862735E-01 0.12450300E+04</pdfrwt>
<totfact> 0.42095627E+01</totfact>
</mgrwt>
</event>
<event>
12    1  0.4802930E-008  0.2134928E+04  0.7818608E-02  0.8546011E-01
          1   -1    0    0  501    0  0.00000000000E+00  0.00000000000E+00  0.21282307475E+04  0.21282307475E+04  0.00000000000E+00 0. -1.
         -1   -1    0    0    0  501 -0.00000000000E+00 -0.00000000000E+00 -0.53541168406E+03  0.53541168406E+03  0.00000000000E+00 0.  1.
         23    2    1    2    0    0  0.39071887199E+03 -0.51605593844E+03  0.13874202915E+04  0.15336450339E+04  0.90316422185E+02 0.  0.
        254    2    1    2    0    0 -0.39071887199E+03  0.51605593844E+03  0.20539877192E+03  0.11299973977E+04  0.90317799724E+03 0.  0.
         23    2    4    4    0    0 -0.31637121252E+03  0.64574801841E+03 -0.14506720081E+03  0.73846938759E+03  0.84919351529E+02 0.  0.
         23    2    4    4    0    0 -0.74347659471E+02 -0.12969207997E+03  0.35046597273E+03  0.39152801008E+03  0.90112011179E+02 0.  0.
         11    1    3    3    0    0  0.39724861658E+02 -0.52876503465E+02  0.87061679554E+02  0.10933309334E+03  0.00000000000E+00 0.  1.
        -11    1    3    3    0    0  0.35099401033E+03 -0.46317943497E+03  0.13003586119E+04  0.14243119405E+04  0.00000000000E+00 0. -1.
          2    1    5    5  502    0 -0.26781112646E+03  0.51739334183E+03 -0.85386327672E+02  0.58882042643E+03  0.00000000000E+00 0. -1.
          4    1    6    6  503    0 -0.59323735766E+02 -0.14276760772E+03  0.30808072584E+03  0.34469643032E+03  0.00000000000E+00 0. -1.
         -2    1    5    5    0  502 -0.48560086055E+02  0.12835467658E+03 -0.59680873135E+02  0.14964896116E+03  0.00000000000E+00 0.  1.
         -4    1    6    6    0  503 -0.15023923706E+02  0.13075527743E+02  0.42385246888E+02  0.46831579762E+02  0.00000000000E+00 0.  1.
<mgrwt>
<rscale>  0 0.21349282E+04</rscale>
<asrwt>0</asrwt>
<pdfrwt beam="1">  1        1 0.32742011E+00 0.21349282E+04</pdfrwt>
<pdfrwt beam="2">  1       -1 0.82371030E-01 0.21349282E+04</pdfrwt>
<totfact> 0.32753985E+00</totfact>
</mgrwt>
</event>
<event>
12    1  0.4802930E-008  0.1888798E+04  0.7818608E-02  0.8660452E-01
         -1   -1    0    0    0  501 -0.00000000000E+00  0.00000000000E+00  0.49678678698E+03  0.49678678698E+03  0.00000000000E+00 0.  1.
          1   -1    0    0  501    0  0.00000000000E+00 -0.00000000000E+00 -0.17953168906E+04  0.17953168906E+04  0.00000000000E+00 0. -1.
         23    2    1    2    0    0 -0.46791183832E+03 -0.37975144983E+01  0.16670311573E+03  0.50558198842E+03  0.94166388207E+02 0.  0.
        254    2    1    2    0    0  0.46791183832E+03  0.37975144983E+01 -0.14652332193E+04  0.17865216891E+04  0.90873288108E+03 0.  0.
         23    2    4    4    0    0  0.22644640647E+03 -0.32493016916E+03 -0.19642750482E+03  0.45010629477E+03  0.84583225952E+02 0.  0.
         23    2    4    4    0    0  0.24146543185E+03  0.32872768366E+03 -0.12688057145E+04  0.13364153943E+04  0.98846954082E+02 0.  0.
         11    1    3    3    0    0 -0.17936034725E+03  0.40534539067E+02  0.45116612774E+02  0.18933750757E+03  0.00000000000E+00 0. -1.
        -11    1    3    3    0    0 -0.28855149107E+03 -0.44332053565E+02  0.12158650296E+03  0.31624448086E+03  0.00000000000E+00 0.  1.
          1    1    6    6  502    0  0.11502379118E+03  0.80426921864E+02 -0.46198564371E+03  0.48283506220E+03  0.00000000000E+00 0. -1.
          1    1    5    5  503    0  0.39381351820E+02 -0.13544930959E+02 -0.23010623193E+02  0.47579878158E+02  0.00000000000E+00 0. -1.
         -1    1    5    5    0  503  0.18706505465E+03 -0.31138523820E+03 -0.17341688163E+03  0.40252641661E+03  0.00000000000E+00 0.  1.
         -1    1    6    6    0  502  0.12644164067E+03  0.24830076179E+03 -0.80682007078E+03  0.85358033214E+03  0.00000000000E+00 0.  1.
<mgrwt>
<rscale>  0 0.18887983E+04</rscale>
<asrwt>0</asrwt>
<pdfrwt beam="1">  1        1 0.27620260E+00 0.18887983E+04</pdfrwt>
<pdfrwt beam="2">  1       -1 0.76428736E-01 0.18887983E+04</pdfrwt>
<totfact> 0.66041119E+00</totfact>
</mgrwt>
</event>
<event>
12    1  0.4802930E-008  0.2107289E+04  0.7818608E-02  0.8558039E-01
         -2   -1    0    0    0  501 -0.00000000000E+00  0.00000000000E+00  0.11884204538E+04  0.11884204538E+04  0.00000000000E+00 0.  1.
          2   -1    0    0  501    0  0.00000000000E+00 -0.00000000000E+00 -0.93415279101E+03  0.93415279101E+03  0.00000000000E+00 0. -1.
         23    2    1    2    0    0 -0.42237708226E+03  0.53198223139E+03  0.58382413508E+03  0.90114506148E+03  0.99016700601E+02 0.  0.
        254    2    1    2    0    0  0.42237708226E+03 -0.53198223139E+03 -0.32955647230E+03  0.12214281833E+04  0.96014157521E+03 0.  0.
         23    2    4    4    0    0  0.16539013420E+03  0.22322194447E+03  0.10266685448E+03  0.30965297066E+03  0.90346810931E+02 0.  0.
         23    2    4    4    0    0  0.25698694806E+03 -0.75520417586E+03 -0.43222332678E+03  0.91177521266E+03  0.90229681909E+02 0.  0.
         11    1    3    3    0    0 -0.30389450378E+03  0.32205230582E+03  0.33997364000E+03  0.55825767617E+03  0.00000000000E+00 0.  1.
        -11    1    3    3    0    0 -0.11848257848E+03  0.20992992557E+03  0.24385049508E+03  0.34288738531E+03  0.00000000000E+00 0. -1.
          4    1    5    5  502    0  0.13895541433E+03  0.16700775934E+03  0.11575527321E+03  0.24616962064E+03  0.00000000000E+00 0. -1.
          3    1    6    6  503    0  0.24474384854E+03 -0.75079497061E+03 -0.42310168932E+03  0.89588374178E+03  0.00000000000E+00 0. -1.
         -4    1    5    5    0  502  0.26434719873E+02  0.56214185136E+02 -0.13088418729E+02  0.63483350023E+02  0.00000000000E+00 0.  1.
         -3    1    6    6    0  503  0.12243099511E+02 -0.44092052545E+01 -0.91216374555E+01  0.15891470872E+02  0.00000000000E+00 0.  1.
<mgrwt>
<rscale>  0 0.21072886E+04</rscale>
<asrwt>0</asrwt>
<pdfrwt beam="1">  1        2 0.14371581E+00 0.21072886E+04</pdfrwt>
<pdfrwt beam="2">  1       -2 0.18283392E+00 0.21072886E+04</pdfrwt>
<totfact> 0.44395767E+00</totfact>
</mgrwt>
</event>
<event>
12    1  0.4802930E-008  0.1678662E+04  0.7818608E-02  0.8773628E-01
         -2   -1    0    0    0  501 -0.00000000000E+00  0.00000000000E+00  0.65353790129E+03  0.65353790129E+03  0.00000000000E+00 0.  1.
          2   -1    0    0  501    0  0.00000000000E+00 -0.00000000000E+00 -0.10779434798E+04  0.10779434798E+04  0.00000000000E+00 0. -1.
         23    2    1    2    0    0  0.24409007795E+03  0.90631421627E+02  0.39821614112E+03  0.48443389672E+03  0.91137722742E+02 0.  0.
        254    2    1    2    0    0 -0.24409007795E+03 -0.90631421627E+02 -0.82262171959E+03  0.12470474843E+04  0.90034821812E+03 0.  0.
         23    2    4    4    0    0  0.17729586340E+02  0.61189458487E+01 -0.93046030981E+03  0.93514625093E+03  0.91598814228E+02 0.  0.
         23    2    4    4    0    0 -0.26181966429E+03 -0.96750367476E+02  0.10783859022E+03  0.31190123339E+03  0.87994588673E+02 0.  0.
         11    1    3    3    0    0  0.22088007184E+03  0.62440826066E+02  0.37920786916E+03  0.44326681685E+03  0.00000000000E+00 0.  1.
        -11    1    3    3    0    0  0.23210006113E+02  0.28190595561E+02  0.19008271963E+02  0.41167079868E+02  0.00000000000E+00 0. -1.
          2    1    5    5  502    0 -0.11378712560E+02  0.43430415478E+02 -0.53040942654E+03  0.53230614862E+03  0.00000000000E+00 0. -1.
          1    1    6    6  503    0 -0.21958270112E+03 -0.11347903875E+03  0.88708832652E+02  0.26260866676E+03  0.00000000000E+00 0. -1.
         -2    1    5    5    0  502  0.29108298900E+02 -0.37311469629E+02 -0.40005088326E+03  0.40284010231E+03  0.00000000000E+00 0.  1.
         -1    1    6    6    0  503 -0.42236963169E+02  0.16728671278E+02  0.19129757567E+02  0.49292566630E+02  0.00000000000E+00 0.  1.
<mgrwt>
<rscale>  0 0.16786625E+04</rscale>
<asrwt>0</asrwt>
<pdfrwt beam="1">  1        2 0.16583746E+00 0.16786625E+04</pdfrwt>
<pdfrwt beam="2">  1       -2 0.10054429E+00 0.16786625E+04</pdfrwt>
<totfact> 0.17477571E+01</totfact>
</mgrwt>
</event>
<event>
12    1  0.4802930E-008  0.2252092E+04  0.7818608E-02  0.8497054E-01
          2   -1    0    0  501    0  0.00000000000E+00  0.00000000000E+00  0.26575768276E+04  0.26575768276E+04  0.00000000000E+00 0. -1.
         -2   -1    0    0    0  501 -0.00000000000E+00 -0.00000000000E+00 -0.47711854391E+03  0.47711854391E+03  0.00000000000E+00 0.  1.
         23    2    1    2    0    0  0.50971082020E+02  0.27231838516E+03  0.21887666506E+04  0.22084449412E+04  0.98864823579E+02 0.  0.
        254    2    1    2    0    0 -0.50971082020E+02 -0.27231838516E+03 -0.83083668660E+01  0.92625043037E+03  0.88380737534E+03 0.  0.
         23    2    4    4    0    0  0.20155296198E+03 -0.37904614960E+03  0.27634909558E+03  0.52076733642E+03  0.10261684091E+03 0.  0.
         23    2    4    4    0    0 -0.25252404400E+03  0.10672776444E+03 -0.28465746245E+03  0.40548309396E+03  0.90705347462E+02 0.  0.
         13    1    3    3    0    0  0.63987638898E+02  0.26834866907E+03  0.19657485578E+04  0.19850120449E+04  0.00000000000E+00 0. -1.
        -13    1    3    3    0    0 -0.13016556877E+02  0.39697160901E+01  0.22301809283E+03  0.22343289625E+03  0.00000000000E+00 0.  1.
          2    1    5    5  502    0  0.13693226054E+02  0.41478710716E+01  0.56117522590E+01  0.15368833320E+02  0.00000000000E+00 0. -1.
          2    1    6    6  503    0 -0.78980061309E+02  0.27141864728E+02 -0.33464984198E+02  0.89969083983E+02  0.00000000000E+00 0. -1.
         -2    1    5    5    0  502  0.18785973592E+03 -0.38319402067E+03  0.27073734333E+03  0.50539850310E+03  0.00000000000E+00 0.  1.
         -2    1    6    6    0  503 -0.17354398269E+03  0.79585899714E+02 -0.25119247825E+03  0.31551400998E+03  0.00000000000E+00 0.  1.
<mgrwt>
<rscale>  0 0.22520916E+04</rscale>
<asrwt>0</asrwt>
<pdfrwt beam="1">  1        2 0.40885797E+00 0.22520916E+04</pdfrwt>
<pdfrwt beam="2">  1       -2 0.73402854E-01 0.22520916E+04</pdfrwt>
<totfact> 0.42907172E+00</totfact>
</mgrwt>
</event>
<event>
12    1  0.4802930E-008  0.2044542E+04  0.7818608E-02  0.8586074E-01
         -2   -1    0    0    0  501 -0.00000000000E+00  0.00000000000E+00  0.51077643144E+03  0.51077643144E+03  0.00000000000E+00 0. -1.
          2   -1    0    0  501    0  0.00000000000E+00 -0.00000000000E+00 -0.20459792875E+04  0.20459792875E+04  0.00000000000E+00 0.  1.
         23    2    1    2    0    0 -0.51805128844E+03 -0.87860049788E+02 -0.14141763598E+04  0.15113381714E+04  0.90287130481E+02 0.  0.
        254    2    1    2    0    0  0.51805128844E+03  0.87860049788E+02 -0.12102649633E+03  0.10454175476E+04  0.89563045404E+03 0.  0.
         23    2    4    4    0    0  0.30742462812E+03  0.28378274298E+03  0.30170545806E+03  0.52429722504E+03  0.93908729985E+02 0.  0.
         23    2    4    4    0    0  0.21062666032E+03 -0.19592269320E+03 -0.42273195439E+03  0.52112032256E+03  0.10057233007E+03 0.  0.
         13    1    3    3    0    0 -0.50851799362E+03 -0.99318137773E+02 -0.13690864028E+04  0.14638484282E+04  0.00000000000E+00 0.  1.
        -13    1    3    3    0    0 -0.95332948188E+01  0.11458087985E+02 -0.45089956954E+02  0.47489743192E+02  0.00000000000E+00 0. -1.
          1    1    6    6  502    0  0.47942245574E+02 -0.10576968724E+03 -0.19647119004E+03  0.22822492012E+03  0.00000000000E+00 0. -1.
          1    1    5    5  503    0  0.13170297390E+03  0.63228164298E+02  0.88924004105E+02  0.17102909869E+03  0.00000000000E+00 0. -1.
         -1    1    5    5    0  503  0.17572165422E+03  0.22055457868E+03  0.21278145396E+03  0.35326812634E+03  0.00000000000E+00 0.  1.
         -1    1    6    6    0  502  0.16268441475E+03 -0.90153005958E+02 -0.22626076435E+03  0.29289540244E+03  0.00000000000E+00 0.  1.
<mgrwt>
<rscale>  0 0.20445420E+04</rscale>
<asrwt>0</asrwt>
<pdfrwt beam="1">  1        2 0.31476604E+00 0.20445420E+04</pdfrwt>
<pdfrwt beam="2">  1       -2 0.78580990E-01 0.20445420E+04</pdfrwt>
<totfact> 0.83896513E+00</totfact>
</mgrwt>
</event>
<event>
12    1  0.4802930E-008  0.1612833E+04  0.7818608E-02  0.8812703E-01
         -1   -1    0    0    0  501 -0.00000000000E+00  0.00000000000E+00  0.56812630885E+03  0.56812630885E+03  0.00000000000E+00 0.  1.
          1   -1    0    0  501    0  0.00000000000E+00 -0.00000000000E+00 -0.11446525069E+04  0.11446525069E+04  0.00000000000E+00 0. -1.
         23    2    1    2    0    0 -0.21289719476E+03  0.23552471326E+03 -0.67488121855E+03  0.75135358340E+03  0.90941970801E+02 0.  0.
        254    2    1    2    0    0  0.21289719476E+03 -0.23552471326E+03  0.98355020537E+02  0.96142523232E+03  0.90214614181E+03 0.  0.
         23    2    4    4    0    0  0.33950559396E+03 -0.30522864979E+03  0.39991408951E+03  0.61375976095E+03  0.91330105613E+02 0.  0.
         23    2    4    4    0    0 -0.12660839920E+03  0.69703936532E+02 -0.30155906898E+03  0.34766547137E+03  0.95105638015E+02 0.  0.
         11    1    3    3    0    0 -0.18475394913E+03  0.16449378524E+03 -0.44534191529E+03  0.50943267329E+03  0.00000000000E+00 0.  1.
        -11    1    3    3    0    0 -0.28143245627E+02  0.71030928017E+02 -0.22953930326E+03  0.24192091011E+03  0.00000000000E+00 0. -1.
          4    1    5    5  502    0  0.25534622112E+03 -0.19155847705E+03  0.31670047810E+03  0.44966157896E+03  0.00000000000E+00 0. -1.
          1    1    6    6  503    0 -0.74041829355E+02  0.30897590003E+02 -0.25529752035E+03  0.26760731952E+03  0.00000000000E+00 0. -1.
         -4    1    5    5    0  502  0.84159372840E+02 -0.11367017273E+03  0.83213611418E+02  0.16409818199E+03  0.00000000000E+00 0.  1.
         -1    1    6    6    0  503 -0.52566569848E+02  0.38806346529E+02 -0.46261548629E+02  0.80058151852E+02  0.00000000000E+00 0.  1.
<mgrwt>
<rscale>  0 0.16128325E+04</rscale>
<asrwt>0</asrwt>
<pdfrwt beam="1">  1        1 0.17610038E+00 0.16128325E+04</pdfrwt>
<pdfrwt beam="2">  1       -1 0.87404049E-01 0.16128325E+04</pdfrwt>
<totfact> 0.14498280E+01</totfact>
</mgrwt>
</event>
<event>
12    1  0.4802930E-008  0.2700329E+04  0.7818608E-02  0.8334898E-01
          2   -1    0    0  501    0  0.00000000000E+00  0.00000000000E+00  0.30265624730E+04  0.30265624730E+04  0.00000000000E+00 0.  1.
         -2   -1    0    0    0  501 -0.00000000000E+00 -0.00000000000E+00 -0.60231523270E+03  0.60231523270E+03  0.00000000000E+00 0. -1.
         23    2    1    2    0    0  0.27381066826E+03  0.64778593545E+03  0.24001579179E+04  0.25034723874E+04  0.10962236717E+03 0.  0.
        254    2    1    2    0    0 -0.27381066826E+03 -0.64778593545E+03  0.24089322323E+02  0.11254053182E+04  0.87826985297E+03 0.  0.
         23    2    4    4    0    0 -0.55379071216E+03 -0.59614751410E+03  0.75014134280E+02  0.82214848451E+03  0.90691779096E+02 0.  0.
         23    2    4    4    0    0  0.27998004390E+03 -0.51638421353E+02 -0.50924811957E+02  0.30325683373E+03  0.91192210135E+02 0.  0.
         11    1    3    3    0    0 -0.42087983424E+01  0.71230975249E+02  0.21876162062E+03  0.23010478585E+03  0.00000000000E+00 0. -1.
        -11    1    3    3    0    0  0.27801946660E+03  0.57655496020E+03  0.21813962973E+04  0.22733676016E+04  0.00000000000E+00 0.  1.
          1    1    5    5  502    0 -0.94724242642E+02 -0.15650088560E+03  0.10222820850E+02  0.18322040117E+03  0.00000000000E+00 0. -1.
          3    1    6    6  503    0  0.20738334576E+03  0.33829437486E+01 -0.43000405316E+02  0.21182146082E+03  0.00000000000E+00 0. -1.
         -1    1    5    5    0  502 -0.45906646951E+03 -0.43964662850E+03  0.64791313430E+02  0.63892808334E+03  0.00000000000E+00 0.  1.
         -3    1    6    6    0  503  0.72596698141E+02 -0.55021365102E+02 -0.79244066410E+01  0.91435372910E+02  0.00000000000E+00 0.  1.
<mgrwt>
<rscale>  0 0.27003294E+04</rscale>
<asrwt>0</asrwt>
<pdfrwt beam="1">  1        2 0.46562499E+00 0.27003294E+04</pdfrwt>
<pdfrwt beam="2">  1       -2 0.92663884E-01 0.27003294E+04</pdfrwt>
<totfact> 0.14513930E+00</totfact>
</mgrwt>
</event>
<event>
12    1  0.4802930E-008  0.1231967E+04  0.7818608E-02  0.9085327E-01
          1   -1    0    0  501    0  0.00000000000E+00  0.00000000000E+00  0.96154026913E+03  0.96154026913E+03  0.00000000000E+00 0. -1.
         -1   -1    0    0    0  501 -0.00000000000E+00 -0.00000000000E+00 -0.39461223587E+03  0.39461223587E+03  0.00000000000E+00 0.  1.
         23    2    1    2    0    0 -0.43186953615E+02  0.37664524000E+01  0.43668221072E+03  0.44823341056E+03  0.91337495372E+02 0.  0.
        254    2    1    2    0    0  0.43186953615E+02 -0.37664524000E+01  0.13024582254E+03  0.90791909444E+03  0.89748192664E+03 0.  0.
         23    2    4    4    0    0  0.26424814091E+03  0.36431032185E+03  0.50641484471E+02  0.46186699959E+03  0.90595114527E+02 0.  0.
         23    2    4    4    0    0 -0.22106118730E+03 -0.36807677425E+03  0.79604338074E+02  0.44605209486E+03  0.90978351365E+02 0.  0.
         11    1    3    3    0    0 -0.40322966230E+02  0.40259524691E+02  0.34213484726E+03  0.34684726414E+03  0.00000000000E+00 0. -1.
        -11    1    3    3    0    0 -0.28639873849E+01 -0.36493072291E+02  0.94547363462E+02  0.10138614642E+03  0.00000000000E+00 0.  1.
          2    1    5    5  502    0  0.31062474441E+02  0.85539800377E+01  0.13323512772E+02  0.34864937767E+02  0.00000000000E+00 0. -1.
          4    1    6    6  503    0 -0.94903660487E+02 -0.14880691034E+03  0.78283241986E+02  0.19307632510E+03  0.00000000000E+00 0. -1.
         -2    1    5    5    0  502  0.23318566647E+03  0.35575634181E+03  0.37317971699E+02  0.42700206182E+03  0.00000000000E+00 0.  1.
         -4    1    6    6    0  503 -0.12615752681E+03 -0.21926986391E+03  0.13210960874E+01  0.25297576976E+03  0.00000000000E+00 0.  1.
<mgrwt>
<rscale>  0 0.12319668E+04</rscale>
<asrwt>0</asrwt>
<pdfrwt beam="1">  1        1 0.14792927E+00 0.12319668E+04</pdfrwt>
<pdfrwt beam="2">  1       -1 0.60709575E-01 0.12319668E+04</pdfrwt>
<totfact> 0.44090160E+01</totfact>
</mgrwt>
</event>
<event>
12    1  0.4802930E-008  0.2156604E+04  0.7818608E-02  0.8536711E-01
         -2   -1    0    0    0  501 -0.00000000000E+00  0.00000000000E+00  0.10581634545E+04  0.10581634545E+04  0.00000000000E+00 0.  1.
          2   -1    0    0  501    0  0.00000000000E+00 -0.00000000000E+00 -0.10988241757E+04  0.10988241757E+04  0.00000000000E+00 0. -1.
         23    2    1    2    0    0  0.56433597215E+03  0.30315681713E+03 -0.63354253595E+03  0.90557952309E+03  0.91208456500E+02 0.  0.
        254    2    1    2    0    0 -0.56433597215E+03 -0.30315681713E+03  0.59288181470E+03  0.12514081071E+04  0.89673533391E+03 0.  0.
         23    2    4    4    0    0  0.12739339048E+03 -0.16413924291E+03  0.47947582062E+03  0.53097647336E+03  0.94171044905E+02 0.  0.
         23    2    4    4    0    0 -0.69172936264E+03 -0.13901757422E+03  0.11340599408E+03  0.72043163374E+03  0.91353283077E+02 0.  0.
         11    1    3    3    0    0  0.47327413439E+03  0.22608649918E+03 -0.54956833620E+03  0.75968998121E+03  0.00000000000E+00 0. -1.
        -11    1    3    3    0    0  0.91061837759E+02  0.77070317953E+02 -0.83974199751E+02  0.14588954188E+03  0.00000000000E+00 0.  1.
          4    1    5    5  502    0  0.11114213046E+03 -0.16547657870E+03  0.47325755335E+03  0.51352486120E+03  0.00000000000E+00 0. -1.
          1    1    6    6  503    0 -0.49883062998E+03 -0.58102671198E+02  0.75629581214E+02  0.50786587930E+03  0.00000000000E+00 0. -1.
         -4    1    5    5    0  502  0.16251260020E+02  0.13373357867E+01  0.62182672681E+01  0.17451612163E+02  0.00000000000E+00 0.  1.
         -1    1    6    6    0  503 -0.19289873266E+03 -0.80914903018E+02  0.37776412867E+02  0.21256575444E+03  0.00000000000E+00 0.  1.
<mgrwt>
<rscale>  0 0.21566044E+04</rscale>
<asrwt>0</asrwt>
<pdfrwt beam="1">  1        2 0.16904987E+00 0.21566044E+04</pdfrwt>
<pdfrwt beam="2">  1       -2 0.16279438E+00 0.21566044E+04</pdfrwt>
<totfact> 0.48089820E+00</totfact>
</mgrwt>
</event>
<event>
12    1  0.4802930E-008  0.1545893E+04  0.7818608E-02  0.8854495E-01
         -2   -1    0    0    0  501 -0.00000000000E+00  0.00000000000E+00  0.14329786886E+04  0.14329786886E+04  0.00000000000E+00 0. -1.
          2   -1    0    0  501    0  0.00000000000E+00 -0.00000000000E+00 -0.41692608744E+03  0.41692608744E+03  0.00000000000E+00 0.  1.
         23    2    1    2    0    0  0.38856418432E+03  0.18306011581E+03  0.17782450647E+02  0.43904799901E+03  0.89184071183E+02 0.  0.
        254    2    1    2    0    0 -0.38856418432E+03 -0.18306011581E+03  0.99827015054E+03  0.14108567771E+04  0.89971129846E+03 0.  0.
         23    2    4    4    0    0 -0.37714835982E+03 -0.33307765464E+03  0.13432620086E+03  0.52870392116E+03  0.91119145537E+02 0.  0.
         23    2    4    4    0    0 -0.11415824503E+02  0.15001753883E+03  0.86394394968E+03  0.88215285589E+03  0.95702298645E+02 0.  0.
         11    1    3    3    0    0  0.32950606868E+03  0.17811464493E+03 -0.74403764667E+01  0.37463907330E+03  0.00000000000E+00 0.  1.
        -11    1    3    3    0    0  0.59058115636E+02  0.49454708758E+01  0.25222827113E+02  0.64408925718E+02  0.00000000000E+00 0. -1.
          4    1    5    5  502    0 -0.13973024241E+03 -0.13967462351E+03  0.88376019419E+01  0.19776664104E+03  0.00000000000E+00 0. -1.
          3    1    6    6  503    0 -0.42947700761E+02  0.13297567346E+03  0.74228882186E+03  0.75532756456E+03  0.00000000000E+00 0. -1.
         -4    1    5    5    0  502 -0.23741811740E+03 -0.19340303112E+03  0.12548859891E+03  0.33093728012E+03  0.00000000000E+00 0.  1.
         -3    1    6    6    0  503  0.31531876258E+02  0.17041865366E+02  0.12165512782E+03  0.12682529133E+03  0.00000000000E+00 0.  1.
<mgrwt>
<rscale>  0 0.15458929E+04</rscale>
<asrwt>0</asrwt>
<pdfrwt beam="1">  1        2 0.64142476E-01 0.15458929E+04</pdfrwt>
<pdfrwt beam="2">  1       -2 0.22045826E+00 0.15458929E+04</pdfrwt>
<totfact> 0.71678356E+00</totfact>
</mgrwt>
</event>
<event>
12    1  0.4802930E-008  0.1395784E+04  0.7818608E-02  0.8956876E-01
          2   -1    0    0  501    0  0.00000000000E+00  0.00000000000E+00  0.33575642130E+04  0.33575642130E+04  0.00000000000E+00 0. -1.
         -2   -1    0    0    0  501 -0.00000000000E+00 -0.00000000000E+00 -0.14506156776E+03  0.14506156776E+03  0.00000000000E+00 0.  1.
         23    2    1    2    0    0  0.12632670216E+02 -0.14882711306E+03  0.17256250632E+04  0.17344372146E+04  0.90451637330E+02 0.  0.
        254    2    1    2    0    0 -0.12632670216E+02  0.14882711306E+03  0.14868775821E+04  0.17681885662E+04  0.94518610213E+03 0.  0.
         23    2    4    4    0    0  0.25730379533E+03  0.37508684109E+03  0.12504531776E+04  0.13340612754E+04  0.95869472186E+02 0.  0.
         23    2    4    4    0    0 -0.26993646554E+03 -0.22625972803E+03  0.23642440446E+03  0.43412729080E+03  0.92254244512E+02 0.  0.
         13    1    3    3    0    0  0.22208829145E+02 -0.12144846808E+02  0.10408976907E+03  0.10712333743E+03  0.00000000000E+00 0.  1.
        -13    1    3    3    0    0 -0.95761589291E+01 -0.13668226625E+03  0.16215352941E+04  0.16273138772E+04  0.00000000000E+00 0. -1.
          4    1    5    5  502    0  0.11259370695E+03  0.24738598429E+03  0.74071163965E+03  0.78900627449E+03  0.00000000000E+00 0. -1.
          3    1    6    6  503    0 -0.24573077372E+03 -0.22635714820E+03  0.23747759878E+03  0.40989850160E+03  0.00000000000E+00 0. -1.
         -4    1    5    5    0  502  0.14471008838E+03  0.12770085680E+03  0.50974153796E+03  0.54505500092E+03  0.00000000000E+00 0.  1.
         -3    1    6    6    0  503 -0.24205691827E+02  0.97420170584E-01 -0.10531943202E+01  0.24228789193E+02  0.00000000000E+00 0.  1.
<mgrwt>
<rscale>  0 0.13957844E+04</rscale>
<asrwt>0</asrwt>
<pdfrwt beam="1">  1        2 0.51654828E+00 0.13957844E+04</pdfrwt>
<pdfrwt beam="2">  1       -2 0.22317167E-01 0.13957844E+04</pdfrwt>
<totfact> 0.17719475E+01</totfact>
</mgrwt>
</event>
<event>
12    1  0.4802930E-008  0.4118875E+04  0.7818608E-02  0.7980986E-01
         -2   -1    0    0    0  501 -0.00000000000E+00  0.00000000000E+00  0.15305017878E+04  0.15305017878E+04  0.00000000000E+00 0.  1.
          2   -1    0    0  501    0  0.00000000000E+00 -0.00000000000E+00 -0.27711716828E+04  0.27711716828E+04  0.00000000000E+00 0. -1.
         23    2    1    2    0    0 -0.84320484844E+03  0.58662733562E+03  0.11265601422E+04  0.15277756195E+04  0.99169260666E+02 0.  0.
        254    2    1    2    0    0  0.84320484844E+03 -0.58662733562E+03 -0.23672300372E+04  0.27738978511E+04  0.10176468898E+04 0.  0.
         23    2    4    4    0    0  0.29330551459E+03  0.27962929444E+03 -0.67761752549E+03  0.79508997949E+03  0.93711778588E+02 0.  0.
         23    2    4    4    0    0  0.54989933385E+03 -0.86625663006E+03 -0.16896125117E+04  0.19788078716E+04  0.90001815046E+02 0.  0.
         13    1    3    3    0    0 -0.71260767330E+03  0.48417767024E+03  0.88894065205E+03  0.12379229359E+04  0.00000000000E+00 0.  1.
        -13    1    3    3    0    0 -0.13059717514E+03  0.10244966538E+03  0.23761949011E+03  0.28985268357E+03  0.00000000000E+00 0. -1.
          1    1    6    6  502    0  0.29435896046E+03 -0.49681418596E+03 -0.10283836144E+04  0.11794254497E+04  0.00000000000E+00 0. -1.
          1    1    5    5  503    0  0.27845461412E+03  0.27631945039E+03 -0.67334944523E+03  0.77928742206E+03  0.00000000000E+00 0. -1.
         -1    1    5    5    0  503  0.14850900472E+02  0.33098440533E+01 -0.42680802595E+01  0.15802557438E+02  0.00000000000E+00 0.  1.
         -1    1    6    6    0  502  0.25554037338E+03 -0.36944244410E+03 -0.66122889729E+03  0.79938242196E+03  0.00000000000E+00 0.  1.
<mgrwt>
<rscale>  0 0.41188752E+04</rscale>
<asrwt>0</asrwt>
<pdfrwt beam="1">  1        2 0.42633410E+00 0.41188752E+04</pdfrwt>
<pdfrwt beam="2">  1       -2 0.23546182E+00 0.41188752E+04</pdfrwt>
<totfact> 0.14862544E-01</totfact>
</mgrwt>
</event>
<event>
12    1  0.4802930E-008  0.1496727E+04  0.7818608E-02  0.8886632E-01
          1   -1    0    0  501    0  0.00000000000E+00  0.00000000000E+00  0.11693368262E+04  0.11693368262E+04  0.00000000000E+00 0. -1.
         -1   -1    0    0    0  501 -0.00000000000E+00 -0.00000000000E+00 -0.47894501456E+03  0.47894501456E+03  0.00000000000E+00 0.  1.
         23    2    1    2    0    0  0.37614090466E+03 -0.22852118862E+03  0.26683325362E+03  0.52304098785E+03  0.93101965210E+02 0.  0.
        254    2    1    2    0    0 -0.37614090466E+03  0.22852118862E+03  0.42355855806E+03  0.11252408530E+04  0.94501915920E+03 0.  0.
         23    2    4    4    0    0  0.27812505491E+03  0.36499902065E+02  0.30980548716E+03  0.42768125892E+03  0.90807655719E+02 0.  0.
         23    2    4    4    0    0 -0.65426595957E+03  0.19202128655E+03  0.11375307090E+03  0.69755959404E+03  0.93346160906E+02 0.  0.
         11    1    3    3    0    0  0.38345230648E+02 -0.79926830105E+01 -0.35846449007E+00  0.39171012139E+02  0.00000000000E+00 0.  1.
        -11    1    3    3    0    0  0.33779567401E+03 -0.22052850561E+03  0.26719171811E+03  0.48386997571E+03  0.00000000000E+00 0. -1.
          2    1    5    5  502    0  0.32663599097E+01 -0.14708818521E+02  0.19377295328E+02  0.24545835157E+02  0.00000000000E+00 0. -1.
          2    1    6    6  503    0 -0.41072527299E+02  0.49663763697E+01 -0.14363027066E+02  0.43793994331E+02  0.00000000000E+00 0. -1.
         -2    1    5    5    0  502  0.27485869500E+03  0.51208720586E+02  0.29042819183E+03  0.40313542376E+03  0.00000000000E+00 0.  1.
         -2    1    6    6    0  503 -0.61319343227E+03  0.18705491018E+03  0.12811609797E+03  0.65376559971E+03  0.00000000000E+00 0.  1.
<mgrwt>
<rscale>  0 0.14967272E+04</rscale>
<asrwt>0</asrwt>
<pdfrwt beam="1">  1        1 0.17989797E+00 0.14967272E+04</pdfrwt>
<pdfrwt beam="2">  1       -1 0.73683848E-01 0.14967272E+04</pdfrwt>
<totfact> 0.20206918E+01</totfact>
</mgrwt>
</event>
<event>
12    1  0.4802930E-008  0.1741715E+04  0.7818608E-02  0.8737924E-01
         -1   -1    0    0    0  501 -0.00000000000E+00  0.00000000000E+00  0.51120677728E+03  0.51120677728E+03  0.00000000000E+00 0.  1.
          1   -1    0    0  501    0  0.00000000000E+00 -0.00000000000E+00 -0.14835338587E+04  0.14835338587E+04  0.00000000000E+00 0. -1.
         23    2    1    2    0    0 -0.60612329951E+03  0.10632889485E+03 -0.55749647470E+03  0.83500031912E+03  0.87931368336E+02 0.  0.
        254    2    1    2    0    0  0.60612329951E+03 -0.10632889485E+03 -0.41483060675E+03  0.11597403169E+04  0.89119127142E+03 0.  0.
         23    2    4    4    0    0 -0.40504580687E+02 -0.35458413211E+03 -0.50856443449E+02  0.37185889785E+03  0.91225732475E+02 0.  0.
         23    2    4    4    0    0  0.64662788020E+03  0.24825523727E+03 -0.36397416330E+03  0.78788141905E+03  0.92312841241E+02 0.  0.
         11    1    3    3    0    0 -0.13029928708E+02  0.15749961271E+02 -0.99373763741E+01  0.22728655291E+02  0.00000000000E+00 0. -1.
        -11    1    3    3    0    0 -0.59309337080E+03  0.90578933575E+02 -0.54755909832E+03  0.81227166382E+03  0.00000000000E+00 0.  1.
          2    1    5    5  502    0  0.24617846798E+02 -0.86573278777E+02 -0.31549366957E+02  0.95374700705E+02  0.00000000000E+00 0. -1.
          3    1    6    6  503    0  0.20113894225E+03  0.38361801958E+02 -0.83350556938E+02  0.22107875810E+03  0.00000000000E+00 0. -1.
         -2    1    5    5    0  502 -0.65122427484E+02 -0.26801085334E+03 -0.19307076492E+02  0.27648419714E+03  0.00000000000E+00 0.  1.
         -3    1    6    6    0  503  0.44548893794E+03  0.20989343531E+03 -0.28062360637E+03  0.56680266095E+03  0.00000000000E+00 0.  1.
<mgrwt>
<rscale>  0 0.17417147E+04</rscale>
<asrwt>0</asrwt>
<pdfrwt beam="1">  1        1 0.22823598E+00 0.17417147E+04</pdfrwt>
<pdfrwt beam="2">  1       -1 0.78647197E-01 0.17417147E+04</pdfrwt>
<totfact> 0.10301588E+01</totfact>
</mgrwt>
</event>
<event>
12    1  0.4802930E-008  0.2602257E+04  0.7818608E-02  0.8367435E-01
          2   -1    0    0  501    0  0.00000000000E+00  0.00000000000E+00  0.74831376970E+03  0.74831376970E+03  0.00000000000E+00 0. -1.
         -2   -1    0    0    0  501 -0.00000000000E+00 -0.00000000000E+00 -0.22623340920E+04  0.22623340920E+04  0.00000000000E+00 0.  1.
         23    2    1    2    0    0  0.39775740282E+03 -0.95685214791E+03 -0.10762104695E+03  0.10457989169E+04  0.91302247128E+02 0.  0.
        254    2    1    2    0    0 -0.39775740282E+03  0.95685214791E+03 -0.14063992753E+04  0.19648489448E+04  0.89938616277E+03 0.  0.
         23    2    4    4    0    0  0.25331770902E+03  0.12221174059E+03 -0.42890662013E+03  0.52112474885E+03  0.92220083686E+02 0.  0.
         23    2    4    4    0    0 -0.65107511184E+03  0.83464040732E+03 -0.97749265518E+03  0.14437241959E+04  0.91237339982E+02 0.  0.
         11    1    3    3    0    0  0.33897041980E+03 -0.80526876326E+03 -0.57191538475E+02  0.87557386819E+03  0.00000000000E+00 0. -1.
        -11    1    3    3    0    0  0.58786983012E+02 -0.15158338465E+03 -0.50429508480E+02  0.17022504868E+03  0.00000000000E+00 0.  1.
          1    1    5    5  502    0  0.11448594848E+02  0.24657163511E+02 -0.86721521342E+02  0.90882717281E+02  0.00000000000E+00 0. -1.
          3    1    6    6  503    0 -0.32513676871E+03  0.34871228751E+03 -0.41519789998E+03  0.63222106417E+03  0.00000000000E+00 0. -1.
         -1    1    5    5    0  502  0.24186911418E+03  0.97554577081E+02 -0.34218509879E+03  0.43024203157E+03  0.00000000000E+00 0.  1.
         -3    1    6    6    0  503 -0.32593834313E+03  0.48592811981E+03 -0.56229475519E+03  0.81150313176E+03  0.00000000000E+00 0.  1.
<mgrwt>
<rscale>  0 0.26022573E+04</rscale>
<asrwt>0</asrwt>
<pdfrwt beam="1">  1        2 0.11512520E+00 0.26022573E+04</pdfrwt>
<pdfrwt beam="2">  1       -2 0.34805140E+00 0.26022573E+04</pdfrwt>
<totfact> 0.53248275E-01</totfact>
</mgrwt>
</event>
<event>
12    1  0.4802930E-008  0.1385298E+04  0.7818608E-02  0.8964530E-01
          2   -1    0    0  501    0  0.00000000000E+00  0.00000000000E+00  0.27917517820E+04  0.27917517820E+04  0.00000000000E+00 0. -1.
         -2   -1    0    0    0  501 -0.00000000000E+00 -0.00000000000E+00 -0.17184994076E+03  0.17184994076E+03  0.00000000000E+00 0.  1.
         23    2    1    2    0    0  0.82116148480E+02 -0.29887866295E+03  0.12754928522E+04  0.13144931584E+04  0.70276100686E+02 0.  0.
        254    2    1    2    0    0 -0.82116148480E+02  0.29887866295E+03  0.13444089890E+04  0.16491085644E+04  0.90335597100E+03 0.  0.
         23    2    4    4    0    0  0.28145061973E+03  0.44099548858E+03  0.94036098481E+03  0.10800477616E+04  0.92373769194E+02 0.  0.
         23    2    4    4    0    0 -0.36356676821E+03 -0.14211682563E+03  0.40404800419E+03  0.56906080279E+03  0.90539607405E+02 0.  0.
         11    1    3    3    0    0 -0.59198564750E+00  0.36493990777E+01  0.24903941165E+02  0.25176871255E+02  0.00000000000E+00 0.  1.
        -11    1    3    3    0    0  0.82708134128E+02 -0.30252806203E+03  0.12505889110E+04  0.12893162871E+04  0.00000000000E+00 0. -1.
          1    1    5    5  502    0  0.22903268636E+03  0.40932601016E+03  0.80965422083E+03  0.93570492749E+03  0.00000000000E+00 0. -1.
          3    1    6    6  503    0 -0.74265164722E+02 -0.71102057341E+02  0.10159958160E+03  0.14454512178E+03  0.00000000000E+00 0.  1.
         -1    1    5    5    0  502  0.52417933365E+02  0.31669478411E+02  0.13070676397E+03  0.14434283408E+03  0.00000000000E+00 0.  1.
         -3    1    6    6    0  503 -0.28930160349E+03 -0.71014768285E+02  0.30244842259E+03  0.42451568101E+03  0.00000000000E+00 0. -1.
<mgrwt>
<rscale>  0 0.13852976E+04</rscale>
<asrwt>0</asrwt>
<pdfrwt beam="1">  1        2 0.42950024E+00 0.13852976E+04</pdfrwt>
<pdfrwt beam="2">  1       -2 0.26438454E-01 0.13852976E+04</pdfrwt>
<totfact> 0.29727192E+01</totfact>
</mgrwt>
</event>
<event>
12    1  0.4802930E-008  0.2548196E+04  0.7818608E-02  0.8386014E-01
         -1   -1    0    0    0  501 -0.00000000000E+00  0.00000000000E+00  0.19838043954E+04  0.19838043954E+04  0.00000000000E+00 0.  1.
          1   -1    0    0  501    0  0.00000000000E+00 -0.00000000000E+00 -0.81828907693E+03  0.81828907693E+03  0.00000000000E+00 0. -1.
         23    2    1    2    0    0 -0.62773050378E+03  0.43919581904E+03  0.13991022230E+04  0.15977383892E+04  0.91336613517E+02 0.  0.
        254    2    1    2    0    0  0.62773050378E+03 -0.43919581904E+03 -0.23358690453E+03  0.12043550832E+04  0.89942746874E+03 0.  0.
         23    2    4    4    0    0 -0.75113855429E+02 -0.26915785440E+03  0.20083326312E+03  0.35594723092E+03  0.90974665499E+02 0.  0.
         23    2    4    4    0    0  0.70284435921E+03 -0.17003796463E+03 -0.43442016765E+03  0.84840785224E+03  0.90398556330E+02 0.  0.
         13    1    3    3    0    0 -0.35876075434E+03  0.22007456429E+03  0.68813901321E+03  0.80664576749E+03  0.00000000000E+00 0. -1.
        -13    1    3    3    0    0 -0.26896974944E+03  0.21912125474E+03  0.71096320983E+03  0.79109262171E+03  0.00000000000E+00 0.  1.
          2    1    5    5  502    0 -0.43452225385E+02 -0.20877455633E+03  0.10331367453E+03  0.23695701426E+03  0.00000000000E+00 0. -1.
          1    1    6    6  503    0  0.38784893336E+03 -0.50127808803E+02 -0.21575259081E+03  0.44664166036E+03  0.00000000000E+00 0. -1.
         -2    1    5    5    0  502 -0.31661630044E+02 -0.60383298071E+02  0.97519588587E+02  0.11899021666E+03  0.00000000000E+00 0.  1.
         -1    1    6    6    0  503  0.31499542585E+03 -0.11991015583E+03 -0.21866757684E+03  0.40176619188E+03  0.00000000000E+00 0.  1.
<mgrwt>
<rscale>  0 0.25481958E+04</rscale>
<asrwt>0</asrwt>
<pdfrwt beam="1">  1        1 0.12589063E+00 0.25481958E+04</pdfrwt>
<pdfrwt beam="2">  1       -1 0.30520068E+00 0.25481958E+04</pdfrwt>
<totfact> 0.57626186E-01</totfact>
</mgrwt>
</event>
<event>
12    1  0.4802930E-008  0.1439499E+04  0.7818608E-02  0.8925713E-01
          1   -1    0    0  501    0  0.00000000000E+00  0.00000000000E+00  0.16914313588E+04  0.16914313588E+04  0.00000000000E+00 0. -1.
         -1   -1    0    0    0  501 -0.00000000000E+00 -0.00000000000E+00 -0.30627263958E+03  0.30627263958E+03  0.00000000000E+00 0.  1.
         23    2    1    2    0    0  0.26177270797E+03  0.24137354560E+03  0.82304420737E+02  0.37640498856E+03  0.90114141995E+02 0.  0.
        254    2    1    2    0    0 -0.26177270797E+03 -0.24137354560E+03  0.13028542985E+04  0.16212990098E+04  0.89688071503E+03 0.  0.
         23    2    4    4    0    0 -0.75989031276E+02  0.33019502724E+03  0.37739656550E+03  0.51403514131E+03  0.83671201528E+02 0.  0.
         23    2    4    4    0    0 -0.18578367669E+03 -0.57156857284E+03  0.92545773296E+03  0.11072638685E+04  0.91405967966E+02 0.  0.
         11    1    3    3    0    0  0.23376601421E+03  0.23766803382E+03  0.56453844911E+02  0.33811193458E+03  0.00000000000E+00 0.  1.
        -11    1    3    3    0    0  0.28006693755E+02  0.37055117838E+01  0.25850575827E+02  0.38293053982E+02  0.00000000000E+00 0. -1.
          1    1    5    5  502    0 -0.33817011889E+02  0.25450540542E+03  0.23908425154E+03  0.35082455874E+03  0.00000000000E+00 0. -1.
          1    1    6    6  503    0 -0.19294771762E+03 -0.50466502510E+03  0.81098456482E+03  0.97448015561E+03  0.00000000000E+00 0. -1.
         -1    1    5    5    0  502 -0.42172019387E+02  0.75689621819E+02  0.13831231396E+03  0.16321058257E+03  0.00000000000E+00 0.  1.
         -1    1    6    6    0  503  0.71640409289E+01 -0.66903547741E+02  0.11447316814E+03  0.13278371288E+03  0.00000000000E+00 0.  1.
<mgrwt>
<rscale>  0 0.14394987E+04</rscale>
<asrwt>0</asrwt>
<pdfrwt beam="1">  1        1 0.26022020E+00 0.14394987E+04</pdfrwt>
<pdfrwt beam="2">  1       -1 0.47118869E-01 0.14394987E+04</pdfrwt>
<totfact> 0.21094702E+01</totfact>
</mgrwt>
</event>
<event>
12    1  0.4802930E-008  0.1543039E+04  0.7818608E-02  0.8856326E-01
          2   -1    0    0  501    0  0.00000000000E+00  0.00000000000E+00  0.69777917946E+03  0.69777917946E+03  0.00000000000E+00 0.  1.
         -2   -1    0    0    0  501 -0.00000000000E+00 -0.00000000000E+00 -0.85305287590E+03  0.85305287590E+03  0.00000000000E+00 0. -1.
         23    2    1    2    0    0  0.44975547398E+03  0.20560224912E+03 -0.15269071104E+00  0.50317392524E+03  0.92906966985E+02 0.  0.
        254    2    1    2    0    0 -0.44975547398E+03 -0.20560224912E+03 -0.15512100573E+03  0.10476581301E+04  0.91047941216E+03 0.  0.
         23    2    4    4    0    0 -0.48640211566E+02 -0.48444674239E+03  0.75850875882E+02  0.50056282020E+03  0.88063983589E+02 0.  0.
         23    2    4    4    0    0 -0.40111526241E+03  0.27884449327E+03 -0.23097188162E+03  0.54709530992E+03  0.85542754613E+02 0.  0.
         11    1    3    3    0    0  0.35725434594E+03  0.20021776874E+03  0.12082705386E+02  0.40971186751E+03  0.00000000000E+00 0. -1.
        -11    1    3    3    0    0  0.92501128043E+02  0.53844803782E+01 -0.12235396097E+02  0.93462057733E+02  0.00000000000E+00 0.  1.
          1    1    5    5  502    0 -0.67426614483E+02 -0.44975839766E+03  0.76132894488E+02  0.46111298207E+03  0.00000000000E+00 0. -1.
          3    1    6    6  503    0 -0.25129111567E+03  0.19964485947E+03 -0.18917190604E+03  0.37254705041E+03  0.00000000000E+00 0. -1.
         -1    1    5    5    0  502  0.18786402917E+02 -0.34688344726E+02 -0.28201860617E+00  0.39449838135E+02  0.00000000000E+00 0.  1.
         -3    1    6    6    0  503 -0.14982414674E+03  0.79199633797E+02 -0.41799975572E+02  0.17454825951E+03  0.00000000000E+00 0.  1.
<mgrwt>
<rscale>  0 0.15430393E+04</rscale>
<asrwt>0</asrwt>
<pdfrwt beam="1">  1        2 0.10735064E+00 0.15430393E+04</pdfrwt>
<pdfrwt beam="2">  1       -2 0.13123890E+00 0.15430393E+04</pdfrwt>
<totfact> 0.16792387E+01</totfact>
</mgrwt>
</event>
<event>
12    1  0.4802930E-008  0.1908133E+04  0.7818608E-02  0.8650819E-01
          1   -1    0    0  501    0  0.00000000000E+00  0.00000000000E+00  0.58166531224E+03  0.58166531224E+03  0.00000000000E+00 0. -1.
         -1   -1    0    0    0  501 -0.00000000000E+00 -0.00000000000E+00 -0.15648914993E+04  0.15648914993E+04  0.00000000000E+00 0.  1.
         23    2    1    2    0    0  0.17534475877E+03 -0.46515865951E+02 -0.11869162007E+04  0.12043382003E+04  0.93546368363E+02 0.  0.
        254    2    1    2    0    0 -0.17534475877E+03  0.46515865951E+02  0.20369001368E+03  0.94221861118E+03  0.90187403741E+03 0.  0.
         23    2    4    4    0    0 -0.20260458147E+03  0.86981101385E+02  0.53954938699E+03  0.59033766368E+03  0.93651949919E+02 0.  0.
         23    2    4    4    0    0  0.27259822704E+02 -0.40465235434E+02 -0.33585937331E+03  0.35188094750E+03  0.92941644931E+02 0.  0.
         13    1    3    3    0    0  0.80512005195E+02 -0.19899161073E+02 -0.82829070052E+03  0.83243236612E+03  0.00000000000E+00 0.  1.
        -13    1    3    3    0    0  0.94832753574E+02 -0.26616704878E+02 -0.35862550020E+03  0.37190583421E+03  0.00000000000E+00 0. -1.
          1    1    5    5  502    0 -0.10152122384E+03  0.93426867424E+02  0.32550569009E+03  0.35353796504E+03  0.00000000000E+00 0. -1.
          3    1    6    6  503    0  0.34111296550E+02 -0.57672368843E+02 -0.32160154832E+03  0.32850759286E+03  0.00000000000E+00 0. -1.
         -1    1    5    5    0  502 -0.10108335764E+03 -0.64457660397E+01  0.21404369690E+03  0.23679969863E+03  0.00000000000E+00 0.  1.
         -3    1    6    6    0  503 -0.68514738455E+01  0.17207133409E+02 -0.14257824983E+02  0.23373354643E+02  0.00000000000E+00 0.  1.
<mgrwt>
<rscale>  0 0.19081332E+04</rscale>
<asrwt>0</asrwt>
<pdfrwt beam="1">  1        1 0.89486973E-01 0.19081332E+04</pdfrwt>
<pdfrwt beam="2">  1       -1 0.24075253E+00 0.19081332E+04</pdfrwt>
<totfact> 0.26840396E+00</totfact>
</mgrwt>
</event>
<event>
12    1  0.4802930E-008  0.1425251E+04  0.7818608E-02  0.8935741E-01
         -1   -1    0    0    0  501 -0.00000000000E+00  0.00000000000E+00  0.19647350878E+03  0.19647350878E+03  0.00000000000E+00 0.  1.
          1   -1    0    0  501    0  0.00000000000E+00 -0.00000000000E+00 -0.25847506018E+04  0.25847506018E+04  0.00000000000E+00 0. -1.
         23    2    1    2    0    0 -0.13951020684E+03  0.10427720111E+03  0.41778149787E+02  0.20090565649E+03  0.90999101800E+02 0.  0.
        254    2    1    2    0    0  0.13951020684E+03 -0.10427720111E+03 -0.24300552428E+04  0.25803184541E+04  0.85002235790E+03 0.  0.
         23    2    4    4    0    0  0.15570861809E+03  0.10352876042E+03 -0.23159999298E+04  0.23253477628E+04  0.91777805166E+02 0.  0.
         23    2    4    4    0    0 -0.16198411253E+02 -0.20780596152E+03 -0.11405531301E+03  0.25497069121E+03  0.92497204168E+02 0.  0.
         13    1    3    3    0    0 -0.32188217000E+02  0.67005211904E+02  0.45643156209E+02  0.87230026049E+02  0.00000000000E+00 0. -1.
        -13    1    3    3    0    0 -0.10732198984E+03  0.37271989203E+02 -0.38650064220E+01  0.11367563044E+03  0.00000000000E+00 0.  1.
          4    1    5    5  502    0  0.13507274706E+03  0.10035081328E+03 -0.22461468621E+04  0.22524410445E+04  0.00000000000E+00 0.  1.
          3    1    6    6  503    0 -0.41747360984E+01 -0.73241079772E+02 -0.92662593664E+02  0.11818646476E+03  0.00000000000E+00 0. -1.
         -4    1    5    5    0  502  0.20635871032E+02  0.31779471359E+01 -0.69853067685E+02  0.72906718389E+02  0.00000000000E+00 0. -1.
         -3    1    6    6    0  503 -0.12023675155E+02 -0.13456488175E+03 -0.21392719347E+02  0.13678422645E+03  0.00000000000E+00 0.  1.
<mgrwt>
<rscale>  0 0.14252509E+04</rscale>
<asrwt>0</asrwt>
<pdfrwt beam="1">  1        1 0.39765395E+00 0.14252509E+04</pdfrwt>
<pdfrwt beam="2">  1       -1 0.30226693E-01 0.14252509E+04</pdfrwt>
<totfact> 0.11632615E+01</totfact>
</mgrwt>
</event>
<event>
12    1  0.4802930E-008  0.1705979E+04  0.7818608E-02  0.8757962E-01
         -2   -1    0    0    0  501 -0.00000000000E+00  0.00000000000E+00  0.37952038174E+03  0.37952038174E+03  0.00000000000E+00 0.  1.
          2   -1    0    0  501    0  0.00000000000E+00 -0.00000000000E+00 -0.19171320680E+04  0.19171320680E+04  0.00000000000E+00 0. -1.
         23    2    1    2    0    0 -0.13659231458E+03  0.27839337834E+03 -0.12620740515E+04  0.13027709850E+04  0.90669699671E+02 0.  0.
        254    2    1    2    0    0  0.13659231458E+03 -0.27839337834E+03 -0.27553763473E+03  0.99388146470E+03  0.90317165822E+03 0.  0.
         23    2    4    4    0    0 -0.24008897493E+03  0.52292161504E+02 -0.39115464199E+03  0.47135866861E+03  0.93807539547E+02 0.  0.
         23    2    4    4    0    0  0.37668128951E+03 -0.33068553984E+03  0.11561700726E+03  0.52252279609E+03  0.91766333376E+02 0.  0.
         13    1    3    3    0    0 -0.12042182680E+03  0.19722931767E+03 -0.77509144934E+03  0.80880626540E+03  0.00000000000E+00 0. -1.
        -13    1    3    3    0    0 -0.16170487779E+02  0.81164060666E+02 -0.48698260214E+03  0.49396471960E+03  0.00000000000E+00 0.  1.
          1    1    5    5  502    0 -0.11889530685E+02 -0.13413800167E+02 -0.60403381495E+01  0.18914985059E+02  0.00000000000E+00 0. -1.
          3    1    6    6  503    0  0.53922627408E+02 -0.95551600067E+02  0.34776758718E+02  0.11509639859E+03  0.00000000000E+00 0. -1.
         -1    1    5    5    0  502 -0.22819944425E+03  0.65705961671E+02 -0.38511430385E+03  0.45244368355E+03  0.00000000000E+00 0.  1.
         -3    1    6    6    0  503  0.32275866210E+03 -0.23513393977E+03  0.80840248545E+02  0.40742639750E+03  0.00000000000E+00 0.  1.
<mgrwt>
<rscale>  0 0.17059785E+04</rscale>
<asrwt>0</asrwt>
<pdfrwt beam="1">  1        2 0.29494339E+00 0.17059785E+04</pdfrwt>
<pdfrwt beam="2">  1       -2 0.58387751E-01 0.17059785E+04</pdfrwt>
<totfact> 0.19382875E+01</totfact>
</mgrwt>
</event>
<event>
12    1  0.4802930E-008  0.1409961E+04  0.7818608E-02  0.8946639E-01
          2   -1    0    0  501    0  0.00000000000E+00  0.00000000000E+00  0.32361801628E+04  0.32361801628E+04  0.00000000000E+00 0. -1.
         -2   -1    0    0    0  501 -0.00000000000E+00 -0.00000000000E+00 -0.15357543950E+03  0.15357543950E+03  0.00000000000E+00 0.  1.
         23    2    1    2    0    0  0.30619213867E+02 -0.30888331128E+03  0.27643195696E+03  0.42418903961E+03  0.84707014202E+02 0.  0.
        254    2    1    2    0    0 -0.30619213867E+02  0.30888331128E+03  0.28061727664E+04  0.29655665627E+04  0.90754228932E+03 0.  0.
         23    2    4    4    0    0 -0.76853411254E+02  0.40216393313E+03  0.27955446374E+04  0.28268312525E+04  0.90900136360E+02 0.  0.
         23    2    4    4    0    0  0.46234197387E+02 -0.93280621856E+02  0.10628128979E+02  0.13873531016E+03  0.91080479462E+02 0.  0.
         11    1    3    3    0    0  0.42899275663E+02 -0.19863848064E+03  0.22083495207E+03  0.30010942988E+03  0.00000000000E+00 0. -1.
        -11    1    3    3    0    0 -0.12280061796E+02 -0.11024483064E+03  0.55597004888E+02  0.12407960974E+03  0.00000000000E+00 0.  1.
          4    1    5    5  502    0 -0.39451142841E+02  0.48271975344E+02  0.49884291903E+03  0.50272341714E+03  0.00000000000E+00 0. -1.
          1    1    6    6  503    0  0.40995239649E+02 -0.76741667887E+02  0.46672502861E+02  0.98733053165E+02  0.00000000000E+00 0. -1.
         -4    1    5    5    0  502 -0.37402268413E+02  0.35389195779E+03  0.22967017184E+04  0.23241078354E+04  0.00000000000E+00 0.  1.
         -1    1    6    6    0  503  0.52389577388E+01 -0.16538953969E+02 -0.36044373882E+02  0.40002257000E+02  0.00000000000E+00 0.  1.
<mgrwt>
<rscale>  0 0.14099614E+04</rscale>
<asrwt>0</asrwt>
<pdfrwt beam="1">  1        2 0.49787382E+00 0.14099614E+04</pdfrwt>
<pdfrwt beam="2">  1       -2 0.23626993E-01 0.14099614E+04</pdfrwt>
<totfact> 0.19210762E+01</totfact>
</mgrwt>
</event>
<event>
12    1  0.4802930E-008  0.1314370E+04  0.7818608E-02  0.9018247E-01
         -1   -1    0    0    0  501 -0.00000000000E+00  0.00000000000E+00  0.30198944836E+03  0.30198944836E+03  0.00000000000E+00 0.  1.
          1   -1    0    0  501    0  0.00000000000E+00 -0.00000000000E+00 -0.14301554274E+04  0.14301554274E+04  0.00000000000E+00 0. -1.
         23    2    1    2    0    0  0.99920830772E+02  0.18046761476E+03  0.54187219960E+02  0.23317081239E+03  0.94231844630E+02 0.  0.
        254    2    1    2    0    0 -0.99920830772E+02 -0.18046761476E+03 -0.11823531990E+04  0.14989740634E+04  0.89800413313E+03 0.  0.
         23    2    4    4    0    0 -0.26702009433E+03 -0.42446890173E+03 -0.10407446485E+04  0.11588153293E+04  0.90719153726E+02 0.  0.
         23    2    4    4    0    0  0.16709926355E+03  0.24400128697E+03 -0.14160855055E+03  0.34015873407E+03  0.90532816448E+02 0.  0.
         13    1    3    3    0    0  0.79423654245E+02  0.51081456611E+02  0.10191122623E+02  0.94980477170E+02  0.00000000000E+00 0. -1.
        -13    1    3    3    0    0  0.20497176527E+02  0.12938615815E+03  0.43996097337E+02  0.13819033522E+03  0.00000000000E+00 0.  1.
          3    1    6    6  502    0  0.92697248986E+02  0.10022486948E+03 -0.20648637593E+02  0.13807306278E+03  0.00000000000E+00 0. -1.
          3    1    5    5  503    0 -0.21266226671E+03 -0.30855651138E+03 -0.68611471874E+03  0.78178370901E+03  0.00000000000E+00 0.  1.
         -3    1    5    5    0  503 -0.54357827612E+02 -0.11591239035E+03 -0.35462992973E+03  0.37703162032E+03  0.00000000000E+00 0. -1.
         -3    1    6    6    0  502  0.74402014568E+02  0.14377641749E+03 -0.12095991296E+03  0.20208567129E+03  0.00000000000E+00 0.  1.
<mgrwt>
<rscale>  0 0.13143696E+04</rscale>
<asrwt>0</asrwt>
<pdfrwt beam="1">  1        1 0.22002391E+00 0.13143696E+04</pdfrwt>
<pdfrwt beam="2">  1       -1 0.46459916E-01 0.13143696E+04</pdfrwt>
<totfact> 0.33122570E+01</totfact>
</mgrwt>
</event>
<event>
12    1  0.4802930E-008  0.2485466E+04  0.7818608E-02  0.8408182E-01
         -2   -1    0    0    0  501 -0.00000000000E+00  0.00000000000E+00  0.63839032465E+03  0.63839032465E+03  0.00000000000E+00 0.  1.
          2   -1    0    0  501    0  0.00000000000E+00 -0.00000000000E+00 -0.24191869216E+04  0.24191869216E+04  0.00000000000E+00 0. -1.
         23    2    1    2    0    0 -0.20497911015E+03  0.48536791825E+03 -0.19348562865E+04  0.20073730255E+04  0.90989901312E+02 0.  0.
        254    2    1    2    0    0  0.20497911015E+03 -0.48536791825E+03  0.15405968962E+03  0.10502042208E+04  0.89531897425E+03 0.  0.
         23    2    4    4    0    0 -0.31066379974E+03 -0.20780649795E+03 -0.11136592118E+03  0.40043308343E+03  0.90822622948E+02 0.  0.
         23    2    4    4    0    0  0.51564290989E+03 -0.27756142029E+03  0.26542561081E+03  0.64977113733E+03  0.93935208917E+02 0.  0.
         11    1    3    3    0    0 -0.88500444665E+02  0.31271165151E+03 -0.11070033646E+04  0.11537232575E+04  0.00000000000E+00 0. -1.
        -11    1    3    3    0    0 -0.11647866548E+03  0.17265626673E+03 -0.82785292190E+03  0.85364976791E+03  0.00000000000E+00 0.  1.
          2    1    5    5  502    0 -0.24659381559E+03 -0.17760621698E+03 -0.52634313087E+02  0.30841992334E+03  0.00000000000E+00 0.  1.
          3    1    6    6  503    0  0.36266955771E+03 -0.16773470965E+03  0.13949542661E+03  0.42322938811E+03  0.00000000000E+00 0. -1.
         -2    1    5    5    0  502 -0.64069984151E+02 -0.30200280977E+02 -0.58731608096E+02  0.92013160090E+02  0.00000000000E+00 0. -1.
         -3    1    6    6    0  503  0.15297335218E+03 -0.10982671064E+03  0.12593018420E+03  0.22654174922E+03  0.00000000000E+00 0.  1.
<mgrwt>
<rscale>  0 0.24854662E+04</rscale>
<asrwt>0</asrwt>
<pdfrwt beam="1">  1        2 0.37218261E+00 0.24854662E+04</pdfrwt>
<pdfrwt beam="2">  1       -2 0.98213895E-01 0.24854662E+04</pdfrwt>
<totfact> 0.29827275E+00</totfact>
</mgrwt>
</event>
<event>
12    1  0.4802930E-008  0.2323572E+04  0.7818608E-02  0.8468685E-01
         -2   -1    0    0    0  501 -0.00000000000E+00  0.00000000000E+00  0.85445042880E+03  0.85445042880E+03  0.00000000000E+00 0.  1.
          2   -1    0    0  501    0  0.00000000000E+00 -0.00000000000E+00 -0.15796668143E+04  0.15796668143E+04  0.00000000000E+00 0. -1.
         23    2    1    2    0    0  0.84478308003E+03 -0.12365720349E+03  0.20252358296E+03  0.88224916611E+03  0.91641874515E+02 0.  0.
        254    2    1    2    0    0 -0.84478308003E+03  0.12365720349E+03 -0.92773996841E+03  0.15518680770E+04  0.90478921468E+03 0.  0.
         23    2    4    4    0    0 -0.26087483953E+03  0.17506866293E+03 -0.90048307798E+03  0.95786891578E+03  0.89097516531E+02 0.  0.
         23    2    4    4    0    0 -0.58390824050E+03 -0.51411459440E+02 -0.27256890430E+02  0.59399916117E+03  0.92195953898E+02 0.  0.
         13    1    3    3    0    0  0.54377351077E+03 -0.36174508611E+02  0.11831238980E+03  0.55767019615E+03  0.00000000000E+00 0.  1.
        -13    1    3    3    0    0  0.30100956926E+03 -0.87482694876E+02  0.84211193156E+02  0.32457896996E+03  0.00000000000E+00 0. -1.
          2    1    5    5  502    0 -0.92707022548E+02  0.11026638850E+03 -0.45689591225E+03  0.47906903792E+03  0.00000000000E+00 0.  1.
          1    1    6    6  503    0 -0.77472362080E+02  0.62620490292E+01 -0.32542101823E+02  0.84262497799E+02  0.00000000000E+00 0.  1.
         -2    1    5    5    0  502 -0.16816781698E+03  0.64802274427E+02 -0.44358716572E+03  0.47879987785E+03  0.00000000000E+00 0. -1.
         -1    1    6    6    0  503 -0.50643587842E+03 -0.57673508469E+02  0.52852113930E+01  0.50973666337E+03  0.00000000000E+00 0. -1.
<mgrwt>
<rscale>  0 0.23235722E+04</rscale>
<asrwt>0</asrwt>
<pdfrwt beam="1">  1        2 0.24302566E+00 0.23235722E+04</pdfrwt>
<pdfrwt beam="2">  1       -2 0.13145391E+00 0.23235722E+04</pdfrwt>
<totfact> 0.43745705E+00</totfact>
</mgrwt>
</event>
<event>
12    1  0.4802930E-008  0.1510787E+04  0.7818608E-02  0.8877311E-01
         -2   -1    0    0    0  501 -0.00000000000E+00  0.00000000000E+00  0.20198556868E+03  0.20198556868E+03  0.00000000000E+00 0.  1.
          2   -1    0    0  501    0  0.00000000000E+00 -0.00000000000E+00 -0.28250487007E+04  0.28250487007E+04  0.00000000000E+00 0. -1.
         23    2    1    2    0    0  0.31893418771E+03 -0.29872958180E+03 -0.12476326906E+04  0.13250637311E+04  0.90819500501E+02 0.  0.
        254    2    1    2    0    0 -0.31893418771E+03  0.29872958180E+03 -0.13754304414E+04  0.17019705383E+04  0.90218425773E+03 0.  0.
         23    2    4    4    0    0 -0.34892509962E+03  0.41697107296E+03 -0.14338782578E+04  0.15362414124E+04  0.91745399659E+02 0.  0.
         23    2    4    4    0    0  0.29990911916E+02 -0.11824149116E+03  0.58447816342E+02  0.16572912586E+03  0.95757458689E+02 0.  0.
         13    1    3    3    0    0  0.76289861641E+02 -0.10940022134E+03 -0.29023021815E+03  0.31940903392E+03  0.00000000000E+00 0.  1.
        -13    1    3    3    0    0  0.24264432607E+03 -0.18932936047E+03 -0.95740247247E+03  0.10056546972E+04  0.00000000000E+00 0. -1.
          2    1    5    5  502    0 -0.24930041138E+03  0.35587767948E+03 -0.11254874923E+04  0.12064500459E+04  0.00000000000E+00 0. -1.
          3    1    6    6  503    0  0.46384048039E+02 -0.10332683839E+03  0.11536952841E+02  0.11384646119E+03  0.00000000000E+00 0. -1.
         -2    1    5    5    0  502 -0.99624688241E+02  0.61093393479E+02 -0.30839076542E+03  0.32979136651E+03  0.00000000000E+00 0.  1.
         -3    1    6    6    0  503 -0.16393136123E+02 -0.14914652767E+02  0.46910863501E+02  0.51882664672E+02  0.00000000000E+00 0.  1.
<mgrwt>
<rscale>  0 0.15107866E+04</rscale>
<asrwt>0</asrwt>
<pdfrwt beam="1">  1        2 0.43462284E+00 0.15107866E+04</pdfrwt>
<pdfrwt beam="2">  1       -2 0.31074706E-01 0.15107866E+04</pdfrwt>
<totfact> 0.20805737E+01</totfact>
</mgrwt>
</event>
<event>
12    1  0.4802930E-008  0.2244732E+04  0.7818608E-02  0.8500037E-01
         -1   -1    0    0    0  501 -0.00000000000E+00  0.00000000000E+00  0.80838420743E+03  0.80838420743E+03  0.00000000000E+00 0.  1.
          1   -1    0    0  501    0  0.00000000000E+00 -0.00000000000E+00 -0.15583010838E+04  0.15583010838E+04  0.00000000000E+00 0. -1.
         23    2    1    2    0    0 -0.44044999944E+03 -0.68136646218E+03 -0.83972465831E+03  0.11714091360E+04  0.93837116015E+02 0.  0.
        254    2    1    2    0    0  0.44044999944E+03  0.68136646218E+03  0.89807781896E+02  0.11952761553E+04  0.87313412021E+03 0.  0.
         23    2    4    4    0    0  0.62141730189E+03  0.66697328912E+03  0.23512093618E+03  0.94599407698E+03  0.92790665247E+02 0.  0.
         23    2    4    4    0    0 -0.18096730245E+03  0.14393173066E+02 -0.14531315428E+03  0.24928207829E+03  0.89829359138E+02 0.  0.
         11    1    3    3    0    0 -0.32237316017E+03 -0.56766467888E+03 -0.67221460526E+03  0.93703794884E+03  0.00000000000E+00 0. -1.
        -11    1    3    3    0    0 -0.11807683927E+03 -0.11370178331E+03 -0.16751005305E+03  0.23437118716E+03  0.00000000000E+00 0.  1.
          1    1    5    5  502    0  0.46936042710E+03  0.55312044499E+03  0.20345245029E+03  0.75341511581E+03  0.00000000000E+00 0. -1.
          1    1    6    6  503    0 -0.17385802290E+03  0.12112577289E+02 -0.15755690482E+03  0.23494149253E+03  0.00000000000E+00 0. -1.
         -1    1    5    5    0  502  0.15205687479E+03  0.11385284412E+03  0.31668485888E+02  0.19257896117E+03  0.00000000000E+00 0.  1.
         -1    1    6    6    0  503 -0.71092795529E+01  0.22805957773E+01  0.12243750538E+02  0.14340585765E+02  0.00000000000E+00 0.  1.
<mgrwt>
<rscale>  0 0.22447325E+04</rscale>
<asrwt>0</asrwt>
<pdfrwt beam="1">  1        1 0.23973863E+00 0.22447325E+04</pdfrwt>
<pdfrwt beam="2">  1       -1 0.12436680E+00 0.22447325E+04</pdfrwt>
<totfact> 0.30684557E+00</totfact>
</mgrwt>
</event>
<event>
12    1  0.4802930E-008  0.2509541E+04  0.7818608E-02  0.8399594E-01
         -1   -1    0    0    0  501 -0.00000000000E+00  0.00000000000E+00  0.39532823879E+04  0.39532823879E+04  0.00000000000E+00 0. -1.
          1   -1    0    0  501    0  0.00000000000E+00 -0.00000000000E+00 -0.39826373234E+03  0.39826373234E+03  0.00000000000E+00 0.  1.
         23    2    1    2    0    0 -0.25173954596E+02 -0.37660687293E+03  0.32809794683E+04  0.33039015771E+04  0.92048329113E+02 0.  0.
        254    2    1    2    0    0  0.25173954596E+02  0.37660687293E+03  0.27403918729E+03  0.10476445432E+04  0.93808056582E+03 0.  0.
         23    2    4    4    0    0  0.15089156981E+03  0.29295012908E+03  0.59222749251E+03  0.68376537572E+03  0.90629146419E+02 0.  0.
         23    2    4    4    0    0 -0.12571761521E+03  0.83656743853E+02 -0.31818830522E+03  0.36387916747E+03  0.91437855250E+02 0.  0.
         11    1    3    3    0    0 -0.58453582129E+02 -0.19077585544E+03  0.17376876816E+04  0.17491056935E+04  0.00000000000E+00 0. -1.
        -11    1    3    3    0    0  0.33279627533E+02 -0.18583101749E+03  0.15432917867E+04  0.15547958835E+04  0.00000000000E+00 0.  1.
          4    1    5    5  502    0  0.65940074231E+02  0.11754761749E+03  0.15714419662E+03  0.20702616815E+03  0.00000000000E+00 0. -1.
          3    1    6    6  503    0 -0.13261169662E+02 -0.21004416328E+01  0.22558659822E+01  0.13614676169E+02  0.00000000000E+00 0. -1.
         -4    1    5    5    0  502  0.84951495578E+02  0.17540251159E+03  0.43508329588E+03  0.47673920757E+03  0.00000000000E+00 0.  1.
         -3    1    6    6    0  503 -0.11245644555E+03  0.85757185486E+02 -0.32044417120E+03  0.35026449130E+03  0.00000000000E+00 0.  1.
<mgrwt>
<rscale>  0 0.25095410E+04</rscale>
<asrwt>0</asrwt>
<pdfrwt beam="1">  1        1 0.61271346E-01 0.25095410E+04</pdfrwt>
<pdfrwt beam="2">  1       -1 0.60819726E+00 0.25095410E+04</pdfrwt>
<totfact> 0.21561715E-02</totfact>
</mgrwt>
</event>
<event>
12    1  0.4802930E-008  0.1270910E+04  0.7818608E-02  0.9052957E-01
         -3   -1    0    0    0  501 -0.00000000000E+00  0.00000000000E+00  0.50283966573E+03  0.50283966573E+03  0.00000000000E+00 0.  1.
          3   -1    0    0  501    0  0.00000000000E+00 -0.00000000000E+00 -0.80304553018E+03  0.80304553018E+03  0.00000000000E+00 0. -1.
         23    2    1    2    0    0 -0.14721484755E+03 -0.23924851047E+03 -0.21164339025E+03  0.36350459605E+03  0.91818329401E+02 0.  0.
        254    2    1    2    0    0  0.14721484755E+03  0.23924851047E+03 -0.88562474198E+02  0.94238059986E+03  0.89516804124E+03 0.  0.
         23    2    4    4    0    0 -0.31684160298E+03 -0.29234988578E+02 -0.20113060565E+03  0.38712899985E+03  0.90399425125E+02 0.  0.
         23    2    4    4    0    0  0.46405645053E+03  0.26848349904E+03  0.11256813146E+03  0.55525160001E+03  0.90559243373E+02 0.  0.
         11    1    3    3    0    0 -0.13541956306E+03 -0.24206670640E+03 -0.21497738202E+03  0.35092737594E+03  0.00000000000E+00 0. -1.
        -11    1    3    3    0    0 -0.11795284493E+02  0.28181959349E+01  0.33339917656E+01  0.12577220110E+02  0.00000000000E+00 0.  1.
          2    1    5    5  502    0 -0.22805362229E+03  0.10206259661E+01 -0.99469716244E+02  0.24880458349E+03  0.00000000000E+00 0. -1.
          3    1    6    6  503    0  0.29764658549E+03  0.20838951935E+03  0.46134524947E+02  0.36626230494E+03  0.00000000000E+00 0. -1.
         -2    1    5    5    0  502 -0.88787980683E+02 -0.30255614544E+02 -0.10166088941E+03  0.13832441636E+03  0.00000000000E+00 0.  1.
         -3    1    6    6    0  503  0.16640986504E+03  0.60093979695E+02  0.66433606509E+02  0.18898929507E+03  0.00000000000E+00 0.  1.
<mgrwt>
<rscale>  0 0.12709101E+04</rscale>
<asrwt>0</asrwt>
<pdfrwt beam="1">  1        3 0.12354547E+00 0.12709101E+04</pdfrwt>
<pdfrwt beam="2">  1       -3 0.77359949E-01 0.12709101E+04</pdfrwt>
<totfact> 0.21276640E+00</totfact>
</mgrwt>
</event>
<event>
12    1  0.4802930E-008  0.1311194E+04  0.7818608E-02  0.9020735E-01
         -2   -1    0    0    0  501 -0.00000000000E+00  0.00000000000E+00  0.31703317915E+03  0.31703317915E+03  0.00000000000E+00 0.  1.
          2   -1    0    0  501    0  0.00000000000E+00 -0.00000000000E+00 -0.13557168196E+04  0.13557168196E+04  0.00000000000E+00 0. -1.
         23    2    1    2    0    0 -0.66976693381E+02 -0.10133570189E+03  0.13073979505E+03  0.20693033061E+03  0.10474953835E+03 0.  0.
        254    2    1    2    0    0  0.66976693381E+02  0.10133570189E+03 -0.11694234355E+04  0.14658196681E+04  0.87539781015E+03 0.  0.
         23    2    4    4    0    0 -0.33577649230E+03  0.26739526739E+03 -0.58047554242E+03  0.72771022605E+03  0.91456196911E+02 0.  0.
         23    2    4    4    0    0  0.40275318568E+03 -0.16605956550E+03 -0.58894789306E+03  0.73810944204E+03  0.90332828083E+02 0.  0.
         13    1    3    3    0    0 -0.23831952657E+02 -0.39580730690E+01  0.89523547623E+02  0.92725907323E+02  0.00000000000E+00 0.  1.
        -13    1    3    3    0    0 -0.43144740724E+02 -0.97377628822E+02  0.41216247429E+02  0.11420442329E+03  0.00000000000E+00 0. -1.
          3    1    5    5  502    0 -0.32271906235E+03  0.27383720990E+03 -0.55058961758E+03  0.69446622504E+03  0.00000000000E+00 0. -1.
          3    1    6    6  503    0  0.34632655478E+03 -0.15627851196E+03 -0.45732734247E+03  0.59456988994E+03  0.00000000000E+00 0. -1.
         -3    1    5    5    0  502 -0.13057429949E+02 -0.64419425099E+01 -0.29885924835E+02  0.33244001014E+02  0.00000000000E+00 0.  1.
         -3    1    6    6    0  503  0.56426630903E+02 -0.97810535332E+01 -0.13162055058E+03  0.14353955210E+03  0.00000000000E+00 0.  1.
<mgrwt>
<rscale>  0 0.13111937E+04</rscale>
<asrwt>0</asrwt>
<pdfrwt beam="1">  1        2 0.20857182E+00 0.13111937E+04</pdfrwt>
<pdfrwt beam="2">  1       -2 0.48774335E-01 0.13111937E+04</pdfrwt>
<totfact> 0.59806650E+01</totfact>
</mgrwt>
</event>
<event>
12    1  0.4802930E-008  0.2994220E+04  0.7818608E-02  0.8245383E-01
         -2   -1    0    0    0  501 -0.00000000000E+00  0.00000000000E+00  0.15074037898E+04  0.15074037898E+04  0.00000000000E+00 0.  1.
          2   -1    0    0  501    0  0.00000000000E+00 -0.00000000000E+00 -0.14868860088E+04  0.14868860088E+04  0.00000000000E+00 0. -1.
         23    2    1    2    0    0 -0.52235957593E+03 -0.62672993662E+03  0.11011078256E+04  0.13733541332E+04  0.89516430772E+02 0.  0.
        254    2    1    2    0    0  0.52235957593E+03  0.62672993662E+03 -0.10805900447E+04  0.16209356653E+04  0.89112717753E+03 0.  0.
         23    2    4    4    0    0  0.35226478486E+03  0.20622743088E+03 -0.10799510089E+04  0.11583938818E+04  0.94667692108E+02 0.  0.
         23    2    4    4    0    0  0.17009479107E+03  0.42050250573E+03 -0.63903576054E+00  0.46254178352E+03  0.90498054418E+02 0.  0.
         13    1    3    3    0    0 -0.34971846405E+03 -0.47677911121E+03  0.82093531483E+03  0.10117095018E+04  0.00000000000E+00 0.  1.
        -13    1    3    3    0    0 -0.17264111187E+03 -0.14995082540E+03  0.28017251082E+03  0.36164463133E+03  0.00000000000E+00 0. -1.
          4    1    5    5  502    0  0.24298135093E+03  0.10663651656E+03 -0.78161249937E+03  0.82542678823E+03  0.00000000000E+00 0. -1.
          1    1    6    6  503    0  0.16724799941E+03  0.35965289973E+03  0.22748468711E+02  0.39729031503E+03  0.00000000000E+00 0. -1.
         -4    1    5    5    0  502  0.10928343393E+03  0.99590914319E+02 -0.29833850953E+03  0.33296709359E+03  0.00000000000E+00 0.  1.
         -1    1    6    6    0  503  0.28467916581E+01  0.60849606005E+02 -0.23387504471E+02  0.65251468482E+02  0.00000000000E+00 0.  1.
<mgrwt>
<rscale>  0 0.29942195E+04</rscale>
<asrwt>0</asrwt>
<pdfrwt beam="1">  1        2 0.22875169E+00 0.29942195E+04</pdfrwt>
<pdfrwt beam="2">  1       -2 0.23190828E+00 0.29942195E+04</pdfrwt>
<totfact> 0.91990341E-01</totfact>
</mgrwt>
</event>
<event>
12    1  0.4802930E-008  0.1247666E+04  0.7818608E-02  0.9072128E-01
          2   -1    0    0  501    0  0.00000000000E+00  0.00000000000E+00  0.51622041760E+03  0.51622041760E+03  0.00000000000E+00 0. -1.
         -2   -1    0    0    0  501 -0.00000000000E+00 -0.00000000000E+00 -0.75387904434E+03  0.75387904434E+03  0.00000000000E+00 0.  1.
         23    2    1    2    0    0  0.15148908245E+02  0.21057871879E+03  0.14193036547E+03  0.27028566226E+03  0.91308402422E+02 0.  0.
        254    2    1    2    0    0 -0.15148908245E+02 -0.21057871879E+03 -0.37958899221E+03  0.99981379968E+03  0.90053703133E+03 0.  0.
         23    2    4    4    0    0 -0.35212394567E+03  0.47480458452E+02  0.72131892913E+02  0.37355759143E+03  0.89981092973E+02 0.  0.
         23    2    4    4    0    0  0.33697503742E+03 -0.25805917724E+03 -0.45172088512E+03  0.62625620825E+03  0.89433581543E+02 0.  0.
         13    1    3    3    0    0  0.52899992825E+02  0.12734749611E+03  0.74718425584E+02  0.15683952667E+03  0.00000000000E+00 0. -1.
        -13    1    3    3    0    0 -0.37751084580E+02  0.83231222681E+02  0.67211939885E+02  0.11344613558E+03  0.00000000000E+00 0.  1.
          2    1    5    5  502    0 -0.97303145264E+02  0.16204924791E+02 -0.20266467825E+02  0.10070368108E+03  0.00000000000E+00 0. -1.
          4    1    6    6  503    0  0.32890376575E+03 -0.25111306936E+03 -0.45508219529E+03  0.61508963997E+03  0.00000000000E+00 0.  1.
         -2    1    5    5    0  502 -0.25482080040E+03  0.31275533661E+02  0.92398360738E+02  0.27285391035E+03  0.00000000000E+00 0.  1.
         -4    1    6    6    0  503  0.80712716719E+01 -0.69461078856E+01  0.33613101642E+01  0.11166568281E+02  0.00000000000E+00 0. -1.
<mgrwt>
<rscale>  0 0.12476662E+04</rscale>
<asrwt>0</asrwt>
<pdfrwt beam="1">  1        2 0.79418526E-01 0.12476662E+04</pdfrwt>
<pdfrwt beam="2">  1       -2 0.11598139E+00 0.12476662E+04</pdfrwt>
<totfact> 0.33695349E+01</totfact>
</mgrwt>
</event>
<event>
12    1  0.4802930E-008  0.1604105E+04  0.7818608E-02  0.8818030E-01
         -2   -1    0    0    0  501 -0.00000000000E+00  0.00000000000E+00  0.25695557250E+03  0.25695557250E+03  0.00000000000E+00 0.  1.
          2   -1    0    0  501    0  0.00000000000E+00 -0.00000000000E+00 -0.25034996658E+04  0.25034996658E+04  0.00000000000E+00 0. -1.
         23    2    1    2    0    0  0.50887832853E+03 -0.14622633453E+03 -0.95413104285E+03  0.10950669254E+04  0.92012118636E+02 0.  0.
        254    2    1    2    0    0 -0.50887832853E+03  0.14622633453E+03 -0.12924130504E+04  0.16653883129E+04  0.90710939014E+03 0.  0.
         23    2    4    4    0    0  0.15837609606E+03 -0.18956326029E+03 -0.53428207026E+03  0.59697961976E+03  0.99549577347E+02 0.  0.
         23    2    4    4    0    0 -0.66725442459E+03  0.33578959482E+03 -0.75813098018E+03  0.10684086932E+04  0.93549096057E+02 0.  0.
         13    1    3    3    0    0  0.98157827655E+02 -0.41791768544E+02 -0.12842285461E+03  0.16695490599E+03  0.00000000000E+00 0. -1.
        -13    1    3    3    0    0  0.41072050088E+03 -0.10443456598E+03 -0.82570818824E+03  0.92811201939E+03  0.00000000000E+00 0.  1.
          2    1    5    5  502    0  0.14004966139E+02 -0.89649272615E+02 -0.17931694191E+03  0.20096690477E+03  0.00000000000E+00 0. -1.
          1    1    6    6  503    0 -0.56146012777E+03  0.31833952427E+03 -0.65784590740E+03  0.92159577130E+03  0.00000000000E+00 0. -1.
         -2    1    5    5    0  502  0.14437112992E+03 -0.99913987678E+02 -0.35496512835E+03  0.39601271499E+03  0.00000000000E+00 0.  1.
         -1    1    6    6    0  503 -0.10579429682E+03  0.17450070548E+02 -0.10028507278E+03  0.14681292185E+03  0.00000000000E+00 0.  1.
<mgrwt>
<rscale>  0 0.16041050E+04</rscale>
<asrwt>0</asrwt>
<pdfrwt beam="1">  1        2 0.38515378E+00 0.16041050E+04</pdfrwt>
<pdfrwt beam="2">  1       -2 0.39531628E-01 0.16041050E+04</pdfrwt>
<totfact> 0.20146185E+01</totfact>
</mgrwt>
</event>
<event>
12    1  0.4802930E-008  0.1395613E+04  0.7818608E-02  0.8957000E-01
          2   -1    0    0  501    0  0.00000000000E+00  0.00000000000E+00  0.11554833713E+04  0.11554833713E+04  0.00000000000E+00 0. -1.
         -2   -1    0    0    0  501 -0.00000000000E+00 -0.00000000000E+00 -0.42141144530E+03  0.42141144530E+03  0.00000000000E+00 0.  1.
         23    2    1    2    0    0 -0.65977760601E+02 -0.16884438169E+03  0.61865547003E+03  0.65102519748E+03  0.90761925009E+02 0.  0.
        254    2    1    2    0    0  0.65977760601E+02  0.16884438169E+03  0.11541645592E+03  0.92586961907E+03  0.90058431205E+03 0.  0.
         23    2    4    4    0    0 -0.15847344763E+03  0.15106666984E+03 -0.33669026079E+03  0.41276459407E+03  0.95285392728E+02 0.  0.
         23    2    4    4    0    0  0.22445120823E+03  0.17777711842E+02  0.45210671671E+03  0.51310502500E+03  0.90453808507E+02 0.  0.
         13    1    3    3    0    0 -0.38976903792E+01 -0.12627227885E+03  0.41989852965E+03  0.43849134039E+03  0.00000000000E+00 0. -1.
        -13    1    3    3    0    0 -0.62080070222E+02 -0.42572102840E+02  0.19875694039E+03  0.21253385709E+03  0.00000000000E+00 0.  1.
          1    1    5    5  502    0 -0.13124822853E+03  0.15991307959E+03 -0.31495290917E+03  0.37682041546E+03  0.00000000000E+00 0. -1.
          3    1    6    6  503    0  0.16264001000E+03 -0.86234792129E+01  0.23567320805E+03  0.28647512674E+03  0.00000000000E+00 0. -1.
         -1    1    5    5    0  502 -0.27225219099E+02 -0.88464097434E+01 -0.21737351617E+02  0.35944178606E+02  0.00000000000E+00 0.  1.
         -3    1    6    6    0  503  0.61811198224E+02  0.26401191055E+02  0.21643350866E+03  0.22662989826E+03  0.00000000000E+00 0.  1.
<mgrwt>
<rscale>  0 0.13956130E+04</rscale>
<asrwt>0</asrwt>
<pdfrwt beam="1">  1        2 0.17776667E+00 0.13956130E+04</pdfrwt>
<pdfrwt beam="2">  1       -2 0.64832531E-01 0.13956130E+04</pdfrwt>
<totfact> 0.43065851E+01</totfact>
</mgrwt>
</event>
<event>
12    1  0.4802930E-008  0.1200842E+04  0.7818608E-02  0.9112120E-01
          2   -1    0    0  501    0  0.00000000000E+00  0.00000000000E+00  0.94328230865E+03  0.94328230865E+03  0.00000000000E+00 0.  1.
         -2   -1    0    0    0  501 -0.00000000000E+00 -0.00000000000E+00 -0.38218182012E+03  0.38218182012E+03  0.00000000000E+00 0. -1.
         23    2    1    2    0    0  0.20899277942E+03  0.82564804944E+02  0.19720331290E+03  0.31252952777E+03  0.91052898075E+02 0.  0.
        254    2    1    2    0    0 -0.20899277942E+03 -0.82564804944E+02  0.36389717564E+03  0.10129346010E+04  0.91821589105E+03 0.  0.
         23    2    4    4    0    0  0.33892671309E+03  0.25278261198E+01  0.26836122419E+03  0.44300393539E+03  0.96731759917E+02 0.  0.
         23    2    4    4    0    0 -0.54791949251E+03 -0.85092631064E+02  0.95535951454E+02  0.56993066560E+03  0.90759679574E+02 0.  0.
         13    1    3    3    0    0  0.29721997393E+02  0.16671935774E+02 -0.49294324980E+01  0.34433266999E+02  0.00000000000E+00 0. -1.
        -13    1    3    3    0    0  0.17927078203E+03  0.65892869170E+02  0.20213274540E+03  0.27809626078E+03  0.00000000000E+00 0.  1.
          3    1    6    6  502    0 -0.36286367450E+03 -0.48366863679E+02  0.10559353369E+03  0.38099789256E+03  0.00000000000E+00 0.  1.
          3    1    5    5  503    0  0.36436481258E+02 -0.21297532149E+02  0.75152214854E+01  0.42868176963E+02  0.00000000000E+00 0. -1.
         -3    1    5    5    0  503  0.30249023183E+03  0.23825358269E+02  0.26084600270E+03  0.40013575843E+03  0.00000000000E+00 0.  1.
         -3    1    6    6    0  502 -0.18505581801E+03 -0.36725767384E+02 -0.10057582241E+02  0.18893277304E+03  0.00000000000E+00 0. -1.
<mgrwt>
<rscale>  0 0.12008420E+04</rscale>
<asrwt>0</asrwt>
<pdfrwt beam="1">  1        2 0.14512035E+00 0.12008420E+04</pdfrwt>
<pdfrwt beam="2">  1       -2 0.58797203E-01 0.12008420E+04</pdfrwt>
<totfact> 0.73168020E+01</totfact>
</mgrwt>
</event>
<event>
12    1  0.4802930E-008  0.1756231E+04  0.7818608E-02  0.8729928E-01
         -2   -1    0    0    0  501 -0.00000000000E+00  0.00000000000E+00  0.16405086263E+04  0.16405086263E+04  0.00000000000E+00 0. -1.
          2   -1    0    0  501    0  0.00000000000E+00 -0.00000000000E+00 -0.47002897005E+03  0.47002897005E+03  0.00000000000E+00 0.  1.
         23    2    1    2    0    0  0.10573693156E+03  0.41138641897E+03  0.10156279322E+04  0.11051213354E+04  0.96819340696E+02 0.  0.
        254    2    1    2    0    0 -0.10573693156E+03 -0.41138641897E+03  0.15485172402E+03  0.10054162610E+04  0.89803324940E+03 0.  0.
         23    2    4    4    0    0 -0.28308436194E+03  0.19300592163E+03  0.22891385957E+02  0.35545175734E+03  0.91836237315E+02 0.  0.
         23    2    4    4    0    0  0.17734743038E+03 -0.60439234061E+03  0.13196033807E+03  0.64996450366E+03  0.91093977536E+02 0.  0.
         13    1    3    3    0    0 -0.86637910180E+01  0.14918804839E+03  0.36209457237E+03  0.39172007147E+03  0.00000000000E+00 0.  1.
        -13    1    3    3    0    0  0.11440072258E+03  0.26219837058E+03  0.65353335986E+03  0.71340126389E+03  0.00000000000E+00 0. -1.
          2    1    5    5  502    0 -0.22596441314E+03  0.12092586183E+03  0.46570446649E+02  0.26048375490E+03  0.00000000000E+00 0. -1.
          1    1    6    6  503    0  0.11181130210E+03 -0.23319887015E+03  0.36993019119E+02  0.26125076800E+03  0.00000000000E+00 0. -1.
         -2    1    5    5    0  502 -0.57119948798E+02  0.72080059804E+02 -0.23679060693E+02  0.94968002439E+02  0.00000000000E+00 0.  1.
         -1    1    6    6    0  503  0.65536128277E+02 -0.37119347045E+03  0.94967318948E+02  0.38871373565E+03  0.00000000000E+00 0.  1.
<mgrwt>
<rscale>  0 0.17562307E+04</rscale>
<asrwt>0</asrwt>
<pdfrwt beam="1">  1        2 0.72312150E-01 0.17562307E+04</pdfrwt>
<pdfrwt beam="2">  1       -2 0.25238594E+00 0.17562307E+04</pdfrwt>
<totfact> 0.38936978E+00</totfact>
</mgrwt>
</event>
<event>
12    1  0.4802930E-008  0.2090032E+04  0.7818608E-02  0.8565647E-01
          2   -1    0    0  501    0  0.00000000000E+00  0.00000000000E+00  0.19944677438E+04  0.19944677438E+04  0.00000000000E+00 0. -1.
         -2   -1    0    0    0  501 -0.00000000000E+00 -0.00000000000E+00 -0.54754377238E+03  0.54754377238E+03  0.00000000000E+00 0.  1.
         23    2    1    2    0    0 -0.50230835179E+03 -0.67003616293E+03  0.43536448743E+03  0.94830223069E+03  0.92047508950E+02 0.  0.
        254    2    1    2    0    0  0.50230835179E+03  0.67003616293E+03  0.10115594840E+04  0.15937092855E+04  0.90299200280E+03 0.  0.
         23    2    4    4    0    0 -0.22064295622E+02  0.57895086924E+02 -0.14414376407E+03  0.18108036745E+03  0.90410179317E+02 0.  0.
         23    2    4    4    0    0  0.52437264741E+03  0.61214107601E+03  0.11557032481E+04  0.14126289181E+04  0.10093112599E+03 0.  0.
         11    1    3    3    0    0 -0.24659415355E+03 -0.38863703651E+03  0.20615078315E+03  0.50432684650E+03  0.00000000000E+00 0.  1.
        -11    1    3    3    0    0 -0.25571419824E+03 -0.28139912642E+03  0.22921370428E+03  0.44397538419E+03  0.00000000000E+00 0. -1.
          3    1    6    6  502    0  0.92897721366E+02  0.17293940031E+03  0.26247202165E+03  0.32776452670E+03  0.00000000000E+00 0. -1.
          3    1    5    5  503    0 -0.42294264994E+02  0.32555585713E+02 -0.27553808742E+02  0.60065658980E+02  0.00000000000E+00 0. -1.
         -3    1    5    5    0  503  0.20229969372E+02  0.25339501211E+02 -0.11658995533E+03  0.12101470847E+03  0.00000000000E+00 0.  1.
         -3    1    6    6    0  502  0.43147492605E+03  0.43920167570E+03  0.89323122647E+03  0.10848643914E+04  0.00000000000E+00 0.  1.
<mgrwt>
<rscale>  0 0.20900320E+04</rscale>
<asrwt>0</asrwt>
<pdfrwt beam="1">  1        2 0.30684119E+00 0.20900320E+04</pdfrwt>
<pdfrwt beam="2">  1       -2 0.84237504E-01 0.20900320E+04</pdfrwt>
<totfact> 0.76319066E+00</totfact>
</mgrwt>
</event>
<event>
12    1  0.4802930E-008  0.1768625E+04  0.7818608E-02  0.8723165E-01
         -2   -1    0    0    0  501 -0.00000000000E+00  0.00000000000E+00  0.18195024056E+03  0.18195024056E+03  0.00000000000E+00 0.  1.
          2   -1    0    0  501    0  0.00000000000E+00 -0.00000000000E+00 -0.42979259996E+04  0.42979259996E+04  0.00000000000E+00 0. -1.
         23    2    1    2    0    0 -0.44023267591E+02 -0.20148798069E+03 -0.30673500305E+04  0.30760581170E+04  0.10469897416E+03 0.  0.
        254    2    1    2    0    0  0.44023267591E+02  0.20148798069E+03 -0.10486257286E+04  0.14038181232E+04  0.91024938882E+03 0.  0.
         23    2    4    4    0    0  0.31256570546E+03 -0.59684611598E+02 -0.51559936411E+02  0.33470422687E+03  0.90049538349E+02 0.  0.
         23    2    4    4    0    0 -0.26854243786E+03  0.26117259229E+03 -0.99706579214E+03  0.10691138963E+04  0.92402193982E+02 0.  0.
         13    1    3    3    0    0 -0.68724703406E+02 -0.19128457536E+03 -0.25918123005E+04  0.25997699657E+04  0.00000000000E+00 0. -1.
        -13    1    3    3    0    0  0.24701435815E+02 -0.10203405339E+02 -0.47553773000E+03  0.47628815129E+03  0.00000000000E+00 0.  1.
          1    1    5    5  502    0  0.89398117333E+02  0.23391563229E+02 -0.95770300670E+01  0.92902680897E+02  0.00000000000E+00 0. -1.
          3    1    6    6  503    0 -0.13119236390E+03  0.65688255244E+02 -0.39610609219E+03  0.42240551546E+03  0.00000000000E+00 0. -1.
         -1    1    5    5    0  502  0.22316758812E+03 -0.83076174827E+02 -0.41982906344E+02  0.24180154598E+03  0.00000000000E+00 0.  1.
         -3    1    6    6    0  503 -0.13735007396E+03  0.19548433705E+03 -0.60095969995E+03  0.64670838081E+03  0.00000000000E+00 0.  1.
<mgrwt>
<rscale>  0 0.17686251E+04</rscale>
<asrwt>0</asrwt>
<pdfrwt beam="1">  1        2 0.66121944E+00 0.17686251E+04</pdfrwt>
<pdfrwt beam="2">  1       -2 0.27992343E-01 0.17686251E+04</pdfrwt>
<totfact> 0.21455674E+00</totfact>
</mgrwt>
</event>
<event>
12    1  0.4802930E-008  0.2445126E+04  0.7818608E-02  0.8422800E-01
          2   -1    0    0  501    0  0.00000000000E+00  0.00000000000E+00  0.19860687893E+04  0.19860687893E+04  0.00000000000E+00 0. -1.
         -2   -1    0    0    0  501 -0.00000000000E+00 -0.00000000000E+00 -0.75257230983E+03  0.75257230983E+03  0.00000000000E+00 0.  1.
         23    2    1    2    0    0 -0.83779077364E+03 -0.33077853167E+03  0.11426572568E+04  0.14580202670E+04  0.94072710517E+02 0.  0.
        254    2    1    2    0    0  0.83779077364E+03  0.33077853167E+03  0.90839222683E+02  0.12806208322E+04  0.90577598452E+03 0.  0.
         23    2    4    4    0    0  0.46176165658E+02  0.12828110403E+03  0.37622053461E+03  0.41037864618E+03  0.90997047515E+02 0.  0.
         23    2    4    4    0    0  0.79161460798E+03  0.20249742765E+03 -0.28538131192E+03  0.87024218604E+03  0.90664620395E+02 0.  0.
         11    1    3    3    0    0 -0.35957947544E+03 -0.99553606069E+02  0.51079186648E+03  0.63254774563E+03  0.00000000000E+00 0.  1.
        -11    1    3    3    0    0 -0.47821129820E+03 -0.23122492560E+03  0.63186539034E+03  0.82547252133E+03  0.00000000000E+00 0. -1.
          2    1    5    5  502    0  0.96068339814E+01  0.25485770146E+02  0.20863893791E+03  0.21040917792E+03  0.00000000000E+00 0.  1.
          3    1    6    6  503    0  0.25960055552E+02  0.37634954829E+01 -0.28068242287E+02  0.38417634071E+02  0.00000000000E+00 0. -1.
         -2    1    5    5    0  502  0.36569331677E+02  0.10279533388E+03  0.16758159670E+03  0.19996946827E+03  0.00000000000E+00 0. -1.
         -3    1    6    6    0  503  0.76565455243E+03  0.19873393217E+03 -0.25731306964E+03  0.83182455197E+03  0.00000000000E+00 0.  1.
<mgrwt>
<rscale>  0 0.24451261E+04</rscale>
<asrwt>0</asrwt>
<pdfrwt beam="1">  1        2 0.30554904E+00 0.24451261E+04</pdfrwt>
<pdfrwt beam="2">  1       -2 0.11578036E+00 0.24451261E+04</pdfrwt>
<totfact> 0.35341125E+00</totfact>
</mgrwt>
</event>
<event>
12    1  0.4802930E-008  0.1923991E+04  0.7818608E-02  0.8643006E-01
         -2   -1    0    0    0  501 -0.00000000000E+00  0.00000000000E+00  0.81912174173E+03  0.81912174173E+03  0.00000000000E+00 0. -1.
          2   -1    0    0  501    0  0.00000000000E+00 -0.00000000000E+00 -0.11297895818E+04  0.11297895818E+04  0.00000000000E+00 0.  1.
         23    2    1    2    0    0  0.29242430229E+03  0.25681773026E+03 -0.77345689777E+03  0.87293407745E+03  0.11095499863E+03 0.  0.
        254    2    1    2    0    0 -0.29242430229E+03 -0.25681773026E+03  0.46278905773E+03  0.10759772461E+04  0.88999213644E+03 0.  0.
         23    2    4    4    0    0 -0.35030121248E+03  0.14296930252E+03  0.52947186700E+03  0.65717221986E+03  0.91562588905E+02 0.  0.
         23    2    4    4    0    0  0.57876910187E+02 -0.39978703278E+03 -0.66682809265E+02  0.41880502619E+03  0.88156931666E+02 0.  0.
         11    1    3    3    0    0  0.23344295156E+03  0.25265037786E+03 -0.68523835608E+03  0.76673295854E+03  0.00000000000E+00 0.  1.
        -11    1    3    3    0    0  0.58981350727E+02  0.41673523933E+01 -0.88218541689E+02  0.10620111891E+03  0.00000000000E+00 0. -1.
          4    1    5    5  502    0 -0.19147372566E+03  0.29027946112E+02  0.27239571883E+03  0.33422183787E+03  0.00000000000E+00 0. -1.
          1    1    6    6  503    0  0.61833513345E+02 -0.40186327003E+03 -0.60338668889E+02  0.41104528478E+03  0.00000000000E+00 0. -1.
         -4    1    5    5    0  502 -0.15882748681E+03  0.11394135641E+03  0.25707614817E+03  0.32295038199E+03  0.00000000000E+00 0.  1.
         -1    1    6    6    0  503 -0.39566031579E+01  0.20762372549E+01 -0.63441403766E+01  0.77597414136E+01  0.00000000000E+00 0.  1.
<mgrwt>
<rscale>  0 0.19239909E+04</rscale>
<asrwt>0</asrwt>
<pdfrwt beam="1">  1        2 0.17381378E+00 0.19239909E+04</pdfrwt>
<pdfrwt beam="2">  1       -2 0.12601873E+00 0.19239909E+04</pdfrwt>
<totfact> 0.91733581E+00</totfact>
</mgrwt>
</event>
<event>
12    1  0.4802930E-008  0.3165119E+04  0.7818608E-02  0.8198090E-01
          2   -1    0    0  501    0  0.00000000000E+00  0.00000000000E+00  0.21749731943E+04  0.21749731943E+04  0.00000000000E+00 0. -1.
         -2   -1    0    0    0  501 -0.00000000000E+00 -0.00000000000E+00 -0.11515058735E+04  0.11515058735E+04  0.00000000000E+00 0.  1.
         23    2    1    2    0    0 -0.30739310061E+03  0.72145211060E+03 -0.81614368083E+03  0.11352959797E+04  0.88446523794E+02 0.  0.
        254    2    1    2    0    0  0.30739310061E+03 -0.72145211060E+03  0.18396110016E+04  0.21911830882E+04  0.89561767648E+03 0.  0.
         23    2    4    4    0    0 -0.25020138523E+03 -0.50396448794E+03  0.71922974706E+03  0.91766746271E+03  0.90781081680E+02 0.  0.
         23    2    4    4    0    0  0.55759448584E+03 -0.21748762265E+03  0.11203812546E+04  0.12735156255E+04  0.91517299247E+02 0.  0.
         11    1    3    3    0    0 -0.24802224666E+03  0.64259224539E+03 -0.73708777752E+03  0.10088301247E+04  0.00000000000E+00 0.  1.
        -11    1    3    3    0    0 -0.59370853955E+02  0.78859865210E+02 -0.79055903308E+02  0.12646585503E+03  0.00000000000E+00 0. -1.
          2    1    5    5  502    0 -0.86189939000E+02 -0.94034106588E+02  0.18271490254E+03  0.22283593605E+03  0.00000000000E+00 0. -1.
          3    1    6    6  503    0  0.44788873712E+03 -0.19170748832E+03  0.83572734214E+03  0.96736563528E+03  0.00000000000E+00 0. -1.
         -2    1    5    5    0  502 -0.16401144623E+03 -0.40993038136E+03  0.53651484452E+03  0.69483152666E+03  0.00000000000E+00 0.  1.
         -3    1    6    6    0  503  0.10970574872E+03 -0.25780134335E+02  0.28465391244E+03  0.30614999019E+03  0.00000000000E+00 0.  1.
<mgrwt>
<rscale>  0 0.31651189E+04</rscale>
<asrwt>0</asrwt>
<pdfrwt beam="1">  1        2 0.33461126E+00 0.31651189E+04</pdfrwt>
<pdfrwt beam="2">  1       -2 0.17715475E+00 0.31651189E+04</pdfrwt>
<totfact> 0.85481438E-01</totfact>
</mgrwt>
</event>
<event>
12    1  0.4802930E-008  0.1694881E+04  0.7818608E-02  0.8764289E-01
          2   -1    0    0  501    0  0.00000000000E+00  0.00000000000E+00  0.17140479890E+04  0.17140479890E+04  0.00000000000E+00 0. -1.
         -2   -1    0    0    0  501 -0.00000000000E+00 -0.00000000000E+00 -0.41898198731E+03  0.41898198731E+03  0.00000000000E+00 0.  1.
         23    2    1    2    0    0 -0.20480737663E+03 -0.17380705902E+03 -0.21275456592E+03  0.35524235707E+03  0.93689229111E+02 0.  0.
        254    2    1    2    0    0  0.20480737663E+03  0.17380705902E+03  0.15078205676E+04  0.17777876193E+04  0.90269097690E+03 0.  0.
         23    2    4    4    0    0  0.52643813525E+03 -0.53278980640E+02  0.82623249593E+03  0.98563041006E+03  0.93975570640E+02 0.  0.
         23    2    4    4    0    0 -0.32163075862E+03  0.22708603966E+03  0.68158807171E+03  0.79215720922E+03  0.89086083772E+02 0.  0.
         13    1    3    3    0    0  0.65487798079E+00  0.25945704715E+01 -0.26357527911E+02  0.26493016791E+02  0.00000000000E+00 0. -1.
        -13    1    3    3    0    0 -0.20546225461E+03 -0.17640162949E+03 -0.18639703801E+03  0.32874934028E+03  0.00000000000E+00 0.  1.
          2    1    5    5  502    0  0.45443409406E+03 -0.24296100979E+02  0.65441649736E+03  0.79709572723E+03  0.00000000000E+00 0.  1.
          4    1    6    6  503    0 -0.33187960207E+02  0.61158527632E+02  0.95019481579E+02  0.11777312123E+03  0.00000000000E+00 0. -1.
         -2    1    5    5    0  502  0.72004041198E+02 -0.28982879661E+02  0.17181599858E+03  0.18853468283E+03  0.00000000000E+00 0. -1.
         -4    1    6    6    0  503 -0.28844279842E+03  0.16592751203E+03  0.58656859013E+03  0.67438408799E+03  0.00000000000E+00 0.  1.
<mgrwt>
<rscale>  0 0.16948808E+04</rscale>
<asrwt>0</asrwt>
<pdfrwt beam="1">  1        2 0.26369969E+00 0.16948808E+04</pdfrwt>
<pdfrwt beam="2">  1       -2 0.64458768E-01 0.16948808E+04</pdfrwt>
<totfact> 0.20378132E+01</totfact>
</mgrwt>
</event>
<event>
12    1  0.5331973E-008  0.1738371E+04  0.7818608E-02  0.8739778E-01
         -2   -1    0    0    0  501 -0.00000000000E+00  0.00000000000E+00  0.38096675270E+03  0.38096675270E+03  0.00000000000E+00 0.  1.
          2   -1    0    0  501    0  0.00000000000E+00 -0.00000000000E+00 -0.19830683934E+04  0.19830683934E+04  0.00000000000E+00 0. -1.
         23    2    1    2    0    0 -0.28167268650E+03 -0.31680355040E+03  0.49339745760E+02  0.43611139556E+03  0.89748242125E+02 0.  0.
        254    2    1    2    0    0  0.28167268650E+03  0.31680355040E+03 -0.16514413865E+04  0.19279237505E+04  0.89995963416E+03 0.  0.
         23    2    4    4    0    0  0.21763359452E+03 -0.29075006544E+03 -0.69332492302E+03  0.78805940291E+03  0.91859629902E+02 0.  0.
         23    2    4    4    0    0  0.64039091977E+02  0.60755361584E+03 -0.95811646343E+03  0.11398643476E+04  0.89895339553E+02 0.  0.
         13    1    3    3    0    0  0.49447297414E+00  0.41756064763E+01 -0.35202485686E+01  0.54838255763E+01  0.00000000000E+00 0. -1.
        -13    1    3    3    0    0 -0.28216715947E+03 -0.32097915688E+03  0.52859994328E+02  0.43062756999E+03  0.00000000000E+00 0.  1.
          4    1    5    5  502    0  0.21550676304E+03 -0.23542555746E+03 -0.58480909361E+03  0.66623571954E+03  0.00000000000E+00 0. -1.
          1    1    6    6  503    0  0.10617799787E+02  0.43989134390E+03 -0.71943087976E+03  0.84332551417E+03  0.00000000000E+00 0. -1.
         -4    1    5    5    0  502  0.21268314785E+01 -0.55324507988E+02 -0.10851582941E+03  0.12182368337E+03  0.00000000000E+00 0.  1.
         -1    1    6    6    0  503  0.53421292190E+02  0.16766227195E+03 -0.23868558367E+03  0.29653883345E+03  0.00000000000E+00 0.  1.
<mgrwt>
<rscale>  0 0.17383706E+04</rscale>
<asrwt>0</asrwt>
<pdfrwt beam="1">  1        2 0.30508745E+00 0.17383706E+04</pdfrwt>
<pdfrwt beam="2">  1       -2 0.58610269E-01 0.17383706E+04</pdfrwt>
<totfact> 0.17628085E+01</totfact>
</mgrwt>
</event>
<event>
12    1  0.4802930E-008  0.3037329E+04  0.7818608E-02  0.8233151E-01
          2   -1    0    0  501    0  0.00000000000E+00  0.00000000000E+00  0.11593718094E+04  0.11593718094E+04  0.00000000000E+00 0. -1.
         -2   -1    0    0    0  501 -0.00000000000E+00 -0.00000000000E+00 -0.19893028926E+04  0.19893028926E+04  0.00000000000E+00 0.  1.
         23    2    1    2    0    0  0.13212572493E+04 -0.22637551761E+03 -0.59507362007E+03  0.14693505589E+04  0.88948625063E+02 0.  0.
        254    2    1    2    0    0 -0.13212572493E+04  0.22637551761E+03 -0.23485746312E+03  0.16793241431E+04  0.98387242862E+03 0.  0.
         23    2    4    4    0    0 -0.30400962177E+03  0.19495926268E+03 -0.49991672450E+03  0.62387021387E+03  0.94161287598E+02 0.  0.
         23    2    4    4    0    0 -0.10172476275E+04  0.31416254932E+02  0.26505926138E+03  0.10554539292E+04  0.89145206857E+02 0.  0.
         11    1    3    3    0    0  0.83419172512E+03 -0.12888934902E+03 -0.32983231467E+03  0.90624370583E+03  0.00000000000E+00 0. -1.
        -11    1    3    3    0    0  0.48706552414E+03 -0.97486168591E+02 -0.26524130540E+03  0.56310685306E+03  0.00000000000E+00 0.  1.
          1    1    5    5  502    0 -0.23891118380E+03  0.16235166718E+03 -0.45299084403E+03  0.53724977651E+03  0.00000000000E+00 0. -1.
          3    1    6    6  503    0 -0.94665747184E+03  0.47805170993E+02  0.23223525771E+03  0.97589903079E+03  0.00000000000E+00 0. -1.
         -1    1    5    5    0  502 -0.65098437970E+02  0.32607595503E+02 -0.46925880466E+02  0.86620437358E+02  0.00000000000E+00 0.  1.
         -3    1    6    6    0  503 -0.70590155651E+02 -0.16388916061E+02  0.32824003669E+02  0.79554898412E+02  0.00000000000E+00 0.  1.
<mgrwt>
<rscale>  0 0.30373289E+04</rscale>
<asrwt>0</asrwt>
<pdfrwt beam="1">  1        2 0.17836490E+00 0.30373289E+04</pdfrwt>
<pdfrwt beam="2">  1       -2 0.30604659E+00 0.30373289E+04</pdfrwt>
<totfact> 0.49899763E-01</totfact>
</mgrwt>
</event>
<event>
12    1  0.4802930E-008  0.1573317E+04  0.7818608E-02  0.8837110E-01
          2   -1    0    0  501    0  0.00000000000E+00  0.00000000000E+00  0.17140531390E+04  0.17140531390E+04  0.00000000000E+00 0. -1.
         -2   -1    0    0    0  501 -0.00000000000E+00 -0.00000000000E+00 -0.36103411777E+03  0.36103411777E+03  0.00000000000E+00 0.  1.
         23    2    1    2    0    0  0.24484489227E+03 -0.19761201328E+03  0.10246503973E+04  0.10756124738E+04  0.89633855842E+02 0.  0.
        254    2    1    2    0    0 -0.24484489227E+03  0.19761201328E+03  0.32836862401E+03  0.99947478301E+03  0.89001368505E+03 0.  0.
         23    2    4    4    0    0 -0.27040596145E+03 -0.31011453647E+03  0.91602516439E+02  0.43148123672E+03  0.92166300250E+02 0.  0.
         23    2    4    4    0    0  0.25561069181E+02  0.50772654975E+03  0.23676610758E+03  0.56799354630E+03  0.90104724381E+02 0.  0.
         13    1    3    3    0    0  0.67780873749E+02 -0.52448039776E+02  0.16421058938E+03  0.18523002291E+03  0.00000000000E+00 0.  1.
        -13    1    3    3    0    0  0.17706401852E+03 -0.14516397350E+03  0.86043980788E+03  0.89038245088E+03  0.00000000000E+00 0. -1.
          4    1    5    5  502    0 -0.20998260283E+03 -0.26035129310E+03  0.38043855084E+02  0.33663455589E+03  0.00000000000E+00 0. -1.
          4    1    6    6  503    0 -0.26081987396E+02  0.33186840729E+03  0.14689074490E+03  0.36385958935E+03  0.00000000000E+00 0. -1.
         -4    1    5    5    0  502 -0.60423358619E+02 -0.49763243377E+02  0.53558661355E+02  0.94846680829E+02  0.00000000000E+00 0.  1.
         -4    1    6    6    0  503  0.51643056577E+02  0.17585814247E+03  0.89875362671E+02  0.20413395695E+03  0.00000000000E+00 0.  1.
<mgrwt>
<rscale>  0 0.15733171E+04</rscale>
<asrwt>0</asrwt>
<pdfrwt beam="1">  1        2 0.26370048E+00 0.15733171E+04</pdfrwt>
<pdfrwt beam="2">  1       -2 0.55543711E-01 0.15733171E+04</pdfrwt>
<totfact> 0.28186805E+01</totfact>
</mgrwt>
</event>
<event>
12    1  0.4802930E-008  0.1140246E+04  0.7818608E-02  0.9166829E-01
          1   -1    0    0  501    0  0.00000000000E+00  0.00000000000E+00  0.63777574597E+03  0.63777574597E+03  0.00000000000E+00 0. -1.
         -1   -1    0    0    0  501 -0.00000000000E+00 -0.00000000000E+00 -0.50964671988E+03  0.50964671988E+03  0.00000000000E+00 0.  1.
         23    2    1    2    0    0  0.16140574681E+02 -0.35297898595E+02 -0.17147401134E+03  0.19893096546E+03  0.93079174139E+02 0.  0.
        254    2    1    2    0    0 -0.16140574681E+02  0.35297898595E+02  0.29960303742E+03  0.94849150039E+03  0.89909270183E+03 0.  0.
         23    2    4    4    0    0  0.42883674746E+03  0.49778583688E+02  0.18159287898E+03  0.47884034513E+03  0.99665636319E+02 0.  0.
         23    2    4    4    0    0 -0.44497732214E+03 -0.14480685093E+02  0.11801015845E+03  0.46965115526E+03  0.91822125233E+02 0.  0.
         13    1    3    3    0    0  0.64925087910E+01 -0.87463040760E+01  0.10290132731E+02  0.14984569964E+02  0.00000000000E+00 0. -1.
        -13    1    3    3    0    0  0.96480658896E+01 -0.26551594518E+02 -0.18176414407E+03  0.18394639549E+03  0.00000000000E+00 0.  1.
          2    1    5    5  502    0  0.30453403473E+03  0.45144458874E+02  0.79608903298E+02  0.31798832991E+03  0.00000000000E+00 0.  1.
          4    1    6    6  503    0 -0.10739587441E+03  0.28967403714E+02  0.62615871913E+01  0.11141001657E+03  0.00000000000E+00 0. -1.
         -2    1    5    5    0  502  0.12430271273E+03  0.46341248140E+01  0.10198397568E+03  0.16085201522E+03  0.00000000000E+00 0. -1.
         -4    1    6    6    0  503 -0.33758144773E+03 -0.43448088807E+02  0.11174857126E+03  0.35824113869E+03  0.00000000000E+00 0.  1.
<mgrwt>
<rscale>  0 0.11402461E+04</rscale>
<asrwt>0</asrwt>
<pdfrwt beam="1">  1        1 0.98119345E-01 0.11402461E+04</pdfrwt>
<pdfrwt beam="2">  1       -1 0.78407188E-01 0.11402461E+04</pdfrwt>
<totfact> 0.50709512E+01</totfact>
</mgrwt>
</event>
<event>
12    1  0.4802930E-008  0.1675563E+04  0.7818608E-02  0.8775426E-01
         -2   -1    0    0    0  501 -0.00000000000E+00  0.00000000000E+00  0.31315923380E+03  0.31315923380E+03  0.00000000000E+00 0.  1.
          2   -1    0    0  501    0  0.00000000000E+00 -0.00000000000E+00 -0.22412803580E+04  0.22412803580E+04  0.00000000000E+00 0. -1.
         23    2    1    2    0    0 -0.24542611936E+03 -0.35085982872E+02 -0.15018314747E+04  0.15248825820E+04  0.91126857398E+02 0.  0.
        254    2    1    2    0    0  0.24542611936E+03  0.35085982872E+02 -0.42628964954E+03  0.10295570099E+04  0.90376975222E+03 0.  0.
         23    2    4    4    0    0 -0.33387517469E+03 -0.14240682471E+02 -0.19091591318E+03  0.39595513062E+03  0.93038434248E+02 0.  0.
         23    2    4    4    0    0  0.57930129404E+03  0.49326665343E+02 -0.23537373636E+03  0.63360187926E+03  0.89595962186E+02 0.  0.
         11    1    3    3    0    0 -0.20063530291E+03 -0.59163660343E+02 -0.13012473796E+04  0.13179528088E+04  0.00000000000E+00 0. -1.
        -11    1    3    3    0    0 -0.44790816447E+02  0.24077677471E+02 -0.20058409511E+03  0.20692977312E+03  0.00000000000E+00 0.  1.
          1    1    5    5  502    0  0.34494890009E+01 -0.29636578080E+01 -0.14337962469E+02  0.15041921744E+02  0.00000000000E+00 0.  1.
          3    1    6    6  503    0  0.42196373543E+03  0.51783070575E+02 -0.21015812027E+03  0.47423761548E+03  0.00000000000E+00 0. -1.
         -1    1    5    5    0  502 -0.33732466369E+03 -0.11277024663E+02 -0.17657795071E+03  0.38091320887E+03  0.00000000000E+00 0. -1.
         -3    1    6    6    0  503  0.15733755861E+03 -0.24564052320E+01 -0.25215616088E+02  0.15936426378E+03  0.00000000000E+00 0.  1.
<mgrwt>
<rscale>  0 0.16755628E+04</rscale>
<asrwt>0</asrwt>
<pdfrwt beam="1">  1        2 0.34481236E+00 0.16755628E+04</pdfrwt>
<pdfrwt beam="2">  1       -2 0.48178344E-01 0.16755628E+04</pdfrwt>
<totfact> 0.19056925E+01</totfact>
</mgrwt>
</event>
<event>
12    1  0.4802930E-008  0.1858457E+04  0.7818608E-02  0.8675816E-01
         -2   -1    0    0    0  501 -0.00000000000E+00  0.00000000000E+00  0.11560503327E+04  0.11560503327E+04  0.00000000000E+00 0. -1.
          2   -1    0    0  501    0  0.00000000000E+00 -0.00000000000E+00 -0.74691000554E+03  0.74691000554E+03  0.00000000000E+00 0.  1.
         23    2    1    2    0    0 -0.46272896327E+03  0.15756993688E+03  0.68127507530E+03  0.84333935903E+03  0.90217336455E+02 0.  0.
        254    2    1    2    0    0  0.46272896327E+03 -0.15756993688E+03 -0.27213474814E+03  0.10596209792E+04  0.89988494819E+03 0.  0.
         23    2    4    4    0    0  0.46201594380E+03 -0.47229354381E+03 -0.29880953101E+03  0.73084448041E+03  0.91250177349E+02 0.  0.
         23    2    4    4    0    0  0.71301946792E+00  0.31472360693E+03  0.26674782874E+02  0.32877649880E+03  0.91274229475E+02 0.  0.
         13    1    3    3    0    0 -0.22355098428E+03  0.59910698137E+02  0.25062331041E+03  0.34113982184E+03  0.00000000000E+00 0.  1.
        -13    1    3    3    0    0 -0.23917797899E+03  0.97659238747E+02  0.43065176489E+03  0.50219953718E+03  0.00000000000E+00 0. -1.
          4    1    5    5  502    0  0.40437401903E+03 -0.44250309658E+03 -0.24923393855E+03  0.64918787255E+03  0.00000000000E+00 0.  1.
          1    1    6    6  503    0  0.18310619008E+02  0.15646834458E+02 -0.11625445485E+02  0.26744217688E+02  0.00000000000E+00 0. -1.
         -4    1    5    5    0  502  0.57641924778E+02 -0.29790447233E+02 -0.49575592468E+02  0.81656607859E+02  0.00000000000E+00 0. -1.
         -1    1    6    6    0  503 -0.17597599540E+02  0.29907677247E+03  0.38300228359E+02  0.30203228111E+03  0.00000000000E+00 0.  1.
<mgrwt>
<rscale>  0 0.18584570E+04</rscale>
<asrwt>0</asrwt>
<pdfrwt beam="1">  1        2 0.11490923E+00 0.18584570E+04</pdfrwt>
<pdfrwt beam="2">  1       -2 0.17785390E+00 0.18584570E+04</pdfrwt>
<totfact> 0.66438927E+00</totfact>
</mgrwt>
</event>
<event>
12    1  0.4802930E-008  0.1509494E+04  0.7818608E-02  0.8878164E-01
         -2   -1    0    0    0  501 -0.00000000000E+00  0.00000000000E+00  0.68140361647E+03  0.68140361647E+03  0.00000000000E+00 0. -1.
          2   -1    0    0  501    0  0.00000000000E+00 -0.00000000000E+00 -0.83598473669E+03  0.83598473669E+03  0.00000000000E+00 0.  1.
         23    2    1    2    0    0 -0.33243893936E+03 -0.60304514634E+02  0.29207683867E+03  0.45526934931E+03  0.88368647450E+02 0.  0.
        254    2    1    2    0    0  0.33243893936E+03  0.60304514634E+02 -0.44665795889E+03  0.10621190038E+04  0.90246394012E+03 0.  0.
         23    2    4    4    0    0  0.12804445351E+03  0.20376038366E+03 -0.66833505464E+03  0.71627284450E+03  0.91985686282E+02 0.  0.
         23    2    4    4    0    0  0.20439448584E+03 -0.14345586903E+03  0.22167709575E+03  0.34584615935E+03  0.90067413391E+02 0.  0.
         11    1    3    3    0    0 -0.57376837798E+02 -0.13186054531E+02  0.12375750489E+02  0.60159228303E+02  0.00000000000E+00 0.  1.
        -11    1    3    3    0    0 -0.27506210156E+03 -0.47118460104E+02  0.27970108818E+03  0.39511012101E+03  0.00000000000E+00 0. -1.
          2    1    5    5  502    0  0.81714508618E+02  0.16868560078E+03 -0.58780830846E+03  0.61696896221E+03  0.00000000000E+00 0. -1.
          1    1    6    6  503    0  0.21370063851E+03 -0.13768030939E+03  0.20903343701E+03  0.32911822842E+03  0.00000000000E+00 0. -1.
         -2    1    5    5    0  502  0.46329944896E+02  0.35074782885E+02 -0.80526746174E+02  0.99303882290E+02  0.00000000000E+00 0.  1.
         -1    1    6    6    0  503 -0.93061526688E+01 -0.57755596381E+01  0.12643658744E+02  0.16727930926E+02  0.00000000000E+00 0.  1.
<mgrwt>
<rscale>  0 0.15094940E+04</rscale>
<asrwt>0</asrwt>
<pdfrwt beam="1">  1        2 0.12861304E+00 0.15094940E+04</pdfrwt>
<pdfrwt beam="2">  1       -2 0.10483133E+00 0.15094940E+04</pdfrwt>
<totfact> 0.23135136E+01</totfact>
</mgrwt>
</event>
<event>
12    1  0.4802930E-008  0.2974619E+04  0.7818608E-02  0.8251016E-01
          2   -1    0    0  501    0  0.00000000000E+00  0.00000000000E+00  0.25696876370E+04  0.25696876370E+04  0.00000000000E+00 0. -1.
         -2   -1    0    0    0  501 -0.00000000000E+00 -0.00000000000E+00 -0.86083962215E+03  0.86083962215E+03  0.00000000000E+00 0.  1.
         23    2    1    2    0    0  0.13191364982E+04 -0.19460309389E+03  0.54391381937E+03  0.14431285996E+04  0.93736049843E+02 0.  0.
        254    2    1    2    0    0 -0.13191364982E+04  0.19460309389E+03  0.11649341954E+04  0.19873986595E+04  0.90260195379E+03 0.  0.
         23    2    4    4    0    0 -0.46608807091E+01 -0.14768238339E+03 -0.29863098514E+02  0.17617111203E+03  0.91173712690E+02 0.  0.
         23    2    4    4    0    0 -0.13144756175E+04  0.34228547729E+03  0.11947972939E+04  0.18112275475E+04  0.89438012580E+02 0.  0.
         11    1    3    3    0    0  0.98890794956E+03 -0.12796669524E+03  0.44562973985E+03  0.10921997404E+04  0.00000000000E+00 0. -1.
        -11    1    3    3    0    0  0.33022854865E+03 -0.66636398652E+02  0.98284079522E+02  0.35092885925E+03  0.00000000000E+00 0.  1.
          4    1    5    5  502    0  0.76194093935E+01 -0.91321282797E+02 -0.61518298592E+02  0.11037270112E+03  0.00000000000E+00 0. -1.
          1    1    6    6  503    0 -0.86807500989E+02  0.27568478341E+02  0.52990892277E+02  0.10537361098E+03  0.00000000000E+00 0. -1.
         -4    1    5    5    0  502 -0.12280290103E+02 -0.56361100597E+02  0.31655200078E+02  0.65798410904E+02  0.00000000000E+00 0.  1.
         -1    1    6    6    0  503 -0.12276681165E+04  0.31471699895E+03  0.11418064017E+04  0.17058539365E+04  0.00000000000E+00 0.  1.
<mgrwt>
<rscale>  0 0.29746186E+04</rscale>
<asrwt>0</asrwt>
<pdfrwt beam="1">  1        2 0.39533656E+00 0.29746186E+04</pdfrwt>
<pdfrwt beam="2">  1       -2 0.13243687E+00 0.29746186E+04</pdfrwt>
<totfact> 0.11263867E+00</totfact>
</mgrwt>
</event>
<event>
12    1  0.4802930E-008  0.1314256E+04  0.7818608E-02  0.9018336E-01
         -1   -1    0    0    0  501 -0.00000000000E+00  0.00000000000E+00  0.66321322722E+03  0.66321322722E+03  0.00000000000E+00 0.  1.
          1   -1    0    0  501    0  0.00000000000E+00 -0.00000000000E+00 -0.65109868990E+03  0.65109868990E+03  0.00000000000E+00 0. -1.
         23    2    1    2    0    0 -0.81669731157E+02 -0.28859684489E+03  0.29513946432E+03  0.43074065028E+03  0.92044122768E+02 0.  0.
        254    2    1    2    0    0  0.81669731157E+02  0.28859684489E+03 -0.28302492700E+03  0.88357126684E+03  0.78143265252E+03 0.  0.
         23    2    4    4    0    0  0.32240118856E+03  0.33514545207E+03  0.30568407422E+02  0.47451209228E+03  0.89231708263E+02 0.  0.
         23    2    4    4    0    0 -0.24073145740E+03 -0.46548607183E+02 -0.31359333442E+03  0.40905917456E+03  0.94181853290E+02 0.  0.
         11    1    3    3    0    0 -0.97612405503E+02 -0.26826458928E+03  0.28375661794E+03  0.40250700589E+03  0.00000000000E+00 0.  1.
        -11    1    3    3    0    0  0.15942674346E+02 -0.20332255617E+02  0.11382846380E+02  0.28233644389E+02  0.00000000000E+00 0. -1.
          1    1    5    5  502    0  0.18264430911E+03  0.21623824842E+03 -0.21226353563E+02  0.28384587687E+03  0.00000000000E+00 0. -1.
          3    1    6    6  503    0 -0.71119029889E+02  0.22284795814E+02 -0.56811050259E+02  0.93712453646E+02  0.00000000000E+00 0.  1.
         -1    1    5    5    0  502  0.13975687945E+03  0.11890720365E+03  0.51794760986E+02  0.19066621541E+03  0.00000000000E+00 0.  1.
         -3    1    6    6    0  503 -0.16961242751E+03 -0.68833402997E+02 -0.25678228416E+03  0.31534672092E+03  0.00000000000E+00 0. -1.
<mgrwt>
<rscale>  0 0.13142561E+04</rscale>
<asrwt>0</asrwt>
<pdfrwt beam="1">  1        1 0.10016903E+00 0.13142561E+04</pdfrwt>
<pdfrwt beam="2">  1       -1 0.10203280E+00 0.13142561E+04</pdfrwt>
<totfact> 0.27146253E+01</totfact>
</mgrwt>
</event>
<event>
12    1  0.4802930E-008  0.1210779E+04  0.7818608E-02  0.9103474E-01
          2   -1    0    0  501    0  0.00000000000E+00  0.00000000000E+00  0.46675325649E+04  0.46675325649E+04  0.00000000000E+00 0. -1.
         -2   -1    0    0    0  501 -0.00000000000E+00 -0.00000000000E+00 -0.78520392126E+02  0.78520392126E+02  0.00000000000E+00 0.  1.
         23    2    1    2    0    0  0.19203994699E+02 -0.66814513298E+01  0.40017635453E+02  0.10209462448E+03  0.91697688067E+02 0.  0.
        254    2    1    2    0    0 -0.19203994699E+02  0.66814513298E+01  0.45489945374E+04  0.46439583326E+04  0.93412218613E+03 0.  0.
         23    2    4    4    0    0 -0.10420290169E+03 -0.14991595285E+03  0.43742161623E+04  0.43789912031E+04  0.91999377196E+02 0.  0.
         23    2    4    4    0    0  0.84998906990E+02  0.15659740418E+03  0.17477837511E+03  0.26496712945E+03  0.88952448504E+02 0.  0.
         13    1    3    3    0    0  0.41475118580E+02 -0.34503556878E+02  0.86927636498E+01  0.54646546445E+02  0.00000000000E+00 0. -1.
        -13    1    3    3    0    0 -0.22271123881E+02  0.27822105548E+02  0.31324871803E+02  0.47448078038E+02  0.00000000000E+00 0.  1.
          1    1    5    5  502    0 -0.50154425258E+02 -0.20926579823E+02  0.19397613724E+04  0.19405224992E+04  0.00000000000E+00 0. -1.
          3    1    6    6  503    0  0.29791419153E+02  0.44271680608E+01  0.58038222558E+02  0.65387795115E+02  0.00000000000E+00 0. -1.
         -1    1    5    5    0  502 -0.54048476432E+02 -0.12898937303E+03  0.24344547899E+04  0.24384687039E+04  0.00000000000E+00 0.  1.
         -3    1    6    6    0  503  0.55207487837E+02  0.15217023612E+03  0.11674015255E+03  0.19957933433E+03  0.00000000000E+00 0.  1.
<mgrwt>
<rscale>  0 0.12107791E+04</rscale>
<asrwt>0</asrwt>
<pdfrwt beam="1">  1        2 0.71808171E+00 0.12107791E+04</pdfrwt>
<pdfrwt beam="2">  1       -2 0.12080064E-01 0.12107791E+04</pdfrwt>
<totfact> 0.44056950E+00</totfact>
</mgrwt>
</event>
<event>
12    1  0.4802930E-008  0.2103866E+04  0.7818608E-02  0.8559542E-01
         -2   -1    0    0    0  501 -0.00000000000E+00  0.00000000000E+00  0.54797662573E+03  0.54797662573E+03  0.00000000000E+00 0.  1.
          2   -1    0    0  501    0  0.00000000000E+00 -0.00000000000E+00 -0.20193619128E+04  0.20193619128E+04  0.00000000000E+00 0. -1.
         23    2    1    2    0    0 -0.52602789281E+03 -0.46537694822E+03 -0.11998105489E+04  0.13932107567E+04  0.90608009358E+02 0.  0.
        254    2    1    2    0    0  0.52602789281E+03  0.46537694822E+03 -0.27157473820E+03  0.11741277819E+04  0.90085634915E+03 0.  0.
         23    2    4    4    0    0  0.21202986855E+03  0.65975012191E+03 -0.35627812172E+03  0.78413946532E+03  0.87827743538E+02 0.  0.
         23    2    4    4    0    0  0.31399802426E+03 -0.19437317369E+03  0.84703383513E+02  0.38998831656E+03  0.92415009529E+02 0.  0.
         11    1    3    3    0    0 -0.16356480785E+03 -0.97188101309E+02 -0.36037537104E+03  0.40751611189E+03  0.00000000000E+00 0. -1.
        -11    1    3    3    0    0 -0.36246308496E+03 -0.36818884691E+03 -0.83943517787E+03  0.98569464480E+03  0.00000000000E+00 0.  1.
          2    1    5    5  502    0  0.10656072043E+03  0.44074002047E+03 -0.20331804736E+03  0.49693579180E+03  0.00000000000E+00 0. -1.
          3    1    6    6  503    0  0.21225450357E+03 -0.14343555109E+03  0.15131308723E+02  0.25662168284E+03  0.00000000000E+00 0. -1.
         -2    1    5    5    0  502  0.10546914812E+03  0.21901010144E+03 -0.15296007436E+03  0.28720367352E+03  0.00000000000E+00 0.  1.
         -3    1    6    6    0  503  0.10174352069E+03 -0.50937622603E+02  0.69572074790E+02  0.13336663372E+03  0.00000000000E+00 0.  1.
<mgrwt>
<rscale>  0 0.21038661E+04</rscale>
<asrwt>0</asrwt>
<pdfrwt beam="1">  1        2 0.31067106E+00 0.21038661E+04</pdfrwt>
<pdfrwt beam="2">  1       -2 0.84304097E-01 0.21038661E+04</pdfrwt>
<totfact> 0.73705668E+00</totfact>
</mgrwt>
</event>
<event>
12    1  0.4802930E-008  0.2134093E+04  0.7818608E-02  0.8546372E-01
          2   -1    0    0  501    0  0.00000000000E+00  0.00000000000E+00  0.26946648758E+04  0.26946648758E+04  0.00000000000E+00 0. -1.
         -2   -1    0    0    0  501 -0.00000000000E+00 -0.00000000000E+00 -0.42253438403E+03  0.42253438403E+03  0.00000000000E+00 0.  1.
         23    2    1    2    0    0  0.36596339972E+03  0.44243431648E+03  0.19028287122E+04  0.19895784836E+04  0.89376171672E+02 0.  0.
        254    2    1    2    0    0 -0.36596339972E+03 -0.44243431648E+03  0.36930177960E+03  0.11276207763E+04  0.89747839880E+03 0.  0.
         23    2    4    4    0    0 -0.21320608772E+03 -0.70295663126E+03  0.18728155942E+03  0.76330920021E+03  0.89228310219E+02 0.  0.
         23    2    4    4    0    0 -0.15275731200E+03  0.26052231478E+03  0.18202022018E+03  0.36431157605E+03  0.91569050592E+02 0.  0.
         13    1    3    3    0    0  0.36999645854E+03  0.43996883731E+03  0.18686991807E+04  0.19551231637E+04  0.00000000000E+00 0.  1.
        -13    1    3    3    0    0 -0.40330588265E+01  0.24654791695E+01  0.34129531474E+02  0.34455319904E+02  0.00000000000E+00 0. -1.
          1    1    5    5  502    0 -0.31382579494E+02 -0.24239598241E+03  0.50036785808E+02  0.24948819314E+03  0.00000000000E+00 0. -1.
          3    1    6    6  503    0 -0.15458823602E+03  0.26694828282E+03  0.18067896701E+03  0.35749656996E+03  0.00000000000E+00 0. -1.
         -1    1    5    5    0  502 -0.18182350823E+03 -0.46056064886E+03  0.13724477362E+03  0.51382100707E+03  0.00000000000E+00 0.  1.
         -3    1    6    6    0  503  0.18309240198E+01 -0.64259680369E+01  0.13412531645E+01  0.68150060916E+01  0.00000000000E+00 0.  1.
<mgrwt>
<rscale>  0 0.21340933E+04</rscale>
<asrwt>0</asrwt>
<pdfrwt beam="1">  1        2 0.41456382E+00 0.21340933E+04</pdfrwt>
<pdfrwt beam="2">  1       -2 0.65005291E-01 0.21340933E+04</pdfrwt>
<totfact> 0.53693060E+00</totfact>
</mgrwt>
</event>
<event>
12    1  0.4802930E-008  0.1437983E+04  0.7818608E-02  0.8926774E-01
         -1   -1    0    0    0  501 -0.00000000000E+00  0.00000000000E+00  0.12759985418E+03  0.12759985418E+03  0.00000000000E+00 0.  1.
          1   -1    0    0  501    0  0.00000000000E+00 -0.00000000000E+00 -0.40513268232E+04  0.40513268232E+04  0.00000000000E+00 0. -1.
         23    2    1    2    0    0  0.17742357483E+03 -0.17472926083E+03 -0.17941313578E+03  0.31967677873E+03  0.89413254463E+02 0.  0.
        254    2    1    2    0    0 -0.17742357483E+03  0.17472926083E+03 -0.37443138333E+04  0.38592498987E+04  0.90106284959E+03 0.  0.
         23    2    4    4    0    0 -0.21208688195E+03  0.34570147064E+03 -0.74076831530E+03  0.84927694698E+03  0.89684354394E+02 0.  0.
         23    2    4    4    0    0  0.34663307116E+02 -0.17097220981E+03 -0.30035455180E+04  0.30099729517E+04  0.90655667485E+02 0.  0.
         13    1    3    3    0    0  0.10645402166E+03 -0.51191472717E+02 -0.10910568140E+03  0.16080135360E+03  0.00000000000E+00 0. -1.
        -13    1    3    3    0    0  0.70969553176E+02 -0.12353778811E+03 -0.70307454382E+02  0.15887542513E+03  0.00000000000E+00 0.  1.
          4    1    5    5  502    0 -0.48962652172E+02  0.40819571556E+02 -0.70313250459E+02  0.94908018207E+02  0.00000000000E+00 0. -1.
          3    1    6    6  503    0  0.20869975659E+02 -0.18951269684E+02 -0.10844240552E+04  0.10847904120E+04  0.00000000000E+00 0. -1.
         -4    1    5    5    0  502 -0.16312422978E+03  0.30488189908E+03 -0.67045506484E+03  0.75436892877E+03  0.00000000000E+00 0.  1.
         -3    1    6    6    0  503  0.13793331456E+02 -0.15202094012E+03 -0.19191214628E+04  0.19251825397E+04  0.00000000000E+00 0.  1.
<mgrwt>
<rscale>  0 0.14379829E+04</rscale>
<asrwt>0</asrwt>
<pdfrwt beam="1">  1        1 0.62328110E+00 0.14379829E+04</pdfrwt>
<pdfrwt beam="2">  1       -1 0.19630745E-01 0.14379829E+04</pdfrwt>
<totfact> 0.18137594E+00</totfact>
</mgrwt>
</event>
<event>
12    1  0.4802930E-008  0.2439948E+04  0.7818608E-02  0.8424697E-01
          2   -1    0    0  501    0  0.00000000000E+00  0.00000000000E+00  0.14816194598E+04  0.14816194598E+04  0.00000000000E+00 0. -1.
         -2   -1    0    0    0  501 -0.00000000000E+00 -0.00000000000E+00 -0.10045335421E+04  0.10045335421E+04  0.00000000000E+00 0.  1.
         23    2    1    2    0    0  0.82495983134E+03  0.52800327280E+02 -0.46239821941E+03  0.95169646180E+03  0.92560489416E+02 0.  0.
        254    2    1    2    0    0 -0.82495983134E+03 -0.52800327280E+02  0.93948413713E+03  0.15344565401E+04  0.88802017531E+03 0.  0.
         23    2    4    4    0    0 -0.37533497861E+03 -0.11685337965E+03 -0.82803657573E+02  0.41210260324E+03  0.91875194638E+02 0.  0.
         23    2    4    4    0    0 -0.44962485273E+03  0.64053052371E+02  0.10222877947E+04  0.11223539369E+04  0.91327557420E+02 0.  0.
         13    1    3    3    0    0  0.44403596456E+03  0.72575458593E+02 -0.23464662420E+03  0.50743883696E+03  0.00000000000E+00 0. -1.
        -13    1    3    3    0    0  0.38092386678E+03 -0.19775131313E+02 -0.22775159522E+03  0.44425762483E+03  0.00000000000E+00 0.  1.
          2    1    5    5  502    0 -0.90952314564E+01 -0.13134652845E+02  0.11821419683E+02  0.19874312665E+02  0.00000000000E+00 0. -1.
          3    1    6    6  503    0 -0.11945819123E+03  0.55691131401E+02  0.25652541234E+03  0.28840431471E+03  0.00000000000E+00 0. -1.
         -2    1    5    5    0  502 -0.36623974715E+03 -0.10371872681E+03 -0.94625077256E+02  0.39222829058E+03  0.00000000000E+00 0.  1.
         -3    1    6    6    0  503 -0.33016666150E+03  0.83619209708E+01  0.76576238237E+03  0.83394962218E+03  0.00000000000E+00 0.  1.
<mgrwt>
<rscale>  0 0.24399479E+04</rscale>
<asrwt>0</asrwt>
<pdfrwt beam="1">  1        2 0.22794146E+00 0.24399479E+04</pdfrwt>
<pdfrwt beam="2">  1       -2 0.15454362E+00 0.24399479E+04</pdfrwt>
<totfact> 0.32249774E+00</totfact>
</mgrwt>
</event>
<event>
12    1  0.4802930E-008  0.1444354E+04  0.7818608E-02  0.8922324E-01
          1   -1    0    0  501    0  0.00000000000E+00  0.00000000000E+00  0.15672478128E+04  0.15672478128E+04  0.00000000000E+00 0. -1.
         -1   -1    0    0    0  501 -0.00000000000E+00 -0.00000000000E+00 -0.33277412476E+03  0.33277412476E+03  0.00000000000E+00 0.  1.
         23    2    1    2    0    0  0.31161707094E+03  0.25077641267E+03  0.14863403166E+03  0.43548287229E+03  0.86943939618E+02 0.  0.
        254    2    1    2    0    0 -0.31161707094E+03 -0.25077641267E+03  0.10858396563E+04  0.14645390652E+04  0.89768196274E+03 0.  0.
         23    2    4    4    0    0  0.13340424431E+03 -0.45468166570E+03  0.48258728299E+03  0.68231260734E+03  0.90154860701E+02 0.  0.
         23    2    4    4    0    0 -0.44502131525E+03  0.20390525303E+03  0.60325237336E+03  0.78222645789E+03  0.91342663758E+02 0.  0.
         13    1    3    3    0    0  0.95488042551E+01  0.25398136588E+02 -0.65307279989E+01  0.27908697803E+02  0.00000000000E+00 0. -1.
        -13    1    3    3    0    0  0.30206826669E+03  0.22537827608E+03  0.15516475966E+03  0.40757417448E+03  0.00000000000E+00 0.  1.
          4    1    5    5  502    0 -0.16977334856E+01 -0.13555871509E+03  0.12620730906E+03  0.18522238632E+03  0.00000000000E+00 0. -1.
          1    1    6    6  503    0 -0.95487021610E+02  0.53512055346E+02  0.81551868924E+02  0.13649915270E+03  0.00000000000E+00 0. -1.
         -4    1    5    5    0  502  0.13510197779E+03 -0.31912295061E+03  0.35637997393E+03  0.49709022101E+03  0.00000000000E+00 0.  1.
         -1    1    6    6    0  503 -0.34953429364E+03  0.15039319768E+03  0.52170050444E+03  0.64572730519E+03  0.00000000000E+00 0.  1.
<mgrwt>
<rscale>  0 0.14443539E+04</rscale>
<asrwt>0</asrwt>
<pdfrwt beam="1">  1        1 0.24111504E+00 0.14443539E+04</pdfrwt>
<pdfrwt beam="2">  1       -1 0.51196020E-01 0.14443539E+04</pdfrwt>
<totfact> 0.21909529E+01</totfact>
</mgrwt>
</event>
<event>
12    1  0.4802930E-008  0.1141465E+04  0.7818608E-02  0.9165694E-01
          2   -1    0    0  501    0  0.00000000000E+00  0.00000000000E+00  0.29247507392E+04  0.29247507392E+04  0.00000000000E+00 0. -1.
         -2   -1    0    0    0  501 -0.00000000000E+00 -0.00000000000E+00 -0.11137204439E+03  0.11137204439E+03  0.00000000000E+00 0.  1.
         23    2    1    2    0    0  0.18040547670E+03 -0.46480666643E+02  0.36920825329E+03  0.42372062000E+03  0.92292150898E+02 0.  0.
        254    2    1    2    0    0 -0.18040547670E+03  0.46480666643E+02  0.24441704415E+04  0.26124021636E+04  0.90331020629E+03 0.  0.
         23    2    4    4    0    0  0.33151726367E+03  0.10851077518E+03  0.64712581819E+03  0.74059391400E+03  0.89606006713E+02 0.  0.
         23    2    4    4    0    0 -0.51192274036E+03 -0.62030108535E+02  0.17970446233E+04  0.18718082496E+04  0.91564832703E+02 0.  0.
         11    1    3    3    0    0  0.15940354001E+03 -0.44031301076E+02  0.23208454887E+03  0.28497628299E+03  0.00000000000E+00 0.  1.
        -11    1    3    3    0    0  0.21001936681E+02 -0.24493655673E+01  0.13712370443E+03  0.13874433701E+03  0.00000000000E+00 0. -1.
          2    1    5    5  502    0  0.11601942281E+03  0.84044459620E+02  0.25935356141E+03  0.29629081572E+03  0.00000000000E+00 0. -1.
          3    1    6    6  503    0 -0.14041377024E+03 -0.10712503063E+02  0.35812318806E+03  0.38481554337E+03  0.00000000000E+00 0. -1.
         -2    1    5    5    0  502  0.21549784086E+03  0.24466315558E+02  0.38777225678E+03  0.44430309828E+03  0.00000000000E+00 0.  1.
         -3    1    6    6    0  503 -0.37150897013E+03 -0.51317605471E+02  0.14389214352E+04  0.14869927062E+04  0.00000000000E+00 0.  1.
<mgrwt>
<rscale>  0 0.11414648E+04</rscale>
<asrwt>0</asrwt>
<pdfrwt beam="1">  1        2 0.44996159E+00 0.11414648E+04</pdfrwt>
<pdfrwt beam="2">  1       -2 0.17134163E-01 0.11414648E+04</pdfrwt>
<totfact> 0.54571715E+01</totfact>
</mgrwt>
</event>
<event>
12    1  0.4802930E-008  0.2560666E+04  0.7818608E-02  0.8381686E-01
          2   -1    0    0  501    0  0.00000000000E+00  0.00000000000E+00  0.13864981687E+04  0.13864981687E+04  0.00000000000E+00 0. -1.
         -2   -1    0    0    0  501 -0.00000000000E+00 -0.00000000000E+00 -0.11822971675E+04  0.11822971675E+04  0.00000000000E+00 0.  1.
         23    2    1    2    0    0  0.39167187239E+03  0.10452656556E+04  0.16276443150E+03  0.11317278093E+04  0.91260220751E+02 0.  0.
        254    2    1    2    0    0 -0.39167187239E+03 -0.10452656556E+04  0.41436569759E+02  0.14370675269E+04  0.90413436014E+03 0.  0.
         23    2    4    4    0    0 -0.55434546060E+03 -0.10991393728E+04  0.90373651929E+02  0.12372943241E+04  0.85578016478E+02 0.  0.
         23    2    4    4    0    0  0.16267358822E+03  0.53873717242E+02 -0.48937082170E+02  0.19977320280E+03  0.90274142659E+02 0.  0.
         11    1    3    3    0    0  0.13385874187E+03  0.46986049932E+03  0.93367102500E+02  0.49739769544E+03  0.00000000000E+00 0. -1.
        -11    1    3    3    0    0  0.25781313052E+03  0.57540515626E+03  0.69397328996E+02  0.63433011389E+03  0.00000000000E+00 0.  1.
          2    1    5    5  502    0 -0.36867488479E+03 -0.74275263328E+03  0.20902606279E+02  0.82948150303E+03  0.00000000000E+00 0. -1.
          1    1    6    6  503    0  0.83046399022E+02  0.36683046967E+02 -0.71140241300E+02  0.11533986413E+03  0.00000000000E+00 0. -1.
         -2    1    5    5    0  502 -0.18567057581E+03 -0.35638673954E+03  0.69471045650E+02  0.40781282106E+03  0.00000000000E+00 0.  1.
         -1    1    6    6    0  503  0.79627189194E+02  0.17190670275E+02  0.22203159130E+02  0.84433338669E+02  0.00000000000E+00 0.  1.
<mgrwt>
<rscale>  0 0.25606662E+04</rscale>
<asrwt>0</asrwt>
<pdfrwt beam="1">  1        2 0.21330741E+00 0.25606662E+04</pdfrwt>
<pdfrwt beam="2">  1       -2 0.18189187E+00 0.25606662E+04</pdfrwt>
<totfact> 0.23005646E+00</totfact>
</mgrwt>
</event>
<event>
12    1  0.6334671E-008  0.1432961E+04  0.7818608E-02  0.8930299E-01
         -2   -1    0    0    0  501 -0.00000000000E+00  0.00000000000E+00  0.52625950389E+03  0.52625950389E+03  0.00000000000E+00 0. -1.
          2   -1    0    0  501    0  0.00000000000E+00 -0.00000000000E+00 -0.97545908464E+03  0.97545908464E+03  0.00000000000E+00 0.  1.
         23    2    1    2    0    0 -0.79332130464E+02 -0.11512083475E+03  0.28425523688E+03  0.32932980717E+03  0.90059361958E+02 0.  0.
        254    2    1    2    0    0  0.79332130464E+02  0.11512083475E+03 -0.73345481764E+03  0.11723887814E+04  0.90387670155E+03 0.  0.
         23    2    4    4    0    0  0.83575413142E+02  0.48677058932E+03 -0.26622025340E+03  0.56810304467E+03  0.89092029611E+02 0.  0.
         23    2    4    4    0    0 -0.42432826780E+01 -0.37164975457E+03 -0.46723456424E+03  0.60428573668E+03  0.93335780999E+02 0.  0.
         11    1    3    3    0    0 -0.13654687810E+01  0.65936286136E+01 -0.32930532994E+01  0.74956416216E+01  0.00000000000E+00 0.  1.
        -11    1    3    3    0    0 -0.77966661683E+02 -0.12171446337E+03  0.28754829018E+03  0.32183416555E+03  0.00000000000E+00 0. -1.
          3    1    5    5  502    0  0.95554991595E+02  0.33567394987E+03 -0.20401093194E+03  0.40426255997E+03  0.00000000000E+00 0. -1.
          3    1    6    6  503    0 -0.36212462556E+02 -0.23719056677E+03 -0.24759757964E+03  0.34478293005E+03  0.00000000000E+00 0. -1.
         -3    1    5    5    0  502 -0.11979578453E+02  0.15109663945E+03 -0.62209321460E+02  0.16384048471E+03  0.00000000000E+00 0.  1.
         -3    1    6    6    0  503  0.31969179878E+02 -0.13445918780E+03 -0.21963698460E+03  0.25950280663E+03  0.00000000000E+00 0.  1.
<mgrwt>
<rscale>  0 0.14329614E+04</rscale>
<asrwt>0</asrwt>
<pdfrwt beam="1">  1        2 0.15007063E+00 0.14329614E+04</pdfrwt>
<pdfrwt beam="2">  1       -2 0.80963002E-01 0.14329614E+04</pdfrwt>
<totfact> 0.34143390E+01</totfact>
</mgrwt>
</event>
<event>
12    1  0.4802930E-008  0.1421725E+04  0.7818608E-02  0.8938242E-01
          2   -1    0    0  501    0  0.00000000000E+00  0.00000000000E+00  0.19498828496E+04  0.19498828496E+04  0.00000000000E+00 0. -1.
         -2   -1    0    0    0  501 -0.00000000000E+00 -0.00000000000E+00 -0.25915674412E+03  0.25915674412E+03  0.00000000000E+00 0.  1.
         23    2    1    2    0    0 -0.58211552105E+01  0.95744038199E+02  0.11411700429E+04  0.11487761018E+04  0.90645785914E+02 0.  0.
        254    2    1    2    0    0  0.58211552105E+01 -0.95744038199E+02  0.54955606255E+03  0.10602634919E+04  0.90163518106E+03 0.  0.
         23    2    4    4    0    0 -0.41077482216E+03 -0.35808349577E+02  0.45237868525E+03  0.61872744626E+03  0.90327102599E+02 0.  0.
         23    2    4    4    0    0  0.41659597737E+03 -0.59935688622E+02  0.97177377301E+02  0.44153604567E+03  0.91466615951E+02 0.  0.
         11    1    3    3    0    0  0.31109741018E+02  0.86354337469E+02  0.70616926819E+03  0.71210948802E+03  0.00000000000E+00 0. -1.
        -11    1    3    3    0    0 -0.36930896228E+02  0.93897007305E+01  0.43500077469E+03  0.43666661374E+03  0.00000000000E+00 0.  1.
          3    1    5    5  502    0 -0.31182707680E+03 -0.11967279589E+02  0.38951037897E+03  0.49909686127E+03  0.00000000000E+00 0. -1.
          3    1    6    6  503    0  0.61311569356E+02 -0.34550944218E+02 -0.61953591310E+01  0.70648841166E+02  0.00000000000E+00 0. -1.
         -3    1    5    5    0  502 -0.98947745353E+02 -0.23841069988E+02  0.62868306285E+02  0.11963058498E+03  0.00000000000E+00 0.  1.
         -3    1    6    6    0  503  0.35528440801E+03 -0.25384744404E+02  0.10337273643E+03  0.37088720450E+03  0.00000000000E+00 0.  1.
<mgrwt>
<rscale>  0 0.14217247E+04</rscale>
<asrwt>0</asrwt>
<pdfrwt beam="1">  1        2 0.29998197E+00 0.14217247E+04</pdfrwt>
<pdfrwt beam="2">  1       -2 0.39870270E-01 0.14217247E+04</pdfrwt>
<totfact> 0.41222442E+01</totfact>
</mgrwt>
</event>
<event>
12    1  0.4802930E-008  0.1872617E+04  0.7818608E-02  0.8668608E-01
          1   -1    0    0  501    0  0.00000000000E+00  0.00000000000E+00  0.27270781607E+04  0.27270781607E+04  0.00000000000E+00 0. -1.
         -1   -1    0    0    0  501 -0.00000000000E+00 -0.00000000000E+00 -0.32146981040E+03  0.32146981040E+03  0.00000000000E+00 0.  1.
         23    2    1    2    0    0  0.29673831661E+03 -0.27785159763E+03 -0.35556686261E+02  0.41809492517E+03  0.91016205481E+02 0.  0.
        254    2    1    2    0    0 -0.29673831661E+03  0.27785159763E+03  0.24411650366E+04  0.26304530460E+04  0.89148267078E+03 0.  0.
         23    2    4    4    0    0 -0.21283229834E+03 -0.30321760916E+03  0.10560637293E+04  0.11233712635E+04  0.97231114164E+02 0.  0.
         23    2    4    4    0    0 -0.83906018273E+02  0.58106920679E+03  0.13851013073E+04  0.15070817825E+04  0.90045680837E+02 0.  0.
         13    1    3    3    0    0  0.93568877308E+02 -0.48118554570E+02  0.18071862243E+02  0.10675730560E+03  0.00000000000E+00 0. -1.
        -13    1    3    3    0    0  0.20316943931E+03 -0.22973304306E+03 -0.53628548505E+02  0.31133761956E+03  0.00000000000E+00 0.  1.
          2    1    5    5  502    0 -0.13895131876E+03 -0.11356954977E+03  0.49975657247E+03  0.53100107660E+03  0.00000000000E+00 0.  1.
          4    1    6    6  503    0 -0.76717039763E+02  0.54815150512E+03  0.13466271880E+04  0.14559396829E+04  0.00000000000E+00 0. -1.
         -2    1    5    5    0  502 -0.73880979582E+02 -0.18964805940E+03  0.55630715679E+03  0.59237018685E+03  0.00000000000E+00 0. -1.
         -4    1    6    6    0  503 -0.71889785107E+01  0.32917701677E+02  0.38474119318E+02  0.51142099615E+02  0.00000000000E+00 0.  1.
<mgrwt>
<rscale>  0 0.18726167E+04</rscale>
<asrwt>0</asrwt>
<pdfrwt beam="1">  1        1 0.41955047E+00 0.18726167E+04</pdfrwt>
<pdfrwt beam="2">  1       -1 0.49456896E-01 0.18726167E+04</pdfrwt>
<totfact> 0.36145270E+00</totfact>
</mgrwt>
</event>
<event>
12    1  0.4802930E-008  0.1897912E+04  0.7818608E-02  0.8655897E-01
          2   -1    0    0  501    0  0.00000000000E+00  0.00000000000E+00  0.16820400853E+04  0.16820400853E+04  0.00000000000E+00 0. -1.
         -2   -1    0    0    0  501 -0.00000000000E+00 -0.00000000000E+00 -0.53537200306E+03  0.53537200306E+03  0.00000000000E+00 0.  1.
         23    2    1    2    0    0  0.35291156300E+03 -0.40526999529E+03 -0.14088739974E+03  0.56285228134E+03  0.90349824689E+02 0.  0.
        254    2    1    2    0    0 -0.35291156300E+03  0.40526999529E+03  0.12875554820E+04  0.16545598070E+04  0.88936983051E+03 0.  0.
         23    2    4    4    0    0 -0.35037296402E+03  0.57217419093E+03  0.12920971356E+04  0.14593358982E+04  0.10000868545E+03 0.  0.
         23    2    4    4    0    0 -0.25385989799E+01 -0.16690419564E+03 -0.45416535967E+01  0.19522390887E+03  0.10113502346E+03 0.  0.
         13    1    3    3    0    0  0.32740610108E+03 -0.34020196951E+03 -0.14169250220E+03  0.49295932922E+03  0.00000000000E+00 0.  1.
        -13    1    3    3    0    0  0.25505461926E+02 -0.65068025779E+02  0.80510245734E+00  0.69892952125E+02  0.00000000000E+00 0. -1.
          3    1    6    6  502    0  0.49021324678E+02 -0.76216486321E+02 -0.68439159632E+01  0.90878392624E+02  0.00000000000E+00 0. -1.
          3    1    5    5  503    0 -0.14537329900E+03  0.15448714631E+03  0.36988951482E+03  0.42640113462E+03  0.00000000000E+00 0. -1.
         -3    1    5    5    0  503 -0.20499966502E+03  0.41768704462E+03  0.92220762079E+03  0.10329347635E+04  0.00000000000E+00 0.  1.
         -3    1    6    6    0  502 -0.51559923658E+02 -0.90687709314E+02  0.23022623665E+01  0.10434551624E+03  0.00000000000E+00 0.  1.
<mgrwt>
<rscale>  0 0.18979117E+04</rscale>
<asrwt>0</asrwt>
<pdfrwt beam="1">  1        2 0.25877540E+00 0.18979117E+04</pdfrwt>
<pdfrwt beam="2">  1       -2 0.82364924E-01 0.18979117E+04</pdfrwt>
<totfact> 0.12166097E+01</totfact>
</mgrwt>
</event>
<event>
12    1  0.4802930E-008  0.2318755E+04  0.7818608E-02  0.8470563E-01
         -2   -1    0    0    0  501 -0.00000000000E+00  0.00000000000E+00  0.51384136625E+03  0.51384136625E+03  0.00000000000E+00 0.  1.
          2   -1    0    0  501    0  0.00000000000E+00 -0.00000000000E+00 -0.26158964987E+04  0.26158964987E+04  0.00000000000E+00 0. -1.
         23    2    1    2    0    0 -0.62529613616E+03  0.35417184966E+03  0.30019798457E+01  0.72485324384E+03  0.94711436648E+02 0.  0.
        254    2    1    2    0    0  0.62529613616E+03 -0.35417184966E+03 -0.21050571123E+04  0.24048846211E+04  0.91420546808E+03 0.  0.
         23    2    4    4    0    0  0.54857672276E+03 -0.26566962766E+03 -0.50151177004E+03  0.79448993619E+03  0.90462320323E+02 0.  0.
         23    2    4    4    0    0  0.76719413394E+02 -0.88502222001E+02 -0.16035453423E+04  0.16103946849E+04  0.91076148797E+02 0.  0.
         11    1    3    3    0    0 -0.89809925364E+01  0.19332430728E+02 -0.95098593041E+01  0.23341776470E+02  0.00000000000E+00 0. -1.
        -11    1    3    3    0    0 -0.61631514362E+03  0.33483941893E+03  0.12511839150E+02  0.70151146737E+03  0.00000000000E+00 0.  1.
          2    1    5    5  502    0  0.22057513448E+03 -0.67417283805E+02 -0.22202605585E+03  0.32014691875E+03  0.00000000000E+00 0. -1.
          4    1    6    6  503    0  0.45992376373E+01 -0.10108060647E+02 -0.17178605768E+02  0.20455570709E+02  0.00000000000E+00 0. -1.
         -2    1    5    5    0  502  0.32800158829E+03 -0.19825234385E+03 -0.27948571419E+03  0.47434301744E+03  0.00000000000E+00 0.  1.
         -4    1    6    6    0  503  0.72120175757E+02 -0.78394161354E+02 -0.15863667365E+04  0.15899391142E+04  0.00000000000E+00 0.  1.
<mgrwt>
<rscale>  0 0.23187547E+04</rscale>
<asrwt>0</asrwt>
<pdfrwt beam="1">  1        2 0.40244561E+00 0.23187547E+04</pdfrwt>
<pdfrwt beam="2">  1       -2 0.79052519E-01 0.23187547E+04</pdfrwt>
<totfact> 0.38282563E+00</totfact>
</mgrwt>
</event>
<event>
12    1  0.4802930E-008  0.1747092E+04  0.7818608E-02  0.8734953E-01
          2   -1    0    0  501    0  0.00000000000E+00  0.00000000000E+00  0.18652060584E+04  0.18652060584E+04  0.00000000000E+00 0. -1.
         -2   -1    0    0    0  501 -0.00000000000E+00 -0.00000000000E+00 -0.40911425635E+03  0.40911425635E+03  0.00000000000E+00 0.  1.
         23    2    1    2    0    0 -0.21982695753E+03  0.14380494243E+03  0.12959648300E+04  0.13255796953E+04  0.92913589604E+02 0.  0.
        254    2    1    2    0    0  0.21982695753E+03 -0.14380494243E+03  0.16012697202E+03  0.94874061948E+03  0.89747666441E+03 0.  0.
         23    2    4    4    0    0 -0.22181817488E+03 -0.26096037415E+02  0.36676058431E+03  0.43910800750E+03  0.91750804739E+02 0.  0.
         23    2    4    4    0    0  0.44164513241E+03 -0.11770890501E+03 -0.20663361229E+03  0.50963261199E+03  0.90122917033E+02 0.  0.
         13    1    3    3    0    0 -0.16912608100E+03  0.77427910539E+02  0.10347624793E+04  0.10513477546E+04  0.00000000000E+00 0. -1.
        -13    1    3    3    0    0 -0.50700876528E+02  0.66377031886E+02  0.26120235076E+03  0.27423194067E+03  0.00000000000E+00 0.  1.
          4    1    5    5  502    0 -0.75509639508E+02 -0.45557059574E+02  0.18518261871E+03  0.20510912609E+03  0.00000000000E+00 0. -1.
          1    1    6    6  503    0  0.75309494478E+01  0.20802981364E+01  0.76301666538E+01  0.10920727223E+02  0.00000000000E+00 0. -1.
         -4    1    5    5    0  502 -0.14630853537E+03  0.19461022159E+02  0.18157796560E+03  0.23399888140E+03  0.00000000000E+00 0.  1.
         -1    1    6    6    0  503  0.43411418296E+03 -0.11978920315E+03 -0.21426377894E+03  0.49871188476E+03  0.00000000000E+00 0.  1.
<mgrwt>
<rscale>  0 0.17470917E+04</rscale>
<asrwt>0</asrwt>
<pdfrwt beam="1">  1        2 0.28695477E+00 0.17470917E+04</pdfrwt>
<pdfrwt beam="2">  1       -2 0.62940656E-01 0.17470917E+04</pdfrwt>
<totfact> 0.17604697E+01</totfact>
</mgrwt>
</event>
<event>
12    1  0.4802930E-008  0.1613630E+04  0.7818608E-02  0.8812218E-01
          1   -1    0    0  501    0  0.00000000000E+00  0.00000000000E+00  0.54123664835E+03  0.54123664835E+03  0.00000000000E+00 0. -1.
         -1   -1    0    0    0  501 -0.00000000000E+00 -0.00000000000E+00 -0.12027097866E+04  0.12027097866E+04  0.00000000000E+00 0.  1.
         23    2    1    2    0    0 -0.29210023915E+03  0.65218169124E+02 -0.73933067445E+03  0.80269429713E+03  0.90179427651E+02 0.  0.
        254    2    1    2    0    0  0.29210023915E+03 -0.65218169124E+02  0.77857536216E+02  0.94125213781E+03  0.88899821805E+03 0.  0.
         23    2    4    4    0    0  0.36876464286E+03 -0.22782998905E+03  0.37599641245E+03  0.58076656879E+03  0.89569188434E+02 0.  0.
         23    2    4    4    0    0 -0.76664403709E+02  0.16261181993E+03 -0.29813887624E+03  0.36048556902E+03  0.93504123808E+02 0.  0.
         11    1    3    3    0    0 -0.12723479372E+03  0.25063981386E+02 -0.20982688202E+03  0.24666620424E+03  0.00000000000E+00 0. -1.
        -11    1    3    3    0    0 -0.16486544544E+03  0.40154187738E+02 -0.52950379243E+03  0.55602809290E+03  0.00000000000E+00 0.  1.
          1    1    5    5  502    0  0.72997794029E+02 -0.46410422445E+02  0.12713996201E+03  0.15377638045E+03  0.00000000000E+00 0. -1.
          1    1    6    6  503    0  0.19594278842E+02  0.43710304638E+02 -0.92693407498E+02  0.10433884362E+03  0.00000000000E+00 0. -1.
         -1    1    5    5    0  502  0.29576684883E+03 -0.18141956661E+03  0.24885645045E+03  0.42699018835E+03  0.00000000000E+00 0.  1.
         -1    1    6    6    0  503 -0.96258682551E+02  0.11890151529E+03 -0.20544546874E+03  0.25614672539E+03  0.00000000000E+00 0.  1.
<mgrwt>
<rscale>  0 0.16136302E+04</rscale>
<asrwt>0</asrwt>
<pdfrwt beam="1">  1        1 0.83267178E-01 0.16136302E+04</pdfrwt>
<pdfrwt beam="2">  1       -1 0.18503227E+00 0.16136302E+04</pdfrwt>
<totfact> 0.72847648E+00</totfact>
</mgrwt>
</event>
<event>
12    1  0.4802930E-008  0.1246900E+04  0.7818608E-02  0.9072767E-01
          2   -1    0    0  501    0  0.00000000000E+00  0.00000000000E+00  0.42691902888E+03  0.42691902888E+03  0.00000000000E+00 0. -1.
         -2   -1    0    0    0  501 -0.00000000000E+00 -0.00000000000E+00 -0.91045417105E+03  0.91045417105E+03  0.00000000000E+00 0.  1.
         23    2    1    2    0    0  0.23969654778E+03  0.14202204763E+03 -0.30922817501E+02  0.29453044489E+03  0.90372923451E+02 0.  0.
        254    2    1    2    0    0 -0.23969654778E+03 -0.14202204763E+03 -0.45261232467E+03  0.10428427550E+04  0.89723932051E+03 0.  0.
         23    2    4    4    0    0  0.11386301919E+03  0.22310126368E+01 -0.60471010075E+03  0.62237804312E+03  0.93329298983E+02 0.  0.
         23    2    4    4    0    0 -0.35355956698E+03 -0.14425306027E+03  0.15209777608E+03  0.42046471193E+03  0.88563692835E+02 0.  0.
         11    1    3    3    0    0  0.16998011778E+03  0.13698538516E+03 -0.45815379402E+02  0.22306341066E+03  0.00000000000E+00 0. -1.
        -11    1    3    3    0    0  0.69716430007E+02  0.50366624759E+01  0.14892561901E+02  0.71467034231E+02  0.00000000000E+00 0.  1.
          1    1    6    6  502    0 -0.12141115214E+03 -0.15285667942E+02  0.20478840732E+02  0.12407136022E+03  0.00000000000E+00 0. -1.
          1    1    5    5  503    0  0.12211474686E+03 -0.19361352574E+02 -0.52656037370E+03  0.54088141078E+03  0.00000000000E+00 0. -1.
         -1    1    5    5    0  503 -0.82517276635E+01  0.21592365211E+02 -0.78149727047E+02  0.81496632337E+02  0.00000000000E+00 0.  1.
         -1    1    6    6    0  502 -0.23214841484E+03 -0.12896739233E+03  0.13161893534E+03  0.29639335171E+03  0.00000000000E+00 0.  1.
<mgrwt>
<rscale>  0 0.12469005E+04</rscale>
<asrwt>0</asrwt>
<pdfrwt beam="1">  1        2 0.65679852E-01 0.12469005E+04</pdfrwt>
<pdfrwt beam="2">  1       -2 0.14006987E+00 0.12469005E+04</pdfrwt>
<totfact> 0.26038643E+01</totfact>
</mgrwt>
</event>
<event>
12    1  0.4802930E-008  0.1491767E+04  0.7818608E-02  0.8889946E-01
         -2   -1    0    0    0  501 -0.00000000000E+00  0.00000000000E+00  0.24228474816E+03  0.24228474816E+03  0.00000000000E+00 0.  1.
          2   -1    0    0  501    0  0.00000000000E+00 -0.00000000000E+00 -0.22962328270E+04  0.22962328270E+04  0.00000000000E+00 0. -1.
         23    2    1    2    0    0  0.14453953601E+03  0.22286188579E+03  0.75976877248E+00  0.28090081513E+03  0.91354217686E+02 0.  0.
        254    2    1    2    0    0 -0.14453953601E+03 -0.22286188579E+03 -0.20547078476E+04  0.22576167600E+04  0.89691136602E+03 0.  0.
         23    2    4    4    0    0  0.31611790185E+03  0.75760298636E+02 -0.11183363874E+04  0.11682563901E+04  0.92068273856E+02 0.  0.
         23    2    4    4    0    0 -0.46065743785E+03 -0.29862218442E+03 -0.93637146021E+03  0.10893603699E+04  0.92379758903E+02 0.  0.
         13    1    3    3    0    0  0.66947829544E+01  0.92839836215E+01  0.23041621913E+02  0.25727977205E+02  0.00000000000E+00 0. -1.
        -13    1    3    3    0    0  0.13784475305E+03  0.21357790217E+03 -0.22281853140E+02  0.25517283793E+03  0.00000000000E+00 0.  1.
          4    1    5    5  502    0  0.24394069974E+03  0.61349682405E+02 -0.70761998051E+03  0.75099726054E+03  0.00000000000E+00 0. -1.
          1    1    6    6  503    0 -0.27060891224E+03 -0.22795802208E+03 -0.60569234241E+03  0.70146793003E+03  0.00000000000E+00 0. -1.
         -4    1    5    5    0  502  0.72177202107E+02  0.14410616232E+02 -0.41071640687E+03  0.41725912960E+03  0.00000000000E+00 0.  1.
         -1    1    6    6    0  503 -0.19004852561E+03 -0.70664162346E+02 -0.33067911780E+03  0.38789243983E+03  0.00000000000E+00 0.  1.
<mgrwt>
<rscale>  0 0.14917670E+04</rscale>
<asrwt>0</asrwt>
<pdfrwt beam="1">  1        2 0.35326660E+00 0.14917670E+04</pdfrwt>
<pdfrwt beam="2">  1       -2 0.37274576E-01 0.14917670E+04</pdfrwt>
<totfact> 0.29937516E+01</totfact>
</mgrwt>
</event>
<event>
12    1  0.4802930E-008  0.2174629E+04  0.7818608E-02  0.8529063E-01
         -2   -1    0    0    0  501 -0.00000000000E+00  0.00000000000E+00  0.25842369094E+03  0.25842369094E+03  0.00000000000E+00 0.  1.
          2   -1    0    0  501    0  0.00000000000E+00 -0.00000000000E+00 -0.45748609740E+04  0.45748609740E+04  0.00000000000E+00 0. -1.
         23    2    1    2    0    0 -0.37455138176E+03 -0.10713521842E+03  0.54419270221E+01  0.40087444478E+03  0.94361079394E+02 0.  0.
        254    2    1    2    0    0  0.37455138176E+03  0.10713521842E+03 -0.43218792101E+04  0.44324102202E+04  0.90324623477E+03 0.  0.
         23    2    4    4    0    0  0.61460691193E+03 -0.67276610575E+02 -0.21704685720E+04  0.22587445356E+04  0.93409082845E+02 0.  0.
         23    2    4    4    0    0 -0.24005553017E+03  0.17441182900E+03 -0.21514106381E+04  0.21736656845E+04  0.90601493970E+02 0.  0.
         13    1    3    3    0    0 -0.14603246979E+02 -0.56441791476E+01 -0.20729165450E+02  0.25977103011E+02  0.00000000000E+00 0. -1.
        -13    1    3    3    0    0 -0.35994813478E+03 -0.10149103927E+03  0.26171092472E+02  0.37489734177E+03  0.00000000000E+00 0.  1.
          2    1    5    5  502    0  0.55731046437E+03 -0.34188484134E+02 -0.19730131446E+04  0.20504986405E+04  0.00000000000E+00 0.  1.
          4    1    6    6  503    0 -0.55564176781E+02  0.77937724816E+02 -0.48997170228E+03  0.49923334797E+03  0.00000000000E+00 0. -1.
         -2    1    5    5    0  502  0.57296447559E+02 -0.33088126441E+02 -0.19745542739E+03  0.20824589508E+03  0.00000000000E+00 0. -1.
         -4    1    6    6    0  503 -0.18449135339E+03  0.96474104179E+02 -0.16614389358E+04  0.16744323366E+04  0.00000000000E+00 0.  1.
<mgrwt>
<rscale>  0 0.21746287E+04</rscale>
<asrwt>0</asrwt>
<pdfrwt beam="1">  1        2 0.70382467E+00 0.21746287E+04</pdfrwt>
<pdfrwt beam="2">  1       -2 0.39757496E-01 0.21746287E+04</pdfrwt>
<totfact> 0.57575318E-01</totfact>
</mgrwt>
</event>
<event>
12    1  0.4802930E-008  0.2123132E+04  0.7818608E-02  0.8551121E-01
         -2   -1    0    0    0  501 -0.00000000000E+00  0.00000000000E+00  0.29828597874E+03  0.29828597874E+03  0.00000000000E+00 0. -1.
          2   -1    0    0  501    0  0.00000000000E+00 -0.00000000000E+00 -0.37779941034E+04  0.37779941034E+04  0.00000000000E+00 0.  1.
         23    2    1    2    0    0  0.16235800918E+03  0.52307086959E+03 -0.27254653377E+04  0.27815570271E+04  0.94524760745E+02 0.  0.
        254    2    1    2    0    0 -0.16235800918E+03 -0.52307086959E+03 -0.75424278691E+03  0.12947230550E+04  0.89858908835E+03 0.  0.
         23    2    4    4    0    0 -0.10664869787E+03 -0.19963112774E+03 -0.89465586347E+03  0.92730598355E+03  0.90888619548E+02 0.  0.
         23    2    4    4    0    0 -0.55709311310E+02 -0.32343974185E+03  0.14041307655E+03  0.36741707143E+03  0.86963660994E+02 0.  0.
         13    1    3    3    0    0  0.16586674841E+02  0.22745510137E+02 -0.26613905516E+03  0.26762375212E+03  0.00000000000E+00 0. -1.
        -13    1    3    3    0    0  0.14577133434E+03  0.50032535945E+03 -0.24593262825E+04  0.25139332750E+04  0.00000000000E+00 0.  1.
          1    1    6    6  502    0  0.94218967177E+01 -0.73355164451E+01  0.19302436112E+02  0.22697268099E+02  0.00000000000E+00 0. -1.
          1    1    5    5  503    0 -0.11095613358E+03 -0.19953648025E+03 -0.78402487321E+03  0.81659112923E+03  0.00000000000E+00 0. -1.
         -1    1    5    5    0  503  0.43074357031E+01 -0.94647489926E-01 -0.11063099025E+03  0.11071485431E+03  0.00000000000E+00 0.  1.
         -1    1    6    6    0  502 -0.65131208028E+02 -0.31610422541E+03  0.12111064044E+03  0.34471980333E+03  0.00000000000E+00 0.  1.
<mgrwt>
<rscale>  0 0.21231323E+04</rscale>
<asrwt>0</asrwt>
<pdfrwt beam="1">  1        2 0.58122988E+00 0.21231323E+04</pdfrwt>
<pdfrwt beam="2">  1       -2 0.45890149E-01 0.21231323E+04</pdfrwt>
<totfact> 0.21273087E+00</totfact>
</mgrwt>
</event>
<event>
12    1  0.4802930E-008  0.1687430E+04  0.7818608E-02  0.8768566E-01
         -1   -1    0    0    0  501 -0.00000000000E+00  0.00000000000E+00  0.71078571468E+03  0.71078571468E+03  0.00000000000E+00 0.  1.
          1   -1    0    0  501    0  0.00000000000E+00 -0.00000000000E+00 -0.10015043824E+04  0.10015043824E+04  0.00000000000E+00 0. -1.
         23    2    1    2    0    0 -0.38115817560E+03  0.43448784174E+03 -0.28345030054E+03  0.64994294889E+03  0.89557380971E+02 0.  0.
        254    2    1    2    0    0  0.38115817560E+03 -0.43448784174E+03 -0.72683671609E+01  0.10623471482E+04  0.89132900470E+03 0.  0.
         23    2    4    4    0    0  0.10146020875E+03 -0.66528269201E+03 -0.71112181237E+02  0.68260417565E+03  0.89421943942E+02 0.  0.
         23    2    4    4    0    0  0.27969796685E+03  0.23079485026E+03  0.63843814077E+02  0.37974297252E+03  0.92905742634E+02 0.  0.
         11    1    3    3    0    0 -0.13520417737E+03  0.10492339399E+03 -0.56364429349E+02  0.18018334296E+03  0.00000000000E+00 0.  1.
        -11    1    3    3    0    0 -0.24595399823E+03  0.32956444776E+03 -0.22708587119E+03  0.46975960593E+03  0.00000000000E+00 0. -1.
          1    1    6    6  502    0  0.20675073245E+03  0.19660047609E+03  0.82610568919E+02  0.29702208447E+03  0.00000000000E+00 0. -1.
          1    1    5    5  503    0  0.11415996591E+03 -0.53684356259E+03 -0.43124590410E+02  0.55053904386E+03  0.00000000000E+00 0. -1.
         -1    1    5    5    0  503 -0.12699757157E+02 -0.12843912941E+03 -0.27987590827E+02  0.13206513180E+03  0.00000000000E+00 0.  1.
         -1    1    6    6    0  502  0.72947234405E+02  0.34194374169E+02 -0.18766754842E+02  0.82720888048E+02  0.00000000000E+00 0.  1.
<mgrwt>
<rscale>  0 0.16874300E+04</rscale>
<asrwt>0</asrwt>
<pdfrwt beam="1">  1        1 0.15407760E+00 0.16874300E+04</pdfrwt>
<pdfrwt beam="2">  1       -1 0.10935165E+00 0.16874300E+04</pdfrwt>
<totfact> 0.11127557E+01</totfact>
</mgrwt>
</event>
<event>
12    1  0.4802930E-008  0.2107802E+04  0.7818608E-02  0.8557814E-01
         -1   -1    0    0    0  501 -0.00000000000E+00  0.00000000000E+00  0.51962967106E+03  0.51962967106E+03  0.00000000000E+00 0.  1.
          1   -1    0    0  501    0  0.00000000000E+00 -0.00000000000E+00 -0.21374978993E+04  0.21374978993E+04  0.00000000000E+00 0. -1.
         23    2    1    2    0    0 -0.66097354596E+03  0.17625164443E+03 -0.12556262403E+04  0.14331616206E+04  0.96975794362E+02 0.  0.
        254    2    1    2    0    0  0.66097354596E+03 -0.17625164443E+03 -0.36224198793E+03  0.12239659498E+04  0.94811535047E+03 0.  0.
         23    2    4    4    0    0 -0.17426797655E+03 -0.24011728119E+03 -0.94704994392E+01  0.31046572211E+03  0.90959539747E+02 0.  0.
         23    2    4    4    0    0  0.83524152251E+03  0.63865636761E+02 -0.35277148850E+03  0.91350022768E+03  0.91256355379E+02 0.  0.
         11    1    3    3    0    0 -0.54372356728E+03  0.17128504407E+03 -0.10914345680E+04  0.12313420728E+04  0.00000000000E+00 0. -1.
        -11    1    3    3    0    0 -0.11724997868E+03  0.49666003600E+01 -0.16419167233E+03  0.20181954782E+03  0.00000000000E+00 0.  1.
          1    1    5    5  502    0 -0.20599132408E+02  0.26409767159E+01 -0.10244463513E+02  0.23157030177E+02  0.00000000000E+00 0. -1.
          3    1    6    6  503    0  0.31379314275E+02  0.18786242268E+02 -0.24518089448E+02  0.44030909292E+02  0.00000000000E+00 0. -1.
         -1    1    5    5    0  502 -0.15366884414E+03 -0.24275825791E+03  0.77396407407E+00  0.28730869194E+03  0.00000000000E+00 0.  1.
         -3    1    6    6    0  503  0.80386220823E+03  0.45079394493E+02 -0.32825339905E+03  0.86946931839E+03  0.00000000000E+00 0.  1.
<mgrwt>
<rscale>  0 0.21078020E+04</rscale>
<asrwt>0</asrwt>
<pdfrwt beam="1">  1        1 0.32884583E+00 0.21078020E+04</pdfrwt>
<pdfrwt beam="2">  1       -1 0.79943028E-01 0.21078020E+04</pdfrwt>
<totfact> 0.34500072E+00</totfact>
</mgrwt>
</event>
<event>
12    1  0.4802930E-008  0.1504783E+04  0.7818608E-02  0.8881279E-01
          2   -1    0    0  501    0  0.00000000000E+00  0.00000000000E+00  0.21433441731E+04  0.21433441731E+04  0.00000000000E+00 0. -1.
         -2   -1    0    0    0  501 -0.00000000000E+00 -0.00000000000E+00 -0.26411663672E+03  0.26411663672E+03  0.00000000000E+00 0.  1.
         23    2    1    2    0    0  0.40903080280E+03  0.12900202708E+03  0.27294978794E+03  0.51664635773E+03  0.92055155153E+02 0.  0.
        254    2    1    2    0    0 -0.40903080280E+03 -0.12900202708E+03  0.16062777485E+04  0.18908144521E+04  0.90061277280E+03 0.  0.
         23    2    4    4    0    0 -0.48769707938E+03  0.24518011539E+03  0.62971931045E+03  0.83801014932E+03  0.88050384367E+02 0.  0.
         23    2    4    4    0    0  0.78666276585E+02 -0.37418214247E+03  0.97655843800E+03  0.10528043028E+04  0.92357232189E+02 0.  0.
         11    1    3    3    0    0  0.17004717957E+03  0.39503188732E+02  0.16276756204E+03  0.23868352363E+03  0.00000000000E+00 0. -1.
        -11    1    3    3    0    0  0.23898362322E+03  0.89498838348E+02  0.11018222590E+03  0.27796283410E+03  0.00000000000E+00 0.  1.
          2    1    5    5  502    0 -0.13325384088E+03  0.10686593888E+03  0.16609075290E+03  0.23824998048E+03  0.00000000000E+00 0. -1.
          4    1    6    6  503    0  0.53945370036E+02 -0.10370221693E+03  0.22278692809E+03  0.25159147058E+03  0.00000000000E+00 0.  1.
         -2    1    5    5    0  502 -0.35444323851E+03  0.13831417651E+03  0.46362855755E+03  0.59976016883E+03  0.00000000000E+00 0.  1.
         -4    1    6    6    0  503  0.24720906549E+02 -0.27047992554E+03  0.75377150992E+03  0.80121283221E+03  0.00000000000E+00 0. -1.
<mgrwt>
<rscale>  0 0.15047828E+04</rscale>
<asrwt>0</asrwt>
<pdfrwt beam="1">  1        2 0.32974525E+00 0.15047828E+04</pdfrwt>
<pdfrwt beam="2">  1       -2 0.40633330E-01 0.15047828E+04</pdfrwt>
<totfact> 0.30802035E+01</totfact>
</mgrwt>
</event>
<event>
12    1  0.4802930E-008  0.2083911E+04  0.7818608E-02  0.8568364E-01
         -2   -1    0    0    0  501 -0.00000000000E+00  0.00000000000E+00  0.98466997067E+03  0.98466997067E+03  0.00000000000E+00 0.  1.
          2   -1    0    0  501    0  0.00000000000E+00 -0.00000000000E+00 -0.11025733514E+04  0.11025733514E+04  0.00000000000E+00 0. -1.
         23    2    1    2    0    0  0.17830668128E+03  0.30948182456E+03  0.70647204771E+03  0.79670227132E+03  0.89774621224E+02 0.  0.
        254    2    1    2    0    0 -0.17830668128E+03 -0.30948182456E+03 -0.82437542846E+03  0.12905410508E+04  0.92646051421E+03 0.  0.
         23    2    4    4    0    0 -0.12820021092E+03 -0.52407326309E+03 -0.13832361438E+03  0.56425241240E+03  0.90328752013E+02 0.  0.
         23    2    4    4    0    0 -0.50106470358E+02  0.21459143853E+03 -0.68605181408E+03  0.72628863838E+03  0.90928272734E+02 0.  0.
         13    1    3    3    0    0  0.14834119079E+03  0.27455498319E+03  0.66571446272E+03  0.73522873553E+03  0.00000000000E+00 0.  1.
        -13    1    3    3    0    0  0.29965490489E+02  0.34926841370E+02  0.40757584987E+02  0.61473535788E+02  0.00000000000E+00 0. -1.
          4    1    5    5  502    0 -0.41268876529E+02 -0.89375583232E+02 -0.56356181651E+02  0.11343339128E+03  0.00000000000E+00 0. -1.
          1    1    6    6  503    0 -0.76021712607E+02  0.15260931640E+03 -0.46603201189E+03  0.49624060731E+03  0.00000000000E+00 0. -1.
         -4    1    5    5    0  502 -0.86931334389E+02 -0.43469767985E+03 -0.81967432729E+02  0.45081902111E+03  0.00000000000E+00 0.  1.
         -1    1    6    6    0  503  0.25915242249E+02  0.61982122133E+02 -0.22001980218E+03  0.23004803107E+03  0.00000000000E+00 0.  1.
<mgrwt>
<rscale>  0 0.20839106E+04</rscale>
<asrwt>0</asrwt>
<pdfrwt beam="1">  1        2 0.16962667E+00 0.20839106E+04</pdfrwt>
<pdfrwt beam="2">  1       -2 0.15148769E+00 0.20839106E+04</pdfrwt>
<totfact> 0.58459315E+00</totfact>
</mgrwt>
</event>
<event>
12    1  0.4802930E-008  0.1529740E+04  0.7818608E-02  0.8864914E-01
          2   -1    0    0  501    0  0.00000000000E+00  0.00000000000E+00  0.32730374207E+04  0.32730374207E+04  0.00000000000E+00 0. -1.
         -2   -1    0    0    0  501 -0.00000000000E+00 -0.00000000000E+00 -0.17874100798E+03  0.17874100798E+03  0.00000000000E+00 0.  1.
         23    2    1    2    0    0  0.48719435263E+03  0.27926861902E+02  0.11613044505E+04  0.12629501313E+04  0.90976703013E+02 0.  0.
        254    2    1    2    0    0 -0.48719435263E+03 -0.27926861902E+02  0.19329919622E+04  0.21888282974E+04  0.90353369756E+03 0.  0.
         23    2    4    4    0    0  0.99191460123E+02 -0.33063478108E+03  0.76463934716E+03  0.84419543439E+03  0.93990935676E+02 0.  0.
         23    2    4    4    0    0 -0.58638581275E+03  0.30270791918E+03  0.11683526151E+04  0.13446328630E+04  0.86656202553E+02 0.  0.
         13    1    3    3    0    0  0.42090186854E+03  0.39905454298E+00  0.93111802395E+03  0.10218313543E+04  0.00000000000E+00 0. -1.
        -13    1    3    3    0    0  0.66292484092E+02  0.27527807359E+02  0.23018642653E+03  0.24111877692E+03  0.00000000000E+00 0.  1.
          2    1    5    5  502    0  0.82324252037E+02 -0.27434735834E+03  0.70261489315E+03  0.75875651139E+03  0.00000000000E+00 0. -1.
          1    1    6    6  503    0 -0.40806354068E+03  0.24648010823E+03  0.79242277757E+03  0.92477140710E+03  0.00000000000E+00 0. -1.
         -2    1    5    5    0  502  0.16867208086E+02 -0.56287422741E+02  0.62024454019E+02  0.85438923002E+02  0.00000000000E+00 0.  1.
         -1    1    6    6    0  503 -0.17832227207E+03  0.56227810952E+02  0.37592983750E+03  0.41986145591E+03  0.00000000000E+00 0.  1.
<mgrwt>
<rscale>  0 0.15297399E+04</rscale>
<asrwt>0</asrwt>
<pdfrwt beam="1">  1        2 0.50354417E+00 0.15297399E+04</pdfrwt>
<pdfrwt beam="2">  1       -2 0.27498619E-01 0.15297399E+04</pdfrwt>
<totfact> 0.13625539E+01</totfact>
</mgrwt>
</event>
<event>
12    1  0.4802930E-008  0.1433857E+04  0.7818608E-02  0.8929670E-01
          2   -1    0    0  501    0  0.00000000000E+00  0.00000000000E+00  0.25434345458E+04  0.25434345458E+04  0.00000000000E+00 0. -1.
         -2   -1    0    0    0  501 -0.00000000000E+00 -0.00000000000E+00 -0.20208348698E+03  0.20208348698E+03  0.00000000000E+00 0.  1.
         23    2    1    2    0    0 -0.27287970060E+03  0.31094056185E+03  0.88850647026E+03  0.98454028180E+03  0.93426199703E+02 0.  0.
        254    2    1    2    0    0  0.27287970060E+03 -0.31094056185E+03  0.14528445885E+04  0.17609777509E+04  0.90506236080E+03 0.  0.
         23    2    4    4    0    0  0.25544386527E+03  0.27798005077E+03  0.44627253443E+03  0.59108415407E+03  0.87731552381E+02 0.  0.
         23    2    4    4    0    0  0.17435835333E+02 -0.58892061262E+03  0.10065720541E+04  0.11698935969E+04  0.91281058311E+02 0.  0.
         11    1    3    3    0    0 -0.28523266678E+00 -0.56922357679E+01  0.69648366127E+01  0.89995474749E+01  0.00000000000E+00 0.  1.
        -11    1    3    3    0    0 -0.27259446793E+03  0.31663279762E+03  0.88154163365E+03  0.97554073432E+03  0.00000000000E+00 0. -1.
          2    1    6    6  502    0 -0.32967254487E+02 -0.35463513549E+03  0.58062843770E+03  0.68116246363E+03  0.00000000000E+00 0. -1.
          2    1    5    5  503    0  0.21727785306E+03  0.17926564089E+03  0.31955710206E+03  0.42598424491E+03  0.00000000000E+00 0. -1.
         -2    1    5    5    0  503  0.38166012206E+02  0.98714409877E+02  0.12671543237E+03  0.16509990916E+03  0.00000000000E+00 0.  1.
         -2    1    6    6    0  502  0.50403089820E+02 -0.23428547713E+03  0.42594361639E+03  0.48873113325E+03  0.00000000000E+00 0.  1.
<mgrwt>
<rscale>  0 0.14338565E+04</rscale>
<asrwt>0</asrwt>
<pdfrwt beam="1">  1        2 0.39129760E+00 0.14338565E+04</pdfrwt>
<pdfrwt beam="2">  1       -2 0.31089769E-01 0.14338565E+04</pdfrwt>
<totfact> 0.30699460E+01</totfact>
</mgrwt>
</event>
<event>
12    1  0.4802930E-008  0.1564558E+04  0.7818608E-02  0.8842622E-01
         -2   -1    0    0    0  501 -0.00000000000E+00  0.00000000000E+00  0.15358054004E+03  0.15358054004E+03  0.00000000000E+00 0.  1.
          2   -1    0    0  501    0  0.00000000000E+00 -0.00000000000E+00 -0.39846230307E+04  0.39846230307E+04  0.00000000000E+00 0. -1.
         23    2    1    2    0    0 -0.67794333616E+01  0.50426369893E+03 -0.93860491653E+03  0.10693688884E+04  0.90789819288E+02 0.  0.
        254    2    1    2    0    0  0.67794333616E+01 -0.50426369893E+03 -0.28924375741E+04  0.30688346824E+04  0.89287364661E+03 0.  0.
         23    2    4    4    0    0 -0.49183753552E+01 -0.36839067437E+03 -0.33519976016E+03  0.50640483661E+03  0.91384352858E+02 0.  0.
         23    2    4    4    0    0  0.11697808717E+02 -0.13587302456E+03 -0.25572378140E+04  0.25624298458E+04  0.89348530068E+02 0.  0.
         13    1    3    3    0    0  0.33102627778E+02  0.84712576300E+02 -0.16272087948E+03  0.18641375799E+03  0.00000000000E+00 0. -1.
        -13    1    3    3    0    0 -0.39882061140E+02  0.41955112263E+03 -0.77588403706E+03  0.88295513038E+03  0.00000000000E+00 0.  1.
          2    1    5    5  502    0 -0.44646454626E+01 -0.17263316396E+01  0.44971510115E+01  0.65679256434E+01  0.00000000000E+00 0. -1.
          1    1    6    6  503    0 -0.26221853362E+01 -0.55114931742E+02 -0.41872861996E+03  0.42234842101E+03  0.00000000000E+00 0. -1.
         -2    1    5    5    0  502 -0.45372989267E+00 -0.36666434273E+03 -0.33969691117E+03  0.49983691096E+03  0.00000000000E+00 0.  1.
         -1    1    6    6    0  503  0.14319994053E+02 -0.80758092816E+02 -0.21385091940E+04  0.21400814248E+04  0.00000000000E+00 0.  1.
<mgrwt>
<rscale>  0 0.15645582E+04</rscale>
<asrwt>0</asrwt>
<pdfrwt beam="1">  1        2 0.61301890E+00 0.15645582E+04</pdfrwt>
<pdfrwt beam="2">  1       -2 0.23627777E-01 0.15645582E+04</pdfrwt>
<totfact> 0.54927512E+00</totfact>
</mgrwt>
</event>
<event>
12    1  0.4802930E-008  0.1868458E+04  0.7818608E-02  0.8670718E-01
         -1   -1    0    0    0  501 -0.00000000000E+00  0.00000000000E+00  0.41707950771E+03  0.41707950771E+03  0.00000000000E+00 0.  1.
          1   -1    0    0  501    0  0.00000000000E+00 -0.00000000000E+00 -0.20926083958E+04  0.20926083958E+04  0.00000000000E+00 0. -1.
         23    2    1    2    0    0  0.63227948233E+02  0.68860897152E+03 -0.85478013146E+03  0.11032503883E+04  0.91281197320E+02 0.  0.
        254    2    1    2    0    0 -0.63227948233E+02 -0.68860897152E+03 -0.82074875663E+03  0.14064375152E+04  0.90898727916E+03 0.  0.
         23    2    4    4    0    0  0.17251338559E+03 -0.78586472930E+03 -0.79410884878E+03  0.11342649895E+04  0.92757542231E+02 0.  0.
         23    2    4    4    0    0 -0.23574133382E+03  0.97255757782E+02 -0.26639907849E+02  0.27217252578E+03  0.91299179642E+02 0.  0.
         11    1    3    3    0    0  0.64634020140E+02  0.62290028682E+03 -0.72683740600E+03  0.95941385160E+03  0.00000000000E+00 0.  1.
        -11    1    3    3    0    0 -0.14060719067E+01  0.65708684696E+02 -0.12794272546E+03  0.14383653667E+03  0.00000000000E+00 0. -1.
          2    1    5    5  502    0  0.50464071562E+02 -0.12530728569E+03 -0.17197821659E+03  0.21868938097E+03  0.00000000000E+00 0. -1.
          1    1    6    6  503    0 -0.94407099869E+02  0.15530176630E+01 -0.36429984712E+02  0.10120403231E+03  0.00000000000E+00 0. -1.
         -2    1    5    5    0  502  0.12204931403E+03 -0.66055744361E+03 -0.62213063219E+03  0.91557560850E+03  0.00000000000E+00 0.  1.
         -1    1    6    6    0  503 -0.14133423395E+03  0.95702740119E+02  0.97900768635E+01  0.17096849347E+03  0.00000000000E+00 0.  1.
<mgrwt>
<rscale>  0 0.18684583E+04</rscale>
<asrwt>0</asrwt>
<pdfrwt beam="1">  1        1 0.32193975E+00 0.18684583E+04</pdfrwt>
<pdfrwt beam="2">  1       -1 0.64166079E-01 0.18684583E+04</pdfrwt>
<totfact> 0.59577336E+00</totfact>
</mgrwt>
</event>
<event>
12    1  0.4802930E-008  0.1140465E+04  0.7818608E-02  0.9166625E-01
         -2   -1    0    0    0  501 -0.00000000000E+00  0.00000000000E+00  0.19405563717E+03  0.19405563717E+03  0.00000000000E+00 0. -1.
          2   -1    0    0  501    0  0.00000000000E+00 -0.00000000000E+00 -0.16756295065E+04  0.16756295065E+04  0.00000000000E+00 0.  1.
         23    2    1    2    0    0 -0.14200532102E+03  0.13879502355E+03 -0.24588441948E+03  0.32840082327E+03  0.89209770889E+02 0.  0.
        254    2    1    2    0    0  0.14200532102E+03 -0.13879502355E+03 -0.12356894498E+04  0.15412843204E+04  0.89955509560E+03 0.  0.
         23    2    4    4    0    0 -0.16682984450E+03 -0.41945043795E+03 -0.43584492239E+03  0.63412534772E+03  0.91560326208E+02 0.  0.
         23    2    4    4    0    0  0.30883516552E+03  0.28065541440E+03 -0.79984452744E+03  0.90715897265E+03  0.95076350799E+02 0.  0.
         13    1    3    3    0    0 -0.11352161352E+03  0.10546418354E+03 -0.12270758581E+03  0.19765374361E+03  0.00000000000E+00 0.  1.
        -13    1    3    3    0    0 -0.28483707501E+02  0.33330840011E+02 -0.12317683366E+03  0.13074707966E+03  0.00000000000E+00 0. -1.
          2    1    5    5  502    0  0.87340681427E+01 -0.47205859249E+02 -0.33307325699E+02  0.58429915616E+02  0.00000000000E+00 0. -1.
          1    1    6    6  503    0  0.81115756998E+01 -0.10179520661E+01 -0.90278198409E+00  0.82248952609E+01  0.00000000000E+00 0. -1.
         -2    1    5    5    0  502 -0.17556391264E+03 -0.37224457870E+03 -0.40253759669E+03  0.57569543210E+03  0.00000000000E+00 0.  1.
         -1    1    6    6    0  503  0.30072358982E+03  0.28167336647E+03 -0.79894174546E+03  0.89893407739E+03  0.00000000000E+00 0.  1.
<mgrwt>
<rscale>  0 0.11404654E+04</rscale>
<asrwt>0</asrwt>
<pdfrwt beam="1">  1        2 0.25778915E+00 0.11404654E+04</pdfrwt>
<pdfrwt beam="2">  1       -2 0.29854713E-01 0.11404654E+04</pdfrwt>
<totfact> 0.10368225E+02</totfact>
</mgrwt>
</event>
<event>
12    1  0.5584568E-008  0.1906931E+04  0.7818608E-02  0.8651414E-01
          2   -1    0    0  501    0  0.00000000000E+00  0.00000000000E+00  0.79651925432E+03  0.79651925432E+03  0.00000000000E+00 0. -1.
         -2   -1    0    0    0  501 -0.00000000000E+00 -0.00000000000E+00 -0.11413362187E+04  0.11413362187E+04  0.00000000000E+00 0.  1.
         23    2    1    2    0    0 -0.70575817200E+03 -0.23990494655E+02  0.75492880341E+02  0.71594183056E+03  0.90572559824E+02 0.  0.
        254    2    1    2    0    0  0.70575817200E+03  0.23990494655E+02 -0.42030984471E+03  0.12219136424E+04  0.90429112727E+03 0.  0.
         23    2    4    4    0    0  0.13213704575E+03  0.41644241749E+03 -0.17525221613E+03  0.47939283138E+03  0.90662349309E+02 0.  0.
         23    2    4    4    0    0  0.57362112624E+03 -0.39245192283E+03 -0.24505762858E+03  0.74252081106E+03  0.90687404414E+02 0.  0.
         13    1    3    3    0    0 -0.65380012902E+03  0.18570395747E+01  0.65796935117E+02  0.65710523813E+03  0.00000000000E+00 0. -1.
        -13    1    3    3    0    0 -0.51958042980E+02 -0.25847534230E+02  0.96959452242E+01  0.58836592439E+02  0.00000000000E+00 0.  1.
          2    1    5    5  502    0  0.64278411615E+01  0.29070292903E+02  0.10769914322E+02  0.31660545257E+02  0.00000000000E+00 0. -1.
          4    1    6    6  503    0  0.98294107754E+02 -0.51788723924E+02 -0.72996461601E+02  0.13293715414E+03  0.00000000000E+00 0. -1.
         -2    1    5    5    0  502  0.12570920459E+03  0.38737212458E+03 -0.18602213045E+03  0.44773228613E+03  0.00000000000E+00 0.  1.
         -4    1    6    6    0  503  0.47532701849E+03 -0.34066319891E+03 -0.17206116698E+03  0.60958365692E+03  0.00000000000E+00 0.  1.
<mgrwt>
<rscale>  0 0.19069308E+04</rscale>
<asrwt>0</asrwt>
<pdfrwt beam="1">  1        2 0.12254142E+00 0.19069308E+04</pdfrwt>
<pdfrwt beam="2">  1       -2 0.17559019E+00 0.19069308E+04</pdfrwt>
<totfact> 0.63082065E+00</totfact>
</mgrwt>
</event>
<event>
12    1  0.4802930E-008  0.1133999E+04  0.7818608E-02  0.9172674E-01
         -2   -1    0    0    0  501 -0.00000000000E+00  0.00000000000E+00  0.33699996120E+03  0.33699996120E+03  0.00000000000E+00 0. -1.
          2   -1    0    0  501    0  0.00000000000E+00 -0.00000000000E+00 -0.95397138496E+03  0.95397138496E+03  0.00000000000E+00 0.  1.
         23    2    1    2    0    0  0.17061226101E+03 -0.87268914378E+02 -0.80231400150E+02  0.22645533984E+03  0.90114018611E+02 0.  0.
        254    2    1    2    0    0 -0.17061226101E+03  0.87268914378E+02 -0.53674002362E+03  0.10645160063E+04  0.89909958721E+03 0.  0.
         23    2    4    4    0    0 -0.33717370069E+03 -0.27730327241E+03 -0.84676506097E+02  0.45328548907E+03  0.87831740232E+02 0.  0.
         23    2    4    4    0    0  0.16656143968E+03  0.36457218678E+03 -0.45206351752E+03  0.61123051725E+03  0.92659207744E+02 0.  0.
         11    1    3    3    0    0  0.87003678667E+02 -0.77151115784E+02 -0.98511045918E+01  0.11670038145E+03  0.00000000000E+00 0. -1.
        -11    1    3    3    0    0  0.83608582341E+02 -0.10117798594E+02 -0.70380295558E+02  0.10975495840E+03  0.00000000000E+00 0.  1.
          1    1    6    6  502    0  0.10309501131E+03  0.19110442318E+03 -0.17821496653E+03  0.28090933807E+03  0.00000000000E+00 0. -1.
          1    1    5    5  503    0 -0.31742750320E+03 -0.23282639885E+03 -0.58361166831E+02  0.39796278417E+03  0.00000000000E+00 0. -1.
         -1    1    5    5    0  503 -0.19746197482E+02 -0.44476873553E+02 -0.26315339265E+02  0.55322704893E+02  0.00000000000E+00 0.  1.
         -1    1    6    6    0  502  0.63466428372E+02  0.17346776360E+03 -0.27384855099E+03  0.33032117918E+03  0.00000000000E+00 0.  1.
<mgrwt>
<rscale>  0 0.11339988E+04</rscale>
<asrwt>0</asrwt>
<pdfrwt beam="1">  1        2 0.14676483E+00 0.11339988E+04</pdfrwt>
<pdfrwt beam="2">  1       -2 0.51846149E-01 0.11339988E+04</pdfrwt>
<totfact> 0.93932605E+01</totfact>
</mgrwt>
</event>
<event>
12    1  0.4802930E-008  0.2867304E+04  0.7818608E-02  0.8282673E-01
         -2   -1    0    0    0  501 -0.00000000000E+00  0.00000000000E+00  0.76165951647E+03  0.76165951647E+03  0.00000000000E+00 0.  1.
          2   -1    0    0  501    0  0.00000000000E+00 -0.00000000000E+00 -0.26985256410E+04  0.26985256410E+04  0.00000000000E+00 0. -1.
         23    2    1    2    0    0 -0.57972441986E+03  0.57066206963E+03 -0.20926717657E+04  0.22470462997E+04  0.90588925342E+02 0.  0.
        254    2    1    2    0    0  0.57972441986E+03 -0.57066206963E+03  0.15580564114E+03  0.12131388578E+04  0.88639431956E+03 0.  0.
         23    2    4    4    0    0 -0.19013727184E+03 -0.84166621167E+02 -0.12164955715E+03  0.25705350968E+03  0.89675469472E+02 0.  0.
         23    2    4    4    0    0  0.76986169170E+03 -0.48649544846E+03  0.27745519829E+03  0.95608534810E+03  0.88050894801E+02 0.  0.
         13    1    3    3    0    0 -0.51692484014E+03  0.53481088475E+03 -0.18531637076E+04  0.19968599601E+04  0.00000000000E+00 0. -1.
        -13    1    3    3    0    0 -0.62799579725E+02  0.35851184884E+02 -0.23950805804E+03  0.25018633963E+03  0.00000000000E+00 0.  1.
          1    1    6    6  502    0  0.60030315672E+03 -0.40938987501E+03  0.24636494825E+03  0.76724157699E+03  0.00000000000E+00 0. -1.
          1    1    5    5  503    0 -0.11092787712E+03 -0.81846693748E+02 -0.40615611494E+02  0.14371326695E+03  0.00000000000E+00 0. -1.
         -1    1    5    5    0  503 -0.79209394716E+02 -0.23199274187E+01 -0.81033945652E+02  0.11334024273E+03  0.00000000000E+00 0.  1.
         -1    1    6    6    0  502  0.16955853498E+03 -0.77105573451E+02  0.31090250039E+02  0.18884377111E+03  0.00000000000E+00 0.  1.
<mgrwt>
<rscale>  0 0.28673038E+04</rscale>
<asrwt>0</asrwt>
<pdfrwt beam="1">  1        2 0.41515779E+00 0.28673038E+04</pdfrwt>
<pdfrwt beam="2">  1       -2 0.11717839E+00 0.28673038E+04</pdfrwt>
<totfact> 0.12963490E+00</totfact>
</mgrwt>
</event>
<event>
12    1  0.4802930E-008  0.2096307E+04  0.7818608E-02  0.8562872E-01
          2   -1    0    0  501    0  0.00000000000E+00  0.00000000000E+00  0.74427983699E+03  0.74427983699E+03  0.00000000000E+00 0. -1.
         -2   -1    0    0    0  501 -0.00000000000E+00 -0.00000000000E+00 -0.14760923977E+04  0.14760923977E+04  0.00000000000E+00 0.  1.
         23    2    1    2    0    0  0.46493273853E+03  0.52189421501E+03  0.21393059598E+03  0.73651710854E+03  0.90305748702E+02 0.  0.
        254    2    1    2    0    0 -0.46493273853E+03 -0.52189421501E+03 -0.94574315665E+03  0.14838551261E+04  0.90490877659E+03 0.  0.
         23    2    4    4    0    0  0.38844656990E+02  0.19959026589E+02  0.13707553449E+03  0.16981585771E+03  0.90224460414E+02 0.  0.
         23    2    4    4    0    0 -0.50377739552E+03 -0.54185324160E+03 -0.10828186911E+04  0.13140392684E+04  0.82500190150E+02 0.  0.
         13    1    3    3    0    0  0.23773990797E+03  0.31728255478E+03  0.15168669806E+03  0.42449656981E+03  0.00000000000E+00 0.  1.
        -13    1    3    3    0    0  0.22719283056E+03  0.20461166024E+03  0.62243897922E+02  0.31202053873E+03  0.00000000000E+00 0. -1.
          2    1    5    5  502    0  0.28833373570E+02  0.20190655162E+02  0.14965405462E+03  0.15373796555E+03  0.00000000000E+00 0. -1.
          1    1    6    6  503    0 -0.47430437730E+03 -0.51356647179E+03 -0.10509651262E+04  0.12622372439E+04  0.00000000000E+00 0. -1.
         -2    1    5    5    0  502  0.10011283420E+02 -0.23162857319E+00 -0.12578520136E+02  0.16077892160E+02  0.00000000000E+00 0.  1.
         -1    1    6    6    0  503 -0.29473018217E+02 -0.28286769810E+02 -0.31853564937E+02  0.51802024558E+02  0.00000000000E+00 0.  1.
<mgrwt>
<rscale>  0 0.20963070E+04</rscale>
<asrwt>0</asrwt>
<pdfrwt beam="1">  1        2 0.11450459E+00 0.20963070E+04</pdfrwt>
<pdfrwt beam="2">  1       -2 0.22709114E+00 0.20963070E+04</pdfrwt>
<totfact> 0.31117653E+00</totfact>
</mgrwt>
</event>
<event>
12    1  0.4802930E-008  0.2549101E+04  0.7818608E-02  0.8385699E-01
         -1   -1    0    0    0  501 -0.00000000000E+00  0.00000000000E+00  0.13691196594E+04  0.13691196594E+04  0.00000000000E+00 0.  1.
          1   -1    0    0  501    0  0.00000000000E+00 -0.00000000000E+00 -0.11865136882E+04  0.11865136882E+04  0.00000000000E+00 0. -1.
         23    2    1    2    0    0  0.40277202188E+03 -0.70719497819E+03 -0.68330337628E+03  0.10662805309E+04  0.87753220915E+02 0.  0.
        254    2    1    2    0    0 -0.40277202188E+03  0.70719497819E+03  0.86590934751E+03  0.14893528167E+04  0.89778771191E+03 0.  0.
         23    2    4    4    0    0 -0.64342247793E+03  0.69638902764E+03  0.64993707027E+03  0.11530880333E+04  0.90794572262E+02 0.  0.
         23    2    4    4    0    0  0.24065045606E+03  0.10805950548E+02  0.21597227724E+03  0.33626478336E+03  0.91654620291E+02 0.  0.
         13    1    3    3    0    0  0.47162524454E+02 -0.78682961337E+02 -0.43683559555E+02  0.10160494817E+03  0.00000000000E+00 0.  1.
        -13    1    3    3    0    0  0.35560949742E+03 -0.62851201685E+03 -0.63961981673E+03  0.96467558274E+03  0.00000000000E+00 0. -1.
          2    1    5    5  502    0 -0.55771304924E+03  0.64313838651E+03  0.58961874410E+03  0.10355293781E+04  0.00000000000E+00 0. -1.
          2    1    6    6  503    0  0.69058336295E+02 -0.12947585509E+02  0.16690415447E+02  0.72216783022E+02  0.00000000000E+00 0. -1.
         -2    1    5    5    0  502 -0.85709428695E+02  0.53250641129E+02  0.60318326169E+02  0.11755865523E+03  0.00000000000E+00 0.  1.
         -2    1    6    6    0  503  0.17159211976E+03  0.23753536057E+02  0.19928186179E+03  0.26404800033E+03  0.00000000000E+00 0.  1.
<mgrwt>
<rscale>  0 0.25491012E+04</rscale>
<asrwt>0</asrwt>
<pdfrwt beam="1">  1        1 0.18254057E+00 0.25491012E+04</pdfrwt>
<pdfrwt beam="2">  1       -1 0.21063379E+00 0.25491012E+04</pdfrwt>
<totfact> 0.12310144E+00</totfact>
</mgrwt>
</event>
<event>
12    1  0.4802930E-008  0.3356937E+04  0.7818608E-02  0.8148557E-01
          1   -1    0    0  501    0  0.00000000000E+00  0.00000000000E+00  0.11876926755E+04  0.11876926755E+04  0.00000000000E+00 0. -1.
         -1   -1    0    0    0  501 -0.00000000000E+00 -0.00000000000E+00 -0.23720413815E+04  0.23720413815E+04  0.00000000000E+00 0.  1.
         23    2    1    2    0    0  0.11092661149E+04 -0.10638693739E+04 -0.27349343056E+03  0.15638157340E+04  0.91823934872E+02 0.  0.
        254    2    1    2    0    0 -0.11092661149E+04  0.10638693739E+04 -0.91085527540E+03  0.19959183229E+04  0.88979956207E+03 0.  0.
         23    2    4    4    0    0 -0.27127206999E+02  0.34720529731E+02 -0.40328439113E+03  0.41597926493E+03  0.91973083954E+02 0.  0.
         23    2    4    4    0    0 -0.10821389079E+04  0.10291488442E+04 -0.50757088427E+03  0.15799390580E+04  0.91691138918E+02 0.  0.
         13    1    3    3    0    0  0.34922618724E+03 -0.31465589810E+03 -0.12412117048E+03  0.48618240304E+03  0.00000000000E+00 0. -1.
        -13    1    3    3    0    0  0.76003992770E+03 -0.74921347580E+03 -0.14937226009E+03  0.10776333310E+04  0.00000000000E+00 0.  1.
          4    1    5    5  502    0  0.48579221953E+01  0.42007888989E+02 -0.75327234649E+02  0.86385498929E+02  0.00000000000E+00 0. -1.
          3    1    6    6  503    0 -0.81916129097E+02  0.10616431295E+03 -0.28607425289E+02  0.13711126260E+03  0.00000000000E+00 0. -1.
         -4    1    5    5    0  502 -0.31985129195E+02 -0.72873592581E+01 -0.32795715649E+03  0.32959376600E+03  0.00000000000E+00 0.  1.
         -3    1    6    6    0  503 -0.10002227788E+04  0.92298453122E+03 -0.47896345898E+03  0.14428277954E+04  0.00000000000E+00 0.  1.
<mgrwt>
<rscale>  0 0.33569368E+04</rscale>
<asrwt>0</asrwt>
<pdfrwt beam="1">  1        1 0.18272195E+00 0.33569368E+04</pdfrwt>
<pdfrwt beam="2">  1       -1 0.36492944E+00 0.33569368E+04</pdfrwt>
<totfact> 0.11124743E-01</totfact>
</mgrwt>
</event>
<event>
12    1  0.4802930E-008  0.1362061E+04  0.7818608E-02  0.8981748E-01
          1   -1    0    0  501    0  0.00000000000E+00  0.00000000000E+00  0.12231769948E+04  0.12231769948E+04  0.00000000000E+00 0. -1.
         -1   -1    0    0    0  501 -0.00000000000E+00 -0.00000000000E+00 -0.37917874643E+03  0.37917874643E+03  0.00000000000E+00 0.  1.
         23    2    1    2    0    0  0.13221142466E+03  0.30704956274E+03  0.45464082690E+02  0.34964735821E+03  0.91798679195E+02 0.  0.
        254    2    1    2    0    0 -0.13221142466E+03 -0.30704956274E+03  0.79853416573E+03  0.12527083831E+04  0.90546241466E+03 0.  0.
         23    2    4    4    0    0 -0.26008011879E+03 -0.50841423968E+03  0.81184753237E+03  0.99683452466E+03  0.91956220203E+02 0.  0.
         23    2    4    4    0    0  0.12786869412E+03  0.20136467694E+03 -0.13313366645E+02  0.25587385840E+03  0.91629960307E+02 0.  0.
         13    1    3    3    0    0  0.72827616019E+02  0.17703026817E+03 -0.19930504194E+02  0.19245987245E+03  0.00000000000E+00 0. -1.
        -13    1    3    3    0    0  0.59383808642E+02  0.13001929456E+03  0.65394586884E+02  0.15718748576E+03  0.00000000000E+00 0.  1.
          3    1    5    5  502    0 -0.11297114039E+03 -0.31335584889E+03  0.43888326966E+03  0.55097449214E+03  0.00000000000E+00 0. -1.
          3    1    6    6  503    0  0.24624492308E+02  0.12075954528E+03 -0.19337170818E+02  0.12475239305E+03  0.00000000000E+00 0. -1.
         -3    1    5    5    0  502 -0.14710897839E+03 -0.19505839079E+03  0.37296426271E+03  0.44586003252E+03  0.00000000000E+00 0.  1.
         -3    1    6    6    0  503  0.10324420182E+03  0.80605131667E+02  0.60238041734E+01  0.13112146535E+03  0.00000000000E+00 0.  1.
<mgrwt>
<rscale>  0 0.13620613E+04</rscale>
<asrwt>0</asrwt>
<pdfrwt beam="1">  1        1 0.18818108E+00 0.13620613E+04</pdfrwt>
<pdfrwt beam="2">  1       -1 0.58335192E-01 0.13620613E+04</pdfrwt>
<totfact> 0.29924052E+01</totfact>
</mgrwt>
</event>
<event>
12    1  0.4802930E-008  0.1810533E+04  0.7818608E-02  0.8700718E-01
          2   -1    0    0  501    0  0.00000000000E+00  0.00000000000E+00  0.78826089869E+03  0.78826089869E+03  0.00000000000E+00 0. -1.
         -2   -1    0    0    0  501 -0.00000000000E+00 -0.00000000000E+00 -0.10396397399E+04  0.10396397399E+04  0.00000000000E+00 0.  1.
         23    2    1    2    0    0 -0.64938245789E+03 -0.18244721003E+03 -0.10414709196E+03  0.68864907638E+03  0.91686272525E+02 0.  0.
        254    2    1    2    0    0  0.64938245789E+03  0.18244721003E+03 -0.14723174920E+03  0.11392515622E+04  0.90621872242E+03 0.  0.
         23    2    4    4    0    0  0.65456480819E+03  0.35162376168E+03 -0.37797419335E+03  0.83857621905E+03  0.90836261595E+02 0.  0.
         23    2    4    4    0    0 -0.51823502981E+01 -0.16917655165E+03  0.23074244415E+03  0.30067534312E+03  0.92282306239E+02 0.  0.
         13    1    3    3    0    0 -0.57699574788E+03 -0.14047413533E+03 -0.11300625050E+03  0.60450598708E+03  0.00000000000E+00 0. -1.
        -13    1    3    3    0    0 -0.72386710009E+02 -0.41973074705E+02  0.88591585363E+01  0.84143089295E+02  0.00000000000E+00 0.  1.
          2    1    5    5  502    0  0.59817683444E+03  0.31165861895E+03 -0.31249927762E+03  0.74337232834E+03  0.00000000000E+00 0. -1.
          1    1    6    6  503    0  0.36982968596E+02 -0.87894976378E+02  0.15432627239E+03  0.18141076371E+03  0.00000000000E+00 0. -1.
         -2    1    5    5    0  502  0.56387973745E+02  0.39965142728E+02 -0.65474915723E+02  0.95203890704E+02  0.00000000000E+00 0.  1.
         -1    1    6    6    0  503 -0.42165318894E+02 -0.81281575270E+02  0.76416171759E+02  0.11926457941E+03  0.00000000000E+00 0.  1.
<mgrwt>
<rscale>  0 0.18105329E+04</rscale>
<asrwt>0</asrwt>
<pdfrwt beam="1">  1        2 0.12127091E+00 0.18105329E+04</pdfrwt>
<pdfrwt beam="2">  1       -2 0.15994458E+00 0.18105329E+04</pdfrwt>
<totfact> 0.83508561E+00</totfact>
</mgrwt>
</event>
<event>
12    1  0.4802930E-008  0.1332382E+04  0.7818608E-02  0.9004273E-01
         -2   -1    0    0    0  501 -0.00000000000E+00  0.00000000000E+00  0.80926485909E+03  0.80926485909E+03  0.00000000000E+00 0. -1.
          2   -1    0    0  501    0  0.00000000000E+00 -0.00000000000E+00 -0.54841200209E+03  0.54841200209E+03  0.00000000000E+00 0.  1.
         23    2    1    2    0    0 -0.44178777203E+02 -0.25706665969E+03  0.29434924321E+03  0.40395052848E+03  0.92192844596E+02 0.  0.
        254    2    1    2    0    0  0.44178777203E+02  0.25706665969E+03 -0.33496386206E+02  0.95372633270E+03  0.91675344446E+03 0.  0.
         23    2    4    4    0    0 -0.21544211163E+03  0.29123544951E+03  0.32857676108E+03  0.49826630869E+03  0.95253535028E+02 0.  0.
         23    2    4    4    0    0  0.25962088883E+03 -0.34168789820E+02 -0.36207314729E+03  0.45546002401E+03  0.88183657063E+02 0.  0.
         11    1    3    3    0    0 -0.35102733428E+02 -0.14454846175E+03  0.10013704192E+03  0.17931504916E+03  0.00000000000E+00 0.  1.
        -11    1    3    3    0    0 -0.90760437746E+01 -0.11251819794E+03  0.19421220129E+03  0.22463547932E+03  0.00000000000E+00 0. -1.
          4    1    5    5  502    0 -0.80028241224E+02  0.10085170772E+03  0.18032560190E+03  0.22156919696E+03  0.00000000000E+00 0.  1.
          1    1    6    6  503    0  0.25866054565E+03 -0.18329178670E+02 -0.33014532328E+03  0.41980611138E+03  0.00000000000E+00 0. -1.
         -4    1    5    5    0  502 -0.13541387040E+03  0.19038374180E+03  0.14825115919E+03  0.27669711173E+03  0.00000000000E+00 0. -1.
         -1    1    6    6    0  503  0.96034318105E+00 -0.15839611151E+02 -0.31927824006E+02  0.35653912635E+02  0.00000000000E+00 0.  1.
<mgrwt>
<rscale>  0 0.13323822E+04</rscale>
<asrwt>0</asrwt>
<pdfrwt beam="1">  1        2 0.84371078E-01 0.13323822E+04</pdfrwt>
<pdfrwt beam="2">  1       -2 0.12450229E+00 0.13323822E+04</pdfrwt>
<totfact> 0.26155365E+01</totfact>
</mgrwt>
</event>
<event>
12    1  0.4802930E-008  0.2103596E+04  0.7818608E-02  0.8559661E-01
          1   -1    0    0  501    0  0.00000000000E+00  0.00000000000E+00  0.44251403353E+04  0.44251403353E+04  0.00000000000E+00 0. -1.
         -1   -1    0    0    0  501 -0.00000000000E+00 -0.00000000000E+00 -0.24999854022E+03  0.24999854022E+03  0.00000000000E+00 0.  1.
         23    2    1    2    0    0 -0.84453737911E+01 -0.52196583817E+03  0.32391464214E+04  0.32821948326E+04  0.90629572673E+02 0.  0.
        254    2    1    2    0    0  0.84453737911E+01  0.52196583817E+03  0.93599537371E+03  0.13929440429E+04  0.88976744523E+03 0.  0.
         23    2    4    4    0    0 -0.11040536243E+03  0.60995219980E+03  0.10240390028E+04  0.12005903070E+04  0.92358952253E+02 0.  0.
         23    2    4    4    0    0  0.11885073622E+03 -0.87986361633E+02 -0.88043629052E+02  0.19235373590E+03  0.85913804279E+02 0.  0.
         11    1    3    3    0    0 -0.18035744373E+02 -0.36089554897E+03  0.19739769731E+04  0.20067775103E+04  0.00000000000E+00 0. -1.
        -11    1    3    3    0    0  0.95903705818E+01 -0.16107028920E+03  0.12651694482E+04  0.12754173223E+04  0.00000000000E+00 0.  1.
          1    1    5    5  502    0 -0.10336719878E+03  0.31331306063E+03  0.54743741944E+03  0.63916944541E+03  0.00000000000E+00 0. -1.
          3    1    6    6  503    0  0.10386462425E+03 -0.10499165391E+03 -0.81876113976E+02  0.16886327487E+03  0.00000000000E+00 0. -1.
         -1    1    5    5    0  502 -0.70381636562E+01  0.29663913918E+03  0.47660158331E+03  0.56142086162E+03  0.00000000000E+00 0.  1.
         -3    1    6    6    0  503  0.14986111976E+02  0.17005292273E+02 -0.61675150754E+01  0.23490461035E+02  0.00000000000E+00 0.  1.
<mgrwt>
<rscale>  0 0.21035956E+04</rscale>
<asrwt>0</asrwt>
<pdfrwt beam="1">  1        1 0.68079076E+00 0.21035956E+04</pdfrwt>
<pdfrwt beam="2">  1       -1 0.38461317E-01 0.21035956E+04</pdfrwt>
<totfact> 0.23329572E-01</totfact>
</mgrwt>
</event>
<event>
12    1  0.4802930E-008  0.1277100E+04  0.7818608E-02  0.9047925E-01
         -1   -1    0    0    0  501 -0.00000000000E+00  0.00000000000E+00  0.55342560665E+03  0.55342560665E+03  0.00000000000E+00 0.  1.
          1   -1    0    0  501    0  0.00000000000E+00 -0.00000000000E+00 -0.73676802182E+03  0.73676802182E+03  0.00000000000E+00 0. -1.
         23    2    1    2    0    0 -0.13671201650E+03 -0.13244352988E+03  0.20321037639E+03  0.29331180067E+03  0.92227388984E+02 0.  0.
        254    2    1    2    0    0  0.13671201650E+03  0.13244352988E+03 -0.38655279156E+03  0.99688182779E+03  0.89895431133E+03 0.  0.
         23    2    4    4    0    0  0.79900057456E+02 -0.23621651926E+03 -0.52480302523E+03  0.58883867817E+03  0.95553704593E+02 0.  0.
         23    2    4    4    0    0  0.56811959049E+02  0.36866004914E+03  0.13825023368E+03  0.40804314962E+03  0.90819900455E+02 0.  0.
         13    1    3    3    0    0 -0.48273995476E+02  0.44000682065E+01  0.50516747000E+02  0.70012005877E+02  0.00000000000E+00 0. -1.
        -13    1    3    3    0    0 -0.88438021028E+02 -0.13684359809E+03  0.15269362939E+03  0.22329979479E+03  0.00000000000E+00 0.  1.
          2    1    5    5  502    0  0.52053168063E+02 -0.22803687196E+03 -0.49365162484E+03  0.54626209276E+03  0.00000000000E+00 0. -1.
          3    1    6    6  503    0  0.23456453840E+02  0.30314037242E+03  0.80417852040E+02  0.31450170356E+03  0.00000000000E+00 0. -1.
         -2    1    5    5    0  502  0.27846889393E+02 -0.81796473055E+01 -0.31151400394E+02  0.42576585413E+02  0.00000000000E+00 0.  1.
         -3    1    6    6    0  503  0.33355505209E+02  0.65519676727E+02  0.57832381636E+02  0.93541446064E+02  0.00000000000E+00 0.  1.
<mgrwt>
<rscale>  0 0.12771003E+04</rscale>
<asrwt>0</asrwt>
<pdfrwt beam="1">  1        1 0.11334893E+00 0.12771003E+04</pdfrwt>
<pdfrwt beam="2">  1       -1 0.85142401E-01 0.12771003E+04</pdfrwt>
<totfact> 0.33823779E+01</totfact>
</mgrwt>
</event>
<event>
12    1  0.4802930E-008  0.3236748E+04  0.7818608E-02  0.8179179E-01
         -1   -1    0    0    0  501 -0.00000000000E+00  0.00000000000E+00  0.24876676720E+04  0.24876676720E+04  0.00000000000E+00 0.  1.
          1   -1    0    0  501    0  0.00000000000E+00 -0.00000000000E+00 -0.10528473679E+04  0.10528473679E+04  0.00000000000E+00 0. -1.
         23    2    1    2    0    0 -0.18480531739E+03 -0.10369615564E+04  0.18238510644E+04  0.21081465754E+04  0.91689713401E+02 0.  0.
        254    2    1    2    0    0  0.18480531739E+03  0.10369615564E+04 -0.38903076025E+03  0.14323684645E+04  0.88932120790E+03 0.  0.
         23    2    4    4    0    0 -0.12332809876E+03  0.72050726051E+03  0.12789536301E+03  0.74646046330E+03  0.80656475185E+02 0.  0.
         23    2    4    4    0    0  0.30813341615E+03  0.31645429592E+03 -0.51692612326E+03  0.68590800121E+03  0.90375027822E+02 0.  0.
         13    1    3    3    0    0 -0.15449358885E+03 -0.61076637238E+03  0.10824816232E+04  0.12524656862E+04  0.00000000000E+00 0.  1.
        -13    1    3    3    0    0 -0.30311728537E+02 -0.42619518405E+03  0.74136944120E+03  0.85568088920E+03  0.00000000000E+00 0. -1.
          2    1    5    5  502    0 -0.41502833858E+02  0.21783971816E+03  0.76533264025E+02  0.23459319796E+03  0.00000000000E+00 0. -1.
          1    1    6    6  503    0  0.80484378055E+02  0.14060901123E+03 -0.21034259951E+03  0.26550449773E+03  0.00000000000E+00 0. -1.
         -2    1    5    5    0  502 -0.81825264904E+02  0.50266754236E+03  0.51362098984E+02  0.51186726534E+03  0.00000000000E+00 0.  1.
         -1    1    6    6    0  503  0.22764903810E+03  0.17584528469E+03 -0.30658352375E+03  0.42040350347E+03  0.00000000000E+00 0.  1.
<mgrwt>
<rscale>  0 0.32367480E+04</rscale>
<asrwt>0</asrwt>
<pdfrwt beam="1">  1        1 0.16197652E+00 0.32367480E+04</pdfrwt>
<pdfrwt beam="2">  1       -1 0.38271810E+00 0.32367480E+04</pdfrwt>
<totfact> 0.10763094E-01</totfact>
</mgrwt>
</event>
<event>
12    1  0.4802930E-008  0.1518115E+04  0.7818608E-02  0.8872495E-01
          2   -1    0    0  501    0  0.00000000000E+00  0.00000000000E+00  0.16672333169E+04  0.16672333169E+04  0.00000000000E+00 0.  1.
         -2   -1    0    0    0  501 -0.00000000000E+00 -0.00000000000E+00 -0.34558364281E+03  0.34558364281E+03  0.00000000000E+00 0. -1.
         23    2    1    2    0    0 -0.21473498124E+03  0.67157039871E+02 -0.14143114235E+03  0.28059553852E+03  0.90055027808E+02 0.  0.
        254    2    1    2    0    0  0.21473498124E+03 -0.67157039871E+02  0.14630808164E+04  0.17322214212E+04  0.89964681761E+03 0.  0.
         23    2    4    4    0    0  0.25054526817E+03 -0.45320818530E+03  0.89347000667E+03  0.10369238905E+04  0.93551649906E+02 0.  0.
         23    2    4    4    0    0 -0.35810286927E+02  0.38605114543E+03  0.56961080975E+03  0.69529753070E+03  0.93082318820E+02 0.  0.
         13    1    3    3    0    0 -0.24304156284E+02  0.43533693635E+02 -0.37340171403E+02  0.62290953553E+02  0.00000000000E+00 0.  1.
        -13    1    3    3    0    0 -0.19043082496E+03  0.23623346237E+02 -0.10409097095E+03  0.21830458496E+03  0.00000000000E+00 0. -1.
          3    1    6    6  502    0 -0.54950404971E+02  0.16018271350E+03  0.20414858654E+03  0.26524459297E+03  0.00000000000E+00 0. -1.
          3    1    5    5  503    0  0.21505855083E+03 -0.42530007245E+03  0.77109094524E+03  0.90648308188E+03  0.00000000000E+00 0. -1.
         -3    1    5    5    0  503  0.35486717340E+02 -0.27908112852E+02  0.12237906143E+03  0.13044080859E+03  0.00000000000E+00 0.  1.
         -3    1    6    6    0  502  0.19140118044E+02  0.22586843192E+03  0.36546222322E+03  0.43005293774E+03  0.00000000000E+00 0.  1.
<mgrwt>
<rscale>  0 0.15181154E+04</rscale>
<asrwt>0</asrwt>
<pdfrwt beam="1">  1        2 0.25649743E+00 0.15181154E+04</pdfrwt>
<pdfrwt beam="2">  1       -2 0.53166715E-01 0.15181154E+04</pdfrwt>
<totfact> 0.32912563E+01</totfact>
</mgrwt>
</event>
<event>
12    1  0.4802930E-008  0.1493646E+04  0.7818608E-02  0.8888689E-01
          1   -1    0    0  501    0  0.00000000000E+00  0.00000000000E+00  0.16422828803E+04  0.16422828803E+04  0.00000000000E+00 0. -1.
         -1   -1    0    0    0  501 -0.00000000000E+00 -0.00000000000E+00 -0.33961538667E+03  0.33961538667E+03  0.00000000000E+00 0.  1.
         23    2    1    2    0    0 -0.13123531019E+03 -0.34296210196E+03  0.40862384542E+02  0.38340874191E+03  0.10240517017E+03 0.  0.
        254    2    1    2    0    0  0.13123531019E+03  0.34296210196E+03  0.12618051091E+04  0.15984895251E+04  0.91003896533E+03 0.  0.
         23    2    4    4    0    0  0.49260686257E+03  0.13974297355E+03  0.90455482307E+03  0.10434831279E+04  0.91912951397E+02 0.  0.
         23    2    4    4    0    0 -0.36137155238E+03  0.20321912841E+03  0.35725028602E+03  0.55500639713E+03  0.92287165836E+02 0.  0.
         11    1    3    3    0    0 -0.13651291193E+03 -0.27157897688E+03  0.65446076462E+01  0.30402918889E+03  0.00000000000E+00 0.  1.
        -11    1    3    3    0    0  0.52776017396E+01 -0.71383125080E+02  0.34317776896E+02  0.79379553018E+02  0.00000000000E+00 0. -1.
          2    1    5    5  502    0  0.10373137742E+03  0.17663460660E+02  0.26459069237E+03  0.28474625720E+03  0.00000000000E+00 0. -1.
          4    1    6    6  503    0 -0.98102174573E+02  0.33435363506E+02  0.13821525670E+03  0.17275826282E+03  0.00000000000E+00 0.  1.
         -2    1    5    5    0  502  0.38887548516E+03  0.12207951289E+03  0.63996413070E+03  0.75873687073E+03  0.00000000000E+00 0.  1.
         -4    1    6    6    0  503 -0.26326937781E+03  0.16978376490E+03  0.21903502932E+03  0.38224813431E+03  0.00000000000E+00 0. -1.
<mgrwt>
<rscale>  0 0.14936459E+04</rscale>
<asrwt>0</asrwt>
<pdfrwt beam="1">  1        1 0.25265890E+00 0.14936459E+04</pdfrwt>
<pdfrwt beam="2">  1       -1 0.52248522E-01 0.14936459E+04</pdfrwt>
<totfact> 0.18638902E+01</totfact>
</mgrwt>
</event>
<event>
12    1  0.4802930E-008  0.1768644E+04  0.7818608E-02  0.8723154E-01
         -2   -1    0    0    0  501 -0.00000000000E+00  0.00000000000E+00  0.14931051998E+04  0.14931051998E+04  0.00000000000E+00 0.  1.
          2   -1    0    0  501    0  0.00000000000E+00 -0.00000000000E+00 -0.52375769806E+03  0.52375769806E+03  0.00000000000E+00 0. -1.
         23    2    1    2    0    0 -0.21161832195E+03 -0.13281532451E+03 -0.32856644799E+03  0.42257543245E+03  0.90508898758E+02 0.  0.
        254    2    1    2    0    0  0.21161832195E+03  0.13281532451E+03  0.12979139497E+04  0.15942874654E+04  0.89148733972E+03 0.  0.
         23    2    4    4    0    0 -0.87914920088E+02  0.45258210712E+03  0.77263888613E+03  0.90438271735E+03  0.91529526489E+02 0.  0.
         23    2    4    4    0    0  0.29953324204E+03 -0.31976678261E+03  0.52527506359E+03  0.68990474806E+03  0.89909457913E+02 0.  0.
         13    1    3    3    0    0 -0.13235473358E+03 -0.68528050414E+02 -0.12367433579E+03  0.19367294733E+03  0.00000000000E+00 0. -1.
        -13    1    3    3    0    0 -0.79263588373E+02 -0.64287274096E+02 -0.20489211220E+03  0.22890248512E+03  0.00000000000E+00 0.  1.
          4    1    5    5  502    0 -0.82351703513E+02  0.42484665228E+03  0.75724074769E+03  0.87217545883E+03  0.00000000000E+00 0. -1.
          1    1    6    6  503    0  0.94648224063E+01 -0.48745907203E+02  0.70604823482E+02  0.86317943854E+02  0.00000000000E+00 0.  1.
         -4    1    5    5    0  502 -0.55632165751E+01  0.27735454841E+02  0.15398138443E+02  0.32207258521E+02  0.00000000000E+00 0.  1.
         -1    1    6    6    0  503  0.29006841963E+03 -0.27102087540E+03  0.45467024011E+03  0.60358680421E+03  0.00000000000E+00 0. -1.
<mgrwt>
<rscale>  0 0.17686439E+04</rscale>
<asrwt>0</asrwt>
<pdfrwt beam="1">  1        2 0.80578108E-01 0.17686439E+04</pdfrwt>
<pdfrwt beam="2">  1       -2 0.22970849E+00 0.17686439E+04</pdfrwt>
<totfact> 0.47368669E+00</totfact>
</mgrwt>
</event>
<event>
12    1  0.4802930E-008  0.1721758E+04  0.7818608E-02  0.8749052E-01
         -2   -1    0    0    0  501 -0.00000000000E+00  0.00000000000E+00  0.45635359057E+03  0.45635359057E+03  0.00000000000E+00 0.  1.
          2   -1    0    0  501    0  0.00000000000E+00 -0.00000000000E+00 -0.16239873195E+04  0.16239873195E+04  0.00000000000E+00 0. -1.
         23    2    1    2    0    0 -0.29459035235E+03 -0.24790010764E+03  0.16390343362E+03  0.42869494322E+03  0.93150843953E+02 0.  0.
        254    2    1    2    0    0  0.29459035235E+03  0.24790010764E+03 -0.13315371625E+04  0.16516459668E+04  0.89816771568E+03 0.  0.
         23    2    4    4    0    0  0.18980160505E+02 -0.22981765210E+03 -0.49576498897E+02  0.25300110338E+03  0.91516825540E+02 0.  0.
         23    2    4    4    0    0  0.27561019184E+03  0.47771775974E+03 -0.12819606636E+04  0.13986448635E+04  0.92785101973E+02 0.  0.
         13    1    3    3    0    0 -0.28358752108E+03 -0.25516372642E+03  0.15110598996E+03  0.41032112984E+03  0.00000000000E+00 0.  1.
        -13    1    3    3    0    0 -0.11002831266E+02  0.72636187877E+01  0.12797443660E+02  0.18373813376E+02  0.00000000000E+00 0. -1.
          4    1    5    5  502    0 -0.17325421743E+02 -0.95472948555E+02  0.17365148040E+02  0.98573842935E+02  0.00000000000E+00 0.  1.
          3    1    6    6  503    0  0.13482724726E+03  0.32328856971E+03 -0.79653336113E+03  0.87014899949E+03  0.00000000000E+00 0. -1.
         -4    1    5    5    0  502  0.36305582248E+02 -0.13434470355E+03 -0.66941646936E+02  0.15442726044E+03  0.00000000000E+00 0. -1.
         -3    1    6    6    0  503  0.14078294459E+03  0.15442919002E+03 -0.48542730249E+03  0.52849586396E+03  0.00000000000E+00 0.  1.
<mgrwt>
<rscale>  0 0.17217578E+04</rscale>
<asrwt>0</asrwt>
<pdfrwt beam="1">  1        2 0.24984420E+00 0.17217578E+04</pdfrwt>
<pdfrwt beam="2">  1       -2 0.70208245E-01 0.17217578E+04</pdfrwt>
<totfact> 0.18967872E+01</totfact>
</mgrwt>
</event>
<event>
12    1  0.4802930E-008  0.1297689E+04  0.7818608E-02  0.9031400E-01
         -2   -1    0    0    0  501 -0.00000000000E+00  0.00000000000E+00  0.60535976690E+03  0.60535976690E+03  0.00000000000E+00 0.  1.
          2   -1    0    0  501    0  0.00000000000E+00 -0.00000000000E+00 -0.69545242039E+03  0.69545242039E+03  0.00000000000E+00 0. -1.
         23    2    1    2    0    0  0.10007820184E+03 -0.11167010446E+03  0.25790675456E+03  0.31244677998E+03  0.92850619565E+02 0.  0.
        254    2    1    2    0    0 -0.10007820184E+03  0.11167010446E+03 -0.34799940805E+03  0.98836540732E+03  0.91283992664E+03 0.  0.
         23    2    4    4    0    0  0.20317420556E+03  0.36347883446E+03  0.39919841508E+02  0.42796860196E+03  0.90370955600E+02 0.  0.
         23    2    4    4    0    0 -0.30325240740E+03 -0.25180873000E+03 -0.38791924956E+03  0.56039680535E+03  0.90518374788E+02 0.  0.
         11    1    3    3    0    0 -0.50860557495E+01  0.25572624952E+00  0.68090195806E+02  0.68280364117E+02  0.00000000000E+00 0. -1.
        -11    1    3    3    0    0  0.10516425759E+03 -0.11192583071E+03  0.18981655876E+03  0.24416641586E+03  0.00000000000E+00 0.  1.
          1    1    5    5  502    0  0.39764449140E+02  0.16116060481E+03  0.18441553466E+02  0.16701509768E+03  0.00000000000E+00 0. -1.
          1    1    6    6  503    0 -0.12662791506E+03 -0.53055952321E+02 -0.11166098206E+03  0.17696818319E+03  0.00000000000E+00 0. -1.
         -1    1    5    5    0  502  0.16340975642E+03  0.20231822965E+03  0.21478288042E+02  0.26095350428E+03  0.00000000000E+00 0.  1.
         -1    1    6    6    0  503 -0.17662449235E+03 -0.19875277768E+03 -0.27625826750E+03  0.38342862216E+03  0.00000000000E+00 0.  1.
<mgrwt>
<rscale>  0 0.12976886E+04</rscale>
<asrwt>0</asrwt>
<pdfrwt beam="1">  1        2 0.10699268E+00 0.12976886E+04</pdfrwt>
<pdfrwt beam="2">  1       -2 0.93132271E-01 0.12976886E+04</pdfrwt>
<totfact> 0.39550663E+01</totfact>
</mgrwt>
</event>
<event>
12    1  0.4802930E-008  0.2349900E+04  0.7818608E-02  0.8458502E-01
         -2   -1    0    0    0  501 -0.00000000000E+00  0.00000000000E+00  0.10524040446E+04  0.10524040446E+04  0.00000000000E+00 0.  1.
          2   -1    0    0  501    0  0.00000000000E+00 -0.00000000000E+00 -0.13117655292E+04  0.13117655292E+04  0.00000000000E+00 0. -1.
         23    2    1    2    0    0  0.93700264429E+03  0.11363781572E+03  0.22984677586E+03  0.97513211910E+03  0.84649871588E+02 0.  0.
        254    2    1    2    0    0 -0.93700264429E+03 -0.11363781572E+03 -0.48920826045E+03  0.13890374548E+04  0.89398703576E+03 0.  0.
         23    2    4    4    0    0 -0.61625966707E+02 -0.16575250440E+03 -0.46738425306E+03  0.50724025733E+03  0.87022905928E+02 0.  0.
         23    2    4    4    0    0 -0.87537667758E+03  0.52114688682E+02 -0.21824007386E+02  0.88179719744E+03  0.89942991318E+02 0.  0.
         11    1    3    3    0    0  0.27249407549E+03  0.15634778291E+02  0.31449455014E+02  0.27474813137E+03  0.00000000000E+00 0. -1.
        -11    1    3    3    0    0  0.66450856880E+03  0.98003037425E+02  0.19839732084E+03  0.70038398773E+03  0.00000000000E+00 0.  1.
          4    1    5    5  502    0  0.17642450727E+01 -0.12136481335E+02 -0.12005772677E+01  0.12322667148E+02  0.00000000000E+00 0. -1.
          1    1    6    6  503    0 -0.44895394628E+03  0.32240998775E+02 -0.55829458871E+02  0.45355931956E+03  0.00000000000E+00 0. -1.
         -4    1    5    5    0  502 -0.63390211780E+02 -0.15361602306E+03 -0.46618367579E+03  0.49491759018E+03  0.00000000000E+00 0.  1.
         -1    1    6    6    0  503 -0.42642273130E+03  0.19873689908E+02  0.34005451486E+02  0.42823787788E+03  0.00000000000E+00 0.  1.
<mgrwt>
<rscale>  0 0.23498999E+04</rscale>
<asrwt>0</asrwt>
<pdfrwt beam="1">  1        2 0.20181008E+00 0.23498999E+04</pdfrwt>
<pdfrwt beam="2">  1       -2 0.16190831E+00 0.23498999E+04</pdfrwt>
<totfact> 0.35834147E+00</totfact>
</mgrwt>
</event>
<event>
12    1  0.4802930E-008  0.2820506E+04  0.7818608E-02  0.8296930E-01
          2   -1    0    0  501    0  0.00000000000E+00  0.00000000000E+00  0.15061606375E+04  0.15061606375E+04  0.00000000000E+00 0. -1.
         -2   -1    0    0    0  501 -0.00000000000E+00 -0.00000000000E+00 -0.13204522172E+04  0.13204522172E+04  0.00000000000E+00 0.  1.
         23    2    1    2    0    0  0.59104995864E+03  0.95455360678E+02 -0.10317133273E+04  0.11963281856E+04  0.91197360146E+02 0.  0.
        254    2    1    2    0    0 -0.59104995864E+03 -0.95455360678E+02  0.12174217476E+04  0.16302846690E+04  0.90402467400E+03 0.  0.
         23    2    4    4    0    0  0.19281051781E+03 -0.18560207378E+03  0.24570277975E+03  0.37481977922E+03  0.92173669506E+02 0.  0.
         23    2    4    4    0    0 -0.78386047645E+03  0.90146713099E+02  0.97171896782E+03  0.12554648898E+04  0.96905421664E+02 0.  0.
         13    1    3    3    0    0  0.42500320056E+03  0.74814521546E+02 -0.65825551269E+03  0.78709926509E+03  0.00000000000E+00 0.  1.
        -13    1    3    3    0    0  0.16604675808E+03  0.20640839131E+02 -0.37345781456E+03  0.40922892049E+03  0.00000000000E+00 0. -1.
          2    1    5    5  502    0  0.59856395816E+01  0.53876220878E+01 -0.41181895971E+01  0.90451002493E+01  0.00000000000E+00 0.  1.
          4    1    6    6  503    0 -0.33097016994E+03 -0.67187984744E+01  0.37772465921E+03  0.50225721878E+03  0.00000000000E+00 0. -1.
         -2    1    5    5    0  502  0.18682487823E+03 -0.19098969586E+03  0.24982096934E+03  0.36577467897E+03  0.00000000000E+00 0. -1.
         -4    1    6    6    0  503 -0.45289030651E+03  0.96865511573E+02  0.59399430861E+03  0.75320767105E+03  0.00000000000E+00 0.  1.
<mgrwt>
<rscale>  0 0.28205057E+04</rscale>
<asrwt>0</asrwt>
<pdfrwt beam="1">  1        2 0.23171702E+00 0.28205057E+04</pdfrwt>
<pdfrwt beam="2">  1       -2 0.20314650E+00 0.28205057E+04</pdfrwt>
<totfact> 0.13876153E+00</totfact>
</mgrwt>
</event>
<event>
12    1  0.4802930E-008  0.1577440E+04  0.7818608E-02  0.8834529E-01
         -1   -1    0    0    0  501 -0.00000000000E+00  0.00000000000E+00  0.40841591845E+03  0.40841591845E+03  0.00000000000E+00 0.  1.
          1   -1    0    0  501    0  0.00000000000E+00 -0.00000000000E+00 -0.15231513376E+04  0.15231513376E+04  0.00000000000E+00 0. -1.
         23    2    1    2    0    0 -0.66949664405E+01 -0.37416616274E+03  0.51485143152E+02  0.38846153733E+03  0.90589768225E+02 0.  0.
        254    2    1    2    0    0  0.66949664405E+01  0.37416616274E+03 -0.11662205624E+04  0.15431057188E+04  0.93864781431E+03 0.  0.
         23    2    4    4    0    0  0.41849660653E+03  0.35952784923E+03 -0.84222086589E+03  0.10109188678E+04  0.90671309015E+02 0.  0.
         23    2    4    4    0    0 -0.41180164009E+03  0.14638313511E+02 -0.32399969646E+03  0.53218685096E+03  0.91935684220E+02 0.  0.
         11    1    3    3    0    0 -0.21067717118E+02 -0.28320982704E+03  0.74383983795E+02  0.29357219195E+03  0.00000000000E+00 0.  1.
        -11    1    3    3    0    0  0.14372750678E+02 -0.90956335696E+02 -0.22898840643E+02  0.94889345387E+02  0.00000000000E+00 0. -1.
          2    1    5    5  502    0  0.32545891012E+03  0.23870522988E+03 -0.65608918287E+03  0.77029650449E+03  0.00000000000E+00 0. -1.
          3    1    6    6  503    0 -0.37086174326E+03  0.30294191149E+02 -0.25736995537E+03  0.45243282878E+03  0.00000000000E+00 0. -1.
         -2    1    5    5    0  502  0.93037696404E+02  0.12082261935E+03 -0.18613168302E+03  0.24062236331E+03  0.00000000000E+00 0.  1.
         -3    1    6    6    0  503 -0.40939896825E+02 -0.15655877639E+02 -0.66629741088E+02  0.79754022182E+02  0.00000000000E+00 0.  1.
<mgrwt>
<rscale>  0 0.15774400E+04</rscale>
<asrwt>0</asrwt>
<pdfrwt beam="1">  1        1 0.23433098E+00 0.15774400E+04</pdfrwt>
<pdfrwt beam="2">  1       -1 0.62833217E-01 0.15774400E+04</pdfrwt>
<totfact> 0.15568904E+01</totfact>
</mgrwt>
</event>
<event>
12    1  0.4802930E-008  0.1514174E+04  0.7818608E-02  0.8875082E-01
          1   -1    0    0  501    0  0.00000000000E+00  0.00000000000E+00  0.14328818450E+04  0.14328818450E+04  0.00000000000E+00 0. -1.
         -1   -1    0    0    0  501 -0.00000000000E+00 -0.00000000000E+00 -0.40001968983E+03  0.40001968983E+03  0.00000000000E+00 0.  1.
         23    2    1    2    0    0 -0.29418707098E+03  0.34142731828E+03  0.92794860550E+02  0.46529065009E+03  0.69035183210E+02 0.  0.
        254    2    1    2    0    0  0.29418707098E+03 -0.34142731828E+03  0.94006729461E+03  0.13676108847E+04  0.88516346922E+03 0.  0.
         23    2    4    4    0    0 -0.25067392172E+03 -0.21271050550E+03  0.64207498990E+03  0.72716096815E+03  0.91758415236E+02 0.  0.
         23    2    4    4    0    0  0.54486099270E+03 -0.12871681278E+03  0.29799230471E+03  0.64044991658E+03  0.89079530313E+02 0.  0.
         13    1    3    3    0    0 -0.20331433030E+03  0.26337470425E+03  0.42711738244E+02  0.33545080761E+03  0.00000000000E+00 0.  1.
        -13    1    3    3    0    0 -0.90872740678E+02  0.78052614027E+02  0.50083122307E+02  0.12983984248E+03  0.00000000000E+00 0. -1.
          2    1    5    5  502    0 -0.35995341147E+02 -0.23250697020E+02  0.32808985447E+02  0.53969334091E+02  0.00000000000E+00 0. -1.
          2    1    6    6  503    0  0.38302199808E+03 -0.54923384986E+02  0.22929180732E+03  0.44977456812E+03  0.00000000000E+00 0. -1.
         -2    1    5    5    0  502 -0.21467858058E+03 -0.18945980848E+03  0.60926600445E+03  0.67319163406E+03  0.00000000000E+00 0.  1.
         -2    1    6    6    0  503  0.16183899463E+03 -0.73793427789E+02  0.68700497393E+02  0.19067534845E+03  0.00000000000E+00 0.  1.
<mgrwt>
<rscale>  0 0.15141743E+04</rscale>
<asrwt>0</asrwt>
<pdfrwt beam="1">  1        1 0.22044336E+00 0.15141743E+04</pdfrwt>
<pdfrwt beam="2">  1       -1 0.61541491E-01 0.15141743E+04</pdfrwt>
<totfact> 0.18850632E+01</totfact>
</mgrwt>
</event>
<event>
12    1  0.4802930E-008  0.1701459E+04  0.7818608E-02  0.8760533E-01
         -2   -1    0    0    0  501 -0.00000000000E+00  0.00000000000E+00  0.54343920058E+03  0.54343920058E+03  0.00000000000E+00 0.  1.
          2   -1    0    0  501    0  0.00000000000E+00 -0.00000000000E+00 -0.13317786138E+04  0.13317786138E+04  0.00000000000E+00 0. -1.
         23    2    1    2    0    0  0.49306954039E+03  0.19651164428E+03 -0.62655852407E+03  0.82578581917E+03  0.87248134980E+02 0.  0.
        254    2    1    2    0    0 -0.49306954039E+03 -0.19651164428E+03 -0.16178088920E+03  0.10494319953E+04  0.89073007054E+03 0.  0.
         23    2    4    4    0    0 -0.69219679081E+02  0.26234306466E+03  0.17470389876E+03  0.33521260854E+03  0.90723718707E+02 0.  0.
         23    2    4    4    0    0 -0.42384986131E+03 -0.45885470894E+03 -0.33648478796E+03  0.71421938671E+03  0.81798355634E+02 0.  0.
         13    1    3    3    0    0  0.47602869805E+03  0.20430985170E+03 -0.61347316876E+03  0.80292911621E+03  0.00000000000E+00 0. -1.
        -13    1    3    3    0    0  0.17040842338E+02 -0.77982074173E+01 -0.13085355306E+02  0.22856702955E+02  0.00000000000E+00 0.  1.
          2    1    5    5  502    0 -0.20360533825E+02  0.39279919538E+02  0.72722182830E+02  0.85123318145E+02  0.00000000000E+00 0.  1.
          3    1    6    6  503    0 -0.18302396692E+03 -0.24530380746E+03 -0.19288185254E+03  0.36176669203E+03  0.00000000000E+00 0. -1.
         -2    1    5    5    0  502 -0.48859145256E+02  0.22306314512E+03  0.10198171593E+03  0.25008929040E+03  0.00000000000E+00 0. -1.
         -3    1    6    6    0  503 -0.24082589439E+03 -0.21355090148E+03 -0.14360293542E+03  0.35245269469E+03  0.00000000000E+00 0.  1.
<mgrwt>
<rscale>  0 0.17014590E+04</rscale>
<asrwt>0</asrwt>
<pdfrwt beam="1">  1        2 0.20488902E+00 0.17014590E+04</pdfrwt>
<pdfrwt beam="2">  1       -2 0.83606032E-01 0.17014590E+04</pdfrwt>
<totfact> 0.18859321E+01</totfact>
</mgrwt>
</event>
<event>
12    1  0.4802930E-008  0.2803988E+04  0.7818608E-02  0.8302031E-01
         -2   -1    0    0    0  501 -0.00000000000E+00  0.00000000000E+00  0.72977561225E+03  0.72977561225E+03  0.00000000000E+00 0.  1.
          2   -1    0    0  501    0  0.00000000000E+00 -0.00000000000E+00 -0.26934122075E+04  0.26934122075E+04  0.00000000000E+00 0. -1.
         23    2    1    2    0    0  0.41816341678E+03 -0.50990828462E+03 -0.21761618857E+04  0.22756726103E+04  0.90211830511E+02 0.  0.
        254    2    1    2    0    0 -0.41816341678E+03  0.50990828462E+03  0.21252529053E+03  0.11475152094E+04  0.91474425656E+03 0.  0.
         23    2    4    4    0    0 -0.33922987142E+03 -0.17997231918E+03 -0.54695385722E+02  0.39787569454E+03  0.88580707559E+02 0.  0.
         23    2    4    4    0    0 -0.78933545368E+02  0.68988060380E+03  0.26722067625E+03  0.74963951490E+03  0.91579257504E+02 0.  0.
         11    1    3    3    0    0  0.30247216100E+03 -0.33184004499E+03 -0.15921940478E+04  0.16542941424E+04  0.00000000000E+00 0. -1.
        -11    1    3    3    0    0  0.11569125578E+03 -0.17806823962E+03 -0.58396783796E+03  0.62137846792E+03  0.00000000000E+00 0.  1.
          2    1    5    5  502    0 -0.15577402610E+02 -0.35091514857E+02 -0.14349498779E+02  0.40987534718E+02  0.00000000000E+00 0. -1.
          2    1    6    6  503    0 -0.15935403693E+02  0.44822601840E+02 -0.24839337559E+01  0.47635833712E+02  0.00000000000E+00 0. -1.
         -2    1    5    5    0  502 -0.32365246881E+03 -0.14488080432E+03 -0.40345886942E+02  0.35688815982E+03  0.00000000000E+00 0.  1.
         -2    1    6    6    0  503 -0.62998141675E+02  0.64505800196E+03  0.26970461000E+03  0.70200368119E+03  0.00000000000E+00 0.  1.
<mgrwt>
<rscale>  0 0.28039875E+04</rscale>
<asrwt>0</asrwt>
<pdfrwt beam="1">  1        2 0.41437110E+00 0.28039875E+04</pdfrwt>
<pdfrwt beam="2">  1       -2 0.11227317E+00 0.28039875E+04</pdfrwt>
<totfact> 0.14567609E+00</totfact>
</mgrwt>
</event>
<event>
12    1  0.4802930E-008  0.1402342E+04  0.7818608E-02  0.8952125E-01
         -1   -1    0    0    0  501 -0.00000000000E+00  0.00000000000E+00  0.20500981315E+03  0.20500981315E+03  0.00000000000E+00 0.  1.
          1   -1    0    0  501    0  0.00000000000E+00 -0.00000000000E+00 -0.23981340490E+04  0.23981340490E+04  0.00000000000E+00 0. -1.
         23    2    1    2    0    0  0.15515836368E+03 -0.20738386961E+03 -0.12280564113E+04  0.12583163669E+04  0.90306935435E+02 0.  0.
        254    2    1    2    0    0 -0.15515836368E+03  0.20738386961E+03 -0.96506782460E+03  0.13448274953E+04  0.90006827459E+03 0.  0.
         23    2    4    4    0    0 -0.52342560210E+03  0.99461485708E+02 -0.57006248481E+03  0.78658081859E+03  0.99353910368E+02 0.  0.
         23    2    4    4    0    0  0.36826723842E+03  0.10792238390E+03 -0.39500533978E+03  0.55824667674E+03  0.91335282286E+02 0.  0.
         13    1    3    3    0    0  0.10654345921E+03 -0.19220901409E+03 -0.10671202104E+04  0.10895142758E+04  0.00000000000E+00 0. -1.
        -13    1    3    3    0    0  0.48614904468E+02 -0.15174855516E+02 -0.16093620092E+03  0.16880209105E+03  0.00000000000E+00 0.  1.
          2    1    5    5  502    0 -0.37102536250E+03  0.46986292094E+02 -0.33840141539E+03  0.50436400466E+03  0.00000000000E+00 0. -1.
          1    1    6    6  503    0  0.35358319509E+03  0.11518472657E+03 -0.35127773058E+03  0.51155121062E+03  0.00000000000E+00 0. -1.
         -2    1    5    5    0  502 -0.15240023961E+03  0.52475193614E+02 -0.23166106943E+03  0.28221681393E+03  0.00000000000E+00 0.  1.
         -1    1    6    6    0  503  0.14684043333E+02 -0.72623426653E+01 -0.43727609201E+02  0.46695466118E+02  0.00000000000E+00 0.  1.
<mgrwt>
<rscale>  0 0.14023423E+04</rscale>
<asrwt>0</asrwt>
<pdfrwt beam="1">  1        1 0.36894368E+00 0.14023423E+04</pdfrwt>
<pdfrwt beam="2">  1       -1 0.31539973E-01 0.14023423E+04</pdfrwt>
<totfact> 0.14552277E+01</totfact>
</mgrwt>
</event>
<event>
12    1  0.4802930E-008  0.2112245E+04  0.7818608E-02  0.8555868E-01
         -2   -1    0    0    0  501 -0.00000000000E+00  0.00000000000E+00  0.34336952854E+03  0.34336952854E+03  0.00000000000E+00 0.  1.
          2   -1    0    0  501    0  0.00000000000E+00 -0.00000000000E+00 -0.32483813835E+04  0.32483813835E+04  0.00000000000E+00 0. -1.
         23    2    1    2    0    0 -0.72065691653E+03  0.13908534005E+03 -0.19452908960E+04  0.20811375203E+04  0.91025189378E+02 0.  0.
        254    2    1    2    0    0  0.72065691653E+03 -0.13908534005E+03 -0.95972095895E+03  0.15106133917E+04  0.90675100062E+03 0.  0.
         23    2    4    4    0    0  0.54824326064E+03 -0.46974623604E+03 -0.39422791306E+03  0.82719861463E+03  0.87233603019E+02 0.  0.
         23    2    4    4    0    0  0.17241365589E+03  0.33066089599E+03 -0.56549304589E+03  0.68341477712E+03  0.90610572019E+02 0.  0.
         13    1    3    3    0    0 -0.42427768495E+02  0.99418741766E+01 -0.66498434747E+02  0.79504705681E+02  0.00000000000E+00 0.  1.
        -13    1    3    3    0    0 -0.67822914804E+03  0.12914346588E+03 -0.18787924613E+04  0.20016328146E+04  0.00000000000E+00 0. -1.
          2    1    5    5  502    0  0.21654275517E+03 -0.16840855511E+03 -0.10446290207E+03  0.29353824991E+03  0.00000000000E+00 0.  1.
          4    1    6    6  503    0  0.83848162205E+02  0.20527560783E+03 -0.26147070783E+03  0.34283453812E+03  0.00000000000E+00 0. -1.
         -2    1    5    5    0  502  0.33170050547E+03 -0.30133768093E+03 -0.28976501099E+03  0.53366036472E+03  0.00000000000E+00 0. -1.
         -4    1    6    6    0  503  0.88565493687E+02  0.12538528817E+03 -0.30402233805E+03  0.34058023900E+03  0.00000000000E+00 0.  1.
<mgrwt>
<rscale>  0 0.21122454E+04</rscale>
<asrwt>0</asrwt>
<pdfrwt beam="1">  1        2 0.49975100E+00 0.21122454E+04</pdfrwt>
<pdfrwt beam="2">  1       -2 0.52826079E-01 0.21122454E+04</pdfrwt>
<totfact> 0.37615243E+00</totfact>
</mgrwt>
</event>
<event>
12    1  0.4802930E-008  0.1796928E+04  0.7818608E-02  0.8707935E-01
          2   -1    0    0  501    0  0.00000000000E+00  0.00000000000E+00  0.68547644619E+03  0.68547644619E+03  0.00000000000E+00 0. -1.
         -2   -1    0    0    0  501 -0.00000000000E+00 -0.00000000000E+00 -0.11776292793E+04  0.11776292793E+04  0.00000000000E+00 0.  1.
         23    2    1    2    0    0  0.49540748347E+01 -0.67532930920E+03 -0.16727040369E+03  0.70141108980E+03  0.88903938164E+02 0.  0.
        254    2    1    2    0    0 -0.49540748347E+01  0.67532930920E+03 -0.32488242939E+03  0.11616946357E+04  0.88763259002E+03 0.  0.
         23    2    4    4    0    0 -0.36000314524E+03  0.29690900301E+02 -0.11394362523E+03  0.38985011948E+03  0.92282998379E+02 0.  0.
         23    2    4    4    0    0  0.35504907040E+03  0.64563840890E+03 -0.21093880416E+03  0.77184451617E+03  0.91323494264E+02 0.  0.
         13    1    3    3    0    0  0.35751519874E+02 -0.57173328777E+03 -0.14758602228E+03  0.59155621668E+03  0.00000000000E+00 0.  1.
        -13    1    3    3    0    0 -0.30797445039E+02 -0.10359602143E+03 -0.19684381405E+02  0.10985487312E+03  0.00000000000E+00 0. -1.
          4    1    5    5  502    0 -0.37397923597E+02  0.21044377636E+02 -0.40222181897E+02  0.58815766900E+02  0.00000000000E+00 0. -1.
          1    1    6    6  503    0  0.79629176171E+02  0.78153495220E+02 -0.27244379893E+02  0.11485221264E+03  0.00000000000E+00 0. -1.
         -4    1    5    5    0  502 -0.32260522164E+03  0.86465226651E+01 -0.73721443331E+02  0.33103435258E+03  0.00000000000E+00 0.  1.
         -1    1    6    6    0  503  0.27541989423E+03  0.56748491368E+03 -0.18369442427E+03  0.65699230353E+03  0.00000000000E+00 0.  1.
<mgrwt>
<rscale>  0 0.17969275E+04</rscale>
<asrwt>0</asrwt>
<pdfrwt beam="1">  1        2 0.10545792E+00 0.17969275E+04</pdfrwt>
<pdfrwt beam="2">  1       -2 0.18117373E+00 0.17969275E+04</pdfrwt>
<totfact> 0.70657270E+00</totfact>
</mgrwt>
</event>
<event>
12    1  0.4802930E-008  0.1486845E+04  0.7818608E-02  0.8893249E-01
          1   -1    0    0  501    0  0.00000000000E+00  0.00000000000E+00  0.16324698703E+04  0.16324698703E+04  0.00000000000E+00 0. -1.
         -1   -1    0    0    0  501 -0.00000000000E+00 -0.00000000000E+00 -0.33855243445E+03  0.33855243445E+03  0.00000000000E+00 0.  1.
         23    2    1    2    0    0 -0.87586306176E+02 -0.31222767586E+03  0.86721753844E+03  0.93118006737E+03  0.99360838736E+02 0.  0.
        254    2    1    2    0    0  0.87586306176E+02  0.31222767586E+03  0.42669989743E+03  0.10398422374E+04  0.89109011533E+03 0.  0.
         23    2    4    4    0    0 -0.95600175625E+02  0.53347167716E+03  0.48427782334E+03  0.73324110659E+03  0.96881816114E+02 0.  0.
         23    2    4    4    0    0  0.18318648180E+03 -0.22124400130E+03 -0.57577925910E+02  0.30660113082E+03  0.90459055067E+02 0.  0.
         11    1    3    3    0    0  0.10196768169E+02 -0.20782126424E+02  0.22573134629E+02  0.32332913057E+02  0.00000000000E+00 0.  1.
        -11    1    3    3    0    0 -0.97783074345E+02 -0.29144554943E+03  0.84464440381E+03  0.89884715431E+03  0.00000000000E+00 0. -1.
          2    1    5    5  502    0 -0.19122252894E+02  0.10089502254E+02  0.19083878519E+02  0.28838395080E+02  0.00000000000E+00 0. -1.
          3    1    6    6  503    0  0.12311651425E+03 -0.89993787857E+02 -0.37482361814E+01  0.15254706555E+03  0.00000000000E+00 0. -1.
         -2    1    5    5    0  502 -0.76477922731E+02  0.52338217491E+03  0.46519394483E+03  0.70440271151E+03  0.00000000000E+00 0.  1.
         -3    1    6    6    0  503  0.60069967554E+02 -0.13125021345E+03 -0.53829689728E+02  0.15405406527E+03  0.00000000000E+00 0.  1.
<mgrwt>
<rscale>  0 0.14868445E+04</rscale>
<asrwt>0</asrwt>
<pdfrwt beam="1">  1        1 0.25114921E+00 0.14868445E+04</pdfrwt>
<pdfrwt beam="2">  1       -1 0.52084991E-01 0.14868445E+04</pdfrwt>
<totfact> 0.19054577E+01</totfact>
</mgrwt>
</event>
<event>
12    1  0.4802930E-008  0.1319960E+04  0.7818608E-02  0.9013885E-01
         -1   -1    0    0    0  501 -0.00000000000E+00  0.00000000000E+00  0.10900300814E+04  0.10900300814E+04  0.00000000000E+00 0.  1.
          1   -1    0    0  501    0  0.00000000000E+00 -0.00000000000E+00 -0.39959750179E+03  0.39959750179E+03  0.00000000000E+00 0. -1.
         23    2    1    2    0    0  0.70774430964E+02  0.31339336113E+03  0.29213115938E+03  0.44344589831E+03  0.89884545759E+02 0.  0.
        254    2    1    2    0    0 -0.70774430964E+02 -0.31339336113E+03  0.39830142022E+03  0.10461816849E+04  0.91248434373E+03 0.  0.
         23    2    4    4    0    0 -0.34951013816E+03  0.16931388867E+03  0.21586119027E+03  0.45264684919E+03  0.86420987290E+02 0.  0.
         23    2    4    4    0    0  0.27873570719E+03 -0.48270724980E+03  0.18244022996E+03  0.59353483570E+03  0.91100385286E+02 0.  0.
         11    1    3    3    0    0  0.21231586820E+02  0.25965590031E+03  0.22676824505E+03  0.34539224631E+03  0.00000000000E+00 0.  1.
        -11    1    3    3    0    0  0.49542844144E+02  0.53737460821E+02  0.65362914335E+02  0.98053652006E+02  0.00000000000E+00 0. -1.
          4    1    5    5  502    0 -0.85611938567E+02  0.26216273272E+02  0.13344338121E+02  0.90524959925E+02  0.00000000000E+00 0. -1.
          3    1    6    6  503    0  0.21807044957E+01 -0.17580531497E+02  0.23718239851E+02  0.29603808226E+02  0.00000000000E+00 0. -1.
         -4    1    5    5    0  502 -0.26389819959E+03  0.14309761540E+03  0.20251685215E+03  0.36212188926E+03  0.00000000000E+00 0.  1.
         -3    1    6    6    0  503  0.27655500270E+03 -0.46512671831E+03  0.15872199010E+03  0.56393102747E+03  0.00000000000E+00 0.  1.
<mgrwt>
<rscale>  0 0.13199595E+04</rscale>
<asrwt>0</asrwt>
<pdfrwt beam="1">  1        1 0.61476539E-01 0.13199595E+04</pdfrwt>
<pdfrwt beam="2">  1       -1 0.16769693E+00 0.13199595E+04</pdfrwt>
<totfact> 0.15081081E+01</totfact>
</mgrwt>
</event>
<event>
12    1  0.4802930E-008  0.1380671E+04  0.7818608E-02  0.8967930E-01
         -2   -1    0    0    0  501 -0.00000000000E+00  0.00000000000E+00  0.25076849429E+03  0.25076849429E+03  0.00000000000E+00 0.  1.
          2   -1    0    0  501    0  0.00000000000E+00 -0.00000000000E+00 -0.19004117948E+04  0.19004117948E+04  0.00000000000E+00 0. -1.
         23    2    1    2    0    0 -0.18353832977E+03  0.24563835904E+03 -0.85166980282E+03  0.90971835363E+03  0.90672531480E+02 0.  0.
        254    2    1    2    0    0  0.18353832977E+03 -0.24563835904E+03 -0.79797349765E+03  0.12414619354E+04  0.90024525114E+03 0.  0.
         23    2    4    4    0    0 -0.74554633891E+02 -0.32444554878E+03  0.48808730406E+02  0.34817645826E+03  0.89561411147E+02 0.  0.
         23    2    4    4    0    0  0.25809296366E+03  0.78807189736E+02 -0.84678222806E+03  0.89328547715E+03  0.89979169241E+02 0.  0.
         11    1    3    3    0    0 -0.19003404394E+03  0.22895242872E+03 -0.82931641231E+03  0.88107767205E+03  0.00000000000E+00 0. -1.
        -11    1    3    3    0    0  0.64957141775E+01  0.16685930327E+02 -0.22353390517E+02  0.28640681576E+02  0.00000000000E+00 0.  1.
          2    1    5    5  502    0 -0.47662153366E+00 -0.19801642178E+03  0.33739229142E+02  0.20087076952E+03  0.00000000000E+00 0. -1.
          4    1    6    6  503    0  0.23560254638E+03  0.88787048165E+02 -0.81552242117E+03  0.85350367265E+03  0.00000000000E+00 0. -1.
         -2    1    5    5    0  502 -0.74078012357E+02 -0.12642912700E+03  0.15069501264E+02  0.14730568874E+03  0.00000000000E+00 0.  1.
         -4    1    6    6    0  503  0.22490417276E+02 -0.99798584294E+01 -0.31259806883E+02  0.39781804508E+02  0.00000000000E+00 0.  1.
<mgrwt>
<rscale>  0 0.13806714E+04</rscale>
<asrwt>0</asrwt>
<pdfrwt beam="1">  1        2 0.29237104E+00 0.13806714E+04</pdfrwt>
<pdfrwt beam="2">  1       -2 0.38579770E-01 0.13806714E+04</pdfrwt>
<totfact> 0.46965442E+01</totfact>
</mgrwt>
</event>
<event>
12    1  0.4802930E-008  0.1539863E+04  0.7818608E-02  0.8858369E-01
          1   -1    0    0  501    0  0.00000000000E+00  0.00000000000E+00  0.15575053939E+04  0.15575053939E+04  0.00000000000E+00 0. -1.
         -1   -1    0    0    0  501 -0.00000000000E+00 -0.00000000000E+00 -0.38060506899E+03  0.38060506899E+03  0.00000000000E+00 0.  1.
         23    2    1    2    0    0  0.47782791552E+03 -0.13891400643E+03  0.40907151353E+03  0.65105562024E+03  0.94431453588E+02 0.  0.
        254    2    1    2    0    0 -0.47782791552E+03  0.13891400643E+03  0.76782881141E+03  0.12870548427E+04  0.90516985500E+03 0.  0.
         23    2    4    4    0    0 -0.62767119425E+03  0.23813006183E+03  0.23418553231E+03  0.71680307219E+03  0.91031457851E+02 0.  0.
         23    2    4    4    0    0  0.14984327873E+03 -0.99216055392E+02  0.53364327910E+03  0.57025177049E+03  0.90083841977E+02 0.  0.
         13    1    3    3    0    0  0.14074488492E+03 -0.55873072356E+02  0.73901811691E+02  0.16850044693E+03  0.00000000000E+00 0.  1.
        -13    1    3    3    0    0  0.33708303060E+03 -0.83040934078E+02  0.33516970184E+03  0.48255517330E+03  0.00000000000E+00 0. -1.
          1    1    5    5  502    0 -0.25422583656E+03  0.14200900353E+03  0.11635095999E+03  0.31358392648E+03  0.00000000000E+00 0. -1.
          3    1    6    6  503    0  0.42841326861E+02 -0.77044498711E+02  0.18588628707E+03  0.20573027436E+03  0.00000000000E+00 0. -1.
         -1    1    5    5    0  502 -0.37344535770E+03  0.96121058296E+02  0.11783457231E+03  0.40321914571E+03  0.00000000000E+00 0.  1.
         -3    1    6    6    0  503  0.10700195187E+03 -0.22171556680E+02  0.34775699203E+03  0.36452149613E+03  0.00000000000E+00 0.  1.
<mgrwt>
<rscale>  0 0.15398629E+04</rscale>
<asrwt>0</asrwt>
<pdfrwt beam="1">  1        1 0.23961621E+00 0.15398629E+04</pdfrwt>
<pdfrwt beam="2">  1       -1 0.58554627E-01 0.15398629E+04</pdfrwt>
<totfact> 0.17010602E+01</totfact>
</mgrwt>
</event>
<event>
12    1  0.4802930E-008  0.1226290E+04  0.7818608E-02  0.9090151E-01
          2   -1    0    0  501    0  0.00000000000E+00  0.00000000000E+00  0.15294368334E+04  0.15294368334E+04  0.00000000000E+00 0.  1.
         -2   -1    0    0    0  501 -0.00000000000E+00 -0.00000000000E+00 -0.24580733802E+03  0.24580733802E+03  0.00000000000E+00 0. -1.
         23    2    1    2    0    0 -0.87340641455E+02  0.69985977690E+02 -0.59508588315E+02  0.15503145429E+03  0.89258361019E+02 0.  0.
        254    2    1    2    0    0  0.87340641455E+02 -0.69985977690E+02  0.13431380837E+04  0.16202127171E+04  0.89919014238E+03 0.  0.
         23    2    4    4    0    0 -0.23122872646E+03 -0.36398415188E+03  0.85284204155E+03  0.95969542600E+03  0.87889567609E+02 0.  0.
         23    2    4    4    0    0  0.31856936792E+03  0.29399817419E+03  0.49029604212E+03  0.66051729111E+03  0.89283337390E+02 0.  0.
         11    1    3    3    0    0 -0.24140902938E+01 -0.35168888586E+01  0.18043880219E+02  0.18541250027E+02  0.00000000000E+00 0.  1.
        -11    1    3    3    0    0 -0.84926551161E+02  0.73502866549E+02 -0.77552468534E+02  0.13649020426E+03  0.00000000000E+00 0. -1.
          1    1    5    5  502    0 -0.15725051825E+03 -0.16990749657E+03  0.47971841722E+03  0.53265940591E+03  0.00000000000E+00 0. -1.
          3    1    6    6  503    0  0.13926274866E+03  0.71062186964E+02  0.16493486565E+03  0.22726076979E+03  0.00000000000E+00 0. -1.
         -1    1    5    5    0  502 -0.73978208209E+02 -0.19407665530E+03  0.37312362432E+03  0.42703602009E+03  0.00000000000E+00 0.  1.
         -3    1    6    6    0  503  0.17930661926E+03  0.22293598722E+03  0.32536117647E+03  0.43325652131E+03  0.00000000000E+00 0.  1.
<mgrwt>
<rscale>  0 0.12262900E+04</rscale>
<asrwt>0</asrwt>
<pdfrwt beam="1">  1        2 0.23529797E+00 0.12262900E+04</pdfrwt>
<pdfrwt beam="2">  1       -2 0.37816514E-01 0.12262900E+04</pdfrwt>
<totfact> 0.79374769E+01</totfact>
</mgrwt>
</event>
<event>
12    1  0.4802930E-008  0.1063923E+04  0.7818608E-02  0.9241086E-01
          1   -1    0    0  501    0  0.00000000000E+00  0.00000000000E+00  0.30066895819E+03  0.30066895819E+03  0.00000000000E+00 0. -1.
         -1   -1    0    0    0  501 -0.00000000000E+00 -0.00000000000E+00 -0.94117839800E+03  0.94117839800E+03  0.00000000000E+00 0.  1.
         23    2    1    2    0    0 -0.11080922666E+03 -0.67079835848E+02 -0.92523956709E+02  0.18095890677E+03  0.86064245092E+02 0.  0.
        254    2    1    2    0    0  0.11080922666E+03  0.67079835848E+02 -0.54798548310E+03  0.10608884494E+04  0.89912058332E+03 0.  0.
         23    2    4    4    0    0 -0.31065451296E+03 -0.21075649571E+03 -0.16111437005E+03  0.41842040532E+03  0.90516674948E+02 0.  0.
         23    2    4    4    0    0  0.42146373962E+03  0.27783633156E+03 -0.38687111305E+03  0.64246804411E+03  0.90946240369E+02 0.  0.
         13    1    3    3    0    0  0.47245429247E+01 -0.17804277420E+02  0.79998948544E+01  0.20082627268E+02  0.00000000000E+00 0. -1.
        -13    1    3    3    0    0 -0.11553376958E+03 -0.49275558428E+02 -0.10052385156E+03  0.16087627950E+03  0.00000000000E+00 0.  1.
          4    1    5    5  502    0 -0.23871173068E+03 -0.19864777978E+03 -0.14906529330E+03  0.34447741935E+03  0.00000000000E+00 0. -1.
          3    1    6    6  503    0  0.90250714170E+02  0.23592093291E+02 -0.94164616220E+02  0.13254717357E+03  0.00000000000E+00 0. -1.
         -4    1    5    5    0  502 -0.71942782283E+02 -0.12108715938E+02 -0.12049076751E+02  0.73942985975E+02  0.00000000000E+00 0.  1.
         -3    1    6    6    0  503  0.33121302545E+03  0.25424423827E+03 -0.29270649683E+03  0.50992087054E+03  0.00000000000E+00 0.  1.
<mgrwt>
<rscale>  0 0.10639232E+04</rscale>
<asrwt>0</asrwt>
<pdfrwt beam="1">  1        1 0.46256763E-01 0.10639232E+04</pdfrwt>
<pdfrwt beam="2">  1       -1 0.14479668E+00 0.10639232E+04</pdfrwt>
<totfact> 0.33490997E+01</totfact>
</mgrwt>
</event>
<event>
12    1  0.4802930E-008  0.1681180E+04  0.7818608E-02  0.8772171E-01
         -2   -1    0    0    0  501 -0.00000000000E+00  0.00000000000E+00  0.34500415108E+03  0.34500415108E+03  0.00000000000E+00 0.  1.
          2   -1    0    0  501    0  0.00000000000E+00 -0.00000000000E+00 -0.20480679495E+04  0.20480679495E+04  0.00000000000E+00 0. -1.
         23    2    1    2    0    0 -0.42160806177E+03 -0.28575360822E+03 -0.10705783207E+04  0.11887408499E+04  0.86938973540E+02 0.  0.
        254    2    1    2    0    0  0.42160806177E+03  0.28575360822E+03 -0.63248547777E+03  0.12043312507E+04  0.88936347997E+03 0.  0.
         23    2    4    4    0    0 -0.13324077265E+03  0.28603136472E+02 -0.55766181694E+03  0.58076008425E+03  0.87888170236E+02 0.  0.
         23    2    4    4    0    0  0.55484883443E+03  0.25715047175E+03 -0.74823660824E+02  0.62357116647E+03  0.96222789639E+02 0.  0.
         11    1    3    3    0    0 -0.32458501342E+03 -0.23157323386E+03 -0.90936369075E+03  0.99293701494E+03  0.00000000000E+00 0. -1.
        -11    1    3    3    0    0 -0.97023048352E+02 -0.54180374360E+02 -0.16121462991E+03  0.19580383493E+03  0.00000000000E+00 0.  1.
          4    1    5    5  502    0 -0.90198065562E+02  0.64816903751E+01 -0.19577166091E+03  0.21564843277E+03  0.00000000000E+00 0.  1.
          1    1    6    6  503    0  0.46963132591E+03  0.21800189915E+03 -0.27412389933E+02  0.51848804175E+03  0.00000000000E+00 0. -1.
         -4    1    5    5    0  502 -0.43042707093E+02  0.22121446097E+02 -0.36189015603E+03  0.36511165148E+03  0.00000000000E+00 0. -1.
         -1    1    6    6    0  503  0.85217508514E+02  0.39148572595E+02 -0.47411270891E+02  0.10508312472E+03  0.00000000000E+00 0.  1.
<mgrwt>
<rscale>  0 0.16811805E+04</rscale>
<asrwt>0</asrwt>
<pdfrwt beam="1">  1        2 0.31508737E+00 0.16811805E+04</pdfrwt>
<pdfrwt beam="2">  1       -2 0.53077563E-01 0.16811805E+04</pdfrwt>
<totfact> 0.20040257E+01</totfact>
</mgrwt>
</event>
<event>
12    1  0.4802930E-008  0.1380502E+04  0.7818608E-02  0.8968054E-01
          1   -1    0    0  501    0  0.00000000000E+00  0.00000000000E+00  0.10210152264E+04  0.10210152264E+04  0.00000000000E+00 0. -1.
         -1   -1    0    0    0  501 -0.00000000000E+00 -0.00000000000E+00 -0.46664013522E+03  0.46664013522E+03  0.00000000000E+00 0.  1.
         23    2    1    2    0    0 -0.32092415928E+03  0.15454836681E+03 -0.10704967065E+02  0.36766987728E+03  0.90493251914E+02 0.  0.
        254    2    1    2    0    0  0.32092415928E+03 -0.15454836681E+03  0.56508005821E+03  0.11199854843E+04  0.89898526084E+03 0.  0.
         23    2    4    4    0    0 -0.13203939088E+03 -0.37865264668E+03  0.90016409106E+02  0.42084283448E+03  0.90518008395E+02 0.  0.
         23    2    4    4    0    0  0.45296355016E+03  0.22410427986E+03  0.47506364910E+03  0.69914264984E+03  0.87842291084E+02 0.  0.
         13    1    3    3    0    0 -0.21307897652E+02  0.28957985904E+02  0.20355076035E+02  0.41314895261E+02  0.00000000000E+00 0. -1.
        -13    1    3    3    0    0 -0.29961626163E+03  0.12559038091E+03 -0.31060043100E+02  0.32635498202E+03  0.00000000000E+00 0.  1.
          2    1    5    5  502    0 -0.97928157251E+02 -0.30332564096E+03  0.10739058276E+03  0.33634670462E+03  0.00000000000E+00 0. -1.
          2    1    6    6  503    0  0.42192337296E+03  0.19780204099E+03  0.40159739174E+03  0.61516294192E+03  0.00000000000E+00 0. -1.
         -2    1    5    5    0  502 -0.34111233626E+02 -0.75327005719E+02 -0.17374173655E+02  0.84496129854E+02  0.00000000000E+00 0.  1.
         -2    1    6    6    0  503  0.31040177201E+02  0.26302238877E+02  0.73466257365E+02  0.83979707917E+02  0.00000000000E+00 0.  1.
<mgrwt>
<rscale>  0 0.13805023E+04</rscale>
<asrwt>0</asrwt>
<pdfrwt beam="1">  1        1 0.15707926E+00 0.13805023E+04</pdfrwt>
<pdfrwt beam="2">  1       -1 0.71790790E-01 0.13805023E+04</pdfrwt>
<totfact> 0.27870916E+01</totfact>
</mgrwt>
</event>
<event>
12    1  0.4802930E-008  0.1853408E+04  0.7818608E-02  0.8678402E-01
         -1   -1    0    0    0  501 -0.00000000000E+00  0.00000000000E+00  0.72580201537E+03  0.72580201537E+03  0.00000000000E+00 0.  1.
          1   -1    0    0  501    0  0.00000000000E+00 -0.00000000000E+00 -0.11832162072E+04  0.11832162072E+04  0.00000000000E+00 0. -1.
         23    2    1    2    0    0 -0.17888516892E+03  0.61059434914E+03 -0.49249943468E+03  0.80976784929E+03  0.91339551737E+02 0.  0.
        254    2    1    2    0    0  0.17888516892E+03 -0.61059434914E+03  0.35085242832E+02  0.10992503733E+04  0.89570924192E+03 0.  0.
         23    2    4    4    0    0  0.77949190708E+02  0.22384036985E+03  0.75555998103E+01  0.25392377097E+03  0.90772280292E+02 0.  0.
         23    2    4    4    0    0  0.10093597821E+03 -0.83443471900E+03  0.27529643021E+02  0.84532660232E+03  0.85731040962E+02 0.  0.
         11    1    3    3    0    0 -0.18636765310E+03  0.52997589643E+03 -0.42796911166E+03  0.70623290312E+03  0.00000000000E+00 0. -1.
        -11    1    3    3    0    0  0.74824841868E+01  0.80618452712E+02 -0.64530323025E+02  0.10353494616E+03  0.00000000000E+00 0.  1.
          3    1    5    5  502    0  0.89709218455E+02  0.12723660187E+03 -0.52341100962E+01  0.15576999917E+03  0.00000000000E+00 0. -1.
          3    1    6    6  503    0  0.11004291118E+03 -0.71445744194E+03  0.42200484714E+02  0.72411308478E+03  0.00000000000E+00 0. -1.
         -3    1    5    5    0  502 -0.11760027747E+02  0.96603767980E+02  0.12789709907E+02  0.98153771808E+02  0.00000000000E+00 0.  1.
         -3    1    6    6    0  503 -0.91069329722E+01 -0.11997727706E+03 -0.14670841693E+02  0.12121351754E+03  0.00000000000E+00 0.  1.
<mgrwt>
<rscale>  0 0.18534084E+04</rscale>
<asrwt>0</asrwt>
<pdfrwt beam="1">  1        1 0.18203326E+00 0.18534084E+04</pdfrwt>
<pdfrwt beam="2">  1       -1 0.11166185E+00 0.18534084E+04</pdfrwt>
<totfact> 0.76059276E+00</totfact>
</mgrwt>
</event>
<event>
12    1  0.4802930E-008  0.1120084E+04  0.7818608E-02  0.9185835E-01
          1   -1    0    0  501    0  0.00000000000E+00  0.00000000000E+00  0.32297856314E+03  0.32297856314E+03  0.00000000000E+00 0. -1.
         -1   -1    0    0    0  501 -0.00000000000E+00 -0.00000000000E+00 -0.97110787567E+03  0.97110787567E+03  0.00000000000E+00 0.  1.
         23    2    1    2    0    0  0.11655507749E+02 -0.10033445623E+03 -0.28612868044E+03  0.31674940376E+03  0.90871937603E+02 0.  0.
        254    2    1    2    0    0 -0.11655507749E+02  0.10033445623E+03 -0.36200063209E+03  0.97733703505E+03  0.90218643776E+03 0.  0.
         23    2    4    4    0    0 -0.27281859645E+03 -0.49090447689E+02  0.18490173507E+03  0.34519643072E+03  0.90177965888E+02 0.  0.
         23    2    4    4    0    0  0.26116308870E+03  0.14942490391E+03 -0.54690236715E+03  0.63214060433E+03  0.99827769860E+02 0.  0.
         13    1    3    3    0    0 -0.14639085127E+02 -0.35447505555E+02 -0.20938445749E+03  0.21286775120E+03  0.00000000000E+00 0. -1.
        -13    1    3    3    0    0  0.26294592876E+02 -0.64886950670E+02 -0.76744222956E+02  0.10388165256E+03  0.00000000000E+00 0.  1.
          2    1    5    5  502    0 -0.18265429464E+03  0.29138583077E+01  0.87135442367E+02  0.20239483006E+03  0.00000000000E+00 0. -1.
          4    1    6    6  503    0  0.11836480710E+03  0.37038481140E+02 -0.30759456005E+03  0.33165718750E+03  0.00000000000E+00 0. -1.
         -2    1    5    5    0  502 -0.90164301812E+02 -0.52004305997E+02  0.97766292699E+02  0.14280160066E+03  0.00000000000E+00 0.  1.
         -4    1    6    6    0  503  0.14279828159E+03  0.11238642277E+03 -0.23930780710E+03  0.30048341683E+03  0.00000000000E+00 0.  1.
<mgrwt>
<rscale>  0 0.11200840E+04</rscale>
<asrwt>0</asrwt>
<pdfrwt beam="1">  1        1 0.49689011E-01 0.11200840E+04</pdfrwt>
<pdfrwt beam="2">  1       -1 0.14940121E+00 0.11200840E+04</pdfrwt>
<totfact> 0.27940977E+01</totfact>
</mgrwt>
</event>
<event>
12    1  0.4802930E-008  0.1661721E+04  0.7818608E-02  0.8783502E-01
         -2   -1    0    0    0  501 -0.00000000000E+00  0.00000000000E+00  0.11162623324E+04  0.11162623324E+04  0.00000000000E+00 0.  1.
          2   -1    0    0  501    0  0.00000000000E+00 -0.00000000000E+00 -0.61842951008E+03  0.61842951008E+03  0.00000000000E+00 0. -1.
         23    2    1    2    0    0 -0.27887707613E+03  0.42623085794E+03 -0.11989747888E+03  0.53120619805E+03  0.91430036415E+02 0.  0.
        254    2    1    2    0    0  0.27887707613E+03 -0.42623085794E+03  0.61773030117E+03  0.12034856444E+04  0.89852201055E+03 0.  0.
         23    2    4    4    0    0  0.47426188783E+02 -0.67140552204E+03  0.45816642727E+03  0.81959387111E+03  0.93717768223E+02 0.  0.
         23    2    4    4    0    0  0.23145088734E+03  0.24517466411E+03  0.15956387390E+03  0.38389177328E+03  0.90731111364E+02 0.  0.
         11    1    3    3    0    0 -0.18226401329E+03  0.26192805141E+03 -0.11909205681E+03  0.34060151593E+03  0.00000000000E+00 0. -1.
        -11    1    3    3    0    0 -0.96613062836E+02  0.16430280652E+03 -0.80542207083E+00  0.19060468212E+03  0.00000000000E+00 0.  1.
          2    1    5    5  502    0  0.64291510198E+02 -0.36182375682E+03  0.21677956536E+03  0.42666521916E+03  0.00000000000E+00 0. -1.
          3    1    6    6  503    0  0.13140778916E+03  0.19913102120E+03  0.10005959318E+03  0.25871430738E+03  0.00000000000E+00 0. -1.
         -2    1    5    5    0  502 -0.16865321415E+02 -0.30958176522E+03  0.24138686191E+03  0.39292865195E+03  0.00000000000E+00 0.  1.
         -3    1    6    6    0  503  0.10004309818E+03  0.46043642909E+02  0.59504280719E+02  0.12517746590E+03  0.00000000000E+00 0.  1.
<mgrwt>
<rscale>  0 0.16617215E+04</rscale>
<asrwt>0</asrwt>
<pdfrwt beam="1">  1        2 0.95143002E-01 0.16617215E+04</pdfrwt>
<pdfrwt beam="2">  1       -2 0.17173267E+00 0.16617215E+04</pdfrwt>
<totfact> 0.94440740E+00</totfact>
</mgrwt>
</event>
<event>
12    1  0.4802930E-008  0.1351996E+04  0.7818608E-02  0.8989318E-01
         -2   -1    0    0    0  501 -0.00000000000E+00  0.00000000000E+00  0.58544959247E+03  0.58544959247E+03  0.00000000000E+00 0.  1.
          2   -1    0    0  501    0  0.00000000000E+00 -0.00000000000E+00 -0.78055138502E+03  0.78055138502E+03  0.00000000000E+00 0. -1.
         23    2    1    2    0    0 -0.34410199852E+03  0.22454422434E+02  0.65714192769E+02  0.36257939775E+03  0.90747330910E+02 0.  0.
        254    2    1    2    0    0  0.34410199852E+03 -0.22454422434E+02 -0.26081598532E+03  0.10034215797E+04  0.90549406515E+03 0.  0.
         23    2    4    4    0    0  0.52857125252E+02 -0.19958326959E+03  0.27834710233E+03  0.35892929350E+03  0.93411836319E+02 0.  0.
         23    2    4    4    0    0  0.29124487327E+03  0.17712884715E+03 -0.53916308766E+03  0.64449228624E+03  0.92061214618E+02 0.  0.
         11    1    3    3    0    0 -0.15006278561E+03  0.32349162856E+02 -0.10513571773E+02  0.15386956539E+03  0.00000000000E+00 0. -1.
        -11    1    3    3    0    0 -0.19403921291E+03 -0.98947404225E+01  0.76227764541E+02  0.20870983235E+03  0.00000000000E+00 0.  1.
          2    1    5    5  502    0  0.21915403513E+02 -0.19382921844E+03  0.24282291293E+03  0.31146912829E+03  0.00000000000E+00 0. -1.
          4    1    6    6  503    0  0.19652239979E+03  0.11587205980E+03 -0.27540451156E+03  0.35762415026E+03  0.00000000000E+00 0. -1.
         -2    1    5    5    0  502  0.30941721740E+02 -0.57540511418E+01  0.35524189408E+02  0.47460165211E+02  0.00000000000E+00 0.  1.
         -4    1    6    6    0  503  0.94722473478E+02  0.61256787355E+02 -0.26375857609E+03  0.28686813598E+03  0.00000000000E+00 0.  1.
<mgrwt>
<rscale>  0 0.13519963E+04</rscale>
<asrwt>0</asrwt>
<pdfrwt beam="1">  1        2 0.12008483E+00 0.13519963E+04</pdfrwt>
<pdfrwt beam="2">  1       -2 0.90069168E-01 0.13519963E+04</pdfrwt>
<totfact> 0.36680205E+01</totfact>
</mgrwt>
</event>
<event>
12    1  0.4802930E-008  0.1851859E+04  0.7818608E-02  0.8679197E-01
         -2   -1    0    0    0  501 -0.00000000000E+00  0.00000000000E+00  0.15117099856E+04  0.15117099856E+04  0.00000000000E+00 0. -1.
          2   -1    0    0  501    0  0.00000000000E+00 -0.00000000000E+00 -0.56713609379E+03  0.56713609379E+03  0.00000000000E+00 0.  1.
         23    2    1    2    0    0 -0.15237815694E+03 -0.59333492959E+02 -0.40456498734E+03  0.44527562779E+03  0.88645302301E+02 0.  0.
        254    2    1    2    0    0  0.15237815694E+03  0.59333492959E+02  0.13491388792E+04  0.16335704516E+04  0.90644202187E+03 0.  0.
         23    2    4    4    0    0 -0.19184987665E+03  0.37834308622E+03  0.53105595721E+03  0.68598374156E+03  0.92754503637E+02 0.  0.
         23    2    4    4    0    0  0.34422803358E+03 -0.31900959326E+03  0.81808292194E+03  0.94758671004E+03  0.91656130055E+02 0.  0.
         13    1    3    3    0    0 -0.43710259819E+02  0.13020605148E+02 -0.51213619832E+02  0.68578114791E+02  0.00000000000E+00 0. -1.
        -13    1    3    3    0    0 -0.10866789712E+03 -0.72354098108E+02 -0.35335136751E+03  0.37669751300E+03  0.00000000000E+00 0.  1.
          3    1    6    6  502    0  0.14159672702E+02  0.44850056343E+01  0.39055925503E+02  0.41784888697E+02  0.00000000000E+00 0. -1.
          3    1    5    5  503    0 -0.32859324987E+02  0.11942743707E+03  0.10321249786E+03  0.16123110022E+03  0.00000000000E+00 0. -1.
         -3    1    5    5    0  503 -0.15899055166E+03  0.25891564915E+03  0.42784345935E+03  0.52475264135E+03  0.00000000000E+00 0.  1.
         -3    1    6    6    0  502  0.33006836088E+03 -0.32349459889E+03  0.77902699644E+03  0.90580182134E+03  0.00000000000E+00 0.  1.
<mgrwt>
<rscale>  0 0.18518588E+04</rscale>
<asrwt>0</asrwt>
<pdfrwt beam="1">  1        2 0.87251707E-01 0.18518588E+04</pdfrwt>
<pdfrwt beam="2">  1       -2 0.23257077E+00 0.18518588E+04</pdfrwt>
<totfact> 0.41093585E+00</totfact>
</mgrwt>
</event>
<event>
12    1  0.4802930E-008  0.1591510E+04  0.7818608E-02  0.8825781E-01
         -2   -1    0    0    0  501 -0.00000000000E+00  0.00000000000E+00  0.14506060628E+04  0.14506060628E+04  0.00000000000E+00 0.  1.
          2   -1    0    0  501    0  0.00000000000E+00 -0.00000000000E+00 -0.43652512845E+03  0.43652512845E+03  0.00000000000E+00 0. -1.
         23    2    1    2    0    0 -0.43358099858E+03 -0.17607142110E+03  0.42201857969E+02  0.48269335143E+03  0.11053617982E+03 0.  0.
        254    2    1    2    0    0  0.43358099858E+03  0.17607142110E+03  0.97187907634E+03  0.14044378398E+04  0.89939039304E+03 0.  0.
         23    2    4    4    0    0  0.27415251950E+03  0.11157799489E+03  0.11181528928E+04  0.11607023754E+04  0.96720523525E+02 0.  0.
         23    2    4    4    0    0  0.15942847908E+03  0.64493426213E+02 -0.14627381643E+03  0.24373546441E+03  0.91837384916E+02 0.  0.
         13    1    3    3    0    0 -0.31672724827E+03 -0.13229401821E+03  0.79736077019E+02  0.35238572478E+03  0.00000000000E+00 0.  1.
        -13    1    3    3    0    0 -0.11685375031E+03 -0.43777402887E+02 -0.37534219050E+02  0.13030762665E+03  0.00000000000E+00 0. -1.
          1    1    6    6  502    0  0.11470668610E+03  0.71970888378E+02 -0.14496482895E+03  0.19837397571E+03  0.00000000000E+00 0. -1.
          1    1    5    5  503    0  0.65723214457E+02 -0.14781851570E+02  0.22224710798E+03  0.23223225672E+03  0.00000000000E+00 0. -1.
         -1    1    5    5    0  503  0.20842930504E+03  0.12635984646E+03  0.89590578479E+03  0.92847011865E+03  0.00000000000E+00 0.  1.
         -1    1    6    6    0  502  0.44721792983E+02 -0.74774621648E+01 -0.13089874882E+01  0.45361488692E+02  0.00000000000E+00 0.  1.
<mgrwt>
<rscale>  0 0.15915100E+04</rscale>
<asrwt>0</asrwt>
<pdfrwt beam="1">  1        2 0.67157713E-01 0.15915100E+04</pdfrwt>
<pdfrwt beam="2">  1       -2 0.22317016E+00 0.15915100E+04</pdfrwt>
<totfact> 0.65170966E+00</totfact>
</mgrwt>
</event>
<event>
12    1  0.4802930E-008  0.1898409E+04  0.7818608E-02  0.8655649E-01
         -2   -1    0    0    0  501 -0.00000000000E+00  0.00000000000E+00  0.95872802195E+03  0.95872802195E+03  0.00000000000E+00 0.  1.
          2   -1    0    0  501    0  0.00000000000E+00 -0.00000000000E+00 -0.93977538858E+03  0.93977538858E+03  0.00000000000E+00 0. -1.
         23    2    1    2    0    0  0.58645098872E+03  0.41471420537E+03  0.16403660783E+03  0.74530217594E+03  0.11249306841E+03 0.  0.
        254    2    1    2    0    0 -0.58645098872E+03 -0.41471420537E+03 -0.14508397446E+03  0.11532012346E+04  0.89045555391E+03 0.  0.
         23    2    4    4    0    0 -0.43584728420E+02  0.51081624911E+02 -0.37929887965E+03  0.39539256444E+03  0.89211428368E+02 0.  0.
         23    2    4    4    0    0 -0.54286626030E+03 -0.46579583029E+03  0.23421490520E+03  0.75780867015E+03  0.88021739635E+02 0.  0.
         11    1    3    3    0    0  0.28858734295E+03  0.25372760675E+03  0.47337513416E+02  0.38717075447E+03  0.00000000000E+00 0.  1.
        -11    1    3    3    0    0  0.29786364578E+03  0.16098659862E+03  0.11669909441E+03  0.35813142148E+03  0.00000000000E+00 0. -1.
          2    1    6    6  502    0 -0.39622419346E+03 -0.30708669061E+03  0.19663667227E+03  0.53848103766E+03  0.00000000000E+00 0. -1.
          2    1    5    5  503    0 -0.26932006652E+02  0.64912198129E+02 -0.35867011960E+03  0.36549032976E+03  0.00000000000E+00 0. -1.
         -2    1    5    5    0  503 -0.16652721768E+02 -0.13830573218E+02 -0.20628760050E+02  0.29902234682E+02  0.00000000000E+00 0.  1.
         -2    1    6    6    0  502 -0.14664206684E+03 -0.15870913968E+03  0.37578232926E+02  0.21932763249E+03  0.00000000000E+00 0.  1.
<mgrwt>
<rscale>  0 0.18984088E+04</rscale>
<asrwt>0</asrwt>
<pdfrwt beam="1">  1        2 0.14458083E+00 0.18984088E+04</pdfrwt>
<pdfrwt beam="2">  1       -2 0.14749662E+00 0.18984088E+04</pdfrwt>
<totfact> 0.80903326E+00</totfact>
</mgrwt>
</event>
<event>
12    1  0.4802930E-008  0.2296998E+04  0.7818608E-02  0.8479106E-01
          2   -1    0    0  501    0  0.00000000000E+00  0.00000000000E+00  0.15934446618E+04  0.15934446618E+04  0.00000000000E+00 0.  1.
         -2   -1    0    0    0  501 -0.00000000000E+00 -0.00000000000E+00 -0.82779774601E+03  0.82779774601E+03  0.00000000000E+00 0. -1.
         23    2    1    2    0    0  0.60632192202E+03  0.35043037617E+03  0.10369423510E+04  0.12544910911E+04  0.89837278470E+02 0.  0.
        254    2    1    2    0    0 -0.60632192202E+03 -0.35043037617E+03 -0.27129543526E+03  0.11667513167E+04  0.89290520222E+03 0.  0.
         23    2    4    4    0    0 -0.43526168125E+03 -0.41437448869E+03 -0.55072804032E+03  0.82043274688E+03  0.93003062945E+02 0.  0.
         23    2    4    4    0    0 -0.17106024077E+03  0.63944112518E+02  0.27943260506E+03  0.34631856982E+03  0.92214508242E+02 0.  0.
         13    1    3    3    0    0  0.25586492126E+03  0.10517880450E+03  0.44971513809E+03  0.52798971986E+03  0.00000000000E+00 0.  1.
        -13    1    3    3    0    0  0.35045700076E+03  0.24525157167E+03  0.58722721293E+03  0.72650137123E+03  0.00000000000E+00 0. -1.
          2    1    5    5  502    0 -0.42028865671E+03 -0.40526446822E+03 -0.50676866598E+03  0.77310822333E+03  0.00000000000E+00 0. -1.
          3    1    6    6  503    0 -0.49063434527E+02  0.59156210519E+02  0.70306217697E+02  0.10416161528E+03  0.00000000000E+00 0. -1.
         -2    1    5    5    0  502 -0.14973024539E+02 -0.91100204646E+01 -0.43959374336E+02  0.47324523545E+02  0.00000000000E+00 0.  1.
         -3    1    6    6    0  503 -0.12199680624E+03  0.47879019993E+01  0.20912638737E+03  0.24215695454E+03  0.00000000000E+00 0.  1.
<mgrwt>
<rscale>  0 0.22969980E+04</rscale>
<asrwt>0</asrwt>
<pdfrwt beam="1">  1        2 0.24514533E+00 0.22969980E+04</pdfrwt>
<pdfrwt beam="2">  1       -2 0.12735350E+00 0.22969980E+04</pdfrwt>
<totfact> 0.46665514E+00</totfact>
</mgrwt>
</event>
<event>
12    1  0.4802930E-008  0.1741858E+04  0.7818608E-02  0.8737845E-01
         -2   -1    0    0    0  501 -0.00000000000E+00  0.00000000000E+00  0.40352958647E+03  0.40352958647E+03  0.00000000000E+00 0. -1.
          2   -1    0    0  501    0  0.00000000000E+00 -0.00000000000E+00 -0.18797068843E+04  0.18797068843E+04  0.00000000000E+00 0.  1.
         23    2    1    2    0    0 -0.14524464279E+01  0.27256311441E+03  0.20762024006E+03  0.35407206837E+03  0.89264240201E+02 0.  0.
        254    2    1    2    0    0  0.14524464279E+01 -0.27256311441E+03 -0.16837975379E+04  0.19291644024E+04  0.90122604374E+03 0.  0.
         23    2    4    4    0    0  0.42806555704E+03 -0.18976772739E+03 -0.67919628011E+03  0.83081585476E+03  0.98465659645E+02 0.  0.
         23    2    4    4    0    0 -0.42661311061E+03 -0.82795387025E+02 -0.10046012578E+04  0.10983485476E+04  0.91060544086E+02 0.  0.
         13    1    3    3    0    0  0.20466519813E+02  0.21807462053E+03  0.19658053402E+03  0.29431161191E+03  0.00000000000E+00 0. -1.
        -13    1    3    3    0    0 -0.21918966241E+02  0.54488493886E+02  0.11039706048E+02  0.59760456463E+02  0.00000000000E+00 0.  1.
          4    1    5    5  502    0  0.14153918915E+03 -0.14671190776E+02 -0.18694475824E+03  0.23494026589E+03  0.00000000000E+00 0. -1.
          1    1    6    6  503    0 -0.29289749727E+03 -0.97002233663E+02 -0.73268032420E+03  0.79499612245E+03  0.00000000000E+00 0. -1.
         -4    1    5    5    0  502  0.28652636789E+03 -0.17509653661E+03 -0.49225152187E+03  0.59587558887E+03  0.00000000000E+00 0.  1.
         -1    1    6    6    0  503 -0.13371561334E+03  0.14206846639E+02 -0.27192093358E+03  0.30335242518E+03  0.00000000000E+00 0.  1.
<mgrwt>
<rscale>  0 0.17418580E+04</rscale>
<asrwt>0</asrwt>
<pdfrwt beam="1">  1        2 0.28918567E+00 0.17418580E+04</pdfrwt>
<pdfrwt beam="2">  1       -2 0.62081476E-01 0.17418580E+04</pdfrwt>
<totfact> 0.17803620E+01</totfact>
</mgrwt>
</event>
<event>
12    1  0.4802930E-008  0.1353813E+04  0.7818608E-02  0.8987947E-01
         -2   -1    0    0    0  501 -0.00000000000E+00  0.00000000000E+00  0.26591777579E+03  0.26591777579E+03  0.00000000000E+00 0.  1.
          2   -1    0    0  501    0  0.00000000000E+00 -0.00000000000E+00 -0.17230977031E+04  0.17230977031E+04  0.00000000000E+00 0. -1.
         23    2    1    2    0    0 -0.36120753526E+03 -0.35409478572E+02 -0.33503385134E+03  0.50237998698E+03  0.91723797770E+02 0.  0.
        254    2    1    2    0    0  0.36120753526E+03  0.35409478572E+02 -0.11221460760E+04  0.14866354920E+04  0.90506826004E+03 0.  0.
         23    2    4    4    0    0  0.64635816840E+03  0.39563444318E+02 -0.60876149687E+03  0.89344539480E+03  0.91159011821E+02 0.  0.
         23    2    4    4    0    0 -0.28515063315E+03 -0.41539657460E+01 -0.51338457915E+03  0.59319009716E+03  0.83562110106E+02 0.  0.
         11    1    3    3    0    0 -0.17427837497E+03  0.15057813001E+02 -0.11528865792E+03  0.20950218223E+03  0.00000000000E+00 0.  1.
        -11    1    3    3    0    0 -0.18692916028E+03 -0.50467291573E+02 -0.21974519342E+03  0.29287780475E+03  0.00000000000E+00 0. -1.
          2    1    5    5  502    0  0.61742934158E+03  0.25269798840E+02 -0.55420397511E+03  0.83005999820E+03  0.00000000000E+00 0. -1.
          4    1    6    6  503    0 -0.10703441842E+03 -0.40729607512E+02 -0.17730868652E+03  0.21107732699E+03  0.00000000000E+00 0. -1.
         -2    1    5    5    0  502  0.28928826821E+02  0.14293645478E+02 -0.54557521760E+02  0.63385396606E+02  0.00000000000E+00 0.  1.
         -4    1    6    6    0  503 -0.17811621473E+03  0.36575641767E+02 -0.33607589263E+03  0.38211277017E+03  0.00000000000E+00 0.  1.
<mgrwt>
<rscale>  0 0.13538129E+04</rscale>
<asrwt>0</asrwt>
<pdfrwt beam="1">  1        2 0.26509195E+00 0.13538129E+04</pdfrwt>
<pdfrwt beam="2">  1       -2 0.40910427E-01 0.13538129E+04</pdfrwt>
<totfact> 0.52603363E+01</totfact>
</mgrwt>
</event>
<event>
12    1  0.4802930E-008  0.2882875E+04  0.7818608E-02  0.8277991E-01
         -2   -1    0    0    0  501 -0.00000000000E+00  0.00000000000E+00  0.12577362300E+04  0.12577362300E+04  0.00000000000E+00 0.  1.
          2   -1    0    0  501    0  0.00000000000E+00 -0.00000000000E+00 -0.16519700395E+04  0.16519700395E+04  0.00000000000E+00 0. -1.
         23    2    1    2    0    0  0.95187620661E+02  0.45410474050E+03 -0.14097248986E+04  0.14868726220E+04  0.90521300161E+02 0.  0.
        254    2    1    2    0    0 -0.95187620661E+02 -0.45410474050E+03  0.10154910891E+04  0.14228336475E+04  0.88202133651E+03 0.  0.
         23    2    4    4    0    0 -0.36484724387E+03  0.39609988298E+02  0.19744100421E+03  0.42668474056E+03  0.91621259317E+02 0.  0.
         23    2    4    4    0    0  0.26965962320E+03 -0.49371472880E+03  0.81805008487E+03  0.99614890696E+03  0.81462615102E+02 0.  0.
         11    1    3    3    0    0  0.18528349664E+02  0.18112158044E+03 -0.68131194257E+03  0.70521932030E+03  0.00000000000E+00 0. -1.
        -11    1    3    3    0    0  0.76659270997E+02  0.27298316005E+03 -0.72841295606E+03  0.78165330170E+03  0.00000000000E+00 0.  1.
          2    1    5    5  502    0 -0.10178615394E+03  0.52207554207E+02  0.49830476523E+02  0.12477630480E+03  0.00000000000E+00 0.  1.
          1    1    6    6  503    0  0.24121526816E+03 -0.37833603519E+03  0.62317240716E+03  0.76789765605E+03  0.00000000000E+00 0. -1.
         -2    1    5    5    0  502 -0.26306108993E+03 -0.12597565908E+02  0.14761052768E+03  0.30190843576E+03  0.00000000000E+00 0. -1.
         -1    1    6    6    0  503  0.28444355042E+02 -0.11537869361E+03  0.19487767771E+03  0.22825125091E+03  0.00000000000E+00 0.  1.
<mgrwt>
<rscale>  0 0.28828753E+04</rscale>
<asrwt>0</asrwt>
<pdfrwt beam="1">  1        2 0.25414924E+00 0.28828753E+04</pdfrwt>
<pdfrwt beam="2">  1       -2 0.19349788E+00 0.28828753E+04</pdfrwt>
<totfact> 0.13241107E+00</totfact>
</mgrwt>
</event>
<event>
12    1  0.4802930E-008  0.1570983E+04  0.7818608E-02  0.8838576E-01
          1   -1    0    0  501    0  0.00000000000E+00  0.00000000000E+00  0.98099755795E+03  0.98099755795E+03  0.00000000000E+00 0. -1.
         -1   -1    0    0    0  501 -0.00000000000E+00 -0.00000000000E+00 -0.62894805961E+03  0.62894805961E+03  0.00000000000E+00 0.  1.
         23    2    1    2    0    0  0.41810545695E+03 -0.25921932427E+03  0.27839954813E+03  0.56959804449E+03  0.70205360809E+02 0.  0.
        254    2    1    2    0    0 -0.41810545695E+03  0.25921932427E+03  0.73649950205E+02  0.10403475731E+04  0.91372420698E+03 0.  0.
         23    2    4    4    0    0 -0.62252641763E+03  0.28054066194E+03  0.27266028758E+03  0.74087993648E+03  0.91198926607E+02 0.  0.
         23    2    4    4    0    0  0.20442096068E+03 -0.21321337674E+02 -0.19901033738E+03  0.29946763658E+03  0.88505493473E+02 0.  0.
         11    1    3    3    0    0  0.25417550539E+03 -0.18368053888E+03  0.14702297211E+03  0.34635167421E+03  0.00000000000E+00 0.  1.
        -11    1    3    3    0    0  0.16392995156E+03 -0.75538785392E+02  0.13137657601E+03  0.22324637028E+03  0.00000000000E+00 0. -1.
          4    1    5    5  502    0 -0.98182691727E+01  0.14787019965E+02 -0.36459501160E+01  0.18120356543E+02  0.00000000000E+00 0. -1.
          3    1    6    6  503    0  0.44703314265E+02  0.15575509311E+02 -0.92702095987E+02  0.10408967959E+03  0.00000000000E+00 0. -1.
         -4    1    5    5    0  502 -0.61270814845E+03  0.26575364198E+03  0.27630623770E+03  0.72275957994E+03  0.00000000000E+00 0.  1.
         -3    1    6    6    0  503  0.15971764641E+03 -0.36896846985E+02 -0.10630824139E+03  0.19537795699E+03  0.00000000000E+00 0.  1.
<mgrwt>
<rscale>  0 0.15709825E+04</rscale>
<asrwt>0</asrwt>
<pdfrwt beam="1">  1        1 0.15092270E+00 0.15709825E+04</pdfrwt>
<pdfrwt beam="2">  1       -1 0.96761240E-01 0.15709825E+04</pdfrwt>
<totfact> 0.15477327E+01</totfact>
</mgrwt>
</event>
<event>
12    1  0.4802930E-008  0.2039583E+04  0.7818608E-02  0.8588335E-01
         -1   -1    0    0    0  501 -0.00000000000E+00  0.00000000000E+00  0.39088724597E+03  0.39088724597E+03  0.00000000000E+00 0.  1.
          1   -1    0    0  501    0  0.00000000000E+00 -0.00000000000E+00 -0.26605489873E+04  0.26605489873E+04  0.00000000000E+00 0. -1.
         23    2    1    2    0    0  0.19389564577E+03  0.79919536979E+03 -0.11173836672E+04  0.13902580679E+04  0.89232701783E+02 0.  0.
        254    2    1    2    0    0 -0.19389564577E+03 -0.79919536979E+03 -0.11522780741E+04  0.16611781653E+04  0.86917166109E+03 0.  0.
         23    2    4    4    0    0  0.56555326995E+02  0.13082515373E+03 -0.17475946797E+02  0.16997538098E+03  0.90953260323E+02 0.  0.
         23    2    4    4    0    0 -0.25045097277E+03 -0.93002052352E+03 -0.11348021273E+04  0.14912027843E+04  0.90807554991E+02 0.  0.
         11    1    3    3    0    0  0.17043967875E+03  0.58523535661E+03 -0.77755883407E+03  0.98800194695E+03  0.00000000000E+00 0. -1.
        -11    1    3    3    0    0  0.23455967018E+02  0.21396001318E+03 -0.33982483315E+03  0.40225612096E+03  0.00000000000E+00 0.  1.
          4    1    5    5  502    0  0.32701622853E+02  0.62760981221E+02  0.36748701979E+02  0.79742109316E+02  0.00000000000E+00 0. -1.
          4    1    6    6  503    0 -0.11055506666E+03 -0.45902557107E+03 -0.62341596342E+03  0.78203219953E+03  0.00000000000E+00 0. -1.
         -4    1    5    5    0  502  0.23853704142E+02  0.68064172512E+02 -0.54224648776E+02  0.90233271668E+02  0.00000000000E+00 0.  1.
         -4    1    6    6    0  503 -0.13989590611E+03 -0.47099495245E+03 -0.51138616384E+03  0.70917058481E+03  0.00000000000E+00 0.  1.
<mgrwt>
<rscale>  0 0.20395830E+04</rscale>
<asrwt>0</asrwt>
<pdfrwt beam="1">  1        1 0.40931520E+00 0.20395830E+04</pdfrwt>
<pdfrwt beam="2">  1       -1 0.60136503E-01 0.20395830E+04</pdfrwt>
<totfact> 0.27140570E+00</totfact>
</mgrwt>
</event>
<event>
12    1  0.4802930E-008  0.1321647E+04  0.7818608E-02  0.9012573E-01
         -2   -1    0    0    0  501 -0.00000000000E+00  0.00000000000E+00  0.22298625437E+03  0.22298625437E+03  0.00000000000E+00 0.  1.
          2   -1    0    0  501    0  0.00000000000E+00 -0.00000000000E+00 -0.19583625592E+04  0.19583625592E+04  0.00000000000E+00 0. -1.
         23    2    1    2    0    0  0.19302800296E+03  0.25632907277E+03 -0.22760274204E+03  0.40362045577E+03  0.90233367750E+02 0.  0.
        254    2    1    2    0    0 -0.19302800296E+03 -0.25632907277E+03 -0.15077735628E+04  0.17777283578E+04  0.88542226875E+03 0.  0.
         23    2    4    4    0    0  0.95314199628E+01 -0.55095559632E+03 -0.75116460170E+03  0.93584073939E+03  0.88919702869E+02 0.  0.
         23    2    4    4    0    0 -0.20255942293E+03  0.29462652355E+03 -0.75660896106E+03  0.84188761839E+03  0.92100672330E+02 0.  0.
         11    1    3    3    0    0  0.70033017401E+02  0.11766129235E+03 -0.46841513406E+02  0.14471672544E+03  0.00000000000E+00 0. -1.
        -11    1    3    3    0    0  0.12299498556E+03  0.13866778041E+03 -0.18076122864E+03  0.25890373033E+03  0.00000000000E+00 0.  1.
          4    1    5    5  502    0  0.36109322302E+01 -0.17855802680E+03 -0.17691136799E+03  0.25138345190E+03  0.00000000000E+00 0. -1.
          1    1    6    6  503    0 -0.14213062363E+03  0.23422955398E+03 -0.64918131386E+03  0.70462825404E+03  0.00000000000E+00 0. -1.
         -4    1    5    5    0  502  0.59204877326E+01 -0.37239756953E+03 -0.57425323371E+03  0.68445728749E+03  0.00000000000E+00 0.  1.
         -1    1    6    6    0  503 -0.60428799294E+02  0.60396969575E+02 -0.10742764720E+03  0.13725936435E+03  0.00000000000E+00 0.  1.
<mgrwt>
<rscale>  0 0.13216474E+04</rscale>
<asrwt>0</asrwt>
<pdfrwt beam="1">  1        2 0.30128656E+00 0.13216474E+04</pdfrwt>
<pdfrwt beam="2">  1       -2 0.34305577E-01 0.13216474E+04</pdfrwt>
<totfact> 0.54937292E+01</totfact>
</mgrwt>
</event>
<event>
12    1  0.4802930E-008  0.2170817E+04  0.7818608E-02  0.8530674E-01
         -1   -1    0    0    0  501 -0.00000000000E+00  0.00000000000E+00  0.21866886269E+04  0.21866886269E+04  0.00000000000E+00 0.  1.
          1   -1    0    0  501    0  0.00000000000E+00 -0.00000000000E+00 -0.53876521247E+03  0.53876521247E+03  0.00000000000E+00 0. -1.
         23    2    1    2    0    0  0.17078363631E+03 -0.49488691160E+03  0.15961805193E+04  0.16823319146E+04  0.91478493506E+02 0.  0.
        254    2    1    2    0    0 -0.17078363631E+03  0.49488691160E+03  0.51742895086E+02  0.10431219248E+04  0.90074742136E+03 0.  0.
         23    2    4    4    0    0  0.83661371298E+02  0.54975065246E+03  0.32850201351E+03  0.65280350173E+03  0.94941213733E+02 0.  0.
         23    2    4    4    0    0 -0.25444500761E+03 -0.54863740857E+02 -0.27675911843E+03  0.39031842306E+03  0.89445904254E+02 0.  0.
         11    1    3    3    0    0  0.13338707057E+03 -0.40214377961E+03  0.13907404727E+04  0.14538468944E+04  0.00000000000E+00 0.  1.
        -11    1    3    3    0    0  0.37396565739E+02 -0.92743131998E+02  0.20544004661E+03  0.22848502010E+03  0.00000000000E+00 0. -1.
          4    1    5    5  502    0  0.86356221340E+01  0.35400616736E+03  0.21794521222E+03  0.41580651273E+03  0.00000000000E+00 0.  1.
          1    1    6    6  503    0 -0.17835394444E+02 -0.16691882331E+02 -0.68787611665E+02  0.72996272160E+02  0.00000000000E+00 0. -1.
         -4    1    5    5    0  502  0.75025749164E+02  0.19574448510E+03  0.11055680129E+03  0.23699698901E+03  0.00000000000E+00 0. -1.
         -1    1    6    6    0  503 -0.23660961316E+03 -0.38171858526E+02 -0.20797150676E+03  0.31732215090E+03  0.00000000000E+00 0.  1.
<mgrwt>
<rscale>  0 0.21708171E+04</rscale>
<asrwt>0</asrwt>
<pdfrwt beam="1">  1        1 0.82886957E-01 0.21708171E+04</pdfrwt>
<pdfrwt beam="2">  1       -1 0.33641363E+00 0.21708171E+04</pdfrwt>
<totfact> 0.69802919E-01</totfact>
</mgrwt>
</event>
<event>
12    1  0.4802930E-008  0.1161313E+04  0.7818608E-02  0.9147409E-01
          1   -1    0    0  501    0  0.00000000000E+00  0.00000000000E+00  0.73113802273E+03  0.73113802273E+03  0.00000000000E+00 0. -1.
         -1   -1    0    0    0  501 -0.00000000000E+00 -0.00000000000E+00 -0.46114713743E+03  0.46114713743E+03  0.00000000000E+00 0.  1.
         23    2    1    2    0    0  0.56828096357E+02  0.21857369760E+02  0.27403350527E+03  0.29662376307E+03  0.95833802277E+02 0.  0.
        254    2    1    2    0    0 -0.56828096357E+02 -0.21857369760E+02 -0.40426199697E+01  0.89566139710E+03  0.89358033680E+03 0.  0.
         23    2    4    4    0    0  0.11693199389E+03 -0.12928533493E+03  0.39260477127E+03  0.43925454302E+03  0.91751066033E+02 0.  0.
         23    2    4    4    0    0 -0.17376009025E+03  0.10742796517E+03 -0.39664739124E+03  0.45640685407E+03  0.96149502338E+02 0.  0.
         13    1    3    3    0    0  0.45559495501E+02 -0.23329760347E+02  0.66438265152E+02  0.83868876376E+02  0.00000000000E+00 0.  1.
        -13    1    3    3    0    0  0.11268600857E+02  0.45187130107E+02  0.20759524012E+03  0.21275488670E+03  0.00000000000E+00 0. -1.
          2    1    5    5  502    0  0.10182836560E+03 -0.10051706490E+03  0.37694123503E+03  0.40318406596E+03  0.00000000000E+00 0.  1.
          1    1    6    6  503    0 -0.35478259548E+02  0.75608720711E+02 -0.15972789045E+03  0.18024534539E+03  0.00000000000E+00 0. -1.
         -2    1    5    5    0  502  0.15103628286E+02 -0.28768270035E+02  0.15663536245E+02  0.36070477068E+02  0.00000000000E+00 0. -1.
         -1    1    6    6    0  503 -0.13828183070E+03  0.31819244460E+02 -0.23691950080E+03  0.27616150868E+03  0.00000000000E+00 0.  1.
<mgrwt>
<rscale>  0 0.11613134E+04</rscale>
<asrwt>0</asrwt>
<pdfrwt beam="1">  1        1 0.11248277E+00 0.11613134E+04</pdfrwt>
<pdfrwt beam="2">  1       -1 0.70945713E-01 0.11613134E+04</pdfrwt>
<totfact> 0.50772490E+01</totfact>
</mgrwt>
</event>
<event>
12    1  0.4802930E-008  0.1339037E+04  0.7818608E-02  0.8999169E-01
          2   -1    0    0  501    0  0.00000000000E+00  0.00000000000E+00  0.45809494935E+03  0.45809494935E+03  0.00000000000E+00 0. -1.
         -2   -1    0    0    0  501 -0.00000000000E+00 -0.00000000000E+00 -0.97851963797E+03  0.97851963797E+03  0.00000000000E+00 0.  1.
         23    2    1    2    0    0  0.22916826424E+03 -0.19239536079E+03 -0.39955383494E+03  0.50704327505E+03  0.88969363110E+02 0.  0.
        254    2    1    2    0    0 -0.22916826424E+03  0.19239536079E+03 -0.12087085368E+03  0.92957131227E+03  0.87175626934E+03 0.  0.
         23    2    4    4    0    0 -0.45448438345E+03  0.90893445304E+02  0.20109246016E+03  0.51373037528E+03  0.93075494906E+02 0.  0.
         23    2    4    4    0    0  0.22531611921E+03  0.10150191548E+03 -0.32196331383E+03  0.41584093699E+03  0.90516943167E+02 0.  0.
         13    1    3    3    0    0  0.13472089290E+03 -0.15300338974E+03 -0.31018592719E+03  0.37118063754E+03  0.00000000000E+00 0.  1.
        -13    1    3    3    0    0  0.94447371346E+02 -0.39391971042E+02 -0.89367907749E+02  0.13586263751E+03  0.00000000000E+00 0. -1.
          4    1    5    5  502    0 -0.42505231312E+02  0.32015711440E+02  0.43150955650E+01  0.53388393098E+02  0.00000000000E+00 0. -1.
          1    1    6    6  503    0  0.15589697315E+03  0.43511876518E+02 -0.14593174062E+03  0.21792939810E+03  0.00000000000E+00 0.  1.
         -4    1    5    5    0  502 -0.41197915214E+03  0.58877733864E+02  0.19677736459E+03  0.46034198218E+03  0.00000000000E+00 0.  1.
         -1    1    6    6    0  503  0.69419146059E+02  0.57990038965E+02 -0.17603157321E+03  0.19791153889E+03  0.00000000000E+00 0. -1.
<mgrwt>
<rscale>  0 0.13390368E+04</rscale>
<asrwt>0</asrwt>
<pdfrwt beam="1">  1        2 0.70476146E-01 0.13390368E+04</pdfrwt>
<pdfrwt beam="2">  1       -2 0.15054148E+00 0.13390368E+04</pdfrwt>
<totfact> 0.19748097E+01</totfact>
</mgrwt>
</event>
<event>
12    1  0.4802930E-008  0.1392053E+04  0.7818608E-02  0.8959591E-01
         -1   -1    0    0    0  501 -0.00000000000E+00  0.00000000000E+00  0.19842829543E+03  0.19842829543E+03  0.00000000000E+00 0.  1.
          1   -1    0    0  501    0  0.00000000000E+00 -0.00000000000E+00 -0.24414519315E+04  0.24414519315E+04  0.00000000000E+00 0. -1.
         23    2    1    2    0    0 -0.33011756239E+03  0.21804495700E+03 -0.12116462879E+04  0.12776520492E+04  0.88242980648E+02 0.  0.
        254    2    1    2    0    0  0.33011756239E+03 -0.21804495700E+03 -0.10313773481E+04  0.13622281777E+04  0.79712305546E+03 0.  0.
         23    2    4    4    0    0  0.43792973929E+03  0.16442320502E+03 -0.47703355847E+03  0.67421033666E+03  0.90449517718E+02 0.  0.
         23    2    4    4    0    0 -0.10781217690E+03 -0.38246816203E+03 -0.55434378966E+03  0.68801784101E+03  0.90366763596E+02 0.  0.
         11    1    3    3    0    0 -0.27161421138E+03  0.14311782748E+03 -0.98911658454E+03  0.10356681950E+04  0.00000000000E+00 0. -1.
        -11    1    3    3    0    0 -0.58503351010E+02  0.74927129526E+02 -0.22252970339E+03  0.24198385423E+03  0.00000000000E+00 0.  1.
          2    1    5    5  502    0  0.11535342535E+02  0.16555725306E+02 -0.42826221063E+01  0.20627579109E+02  0.00000000000E+00 0. -1.
          4    1    6    6  503    0 -0.29629944846E+02 -0.26428769926E+02 -0.31679170732E+02  0.50793536692E+02  0.00000000000E+00 0. -1.
         -2    1    5    5    0  502  0.42639439675E+03  0.14786747972E+03 -0.47275093636E+03  0.65358275755E+03  0.00000000000E+00 0.  1.
         -4    1    6    6    0  503 -0.78182232056E+02 -0.35603939210E+03 -0.52266461893E+03  0.63722430432E+03  0.00000000000E+00 0.  1.
<mgrwt>
<rscale>  0 0.13920534E+04</rscale>
<asrwt>0</asrwt>
<pdfrwt beam="1">  1        1 0.37560798E+00 0.13920534E+04</pdfrwt>
<pdfrwt beam="2">  1       -1 0.30527430E-01 0.13920534E+04</pdfrwt>
<totfact> 0.14406337E+01</totfact>
</mgrwt>
</event>
<event>
12    1  0.4802930E-008  0.1861563E+04  0.7818608E-02  0.8674229E-01
          2   -1    0    0  501    0  0.00000000000E+00  0.00000000000E+00  0.23467634673E+04  0.23467634673E+04  0.00000000000E+00 0. -1.
         -2   -1    0    0    0  501 -0.00000000000E+00 -0.00000000000E+00 -0.36916984737E+03  0.36916984737E+03  0.00000000000E+00 0.  1.
         23    2    1    2    0    0 -0.26381096236E+03 -0.42285165178E+03  0.22238121035E+02  0.50513656899E+03  0.79174970961E+02 0.  0.
        254    2    1    2    0    0  0.26381096236E+03  0.42285165178E+03  0.19553554989E+04  0.22107967457E+04  0.90322056020E+03 0.  0.
         23    2    4    4    0    0  0.27860815880E+03  0.51906027290E+03  0.19855936063E+04  0.20731570402E+04  0.91389664770E+02 0.  0.
         23    2    4    4    0    0 -0.14797196441E+02 -0.96208621118E+02 -0.30238107387E+02  0.13763970551E+03  0.92494808478E+02 0.  0.
         11    1    3    3    0    0 -0.19167631520E+01 -0.33789454866E+02  0.12377537285E+02  0.36036157819E+02  0.00000000000E+00 0. -1.
        -11    1    3    3    0    0 -0.26189419921E+03 -0.38906219692E+03  0.98605837498E+01  0.46910041117E+03  0.00000000000E+00 0.  1.
          4    1    5    5  502    0  0.26258122235E+03  0.44599600816E+03  0.18036618892E+04  0.18764481203E+04  0.00000000000E+00 0. -1.
          1    1    6    6  503    0 -0.68185416039E+01 -0.11280642351E+03 -0.15536502560E+02  0.11407525852E+03  0.00000000000E+00 0. -1.
         -4    1    5    5    0  502  0.16026936452E+02  0.73064264736E+02  0.18193171705E+03  0.19670891983E+03  0.00000000000E+00 0.  1.
         -1    1    6    6    0  503 -0.79786548368E+01  0.16597802396E+02 -0.14701604827E+02  0.23564446989E+02  0.00000000000E+00 0.  1.
<mgrwt>
<rscale>  0 0.18615631E+04</rscale>
<asrwt>0</asrwt>
<pdfrwt beam="1">  1        2 0.36104052E+00 0.18615631E+04</pdfrwt>
<pdfrwt beam="2">  1       -2 0.56795363E-01 0.18615631E+04</pdfrwt>
<totfact> 0.11652104E+01</totfact>
</mgrwt>
</event>
<event>
12    1  0.4802930E-008  0.1453228E+04  0.7818608E-02  0.8916166E-01
          2   -1    0    0  501    0  0.00000000000E+00  0.00000000000E+00  0.21967054507E+04  0.21967054507E+04  0.00000000000E+00 0.  1.
         -2   -1    0    0    0  501 -0.00000000000E+00 -0.00000000000E+00 -0.24034521689E+03  0.24034521689E+03  0.00000000000E+00 0. -1.
         23    2    1    2    0    0  0.16065487027E+03  0.16353484331E+03  0.11668452900E+04  0.11927651196E+04  0.92774282085E+02 0.  0.
        254    2    1    2    0    0 -0.16065487027E+03 -0.16353484331E+03  0.78951494377E+03  0.12442855480E+04  0.93400163068E+03 0.  0.
         23    2    4    4    0    0  0.73758056398E+02 -0.25929447487E+03  0.90670289193E+03  0.95033506941E+03  0.91393294795E+02 0.  0.
         23    2    4    4    0    0 -0.23441292667E+03  0.95759631562E+02 -0.11718794816E+03  0.29395047856E+03  0.92490763995E+02 0.  0.
         11    1    3    3    0    0  0.87624077883E+01  0.15985410194E+02  0.29533414400E+03  0.29589621447E+03  0.00000000000E+00 0. -1.
        -11    1    3    3    0    0  0.15189246248E+03  0.14754943312E+03  0.87151114601E+03  0.89686890513E+03  0.00000000000E+00 0.  1.
          4    1    5    5  502    0  0.12935562665E+02 -0.12636928816E+03  0.29101092508E+03  0.31752776932E+03  0.00000000000E+00 0.  1.
          3    1    6    6  503    0 -0.19925097762E+03  0.67108044340E+02 -0.12952720000E+03  0.24694480605E+03  0.00000000000E+00 0. -1.
         -4    1    5    5    0  502  0.60822493734E+02 -0.13292518671E+03  0.61569196685E+03  0.63280730009E+03  0.00000000000E+00 0. -1.
         -3    1    6    6    0  503 -0.35161949052E+02  0.28651587222E+02  0.12339251844E+02  0.47005672504E+02  0.00000000000E+00 0.  1.
<mgrwt>
<rscale>  0 0.14532276E+04</rscale>
<asrwt>0</asrwt>
<pdfrwt beam="1">  1        2 0.33795467E+00 0.14532276E+04</pdfrwt>
<pdfrwt beam="2">  1       -2 0.36976189E-01 0.14532276E+04</pdfrwt>
<totfact> 0.34698609E+01</totfact>
</mgrwt>
</event>
<event>
12    1  0.4802930E-008  0.2031296E+04  0.7818608E-02  0.8592127E-01
          2   -1    0    0  501    0  0.00000000000E+00  0.00000000000E+00  0.81606481069E+03  0.81606481069E+03  0.00000000000E+00 0. -1.
         -2   -1    0    0    0  501 -0.00000000000E+00 -0.00000000000E+00 -0.12640422231E+04  0.12640422231E+04  0.00000000000E+00 0.  1.
         23    2    1    2    0    0 -0.27971524803E+03  0.55539833665E+03 -0.71643327155E+03  0.95299908312E+03  0.90679035702E+02 0.  0.
        254    2    1    2    0    0  0.27971524803E+03 -0.55539833665E+03  0.26845585913E+03  0.11271079507E+04  0.90088614811E+03 0.  0.
         23    2    4    4    0    0  0.50528327607E+03 -0.70066113165E+02  0.26932030135E+03  0.58406230498E+03  0.91514491118E+02 0.  0.
         23    2    4    4    0    0 -0.22556802804E+03 -0.48533222348E+03 -0.86444222598E+00  0.54304564570E+03  0.92030014846E+02 0.  0.
         11    1    3    3    0    0  0.39695113292E+01  0.94076924144E+01 -0.27342691921E+02  0.29187060459E+02  0.00000000000E+00 0. -1.
        -11    1    3    3    0    0 -0.28368475936E+03  0.54599064423E+03 -0.68909057963E+03  0.92381202266E+03  0.00000000000E+00 0.  1.
          4    1    5    5  502    0  0.44524609124E+03 -0.63451823202E+02  0.26821821415E+03  0.52365181756E+03  0.00000000000E+00 0. -1.
          1    1    6    6  503    0 -0.23146013916E+03 -0.47812731569E+03 -0.80827312965E+01  0.53126721768E+03  0.00000000000E+00 0. -1.
         -4    1    5    5    0  502  0.60037184829E+02 -0.66142899635E+01  0.11020872068E+01  0.60410487418E+02  0.00000000000E+00 0.  1.
         -1    1    6    6    0  503  0.58921111189E+01 -0.72049077877E+01  0.72182890705E+01  0.11778428026E+02  0.00000000000E+00 0.  1.
<mgrwt>
<rscale>  0 0.20312955E+04</rscale>
<asrwt>0</asrwt>
<pdfrwt beam="1">  1        2 0.12554843E+00 0.20312955E+04</pdfrwt>
<pdfrwt beam="2">  1       -2 0.19446803E+00 0.20312955E+04</pdfrwt>
<totfact> 0.44953024E+00</totfact>
</mgrwt>
</event>
<event>
12    1  0.4802930E-008  0.2707179E+04  0.7818608E-02  0.8332679E-01
         -2   -1    0    0    0  501 -0.00000000000E+00  0.00000000000E+00  0.14006690835E+04  0.14006690835E+04  0.00000000000E+00 0.  1.
          2   -1    0    0  501    0  0.00000000000E+00 -0.00000000000E+00 -0.13080924680E+04  0.13080924680E+04  0.00000000000E+00 0. -1.
         23    2    1    2    0    0  0.66145726324E+03  0.21309568438E+03 -0.94205496125E+03  0.11742975884E+04  0.92583984874E+02 0.  0.
        254    2    1    2    0    0 -0.66145726324E+03 -0.21309568438E+03  0.10346315767E+04  0.15344639632E+04  0.89508752255E+03 0.  0.
         23    2    4    4    0    0  0.11616750625E+03 -0.31236978697E+02 -0.71930066802E+02  0.16681538484E+03  0.90458829090E+02 0.  0.
         23    2    4    4    0    0 -0.77762476949E+03 -0.18185870568E+03  0.11065616435E+04  0.13676485784E+04  0.90615076159E+02 0.  0.
         11    1    3    3    0    0  0.18081595947E+03  0.85160115757E+02 -0.21671857579E+03  0.29481112192E+03  0.00000000000E+00 0.  1.
        -11    1    3    3    0    0  0.48064130377E+03  0.12793556862E+03 -0.72533638545E+03  0.87948646645E+03  0.00000000000E+00 0. -1.
          4    1    6    6  502    0 -0.16705295662E+03 -0.77943716114E+02  0.25942631768E+03  0.31825135900E+03  0.00000000000E+00 0.  1.
          4    1    5    5  503    0  0.10256525845E+03 -0.88158470359E+01 -0.14862696116E+02  0.10401082220E+03  0.00000000000E+00 0. -1.
         -4    1    5    5    0  503  0.13602247804E+02 -0.22421131661E+02 -0.57067370686E+02  0.62804562631E+02  0.00000000000E+00 0.  1.
         -4    1    6    6    0  502 -0.61057181287E+03 -0.10391498957E+03  0.84713532585E+03  0.10493972194E+04  0.00000000000E+00 0. -1.
<mgrwt>
<rscale>  0 0.27071791E+04</rscale>
<asrwt>0</asrwt>
<pdfrwt beam="1">  1        2 0.20124500E+00 0.27071791E+04</pdfrwt>
<pdfrwt beam="2">  1       -2 0.21548755E+00 0.27071791E+04</pdfrwt>
<totfact> 0.15139782E+00</totfact>
</mgrwt>
</event>
<event>
12    1  0.4802930E-008  0.1817240E+04  0.7818608E-02  0.8697185E-01
          2   -1    0    0  501    0  0.00000000000E+00  0.00000000000E+00  0.32007381955E+04  0.32007381955E+04  0.00000000000E+00 0. -1.
         -2   -1    0    0    0  501 -0.00000000000E+00 -0.00000000000E+00 -0.25793735010E+03  0.25793735010E+03  0.00000000000E+00 0.  1.
         23    2    1    2    0    0  0.49615070673E+03  0.21515612079E+03  0.19383107113E+04  0.20142098091E+04  0.86804732289E+02 0.  0.
        254    2    1    2    0    0 -0.49615070673E+03 -0.21515612079E+03  0.10044901341E+04  0.14444657365E+04  0.88601532394E+03 0.  0.
         23    2    4    4    0    0 -0.23150676599E+03 -0.48509614484E+03  0.88101994952E+03  0.10363077387E+04  0.93935751221E+02 0.  0.
         23    2    4    4    0    0 -0.26464394074E+03  0.26994002406E+03  0.12347018460E+03  0.40815799781E+03  0.91891418182E+02 0.  0.
         11    1    3    3    0    0  0.11312784416E+03  0.84933148443E+02  0.43555018723E+03  0.45794706509E+03  0.00000000000E+00 0.  1.
        -11    1    3    3    0    0  0.38302286257E+03  0.13022297234E+03  0.15027605241E+04  0.15562627441E+04  0.00000000000E+00 0. -1.
          4    1    5    5  502    0 -0.19164341916E+03 -0.37229230250E+03  0.74934247082E+03  0.85839553656E+03  0.00000000000E+00 0. -1.
          1    1    6    6  503    0 -0.10558541416E+03  0.12838283899E+03  0.91342585313E+01  0.16647482606E+03  0.00000000000E+00 0. -1.
         -4    1    5    5    0  502 -0.39863346834E+02 -0.11280384234E+03  0.13167747870E+03  0.17791220212E+03  0.00000000000E+00 0.  1.
         -1    1    6    6    0  503 -0.15905852658E+03  0.14155718506E+03  0.11433592607E+03  0.24168317175E+03  0.00000000000E+00 0.  1.
<mgrwt>
<rscale>  0 0.18172396E+04</rscale>
<asrwt>0</asrwt>
<pdfrwt beam="1">  1        2 0.49242123E+00 0.18172396E+04</pdfrwt>
<pdfrwt beam="2">  1       -2 0.39682671E-01 0.18172396E+04</pdfrwt>
<totfact> 0.73743419E+00</totfact>
</mgrwt>
</event>
<event>
12    1  0.4802930E-008  0.1055769E+04  0.7818608E-02  0.9249408E-01
          1   -1    0    0  501    0  0.00000000000E+00  0.00000000000E+00  0.32415893095E+03  0.32415893095E+03  0.00000000000E+00 0. -1.
         -1   -1    0    0    0  501 -0.00000000000E+00 -0.00000000000E+00 -0.85964594008E+03  0.85964594008E+03  0.00000000000E+00 0.  1.
         23    2    1    2    0    0 -0.57237306894E+02  0.10280062738E+03 -0.14266645213E+03  0.20240797991E+03  0.82287274092E+02 0.  0.
        254    2    1    2    0    0  0.57237306894E+02 -0.10280062738E+03 -0.39282055700E+03  0.98139689112E+03  0.89162087774E+03 0.  0.
         23    2    4    4    0    0 -0.12921201491E+03  0.11980853700E+03 -0.58757857454E+03  0.62013761641E+03  0.90951919634E+02 0.  0.
         23    2    4    4    0    0  0.18644932180E+03 -0.22260916438E+03  0.19475801755E+03  0.36125927472E+03  0.90881177928E+02 0.  0.
         11    1    3    3    0    0  0.24627684367E+01  0.38113843829E+02 -0.43270634525E+01  0.38437661192E+02  0.00000000000E+00 0. -1.
        -11    1    3    3    0    0 -0.59700075331E+02  0.64686783555E+02 -0.13833938868E+03  0.16397031872E+03  0.00000000000E+00 0.  1.
          1    1    6    6  502    0  0.33962262695E+02  0.48337701368E+00  0.24276133656E+02  0.41749246771E+02  0.00000000000E+00 0. -1.
          1    1    5    5  503    0 -0.47250848012E+02 -0.46210101896E+01 -0.18080499066E+03  0.18693432275E+03  0.00000000000E+00 0. -1.
         -1    1    5    5    0  503 -0.81961166898E+02  0.12442954719E+03 -0.40677358388E+03  0.43320329366E+03  0.00000000000E+00 0.  1.
         -1    1    6    6    0  502  0.15248705911E+03 -0.22309254140E+03  0.17048188389E+03  0.31951002795E+03  0.00000000000E+00 0.  1.
<mgrwt>
<rscale>  0 0.10557687E+04</rscale>
<asrwt>0</asrwt>
<pdfrwt beam="1">  1        1 0.49870605E-01 0.10557687E+04</pdfrwt>
<pdfrwt beam="2">  1       -1 0.13225322E+00 0.10557687E+04</pdfrwt>
<totfact> 0.38443442E+01</totfact>
</mgrwt>
</event>
<event>
12    1  0.4802930E-008  0.2630639E+04  0.7818608E-02  0.8357868E-01
          2   -1    0    0  501    0  0.00000000000E+00  0.00000000000E+00  0.16978548032E+04  0.16978548032E+04  0.00000000000E+00 0. -1.
         -2   -1    0    0    0  501 -0.00000000000E+00 -0.00000000000E+00 -0.10189716005E+04  0.10189716005E+04  0.00000000000E+00 0.  1.
         23    2    1    2    0    0  0.31463531514E+02  0.48868389279E+03  0.13917945370E+04  0.14783054680E+04  0.92158138219E+02 0.  0.
        254    2    1    2    0    0 -0.31463531514E+02 -0.48868389279E+03 -0.71291133427E+03  0.12385209358E+04  0.88650416636E+03 0.  0.
         23    2    4    4    0    0 -0.32445782564E+03  0.77868253588E+02 -0.12941564927E+03  0.36937710408E+03  0.91403989002E+02 0.  0.
         23    2    4    4    0    0  0.29299429413E+03 -0.56655214638E+03 -0.58349568499E+03  0.86914383171E+03  0.90093256274E+02 0.  0.
         11    1    3    3    0    0 -0.44367371066E+01  0.35201976414E+02  0.48618568020E+02  0.60188279058E+02  0.00000000000E+00 0.  1.
        -11    1    3    3    0    0  0.35900268621E+02  0.45348191638E+03  0.13431759690E+04  0.14181171889E+04  0.00000000000E+00 0. -1.
          2    1    5    5  502    0 -0.25099678739E+03  0.65406843006E+02 -0.13896098041E+03  0.29425770418E+03  0.00000000000E+00 0. -1.
          4    1    6    6  503    0  0.28886853994E+03 -0.54054071313E+03 -0.53316403591E+03  0.81233809778E+03  0.00000000000E+00 0. -1.
         -2    1    5    5    0  502 -0.73461038248E+02  0.12461410582E+02  0.95453311423E+01  0.75119399897E+02  0.00000000000E+00 0.  1.
         -4    1    6    6    0  503  0.41257541888E+01 -0.26011433255E+02 -0.50331649085E+02  0.56805733929E+02  0.00000000000E+00 0.  1.
<mgrwt>
<rscale>  0 0.26306393E+04</rscale>
<asrwt>0</asrwt>
<pdfrwt beam="1">  1        2 0.26120843E+00 0.26306393E+04</pdfrwt>
<pdfrwt beam="2">  1       -2 0.15676486E+00 0.26306393E+04</pdfrwt>
<totfact> 0.23106464E+00</totfact>
</mgrwt>
</event>
<event>
12    1  0.4802930E-008  0.2621830E+04  0.7818608E-02  0.8360824E-01
          2   -1    0    0  501    0  0.00000000000E+00  0.00000000000E+00  0.15256295714E+04  0.15256295714E+04  0.00000000000E+00 0. -1.
         -2   -1    0    0    0  501 -0.00000000000E+00 -0.00000000000E+00 -0.11264189427E+04  0.11264189427E+04  0.00000000000E+00 0.  1.
         23    2    1    2    0    0  0.96483493927E+03  0.43670265241E+03  0.64618460116E+03  0.12451012343E+04  0.10538917508E+03 0.  0.
        254    2    1    2    0    0 -0.96483493927E+03 -0.43670265241E+03 -0.24697397242E+03  0.14069472798E+04  0.89268630467E+03 0.  0.
         23    2    4    4    0    0 -0.41639322302E+03  0.25066061516E+03 -0.14595545139E+03  0.51621730453E+03  0.94674450302E+02 0.  0.
         23    2    4    4    0    0 -0.54844171625E+03 -0.68736326756E+03 -0.10101852103E+03  0.89072997531E+03  0.99692374829E+02 0.  0.
         11    1    3    3    0    0  0.93820724870E+03  0.44124814419E+03  0.63547211188E+03  0.12160417638E+04  0.00000000000E+00 0. -1.
        -11    1    3    3    0    0  0.26627690572E+02 -0.45454917876E+01  0.10712489289E+02  0.29059470531E+02  0.00000000000E+00 0.  1.
          1    1    5    5  502    0 -0.13895174849E+03  0.77053778099E+02 -0.94641786544E+02  0.18493766757E+03  0.00000000000E+00 0. -1.
          3    1    6    6  503    0 -0.17144572695E+03 -0.14746883167E+03 -0.36737615403E+02  0.22910771700E+03  0.00000000000E+00 0. -1.
         -1    1    5    5    0  502 -0.27744147453E+03  0.17360683706E+03 -0.51313664850E+02  0.33127963696E+03  0.00000000000E+00 0.  1.
         -3    1    6    6    0  503 -0.37699598930E+03 -0.53989443589E+03 -0.64280905625E+02  0.66162225831E+03  0.00000000000E+00 0.  1.
<mgrwt>
<rscale>  0 0.26218299E+04</rscale>
<asrwt>0</asrwt>
<pdfrwt beam="1">  1        2 0.23471224E+00 0.26218299E+04</pdfrwt>
<pdfrwt beam="2">  1       -2 0.17329522E+00 0.26218299E+04</pdfrwt>
<totfact> 0.21900782E+00</totfact>
</mgrwt>
</event>
<event>
12    1  0.4802930E-008  0.1169454E+04  0.7818608E-02  0.9140022E-01
          2   -1    0    0  501    0  0.00000000000E+00  0.00000000000E+00  0.21855464086E+03  0.21855464086E+03  0.00000000000E+00 0. -1.
         -2   -1    0    0    0  501 -0.00000000000E+00 -0.00000000000E+00 -0.15643937837E+04  0.15643937837E+04  0.00000000000E+00 0.  1.
         23    2    1    2    0    0 -0.14322862210E+03  0.15779888246E+03 -0.24873615790E+03  0.33877530656E+03  0.86510731069E+02 0.  0.
        254    2    1    2    0    0  0.14322862210E+03 -0.15779888246E+03 -0.10971029849E+04  0.14441731180E+04  0.91465081299E+03 0.  0.
         23    2    4    4    0    0  0.16550667719E+03  0.32314692081E+03 -0.76645723006E+03  0.85299978760E+03  0.91299285390E+02 0.  0.
         23    2    4    4    0    0 -0.22278055090E+02 -0.48094580327E+03 -0.33064575487E+03  0.59117333039E+03  0.91400842055E+02 0.  0.
         11    1    3    3    0    0 -0.86036034614E+01  0.18956610547E+01  0.63833632554E+01  0.10879469188E+02  0.00000000000E+00 0. -1.
        -11    1    3    3    0    0 -0.13462501864E+03  0.15590322141E+03 -0.25511952116E+03  0.32789583737E+03  0.00000000000E+00 0.  1.
          2    1    5    5  502    0 -0.37812181945E+01  0.12983263120E+02 -0.77927879288E+02  0.79092459202E+02  0.00000000000E+00 0. -1.
          3    1    6    6  503    0 -0.86681301622E+01 -0.14987677298E+03 -0.54079146804E+02  0.15957047872E+03  0.00000000000E+00 0. -1.
         -2    1    5    5    0  502  0.16928789539E+03  0.31016365769E+03 -0.68852935077E+03  0.77390732840E+03  0.00000000000E+00 0.  1.
         -3    1    6    6    0  503 -0.13609924928E+02 -0.33106903029E+03 -0.27656660806E+03  0.43160285167E+03  0.00000000000E+00 0.  1.
<mgrwt>
<rscale>  0 0.11694538E+04</rscale>
<asrwt>0</asrwt>
<pdfrwt beam="1">  1        2 0.33623790E-01 0.11694538E+04</pdfrwt>
<pdfrwt beam="2">  1       -2 0.24067597E+00 0.11694538E+04</pdfrwt>
<totfact> 0.11380862E+01</totfact>
</mgrwt>
</event>
<event>
12    1  0.4802930E-008  0.1678520E+04  0.7818608E-02  0.8773711E-01
          2   -1    0    0  501    0  0.00000000000E+00  0.00000000000E+00  0.19897661776E+04  0.19897661776E+04  0.00000000000E+00 0. -1.
         -2   -1    0    0    0  501 -0.00000000000E+00 -0.00000000000E+00 -0.35399016008E+03  0.35399016008E+03  0.00000000000E+00 0.  1.
         23    2    1    2    0    0  0.81361503753E+00  0.15628303499E+03 -0.21544303110E+03  0.28169516525E+03  0.92257343771E+02 0.  0.
        254    2    1    2    0    0 -0.81361503753E+00 -0.15628303499E+03  0.18512190487E+04  0.20620611725E+04  0.89479565482E+03 0.  0.
         23    2    4    4    0    0  0.75597895250E+02 -0.41421608975E+03  0.41674914788E+03  0.59967918590E+03  0.92979906201E+02 0.  0.
         23    2    4    4    0    0 -0.76411510288E+02  0.25793305476E+03  0.14344699008E+04  0.14623819866E+04  0.92135762716E+02 0.  0.
         13    1    3    3    0    0 -0.20701276377E+02  0.14181132885E+03 -0.13391568462E+03  0.19614384115E+03  0.00000000000E+00 0. -1.
        -13    1    3    3    0    0  0.21514891414E+02  0.14471706146E+02 -0.81527346486E+02  0.85551324107E+02  0.00000000000E+00 0.  1.
          2    1    5    5  502    0  0.28049353715E+02 -0.41679261390E+02  0.22075875847E+02  0.54875052331E+02  0.00000000000E+00 0. -1.
          4    1    6    6  503    0 -0.75038152199E+02  0.24775673837E+03  0.11961921529E+04  0.12238830795E+04  0.00000000000E+00 0.  1.
         -2    1    5    5    0  502  0.47548541535E+02 -0.37253682836E+03  0.39467327204E+03  0.54480413356E+03  0.00000000000E+00 0.  1.
         -4    1    6    6    0  503 -0.13733580890E+01  0.10176316388E+02  0.23827774789E+03  0.23849890706E+03  0.00000000000E+00 0. -1.
<mgrwt>
<rscale>  0 0.16785204E+04</rscale>
<asrwt>0</asrwt>
<pdfrwt beam="1">  1        2 0.30611787E+00 0.16785204E+04</pdfrwt>
<pdfrwt beam="2">  1       -2 0.54460026E-01 0.16785204E+04</pdfrwt>
<totfact> 0.20477996E+01</totfact>
</mgrwt>
</event>
<event>
12    1  0.4802930E-008  0.2644607E+04  0.7818608E-02  0.8353205E-01
          2   -1    0    0  501    0  0.00000000000E+00  0.00000000000E+00  0.21418959894E+04  0.21418959894E+04  0.00000000000E+00 0. -1.
         -2   -1    0    0    0  501 -0.00000000000E+00 -0.00000000000E+00 -0.81632640014E+03  0.81632640014E+03  0.00000000000E+00 0.  1.
         23    2    1    2    0    0  0.25750956748E+02 -0.65115688964E+03  0.16667915733E+04  0.17919762967E+04  0.91194804446E+02 0.  0.
        254    2    1    2    0    0 -0.25750956748E+02  0.65115688964E+03 -0.34122198403E+03  0.11662460929E+04  0.90500226520E+03 0.  0.
         23    2    4    4    0    0  0.82656958487E+02  0.42060766296E+03  0.25777349596E+03  0.50879687075E+03  0.93188526837E+02 0.  0.
         23    2    4    4    0    0 -0.10840791524E+03  0.23054922668E+03 -0.59899547999E+03  0.65744922211E+03  0.92404938169E+02 0.  0.
         13    1    3    3    0    0  0.38698514577E+02 -0.63455244077E+03  0.15909121454E+04  0.17132296488E+04  0.00000000000E+00 0. -1.
        -13    1    3    3    0    0 -0.12947557829E+02 -0.16604448876E+02  0.75879427928E+02  0.78746647922E+02  0.00000000000E+00 0.  1.
          2    1    5    5  502    0  0.18158969785E+02  0.66794195514E+01  0.71449916635E+01  0.20625560237E+02  0.00000000000E+00 0. -1.
          1    1    6    6  503    0  0.12729985674E+02  0.12308824301E+02 -0.18727967157E+02  0.25773948955E+02  0.00000000000E+00 0. -1.
         -2    1    5    5    0  502  0.64497988702E+02  0.41392824341E+03  0.25062850430E+03  0.48817131051E+03  0.00000000000E+00 0.  1.
         -1    1    6    6    0  503 -0.12113790091E+03  0.21824040238E+03 -0.58026751284E+03  0.63167527316E+03  0.00000000000E+00 0.  1.
<mgrwt>
<rscale>  0 0.26446068E+04</rscale>
<asrwt>0</asrwt>
<pdfrwt beam="1">  1        2 0.32952246E+00 0.26446068E+04</pdfrwt>
<pdfrwt beam="2">  1       -2 0.12558868E+00 0.26446068E+04</pdfrwt>
<totfact> 0.23246757E+00</totfact>
</mgrwt>
</event>
<event>
12    1  0.4802930E-008  0.1262840E+04  0.7818608E-02  0.9059564E-01
         -1   -1    0    0    0  501 -0.00000000000E+00  0.00000000000E+00  0.22347427846E+03  0.22347427846E+03  0.00000000000E+00 0.  1.
          1   -1    0    0  501    0  0.00000000000E+00 -0.00000000000E+00 -0.17840589945E+04  0.17840589945E+04  0.00000000000E+00 0. -1.
         23    2    1    2    0    0 -0.73474290683E+02  0.14574679986E+03  0.13249234209E+02  0.18595155945E+03  0.88101300757E+02 0.  0.
        254    2    1    2    0    0  0.73474290683E+02 -0.14574679986E+03 -0.15738339502E+04  0.18215817135E+04  0.90253312125E+03 0.  0.
         23    2    4    4    0    0  0.59792200578E+02 -0.51189307810E+03 -0.74392593837E+03  0.90970403623E+03  0.92336347603E+02 0.  0.
         23    2    4    4    0    0  0.13682090105E+02  0.36614627824E+03 -0.82990801184E+03  0.91187767724E+03  0.92321684768E+02 0.  0.
         13    1    3    3    0    0 -0.62662981237E+02  0.37808252114E+02  0.23807177014E+02  0.76960345781E+02  0.00000000000E+00 0. -1.
        -13    1    3    3    0    0 -0.10811309446E+02  0.10793854775E+03 -0.10557942805E+02  0.10899121367E+03  0.00000000000E+00 0.  1.
          1    1    5    5  502    0 -0.65727558737E+01 -0.31751824699E+03 -0.47286420542E+03  0.56961530445E+03  0.00000000000E+00 0. -1.
          1    1    6    6  503    0  0.29030701660E+02  0.33357157319E+03 -0.68351952943E+03  0.76112530059E+03  0.00000000000E+00 0. -1.
         -1    1    5    5    0  502  0.66364956451E+02 -0.19437483111E+03 -0.27106173296E+03  0.34008873179E+03  0.00000000000E+00 0.  1.
         -1    1    6    6    0  503 -0.15348611554E+02  0.32574705055E+02 -0.14638848241E+03  0.15075237666E+03  0.00000000000E+00 0.  1.
<mgrwt>
<rscale>  0 0.12628401E+04</rscale>
<asrwt>0</asrwt>
<pdfrwt beam="1">  1        1 0.27447061E+00 0.12628401E+04</pdfrwt>
<pdfrwt beam="2">  1       -1 0.34380659E-01 0.12628401E+04</pdfrwt>
<totfact> 0.32989243E+01</totfact>
</mgrwt>
</event>
<event>
12    1  0.4802930E-008  0.1482395E+04  0.7818608E-02  0.8896245E-01
          1   -1    0    0  501    0  0.00000000000E+00  0.00000000000E+00  0.16953982163E+04  0.16953982163E+04  0.00000000000E+00 0.  1.
         -1   -1    0    0    0  501 -0.00000000000E+00 -0.00000000000E+00 -0.32403828026E+03  0.32403828026E+03  0.00000000000E+00 0. -1.
         23    2    1    2    0    0  0.31550595091E+03  0.32433396507E+03  0.60233599179E+03  0.75869335897E+03  0.89835627589E+02 0.  0.
        254    2    1    2    0    0 -0.31550595091E+03 -0.32433396507E+03  0.76902394424E+03  0.12607431376E+04  0.89069574277E+03 0.  0.
         23    2    4    4    0    0  0.16114096554E+03  0.11732720184E+03  0.51008848821E+03  0.55533804449E+03  0.92076027204E+02 0.  0.
         23    2    4    4    0    0 -0.47664691645E+03 -0.44166116691E+03  0.25893545603E+03  0.70540509309E+03  0.91059901473E+02 0.  0.
         11    1    3    3    0    0  0.31626579567E+03  0.32874273790E+03  0.59976224905E+03  0.75353208068E+03  0.00000000000E+00 0.  1.
        -11    1    3    3    0    0 -0.75984475715E+00 -0.44087728283E+01  0.25737427418E+01  0.51612782920E+01  0.00000000000E+00 0. -1.
          1    1    5    5  502    0  0.14276373906E+03  0.83926508826E+02  0.47675236239E+03  0.50469590757E+03  0.00000000000E+00 0. -1.
          1    1    6    6  503    0 -0.33416848032E+02 -0.99711398720E+01  0.28963927956E+02  0.45332311714E+02  0.00000000000E+00 0.  1.
         -1    1    5    5    0  502  0.18377226478E+02  0.33400693015E+02  0.33336125819E+02  0.50642136917E+02  0.00000000000E+00 0.  1.
         -1    1    6    6    0  503 -0.44323006842E+03 -0.43169002704E+03  0.22997152808E+03  0.66007278138E+03  0.00000000000E+00 0. -1.
<mgrwt>
<rscale>  0 0.14823953E+04</rscale>
<asrwt>0</asrwt>
<pdfrwt beam="1">  1        1 0.26083049E+00 0.14823953E+04</pdfrwt>
<pdfrwt beam="2">  1       -1 0.49852044E-01 0.14823953E+04</pdfrwt>
<totfact> 0.18773526E+01</totfact>
</mgrwt>
</event>
<event>
12    1  0.4802930E-008  0.1227212E+04  0.7818608E-02  0.9089366E-01
          1   -1    0    0  501    0  0.00000000000E+00  0.00000000000E+00  0.20039950662E+04  0.20039950662E+04  0.00000000000E+00 0. -1.
         -1   -1    0    0    0  501 -0.00000000000E+00 -0.00000000000E+00 -0.18788077833E+03  0.18788077833E+03  0.00000000000E+00 0.  1.
         23    2    1    2    0    0  0.41478574122E+02 -0.90567891686E+02 -0.28346748764E+02  0.13734574010E+03  0.90206978895E+02 0.  0.
        254    2    1    2    0    0 -0.41478574122E+02  0.90567891686E+02  0.18444610366E+04  0.20545301044E+04  0.89951899325E+03 0.  0.
         23    2    4    4    0    0 -0.39629920740E+03 -0.13193927611E+03  0.58723384093E+03  0.72621443864E+03  0.89904352404E+02 0.  0.
         23    2    4    4    0    0  0.35482063327E+03  0.22250716780E+03  0.12572271957E+04  0.13283156658E+04  0.91625132244E+02 0.  0.
         11    1    3    3    0    0  0.28438210113E+02 -0.84878368815E+02 -0.56462486654E+02  0.10583516281E+03  0.00000000000E+00 0.  1.
        -11    1    3    3    0    0  0.13040364009E+02 -0.56895228711E+01  0.28115737890E+02  0.31510577289E+02  0.00000000000E+00 0. -1.
          2    1    5    5  502    0 -0.43913186121E+02 -0.32194355088E+02  0.12602149823E+03  0.13728169008E+03  0.00000000000E+00 0. -1.
          3    1    6    6  503    0  0.17330745124E+03  0.14549522901E+03  0.77428105786E+03  0.80666938139E+03  0.00000000000E+00 0. -1.
         -2    1    5    5    0  502 -0.35238602127E+03 -0.99744921023E+02  0.46121234270E+03  0.58893274856E+03  0.00000000000E+00 0.  1.
         -3    1    6    6    0  503  0.18151318204E+03  0.77011938783E+02  0.48294613783E+03  0.52164628439E+03  0.00000000000E+00 0.  1.
<mgrwt>
<rscale>  0 0.12272117E+04</rscale>
<asrwt>0</asrwt>
<pdfrwt beam="1">  1        1 0.30830692E+00 0.12272117E+04</pdfrwt>
<pdfrwt beam="2">  1       -1 0.28904737E-01 0.12272117E+04</pdfrwt>
<totfact> 0.31916063E+01</totfact>
</mgrwt>
</event>
<event>
12    1  0.4802930E-008  0.2443564E+04  0.7818608E-02  0.8423372E-01
          2   -1    0    0  501    0  0.00000000000E+00  0.00000000000E+00  0.74453156861E+03  0.74453156861E+03  0.00000000000E+00 0. -1.
         -2   -1    0    0    0  501 -0.00000000000E+00 -0.00000000000E+00 -0.20049532396E+04  0.20049532396E+04  0.00000000000E+00 0.  1.
         23    2    1    2    0    0 -0.23377751377E+03  0.13325294621E+03 -0.16592417413E+04  0.16833444447E+04  0.90316608388E+02 0.  0.
        254    2    1    2    0    0  0.23377751377E+03 -0.13325294621E+03  0.39882007027E+03  0.10661403636E+04  0.95141450103E+03 0.  0.
         23    2    4    4    0    0 -0.29204236230E+03  0.19039489274E+03  0.95784066884E+02  0.37309147294E+03  0.92107020086E+02 0.  0.
         23    2    4    4    0    0  0.52581987607E+03 -0.32364783895E+03  0.30303600338E+03  0.69304889064E+03  0.85155620707E+02 0.  0.
         11    1    3    3    0    0 -0.21790559484E+02  0.36680766087E+02 -0.14029716292E+03  0.14664106180E+03  0.00000000000E+00 0. -1.
        -11    1    3    3    0    0 -0.21198695429E+03  0.96572180123E+02 -0.15189445784E+04  0.15367033829E+04  0.00000000000E+00 0.  1.
          1    1    5    5  502    0 -0.26300294713E+03  0.16134590626E+03  0.11295032420E+03  0.32857392989E+03  0.00000000000E+00 0. -1.
          3    1    6    6  503    0  0.43936972953E+03 -0.29108011892E+03  0.22891858879E+03  0.57461040293E+03  0.00000000000E+00 0. -1.
         -1    1    5    5    0  502 -0.29039415170E+02  0.29048986478E+02 -0.17166257312E+02  0.44517543046E+02  0.00000000000E+00 0.  1.
         -3    1    6    6    0  503  0.86450146548E+02 -0.32567720024E+02  0.74117414592E+02  0.11843848771E+03  0.00000000000E+00 0.  1.
<mgrwt>
<rscale>  0 0.24435638E+04</rscale>
<asrwt>0</asrwt>
<pdfrwt beam="1">  1        2 0.11454332E+00 0.24435638E+04</pdfrwt>
<pdfrwt beam="2">  1       -2 0.30845434E+00 0.24435638E+04</pdfrwt>
<totfact> 0.95707792E-01</totfact>
</mgrwt>
</event>
<event>
12    1  0.4802930E-008  0.1681598E+04  0.7818608E-02  0.8771930E-01
         -1   -1    0    0    0  501 -0.00000000000E+00  0.00000000000E+00  0.49687483854E+03  0.49687483854E+03  0.00000000000E+00 0.  1.
          1   -1    0    0  501    0  0.00000000000E+00 -0.00000000000E+00 -0.14227790390E+04  0.14227790390E+04  0.00000000000E+00 0. -1.
         23    2    1    2    0    0 -0.54261348390E+02 -0.31901806501E+03  0.24379131554E+03  0.41544905081E+03  0.91906955984E+02 0.  0.
        254    2    1    2    0    0  0.54261348390E+02  0.31901806501E+03 -0.11696955160E+04  0.15042048267E+04  0.88866627083E+03 0.  0.
         23    2    4    4    0    0  0.14563627967E+03  0.81554974971E+02  0.93748647255E+02  0.21218990005E+03  0.91512867537E+02 0.  0.
         23    2    4    4    0    0 -0.91374931276E+02  0.23746309004E+03 -0.12634441633E+04  0.12920149267E+04  0.90957792033E+02 0.  0.
         11    1    3    3    0    0  0.11064548315E+01  0.58870647325E+01  0.88811136210E+01  0.10712420483E+02  0.00000000000E+00 0. -1.
        -11    1    3    3    0    0 -0.55367803221E+02 -0.32490512974E+03  0.23491020191E+03  0.40473663033E+03  0.00000000000E+00 0.  1.
          1    1    6    6  502    0 -0.52927032486E+02  0.33479267675E+02 -0.29569846409E+03  0.30225769436E+03  0.00000000000E+00 0. -1.
          1    1    5    5  503    0  0.12162478819E+03  0.10173791697E+03  0.83389492348E+02  0.17915635709E+03  0.00000000000E+00 0. -1.
         -1    1    5    5    0  503  0.24011491475E+02 -0.20182941995E+02  0.10359154907E+02  0.33033542965E+02  0.00000000000E+00 0.  1.
         -1    1    6    6    0  502 -0.38447898790E+02  0.20398382236E+03 -0.96774569917E+03  0.98975723234E+03  0.00000000000E+00 0.  1.
<mgrwt>
<rscale>  0 0.16815982E+04</rscale>
<asrwt>0</asrwt>
<pdfrwt beam="1">  1        1 0.21888908E+00 0.16815982E+04</pdfrwt>
<pdfrwt beam="2">  1       -1 0.76442283E-01 0.16815982E+04</pdfrwt>
<totfact> 0.12123261E+01</totfact>
</mgrwt>
</event>
<event>
12    1  0.4802930E-008  0.1382633E+04  0.7818608E-02  0.8966486E-01
         -2   -1    0    0    0  501 -0.00000000000E+00  0.00000000000E+00  0.53039356290E+03  0.53039356290E+03  0.00000000000E+00 0.  1.
          2   -1    0    0  501    0  0.00000000000E+00 -0.00000000000E+00 -0.90106445824E+03  0.90106445824E+03  0.00000000000E+00 0. -1.
         23    2    1    2    0    0  0.46831973920E+02  0.20769605646E+03  0.17307186537E+03  0.28918711575E+03  0.91347860861E+02 0.  0.
        254    2    1    2    0    0 -0.46831973920E+02 -0.20769605646E+03 -0.54374276070E+03  0.11422709054E+04  0.98173099464E+03 0.  0.
         23    2    4    4    0    0 -0.11162160446E+03 -0.56135880096E+03 -0.50562038883E+03  0.76919182937E+03  0.91766043655E+02 0.  0.
         23    2    4    4    0    0  0.64789630537E+02  0.35366274450E+03 -0.38122371869E+02  0.37307907602E+03  0.91976348367E+02 0.  0.
         11    1    3    3    0    0  0.14757272882E+02  0.11758867538E+02 -0.79794007909E+01  0.20487042384E+02  0.00000000000E+00 0. -1.
        -11    1    3    3    0    0  0.32074701038E+02  0.19593718892E+03  0.18105126616E+03  0.26870007337E+03  0.00000000000E+00 0.  1.
          2    1    5    5  502    0  0.45528059295E+01  0.14683613626E+01 -0.60951054117E+01  0.77481892661E+01  0.00000000000E+00 0. -1.
          1    1    6    6  503    0  0.63598958843E+02  0.35636032232E+03 -0.28609658088E+02  0.36311984168E+03  0.00000000000E+00 0.  1.
         -2    1    5    5    0  502 -0.11617441039E+03 -0.56282716232E+03 -0.49952528342E+03  0.76144364010E+03  0.00000000000E+00 0.  1.
         -1    1    6    6    0  503  0.11906716936E+01 -0.26975778194E+01 -0.95127137809E+01  0.99592343406E+01  0.00000000000E+00 0. -1.
<mgrwt>
<rscale>  0 0.13826334E+04</rscale>
<asrwt>0</asrwt>
<pdfrwt beam="1">  1        2 0.13862530E+00 0.13826334E+04</pdfrwt>
<pdfrwt beam="2">  1       -2 0.81599010E-01 0.13826334E+04</pdfrwt>
<totfact> 0.37723250E+01</totfact>
</mgrwt>
</event>
<event>
12    1  0.4802930E-008  0.1240276E+04  0.7818608E-02  0.9078316E-01
          2   -1    0    0  501    0  0.00000000000E+00  0.00000000000E+00  0.68577981879E+03  0.68577981879E+03  0.00000000000E+00 0. -1.
         -2   -1    0    0    0  501 -0.00000000000E+00 -0.00000000000E+00 -0.56077919817E+03  0.56077919817E+03  0.00000000000E+00 0.  1.
         23    2    1    2    0    0  0.50606925383E+02 -0.22652261933E+03  0.18730083178E+03  0.31171232003E+03  0.90605799519E+02 0.  0.
        254    2    1    2    0    0 -0.50606925383E+02  0.22652261933E+03 -0.62300211155E+02  0.93484669694E+03  0.90342873128E+03 0.  0.
         23    2    4    4    0    0  0.31435721179E+03 -0.10156211487E+03  0.17291453907E+03  0.38377650406E+03  0.90827569962E+02 0.  0.
         23    2    4    4    0    0 -0.36496413718E+03  0.32808473420E+03 -0.23521475023E+03  0.55107019288E+03  0.86683127062E+02 0.  0.
         11    1    3    3    0    0 -0.70301727761E+01  0.35169050512E+01 -0.21843266137E+01  0.81586293675E+01  0.00000000000E+00 0.  1.
        -11    1    3    3    0    0  0.57637098159E+02 -0.23003952438E+03  0.18948515839E+03  0.30355369066E+03  0.00000000000E+00 0. -1.
          4    1    5    5  502    0  0.63485130713E+02 -0.54237366586E+02  0.68308483972E+02  0.10788003865E+03  0.00000000000E+00 0. -1.
          1    1    6    6  503    0 -0.21749459843E+02  0.42348290716E+02 -0.45507028500E+02  0.65858229348E+02  0.00000000000E+00 0. -1.
         -4    1    5    5    0  502  0.25087208108E+03 -0.47324748280E+02  0.10460605510E+03  0.27589646541E+03  0.00000000000E+00 0.  1.
         -1    1    6    6    0  503 -0.34321467733E+03  0.28573644348E+03 -0.18970772173E+03  0.48521196353E+03  0.00000000000E+00 0.  1.
<mgrwt>
<rscale>  0 0.12402759E+04</rscale>
<asrwt>0</asrwt>
<pdfrwt beam="1">  1        2 0.10550459E+00 0.12402759E+04</pdfrwt>
<pdfrwt beam="2">  1       -2 0.86273723E-01 0.12402759E+04</pdfrwt>
<totfact> 0.48219783E+01</totfact>
</mgrwt>
</event>
<event>
12    1  0.4802930E-008  0.5132356E+04  0.7818608E-02  0.7808408E-01
          2   -1    0    0  501    0  0.00000000000E+00  0.00000000000E+00  0.16670136975E+04  0.16670136975E+04  0.00000000000E+00 0. -1.
         -2   -1    0    0    0  501 -0.00000000000E+00 -0.00000000000E+00 -0.39503397716E+04  0.39503397716E+04  0.00000000000E+00 0.  1.
         23    2    1    2    0    0  0.22825464414E+03 -0.14037443674E+04  0.11444044814E+04  0.18277382995E+04  0.91472633359E+02 0.  0.
        254    2    1    2    0    0 -0.22825464414E+03  0.14037443674E+04 -0.34277305555E+04  0.37896151697E+04  0.76762487046E+03 0.  0.
         23    2    4    4    0    0 -0.10157124851E+03  0.61307494814E+02 -0.99893384519E+03  0.10101028160E+04  0.91452416347E+02 0.  0.
         23    2    4    4    0    0 -0.12668339563E+03  0.13424368726E+04 -0.24287967103E+04  0.27795123537E+04  0.91924015056E+02 0.  0.
         11    1    3    3    0    0  0.13638550652E+03 -0.10382480367E+04  0.80964493813E+03  0.13236634459E+04  0.00000000000E+00 0. -1.
        -11    1    3    3    0    0  0.91869137613E+02 -0.36549633074E+03  0.33475954327E+03  0.50407485361E+03  0.00000000000E+00 0.  1.
          2    1    5    5  502    0 -0.90718090077E+02  0.76465533463E+02 -0.65464345781E+03  0.66530805385E+03  0.00000000000E+00 0. -1.
          1    1    6    6  503    0 -0.92071996314E+02  0.10883468407E+04 -0.18927928725E+04  0.21853239935E+04  0.00000000000E+00 0. -1.
         -2    1    5    5    0  502 -0.10853158431E+02 -0.15158038649E+02 -0.34429038738E+03  0.34479476218E+03  0.00000000000E+00 0.  1.
         -1    1    6    6    0  503 -0.34611399316E+02  0.25409003191E+03 -0.53600383778E+03  0.59418836020E+03  0.00000000000E+00 0.  1.
<mgrwt>
<rscale>  0 0.51323564E+04</rscale>
<asrwt>0</asrwt>
<pdfrwt beam="1">  1        2 0.25646365E+00 0.51323564E+04</pdfrwt>
<pdfrwt beam="2">  1       -2 0.60774458E+00 0.51323564E+04</pdfrwt>
<totfact> 0.35341738E-03</totfact>
</mgrwt>
</event>
<event>
12    1  0.4802930E-008  0.1407425E+04  0.7818608E-02  0.8948462E-01
          2   -1    0    0  501    0  0.00000000000E+00  0.00000000000E+00  0.88085781670E+03  0.88085781670E+03  0.00000000000E+00 0.  1.
         -2   -1    0    0    0  501 -0.00000000000E+00 -0.00000000000E+00 -0.56219198450E+03  0.56219198450E+03  0.00000000000E+00 0. -1.
         23    2    1    2    0    0 -0.37323941043E+03 -0.63139932898E+02  0.24544151384E+03  0.46017452419E+03  0.90690392959E+02 0.  0.
        254    2    1    2    0    0  0.37323941043E+03  0.63139932898E+02  0.73224318357E+02  0.98287527700E+03  0.90409496222E+03 0.  0.
         23    2    4    4    0    0  0.37203498017E+03 -0.21701907770E+03 -0.28139756730E+03  0.52235909227E+03  0.90372140863E+02 0.  0.
         23    2    4    4    0    0  0.12044302599E+01  0.28015901059E+03  0.35462188565E+03  0.46051618473E+03  0.88475718399E+02 0.  0.
         13    1    3    3    0    0 -0.32829603195E+02  0.19400457275E+02  0.33590951172E+02  0.50818427652E+02  0.00000000000E+00 0. -1.
        -13    1    3    3    0    0 -0.34040980724E+03 -0.82540390173E+02  0.21185056267E+03  0.40935609654E+03  0.00000000000E+00 0.  1.
          2    1    5    5  502    0  0.16286836479E+03 -0.81403559250E+02 -0.17077373199E+03  0.24963235216E+03  0.00000000000E+00 0. -1.
          2    1    6    6  503    0 -0.17248549130E+02  0.19314974721E+03  0.29643774703E+03  0.35423110417E+03  0.00000000000E+00 0.  1.
         -2    1    5    5    0  502  0.20916661538E+03 -0.13561551845E+03 -0.11062383530E+03  0.27272674011E+03  0.00000000000E+00 0.  1.
         -2    1    6    6    0  503  0.18452979390E+02  0.87009263388E+02  0.58184138618E+02  0.10628508056E+03  0.00000000000E+00 0. -1.
<mgrwt>
<rscale>  0 0.14074249E+04</rscale>
<asrwt>0</asrwt>
<pdfrwt beam="1">  1        2 0.13551659E+00 0.14074249E+04</pdfrwt>
<pdfrwt beam="2">  1       -2 0.86491074E-01 0.14074249E+04</pdfrwt>
<totfact> 0.34048121E+01</totfact>
</mgrwt>
</event>
<event>
12    1  0.4802930E-008  0.2544070E+04  0.7818608E-02  0.8387451E-01
          2   -1    0    0  501    0  0.00000000000E+00  0.00000000000E+00  0.14265561910E+04  0.14265561910E+04  0.00000000000E+00 0. -1.
         -2   -1    0    0    0  501 -0.00000000000E+00 -0.00000000000E+00 -0.11342510749E+04  0.11342510749E+04  0.00000000000E+00 0.  1.
         23    2    1    2    0    0  0.28082063135E+03 -0.52311016719E+03  0.10752812713E+04  0.12323189867E+04  0.99377053209E+02 0.  0.
        254    2    1    2    0    0 -0.28082063135E+03  0.52311016719E+03 -0.78297615515E+03  0.13284882791E+04  0.89404976049E+03 0.  0.
         23    2    4    4    0    0 -0.34404867304E+03  0.31848242758E+03  0.34238546884E+02  0.47878974376E+03  0.90921914544E+02 0.  0.
         23    2    4    4    0    0  0.63228041683E+02  0.20462773962E+03 -0.81721470203E+03  0.84969853537E+03  0.90980408418E+02 0.  0.
         11    1    3    3    0    0  0.31923232201E+02 -0.20813803308E+02  0.10551199755E+03  0.11218328213E+03  0.00000000000E+00 0.  1.
        -11    1    3    3    0    0  0.24889739915E+03 -0.50229636388E+03  0.96976927372E+03  0.11201357046E+04  0.00000000000E+00 0. -1.
          1    1    5    5  502    0 -0.21497556500E+03  0.23690346558E+03 -0.92122348864E+01  0.32003532746E+03  0.00000000000E+00 0. -1.
          3    1    6    6  503    0  0.29363076893E+01  0.17686829746E+02 -0.22596369423E+03  0.22667385593E+03  0.00000000000E+00 0. -1.
         -1    1    5    5    0  502 -0.12907310803E+03  0.81578961996E+02  0.43450781770E+02  0.15875441630E+03  0.00000000000E+00 0.  1.
         -3    1    6    6    0  503  0.60291733993E+02  0.18694090987E+03 -0.59125100780E+03  0.62302467945E+03  0.00000000000E+00 0.  1.
<mgrwt>
<rscale>  0 0.25440699E+04</rscale>
<asrwt>0</asrwt>
<pdfrwt beam="1">  1        2 0.21947018E+00 0.25440699E+04</pdfrwt>
<pdfrwt beam="2">  1       -2 0.17450016E+00 0.25440699E+04</pdfrwt>
<totfact> 0.24598992E+00</totfact>
</mgrwt>
</event>
<event>
12    1  0.4802930E-008  0.2428701E+04  0.7818608E-02  0.8428836E-01
          1   -1    0    0  501    0  0.00000000000E+00  0.00000000000E+00  0.52795302135E+03  0.52795302135E+03  0.00000000000E+00 0. -1.
         -1   -1    0    0    0  501 -0.00000000000E+00 -0.00000000000E+00 -0.27931397820E+04  0.27931397820E+04  0.00000000000E+00 0.  1.
         23    2    1    2    0    0 -0.66225228927E+03  0.61247382288E+03 -0.16989083143E+04  0.19257267678E+04  0.91825079759E+02 0.  0.
        254    2    1    2    0    0  0.66225228927E+03 -0.61247382288E+03 -0.56627844632E+03  0.13953660356E+04  0.90148367491E+03 0.  0.
         23    2    4    4    0    0 -0.15704070607E+03 -0.88680182399E+02  0.87151765416E+02  0.22009554601E+03  0.91217657520E+02 0.  0.
         23    2    4    4    0    0  0.81929299534E+03 -0.52379364048E+03 -0.65343021173E+03  0.11752704896E+04  0.93214226522E+02 0.  0.
         11    1    3    3    0    0 -0.18150990122E+03  0.12869147087E+03 -0.36235703016E+03  0.42521753988E+03  0.00000000000E+00 0. -1.
        -11    1    3    3    0    0 -0.48074238805E+03  0.48378235201E+03 -0.13365512842E+04  0.15005092279E+04  0.00000000000E+00 0.  1.
          2    1    5    5  502    0 -0.52739841369E+02 -0.33635809303E+02  0.80536782375E+02  0.10197564342E+03  0.00000000000E+00 0. -1.
          4    1    6    6  503    0  0.69067506883E+03 -0.43556179329E+03 -0.58751159608E+03  0.10059403571E+04  0.00000000000E+00 0. -1.
         -2    1    5    5    0  502 -0.10430086471E+03 -0.55044373096E+02  0.66149830415E+01  0.11811990259E+03  0.00000000000E+00 0.  1.
         -4    1    6    6    0  503  0.12861792651E+03 -0.88231847194E+02 -0.65918615651E+02  0.16933013249E+03  0.00000000000E+00 0.  1.
<mgrwt>
<rscale>  0 0.24287005E+04</rscale>
<asrwt>0</asrwt>
<pdfrwt beam="1">  1        1 0.81223543E-01 0.24287005E+04</pdfrwt>
<pdfrwt beam="2">  1       -1 0.42971380E+00 0.24287005E+04</pdfrwt>
<totfact> 0.16408384E-01</totfact>
</mgrwt>
</event>
<event>
12    1  0.4802930E-008  0.1831711E+04  0.7818608E-02  0.8689615E-01
         -1   -1    0    0    0  501 -0.00000000000E+00  0.00000000000E+00  0.64531529738E+03  0.64531529738E+03  0.00000000000E+00 0.  1.
          1   -1    0    0  501    0  0.00000000000E+00 -0.00000000000E+00 -0.12998168031E+04  0.12998168031E+04  0.00000000000E+00 0. -1.
         23    2    1    2    0    0  0.29299253556E+03  0.59227989164E+03 -0.46481852849E+03  0.81285252366E+03  0.89626250946E+02 0.  0.
        254    2    1    2    0    0 -0.29299253556E+03 -0.59227989164E+03 -0.18968297721E+03  0.11322795768E+04  0.89968734140E+03 0.  0.
         23    2    4    4    0    0  0.94584010235E+02 -0.29371985345E+03 -0.46400488484E+03  0.56433667953E+03  0.89206879788E+02 0.  0.
         23    2    4    4    0    0 -0.38757654580E+03 -0.29856003819E+03  0.27432190762E+03  0.56794289728E+03  0.89179315497E+02 0.  0.
         11    1    3    3    0    0  0.26588928305E+03  0.57150230597E+03 -0.42415031814E+03  0.75974699009E+03  0.00000000000E+00 0.  1.
        -11    1    3    3    0    0  0.27103252511E+02  0.20777585666E+02 -0.40668210343E+02  0.53105533566E+02  0.00000000000E+00 0. -1.
          4    1    6    6  502    0 -0.16835333553E+03 -0.13414772899E+03  0.17162033894E+03  0.27530346804E+03  0.00000000000E+00 0.  1.
          4    1    5    5  503    0  0.98642880603E+02 -0.22695708783E+03 -0.31169161543E+03  0.39798442273E+03  0.00000000000E+00 0. -1.
         -4    1    5    5    0  503 -0.40588703682E+01 -0.66762765628E+02 -0.15231326941E+03  0.16635225680E+03  0.00000000000E+00 0.  1.
         -4    1    6    6    0  502 -0.21922321027E+03 -0.16441230920E+03  0.10270156869E+03  0.29263942924E+03  0.00000000000E+00 0. -1.
<mgrwt>
<rscale>  0 0.18317114E+04</rscale>
<asrwt>0</asrwt>
<pdfrwt beam="1">  1        1 0.19997182E+00 0.18317114E+04</pdfrwt>
<pdfrwt beam="2">  1       -1 0.99279276E-01 0.18317114E+04</pdfrwt>
<totfact> 0.82516797E+00</totfact>
</mgrwt>
</event>
<event>
12    1  0.4802930E-008  0.1585587E+04  0.7818608E-02  0.8829452E-01
          1   -1    0    0  501    0  0.00000000000E+00  0.00000000000E+00  0.20929838842E+04  0.20929838842E+04  0.00000000000E+00 0. -1.
         -1   -1    0    0    0  501 -0.00000000000E+00 -0.00000000000E+00 -0.30029921320E+03  0.30029921320E+03  0.00000000000E+00 0.  1.
         23    2    1    2    0    0  0.95541655638E+02 -0.25981571352E+03 -0.75359743988E+02  0.30102435503E+03  0.91127154882E+02 0.  0.
        254    2    1    2    0    0 -0.95541655638E+02  0.25981571352E+03  0.18680444150E+04  0.20922587424E+04  0.90073541936E+03 0.  0.
         23    2    4    4    0    0 -0.47189842190E+03  0.19577004844E+03  0.13163784438E+04  0.14147919154E+04  0.88147173332E+02 0.  0.
         23    2    4    4    0    0  0.37635676627E+03  0.64045665079E+02  0.55166597123E+03  0.67746682699E+03  0.94232134263E+02 0.  0.
         13    1    3    3    0    0  0.50059758371E+02 -0.17377539026E+03 -0.49617277294E+01  0.18091015563E+03  0.00000000000E+00 0. -1.
        -13    1    3    3    0    0  0.45481897267E+02 -0.86040323259E+02 -0.70398016259E+02  0.12011419941E+03  0.00000000000E+00 0.  1.
          2    1    6    6  502    0  0.30036250557E+03  0.85437627247E+02  0.41120932034E+03  0.51634322697E+03  0.00000000000E+00 0. -1.
          2    1    5    5  503    0 -0.37542357443E+03  0.19228163777E+03  0.10821826048E+04  0.11614793491E+04  0.00000000000E+00 0.  1.
         -2    1    5    5    0  503 -0.96474847476E+02  0.34884106696E+01  0.23419583904E+03  0.25331256627E+03  0.00000000000E+00 0. -1.
         -2    1    6    6    0  502  0.75994260694E+02 -0.21391962168E+02  0.14045665089E+03  0.16112360002E+03  0.00000000000E+00 0.  1.
<mgrwt>
<rscale>  0 0.15855868E+04</rscale>
<asrwt>0</asrwt>
<pdfrwt beam="1">  1        1 0.32199751E+00 0.15855868E+04</pdfrwt>
<pdfrwt beam="2">  1       -1 0.46199880E-01 0.15855868E+04</pdfrwt>
<totfact> 0.11546565E+01</totfact>
</mgrwt>
</event>
<event>
12    1  0.4802930E-008  0.1257927E+04  0.7818608E-02  0.9063611E-01
          2   -1    0    0  501    0  0.00000000000E+00  0.00000000000E+00  0.10383379366E+04  0.10383379366E+04  0.00000000000E+00 0.  1.
         -2   -1    0    0    0  501 -0.00000000000E+00 -0.00000000000E+00 -0.38098866575E+03  0.38098866575E+03  0.00000000000E+00 0. -1.
         23    2    1    2    0    0  0.57914490393E+02 -0.61714570382E+01  0.49775414760E+03  0.50950265564E+03  0.91878123504E+02 0.  0.
        254    2    1    2    0    0 -0.57914490393E+02  0.61714570382E+01  0.15959512321E+03  0.90982394667E+03  0.89382147854E+03 0.  0.
         23    2    4    4    0    0 -0.25379485302E+03 -0.35698258172E+03 -0.27057467683E+02  0.44841950519E+03  0.92193031221E+02 0.  0.
         23    2    4    4    0    0  0.19588036263E+03  0.36315403876E+03  0.18665259089E+03  0.46140444148E+03  0.88345325829E+02 0.  0.
         11    1    3    3    0    0  0.49535834835E+02  0.24874624435E+02  0.14416330708E+03  0.15445259785E+03  0.00000000000E+00 0. -1.
        -11    1    3    3    0    0  0.83786555586E+01 -0.31046081474E+02  0.35359084051E+03  0.35505005779E+03  0.00000000000E+00 0.  1.
          4    1    5    5  502    0 -0.76715103327E+02 -0.11407472620E+03 -0.51557122868E+02  0.14682093568E+03  0.00000000000E+00 0. -1.
          1    1    6    6  503    0  0.70747091380E+02  0.91028267171E+02  0.91344106443E+02  0.14708855205E+03  0.00000000000E+00 0. -1.
         -4    1    5    5    0  502 -0.17707974969E+03 -0.24290785553E+03  0.24499655184E+02  0.30159856951E+03  0.00000000000E+00 0.  1.
         -1    1    6    6    0  503  0.12513327125E+03  0.27212577159E+03  0.95308484448E+02  0.31431588942E+03  0.00000000000E+00 0.  1.
<mgrwt>
<rscale>  0 0.12579268E+04</rscale>
<asrwt>0</asrwt>
<pdfrwt beam="1">  1        2 0.15974430E+00 0.12579268E+04</pdfrwt>
<pdfrwt beam="2">  1       -2 0.58613641E-01 0.12579268E+04</pdfrwt>
<totfact> 0.63685244E+01</totfact>
</mgrwt>
</event>
<event>
12    1  0.4802930E-008  0.2179918E+04  0.7818608E-02  0.8526833E-01
         -1   -1    0    0    0  501 -0.00000000000E+00  0.00000000000E+00  0.53520238432E+03  0.53520238432E+03  0.00000000000E+00 0.  1.
          1   -1    0    0  501    0  0.00000000000E+00 -0.00000000000E+00 -0.22197413114E+04  0.22197413114E+04  0.00000000000E+00 0. -1.
         23    2    1    2    0    0 -0.23928204111E+02 -0.70572290987E+02 -0.18331911060E+04  0.18369912291E+04  0.91619524203E+02 0.  0.
        254    2    1    2    0    0  0.23928204111E+02  0.70572290987E+02  0.14865217891E+03  0.91795246671E+03  0.90276589082E+03 0.  0.
         23    2    4    4    0    0 -0.26449926633E+03  0.23837864252E+03 -0.20866333504E+03  0.42076649463E+03  0.81974486982E+02 0.  0.
         23    2    4    4    0    0  0.28842747045E+03 -0.16780635153E+03  0.35731551395E+03  0.49718597207E+03  0.90388810142E+02 0.  0.
         13    1    3    3    0    0  0.30319560369E+02 -0.34211827495E+02 -0.10825087660E+04  0.10834735591E+04  0.00000000000E+00 0. -1.
        -13    1    3    3    0    0 -0.54247764480E+02 -0.36360463492E+02 -0.75068234004E+03  0.75351766993E+03  0.00000000000E+00 0.  1.
          2    1    6    6  502    0  0.17770471533E+03 -0.52654843238E+02  0.20677753104E+03  0.27768407536E+03  0.00000000000E+00 0.  1.
          2    1    5    5  503    0 -0.44201165978E+01  0.16802101066E+02  0.46386471120E+01  0.17982354629E+02  0.00000000000E+00 0. -1.
         -2    1    5    5    0  503 -0.26007914974E+03  0.22157654145E+03 -0.21330198215E+03  0.40278414000E+03  0.00000000000E+00 0.  1.
         -2    1    6    6    0  502  0.11072275511E+03 -0.11515150829E+03  0.15053798291E+03  0.21950189671E+03  0.00000000000E+00 0. -1.
<mgrwt>
<rscale>  0 0.21799182E+04</rscale>
<asrwt>0</asrwt>
<pdfrwt beam="1">  1        1 0.34149867E+00 0.21799182E+04</pdfrwt>
<pdfrwt beam="2">  1       -1 0.82338828E-01 0.21799182E+04</pdfrwt>
<totfact> 0.28284389E+00</totfact>
</mgrwt>
</event>
<event>
12    1  0.4802930E-008  0.1515398E+04  0.7818608E-02  0.8874278E-01
          1   -1    0    0  501    0  0.00000000000E+00  0.00000000000E+00  0.28179663806E+04  0.28179663806E+04  0.00000000000E+00 0. -1.
         -1   -1    0    0    0  501 -0.00000000000E+00 -0.00000000000E+00 -0.20373118979E+03  0.20373118979E+03  0.00000000000E+00 0.  1.
         23    2    1    2    0    0  0.45430725396E+03 -0.56360873165E+02  0.11163771708E+04  0.12101716714E+04  0.92983104954E+02 0.  0.
        254    2    1    2    0    0 -0.45430725396E+03  0.56360873165E+02  0.14978580200E+04  0.18115258990E+04  0.91020646311E+03 0.  0.
         23    2    4    4    0    0 -0.61211579746E+03 -0.21671821904E+03  0.75846928555E+03  0.10026192260E+04  0.91198241242E+02 0.  0.
         23    2    4    4    0    0  0.15780854350E+03  0.27307909220E+03  0.73938873449E+03  0.80890667301E+03  0.90324846850E+02 0.  0.
         11    1    3    3    0    0  0.22048874814E+03 -0.83525247522E+01  0.42698994719E+03  0.48063028174E+03  0.00000000000E+00 0.  1.
        -11    1    3    3    0    0  0.23381850582E+03 -0.48008348412E+02  0.68938722358E+03  0.72954138965E+03  0.00000000000E+00 0. -1.
          2    1    5    5  502    0 -0.55645532565E+03 -0.22308217433E+03  0.68669643918E+03  0.91157017587E+03  0.00000000000E+00 0. -1.
          4    1    6    6  503    0 -0.35324738300E+01 -0.29909878000E+01  0.17584446173E+01  0.49514146313E+01  0.00000000000E+00 0.  1.
         -2    1    5    5    0  502 -0.55660471805E+02  0.63639552933E+01  0.71772846376E+02  0.91049050108E+02  0.00000000000E+00 0.  1.
         -4    1    6    6    0  503  0.16134101733E+03  0.27607008000E+03  0.73763028987E+03  0.80395525838E+03  0.00000000000E+00 0. -1.
<mgrwt>
<rscale>  0 0.15153978E+04</rscale>
<asrwt>0</asrwt>
<pdfrwt beam="1">  1        1 0.43353326E+00 0.15153978E+04</pdfrwt>
<pdfrwt beam="2">  1       -1 0.31343262E-01 0.15153978E+04</pdfrwt>
<totfact> 0.74175542E+00</totfact>
</mgrwt>
</event>
<event>
12    1  0.4802930E-008  0.1389449E+04  0.7818608E-02  0.8961492E-01
          2   -1    0    0  501    0  0.00000000000E+00  0.00000000000E+00  0.13365295251E+04  0.13365295251E+04  0.00000000000E+00 0. -1.
         -2   -1    0    0    0  501 -0.00000000000E+00 -0.00000000000E+00 -0.36111584558E+03  0.36111584558E+03  0.00000000000E+00 0.  1.
         23    2    1    2    0    0 -0.10334031376E+02 -0.32158346150E+03  0.19876347135E+02  0.33508683963E+03  0.91462593448E+02 0.  0.
        254    2    1    2    0    0  0.10334031376E+02  0.32158346150E+03  0.95553733242E+03  0.13625585311E+04  0.91651047024E+03 0.  0.
         23    2    4    4    0    0 -0.12815408860E+03 -0.12671243397E+03  0.84715627098E+03  0.87124786787E+03  0.94443572951E+02 0.  0.
         23    2    4    4    0    0  0.13848811997E+03  0.44829589547E+03  0.10838106145E+03  0.49131066321E+03  0.97424555618E+02 0.  0.
         13    1    3    3    0    0  0.17464621424E+02 -0.29226885360E+03  0.27118750960E+02  0.29404340231E+03  0.00000000000E+00 0.  1.
        -13    1    3    3    0    0 -0.27798652800E+02 -0.29314607898E+02 -0.72424038250E+01  0.41043437318E+02  0.00000000000E+00 0. -1.
          4    1    5    5  502    0 -0.13919877189E+03 -0.98247783917E+02  0.66104891269E+03  0.68265261306E+03  0.00000000000E+00 0.  1.
          1    1    6    6  503    0  0.85971472657E+01  0.64399871829E+00  0.12900612190E+02  0.15516168030E+02  0.00000000000E+00 0. -1.
         -4    1    5    5    0  502  0.11044683296E+02 -0.28464650051E+02  0.18610735829E+03  0.18859525482E+03  0.00000000000E+00 0. -1.
         -1    1    6    6    0  503  0.12989097271E+03  0.44765189675E+03  0.95480449256E+02  0.47579449518E+03  0.00000000000E+00 0.  1.
<mgrwt>
<rscale>  0 0.13894488E+04</rscale>
<asrwt>0</asrwt>
<pdfrwt beam="1">  1        2 0.20561992E+00 0.13894488E+04</pdfrwt>
<pdfrwt beam="2">  1       -2 0.55556285E-01 0.13894488E+04</pdfrwt>
<totfact> 0.46675307E+01</totfact>
</mgrwt>
</event>
<event>
12    1  0.4802930E-008  0.1321447E+04  0.7818608E-02  0.9012728E-01
          2   -1    0    0  501    0  0.00000000000E+00  0.00000000000E+00  0.67303405396E+03  0.67303405396E+03  0.00000000000E+00 0. -1.
         -2   -1    0    0    0  501 -0.00000000000E+00 -0.00000000000E+00 -0.64863787138E+03  0.64863787138E+03  0.00000000000E+00 0.  1.
         23    2    1    2    0    0 -0.18888483741E+03  0.22210075419E+02 -0.28154439009E+03  0.35247017039E+03  0.93793433497E+02 0.  0.
        254    2    1    2    0    0  0.18888483741E+03 -0.22210075419E+02  0.30594057267E+03  0.96920175496E+03  0.89976754696E+03 0.  0.
         23    2    4    4    0    0  0.33398045666E+03  0.35592302726E+03  0.23182341387E+03  0.54792748689E+03  0.90875128109E+02 0.  0.
         23    2    4    4    0    0 -0.14509561924E+03 -0.37813310268E+03  0.74117158800E+02  0.42127426807E+03  0.89113824113E+02 0.  0.
         11    1    3    3    0    0 -0.17991148449E+02  0.21432978470E+02 -0.66137257874E+01  0.28754049409E+02  0.00000000000E+00 0. -1.
        -11    1    3    3    0    0 -0.17089368897E+03  0.77709694828E+00 -0.27493066430E+03  0.32371612098E+03  0.00000000000E+00 0.  1.
          2    1    5    5  502    0  0.76543805089E+02  0.12692468458E+03  0.10108934371E+03  0.17940982433E+03  0.00000000000E+00 0. -1.
          4    1    6    6  503    0 -0.82195823346E+02 -0.17026439587E+03 -0.76335495178E+01  0.18922047710E+03  0.00000000000E+00 0. -1.
         -2    1    5    5    0  502  0.25743665157E+03  0.22899834267E+03  0.13073407016E+03  0.36851766256E+03  0.00000000000E+00 0.  1.
         -4    1    6    6    0  503 -0.62899795898E+02 -0.20786870680E+03  0.81750708318E+02  0.23205379097E+03  0.00000000000E+00 0.  1.
<mgrwt>
<rscale>  0 0.13214467E+04</rscale>
<asrwt>0</asrwt>
<pdfrwt beam="1">  1        2 0.10354370E+00 0.13214467E+04</pdfrwt>
<pdfrwt beam="2">  1       -2 0.99790441E-01 0.13214467E+04</pdfrwt>
<totfact> 0.34987900E+01</totfact>
</mgrwt>
</event>
<event>
12    1  0.4802930E-008  0.1505972E+04  0.7818608E-02  0.8880492E-01
          1   -1    0    0  501    0  0.00000000000E+00  0.00000000000E+00  0.33346273175E+04  0.33346273175E+04  0.00000000000E+00 0. -1.
         -1   -1    0    0    0  501 -0.00000000000E+00 -0.00000000000E+00 -0.17003029898E+03  0.17003029898E+03  0.00000000000E+00 0.  1.
         23    2    1    2    0    0  0.94470548943E+00 -0.45011208508E+03  0.70651755443E+03  0.84233391508E+03  0.88077171710E+02 0.  0.
        254    2    1    2    0    0 -0.94470548943E+00  0.45011208508E+03  0.24580794641E+04  0.26623237014E+04  0.91826524360E+03 0.  0.
         23    2    4    4    0    0  0.77057073588E+02 -0.16396099909E+03  0.10673328141E+03  0.22908491703E+03  0.90922516665E+02 0.  0.
         23    2    4    4    0    0 -0.78001779078E+02  0.61407308418E+03  0.23513461826E+04  0.24332387843E+04  0.93016561268E+02 0.  0.
         11    1    3    3    0    0 -0.26999002282E+02 -0.15759796527E+03  0.19241080627E+03  0.25017590441E+03  0.00000000000E+00 0.  1.
        -11    1    3    3    0    0  0.27943707771E+02 -0.29251411982E+03  0.51410674816E+03  0.59215801067E+03  0.00000000000E+00 0. -1.
          2    1    5    5  502    0  0.49420107006E+02 -0.12337984788E+03  0.27271967963E+02  0.13567864267E+03  0.00000000000E+00 0. -1.
          3    1    6    6  503    0 -0.91411459774E+02  0.59595682652E+03  0.22829484668E+04  0.23612230509E+04  0.00000000000E+00 0. -1.
         -2    1    5    5    0  502  0.27636966582E+02 -0.40581151215E+02  0.79461313450E+02  0.93406274366E+02  0.00000000000E+00 0.  1.
         -3    1    6    6    0  503  0.13409680696E+02  0.18116257660E+02  0.68397715832E+02  0.72015733413E+02  0.00000000000E+00 0.  1.
<mgrwt>
<rscale>  0 0.15059717E+04</rscale>
<asrwt>0</asrwt>
<pdfrwt beam="1">  1        1 0.51301954E+00 0.15059717E+04</pdfrwt>
<pdfrwt beam="2">  1       -1 0.26158510E-01 0.15059717E+04</pdfrwt>
<totfact> 0.42494669E+00</totfact>
</mgrwt>
</event>
<event>
12    1  0.4802930E-008  0.1368795E+04  0.7818608E-02  0.8976721E-01
         -2   -1    0    0    0  501 -0.00000000000E+00  0.00000000000E+00  0.75963153787E+03  0.75963153787E+03  0.00000000000E+00 0.  1.
          2   -1    0    0  501    0  0.00000000000E+00 -0.00000000000E+00 -0.61661485722E+03  0.61661485722E+03  0.00000000000E+00 0. -1.
         23    2    1    2    0    0  0.25315711279E+03  0.40566887148E+02  0.32365832118E+03  0.42270099835E+03  0.90483308148E+02 0.  0.
        254    2    1    2    0    0 -0.25315711279E+03 -0.40566887148E+02 -0.18064164052E+03  0.95354539673E+03  0.90049054701E+03 0.  0.
         23    2    4    4    0    0 -0.21848917808E+03  0.38003691168E+03  0.68400659899E+02  0.45432767796E+03  0.97823379159E+02 0.  0.
         23    2    4    4    0    0 -0.34667934713E+02 -0.42060379883E+03 -0.24904230042E+03  0.49921771877E+03  0.95324928825E+02 0.  0.
         13    1    3    3    0    0  0.25096888897E+03  0.21257311318E+02  0.29269530068E+03  0.38614478574E+03  0.00000000000E+00 0.  1.
        -13    1    3    3    0    0  0.21882238188E+01  0.19309575830E+02  0.30963020496E+02  0.36556212611E+02  0.00000000000E+00 0. -1.
          3    1    5    5  502    0 -0.12149673274E+03  0.12835310082E+03  0.51430244204E+02  0.18406804333E+03  0.00000000000E+00 0. -1.
          3    1    6    6  503    0 -0.21344966961E+02 -0.24272767260E+03 -0.19719316272E+03  0.31346048249E+03  0.00000000000E+00 0. -1.
         -3    1    5    5    0  502 -0.96992445342E+02  0.25168381086E+03  0.16970415695E+02  0.27025963463E+03  0.00000000000E+00 0.  1.
         -3    1    6    6    0  503 -0.13322967752E+02 -0.17787612622E+03 -0.51849137697E+02  0.18575723628E+03  0.00000000000E+00 0.  1.
<mgrwt>
<rscale>  0 0.13687952E+04</rscale>
<asrwt>0</asrwt>
<pdfrwt beam="1">  1        2 0.94863825E-01 0.13687952E+04</pdfrwt>
<pdfrwt beam="2">  1       -2 0.11686639E+00 0.13687952E+04</pdfrwt>
<totfact> 0.26525244E+01</totfact>
</mgrwt>
</event>
<event>
12    1  0.4802930E-008  0.1434321E+04  0.7818608E-02  0.8929343E-01
          1   -1    0    0  501    0  0.00000000000E+00  0.00000000000E+00  0.11266492749E+04  0.11266492749E+04  0.00000000000E+00 0. -1.
         -1   -1    0    0    0  501 -0.00000000000E+00 -0.00000000000E+00 -0.45650343958E+03  0.45650343958E+03  0.00000000000E+00 0.  1.
         23    2    1    2    0    0 -0.13337160997E+03  0.41298730839E+03  0.22174657016E+03  0.49165764289E+03  0.64878295292E+02 0.  0.
        254    2    1    2    0    0  0.13337160997E+03 -0.41298730839E+03  0.44839926521E+03  0.10914950716E+04  0.89551833434E+03 0.  0.
         23    2    4    4    0    0  0.23369356284E+03 -0.66267491233E+03  0.35786811535E+03  0.79385089998E+03  0.91536564656E+02 0.  0.
         23    2    4    4    0    0 -0.10032195287E+03  0.24968760395E+03  0.90531149862E+02  0.29764417166E+03  0.89374325377E+02 0.  0.
         11    1    3    3    0    0 -0.11697283729E+03  0.39826625850E+03  0.21937503032E+03  0.46949340917E+03  0.00000000000E+00 0. -1.
        -11    1    3    3    0    0 -0.16398772681E+02  0.14721049882E+02  0.23715398343E+01  0.22164233717E+02  0.00000000000E+00 0.  1.
          2    1    5    5  502    0 -0.64911556566E+01 -0.68875665024E+01  0.94562732944E+01  0.13378893030E+02  0.00000000000E+00 0.  1.
          4    1    6    6  503    0 -0.86475963987E+02  0.24817099770E+03  0.68512196205E+02  0.27158950178E+03  0.00000000000E+00 0. -1.
         -2    1    5    5    0  502  0.24018471849E+03 -0.65578734583E+03  0.34841184205E+03  0.78047200695E+03  0.00000000000E+00 0. -1.
         -4    1    6    6    0  503 -0.13845988879E+02  0.15166062465E+01  0.22018953657E+02  0.26054669883E+02  0.00000000000E+00 0.  1.
<mgrwt>
<rscale>  0 0.14343211E+04</rscale>
<asrwt>0</asrwt>
<pdfrwt beam="1">  1        1 0.17333066E+00 0.14343211E+04</pdfrwt>
<pdfrwt beam="2">  1       -1 0.70231299E-01 0.14343211E+04</pdfrwt>
<totfact> 0.24130527E+01</totfact>
</mgrwt>
</event>
<event>
12    1  0.4802930E-008  0.1160638E+04  0.7818608E-02  0.9148025E-01
          1   -1    0    0  501    0  0.00000000000E+00  0.00000000000E+00  0.60213167422E+03  0.60213167422E+03  0.00000000000E+00 0. -1.
         -1   -1    0    0    0  501 -0.00000000000E+00 -0.00000000000E+00 -0.55929641523E+03  0.55929641523E+03  0.00000000000E+00 0.  1.
         23    2    1    2    0    0  0.76282152291E+01 -0.19032806535E+03 -0.80709332904E+02  0.22638008584E+03  0.91929237573E+02 0.  0.
        254    2    1    2    0    0 -0.76282152291E+01  0.19032806535E+03  0.12354459190E+03  0.93504800361E+03  0.90706589658E+03 0.  0.
         23    2    4    4    0    0  0.33623453477E+03  0.34860441874E+03  0.21098131664E+03  0.53664457551E+03  0.94316389450E+02 0.  0.
         23    2    4    4    0    0 -0.34386275000E+03 -0.15827635339E+03 -0.87436724737E+02  0.39840342810E+03  0.88244636122E+02 0.  0.
         13    1    3    3    0    0  0.38258693944E+02 -0.76060083623E+02 -0.64838310919E+02  0.10701808513E+03  0.00000000000E+00 0.  1.
        -13    1    3    3    0    0 -0.30630478715E+02 -0.11426798172E+03 -0.15871021985E+02  0.11936200070E+03  0.00000000000E+00 0. -1.
          2    1    5    5  502    0  0.14191131948E+03  0.21083668191E+03  0.12661750931E+03  0.28394175935E+03  0.00000000000E+00 0. -1.
          1    1    6    6  503    0 -0.19401190881E+03 -0.44303790059E+02 -0.27942432212E+02  0.20095826953E+03  0.00000000000E+00 0. -1.
         -2    1    5    5    0  502  0.19432321529E+03  0.13776773683E+03  0.84363807323E+02  0.25270281617E+03  0.00000000000E+00 0.  1.
         -1    1    6    6    0  503 -0.14985084119E+03 -0.11397256334E+03 -0.59494292525E+02  0.19744515857E+03  0.00000000000E+00 0.  1.
<mgrwt>
<rscale>  0 0.11606379E+04</rscale>
<asrwt>0</asrwt>
<pdfrwt beam="1">  1        1 0.92635642E-01 0.11606379E+04</pdfrwt>
<pdfrwt beam="2">  1       -1 0.86045602E-01 0.11606379E+04</pdfrwt>
<totfact> 0.45106684E+01</totfact>
</mgrwt>
</event>
<event>
12    1  0.4802930E-008  0.1846918E+04  0.7818608E-02  0.8681740E-01
         -1   -1    0    0    0  501 -0.00000000000E+00  0.00000000000E+00  0.67463483199E+03  0.67463483199E+03  0.00000000000E+00 0.  1.
          1   -1    0    0  501    0  0.00000000000E+00 -0.00000000000E+00 -0.12640560820E+04  0.12640560820E+04  0.00000000000E+00 0. -1.
         23    2    1    2    0    0  0.95068016824E+02 -0.45991389360E+02  0.50135995027E+03  0.52057577991E+03  0.92109756146E+02 0.  0.
        254    2    1    2    0    0 -0.95068016824E+02  0.45991389360E+02 -0.10907812003E+04  0.14181151341E+04  0.90005209344E+03 0.  0.
         23    2    4    4    0    0 -0.81338339337E+02  0.20550655991E+03 -0.11864867172E+04  0.12103647388E+04  0.91559811896E+02 0.  0.
         23    2    4    4    0    0 -0.13729677487E+02 -0.15951517055E+03  0.95705516930E+02  0.20775039530E+03  0.91471783058E+02 0.  0.
         13    1    3    3    0    0  0.23201890355E+02 -0.21511958464E+02  0.34816909887E+03  0.34960379500E+03  0.00000000000E+00 0.  1.
        -13    1    3    3    0    0  0.71866126469E+02 -0.24479430896E+02  0.15319085140E+03  0.17097198491E+03  0.00000000000E+00 0. -1.
          3    1    5    5  502    0 -0.27818809430E+02  0.16936484323E+03 -0.94106105369E+03  0.95658467637E+03  0.00000000000E+00 0. -1.
          3    1    6    6  503    0 -0.18962547620E+02 -0.10550463953E+03  0.10794040532E+03  0.15212474577E+03  0.00000000000E+00 0. -1.
         -3    1    5    5    0  502 -0.53519529907E+02  0.36141716681E+02 -0.24542566350E+03  0.25378006240E+03  0.00000000000E+00 0.  1.
         -3    1    6    6    0  503  0.52328701327E+01 -0.54010531028E+02 -0.12234888394E+02  0.55625649531E+02  0.00000000000E+00 0.  1.
<mgrwt>
<rscale>  0 0.18469177E+04</rscale>
<asrwt>0</asrwt>
<pdfrwt beam="1">  1        1 0.19447017E+00 0.18469177E+04</pdfrwt>
<pdfrwt beam="2">  1       -1 0.10378997E+00 0.18469177E+04</pdfrwt>
<totfact> 0.78918818E+00</totfact>
</mgrwt>
</event>
<event>
12    1  0.4802930E-008  0.1606783E+04  0.7818608E-02  0.8816392E-01
          2   -1    0    0  501    0  0.00000000000E+00  0.00000000000E+00  0.26490089601E+04  0.26490089601E+04  0.00000000000E+00 0. -1.
         -2   -1    0    0    0  501 -0.00000000000E+00 -0.00000000000E+00 -0.24365267341E+03  0.24365267341E+03  0.00000000000E+00 0.  1.
         23    2    1    2    0    0  0.40637479004E+03 -0.35377889220E+03  0.98588964300E+03  0.11272506916E+04  0.91737445864E+02 0.  0.
        254    2    1    2    0    0 -0.40637479004E+03  0.35377889220E+03  0.14194666437E+04  0.17654109419E+04  0.90082754552E+03 0.  0.
         23    2    4    4    0    0 -0.66913738554E+03  0.28418156345E+03  0.11904922138E+04  0.13979648190E+04  0.92357577801E+02 0.  0.
         23    2    4    4    0    0  0.26276259550E+03  0.69597328752E+02  0.22897442989E+03  0.36744612297E+03  0.93270541857E+02 0.  0.
         11    1    3    3    0    0  0.35469989679E+03 -0.33151520191E+03  0.92273266972E+03  0.10426648194E+04  0.00000000000E+00 0. -1.
        -11    1    3    3    0    0  0.51674893251E+02 -0.22263690291E+02  0.63156973278E+02  0.84585872174E+02  0.00000000000E+00 0.  1.
          2    1    5    5  502    0 -0.34729293183E+03  0.14525867170E+03  0.52816646862E+03  0.64859253833E+03  0.00000000000E+00 0.  1.
          4    1    6    6  503    0  0.16373822548E+02  0.14874289213E+02 -0.56635977415E+01  0.22834685980E+02  0.00000000000E+00 0. -1.
         -2    1    5    5    0  502 -0.32184445371E+03  0.13892289175E+03  0.66232574519E+03  0.74937228063E+03  0.00000000000E+00 0. -1.
         -4    1    6    6    0  503  0.24638877295E+03  0.54723039540E+02  0.23463802763E+03  0.34461143699E+03  0.00000000000E+00 0.  1.
<mgrwt>
<rscale>  0 0.16067833E+04</rscale>
<asrwt>0</asrwt>
<pdfrwt beam="1">  1        2 0.40753982E+00 0.16067833E+04</pdfrwt>
<pdfrwt beam="2">  1       -2 0.37485028E-01 0.16067833E+04</pdfrwt>
<totfact> 0.18373443E+01</totfact>
</mgrwt>
</event>
<event>
12    1  0.4802930E-008  0.1589895E+04  0.7818608E-02  0.8826780E-01
          2   -1    0    0  501    0  0.00000000000E+00  0.00000000000E+00  0.27393913834E+04  0.27393913834E+04  0.00000000000E+00 0. -1.
         -2   -1    0    0    0  501 -0.00000000000E+00 -0.00000000000E+00 -0.23068697384E+03  0.23068697384E+03  0.00000000000E+00 0.  1.
         23    2    1    2    0    0 -0.34842015282E+03 -0.34135722262E+03  0.67125023648E+03  0.83488101119E+03  0.92347531337E+02 0.  0.
        254    2    1    2    0    0  0.34842015282E+03  0.34135722262E+03  0.18374541731E+04  0.21351973460E+04  0.97206404731E+03 0.  0.
         23    2    4    4    0    0  0.42384016206E+02  0.60612957196E+03  0.14140324799E+04  0.15417862017E+04  0.91800734629E+02 0.  0.
         23    2    4    4    0    0  0.30603613661E+03 -0.26477234934E+03  0.42342169317E+03  0.59341114428E+03  0.95332796154E+02 0.  0.
         11    1    3    3    0    0 -0.44570242736E+02 -0.11120945393E+02  0.43809561441E+02  0.63478024840E+02  0.00000000000E+00 0.  1.
        -11    1    3    3    0    0 -0.30384991008E+03 -0.33023627722E+03  0.62744067504E+03  0.77140298635E+03  0.00000000000E+00 0. -1.
          4    1    5    5  502    0 -0.15448115631E+02  0.40279536296E+03  0.92239378977E+03  0.10066245835E+04  0.00000000000E+00 0.  1.
          3    1    6    6  503    0  0.30054203935E+02 -0.17958838768E+02  0.61287019865E+01  0.35543438946E+02  0.00000000000E+00 0. -1.
         -4    1    5    5    0  502  0.57832131837E+02  0.20333420900E+03  0.49163869012E+03  0.53516161825E+03  0.00000000000E+00 0. -1.
         -3    1    6    6    0  503  0.27598193268E+03 -0.24681351058E+03  0.41729299118E+03  0.55786770534E+03  0.00000000000E+00 0.  1.
<mgrwt>
<rscale>  0 0.15898955E+04</rscale>
<asrwt>0</asrwt>
<pdfrwt beam="1">  1        2 0.42144480E+00 0.15898955E+04</pdfrwt>
<pdfrwt beam="2">  1       -2 0.35490306E-01 0.15898955E+04</pdfrwt>
<totfact> 0.18074385E+01</totfact>
</mgrwt>
</event>
<event>
12    1  0.4802930E-008  0.9939285E+03  0.7818608E-02  0.9315229E-01
          2   -1    0    0  501    0  0.00000000000E+00  0.00000000000E+00  0.92838472892E+03  0.92838472892E+03  0.00000000000E+00 0. -1.
         -2   -1    0    0    0  501 -0.00000000000E+00 -0.00000000000E+00 -0.26602491019E+03  0.26602491019E+03  0.00000000000E+00 0.  1.
         23    2    1    2    0    0 -0.17193255099E+03 -0.73422872503E+02  0.27988291327E+03  0.34881250619E+03  0.91564179910E+02 0.  0.
        254    2    1    2    0    0  0.17193255099E+03  0.73422872503E+02  0.38247690546E+03  0.84559713292E+03  0.73061221431E+03 0.  0.
         23    2    4    4    0    0  0.42854127779E+03  0.79899288399E+01  0.10262192923E+03  0.45014290569E+03  0.91574611421E+02 0.  0.
         23    2    4    4    0    0 -0.25660872680E+03  0.65432943664E+02  0.27985497623E+03  0.39545422722E+03  0.89082710558E+02 0.  0.
         13    1    3    3    0    0 -0.42014227090E+02  0.16915406868E+02  0.96469233349E+02  0.10657222551E+03  0.00000000000E+00 0. -1.
        -13    1    3    3    0    0 -0.12991832390E+03 -0.90338279371E+02  0.18341367992E+03  0.24224028068E+03  0.00000000000E+00 0.  1.
          2    1    5    5  502    0  0.27709745497E+03  0.38279847458E+01  0.11072507168E+03  0.29842535837E+03  0.00000000000E+00 0.  1.
          1    1    6    6  503    0 -0.18314288506E+03  0.85735520999E+02  0.18815928183E+03  0.27621696408E+03  0.00000000000E+00 0.  1.
         -2    1    5    5    0  502  0.15144382282E+03  0.41619440941E+01 -0.81031424589E+01  0.15171754733E+03  0.00000000000E+00 0. -1.
         -1    1    6    6    0  503 -0.73465841742E+02 -0.20302577335E+02  0.91695694401E+02  0.11923726314E+03  0.00000000000E+00 0. -1.
<mgrwt>
<rscale>  0 0.99392850E+03</rscale>
<asrwt>0</asrwt>
<pdfrwt beam="1">  1        2 0.14282842E+00 0.99392850E+03</pdfrwt>
<pdfrwt beam="2">  1       -2 0.40926910E-01 0.99392850E+03</pdfrwt>
<totfact> 0.15832822E+02</totfact>
</mgrwt>
</event>
<event>
12    1  0.4802930E-008  0.1386440E+04  0.7818608E-02  0.8963693E-01
          2   -1    0    0  501    0  0.00000000000E+00  0.00000000000E+00  0.12346862218E+04  0.12346862218E+04  0.00000000000E+00 0. -1.
         -2   -1    0    0    0  501 -0.00000000000E+00 -0.00000000000E+00 -0.38921153430E+03  0.38921153430E+03  0.00000000000E+00 0.  1.
         23    2    1    2    0    0 -0.95304754190E+02 -0.31451232106E+03 -0.67938437109E+01  0.34128061247E+03  0.91789453997E+02 0.  0.
        254    2    1    2    0    0  0.95304754190E+02  0.31451232106E+03  0.85226853124E+03  0.12826171437E+04  0.90041328933E+03 0.  0.
         23    2    4    4    0    0  0.15883113772E+03  0.10142380013E+03  0.98642106706E+03  0.10077738335E+04  0.84068189188E+02 0.  0.
         23    2    4    4    0    0 -0.63526383533E+02  0.21308852093E+03 -0.13415253581E+03  0.27484331015E+03  0.89997906158E+02 0.  0.
         13    1    3    3    0    0 -0.27461541254E+02 -0.12394584431E+02  0.83636305118E+01  0.31268391174E+02  0.00000000000E+00 0. -1.
        -13    1    3    3    0    0 -0.67843212935E+02 -0.30211773663E+03 -0.15157474223E+02  0.31001222130E+03  0.00000000000E+00 0.  1.
          2    1    5    5  502    0  0.54761795447E+02  0.47559516465E+02  0.20155784646E+03  0.21421094117E+03  0.00000000000E+00 0. -1.
          2    1    6    6  503    0 -0.38001501788E+02  0.10739236022E+03 -0.11954667812E+03  0.16513219378E+03  0.00000000000E+00 0.  1.
         -2    1    5    5    0  502  0.10406934227E+03  0.53864283666E+02  0.78486322060E+03  0.79356289235E+03  0.00000000000E+00 0.  1.
         -2    1    6    6    0  503 -0.25524881745E+02  0.10569616071E+03 -0.14605857691E+02  0.10971111637E+03  0.00000000000E+00 0. -1.
<mgrwt>
<rscale>  0 0.13864402E+04</rscale>
<asrwt>0</asrwt>
<pdfrwt beam="1">  1        2 0.18995172E+00 0.13864402E+04</pdfrwt>
<pdfrwt beam="2">  1       -2 0.59878698E-01 0.13864402E+04</pdfrwt>
<totfact> 0.45765989E+01</totfact>
</mgrwt>
</event>
<event>
12    1  0.4802930E-008  0.2780325E+04  0.7818608E-02  0.8309403E-01
         -2   -1    0    0    0  501 -0.00000000000E+00  0.00000000000E+00  0.17329426221E+04  0.17329426221E+04  0.00000000000E+00 0. -1.
          2   -1    0    0  501    0  0.00000000000E+00 -0.00000000000E+00 -0.11151849439E+04  0.11151849439E+04  0.00000000000E+00 0.  1.
         23    2    1    2    0    0  0.99427094628E+03 -0.52914542581E+03 -0.25031322284E+03  0.11572335650E+04  0.89236865391E+02 0.  0.
        254    2    1    2    0    0 -0.99427094628E+03  0.52914542581E+03  0.86807090100E+03  0.16908940010E+04  0.91488023114E+03 0.  0.
         23    2    4    4    0    0 -0.10985587575E+04  0.25388048198E+03  0.76732717529E+03  0.13668708419E+04  0.90874978114E+02 0.  0.
         23    2    4    4    0    0  0.10428781126E+03  0.27526494382E+03  0.10074372570E+03  0.32402315912E+03  0.90526087410E+02 0.  0.
         13    1    3    3    0    0  0.81870708972E+03 -0.39649567052E+03 -0.19457802105E+03  0.93024229197E+03  0.00000000000E+00 0. -1.
        -13    1    3    3    0    0  0.17556385656E+03 -0.13264975529E+03 -0.55735201784E+02  0.22699127302E+03  0.00000000000E+00 0.  1.
          2    1    5    5  502    0 -0.10650354837E+04  0.23094146844E+03  0.72989217519E+03  0.13116314768E+04  0.00000000000E+00 0. -1.
          1    1    6    6  503    0  0.85670767952E+02  0.27059441228E+03  0.10774120771E+03  0.30359345229E+03  0.00000000000E+00 0. -1.
         -2    1    5    5    0  502 -0.33523273796E+02  0.22939013539E+02  0.37435000102E+02  0.55239365138E+02  0.00000000000E+00 0.  1.
         -1    1    6    6    0  503  0.18617043308E+02  0.46705315465E+01 -0.69974820098E+01  0.20429706825E+02  0.00000000000E+00 0.  1.
<mgrwt>
<rscale>  0 0.27803248E+04</rscale>
<asrwt>0</asrwt>
<pdfrwt beam="1">  1        2 0.17156691E+00 0.27803248E+04</pdfrwt>
<pdfrwt beam="2">  1       -2 0.26660656E+00 0.27803248E+04</pdfrwt>
<totfact> 0.94468470E-01</totfact>
</mgrwt>
</event>
<event>
12    1  0.4802930E-008  0.2065167E+04  0.7818608E-02  0.8576745E-01
         -1   -1    0    0    0  501 -0.00000000000E+00  0.00000000000E+00  0.33422127332E+03  0.33422127332E+03  0.00000000000E+00 0.  1.
          1   -1    0    0  501    0  0.00000000000E+00 -0.00000000000E+00 -0.31901873659E+04  0.31901873659E+04  0.00000000000E+00 0. -1.
         23    2    1    2    0    0  0.40590885094E+03 -0.42379881663E+03 -0.14392739756E+03  0.61036917550E+03  0.86417604662E+02 0.  0.
        254    2    1    2    0    0 -0.40590885094E+03  0.42379881663E+03 -0.27120386950E+04  0.29140394637E+04  0.89000262951E+03 0.  0.
         23    2    4    4    0    0 -0.28854114767E+03  0.15475351609E+03 -0.22487937996E+03  0.40793174069E+03  0.92913534466E+02 0.  0.
         23    2    4    4    0    0 -0.11736770326E+03  0.26904530054E+03 -0.24871593150E+04  0.25061077230E+04  0.91945143424E+02 0.  0.
         11    1    3    3    0    0  0.41516679237E+02 -0.18821253293E+02  0.42856820681E+01  0.45784727816E+02  0.00000000000E+00 0. -1.
        -11    1    3    3    0    0  0.36439217170E+03 -0.40497756333E+03 -0.14821307963E+03  0.56458444769E+03  0.00000000000E+00 0.  1.
          3    1    6    6  502    0 -0.10612235492E+03  0.27146382170E+03 -0.22688113339E+04  0.22874569787E+04  0.00000000000E+00 0. -1.
          3    1    5    5  503    0 -0.18601513166E+03  0.14711626705E+03 -0.16561862415E+03  0.28926519649E+03  0.00000000000E+00 0. -1.
         -3    1    5    5    0  503 -0.10252601601E+03  0.76372490437E+01 -0.59260755815E+02  0.11866654420E+03  0.00000000000E+00 0.  1.
         -3    1    6    6    0  502 -0.11245348339E+02 -0.24185211611E+01 -0.21834798112E+03  0.21865074425E+03  0.00000000000E+00 0.  1.
<mgrwt>
<rscale>  0 0.20651668E+04</rscale>
<asrwt>0</asrwt>
<pdfrwt beam="1">  1        1 0.49079804E+00 0.20651668E+04</pdfrwt>
<pdfrwt beam="2">  1       -1 0.51418659E-01 0.20651668E+04</pdfrwt>
<totfact> 0.15208972E+00</totfact>
</mgrwt>
</event>
<event>
12    1  0.4802930E-008  0.1336633E+04  0.7818608E-02  0.9001009E-01
          2   -1    0    0  501    0  0.00000000000E+00  0.00000000000E+00  0.11955301559E+04  0.11955301559E+04  0.00000000000E+00 0. -1.
         -2   -1    0    0    0  501 -0.00000000000E+00 -0.00000000000E+00 -0.37359729259E+03  0.37359729259E+03  0.00000000000E+00 0.  1.
         23    2    1    2    0    0 -0.35125231170E+03 -0.43275489303E+02  0.29058055289E+03  0.46750516009E+03  0.94196934914E+02 0.  0.
        254    2    1    2    0    0  0.35125231170E+03  0.43275489303E+02  0.53135231041E+03  0.11016222884E+04  0.89776691521E+03 0.  0.
         23    2    4    4    0    0  0.37969712177E+03 -0.20405252702E+03 -0.69104297428E+02  0.44544827675E+03  0.88551822507E+02 0.  0.
         23    2    4    4    0    0 -0.28444810070E+02  0.24732801633E+03  0.60045660784E+03  0.65617401164E+03  0.89643409000E+02 0.  0.
         11    1    3    3    0    0 -0.19455711353E+03 -0.33153369653E+02  0.10216377129E+03  0.22223647880E+03  0.00000000000E+00 0. -1.
        -11    1    3    3    0    0 -0.15669519817E+03 -0.10122119650E+02  0.18841678160E+03  0.24526868129E+03  0.00000000000E+00 0.  1.
          1    1    6    6  502    0  0.16985742411E+01  0.68508291245E+02  0.27700424289E+03  0.28535525525E+03  0.00000000000E+00 0. -1.
          1    1    5    5  503    0  0.80520470608E+02 -0.83130971078E+02 -0.35274394695E+02  0.12099003042E+03  0.00000000000E+00 0. -1.
         -1    1    5    5    0  503  0.29917665116E+03 -0.12092155595E+03 -0.33829902734E+02  0.32445824633E+03  0.00000000000E+00 0.  1.
         -1    1    6    6    0  502 -0.30143384311E+02  0.17881972508E+03  0.32345236495E+03  0.37081875639E+03  0.00000000000E+00 0.  1.
<mgrwt>
<rscale>  0 0.13366328E+04</rscale>
<asrwt>0</asrwt>
<pdfrwt beam="1">  1        2 0.18392771E+00 0.13366328E+04</pdfrwt>
<pdfrwt beam="2">  1       -2 0.57476507E-01 0.13366328E+04</pdfrwt>
<totfact> 0.52830046E+01</totfact>
</mgrwt>
</event>
<event>
12    1  0.4802930E-008  0.3132093E+04  0.7818608E-02  0.8206985E-01
          1   -1    0    0  501    0  0.00000000000E+00  0.00000000000E+00  0.21860079739E+04  0.21860079739E+04  0.00000000000E+00 0.  1.
         -1   -1    0    0    0  501 -0.00000000000E+00 -0.00000000000E+00 -0.11219087602E+04  0.11219087602E+04  0.00000000000E+00 0. -1.
         23    2    1    2    0    0  0.42997023434E+03 -0.50619170495E+03 -0.85309670022E+03  0.10849998264E+04  0.91357532688E+02 0.  0.
        254    2    1    2    0    0 -0.42997023434E+03  0.50619170495E+03  0.19171959140E+04  0.22229169077E+04  0.90808312474E+03 0.  0.
         23    2    4    4    0    0  0.10496668337E+02 -0.21119167033E+03  0.18697320246E+03  0.29663682746E+03  0.91226790505E+02 0.  0.
         23    2    4    4    0    0 -0.44046690268E+03  0.71738337528E+03  0.17302227115E+04  0.19262800803E+04  0.90743135442E+02 0.  0.
         11    1    3    3    0    0  0.66936895503E+02 -0.13201104388E+03 -0.21460025455E+03  0.26069279419E+03  0.00000000000E+00 0.  1.
        -11    1    3    3    0    0  0.36303333884E+03 -0.37418066106E+03 -0.63849644566E+03  0.82430703221E+03  0.00000000000E+00 0. -1.
          1    1    5    5  502    0  0.24543732576E+02 -0.61878911834E+02  0.10870843878E+03  0.12747124852E+03  0.00000000000E+00 0. -1.
          3    1    6    6  503    0 -0.19874500352E+03  0.37282197890E+03  0.78167482749E+03  0.88854450665E+03  0.00000000000E+00 0. -1.
         -1    1    5    5    0  502 -0.14047064239E+02 -0.14931275850E+03  0.78264763678E+02  0.16916557894E+03  0.00000000000E+00 0.  1.
         -3    1    6    6    0  503 -0.24172189916E+03  0.34456139638E+03  0.94854788405E+03  0.10377355736E+04  0.00000000000E+00 0.  1.
<mgrwt>
<rscale>  0 0.31320929E+04</rscale>
<asrwt>0</asrwt>
<pdfrwt beam="1">  1        1 0.33630892E+00 0.31320929E+04</pdfrwt>
<pdfrwt beam="2">  1       -1 0.17260135E+00 0.31320929E+04</pdfrwt>
<totfact> 0.44127146E-01</totfact>
</mgrwt>
</event>
<event>
12    1  0.4802930E-008  0.1965317E+04  0.7818608E-02  0.8623010E-01
         -2   -1    0    0    0  501 -0.00000000000E+00  0.00000000000E+00  0.80312255877E+03  0.80312255877E+03  0.00000000000E+00 0.  1.
          2   -1    0    0  501    0  0.00000000000E+00 -0.00000000000E+00 -0.12023298183E+04  0.12023298183E+04  0.00000000000E+00 0. -1.
         23    2    1    2    0    0 -0.11311669292E+03  0.15108705275E+02  0.62125179410E+03  0.63851288645E+03  0.93387661382E+02 0.  0.
        254    2    1    2    0    0  0.11311669292E+03 -0.15108705275E+02 -0.10204590536E+04  0.13669394906E+04  0.90230994213E+03 0.  0.
         23    2    4    4    0    0  0.48591915265E+03 -0.80505303674E+02 -0.43162730751E+03  0.66131469381E+03  0.91850230402E+02 0.  0.
         23    2    4    4    0    0 -0.37280245973E+03  0.65396598398E+02 -0.58883174608E+03  0.70562479678E+03  0.89023252983E+02 0.  0.
         11    1    3    3    0    0 -0.15246798024E+02 -0.39461808811E+01  0.88865529419E+01  0.18083362981E+02  0.00000000000E+00 0. -1.
        -11    1    3    3    0    0 -0.97869894895E+02  0.19054886156E+02  0.61236524115E+03  0.62042952347E+03  0.00000000000E+00 0.  1.
          1    1    5    5  502    0  0.20666105470E+03  0.77570646120E+01 -0.20276472241E+03  0.28962475073E+03  0.00000000000E+00 0.  1.
          1    1    6    6  503    0 -0.33330326718E+03  0.82515098528E+02 -0.54531101101E+03  0.64440973621E+03  0.00000000000E+00 0. -1.
         -1    1    5    5    0  502  0.27925809795E+03 -0.88262368286E+02 -0.22886258510E+03  0.37168994308E+03  0.00000000000E+00 0. -1.
         -1    1    6    6    0  503 -0.39499192552E+02 -0.17118500130E+02 -0.43520735077E+02  0.61215060570E+02  0.00000000000E+00 0.  1.
<mgrwt>
<rscale>  0 0.19653175E+04</rscale>
<asrwt>0</asrwt>
<pdfrwt beam="1">  1        2 0.18497382E+00 0.19653175E+04</pdfrwt>
<pdfrwt beam="2">  1       -2 0.12355732E+00 0.19653175E+04</pdfrwt>
<totfact> 0.86846250E+00</totfact>
</mgrwt>
</event>
<event>
12    1  0.4802930E-008  0.1265259E+04  0.7818608E-02  0.9057578E-01
          2   -1    0    0  501    0  0.00000000000E+00  0.00000000000E+00  0.30430599406E+03  0.30430599406E+03  0.00000000000E+00 0.  1.
         -2   -1    0    0    0  501 -0.00000000000E+00 -0.00000000000E+00 -0.13151901160E+04  0.13151901160E+04  0.00000000000E+00 0. -1.
         23    2    1    2    0    0 -0.23811407463E+03 -0.17386696414E+03 -0.33748903005E+03  0.45730668890E+03  0.91118211994E+02 0.  0.
        254    2    1    2    0    0  0.23811407463E+03  0.17386696414E+03 -0.67339509192E+03  0.11621894212E+04  0.90016402233E+03 0.  0.
         23    2    4    4    0    0 -0.61727505204E+02 -0.30857983385E+03 -0.42134428444E+03  0.53328806180E+03  0.88506226159E+02 0.  0.
         23    2    4    4    0    0  0.29984157984E+03  0.48244679800E+03 -0.25205080748E+03  0.62890135937E+03  0.96578591701E+02 0.  0.
         13    1    3    3    0    0 -0.16057877759E+03 -0.15258771767E+03 -0.28631159660E+03  0.36199846097E+03  0.00000000000E+00 0. -1.
        -13    1    3    3    0    0 -0.77535297043E+02 -0.21279246471E+02 -0.51177433445E+02  0.95308227934E+02  0.00000000000E+00 0.  1.
          2    1    5    5  502    0 -0.67608969116E+02 -0.24560126604E+03 -0.28058995267E+03  0.37897450590E+03  0.00000000000E+00 0. -1.
          1    1    6    6  503    0  0.29662696202E+03  0.43701699103E+03 -0.21527505339E+03  0.57036370296E+03  0.00000000000E+00 0. -1.
         -2    1    5    5    0  502  0.58814639128E+01 -0.62978567813E+02 -0.14075433177E+03  0.15431355590E+03  0.00000000000E+00 0.  1.
         -1    1    6    6    0  503  0.32146178108E+01  0.45429806969E+02 -0.36775754094E+02  0.58537656411E+02  0.00000000000E+00 0.  1.
<mgrwt>
<rscale>  0 0.12652592E+04</rscale>
<asrwt>0</asrwt>
<pdfrwt beam="1">  1        2 0.46816307E-01 0.12652592E+04</pdfrwt>
<pdfrwt beam="2">  1       -2 0.20233694E+00 0.12652592E+04</pdfrwt>
<totfact> 0.13621359E+01</totfact>
</mgrwt>
</event>
<event>
12    1  0.4802930E-008  0.1588228E+04  0.7818608E-02  0.8827813E-01
          2   -1    0    0  501    0  0.00000000000E+00  0.00000000000E+00  0.16626178886E+04  0.16626178886E+04  0.00000000000E+00 0. -1.
         -2   -1    0    0    0  501 -0.00000000000E+00 -0.00000000000E+00 -0.37929157338E+03  0.37929157338E+03  0.00000000000E+00 0.  1.
         23    2    1    2    0    0 -0.46713387191E+03  0.19934502749E+03  0.60446130945E+03  0.79464186600E+03  0.90164994930E+02 0.  0.
        254    2    1    2    0    0  0.46713387191E+03 -0.19934502749E+03  0.67886500577E+03  0.12472675960E+04  0.91480394929E+03 0.  0.
         23    2    4    4    0    0  0.66456322580E+03  0.15309980916E+02  0.23987838051E+03  0.71267431472E+03  0.92110611898E+02 0.  0.
         23    2    4    4    0    0 -0.19742935389E+03 -0.21465500840E+03  0.43898662526E+03  0.53459328125E+03  0.89585695266E+02 0.  0.
         13    1    3    3    0    0 -0.21896804371E+03  0.12941628619E+03  0.34737848648E+03  0.43054313624E+03  0.00000000000E+00 0.  1.
        -13    1    3    3    0    0 -0.24816582819E+03  0.69928741301E+02  0.25708282297E+03  0.36409872975E+03  0.00000000000E+00 0. -1.
          4    1    6    6  502    0 -0.20137747661E+02  0.42596426520E+01  0.52070163987E+02  0.55990851163E+02  0.00000000000E+00 0. -1.
          4    1    5    5  503    0  0.10492928125E+03 -0.23254267986E+01  0.74976062093E+02  0.12898438495E+03  0.00000000000E+00 0. -1.
         -4    1    5    5    0  503  0.55963394455E+03  0.17635407714E+02  0.16490231842E+03  0.58368992977E+03  0.00000000000E+00 0.  1.
         -4    1    6    6    0  502 -0.17729160623E+03 -0.21891465105E+03  0.38691646127E+03  0.47860243009E+03  0.00000000000E+00 0.  1.
<mgrwt>
<rscale>  0 0.15882279E+04</rscale>
<asrwt>0</asrwt>
<pdfrwt beam="1">  1        2 0.25578736E+00 0.15882279E+04</pdfrwt>
<pdfrwt beam="2">  1       -2 0.58352550E-01 0.15882279E+04</pdfrwt>
<totfact> 0.27120673E+01</totfact>
</mgrwt>
</event>
<event>
12    1  0.4802930E-008  0.1443526E+04  0.7818608E-02  0.8922901E-01
          2   -1    0    0  501    0  0.00000000000E+00  0.00000000000E+00  0.17293288049E+04  0.17293288049E+04  0.00000000000E+00 0. -1.
         -2   -1    0    0    0  501 -0.00000000000E+00 -0.00000000000E+00 -0.30123919021E+03  0.30123919021E+03  0.00000000000E+00 0.  1.
         23    2    1    2    0    0 -0.81555262314E+02 -0.23247959212E+03  0.92641801638E+03  0.96297384282E+03  0.91489121345E+02 0.  0.
        254    2    1    2    0    0  0.81555262314E+02  0.23247959212E+03  0.50167159834E+03  0.10675941523E+04  0.90960698102E+03 0.  0.
         23    2    4    4    0    0  0.65836567431E+02  0.16638341904E+03  0.75970696720E+03  0.78572810686E+03  0.90532238170E+02 0.  0.
         23    2    4    4    0    0  0.15718694882E+02  0.66096173080E+02 -0.25803536887E+03  0.28186604546E+03  0.90831902601E+02 0.  0.
         13    1    3    3    0    0 -0.96957623637E+02 -0.19717523046E+03  0.84176674505E+03  0.86997132445E+03  0.00000000000E+00 0. -1.
        -13    1    3    3    0    0  0.15402361323E+02 -0.35304361657E+02  0.84651271332E+02  0.93002518377E+02  0.00000000000E+00 0.  1.
          4    1    5    5  502    0  0.67176114008E+02  0.16577110371E+03  0.76215999270E+03  0.78286687475E+03  0.00000000000E+00 0. -1.
          1    1    6    6  503    0 -0.30596972154E+02  0.53949940855E+02 -0.11001151583E+03  0.12629055562E+03  0.00000000000E+00 0.  1.
         -4    1    5    5    0  502 -0.13395465762E+01  0.61231533007E+00 -0.24530254932E+01  0.28612321059E+01  0.00000000000E+00 0.  1.
         -1    1    6    6    0  503  0.46315667036E+02  0.12146232225E+02 -0.14802385304E+03  0.15557548984E+03  0.00000000000E+00 0. -1.
<mgrwt>
<rscale>  0 0.14435257E+04</rscale>
<asrwt>0</asrwt>
<pdfrwt beam="1">  1        2 0.26605058E+00 0.14435257E+04</pdfrwt>
<pdfrwt beam="2">  1       -2 0.46344492E-01 0.14435257E+04</pdfrwt>
<totfact> 0.40449610E+01</totfact>
</mgrwt>
</event>
<event>
12    1  0.4802930E-008  0.1737451E+04  0.7818608E-02  0.8740288E-01
         -1   -1    0    0    0  501 -0.00000000000E+00  0.00000000000E+00  0.38421810025E+03  0.38421810025E+03  0.00000000000E+00 0.  1.
          1   -1    0    0  501    0  0.00000000000E+00 -0.00000000000E+00 -0.19642065488E+04  0.19642065488E+04  0.00000000000E+00 0. -1.
         23    2    1    2    0    0 -0.59170533133E+03 -0.18629215259E+03 -0.54394455063E+03  0.82994817469E+03  0.90101793941E+02 0.  0.
        254    2    1    2    0    0  0.59170533133E+03  0.18629215259E+03 -0.10360438979E+04  0.15184764744E+04  0.92063232592E+03 0.  0.
         23    2    4    4    0    0  0.76358524553E+03  0.35820019737E+03 -0.75197011680E+03  0.11337414397E+04  0.92416377801E+02 0.  0.
         23    2    4    4    0    0 -0.17187991421E+03 -0.17190804478E+03 -0.28407378113E+03  0.38473503469E+03  0.90708616054E+02 0.  0.
         13    1    3    3    0    0 -0.30432497477E+03 -0.79403254663E+02 -0.33129424978E+03  0.45680898312E+03  0.00000000000E+00 0.  1.
        -13    1    3    3    0    0 -0.28738035656E+03 -0.10688889792E+03 -0.21265030085E+03  0.37313919157E+03  0.00000000000E+00 0. -1.
          4    1    5    5  502    0  0.35224431478E+02  0.39868622266E+02 -0.55805236824E+02  0.77100532238E+02  0.00000000000E+00 0.  1.
          1    1    6    6  503    0 -0.61051652105E+02 -0.31311069066E+02 -0.13631069293E+03  0.15260502048E+03  0.00000000000E+00 0. -1.
         -4    1    5    5    0  502  0.72836081406E+03  0.31833157510E+03 -0.69616487998E+03  0.10566409074E+04  0.00000000000E+00 0. -1.
         -1    1    6    6    0  503 -0.11082826210E+03 -0.14059697572E+03 -0.14776308820E+03  0.23213001421E+03  0.00000000000E+00 0.  1.
<mgrwt>
<rscale>  0 0.17374507E+04</rscale>
<asrwt>0</asrwt>
<pdfrwt beam="1">  1        1 0.30218562E+00 0.17374507E+04</pdfrwt>
<pdfrwt beam="2">  1       -1 0.59110477E-01 0.17374507E+04</pdfrwt>
<totfact> 0.86741836E+00</totfact>
</mgrwt>
</event>
<event>
12    1  0.4802930E-008  0.1686267E+04  0.7818608E-02  0.8769236E-01
          2   -1    0    0  501    0  0.00000000000E+00  0.00000000000E+00  0.47494945981E+03  0.47494945981E+03  0.00000000000E+00 0. -1.
         -2   -1    0    0    0  501 -0.00000000000E+00 -0.00000000000E+00 -0.14967369412E+04  0.14967369412E+04  0.00000000000E+00 0.  1.
         23    2    1    2    0    0 -0.29388807749E+03 -0.49056535514E+03 -0.18083414265E+03  0.60664549327E+03  0.91066995115E+02 0.  0.
        254    2    1    2    0    0  0.29388807749E+03  0.49056535514E+03 -0.84095333870E+03  0.13650409077E+04  0.91055455194E+03 0.  0.
         23    2    4    4    0    0 -0.28414156814E+03 -0.11800491727E+02 -0.29952323988E+03  0.42279054262E+03  0.90343728856E+02 0.  0.
         23    2    4    4    0    0  0.57802964563E+03  0.50236584687E+03 -0.54143009882E+03  0.94225036508E+03  0.90550998156E+02 0.  0.
         13    1    3    3    0    0 -0.26145434344E+03 -0.45801897523E+03 -0.14119774110E+03  0.54596387927E+03  0.00000000000E+00 0. -1.
        -13    1    3    3    0    0 -0.32433734045E+02 -0.32546379917E+02 -0.39636401556E+02  0.60681614004E+02  0.00000000000E+00 0.  1.
          1    1    5    5  502    0 -0.19524530564E+03 -0.11569169441E+02 -0.14124510934E+03  0.24125661850E+03  0.00000000000E+00 0. -1.
          3    1    6    6  503    0  0.40954678697E+03  0.30696376121E+03 -0.38584091301E+03  0.64095907167E+03  0.00000000000E+00 0. -1.
         -1    1    5    5    0  502 -0.88896262496E+02 -0.23132228580E+00 -0.15827813055E+03  0.18153392412E+03  0.00000000000E+00 0.  1.
         -3    1    6    6    0  503  0.16848285866E+03  0.19540208566E+03 -0.15558918581E+03  0.30129129341E+03  0.00000000000E+00 0.  1.
<mgrwt>
<rscale>  0 0.16862674E+04</rscale>
<asrwt>0</asrwt>
<pdfrwt beam="1">  1        2 0.73069147E-01 0.16862674E+04</pdfrwt>
<pdfrwt beam="2">  1       -2 0.23026722E+00 0.16862674E+04</pdfrwt>
<totfact> 0.53003139E+00</totfact>
</mgrwt>
</event>
<event>
12    1  0.4802930E-008  0.1120975E+04  0.7818608E-02  0.9184986E-01
         -3   -1    0    0    0  501 -0.00000000000E+00  0.00000000000E+00  0.16711303544E+04  0.16711303544E+04  0.00000000000E+00 0.  1.
          3   -1    0    0  501    0  0.00000000000E+00 -0.00000000000E+00 -0.18798444709E+03  0.18798444709E+03  0.00000000000E+00 0. -1.
         23    2    1    2    0    0  0.10486490491E+03 -0.21531695392E+03  0.32641443258E+03  0.41521457363E+03  0.92188510287E+02 0.  0.
        254    2    1    2    0    0 -0.10486490491E+03  0.21531695392E+03  0.11567314747E+04  0.14439002278E+04  0.83033856013E+03 0.  0.
         23    2    4    4    0    0  0.13572256555E+03  0.19083094428E+03 -0.75398868845E+01  0.25122817143E+03  0.90673480871E+02 0.  0.
         23    2    4    4    0    0 -0.24058747046E+03  0.24486009648E+02  0.11642713616E+04  0.11926720564E+04  0.91961595747E+02 0.  0.
         11    1    3    3    0    0  0.39337141169E+02 -0.11472147221E+03  0.23453198465E+03  0.26403348024E+03  0.00000000000E+00 0.  1.
        -11    1    3    3    0    0  0.65527763742E+02 -0.10059548171E+03  0.91882447932E+02  0.15118109340E+03  0.00000000000E+00 0. -1.
          4    1    5    5  502    0  0.73731823623E+02  0.86400662757E+02 -0.47874635900E+02  0.12326166112E+03  0.00000000000E+00 0. -1.
          1    1    6    6  503    0 -0.16702322637E+03  0.50341740785E+02  0.91531241393E+03  0.93178745651E+03  0.00000000000E+00 0. -1.
         -4    1    5    5    0  502  0.61990741930E+02  0.10443028152E+03  0.40334749016E+02  0.12796651031E+03  0.00000000000E+00 0.  1.
         -1    1    6    6    0  503 -0.73564244099E+02 -0.25855731137E+02  0.24895894767E+03  0.26088459990E+03  0.00000000000E+00 0.  1.
<mgrwt>
<rscale>  0 0.11209755E+04</rscale>
<asrwt>0</asrwt>
<pdfrwt beam="1">  1        3 0.28920685E-01 0.11209755E+04</pdfrwt>
<pdfrwt beam="2">  1       -3 0.25709697E+00 0.11209755E+04</pdfrwt>
<totfact> 0.20237416E+00</totfact>
</mgrwt>
</event>
<event>
12    1  0.4802930E-008  0.1395474E+04  0.7818608E-02  0.8957101E-01
          1   -1    0    0  501    0  0.00000000000E+00  0.00000000000E+00  0.20269468247E+04  0.20269468247E+04  0.00000000000E+00 0. -1.
         -1   -1    0    0    0  501 -0.00000000000E+00 -0.00000000000E+00 -0.24018252413E+03  0.24018252413E+03  0.00000000000E+00 0.  1.
         23    2    1    2    0    0 -0.75720087410E+02  0.32929420715E+03  0.17408148375E+03  0.39079213748E+03  0.90807076998E+02 0.  0.
        254    2    1    2    0    0  0.75720087410E+02 -0.32929420715E+03  0.16126828168E+04  0.18763372113E+04  0.89762311495E+03 0.  0.
         23    2    4    4    0    0 -0.12510185144E+03 -0.54533099402E+02  0.14983718025E+04  0.15073243627E+04  0.91018368915E+02 0.  0.
         23    2    4    4    0    0  0.20082193885E+03 -0.27476110775E+03  0.11431101430E+03  0.36901284869E+03  0.85325008384E+02 0.  0.
         11    1    3    3    0    0 -0.25530429265E+02  0.82777679861E+02  0.91524426658E+02  0.12601852156E+03  0.00000000000E+00 0. -1.
        -11    1    3    3    0    0 -0.50189658145E+02  0.24651652729E+03  0.82557057093E+02  0.26477361592E+03  0.00000000000E+00 0.  1.
          2    1    5    5  502    0 -0.53447691584E+02  0.10366562400E+02  0.28821727809E+03  0.29331437186E+03  0.00000000000E+00 0. -1.
          1    1    6    6  503    0  0.73876193932E+00 -0.49557790781E+02  0.18346331005E+02  0.52849865257E+02  0.00000000000E+00 0. -1.
         -2    1    5    5    0  502 -0.71654159852E+02 -0.64899661802E+02  0.12101545244E+04  0.12140099908E+04  0.00000000000E+00 0.  1.
         -1    1    6    6    0  503  0.20008317691E+03 -0.22520331697E+03  0.95964683291E+02  0.31616298343E+03  0.00000000000E+00 0.  1.
<mgrwt>
<rscale>  0 0.13954744E+04</rscale>
<asrwt>0</asrwt>
<pdfrwt beam="1">  1        1 0.31183796E+00 0.13954744E+04</pdfrwt>
<pdfrwt beam="2">  1       -1 0.36951159E-01 0.13954744E+04</pdfrwt>
<totfact> 0.19630813E+01</totfact>
</mgrwt>
</event>
<event>
12    1  0.4802930E-008  0.1408625E+04  0.7818608E-02  0.8947599E-01
         -2   -1    0    0    0  501 -0.00000000000E+00  0.00000000000E+00  0.18845584123E+03  0.18845584123E+03  0.00000000000E+00 0.  1.
          2   -1    0    0  501    0  0.00000000000E+00 -0.00000000000E+00 -0.26322141591E+04  0.26322141591E+04  0.00000000000E+00 0. -1.
         23    2    1    2    0    0 -0.32141683008E+03  0.14024238253E+02 -0.21277550531E+03  0.39609717309E+03  0.90078282348E+02 0.  0.
        254    2    1    2    0    0  0.32141683008E+03 -0.14024238253E+02 -0.22309828126E+04  0.24245728273E+04  0.89317614544E+03 0.  0.
         23    2    4    4    0    0  0.29850147765E+03  0.40861433527E+03 -0.12427993193E+04  0.13449518522E+04  0.90975433154E+02 0.  0.
         23    2    4    4    0    0  0.22915352428E+02 -0.42263857353E+03 -0.98818349326E+03  0.10796209751E+04  0.99631100990E+02 0.  0.
         11    1    3    3    0    0 -0.22050787280E+03  0.72147909348E+01 -0.93249204594E+02  0.23952283676E+03  0.00000000000E+00 0.  1.
        -11    1    3    3    0    0 -0.10090895728E+03  0.68094473184E+01 -0.11952630071E+03  0.15657433632E+03  0.00000000000E+00 0. -1.
          2    1    5    5  502    0  0.12340670626E+02 -0.23662219618E+01 -0.20565855740E+02  0.24100738167E+02  0.00000000000E+00 0.  1.
          1    1    6    6  503    0  0.54967022500E+02 -0.22554929391E+03 -0.46762820248E+03  0.52208236256E+03  0.00000000000E+00 0. -1.
         -2    1    5    5    0  502  0.28616080703E+03  0.41098055724E+03 -0.12222334636E+04  0.13208511140E+04  0.00000000000E+00 0. -1.
         -1    1    6    6    0  503 -0.32051670071E+02 -0.19708927962E+03 -0.52055529078E+03  0.55753861253E+03  0.00000000000E+00 0.  1.
<mgrwt>
<rscale>  0 0.14086251E+04</rscale>
<asrwt>0</asrwt>
<pdfrwt beam="1">  1        2 0.40495598E+00 0.14086251E+04</pdfrwt>
<pdfrwt beam="2">  1       -2 0.28993210E-01 0.14086251E+04</pdfrwt>
<totfact> 0.31113844E+01</totfact>
</mgrwt>
</event>
