<event>
12    1  0.1444206E-007  0.9002232E+03  0.7818608E-02  0.9425302E-01
          2   -1    0    0  501    0  0.00000000000E+00  0.00000000000E+00  0.57352803191E+03  0.57352803191E+03  0.00000000000E+00 0. -1.
         -2   -1    0    0    0  501 -0.00000000000E+00 -0.00000000000E+00 -0.16313643793E+04  0.16313643793E+04  0.00000000000E+00 0.  1.
         23    2    1    2    0    0 -0.81445171816E+03  0.24556376027E+03 -0.69578764975E+03  0.11027281609E+04  0.90861332709E+02 0.  0.
    5000000    2    1    2    0    0  0.81445171816E+03 -0.24556376027E+03 -0.36204869768E+03  0.11021642503E+04  0.60004467638E+03 0.  0.
         23    2    4    4    0    0  0.67198585479E+03 -0.14900403181E+02 -0.44024072453E+03  0.80912112392E+03  0.95278993395E+02 0.  0.
         23    2    4    4    0    0  0.14246586337E+03 -0.23066335709E+03  0.78192026853E+02  0.29304312641E+03  0.79108623711E+02 0.  0.
          4    1    3    3  502    0 -0.29825305762E+03  0.11142411895E+03 -0.31094937665E+03  0.44503902694E+03  0.00000000000E+00 0. -1.
         -4    1    3    3    0  502 -0.51619866053E+03  0.13413964132E+03 -0.38483827310E+03  0.65768913398E+03  0.00000000000E+00 0.  1.
         13    1    5    5    0    0  0.20288007310E+03  0.29869975630E+02 -0.16646998713E+03  0.26413026354E+03  0.00000000000E+00 0.  1.
        -13    1    5    5    0    0  0.46910578169E+03 -0.44770378811E+02 -0.27377073741E+03  0.54499086038E+03  0.00000000000E+00 0. -1.
          3    1    6    6  503    0  0.11635314614E+03 -0.16638373415E+03  0.90996416202E+02  0.22249033545E+03  0.00000000000E+00 0. -1.
         -3    1    6    6    0  503  0.26112717227E+02 -0.64279622939E+02 -0.12804389349E+02  0.70552790964E+02  0.00000000000E+00 0.  1.
<mgrwt>
<rscale>  0 0.90022317E+03</rscale>
<asrwt>0</asrwt>
<pdfrwt beam="1">  1        2 0.88235084E-01 0.90022317E+03</pdfrwt>
<pdfrwt beam="2">  1       -2 0.25097913E+00 0.90022317E+03</pdfrwt>
<totfact> 0.33534513E+00</totfact>
</mgrwt>
</event>
<event>
12    1  0.1444206E-007  0.6148708E+03  0.7818608E-02  0.9875025E-01
         -2   -1    0    0    0  501 -0.00000000000E+00  0.00000000000E+00  0.36178563672E+03  0.36178563672E+03  0.00000000000E+00 0.  1.
          2   -1    0    0  501    0  0.00000000000E+00 -0.00000000000E+00 -0.11592794102E+04  0.11592794102E+04  0.00000000000E+00 0. -1.
         23    2    1    2    0    0 -0.30042047175E+02  0.49597717557E+03 -0.22420628574E+03  0.55390900671E+03  0.98238718723E+02 0.  0.
    5000000    2    1    2    0    0  0.30042047175E+02 -0.49597717557E+03 -0.57328748778E+03  0.96715604025E+03  0.59986363388E+03 0.  0.
         23    2    4    4    0    0  0.26725834579E+03 -0.33548928419E+03 -0.48636393197E+03  0.65435060182E+03  0.87434275775E+02 0.  0.
         23    2    4    4    0    0 -0.23721629861E+03 -0.16048789138E+03 -0.86923555816E+02  0.31280543843E+03  0.90904357144E+02 0.  0.
          3    1    3    3  502    0 -0.49467037332E+02  0.11785477149E+03 -0.60547689983E+02  0.14143110587E+03  0.00000000000E+00 0. -1.
         -3    1    3    3    0  502  0.19424990157E+02  0.37812240409E+03 -0.16365859576E+03  0.41247790084E+03  0.00000000000E+00 0.  1.
         11    1    5    5    0    0  0.11922647671E+03 -0.10088382295E+03 -0.13321838204E+03  0.20527940909E+03  0.00000000000E+00 0.  1.
        -11    1    5    5    0    0  0.14803186908E+03 -0.23460546124E+03 -0.35314554993E+03  0.44907119273E+03  0.00000000000E+00 0. -1.
          4    1    6    6  503    0 -0.19493822113E+03 -0.15050975911E+03 -0.10235922430E+03  0.26670490892E+03  0.00000000000E+00 0. -1.
         -4    1    6    6    0  503 -0.42278077488E+02 -0.99781322702E+01  0.15435668481E+02  0.46100529510E+02  0.00000000000E+00 0.  1.
<mgrwt>
<rscale>  0 0.61487085E+03</rscale>
<asrwt>0</asrwt>
<pdfrwt beam="1">  1        2 0.17835068E+00 0.61487085E+03</pdfrwt>
<pdfrwt beam="2">  1       -2 0.55659328E-01 0.61487085E+03</pdfrwt>
<totfact> 0.62611611E+01</totfact>
</mgrwt>
</event>
<event>
12    1  0.1444206E-007  0.3860623E+03  0.7818608E-02  0.1048716E+00
         -1   -1    0    0    0  501 -0.00000000000E+00  0.00000000000E+00  0.21230450438E+03  0.21230450438E+03  0.00000000000E+00 0.  1.
          1   -1    0    0  501    0  0.00000000000E+00 -0.00000000000E+00 -0.12362016851E+04  0.12362016851E+04  0.00000000000E+00 0. -1.
         23    2    1    2    0    0 -0.23151426940E+03 -0.22879159077E+03 -0.27858617675E+03  0.43788786093E+03  0.90504540934E+02 0.  0.
    5000000    2    1    2    0    0  0.23151426940E+03  0.22879159077E+03 -0.74531100398E+03  0.10106183286E+04  0.59993038300E+03 0.  0.
         23    2    4    4    0    0 -0.63894870926E+02  0.47924038384E+02  0.56006321192E+02  0.13331403666E+03  0.90866145347E+02 0.  0.
         23    2    4    4    0    0  0.29540914033E+03  0.18086755239E+03 -0.80131732517E+03  0.87730429192E+03  0.87027198587E+02 0.  0.
          3    1    3    3  502    0 -0.22873796154E+03 -0.19086283524E+03 -0.23102199432E+03  0.37698917595E+03  0.00000000000E+00 0. -1.
         -3    1    3    3    0  502 -0.27763078564E+01 -0.37928755534E+02 -0.47564182430E+02  0.60898684976E+02  0.00000000000E+00 0.  1.
         13    1    5    5    0    0 -0.31872078042E+02  0.42808565548E+02  0.77724737506E+02  0.94284343681E+02  0.00000000000E+00 0. -1.
        -13    1    5    5    0    0 -0.32022792885E+02  0.51154728361E+01 -0.21718416314E+02  0.39029692974E+02  0.00000000000E+00 0.  1.
          4    1    6    6  503    0  0.17136904000E+03  0.13492889707E+03 -0.41268254060E+03  0.46677621453E+03  0.00000000000E+00 0. -1.
         -4    1    6    6    0  503  0.12404010033E+03  0.45938655319E+02 -0.38863478457E+03  0.41052807738E+03  0.00000000000E+00 0.  1.
<mgrwt>
<rscale>  0 0.38606231E+03</rscale>
<asrwt>0</asrwt>
<pdfrwt beam="1">  1        1 0.19018488E+00 0.38606231E+03</pdfrwt>
<pdfrwt beam="2">  1       -1 0.32662231E-01 0.38606231E+03</pdfrwt>
<totfact> 0.94230918E+01</totfact>
</mgrwt>
</event>
<event>
12    1  0.1444206E-007  0.7781627E+03  0.7818608E-02  0.9592175E-01
          2   -1    0    0  501    0  0.00000000000E+00  0.00000000000E+00  0.12968248033E+04  0.12968248033E+04  0.00000000000E+00 0. -1.
         -2   -1    0    0    0  501 -0.00000000000E+00 -0.00000000000E+00 -0.59216154883E+03  0.59216154883E+03  0.00000000000E+00 0.  1.
         23    2    1    2    0    0 -0.43325494394E+03  0.59671310661E+03  0.70895351512E+02  0.74641553751E+03  0.91288694386E+02 0.  0.
    5000000    2    1    2    0    0  0.43325494394E+03 -0.59671310661E+03  0.63376790300E+03  0.11425708147E+04  0.60002494414E+03 0.  0.
         23    2    4    4    0    0 -0.34850934945E+01  0.24352578933E+02  0.28798886733E+03  0.30324677347E+03  0.91737799949E+02 0.  0.
         23    2    4    4    0    0  0.43674003744E+03 -0.62106568554E+03  0.34577903568E+03  0.83932404119E+03  0.91854551044E+02 0.  0.
          1    1    3    3  502    0 -0.35957695561E+03  0.47077481237E+03  0.22951487694E+02  0.59283326640E+03  0.00000000000E+00 0. -1.
         -1    1    3    3    0  502 -0.73677988330E+02  0.12593829424E+03  0.47943863818E+02  0.15358227111E+03  0.00000000000E+00 0.  1.
         13    1    5    5    0    0  0.21928204958E+02  0.11679108236E+02  0.15502041360E+02  0.29284142948E+02  0.00000000000E+00 0. -1.
        -13    1    5    5    0    0 -0.25413298453E+02  0.12673470697E+02  0.27248682597E+03  0.27396263052E+03  0.00000000000E+00 0.  1.
          2    1    6    6  503    0  0.16974109508E+02 -0.70152007083E+02  0.33168093728E+02  0.79432656589E+02  0.00000000000E+00 0.  1.
         -2    1    6    6    0  503  0.41976592793E+03 -0.55091367846E+03  0.31261094195E+03  0.75989138460E+03  0.00000000000E+00 0. -1.
<mgrwt>
<rscale>  0 0.77816271E+03</rscale>
<asrwt>0</asrwt>
<pdfrwt beam="1">  1        2 0.19951151E+00 0.77816271E+03</pdfrwt>
<pdfrwt beam="2">  1       -2 0.91101777E-01 0.77816271E+03</pdfrwt>
<totfact> 0.17354948E+01</totfact>
</mgrwt>
</event>
<event>
12    1  0.1444206E-007  0.7117742E+03  0.7818608E-02  0.9697306E-01
          1   -1    0    0  501    0  0.00000000000E+00  0.00000000000E+00  0.56847636096E+03  0.56847636096E+03  0.00000000000E+00 0. -1.
         -1   -1    0    0    0  501 -0.00000000000E+00 -0.00000000000E+00 -0.12216029044E+04  0.12216029044E+04  0.00000000000E+00 0.  1.
         23    2    1    2    0    0 -0.17693698030E+03  0.57969997929E+03  0.13604821478E+03  0.62812429094E+03  0.93124900741E+02 0.  0.
    5000000    2    1    2    0    0  0.17693698030E+03 -0.57969997929E+03 -0.78917475826E+03  0.11619549745E+04  0.59998650201E+03 0.  0.
         23    2    4    4    0    0  0.25820448506E+02 -0.63876598264E+03 -0.71119442554E+03  0.96038112916E+03  0.88576103866E+02 0.  0.
         23    2    4    4    0    0  0.15111653179E+03  0.59066003353E+02 -0.77980332721E+02  0.20157384530E+03  0.90697761187E+02 0.  0.
          4    1    3    3  502    0 -0.13743182896E+03  0.29691362199E+03  0.59944022310E+02  0.33262364971E+03  0.00000000000E+00 0. -1.
         -4    1    3    3    0  502 -0.39505151340E+02  0.28278635730E+03  0.76104192467E+02  0.29550064123E+03  0.00000000000E+00 0.  1.
         11    1    5    5    0    0  0.45000622413E+02 -0.59676785246E+03 -0.67160752212E+03  0.89956299919E+03  0.00000000000E+00 0.  1.
        -11    1    5    5    0    0 -0.19180173906E+02 -0.41998130184E+02 -0.39586903425E+02  0.60818129968E+02  0.00000000000E+00 0. -1.
          2    1    6    6  503    0  0.10410173017E+03  0.58021593516E+02 -0.10934337574E+02  0.11967971957E+03  0.00000000000E+00 0. -1.
         -2    1    6    6    0  503  0.47014801622E+02  0.10444098371E+01 -0.67045995147E+02  0.81894125727E+02  0.00000000000E+00 0.  1.
<mgrwt>
<rscale>  0 0.71177419E+03</rscale>
<asrwt>0</asrwt>
<pdfrwt beam="1">  1        1 0.87457902E-01 0.71177419E+03</pdfrwt>
<pdfrwt beam="2">  1       -1 0.18793891E+00 0.71177419E+03</pdfrwt>
<totfact> 0.70253941E+00</totfact>
</mgrwt>
</event>
<event>
12    1  0.1444206E-007  0.1234664E+04  0.7818608E-02  0.9083044E-01
          2   -1    0    0  501    0  0.00000000000E+00  0.00000000000E+00  0.14562856109E+04  0.14562856109E+04  0.00000000000E+00 0. -1.
         -2   -1    0    0    0  501 -0.00000000000E+00 -0.00000000000E+00 -0.10740499539E+04  0.10740499539E+04  0.00000000000E+00 0.  1.
         23    2    1    2    0    0  0.91294931104E+03 -0.72345027804E+03  0.35033585961E+03  0.12196703927E+04  0.89464535361E+02 0.  0.
    5000000    2    1    2    0    0 -0.91294931104E+03  0.72345027804E+03  0.31899797436E+02  0.13106651721E+04  0.59997403851E+03 0.  0.
         23    2    4    4    0    0 -0.64732150021E+02  0.37142803727E+03 -0.14261018324E+01  0.38717445059E+03  0.88051026733E+02 0.  0.
         23    2    4    4    0    0 -0.84821716102E+03  0.35202224077E+03  0.33325899269E+02  0.92349072148E+03  0.91282456441E+02 0.  0.
          4    1    3    3  502    0  0.24026857953E+03 -0.19563240594E+03  0.13473968252E+03  0.33786951713E+03  0.00000000000E+00 0. -1.
         -4    1    3    3    0  502  0.67268073152E+03 -0.52781787210E+03  0.21559617709E+03  0.88180087562E+03  0.00000000000E+00 0.  1.
         13    1    5    5    0    0 -0.34131041860E+02  0.62016441715E+02 -0.25695508107E+02  0.75307544100E+02  0.00000000000E+00 0.  1.
        -13    1    5    5    0    0 -0.30601108161E+02  0.30941159555E+03  0.24269406275E+02  0.31186690649E+03  0.00000000000E+00 0. -1.
          3    1    6    6  503    0 -0.68571167526E+02  0.32763707793E+01 -0.18686927526E+01  0.68674825329E+02  0.00000000000E+00 0. -1.
         -3    1    6    6    0  503 -0.77964599350E+03  0.34874586999E+03  0.35194592021E+02  0.85481589615E+03  0.00000000000E+00 0.  1.
<mgrwt>
<rscale>  0 0.12346644E+04</rscale>
<asrwt>0</asrwt>
<pdfrwt beam="1">  1        2 0.22404394E+00 0.12346644E+04</pdfrwt>
<pdfrwt beam="2">  1       -2 0.16523845E+00 0.12346644E+04</pdfrwt>
<totfact> 0.29993107E+00</totfact>
</mgrwt>
</event>
<event>
12    1  0.1444206E-007  0.1216734E+04  0.7818608E-02  0.9098334E-01
         -2   -1    0    0    0  501 -0.00000000000E+00  0.00000000000E+00  0.46217888935E+03  0.46217888935E+03  0.00000000000E+00 0.  1.
          2   -1    0    0  501    0  0.00000000000E+00 -0.00000000000E+00 -0.34300470522E+04  0.34300470522E+04  0.00000000000E+00 0. -1.
         23    2    1    2    0    0  0.11668187324E+04  0.39461267845E+02 -0.10844368245E+04  0.15964062754E+04  0.97399300307E+02 0.  0.
    5000000    2    1    2    0    0 -0.11668187324E+04 -0.39461267845E+02 -0.18834313383E+04  0.22958196661E+04  0.60037587162E+03 0.  0.
         23    2    4    4    0    0 -0.60444417377E+03  0.21632932043E+03 -0.67711374950E+03  0.93757207132E+03  0.91690921450E+02 0.  0.
         23    2    4    4    0    0 -0.56237455868E+03 -0.25579058828E+03 -0.12063175888E+04  0.13582475948E+04  0.89109115421E+02 0.  0.
          1    1    3    3  502    0  0.67655277788E+03 -0.92630138501E+01 -0.57841461611E+03  0.89015331983E+03  0.00000000000E+00 0. -1.
         -1    1    3    3    0  502  0.49026595456E+03  0.48724281695E+02 -0.50602220843E+03  0.70625295557E+03  0.00000000000E+00 0.  1.
         13    1    5    5    0    0 -0.33253834343E+02  0.59531195215E+01 -0.11714987979E+02  0.35756091424E+02  0.00000000000E+00 0. -1.
        -13    1    5    5    0    0 -0.57119033942E+03  0.21037620091E+03 -0.66539876152E+03  0.90181597990E+03  0.00000000000E+00 0.  1.
          1    1    6    6  503    0 -0.18842706179E+03 -0.12225208263E+03 -0.37859776106E+03  0.44021198757E+03  0.00000000000E+00 0. -1.
         -1    1    6    6    0  503 -0.37394749688E+03 -0.13353850565E+03 -0.82771982771E+03  0.91803560721E+03  0.00000000000E+00 0.  1.
<mgrwt>
<rscale>  0 0.12167340E+04</rscale>
<asrwt>0</asrwt>
<pdfrwt beam="1">  1        2 0.52769953E+00 0.12167340E+04</pdfrwt>
<pdfrwt beam="2">  1       -2 0.71104446E-01 0.12167340E+04</pdfrwt>
<totfact> 0.16347969E+00</totfact>
</mgrwt>
</event>
<event>
12    1  0.1444206E-007  0.1361892E+04  0.7818608E-02  0.8981875E-01
         -2   -1    0    0    0  501 -0.00000000000E+00  0.00000000000E+00  0.13677987528E+04  0.13677987528E+04  0.00000000000E+00 0.  1.
          2   -1    0    0  501    0  0.00000000000E+00 -0.00000000000E+00 -0.15299966038E+04  0.15299966038E+04  0.00000000000E+00 0. -1.
         23    2    1    2    0    0 -0.13511726867E+04  0.37518970012E+02 -0.36975266210E+03  0.14044387111E+04  0.93036335081E+02 0.  0.
    5000000    2    1    2    0    0  0.13511726867E+04 -0.37518970012E+02  0.20755481110E+03  0.14933566454E+04  0.59996647274E+03 0.  0.
         23    2    4    4    0    0  0.11051896640E+04 -0.86873937228E+02  0.37792057170E+03  0.11748640047E+04  0.92142263080E+02 0.  0.
         23    2    4    4    0    0  0.24598302267E+03  0.49354967216E+02 -0.17036576060E+03  0.31849264069E+03  0.97311405085E+02 0.  0.
          3    1    3    3  502    0 -0.11345679877E+04  0.18114346192E+02 -0.34243766339E+03  0.11852578629E+04  0.00000000000E+00 0. -1.
         -3    1    3    3    0  502 -0.21660469898E+03  0.19404623820E+02 -0.27314998712E+02  0.21918084816E+03  0.00000000000E+00 0.  1.
         11    1    5    5    0    0  0.35072676921E+03 -0.70692460900E+02  0.12316378705E+03  0.37838605829E+03  0.00000000000E+00 0.  1.
        -11    1    5    5    0    0  0.75446289484E+03 -0.16181476328E+02  0.25475678465E+03  0.79647794646E+03  0.00000000000E+00 0. -1.
          3    1    6    6  503    0  0.17359467469E+02  0.23333901142E+02 -0.52367578788E+02  0.59901463767E+02  0.00000000000E+00 0. -1.
         -3    1    6    6    0  503  0.22862355521E+03  0.26021066074E+02 -0.11799818181E+03  0.25859117693E+03  0.00000000000E+00 0.  1.
<mgrwt>
<rscale>  0 0.13618920E+04</rscale>
<asrwt>0</asrwt>
<pdfrwt beam="1">  1        2 0.23538409E+00 0.13618920E+04</pdfrwt>
<pdfrwt beam="2">  1       -2 0.21043058E+00 0.13618920E+04</pdfrwt>
<totfact> 0.13247980E+00</totfact>
</mgrwt>
</event>
<event>
12    1  0.1444206E-007  0.5712576E+03  0.7818608E-02  0.9966900E-01
         -1   -1    0    0    0  501 -0.00000000000E+00  0.00000000000E+00  0.35491145113E+03  0.35491145113E+03  0.00000000000E+00 0.  1.
          1   -1    0    0  501    0  0.00000000000E+00 -0.00000000000E+00 -0.12869573413E+04  0.12869573413E+04  0.00000000000E+00 0. -1.
         23    2    1    2    0    0  0.12434697405E+03 -0.49530223014E+03 -0.16501365087E+03  0.54225918515E+03  0.77646955874E+02 0.  0.
    5000000    2    1    2    0    0 -0.12434697405E+03  0.49530223014E+03 -0.76703223934E+03  0.10996096073E+04  0.60001363585E+03 0.  0.
         23    2    4    4    0    0 -0.17156107099E+03  0.60742832425E+02 -0.58160313086E+03  0.61613144109E+03  0.90735098508E+02 0.  0.
         23    2    4    4    0    0  0.47214096936E+02  0.43455939772E+03 -0.18542910848E+03  0.48347816624E+03  0.91083159060E+02 0.  0.
          2    1    3    3  502    0  0.75274996974E+02 -0.15069822263E+03 -0.55304309696E+02  0.17729874829E+03  0.00000000000E+00 0. -1.
         -2    1    3    3    0  502  0.49071977080E+02 -0.34460400751E+03 -0.10970934118E+03  0.36496043686E+03  0.00000000000E+00 0.  1.
         11    1    5    5    0    0 -0.55764663827E+02  0.29505624001E+02 -0.34657091037E+03  0.35226648364E+03  0.00000000000E+00 0. -1.
        -11    1    5    5    0    0 -0.11579640716E+03  0.31237208425E+02 -0.23503222049E+03  0.26386495745E+03  0.00000000000E+00 0.  1.
          1    1    6    6  503    0 -0.17830562525E+02  0.15011984169E+03 -0.34881146039E+02  0.15514699539E+03  0.00000000000E+00 0. -1.
         -1    1    6    6    0  503  0.65044659461E+02  0.28443955603E+03 -0.15054796244E+03  0.32833117086E+03  0.00000000000E+00 0.  1.
<mgrwt>
<rscale>  0 0.57125756E+03</rscale>
<asrwt>0</asrwt>
<pdfrwt beam="1">  1        1 0.19799344E+00 0.57125756E+03</pdfrwt>
<pdfrwt beam="2">  1       -1 0.54601762E-01 0.57125756E+03</pdfrwt>
<totfact> 0.33008067E+01</totfact>
</mgrwt>
</event>
<event>
12    1  0.1444206E-007  0.5626050E+03  0.7818608E-02  0.9986177E-01
          1   -1    0    0  501    0  0.00000000000E+00  0.00000000000E+00  0.12854032137E+04  0.12854032137E+04  0.00000000000E+00 0. -1.
         -1   -1    0    0    0  501 -0.00000000000E+00 -0.00000000000E+00 -0.38381663295E+03  0.38381663295E+03  0.00000000000E+00 0.  1.
         23    2    1    2    0    0 -0.42741390421E+03  0.10425683502E+03  0.80163545073E+03  0.91856012473E+03  0.87069935799E+02 0.  0.
    5000000    2    1    2    0    0  0.42741390421E+03 -0.10425683502E+03  0.99951130066E+02  0.75065972196E+03  0.59995637893E+03 0.  0.
         23    2    4    4    0    0 -0.75196228462E+02  0.88742829925E+02 -0.95698579239E+02  0.17196104084E+03  0.82961550494E+02 0.  0.
         23    2    4    4    0    0  0.50261013267E+03 -0.19299966494E+03  0.19564970931E+03  0.57869868112E+03  0.82143402966E+02 0.  0.
          4    1    3    3  502    0 -0.68893281510E+02 -0.88572361261E+01  0.16799914759E+03  0.18179232233E+03  0.00000000000E+00 0. -1.
         -4    1    3    3    0  502 -0.35852062270E+03  0.11311407114E+03  0.63363630315E+03  0.73676780240E+03  0.00000000000E+00 0.  1.
         13    1    5    5    0    0 -0.62398050917E+02  0.10398165740E+03 -0.72061000846E+02  0.14106200649E+03  0.00000000000E+00 0.  1.
        -13    1    5    5    0    0 -0.12798177545E+02 -0.15238827472E+02 -0.23637578393E+02  0.30899034345E+02  0.00000000000E+00 0. -1.
          1    1    6    6  503    0  0.42016563679E+03 -0.15476866053E+03  0.12892185626E+03  0.46595423127E+03  0.00000000000E+00 0. -1.
         -1    1    6    6    0  503  0.82444495880E+02 -0.38231004416E+02  0.66727853046E+02  0.11274444985E+03  0.00000000000E+00 0.  1.
<mgrwt>
<rscale>  0 0.56260504E+03</rscale>
<asrwt>0</asrwt>
<pdfrwt beam="1">  1        1 0.19775434E+00 0.56260504E+03</pdfrwt>
<pdfrwt beam="2">  1       -1 0.59048714E-01 0.56260504E+03</pdfrwt>
<totfact> 0.28477176E+01</totfact>
</mgrwt>
</event>
<event>
12    1  0.1444206E-007  0.9382264E+03  0.7818608E-02  0.9379019E-01
         -1   -1    0    0    0  501 -0.00000000000E+00  0.00000000000E+00  0.51107818883E+03  0.51107818883E+03  0.00000000000E+00 0.  1.
          1   -1    0    0  501    0  0.00000000000E+00 -0.00000000000E+00 -0.18815205008E+04  0.18815205008E+04  0.00000000000E+00 0. -1.
         23    2    1    2    0    0 -0.61771093370E+03  0.59671495628E+03 -0.35582539624E+03  0.93410816330E+03  0.91163652170E+02 0.  0.
    5000000    2    1    2    0    0  0.61771093370E+03 -0.59671495628E+03 -0.10146169158E+04  0.14584905264E+04  0.60009298701E+03 0.  0.
         23    2    4    4    0    0 -0.68420685367E+02 -0.18489177384E+03 -0.98105481055E+02  0.23845907564E+03  0.91496924127E+02 0.  0.
         23    2    4    4    0    0  0.68613161907E+03 -0.41182318244E+03 -0.91651143471E+03  0.12200314507E+04  0.90047756770E+02 0.  0.
          1    1    3    3  502    0 -0.54079128902E+03  0.51706287449E+03 -0.34150354019E+03  0.82245601853E+03  0.00000000000E+00 0. -1.
         -1    1    3    3    0  502 -0.76919644677E+02  0.79652081788E+02 -0.14321856050E+02  0.11165214477E+03  0.00000000000E+00 0.  1.
         11    1    5    5    0    0 -0.28822792165E+01 -0.12837474627E+03 -0.75716048640E+02  0.14906811542E+03  0.00000000000E+00 0.  1.
        -11    1    5    5    0    0 -0.65538406151E+02 -0.56517027570E+02 -0.22389432415E+02  0.89390960225E+02  0.00000000000E+00 0. -1.
          4    1    6    6  503    0  0.47554802840E+03 -0.25189926281E+03 -0.56642700956E+03  0.78130578077E+03  0.00000000000E+00 0. -1.
         -4    1    6    6    0  503  0.21058359067E+03 -0.15992391963E+03 -0.35008442515E+03  0.43872566994E+03  0.00000000000E+00 0.  1.
<mgrwt>
<rscale>  0 0.93822636E+03</rscale>
<asrwt>0</asrwt>
<pdfrwt beam="1">  1        1 0.28946470E+00 0.93822636E+03</pdfrwt>
<pdfrwt beam="2">  1       -1 0.78627411E-01 0.93822636E+03</pdfrwt>
<totfact> 0.59079644E+00</totfact>
</mgrwt>
</event>
<event>
12    1  0.1444206E-007  0.5334179E+03  0.7818608E-02  0.1005407E+00
          1   -1    0    0  501    0  0.00000000000E+00  0.00000000000E+00  0.86270643812E+03  0.86270643812E+03  0.00000000000E+00 0. -1.
         -1   -1    0    0    0  501 -0.00000000000E+00 -0.00000000000E+00 -0.60459853373E+03  0.60459853373E+03  0.00000000000E+00 0.  1.
         23    2    1    2    0    0 -0.22029862329E+02  0.44107796843E+03 -0.29522845160E+03  0.53934392534E+03  0.93257397005E+02 0.  0.
    5000000    2    1    2    0    0  0.22029862329E+02 -0.44107796843E+03  0.55333635600E+03  0.92796104651E+03  0.59991290359E+03 0.  0.
         23    2    4    4    0    0 -0.10446801931E+03  0.18586691589E+02  0.39139265731E+03  0.41589945644E+03  0.92331541217E+02 0.  0.
         23    2    4    4    0    0  0.12649788164E+03 -0.45966466002E+03  0.16194369868E+03  0.51206159007E+03  0.93209424123E+02 0.  0.
          2    1    3    3  502    0 -0.57212605268E+02  0.21140733557E+03 -0.14200181844E+03  0.26101888854E+03  0.00000000000E+00 0. -1.
         -2    1    3    3    0  502  0.35182742939E+02  0.22967063286E+03 -0.15322663316E+03  0.27832503680E+03  0.00000000000E+00 0.  1.
         11    1    5    5    0    0 -0.82667957644E+02 -0.25955565712E+02  0.29551787642E+03  0.30795859770E+03  0.00000000000E+00 0.  1.
        -11    1    5    5    0    0 -0.21800061666E+02  0.44542257301E+02  0.95874780897E+02  0.10794085874E+03  0.00000000000E+00 0. -1.
          2    1    6    6  503    0  0.54920074368E+02 -0.11800569331E+03  0.75866316104E+01  0.13038065501E+03  0.00000000000E+00 0. -1.
         -2    1    6    6    0  503  0.71577807272E+02 -0.34165896671E+03  0.15435706707E+03  0.38168093505E+03  0.00000000000E+00 0.  1.
<mgrwt>
<rscale>  0 0.53341788E+03</rscale>
<asrwt>0</asrwt>
<pdfrwt beam="1">  1        1 0.13272407E+00 0.53341788E+03</pdfrwt>
<pdfrwt beam="2">  1       -1 0.93015159E-01 0.53341788E+03</pdfrwt>
<totfact> 0.23210085E+01</totfact>
</mgrwt>
</event>
<event>
12    1  0.1444206E-007  0.7975332E+03  0.7818608E-02  0.9563595E-01
          3   -1    0    0  501    0  0.00000000000E+00  0.00000000000E+00  0.57331973887E+03  0.57331973887E+03  0.00000000000E+00 0.  1.
         -3   -1    0    0    0  501 -0.00000000000E+00 -0.00000000000E+00 -0.12546809265E+04  0.12546809265E+04  0.00000000000E+00 0. -1.
         23    2    1    2    0    0  0.32485066468E+03  0.66351406349E+03 -0.32051583158E+03  0.81025130279E+03  0.89431026996E+02 0.  0.
    5000000    2    1    2    0    0 -0.32485066468E+03 -0.66351406349E+03 -0.36084535602E+03  0.10177493626E+04  0.59985458841E+03 0.  0.
         23    2    4    4    0    0 -0.66039973247E+02  0.52473616348E+02 -0.19798853762E+03  0.23374334001E+03  0.91223513914E+02 0.  0.
         23    2    4    4    0    0 -0.25881069144E+03 -0.71598767984E+03 -0.16285681840E+03  0.78400602255E+03  0.92313424890E+02 0.  0.
          1    1    3    3  502    0  0.18990051997E+03  0.43804509128E+03 -0.24618440337E+03  0.53717080147E+03  0.00000000000E+00 0. -1.
         -1    1    3    3    0  502  0.13495014471E+03  0.22546897220E+03 -0.74331428202E+02  0.27308050132E+03  0.00000000000E+00 0.  1.
         13    1    5    5    0    0 -0.61776333558E+02  0.32655052678E+02 -0.20140795500E+03  0.21318497177E+03  0.00000000000E+00 0. -1.
        -13    1    5    5    0    0 -0.42636396883E+01  0.19818563670E+02  0.34194173783E+01  0.20558368236E+02  0.00000000000E+00 0.  1.
          2    1    6    6  503    0 -0.36341285632E+02 -0.45213210703E+02  0.30518389015E+01  0.58088184548E+02  0.00000000000E+00 0.  1.
         -2    1    6    6    0  503 -0.22246940580E+03 -0.67077446913E+03 -0.16590865731E+03  0.72591783800E+03  0.00000000000E+00 0. -1.
<mgrwt>
<rscale>  0 0.79753324E+03</rscale>
<asrwt>0</asrwt>
<pdfrwt beam="1">  1        3 0.88203037E-01 0.79753324E+03</pdfrwt>
<pdfrwt beam="2">  1       -3 0.19302783E+00 0.79753324E+03</pdfrwt>
<totfact> 0.49145865E-01</totfact>
</mgrwt>
</event>
<event>
12    1  0.1444206E-007  0.9579880E+03  0.7818608E-02  0.9355862E-01
          2   -1    0    0  501    0  0.00000000000E+00  0.00000000000E+00  0.13155428777E+04  0.13155428777E+04  0.00000000000E+00 0. -1.
         -2   -1    0    0    0  501 -0.00000000000E+00 -0.00000000000E+00 -0.72650083969E+03  0.72650083969E+03  0.00000000000E+00 0.  1.
         23    2    1    2    0    0  0.51268740001E+03 -0.70516052151E+03  0.41340290896E+03  0.96928309059E+03  0.92238892781E+02 0.  0.
    5000000    2    1    2    0    0 -0.51268740001E+03  0.70516052151E+03  0.17563912907E+03  0.10727606268E+04  0.59988876269E+03 0.  0.
         23    2    4    4    0    0 -0.25274958229E+03  0.72984852755E+03  0.16565711869E+03  0.79525914833E+03  0.91834674897E+02 0.  0.
         23    2    4    4    0    0 -0.25993781772E+03 -0.24688006045E+02  0.99820103795E+01  0.27750147850E+03  0.93435878099E+02 0.  0.
          4    1    3    3  502    0  0.27256701956E+03 -0.29711635367E+03  0.19523789847E+03  0.44798297375E+03  0.00000000000E+00 0.  1.
         -4    1    3    3    0  502  0.24012038044E+03 -0.40804416784E+03  0.21816501049E+03  0.52130011683E+03  0.00000000000E+00 0. -1.
         11    1    5    5    0    0 -0.13388035978E+02  0.12528511277E+03  0.83337537507E+01  0.12627371239E+03  0.00000000000E+00 0.  1.
        -11    1    5    5    0    0 -0.23936154631E+03  0.60456341479E+03  0.15732336494E+03  0.66898543595E+03  0.00000000000E+00 0. -1.
          3    1    6    6  503    0 -0.16736399562E+03 -0.31396101295E+02  0.48430552918E+02  0.17703655177E+03  0.00000000000E+00 0. -1.
         -3    1    6    6    0  503 -0.92573822091E+02  0.67080952506E+01 -0.38448542538E+02  0.10046492672E+03  0.00000000000E+00 0.  1.
<mgrwt>
<rscale>  0 0.95798798E+03</rscale>
<asrwt>0</asrwt>
<pdfrwt beam="1">  1        2 0.20239121E+00 0.95798798E+03</pdfrwt>
<pdfrwt beam="2">  1       -2 0.11176936E+00 0.95798798E+03</pdfrwt>
<totfact> 0.10209680E+01</totfact>
</mgrwt>
</event>
<event>
12    1  0.1444206E-007  0.1106118E+04  0.7818608E-02  0.9199249E-01
          2   -1    0    0  501    0  0.00000000000E+00  0.00000000000E+00  0.84858834447E+03  0.84858834447E+03  0.00000000000E+00 0. -1.
         -2   -1    0    0    0  501 -0.00000000000E+00 -0.00000000000E+00 -0.23807128628E+04  0.23807128628E+04  0.00000000000E+00 0.  1.
         23    2    1    2    0    0  0.91196139494E+02  0.10672058633E+04 -0.16781589307E+04  0.19929231411E+04  0.90995378910E+02 0.  0.
    5000000    2    1    2    0    0 -0.91196139494E+02 -0.10672058633E+04  0.14603441236E+03  0.12363780662E+04  0.60004965008E+03 0.  0.
         23    2    4    4    0    0 -0.20632919199E+03 -0.35777058679E+03  0.26923437111E+03  0.50149931135E+03  0.91885169959E+02 0.  0.
         23    2    4    4    0    0  0.11513305249E+03 -0.70943527649E+03 -0.12319995874E+03  0.73487875488E+03  0.91184007530E+02 0.  0.
          1    1    3    3  502    0  0.42995515878E+02  0.89718327133E+03 -0.14064958282E+04  0.16688370056E+04  0.00000000000E+00 0. -1.
         -1    1    3    3    0  502  0.48200623616E+02  0.17002259195E+03 -0.27166310258E+03  0.32408613546E+03  0.00000000000E+00 0.  1.
         13    1    5    5    0    0 -0.40542038093E+02 -0.29012061970E+02  0.90909503698E+01  0.50675457286E+02  0.00000000000E+00 0.  1.
        -13    1    5    5    0    0 -0.16578715389E+03 -0.32875852482E+03  0.26014342074E+03  0.45082385406E+03  0.00000000000E+00 0. -1.
          2    1    6    6  503    0  0.11247253569E+03 -0.64292671407E+03 -0.85183964129E+02  0.65822575055E+03  0.00000000000E+00 0. -1.
         -2    1    6    6    0  503  0.26605168012E+01 -0.66508562422E+02 -0.38015994616E+02  0.76653004323E+02  0.00000000000E+00 0.  1.
<mgrwt>
<rscale>  0 0.11061182E+04</rscale>
<asrwt>0</asrwt>
<pdfrwt beam="1">  1        2 0.13055205E+00 0.11061182E+04</pdfrwt>
<pdfrwt beam="2">  1       -2 0.36626352E+00 0.11061182E+04</pdfrwt>
<totfact> 0.38954037E-01</totfact>
</mgrwt>
</event>
<event>
12    1  0.1444206E-007  0.1094357E+04  0.7818608E-02  0.9210709E-01
          1   -1    0    0  501    0  0.00000000000E+00  0.00000000000E+00  0.28728433069E+04  0.28728433069E+04  0.00000000000E+00 0. -1.
         -1   -1    0    0    0  501 -0.00000000000E+00 -0.00000000000E+00 -0.54053392371E+03  0.54053392371E+03  0.00000000000E+00 0.  1.
         23    2    1    2    0    0 -0.10901304877E+04 -0.49928674958E+02  0.51392662101E+03  0.12094251991E+04  0.87814506419E+02 0.  0.
    5000000    2    1    2    0    0  0.10901304877E+04  0.49928674958E+02  0.18183827622E+04  0.22039520316E+04  0.60000944543E+03 0.  0.
         23    2    4    4    0    0  0.24920835931E+03  0.13236525068E+02  0.96887130849E+03  0.10046109532E+04  0.90838003778E+02 0.  0.
         23    2    4    4    0    0  0.84092212843E+03  0.36692149890E+02  0.84951145373E+03  0.11993410784E+04  0.90845870969E+02 0.  0.
          2    1    3    3  502    0 -0.81797347337E+03  0.63152886937E+00  0.38137310620E+03  0.90251119001E+03  0.00000000000E+00 0.  1.
         -2    1    3    3    0  502 -0.27215701437E+03 -0.50560203828E+02  0.13255351481E+03  0.30691400908E+03  0.00000000000E+00 0. -1.
         11    1    5    5    0    0  0.23867817235E+02  0.18606101222E+00  0.24997790821E+03  0.25111483809E+03  0.00000000000E+00 0. -1.
        -11    1    5    5    0    0  0.22534054207E+03  0.13050464056E+02  0.71889340028E+03  0.75349611511E+03  0.00000000000E+00 0.  1.
          2    1    6    6  503    0  0.59643124984E+03 -0.42417944977E+01  0.63915492721E+03  0.87422379834E+03  0.00000000000E+00 0. -1.
         -2    1    6    6    0  503  0.24449087859E+03  0.40933944388E+02  0.21035652651E+03  0.32511728002E+03  0.00000000000E+00 0.  1.
<mgrwt>
<rscale>  0 0.10943571E+04</rscale>
<asrwt>0</asrwt>
<pdfrwt beam="1">  1        1 0.44197588E+00 0.10943571E+04</pdfrwt>
<pdfrwt beam="2">  1       -1 0.83159067E-01 0.10943571E+04</pdfrwt>
<totfact> 0.10723447E+00</totfact>
</mgrwt>
</event>
<event>
12    1  0.1444206E-007  0.7979673E+03  0.7818608E-02  0.9562964E-01
         -2   -1    0    0    0  501 -0.00000000000E+00  0.00000000000E+00  0.25306962266E+04  0.25306962266E+04  0.00000000000E+00 0.  1.
          2   -1    0    0  501    0  0.00000000000E+00 -0.00000000000E+00 -0.98637621795E+03  0.98637621795E+03  0.00000000000E+00 0. -1.
         23    2    1    2    0    0  0.39901148855E+03  0.56183226161E+03 -0.76482916733E+03  0.10336430146E+04  0.92674528136E+02 0.  0.
    5000000    2    1    2    0    0 -0.39901148855E+03 -0.56183226161E+03  0.23091491760E+04  0.24834294300E+04  0.60032171263E+03 0.  0.
         23    2    4    4    0    0 -0.26624812505E+03 -0.66533639369E+03  0.17677058789E+04  0.19093991333E+04  0.86373577445E+02 0.  0.
         23    2    4    4    0    0 -0.13276336350E+03  0.10350413208E+03  0.54144329709E+03  0.57403029676E+03  0.89502634530E+02 0.  0.
          4    1    3    3  502    0  0.22748304794E+03  0.39164244067E+03 -0.52150949053E+03  0.69072750572E+03  0.00000000000E+00 0.  1.
         -4    1    3    3    0  502  0.17152844060E+03  0.17018982093E+03 -0.24331967680E+03  0.34291550884E+03  0.00000000000E+00 0. -1.
         11    1    5    5    0    0 -0.22963823550E+03 -0.58047153310E+03  0.14534487313E+04  0.15818325241E+04  0.00000000000E+00 0.  1.
        -11    1    5    5    0    0 -0.36609889543E+02 -0.84864860593E+02  0.31425714763E+03  0.32756660912E+03  0.00000000000E+00 0. -1.
          3    1    6    6  503    0 -0.10462348034E+03  0.34449646699E+02  0.38950409444E+03  0.40477931071E+03  0.00000000000E+00 0. -1.
         -3    1    6    6    0  503 -0.28139883166E+02  0.69054485383E+02  0.15193920265E+03  0.16925098605E+03  0.00000000000E+00 0.  1.
<mgrwt>
<rscale>  0 0.79796734E+03</rscale>
<asrwt>0</asrwt>
<pdfrwt beam="1">  1        2 0.15175019E+00 0.79796734E+03</pdfrwt>
<pdfrwt beam="2">  1       -2 0.38933788E+00 0.79796734E+03</pdfrwt>
<totfact> 0.23637993E-01</totfact>
</mgrwt>
</event>
<event>
12    1  0.1444206E-007  0.7335739E+03  0.7818608E-02  0.9661479E-01
         -2   -1    0    0    0  501 -0.00000000000E+00  0.00000000000E+00  0.14271845074E+04  0.14271845074E+04  0.00000000000E+00 0.  1.
          2   -1    0    0  501    0  0.00000000000E+00 -0.00000000000E+00 -0.69648697965E+03  0.69648697965E+03  0.00000000000E+00 0. -1.
         23    2    1    2    0    0 -0.55504367564E+03 -0.29289054178E+03 -0.36158840999E+03  0.72831124987E+03  0.76372423832E+02 0.  0.
    5000000    2    1    2    0    0  0.55504367564E+03  0.29289054178E+03  0.10922859377E+04  0.13953602372E+04  0.60006938799E+03 0.  0.
         23    2    4    4    0    0  0.42650822297E+03  0.45775248194E+03  0.71184626894E+03  0.95211041111E+03  0.91337425929E+02 0.  0.
         23    2    4    4    0    0  0.12853545267E+03 -0.16486194016E+03  0.38043966880E+03  0.44324982607E+03  0.89639527031E+02 0.  0.
          2    1    3    3  502    0 -0.36827508334E+03 -0.22760315998E+03 -0.22515361622E+03  0.48797939130E+03  0.00000000000E+00 0. -1.
         -2    1    3    3    0  502 -0.18676859230E+03 -0.65287381800E+02 -0.13643479377E+03  0.24033185857E+03  0.00000000000E+00 0.  1.
         13    1    5    5    0    0  0.45173151572E+02  0.48537669085E+02  0.38240318052E+02  0.76543065446E+02  0.00000000000E+00 0. -1.
        -13    1    5    5    0    0  0.38133507140E+03  0.40921481285E+03  0.67360595088E+03  0.87556734567E+03  0.00000000000E+00 0.  1.
          4    1    6    6  503    0  0.44716258357E+01 -0.17566409176E+02  0.10862297660E+03  0.11012504354E+03  0.00000000000E+00 0. -1.
         -4    1    6    6    0  503  0.12406382684E+03 -0.14729553098E+03  0.27181669220E+03  0.33312478253E+03  0.00000000000E+00 0.  1.
<mgrwt>
<rscale>  0 0.73357395E+03</rscale>
<asrwt>0</asrwt>
<pdfrwt beam="1">  1        2 0.10715184E+00 0.73357395E+03</pdfrwt>
<pdfrwt beam="2">  1       -2 0.21956685E+00 0.73357395E+03</pdfrwt>
<totfact> 0.42106423E+00</totfact>
</mgrwt>
</event>
<event>
12    1  0.1444206E-007  0.7230514E+03  0.7818608E-02  0.9678603E-01
          1   -1    0    0  501    0  0.00000000000E+00  0.00000000000E+00  0.63556314282E+03  0.63556314282E+03  0.00000000000E+00 0. -1.
         -1   -1    0    0    0  501 -0.00000000000E+00 -0.00000000000E+00 -0.14940195436E+04  0.14940195436E+04  0.00000000000E+00 0.  1.
         23    2    1    2    0    0 -0.12360888707E+03 -0.64793578901E+03 -0.10239003777E+04  0.12228519772E+04  0.10906434364E+03 0.  0.
    5000000    2    1    2    0    0  0.12360888707E+03  0.64793578901E+03  0.16544397688E+03  0.90673070926E+03  0.59974071563E+03 0.  0.
         23    2    4    4    0    0 -0.11269822581E+03  0.61130954596E+02 -0.12901370044E+03  0.20290968484E+03  0.89943991402E+02 0.  0.
         23    2    4    4    0    0  0.23630711288E+03  0.58680483441E+03  0.29445767732E+03  0.70382102442E+03  0.92074672912E+02 0.  0.
          1    1    3    3  502    0 -0.94555678341E+02 -0.57158019833E+03 -0.94984157186E+03  0.11125842490E+04  0.00000000000E+00 0. -1.
         -1    1    3    3    0  502 -0.29053208727E+02 -0.76355590679E+02 -0.74058805805E+02  0.11026772820E+03  0.00000000000E+00 0.  1.
         11    1    5    5    0    0  0.97808189984E+01 -0.11891730554E+01 -0.35114388995E+02  0.36470520524E+02  0.00000000000E+00 0. -1.
        -11    1    5    5    0    0 -0.12247904481E+03  0.62320127652E+02 -0.93899311449E+02  0.16643916432E+03  0.00000000000E+00 0.  1.
          2    1    6    6  503    0  0.51779592217E+02  0.58219297905E+02  0.52216549458E+02  0.93793287905E+02  0.00000000000E+00 0. -1.
         -2    1    6    6    0  503  0.18452752066E+03  0.52858553651E+03  0.24224112786E+03  0.61002773651E+03  0.00000000000E+00 0.  1.
<mgrwt>
<rscale>  0 0.72305143E+03</rscale>
<asrwt>0</asrwt>
<pdfrwt beam="1">  1        1 0.97778945E-01 0.72305143E+03</pdfrwt>
<pdfrwt beam="2">  1       -1 0.22984916E+00 0.72305143E+03</pdfrwt>
<totfact> 0.31152940E+00</totfact>
</mgrwt>
</event>
<event>
12    1  0.1444206E-007  0.1104232E+04  0.7818608E-02  0.9201077E-01
         -2   -1    0    0    0  501 -0.00000000000E+00  0.00000000000E+00  0.85350768814E+03  0.85350768814E+03  0.00000000000E+00 0.  1.
          2   -1    0    0  501    0  0.00000000000E+00 -0.00000000000E+00 -0.15943173103E+04  0.15943173103E+04  0.00000000000E+00 0. -1.
         23    2    1    2    0    0 -0.64043002114E+03  0.87863626044E+03 -0.33414632865E+03  0.11412220297E+04  0.92637259868E+02 0.  0.
    5000000    2    1    2    0    0  0.64043002114E+03 -0.87863626044E+03 -0.40666329354E+03  0.13066029688E+04  0.59973660354E+03 0.  0.
         23    2    4    4    0    0  0.53120504347E+03 -0.55973185010E+03 -0.52652447929E+03  0.93851744866E+03  0.90046831925E+02 0.  0.
         23    2    4    4    0    0  0.10922497767E+03 -0.31890441035E+03  0.11986118574E+03  0.36808552014E+03  0.86545523305E+02 0.  0.
          3    1    3    3  502    0 -0.11601387963E+03  0.21150208729E+03 -0.50186666716E+02  0.24639613371E+03  0.00000000000E+00 0. -1.
         -3    1    3    3    0  502 -0.52441614152E+03  0.66713417315E+03 -0.28395966194E+03  0.89482589596E+03  0.00000000000E+00 0.  1.
         13    1    5    5    0    0  0.44679128488E+02 -0.17059326659E+02 -0.26862254233E+02  0.54852765208E+02  0.00000000000E+00 0.  1.
        -13    1    5    5    0    0  0.48652591498E+03 -0.54267252344E+03 -0.49966222505E+03  0.88366468345E+03  0.00000000000E+00 0. -1.
          2    1    6    6  503    0  0.65257564329E+02 -0.26244685625E+03  0.12157051776E+03  0.29650681754E+03  0.00000000000E+00 0. -1.
         -2    1    6    6    0  503  0.43967413343E+02 -0.56457554094E+02 -0.17093320148E+01  0.71578702603E+02  0.00000000000E+00 0.  1.
<mgrwt>
<rscale>  0 0.11042317E+04</rscale>
<asrwt>0</asrwt>
<pdfrwt beam="1">  1        2 0.24527958E+00 0.11042317E+04</pdfrwt>
<pdfrwt beam="2">  1       -2 0.13130888E+00 0.11042317E+04</pdfrwt>
<totfact> 0.46753069E+00</totfact>
</mgrwt>
</event>
<event>
12    1  0.1444206E-007  0.1342254E+04  0.7818608E-02  0.8996712E-01
         -2   -1    0    0    0  501 -0.00000000000E+00  0.00000000000E+00  0.90799969947E+03  0.90799969947E+03  0.00000000000E+00 0.  1.
          2   -1    0    0  501    0  0.00000000000E+00 -0.00000000000E+00 -0.20812988222E+04  0.20812988222E+04  0.00000000000E+00 0. -1.
         23    2    1    2    0    0  0.12995799642E+04  0.65363598841E+02 -0.69884519572E+03  0.14798482808E+04  0.91574249540E+02 0.  0.
    5000000    2    1    2    0    0 -0.12995799642E+04 -0.65363598841E+02 -0.47445392703E+03  0.15094502409E+04  0.60012750096E+03 0.  0.
         23    2    4    4    0    0 -0.10432634044E+04 -0.21673833858E+03 -0.18719033468E+03  0.10850398693E+04  0.83049733471E+02 0.  0.
         23    2    4    4    0    0 -0.25631655978E+03  0.15137473974E+03 -0.28726359235E+03  0.42441037154E+03  0.94822472740E+02 0.  0.
          4    1    3    3  502    0  0.67851949048E+03  0.73530747968E+02 -0.39229043746E+03  0.78720217046E+03  0.00000000000E+00 0. -1.
         -4    1    3    3    0  502  0.62106047374E+03 -0.81671491269E+01 -0.30655475825E+03  0.69264611034E+03  0.00000000000E+00 0.  1.
         11    1    5    5    0    0 -0.61655068413E+01  0.50315166410E+01 -0.35497878488E+01  0.87138182268E+01  0.00000000000E+00 0.  1.
        -11    1    5    5    0    0 -0.10370978976E+04 -0.22176985522E+03 -0.18364054683E+03  0.10763260511E+04  0.00000000000E+00 0. -1.
          2    1    6    6  503    0 -0.14860471111E+03  0.13986882467E+03 -0.18971415595E+03  0.27863615926E+03  0.00000000000E+00 0. -1.
         -2    1    6    6    0  503 -0.10771184867E+03  0.11505915065E+02 -0.97549436404E+02  0.14577421229E+03  0.00000000000E+00 0.  1.
<mgrwt>
<rscale>  0 0.13422541E+04</rscale>
<asrwt>0</asrwt>
<pdfrwt beam="1">  1        2 0.32019981E+00 0.13422541E+04</pdfrwt>
<pdfrwt beam="2">  1       -2 0.13969226E+00 0.13422541E+04</pdfrwt>
<totfact> 0.20875793E+00</totfact>
</mgrwt>
</event>
<event>
12    1  0.1444206E-007  0.3501176E+03  0.7818608E-02  0.1062567E+00
          2   -1    0    0  501    0  0.00000000000E+00  0.00000000000E+00  0.17414643045E+03  0.17414643045E+03  0.00000000000E+00 0. -1.
         -2   -1    0    0    0  501 -0.00000000000E+00 -0.00000000000E+00 -0.17608641643E+04  0.17608641643E+04  0.00000000000E+00 0.  1.
         23    2    1    2    0    0  0.16516998000E+03 -0.27673517699E+03 -0.92909609666E+03  0.98798645717E+03  0.95048420536E+02 0.  0.
    5000000    2    1    2    0    0 -0.16516998000E+03  0.27673517699E+03 -0.65762163715E+03  0.94702413754E+03  0.60043735639E+03 0.  0.
         23    2    4    4    0    0  0.15933274879E+02  0.11678612560E+03 -0.67358730802E+03  0.68976024780E+03  0.90313174777E+02 0.  0.
         23    2    4    4    0    0 -0.18110325488E+03  0.15994905139E+03  0.15965670868E+02  0.25726388974E+03  0.86877605566E+02 0.  0.
          2    1    3    3  502    0  0.30361785550E+02 -0.12162202448E+03 -0.43902028246E+03  0.45656605576E+03  0.00000000000E+00 0. -1.
         -2    1    3    3    0  502  0.13480819445E+03 -0.15511315251E+03 -0.49007581420E+03  0.53142040141E+03  0.00000000000E+00 0.  1.
         11    1    5    5    0    0  0.99324253556E+01  0.98404904204E+02 -0.30435723330E+03  0.32002422362E+03  0.00000000000E+00 0.  1.
        -11    1    5    5    0    0  0.60008495237E+01  0.18381221399E+02 -0.36923007472E+03  0.36973602418E+03  0.00000000000E+00 0. -1.
          1    1    6    6  503    0 -0.85536878076E+02  0.31764952672E+02 -0.19931111696E+02  0.93396032800E+02  0.00000000000E+00 0. -1.
         -1    1    6    6    0  503 -0.95566376800E+02  0.12818409872E+03  0.35896782564E+02  0.16386785694E+03  0.00000000000E+00 0.  1.
<mgrwt>
<rscale>  0 0.35011761E+03</rscale>
<asrwt>0</asrwt>
<pdfrwt beam="1">  1        2 0.26791760E-01 0.35011761E+03</pdfrwt>
<pdfrwt beam="2">  1       -2 0.27090217E+00 0.35011761E+03</pdfrwt>
<totfact> 0.10602724E+01</totfact>
</mgrwt>
</event>
<event>
12    1  0.1444206E-007  0.9574619E+03  0.7818608E-02  0.9356471E-01
          1   -1    0    0  501    0  0.00000000000E+00  0.00000000000E+00  0.14314955400E+04  0.14314955400E+04  0.00000000000E+00 0. -1.
         -1   -1    0    0    0  501 -0.00000000000E+00 -0.00000000000E+00 -0.71501369334E+03  0.71501369334E+03  0.00000000000E+00 0.  1.
         23    2    1    2    0    0 -0.11823817295E+03 -0.90208924054E+03  0.47180899142E+03  0.10292954934E+04  0.95395099152E+02 0.  0.
    5000000    2    1    2    0    0  0.11823817295E+03  0.90208924054E+03  0.24467285525E+03  0.11172137399E+04  0.60046354687E+03 0.  0.
         23    2    4    4    0    0  0.76468556836E+01  0.85580953699E+03  0.35215829478E+02  0.86150592507E+03  0.92107905656E+02 0.  0.
         23    2    4    4    0    0  0.11059131727E+03  0.46279703556E+02  0.20945702577E+03  0.25570781485E+03  0.84510298259E+02 0.  0.
          3    1    3    3  502    0 -0.77512609684E+02 -0.46174577102E+03  0.19238761000E+03  0.50619201317E+03  0.00000000000E+00 0. -1.
         -3    1    3    3    0  502 -0.40725563271E+02 -0.44034346952E+03  0.27942138142E+03  0.52310348025E+03  0.00000000000E+00 0.  1.
         13    1    5    5    0    0 -0.35087161987E+02  0.62802350638E+03  0.28528969612E+02  0.62964953396E+03  0.00000000000E+00 0. -1.
        -13    1    5    5    0    0  0.42734017671E+02  0.22778603061E+03  0.66868598663E+01  0.23185639112E+03  0.00000000000E+00 0.  1.
          3    1    6    6  503    0  0.72150009786E+02 -0.12770472397E+02  0.13218472395E+03  0.15113407995E+03  0.00000000000E+00 0. -1.
         -3    1    6    6    0  503  0.38441307485E+02  0.59050175952E+02  0.77272301829E+02  0.10457373490E+03  0.00000000000E+00 0.  1.
<mgrwt>
<rscale>  0 0.95746195E+03</rscale>
<asrwt>0</asrwt>
<pdfrwt beam="1">  1        1 0.22023008E+00 0.95746195E+03</pdfrwt>
<pdfrwt beam="2">  1       -1 0.11000211E+00 0.95746195E+03</pdfrwt>
<totfact> 0.56291134E+00</totfact>
</mgrwt>
</event>
<event>
12    1  0.1444206E-007  0.5014991E+03  0.7818608E-02  0.1013388E+00
          1   -1    0    0  501    0  0.00000000000E+00  0.00000000000E+00  0.24145957616E+04  0.24145957616E+04  0.00000000000E+00 0. -1.
         -1   -1    0    0    0  501 -0.00000000000E+00 -0.00000000000E+00 -0.35283012567E+03  0.35283012567E+03  0.00000000000E+00 0.  1.
         23    2    1    2    0    0 -0.42945665608E+03 -0.12709627644E+03 -0.11008891137E+03  0.47014959658E+03  0.91293985653E+02 0.  0.
    5000000    2    1    2    0    0  0.42945665608E+03  0.12709627644E+03  0.21718545473E+04  0.22972762907E+04  0.59994974641E+03 0.  0.
         23    2    4    4    0    0  0.85832355176E+02  0.16057285333E+03  0.16646564111E+04  0.16770492213E+04  0.90897136262E+02 0.  0.
         23    2    4    4    0    0  0.34362430091E+03 -0.33476576890E+02  0.50719813627E+03  0.62022706941E+03  0.90737681406E+02 0.  0.
          2    1    3    3  502    0 -0.32018594750E+03 -0.55400641918E+02 -0.95261881273E+02  0.33861940010E+03  0.00000000000E+00 0. -1.
         -2    1    3    3    0  502 -0.10927070859E+03 -0.71695634521E+02 -0.14827030099E+02  0.13153019648E+03  0.00000000000E+00 0.  1.
         13    1    5    5    0    0 -0.67904706229E+00 -0.50811027565E+01  0.25586289143E+03  0.25591423938E+03  0.00000000000E+00 0.  1.
        -13    1    5    5    0    0  0.86511402239E+02  0.16565395609E+03  0.14087935196E+04  0.14211349819E+04  0.00000000000E+00 0. -1.
          2    1    6    6  503    0  0.10891422250E+03 -0.50447644506E+02  0.20001791716E+03  0.23326902899E+03  0.00000000000E+00 0.  1.
         -2    1    6    6    0  503  0.23471007840E+03  0.16971067616E+02  0.30718021911E+03  0.38695804043E+03  0.00000000000E+00 0. -1.
<mgrwt>
<rscale>  0 0.50149913E+03</rscale>
<asrwt>0</asrwt>
<pdfrwt beam="1">  1        1 0.37147626E+00 0.50149913E+03</pdfrwt>
<pdfrwt beam="2">  1       -1 0.54281559E-01 0.50149913E+03</pdfrwt>
<totfact> 0.59330035E+00</totfact>
</mgrwt>
</event>
<event>
12    1  0.1444206E-007  0.1139866E+04  0.7818608E-02  0.9167184E-01
         -1   -1    0    0    0  501 -0.00000000000E+00  0.00000000000E+00  0.79359432643E+03  0.79359432643E+03  0.00000000000E+00 0.  1.
          1   -1    0    0  501    0  0.00000000000E+00 -0.00000000000E+00 -0.18810832256E+04  0.18810832256E+04  0.00000000000E+00 0. -1.
         23    2    1    2    0    0  0.26543140043E+03 -0.10459557158E+04 -0.93484158671E+03  0.14306206623E+04  0.90936788124E+02 0.  0.
    5000000    2    1    2    0    0 -0.26543140043E+03  0.10459557158E+04 -0.15264731247E+03  0.12440568898E+04  0.59991595685E+03 0.  0.
         23    2    4    4    0    0  0.89053397980E+01  0.85820842442E+03 -0.22617033189E+03  0.89156640647E+03  0.84478596583E+02 0.  0.
         23    2    4    4    0    0 -0.27433674023E+03  0.18774729134E+03  0.73523019427E+02  0.35249048329E+03  0.91291916311E+02 0.  0.
          4    1    3    3  502    0  0.22320246496E+03 -0.74056948013E+03 -0.69797946160E+03  0.10418434739E+04  0.00000000000E+00 0. -1.
         -4    1    3    3    0  502  0.42228935464E+02 -0.30538623563E+03 -0.23686212511E+03  0.38877718839E+03  0.00000000000E+00 0.  1.
         11    1    5    5    0    0  0.62392330103E+01  0.61839142230E+03 -0.12325580478E+03  0.63058613418E+03  0.00000000000E+00 0.  1.
        -11    1    5    5    0    0  0.26661067877E+01  0.23981700212E+03 -0.10291452712E+03  0.26098027229E+03  0.00000000000E+00 0. -1.
          2    1    6    6  503    0 -0.22433464796E+03  0.11681799562E+03  0.80496887453E+02  0.26542838444E+03  0.00000000000E+00 0.  1.
         -2    1    6    6    0  503 -0.50002092265E+02  0.70929295711E+02 -0.69738680260E+01  0.87062098850E+02  0.00000000000E+00 0. -1.
<mgrwt>
<rscale>  0 0.11398656E+04</rscale>
<asrwt>0</asrwt>
<pdfrwt beam="1">  1        1 0.28939742E+00 0.11398656E+04</pdfrwt>
<pdfrwt beam="2">  1       -1 0.12209144E+00 0.11398656E+04</pdfrwt>
<totfact> 0.21099272E+00</totfact>
</mgrwt>
</event>
<event>
12    1  0.1444206E-007  0.1050242E+04  0.7818608E-02  0.9255094E-01
         -2   -1    0    0    0  501 -0.00000000000E+00  0.00000000000E+00  0.90485682015E+03  0.90485682015E+03  0.00000000000E+00 0.  1.
          2   -1    0    0  501    0  0.00000000000E+00 -0.00000000000E+00 -0.13836653641E+04  0.13836653641E+04  0.00000000000E+00 0. -1.
         23    2    1    2    0    0 -0.55146599207E+03  0.87234759891E+03 -0.32144517697E+03  0.10847313252E+04  0.90608897779E+02 0.  0.
    5000000    2    1    2    0    0  0.55146599207E+03 -0.87234759891E+03 -0.15736336701E+03  0.12037908591E+04  0.59936977685E+03 0.  0.
         23    2    4    4    0    0  0.12721774308E+03 -0.39820912824E+03 -0.32766640100E+03  0.53912701202E+03  0.92400220676E+02 0.  0.
         23    2    4    4    0    0  0.42424824900E+03 -0.47413847066E+03  0.17030303399E+03  0.66466384706E+03  0.89336666933E+02 0.  0.
          4    1    3    3  502    0 -0.32690649574E+03  0.55617079838E+03 -0.24094453625E+03  0.68865672397E+03  0.00000000000E+00 0. -1.
         -4    1    3    3    0  502 -0.22455949633E+03  0.31617680053E+03 -0.80500640721E+02  0.39607460123E+03  0.00000000000E+00 0.  1.
         11    1    5    5    0    0  0.15582543606E+02 -0.17967542582E+03 -0.16713830515E+03  0.24588877029E+03  0.00000000000E+00 0.  1.
        -11    1    5    5    0    0  0.11163519947E+03 -0.21853370243E+03 -0.16052809585E+03  0.29323824173E+03  0.00000000000E+00 0. -1.
          4    1    6    6  503    0  0.36319454601E+03 -0.35471516253E+03  0.12220347456E+03  0.52217507981E+03  0.00000000000E+00 0. -1.
         -4    1    6    6    0  503  0.61053702986E+02 -0.11942330814E+03  0.48099559430E+02  0.14248876725E+03  0.00000000000E+00 0.  1.
<mgrwt>
<rscale>  0 0.10502419E+04</rscale>
<asrwt>0</asrwt>
<pdfrwt beam="1">  1        2 0.21287160E+00 0.10502419E+04</pdfrwt>
<pdfrwt beam="2">  1       -2 0.13920874E+00 0.10502419E+04</pdfrwt>
<totfact> 0.53200207E+00</totfact>
</mgrwt>
</event>
<event>
12    1  0.1444206E-007  0.1818595E+04  0.7818608E-02  0.8696473E-01
         -2   -1    0    0    0  501 -0.00000000000E+00  0.00000000000E+00  0.16497708243E+04  0.16497708243E+04  0.00000000000E+00 0.  1.
          2   -1    0    0  501    0  0.00000000000E+00 -0.00000000000E+00 -0.20353156765E+04  0.20353156765E+04  0.00000000000E+00 0. -1.
         23    2    1    2    0    0  0.98992395179E+03  0.14761179126E+04 -0.31839258061E+03  0.18080284326E+04  0.93378024630E+02 0.  0.
    5000000    2    1    2    0    0 -0.98992395179E+03 -0.14761179126E+04 -0.67152271607E+02  0.18770580682E+04  0.59997003379E+03 0.  0.
         23    2    4    4    0    0  0.46742981040E+02 -0.22975682641E+03 -0.29856837733E+02  0.25290333483E+03  0.89975332446E+02 0.  0.
         23    2    4    4    0    0 -0.10366669328E+04 -0.12463610862E+04 -0.37295433874E+02  0.16241547334E+04  0.91615291511E+02 0.  0.
          1    1    3    3  502    0  0.61098163660E+03  0.90414644416E+03 -0.24140259186E+03  0.11176110970E+04  0.00000000000E+00 0. -1.
         -1    1    3    3    0  502  0.37894231519E+03  0.57197146849E+03 -0.76989988753E+02  0.69041733566E+03  0.00000000000E+00 0.  1.
         13    1    5    5    0    0  0.32119794864E+02 -0.21668756888E+03 -0.22842681706E+01  0.21906711668E+03  0.00000000000E+00 0. -1.
        -13    1    5    5    0    0  0.14623186176E+02 -0.13069257532E+02 -0.27572569563E+02  0.33836218149E+02  0.00000000000E+00 0.  1.
          3    1    6    6  503    0 -0.76259445471E+03 -0.92490778309E+03 -0.67461144452E+02  0.12006480398E+04  0.00000000000E+00 0. -1.
         -3    1    6    6    0  503 -0.27407247812E+03 -0.32145330314E+03  0.30165710578E+02  0.42350669352E+03  0.00000000000E+00 0.  1.
<mgrwt>
<rscale>  0 0.18185947E+04</rscale>
<asrwt>0</asrwt>
<pdfrwt beam="1">  1        2 0.31312549E+00 0.18185947E+04</pdfrwt>
<pdfrwt beam="2">  1       -2 0.25381090E+00 0.18185947E+04</pdfrwt>
<totfact> 0.35297021E-01</totfact>
</mgrwt>
</event>
<event>
12    1  0.1444206E-007  0.1110587E+04  0.7818608E-02  0.9194934E-01
          2   -1    0    0  501    0  0.00000000000E+00  0.00000000000E+00  0.24709556924E+04  0.24709556924E+04  0.00000000000E+00 0. -1.
         -2   -1    0    0    0  501 -0.00000000000E+00 -0.00000000000E+00 -0.76890388197E+03  0.76890388197E+03  0.00000000000E+00 0.  1.
         23    2    1    2    0    0 -0.10838306877E+04 -0.72576219889E+02  0.16751731222E+04  0.19986349674E+04  0.91544940031E+02 0.  0.
    5000000    2    1    2    0    0  0.10838306877E+04  0.72576219889E+02  0.26878688270E+02  0.12412246071E+04  0.59996649399E+03 0.  0.
         23    2    4    4    0    0  0.28914379129E+03 -0.10681723369E+03 -0.21531886203E+03  0.38633295664E+03  0.88751831432E+02 0.  0.
         23    2    4    4    0    0  0.79468689644E+03  0.17939345358E+03  0.24219755030E+03  0.85489165041E+03  0.92036981779E+02 0.  0.
          2    1    3    3  502    0 -0.55204220823E+03  0.36818118882E+01  0.81008361492E+03  0.98030588011E+03  0.00000000000E+00 0. -1.
         -2    1    3    3    0  502 -0.53178847950E+03 -0.76258031778E+02  0.86508950728E+03  0.10183290873E+04  0.00000000000E+00 0.  1.
         13    1    5    5    0    0  0.23250201600E+03 -0.59474566913E+02 -0.19644431988E+03  0.31013671561E+03  0.00000000000E+00 0. -1.
        -13    1    5    5    0    0  0.56641775292E+02 -0.47342666778E+02 -0.18874542147E+02  0.76196241030E+02  0.00000000000E+00 0.  1.
          1    1    6    6  503    0  0.12412896477E+03  0.56377652860E+02  0.61763576360E+02  0.14967023419E+03  0.00000000000E+00 0. -1.
         -1    1    6    6    0  503  0.67055793167E+03  0.12301580072E+03  0.18043397394E+03  0.70522141623E+03  0.00000000000E+00 0.  1.
<mgrwt>
<rscale>  0 0.11105866E+04</rscale>
<asrwt>0</asrwt>
<pdfrwt beam="1">  1        2 0.38014703E+00 0.11105866E+04</pdfrwt>
<pdfrwt beam="2">  1       -2 0.11829291E+00 0.11105866E+04</pdfrwt>
<totfact> 0.19742798E+00</totfact>
</mgrwt>
</event>
<event>
12    1  0.1444206E-007  0.4212578E+03  0.7818608E-02  0.1036658E+00
         -2   -1    0    0    0  501 -0.00000000000E+00  0.00000000000E+00  0.30565677182E+03  0.30565677182E+03  0.00000000000E+00 0.  1.
          2   -1    0    0  501    0  0.00000000000E+00 -0.00000000000E+00 -0.74075127275E+03  0.74075127275E+03  0.00000000000E+00 0. -1.
         23    2    1    2    0    0 -0.17776742823E+03 -0.18663083841E+03 -0.24545005012E+02  0.27512177308E+03  0.93044099036E+02 0.  0.
    5000000    2    1    2    0    0  0.17776742823E+03  0.18663083841E+03 -0.41054949592E+03  0.77128627149E+03  0.59991607380E+03 0.  0.
         23    2    4    4    0    0  0.22422411258E+03  0.34524711484E+03 -0.40313853161E+03  0.58317782693E+03  0.90020437598E+02 0.  0.
         23    2    4    4    0    0 -0.46456684357E+02 -0.15861627643E+03 -0.74109643165E+01  0.18810844456E+03  0.89512668684E+02 0.  0.
          4    1    3    3  502    0 -0.87081899605E+02 -0.64409309550E+02  0.31721518035E+02  0.11286306350E+03  0.00000000000E+00 0. -1.
         -4    1    3    3    0  502 -0.90685528622E+02 -0.12222152886E+03 -0.56266523047E+02  0.16225870958E+03  0.00000000000E+00 0.  1.
         13    1    5    5    0    0  0.70960695210E+02  0.10983590795E+03 -0.18960985695E+03  0.23032855835E+03  0.00000000000E+00 0.  1.
        -13    1    5    5    0    0  0.15326341737E+03  0.23541120689E+03 -0.21352867466E+03  0.35284926858E+03  0.00000000000E+00 0. -1.
          1    1    6    6  503    0 -0.54269800590E+02 -0.14011351797E+03  0.22651159417E+02  0.15195421744E+03  0.00000000000E+00 0. -1.
         -1    1    6    6    0  503  0.78131162329E+01 -0.18502758459E+02 -0.30062123733E+02  0.36154227128E+02  0.00000000000E+00 0.  1.
<mgrwt>
<rscale>  0 0.42125782E+03</rscale>
<asrwt>0</asrwt>
<pdfrwt beam="1">  1        2 0.11396174E+00 0.42125782E+03</pdfrwt>
<pdfrwt beam="2">  1       -2 0.47024118E-01 0.42125782E+03</pdfrwt>
<totfact> 0.16882146E+02</totfact>
</mgrwt>
</event>
<event>
12    1  0.1444206E-007  0.7743075E+03  0.7818608E-02  0.9597969E-01
         -1   -1    0    0    0  501 -0.00000000000E+00  0.00000000000E+00  0.35974397907E+03  0.35974397907E+03  0.00000000000E+00 0.  1.
          1   -1    0    0  501    0  0.00000000000E+00 -0.00000000000E+00 -0.24041235082E+04  0.24041235082E+04  0.00000000000E+00 0. -1.
         23    2    1    2    0    0 -0.46512971126E+03  0.54480009656E+03 -0.29369617080E+03  0.77945939187E+03  0.90259123209E+02 0.  0.
    5000000    2    1    2    0    0  0.46512971126E+03 -0.54480009656E+03 -0.17506833583E+04  0.19844080954E+04  0.59985871207E+03 0.  0.
         23    2    4    4    0    0  0.64602145030E+02  0.40426453770E+02 -0.72575716147E+03  0.73553645562E+03  0.92101491924E+02 0.  0.
         23    2    4    4    0    0  0.40052756623E+03 -0.58522655033E+03 -0.10249261969E+04  0.12488716398E+04  0.79336102184E+02 0.  0.
          1    1    3    3  502    0 -0.24762421009E+03  0.30669120048E+03 -0.20837281590E+03  0.44586598018E+03  0.00000000000E+00 0. -1.
         -1    1    3    3    0  502 -0.21750550117E+03  0.23810889609E+03 -0.85323354896E+02  0.33359341169E+03  0.00000000000E+00 0.  1.
         13    1    5    5    0    0  0.76481325961E+02  0.59530950114E+02 -0.60180425934E+03  0.60955860572E+03  0.00000000000E+00 0. -1.
        -13    1    5    5    0    0 -0.11879180930E+02 -0.19104496345E+02 -0.12395290213E+03  0.12597784991E+03  0.00000000000E+00 0.  1.
          4    1    6    6  503    0  0.14944096522E+03 -0.27915261288E+03 -0.42175112536E+03  0.52738296816E+03  0.00000000000E+00 0. -1.
         -4    1    6    6    0  503  0.25108660100E+03 -0.30607393745E+03 -0.60317507150E+03  0.72148867161E+03  0.00000000000E+00 0.  1.
<mgrwt>
<rscale>  0 0.77430747E+03</rscale>
<asrwt>0</asrwt>
<pdfrwt beam="1">  1        1 0.36986516E+00 0.77430747E+03</pdfrwt>
<pdfrwt beam="2">  1       -1 0.55345227E-01 0.77430747E+03</pdfrwt>
<totfact> 0.54801475E+00</totfact>
</mgrwt>
</event>
<event>
12    1  0.1444206E-007  0.1105812E+04  0.7818608E-02  0.9199546E-01
          2   -1    0    0  501    0  0.00000000000E+00  0.00000000000E+00  0.17582802820E+04  0.17582802820E+04  0.00000000000E+00 0.  1.
         -2   -1    0    0    0  501 -0.00000000000E+00 -0.00000000000E+00 -0.80144670210E+03  0.80144670210E+03  0.00000000000E+00 0. -1.
         23    2    1    2    0    0  0.92001087108E+03  0.60488763986E+03  0.59523169746E+03  0.12547612715E+04  0.88408229472E+02 0.  0.
    5000000    2    1    2    0    0 -0.92001087108E+03 -0.60488763986E+03  0.36160188240E+03  0.13049657126E+04  0.59989209850E+03 0.  0.
         23    2    4    4    0    0 -0.42112173026E+03 -0.28830511702E+03  0.46710462527E+03  0.69783814562E+03  0.91257845288E+02 0.  0.
         23    2    4    4    0    0 -0.49888914082E+03 -0.31658252284E+03 -0.10550274287E+03  0.60712756695E+03  0.91423110844E+02 0.  0.
          1    1    3    3  502    0  0.63224085507E+03  0.38742124331E+03  0.36124692869E+03  0.82481698702E+03  0.00000000000E+00 0. -1.
         -1    1    3    3    0  502  0.28777001601E+03  0.21746639655E+03  0.23398476877E+03  0.42994428449E+03  0.00000000000E+00 0.  1.
         13    1    5    5    0    0 -0.26477593623E+03 -0.13410589130E+03  0.29889485666E+03  0.42122300724E+03  0.00000000000E+00 0. -1.
        -13    1    5    5    0    0 -0.15634579403E+03 -0.15419922571E+03  0.16820976861E+03  0.27661513837E+03  0.00000000000E+00 0.  1.
          4    1    6    6  503    0 -0.72592308794E+02 -0.68456644278E+02 -0.47404645732E+02  0.11046789524E+03  0.00000000000E+00 0. -1.
         -4    1    6    6    0  503 -0.42629683203E+03 -0.24812587856E+03 -0.58098097140E+02  0.49665967171E+03  0.00000000000E+00 0.  1.
<mgrwt>
<rscale>  0 0.11058116E+04</rscale>
<asrwt>0</asrwt>
<pdfrwt beam="1">  1        2 0.27050466E+00 0.11058116E+04</pdfrwt>
<pdfrwt beam="2">  1       -2 0.12329949E+00 0.11058116E+04</pdfrwt>
<totfact> 0.44455907E+00</totfact>
</mgrwt>
</event>
<event>
12    1  0.1444206E-007  0.5921158E+03  0.7818608E-02  0.9921900E-01
          1   -1    0    0  501    0  0.00000000000E+00  0.00000000000E+00  0.10824908514E+04  0.10824908514E+04  0.00000000000E+00 0.  1.
         -1   -1    0    0    0  501 -0.00000000000E+00 -0.00000000000E+00 -0.34849238147E+03  0.34849238147E+03  0.00000000000E+00 0. -1.
         23    2    1    2    0    0  0.39240078729E+03  0.24388742033E+03  0.30111181894E+03  0.55890744907E+03  0.90828175501E+02 0.  0.
    5000000    2    1    2    0    0 -0.39240078729E+03 -0.24388742033E+03  0.43288665101E+03  0.87207578382E+03  0.59972149240E+03 0.  0.
         23    2    4    4    0    0 -0.60742893462E+02 -0.35081758075E+03  0.97730378055E+02  0.38044571055E+03  0.91788004728E+02 0.  0.
         23    2    4    4    0    0 -0.33165789382E+03  0.10693016042E+03  0.33515627296E+03  0.49163007327E+03  0.89103220451E+02 0.  0.
          2    1    3    3  502    0  0.97574258273E+02  0.82295026639E+02  0.12792953586E+03  0.18071849222E+03  0.00000000000E+00 0. -1.
         -2    1    3    3    0  502  0.29482652901E+03  0.16159239369E+03  0.17318228309E+03  0.37818895685E+03  0.00000000000E+00 0.  1.
         11    1    5    5    0    0 -0.40580767310E+02 -0.32698890364E+03  0.66207154880E+02  0.33608321757E+03  0.00000000000E+00 0.  1.
        -11    1    5    5    0    0 -0.20162126152E+02 -0.23828677118E+02  0.31523223176E+02  0.44362492981E+02  0.00000000000E+00 0. -1.
          1    1    6    6  503    0 -0.13697249477E+03  0.90759726883E+02  0.15512288885E+03  0.22596880978E+03  0.00000000000E+00 0. -1.
         -1    1    6    6    0  503 -0.19468539905E+03  0.16170433539E+02  0.18003338411E+03  0.26566126349E+03  0.00000000000E+00 0.  1.
<mgrwt>
<rscale>  0 0.59211583E+03</rscale>
<asrwt>0</asrwt>
<pdfrwt beam="1">  1        1 0.16653705E+00 0.59211583E+03</pdfrwt>
<pdfrwt beam="2">  1       -1 0.53614213E-01 0.59211583E+03</pdfrwt>
<totfact> 0.47891988E+01</totfact>
</mgrwt>
</event>
<event>
12    1  0.1444206E-007  0.1474203E+04  0.7818608E-02  0.8901792E-01
         -1   -1    0    0    0  501 -0.00000000000E+00  0.00000000000E+00  0.12090911974E+04  0.12090911974E+04  0.00000000000E+00 0.  1.
          1   -1    0    0  501    0  0.00000000000E+00 -0.00000000000E+00 -0.18168407151E+04  0.18168407151E+04  0.00000000000E+00 0. -1.
         23    2    1    2    0    0 -0.12329336560E+04 -0.69808503722E+03 -0.39103840681E+03  0.14721044012E+04  0.82050065023E+02 0.  0.
    5000000    2    1    2    0    0  0.12329336560E+04  0.69808503722E+03 -0.21671111089E+03  0.15538275113E+04  0.59997342434E+03 0.  0.
         23    2    4    4    0    0  0.91120988501E+03  0.77006015246E+03 -0.19385578332E+03  0.12122298160E+04  0.92870711785E+02 0.  0.
         23    2    4    4    0    0  0.32172377098E+03 -0.71975115235E+02 -0.22855327566E+02  0.34159769528E+03  0.86487093791E+02 0.  0.
          4    1    3    3  502    0 -0.76850079062E+03 -0.45319780574E+03 -0.28375524288E+03  0.93621512174E+03  0.00000000000E+00 0. -1.
         -4    1    3    3    0  502 -0.46443286538E+03 -0.24488723148E+03 -0.10728316392E+03  0.53588927947E+03  0.00000000000E+00 0.  1.
         11    1    5    5    0    0  0.31520752949E+01  0.15979125443E+02 -0.26171668406E+01  0.16495987113E+02  0.00000000000E+00 0. -1.
        -11    1    5    5    0    0  0.90805780972E+03  0.75408102701E+03 -0.19123861648E+03  0.11957338289E+04  0.00000000000E+00 0.  1.
          1    1    6    6  503    0  0.29652111906E+03 -0.49173667503E+02  0.12557471872E+00  0.30057085587E+03  0.00000000000E+00 0.  1.
         -1    1    6    6    0  503  0.25202651921E+02 -0.22801447732E+02 -0.22980902285E+02  0.41026839414E+02  0.00000000000E+00 0. -1.
<mgrwt>
<rscale>  0 0.14742025E+04</rscale>
<asrwt>0</asrwt>
<pdfrwt beam="1">  1        1 0.27951396E+00 0.14742025E+04</pdfrwt>
<pdfrwt beam="2">  1       -1 0.18601403E+00 0.14742025E+04</pdfrwt>
<totfact> 0.71032680E-01</totfact>
</mgrwt>
</event>
<event>
12    1  0.1444206E-007  0.1322016E+04  0.7818608E-02  0.9012286E-01
          2   -1    0    0  501    0  0.00000000000E+00  0.00000000000E+00  0.18319872511E+04  0.18319872511E+04  0.00000000000E+00 0. -1.
         -2   -1    0    0    0  501 -0.00000000000E+00 -0.00000000000E+00 -0.97907359876E+03  0.97907359876E+03  0.00000000000E+00 0.  1.
         23    2    1    2    0    0 -0.18354891933E+03  0.12501839403E+04  0.54339866647E+03  0.13784655408E+04  0.90747154350E+02 0.  0.
    5000000    2    1    2    0    0  0.18354891933E+03 -0.12501839403E+04  0.30951498585E+03  0.14325953091E+04  0.59989974400E+03 0.  0.
         23    2    4    4    0    0 -0.18529696833E+03 -0.53561987958E+03  0.24277779242E+02  0.57455136609E+03  0.91083696834E+02 0.  0.
         23    2    4    4    0    0  0.36884588766E+03 -0.71456406069E+03  0.28523720661E+03  0.85804394300E+03  0.90719669408E+02 0.  0.
          1    1    3    3  502    0 -0.13797927821E+03  0.63743031924E+03  0.29209183051E+03  0.71461411303E+03  0.00000000000E+00 0. -1.
         -1    1    3    3    0  502 -0.45569641115E+02  0.61275362103E+03  0.25130683596E+03  0.66385142772E+03  0.00000000000E+00 0.  1.
         13    1    5    5    0    0 -0.63297780941E+02 -0.82464421884E+02  0.16052038457E+02  0.10518867756E+03  0.00000000000E+00 0. -1.
        -13    1    5    5    0    0 -0.12199918739E+03 -0.45315545770E+03  0.82257407857E+01  0.46936268852E+03  0.00000000000E+00 0.  1.
          4    1    6    6  503    0  0.29699901657E+03 -0.57437441138E+03  0.26658487970E+03  0.69941538328E+03  0.00000000000E+00 0. -1.
         -4    1    6    6    0  503  0.71846871091E+02 -0.14018964931E+03  0.18652326909E+02  0.15862855972E+03  0.00000000000E+00 0.  1.
<mgrwt>
<rscale>  0 0.13220159E+04</rscale>
<asrwt>0</asrwt>
<pdfrwt beam="1">  1        2 0.28184419E+00 0.13220159E+04</pdfrwt>
<pdfrwt beam="2">  1       -2 0.15062671E+00 0.13220159E+04</pdfrwt>
<totfact> 0.23574345E+00</totfact>
</mgrwt>
</event>
<event>
12    1  0.1444206E-007  0.8891797E+03  0.7818608E-02  0.9439209E-01
          1   -1    0    0  501    0  0.00000000000E+00  0.00000000000E+00  0.22223499171E+04  0.22223499171E+04  0.00000000000E+00 0. -1.
         -1   -1    0    0    0  501 -0.00000000000E+00 -0.00000000000E+00 -0.41434421107E+03  0.41434421107E+03  0.00000000000E+00 0.  1.
         23    2    1    2    0    0 -0.77389630397E+03 -0.20710217944E+03  0.12611573819E+04  0.14968238376E+04  0.90315318838E+02 0.  0.
    5000000    2    1    2    0    0  0.77389630397E+03  0.20710217944E+03  0.54684832406E+03  0.11398702905E+04  0.59871060426E+03 0.  0.
         23    2    4    4    0    0  0.40986971803E+02  0.22857216017E+03  0.21740235123E+03  0.33097362822E+03  0.91403479130E+02 0.  0.
         23    2    4    4    0    0  0.73290933216E+03 -0.21469980727E+02  0.32944597283E+03  0.80889666229E+03  0.90344407737E+02 0.  0.
          1    1    3    3  502    0 -0.13422882902E+03 -0.55382775368E+02  0.28616476904E+03  0.32089703238E+03  0.00000000000E+00 0. -1.
         -1    1    3    3    0  502 -0.63966747495E+03 -0.15171940407E+03  0.97499261290E+03  0.11759268052E+04  0.00000000000E+00 0.  1.
         13    1    5    5    0    0 -0.14507329754E+01  0.13167678534E+03  0.68821940219E+02  0.14858445369E+03  0.00000000000E+00 0.  1.
        -13    1    5    5    0    0  0.42437704778E+02  0.96895374831E+02  0.14858041101E+03  0.18238917453E+03  0.00000000000E+00 0. -1.
          3    1    6    6  503    0  0.16260288381E+03  0.31097138338E+02  0.61645428010E+02  0.17665471585E+03  0.00000000000E+00 0. -1.
         -3    1    6    6    0  503  0.57030644835E+03 -0.52567119065E+02  0.26780054482E+03  0.63224194644E+03  0.00000000000E+00 0.  1.
<mgrwt>
<rscale>  0 0.88917966E+03</rscale>
<asrwt>0</asrwt>
<pdfrwt beam="1">  1        1 0.34189998E+00 0.88917966E+03</pdfrwt>
<pdfrwt beam="2">  1       -1 0.63745265E-01 0.88917966E+03</pdfrwt>
<totfact> 0.54069579E+00</totfact>
</mgrwt>
</event>
<event>
12    1  0.1444206E-007  0.6755799E+03  0.7818608E-02  0.9759930E-01
         -1   -1    0    0    0  501 -0.00000000000E+00  0.00000000000E+00  0.65186092145E+03  0.65186092145E+03  0.00000000000E+00 0.  1.
          1   -1    0    0  501    0  0.00000000000E+00 -0.00000000000E+00 -0.88518748987E+03  0.88518748987E+03  0.00000000000E+00 0. -1.
         23    2    1    2    0    0 -0.36445763391E+03  0.51994446651E+03 -0.15555129748E+03  0.65994344007E+03  0.90319005596E+02 0.  0.
    5000000    2    1    2    0    0  0.36445763391E+03 -0.51994446651E+03 -0.77775270944E+02  0.87710497125E+03  0.60007709726E+03 0.  0.
         23    2    4    4    0    0 -0.13882466171E+02 -0.51139142671E+02 -0.22649661025E+03  0.24987518016E+03  0.91263116459E+02 0.  0.
         23    2    4    4    0    0  0.37834010008E+03 -0.46880532384E+03  0.14872133931E+03  0.62722979109E+03  0.91539669422E+02 0.  0.
          3    1    3    3  502    0 -0.24666888809E+03  0.27560173696E+03 -0.98466832165E+02  0.38275001607E+03  0.00000000000E+00 0. -1.
         -3    1    3    3    0  502 -0.11778874582E+03  0.24434272955E+03 -0.57084465314E+02  0.27719342399E+03  0.00000000000E+00 0.  1.
         13    1    5    5    0    0 -0.45967442655E+02 -0.56043739882E+02 -0.14375464128E+03  0.16099473113E+03  0.00000000000E+00 0. -1.
        -13    1    5    5    0    0  0.32084976484E+02  0.49045972104E+01 -0.82741968976E+02  0.88880449030E+02  0.00000000000E+00 0.  1.
          4    1    6    6  503    0  0.15348758661E+03 -0.14703963849E+03  0.17246833790E+02  0.21325231021E+03  0.00000000000E+00 0.  1.
         -4    1    6    6    0  503  0.22485251347E+03 -0.32176568534E+03  0.13147450552E+03  0.41397748088E+03  0.00000000000E+00 0. -1.
<mgrwt>
<rscale>  0 0.67557987E+03</rscale>
<asrwt>0</asrwt>
<pdfrwt beam="1">  1        1 0.13618269E+00 0.67557987E+03</pdfrwt>
<pdfrwt beam="2">  1       -1 0.10028630E+00 0.67557987E+03</pdfrwt>
<totfact> 0.18401692E+01</totfact>
</mgrwt>
</event>
<event>
12    1  0.1444206E-007  0.5206156E+03  0.7818608E-02  0.1008534E+00
          1   -1    0    0  501    0  0.00000000000E+00  0.00000000000E+00  0.98720280328E+03  0.98720280328E+03  0.00000000000E+00 0. -1.
         -1   -1    0    0    0  501 -0.00000000000E+00 -0.00000000000E+00 -0.57223805871E+03  0.57223805871E+03  0.00000000000E+00 0.  1.
         23    2    1    2    0    0 -0.21630747369E+02 -0.45657699407E+03 -0.26839256229E+03  0.54181444519E+03  0.11224029926E+03 0.  0.
    5000000    2    1    2    0    0  0.21630747369E+02  0.45657699407E+03  0.68335730686E+03  0.10176264168E+04  0.59971316025E+03 0.  0.
         23    2    4    4    0    0 -0.93566132460E+01  0.47956716656E+03  0.75328706126E+03  0.89770711804E+03  0.91457420018E+02 0.  0.
         23    2    4    4    0    0  0.30987360615E+02 -0.22990172490E+02 -0.69929754394E+02  0.11991929875E+03  0.89452239293E+02 0.  0.
          2    1    3    3  502    0 -0.88090345888E+01 -0.12850509010E+03 -0.20519949764E+02  0.13043092275E+03  0.00000000000E+00 0. -1.
         -2    1    3    3    0  502 -0.12821712780E+02 -0.32807190397E+03 -0.24787261252E+03  0.41138352244E+03  0.00000000000E+00 0.  1.
         13    1    5    5    0    0  0.12227445189E+02  0.45037923518E+03  0.71353342889E+03  0.84387257335E+03  0.00000000000E+00 0. -1.
        -13    1    5    5    0    0 -0.21584058435E+02  0.29187931376E+02  0.39753632362E+02  0.53834544695E+02  0.00000000000E+00 0.  1.
          1    1    6    6  503    0  0.62570267958E+02 -0.19177234696E+02 -0.43754719088E+02  0.78722806133E+02  0.00000000000E+00 0. -1.
         -1    1    6    6    0  503 -0.31582907343E+02 -0.38129377939E+01 -0.26175035306E+02  0.41196492619E+02  0.00000000000E+00 0.  1.
<mgrwt>
<rscale>  0 0.52061560E+03</rscale>
<asrwt>0</asrwt>
<pdfrwt beam="1">  1        1 0.15187735E+00 0.52061560E+03</pdfrwt>
<pdfrwt beam="2">  1       -1 0.88036624E-01 0.52061560E+03</pdfrwt>
<totfact> 0.20886299E+01</totfact>
</mgrwt>
</event>
<event>
12    1  0.1444206E-007  0.7268699E+03  0.7818608E-02  0.9672353E-01
          1   -1    0    0  501    0  0.00000000000E+00  0.00000000000E+00  0.40416656152E+03  0.40416656152E+03  0.00000000000E+00 0. -1.
         -1   -1    0    0    0  501 -0.00000000000E+00 -0.00000000000E+00 -0.16821041632E+04  0.16821041632E+04  0.00000000000E+00 0.  1.
         23    2    1    2    0    0  0.68803700118E+03  0.25099269071E+02 -0.32650984041E+03  0.76742779949E+03  0.91169420557E+02 0.  0.
    5000000    2    1    2    0    0 -0.68803700118E+03 -0.25099269071E+02 -0.95142776131E+03  0.13188429253E+04  0.60008915026E+03 0.  0.
         23    2    4    4    0    0 -0.80875019632E+01 -0.67565535663E+02 -0.46109080527E+03  0.47457218317E+03  0.89350529031E+02 0.  0.
         23    2    4    4    0    0 -0.67994949922E+03  0.42466266592E+02 -0.49033695604E+03  0.84427074211E+03  0.90708600672E+02 0.  0.
          2    1    3    3  502    0  0.15004284157E+03  0.43360266515E+02 -0.71112568487E+02  0.17160991934E+03  0.00000000000E+00 0. -1.
         -2    1    3    3    0  502  0.53799415961E+03 -0.18260997444E+02 -0.25539727192E+03  0.59581788015E+03  0.00000000000E+00 0.  1.
         11    1    5    5    0    0 -0.95393593113E+01 -0.69311900764E+02 -0.17493713920E+03  0.18840950516E+03  0.00000000000E+00 0.  1.
        -11    1    5    5    0    0  0.14518573481E+01  0.17463651008E+01 -0.28615366607E+03  0.28616267801E+03  0.00000000000E+00 0. -1.
          4    1    6    6  503    0 -0.54414778481E+03  0.69445347187E+02 -0.40089030831E+03  0.67943543273E+03  0.00000000000E+00 0. -1.
         -4    1    6    6    0  503 -0.13580171441E+03 -0.26979080595E+02 -0.89446647735E+02  0.16483530937E+03  0.00000000000E+00 0.  1.
<mgrwt>
<rscale>  0 0.72686987E+03</rscale>
<asrwt>0</asrwt>
<pdfrwt beam="1">  1        1 0.62179472E-01 0.72686987E+03</pdfrwt>
<pdfrwt beam="2">  1       -1 0.25878525E+00 0.72686987E+03</pdfrwt>
<totfact> 0.37821950E+00</totfact>
</mgrwt>
</event>
<event>
12    1  0.1444206E-007  0.6918542E+03  0.7818608E-02  0.9731265E-01
          2   -1    0    0  501    0  0.00000000000E+00  0.00000000000E+00  0.91923558032E+03  0.91923558032E+03  0.00000000000E+00 0. -1.
         -2   -1    0    0    0  501 -0.00000000000E+00 -0.00000000000E+00 -0.66516849633E+03  0.66516849633E+03  0.00000000000E+00 0.  1.
         23    2    1    2    0    0  0.58330319574E+03  0.10698667740E+03 -0.19232828321E+03  0.63000489198E+03  0.90704068781E+02 0.  0.
    5000000    2    1    2    0    0 -0.58330319574E+03 -0.10698667740E+03  0.44639536720E+03  0.95439918468E+03  0.59993350678E+03 0.  0.
         23    2    4    4    0    0 -0.54471698176E+03  0.10292712725E+03  0.15671274322E+03  0.58318331227E+03  0.90737578160E+02 0.  0.
         23    2    4    4    0    0 -0.38586213983E+02 -0.20991380464E+03  0.28968262398E+03  0.37121587241E+03  0.91282528441E+02 0.  0.
          3    1    3    3  502    0  0.34862989092E+03  0.10194841503E+03 -0.91765393093E+02  0.37464271986E+03  0.00000000000E+00 0. -1.
         -3    1    3    3    0  502  0.23467330482E+03  0.50382623625E+01 -0.10056289012E+03  0.25536217212E+03  0.00000000000E+00 0.  1.
         13    1    5    5    0    0 -0.32128120070E+03  0.61346575226E+02  0.45749510426E+02  0.33026963215E+03  0.00000000000E+00 0. -1.
        -13    1    5    5    0    0 -0.22343578105E+03  0.41580552022E+02  0.11096323279E+03  0.25291368012E+03  0.00000000000E+00 0.  1.
          1    1    6    6  503    0 -0.52144962028E+02 -0.21141572519E+03  0.26474551792E+03  0.34279132892E+03  0.00000000000E+00 0. -1.
         -1    1    6    6    0  503  0.13558748045E+02  0.15019205419E+01  0.24937106060E+02  0.28424543488E+02  0.00000000000E+00 0.  1.
<mgrwt>
<rscale>  0 0.69185418E+03</rscale>
<asrwt>0</asrwt>
<pdfrwt beam="1">  1        2 0.14142086E+00 0.69185418E+03</pdfrwt>
<pdfrwt beam="2">  1       -2 0.10233361E+00 0.69185418E+03</pdfrwt>
<totfact> 0.22731784E+01</totfact>
</mgrwt>
</event>
<event>
12    1  0.1444206E-007  0.5932384E+03  0.7818608E-02  0.9919534E-01
          4   -1    0    0  501    0  0.00000000000E+00  0.00000000000E+00  0.76559383566E+03  0.76559383566E+03  0.00000000000E+00 0. -1.
         -4   -1    0    0    0  501 -0.00000000000E+00 -0.00000000000E+00 -0.65166635589E+03  0.65166635589E+03  0.00000000000E+00 0.  1.
         23    2    1    2    0    0 -0.43010073889E+03  0.21860502112E+03 -0.26623412377E+03  0.55861020623E+03  0.91596686552E+02 0.  0.
    5000000    2    1    2    0    0  0.43010073889E+03 -0.21860502112E+03  0.38016160354E+03  0.85864998532E+03  0.59998512617E+03 0.  0.
         23    2    4    4    0    0  0.10713651886E+03  0.15737677279E+03  0.27258548229E+03  0.34377870358E+03  0.87380029737E+02 0.  0.
         23    2    4    4    0    0  0.32296422003E+03 -0.37598179391E+03  0.10757612126E+03  0.51487128173E+03  0.88609356820E+02 0.  0.
          2    1    3    3  502    0 -0.15492554985E+03  0.36208774098E+02 -0.64233057947E+02  0.17157764146E+03  0.00000000000E+00 0. -1.
         -2    1    3    3    0  502 -0.27517518905E+03  0.18239624702E+03 -0.20200106583E+03  0.38703256477E+03  0.00000000000E+00 0.  1.
         13    1    5    5    0    0  0.65066965445E+02  0.43281656521E+02  0.58688486175E+02  0.97731009372E+02  0.00000000000E+00 0. -1.
        -13    1    5    5    0    0  0.42069553413E+02  0.11409511627E+03  0.21389699611E+03  0.24604769421E+03  0.00000000000E+00 0.  1.
          1    1    6    6  503    0  0.33662833147E+02 -0.21520144225E+02 -0.12461181804E+02  0.41851929405E+02  0.00000000000E+00 0. -1.
         -1    1    6    6    0  503  0.28930138689E+03 -0.35446164969E+03  0.12003730306E+03  0.47301935233E+03  0.00000000000E+00 0.  1.
<mgrwt>
<rscale>  0 0.59323843E+03</rscale>
<asrwt>0</asrwt>
<pdfrwt beam="1">  1        4 0.11778367E+00 0.59323843E+03</pdfrwt>
<pdfrwt beam="2">  1       -4 0.10025636E+00 0.59323843E+03</pdfrwt>
<totfact> 0.88988339E-01</totfact>
</mgrwt>
</event>
<event>
12    1  0.1444206E-007  0.6914513E+03  0.7818608E-02  0.9731964E-01
          2   -1    0    0  501    0  0.00000000000E+00  0.00000000000E+00  0.51094862242E+03  0.51094862242E+03  0.00000000000E+00 0. -1.
         -2   -1    0    0    0  501 -0.00000000000E+00 -0.00000000000E+00 -0.10323425929E+04  0.10323425929E+04  0.00000000000E+00 0.  1.
         23    2    1    2    0    0  0.26957055102E+03 -0.53064814496E+03 -0.28195093714E+03  0.66486797422E+03  0.91089826369E+02 0.  0.
    5000000    2    1    2    0    0 -0.26957055102E+03  0.53064814496E+03 -0.23944303330E+03  0.87842324106E+03  0.60003223956E+03 0.  0.
         23    2    4    4    0    0 -0.41027533863E+03  0.45690206328E+03 -0.29583823837E+03  0.68706852021E+03  0.86357045292E+02 0.  0.
         23    2    4    4    0    0  0.14070478762E+03  0.73746081683E+02  0.56395205066E+02  0.19135472085E+03  0.90553234144E+02 0.  0.
          2    1    3    3  502    0  0.14408525938E+03 -0.18567661476E+03 -0.11226263777E+03  0.26045972257E+03  0.00000000000E+00 0. -1.
         -2    1    3    3    0  502  0.12548529163E+03 -0.34497153019E+03 -0.16968829937E+03  0.40440825165E+03  0.00000000000E+00 0.  1.
         13    1    5    5    0    0 -0.18766338030E+03  0.23001907339E+03 -0.97746712942E+02  0.31253917886E+03  0.00000000000E+00 0. -1.
        -13    1    5    5    0    0 -0.22261195833E+03  0.22688298989E+03 -0.19809152543E+03  0.37452934136E+03  0.00000000000E+00 0.  1.
          3    1    6    6  503    0  0.30345831139E+02  0.40909963317E+02  0.56692774624E+02  0.76213944004E+02  0.00000000000E+00 0. -1.
         -3    1    6    6    0  503  0.11035895648E+03  0.32836118366E+02 -0.29756955839E+00  0.11514077684E+03  0.00000000000E+00 0.  1.
<mgrwt>
<rscale>  0 0.69145125E+03</rscale>
<asrwt>0</asrwt>
<pdfrwt beam="1">  1        2 0.78607481E-01 0.69145125E+03</pdfrwt>
<pdfrwt beam="2">  1       -2 0.15882194E+00 0.69145125E+03</pdfrwt>
<totfact> 0.15743628E+01</totfact>
</mgrwt>
</event>
<event>
12    1  0.1444206E-007  0.1013405E+04  0.7818608E-02  0.9293964E-01
         -1   -1    0    0    0  501 -0.00000000000E+00  0.00000000000E+00  0.17857610862E+04  0.17857610862E+04  0.00000000000E+00 0.  1.
          1   -1    0    0  501    0  0.00000000000E+00 -0.00000000000E+00 -0.61686470507E+03  0.61686470507E+03  0.00000000000E+00 0. -1.
         23    2    1    2    0    0  0.22980045654E+03 -0.90412533076E+03  0.27127497718E+03  0.97577707855E+03  0.91103952855E+02 0.  0.
    5000000    2    1    2    0    0 -0.22980045654E+03  0.90412533076E+03  0.89762140399E+03  0.14268487128E+04  0.59993516370E+03 0.  0.
         23    2    4    4    0    0 -0.29332696684E+03  0.13996425085E+03  0.25682331424E+03  0.42429793846E+03  0.91868519392E+02 0.  0.
         23    2    4    4    0    0  0.63526510295E+02  0.76416107992E+03  0.64079808975E+03  0.10025507743E+04  0.80672731759E+02 0.  0.
          3    1    3    3  502    0  0.64204539967E+02 -0.36891045396E+03  0.73182369264E+02  0.38154004398E+03  0.00000000000E+00 0. -1.
         -3    1    3    3    0  502  0.16559591658E+03 -0.53521487681E+03  0.19809260792E+03  0.59423703457E+03  0.00000000000E+00 0.  1.
         13    1    5    5    0    0 -0.91809716095E+02  0.47301991484E+02  0.13892782087E+03  0.17311106776E+03  0.00000000000E+00 0. -1.
        -13    1    5    5    0    0 -0.20151725074E+03  0.92662259361E+02  0.11789549337E+03  0.25118687070E+03  0.00000000000E+00 0.  1.
          1    1    6    6  503    0  0.15468874679E+02  0.29644602985E+03  0.19904396944E+03  0.35740458373E+03  0.00000000000E+00 0. -1.
         -1    1    6    6    0  503  0.48057635616E+02  0.46771505006E+03  0.44175412030E+03  0.64514619057E+03  0.00000000000E+00 0.  1.
<mgrwt>
<rscale>  0 0.10134046E+04</rscale>
<asrwt>0</asrwt>
<pdfrwt beam="1">  1        1 0.94902263E-01 0.10134046E+04</pdfrwt>
<pdfrwt beam="2">  1       -1 0.27473247E+00 0.10134046E+04</pdfrwt>
<totfact> 0.15982512E+00</totfact>
</mgrwt>
</event>
<event>
12    1  0.1444206E-007  0.6063394E+03  0.7818608E-02  0.9892340E-01
         -1   -1    0    0    0  501 -0.00000000000E+00  0.00000000000E+00  0.16528894139E+04  0.16528894139E+04  0.00000000000E+00 0.  1.
          1   -1    0    0  501    0  0.00000000000E+00 -0.00000000000E+00 -0.34406333024E+03  0.34406333024E+03  0.00000000000E+00 0. -1.
         23    2    1    2    0    0  0.31238376396E+03 -0.45524169603E+03  0.95807080099E+03  0.11095360389E+04  0.91334244097E+02 0.  0.
    5000000    2    1    2    0    0 -0.31238376396E+03  0.45524169603E+03  0.35075528263E+03  0.88741670518E+03  0.59970869808E+03 0.  0.
         23    2    4    4    0    0 -0.36837817189E+03  0.34748109160E+03  0.46806438750E+03  0.69568164185E+03  0.91886285249E+02 0.  0.
         23    2    4    4    0    0  0.55994407932E+02  0.10776060443E+03 -0.11730910487E+03  0.19173506333E+03  0.90847051898E+02 0.  0.
          2    1    3    3  502    0  0.10809125179E+03 -0.19915863943E+03  0.46924059118E+03  0.52108983370E+03  0.00000000000E+00 0. -1.
         -2    1    3    3    0  502  0.20429251218E+03 -0.25608305660E+03  0.48883020981E+03  0.58844620521E+03  0.00000000000E+00 0.  1.
         13    1    5    5    0    0 -0.37195750630E+03  0.34853126353E+03  0.45921948670E+03  0.68608233115E+03  0.00000000000E+00 0. -1.
        -13    1    5    5    0    0  0.35793344028E+01 -0.10501719297E+01  0.88449007978E+01  0.95993107029E+01  0.00000000000E+00 0.  1.
          3    1    6    6  503    0 -0.50752735197E+01  0.76044384323E+02 -0.89398317980E+02  0.11747581047E+03  0.00000000000E+00 0. -1.
         -3    1    6    6    0  503  0.61069681452E+02  0.31716220107E+02 -0.27910786890E+02  0.74259252860E+02  0.00000000000E+00 0.  1.
<mgrwt>
<rscale>  0 0.60633936E+03</rscale>
<asrwt>0</asrwt>
<pdfrwt beam="1">  1        1 0.52932821E-01 0.60633936E+03</pdfrwt>
<pdfrwt beam="2">  1       -1 0.25429068E+00 0.60633936E+03</pdfrwt>
<totfact> 0.50928377E+00</totfact>
</mgrwt>
</event>
<event>
12    1  0.1444206E-007  0.4721881E+03  0.7818608E-02  0.1021304E+00
          1   -1    0    0  501    0  0.00000000000E+00  0.00000000000E+00  0.70346751420E+03  0.70346751420E+03  0.00000000000E+00 0.  1.
         -1   -1    0    0    0  501 -0.00000000000E+00 -0.00000000000E+00 -0.14644866741E+04  0.14644866741E+04  0.00000000000E+00 0. -1.
         23    2    1    2    0    0 -0.15199781994E+03 -0.36417920584E+03 -0.12401481928E+04  0.13045474733E+04  0.90259286979E+02 0.  0.
    5000000    2    1    2    0    0  0.15199781994E+03  0.36417920584E+03  0.47912903288E+03  0.86340671498E+03  0.60014722701E+03 0.  0.
         23    2    4    4    0    0 -0.10992894532E+03  0.14372634798E+03  0.46448817839E+03  0.50891628995E+03  0.10249334702E+03 0.  0.
         23    2    4    4    0    0  0.26192676526E+03  0.22045285786E+03  0.14640854482E+02  0.35449042503E+03  0.90796552339E+02 0.  0.
          4    1    3    3  502    0 -0.10249283969E+03 -0.20176868019E+03 -0.83812471820E+03  0.86814078683E+03  0.00000000000E+00 0. -1.
         -4    1    3    3    0  502 -0.49504980248E+02 -0.16241052566E+03 -0.40202347456E+03  0.43640668649E+03  0.00000000000E+00 0.  1.
         13    1    5    5    0    0 -0.12657912537E+03  0.10899119933E+03  0.34379905151E+03  0.38222917776E+03  0.00000000000E+00 0.  1.
        -13    1    5    5    0    0  0.16650180043E+02  0.34735148655E+02  0.12068912688E+03  0.12668711219E+03  0.00000000000E+00 0. -1.
          1    1    6    6  503    0  0.16580502793E+03  0.12940070907E+03  0.52513313352E+02  0.21677983964E+03  0.00000000000E+00 0. -1.
         -1    1    6    6    0  503  0.96121737328E+02  0.91052148792E+02 -0.37872458870E+02  0.13771058539E+03  0.00000000000E+00 0.  1.
<mgrwt>
<rscale>  0 0.47218814E+03</rscale>
<asrwt>0</asrwt>
<pdfrwt beam="1">  1        1 0.10822577E+00 0.47218814E+03</pdfrwt>
<pdfrwt beam="2">  1       -1 0.22530564E+00 0.47218814E+03</pdfrwt>
<totfact> 0.30255639E+00</totfact>
</mgrwt>
</event>
<event>
12    1  0.1444206E-007  0.8120372E+03  0.7818608E-02  0.9542755E-01
         -2   -1    0    0    0  501 -0.00000000000E+00  0.00000000000E+00  0.38321904193E+03  0.38321904193E+03  0.00000000000E+00 0.  1.
          2   -1    0    0  501    0  0.00000000000E+00 -0.00000000000E+00 -0.19166852975E+04  0.19166852975E+04  0.00000000000E+00 0. -1.
         23    2    1    2    0    0 -0.71414074970E+03  0.20863068391E+03 -0.56168042228E+03  0.93685327708E+03  0.93195457777E+02 0.  0.
    5000000    2    1    2    0    0  0.71414074970E+03 -0.20863068391E+03 -0.97178583328E+03  0.13630510623E+04  0.60001393328E+03 0.  0.
         23    2    4    4    0    0  0.70186905317E+03 -0.46204961709E+02 -0.93390959848E+03  0.11729290801E+04  0.93917104496E+02 0.  0.
         23    2    4    4    0    0  0.12271696529E+02 -0.16242572220E+03 -0.37876234800E+02  0.19012198224E+03  0.90438095958E+02 0.  0.
          1    1    3    3  502    0 -0.38336263560E+03  0.69783801583E+02 -0.32105264701E+03  0.50488760282E+03  0.00000000000E+00 0. -1.
         -1    1    3    3    0  502 -0.33077811410E+03  0.13884688233E+03 -0.24062777527E+03  0.43196567426E+03  0.00000000000E+00 0.  1.
         13    1    5    5    0    0  0.64185121682E+03 -0.17959284809E+02 -0.82529366167E+03  0.10456601496E+04  0.00000000000E+00 0. -1.
        -13    1    5    5    0    0  0.60017836354E+02 -0.28245676900E+02 -0.10861593680E+03  0.12726893050E+03  0.00000000000E+00 0.  1.
          4    1    6    6  503    0 -0.13047376953E+02 -0.78548160503E+02  0.23648726885E+02  0.83062084293E+02  0.00000000000E+00 0. -1.
         -4    1    6    6    0  503  0.25319073482E+02 -0.83877561701E+02 -0.61524961686E+02  0.10705989795E+03  0.00000000000E+00 0.  1.
<mgrwt>
<rscale>  0 0.81203724E+03</rscale>
<asrwt>0</asrwt>
<pdfrwt beam="1">  1        2 0.29487466E+00 0.81203724E+03</pdfrwt>
<pdfrwt beam="2">  1       -2 0.58956776E-01 0.81203724E+03</pdfrwt>
<totfact> 0.20455441E+01</totfact>
</mgrwt>
</event>
<event>
12    1  0.1444206E-007  0.1220453E+04  0.7818608E-02  0.9095140E-01
         -2   -1    0    0    0  501 -0.00000000000E+00  0.00000000000E+00  0.10861611536E+04  0.10861611536E+04  0.00000000000E+00 0.  1.
          2   -1    0    0  501    0  0.00000000000E+00 -0.00000000000E+00 -0.16957637792E+04  0.16957637792E+04  0.00000000000E+00 0. -1.
         23    2    1    2    0    0  0.10367024098E+04 -0.62309117047E+03  0.16685188793E+03  0.12244165322E+04  0.91442870802E+02 0.  0.
    5000000    2    1    2    0    0 -0.10367024098E+04  0.62309117047E+03 -0.77645451352E+03  0.15575084006E+04  0.59996359318E+03 0.  0.
         23    2    4    4    0    0 -0.41273041327E+03  0.33946258636E+03 -0.66325553159E+03  0.85692515508E+03  0.93976484543E+02 0.  0.
         23    2    4    4    0    0 -0.62397199655E+03  0.28362858411E+03 -0.11319898193E+03  0.70058324552E+03  0.90645729074E+02 0.  0.
          3    1    3    3  502    0  0.73356029811E+03 -0.41147472513E+03  0.14984403937E+03  0.85432745275E+03  0.00000000000E+00 0. -1.
         -3    1    3    3    0  502  0.30314211171E+03 -0.21161644534E+03  0.17007848554E+02  0.37008907947E+03  0.00000000000E+00 0.  1.
         13    1    5    5    0    0 -0.27238717818E+03  0.17733419159E+03 -0.44387714289E+03  0.55015371336E+03  0.00000000000E+00 0.  1.
        -13    1    5    5    0    0 -0.14034323510E+03  0.16212839477E+03 -0.21937838870E+03  0.30677144172E+03  0.00000000000E+00 0. -1.
          3    1    6    6  503    0 -0.36861707142E+03  0.12121611846E+03 -0.79368814305E+02  0.39606981884E+03  0.00000000000E+00 0. -1.
         -3    1    6    6    0  503 -0.25535492513E+03  0.16241246565E+03 -0.33830167625E+02  0.30451342668E+03  0.00000000000E+00 0.  1.
<mgrwt>
<rscale>  0 0.12204533E+04</rscale>
<asrwt>0</asrwt>
<pdfrwt beam="1">  1        2 0.26088673E+00 0.12204533E+04</pdfrwt>
<pdfrwt beam="2">  1       -2 0.16710172E+00 0.12204533E+04</pdfrwt>
<totfact> 0.21359149E+00</totfact>
</mgrwt>
</event>
<event>
12    1  0.1444206E-007  0.7852578E+03  0.7818608E-02  0.9581604E-01
         -1   -1    0    0    0  501 -0.00000000000E+00  0.00000000000E+00  0.14056549282E+04  0.14056549282E+04  0.00000000000E+00 0.  1.
          1   -1    0    0  501    0  0.00000000000E+00 -0.00000000000E+00 -0.58236742247E+03  0.58236742247E+03  0.00000000000E+00 0. -1.
         23    2    1    2    0    0  0.66112494346E+03 -0.34158336779E+03  0.69574363291E+03  0.10236805264E+04  0.10048497044E+03 0.  0.
    5000000    2    1    2    0    0 -0.66112494346E+03  0.34158336779E+03  0.12754387278E+03  0.96434182427E+03  0.59993526862E+03 0.  0.
         23    2    4    4    0    0 -0.64247241109E+03  0.32138643694E+03  0.28595593138E+03  0.77962328212E+03  0.99908090078E+02 0.  0.
         23    2    4    4    0    0 -0.18652532368E+02  0.20196930847E+02 -0.15841205860E+03  0.18471854215E+03  0.90943534816E+02 0.  0.
          4    1    3    3  502    0  0.43621762180E+03 -0.17099503540E+03  0.44181459869E+03  0.64399165780E+03  0.00000000000E+00 0.  1.
         -4    1    3    3    0  502  0.22490732166E+03 -0.17058833239E+03  0.25392903423E+03  0.37968886855E+03  0.00000000000E+00 0. -1.
         11    1    5    5    0    0 -0.53110601926E+03  0.22102862947E+03  0.23233109210E+03  0.62040712045E+03  0.00000000000E+00 0. -1.
        -11    1    5    5    0    0 -0.11136639183E+03  0.10035780747E+03  0.53624839273E+02  0.15921616167E+03  0.00000000000E+00 0.  1.
          2    1    6    6  503    0 -0.43770429574E+02 -0.19201308920E+02 -0.89438204302E+02  0.10140874301E+03  0.00000000000E+00 0. -1.
         -2    1    6    6    0  503  0.25117897206E+02  0.39398239766E+02 -0.68973854300E+02  0.83309799146E+02  0.00000000000E+00 0.  1.
<mgrwt>
<rscale>  0 0.78525776E+03</rscale>
<asrwt>0</asrwt>
<pdfrwt beam="1">  1        1 0.89594989E-01 0.78525776E+03</pdfrwt>
<pdfrwt beam="2">  1       -1 0.21625460E+00 0.78525776E+03</pdfrwt>
<totfact> 0.43059803E+00</totfact>
</mgrwt>
</event>
<event>
12    1  0.1444206E-007  0.6454588E+03  0.7818608E-02  0.9815338E-01
         -2   -1    0    0    0  501 -0.00000000000E+00  0.00000000000E+00  0.17084724462E+03  0.17084724462E+03  0.00000000000E+00 0.  1.
          2   -1    0    0  501    0  0.00000000000E+00 -0.00000000000E+00 -0.36387516016E+04  0.36387516016E+04  0.00000000000E+00 0. -1.
         23    2    1    2    0    0 -0.44962963799E+03 -0.24858386255E+03 -0.25311379617E+04  0.25843389121E+04  0.90484713495E+02 0.  0.
    5000000    2    1    2    0    0  0.44962963799E+03  0.24858386255E+03 -0.93676639524E+03  0.12252599341E+04  0.59980820160E+03 0.  0.
         23    2    4    4    0    0  0.15529114394E+03  0.40045892371E+03 -0.44219492312E+03  0.62302853506E+03  0.90252515229E+02 0.  0.
         23    2    4    4    0    0  0.29433849406E+03 -0.15187506116E+03 -0.49457147212E+03  0.60223139900E+03  0.91545254549E+02 0.  0.
          4    1    3    3  502    0 -0.35660415767E+03 -0.23573570200E+03 -0.20411492741E+04  0.20854323786E+04  0.00000000000E+00 0. -1.
         -4    1    3    3    0  502 -0.93025480324E+02 -0.12848160550E+02 -0.48998868760E+03  0.49890653352E+03  0.00000000000E+00 0.  1.
         13    1    5    5    0    0  0.54701851900E+02  0.17949734082E+03 -0.13344960427E+03  0.23026155746E+03  0.00000000000E+00 0.  1.
        -13    1    5    5    0    0  0.10058929204E+03  0.22096158289E+03 -0.30874531885E+03  0.39276697760E+03  0.00000000000E+00 0. -1.
          2    1    6    6  503    0  0.17396634857E+03 -0.48937360081E+02 -0.21453119351E+03  0.28050452516E+03  0.00000000000E+00 0. -1.
         -2    1    6    6    0  503  0.12037214549E+03 -0.10293770108E+03 -0.28004027860E+03  0.32172687384E+03  0.00000000000E+00 0.  1.
<mgrwt>
<rscale>  0 0.64545880E+03</rscale>
<asrwt>0</asrwt>
<pdfrwt beam="1">  1        2 0.55980792E+00 0.64545880E+03</pdfrwt>
<pdfrwt beam="2">  1       -2 0.26284192E-01 0.64545880E+03</pdfrwt>
<totfact> 0.94021487E+00</totfact>
</mgrwt>
</event>
<event>
12    1  0.1444206E-007  0.6018034E+03  0.7818608E-02  0.9901672E-01
          1   -1    0    0  501    0  0.00000000000E+00  0.00000000000E+00  0.11703459128E+04  0.11703459128E+04  0.00000000000E+00 0. -1.
         -1   -1    0    0    0  501 -0.00000000000E+00 -0.00000000000E+00 -0.39745861345E+03  0.39745861345E+03  0.00000000000E+00 0.  1.
         23    2    1    2    0    0  0.43317337163E+02  0.46707315715E+03  0.63335984559E+03  0.79347562284E+03  0.91788584327E+02 0.  0.
    5000000    2    1    2    0    0 -0.43317337163E+02 -0.46707315715E+03  0.13952745375E+03  0.77432890341E+03  0.60006967468E+03 0.  0.
         23    2    4    4    0    0  0.15735458203E+03  0.53320665007E+02 -0.10014072384E+02  0.18992249363E+03  0.91469744388E+02 0.  0.
         23    2    4    4    0    0 -0.20067191920E+03 -0.52039382216E+03  0.14954152614E+03  0.58440640977E+03  0.89940171496E+02 0.  0.
          4    1    3    3  502    0  0.14190739133E+01  0.21107741897E+03  0.21556722802E+03  0.30170336486E+03  0.00000000000E+00 0. -1.
         -4    1    3    3    0  502  0.41898263250E+02  0.25599573818E+03  0.41779261757E+03  0.49177225798E+03  0.00000000000E+00 0.  1.
         11    1    5    5    0    0  0.10670882859E+03  0.58445538126E+02  0.29840716209E+02  0.12527219711E+03  0.00000000000E+00 0.  1.
        -11    1    5    5    0    0  0.50645753446E+02 -0.51248731186E+01 -0.39854788592E+02  0.64650296521E+02  0.00000000000E+00 0. -1.
          3    1    6    6  503    0 -0.63521828477E+02 -0.24214986508E+03  0.30726881469E+02  0.25222157143E+03  0.00000000000E+00 0. -1.
         -3    1    6    6    0  503 -0.13715009072E+03 -0.27824395708E+03  0.11881464467E+03  0.33218483834E+03  0.00000000000E+00 0.  1.
<mgrwt>
<rscale>  0 0.60180340E+03</rscale>
<asrwt>0</asrwt>
<pdfrwt beam="1">  1        1 0.18005322E+00 0.60180340E+03</pdfrwt>
<pdfrwt beam="2">  1       -1 0.61147480E-01 0.60180340E+03</pdfrwt>
<totfact> 0.31935322E+01</totfact>
</mgrwt>
</event>
<event>
12    1  0.1444206E-007  0.6413663E+03  0.7818608E-02  0.9823116E-01
          1   -1    0    0  501    0  0.00000000000E+00  0.00000000000E+00  0.45337495297E+04  0.45337495297E+04  0.00000000000E+00 0. -1.
         -1   -1    0    0    0  501 -0.00000000000E+00 -0.00000000000E+00 -0.15879410775E+03  0.15879410775E+03  0.00000000000E+00 0.  1.
         23    2    1    2    0    0 -0.31414295343E+03  0.43289010605E+03  0.50794698847E+03  0.74286969225E+03  0.88122627402E+02 0.  0.
    5000000    2    1    2    0    0  0.31414295343E+03 -0.43289010605E+03  0.38670084334E+04  0.39496739452E+04  0.60007533668E+03 0.  0.
         23    2    4    4    0    0  0.40379830223E+03 -0.12561818110E+03  0.27523690815E+04  0.27861585144E+04  0.91163096850E+02 0.  0.
         23    2    4    4    0    0 -0.89655348799E+02 -0.30727192494E+03  0.11146393519E+04  0.11635154307E+04  0.94303527567E+02 0.  0.
          1    1    3    3  502    0 -0.14170438026E+03  0.24407038008E+03  0.22053696393E+03  0.35817179436E+03  0.00000000000E+00 0. -1.
         -1    1    3    3    0  502 -0.17243857317E+03  0.18881972597E+03  0.28741002454E+03  0.38469789789E+03  0.00000000000E+00 0.  1.
         13    1    5    5    0    0  0.10869388268E+03 -0.40566419070E+02  0.10416060011E+04  0.10480472585E+04  0.00000000000E+00 0.  1.
        -13    1    5    5    0    0  0.29510441955E+03 -0.85051762032E+02  0.17107630804E+04  0.17381112559E+04  0.00000000000E+00 0. -1.
          2    1    6    6  503    0 -0.88000258276E+01 -0.79134448525E+02  0.16063580222E+03  0.17928625813E+03  0.00000000000E+00 0.  1.
         -2    1    6    6    0  503 -0.80855322971E+02 -0.22813747642E+03  0.95400354967E+03  0.98422917260E+03  0.00000000000E+00 0. -1.
<mgrwt>
<rscale>  0 0.64136626E+03</rscale>
<asrwt>0</asrwt>
<pdfrwt beam="1">  1        1 0.69749983E+00 0.64136626E+03</pdfrwt>
<pdfrwt beam="2">  1       -1 0.24429866E-01 0.64136626E+03</pdfrwt>
<totfact> 0.50442612E-01</totfact>
</mgrwt>
</event>
<event>
12    1  0.1444206E-007  0.9094559E+03  0.7818608E-02  0.9413838E-01
         -2   -1    0    0    0  501 -0.00000000000E+00  0.00000000000E+00  0.57300246037E+03  0.57300246037E+03  0.00000000000E+00 0. -1.
          2   -1    0    0  501    0  0.00000000000E+00 -0.00000000000E+00 -0.23597208338E+04  0.23597208338E+04  0.00000000000E+00 0.  1.
         23    2    1    2    0    0 -0.36559544705E+03 -0.77735308900E+03 -0.16676614906E+04  0.18781743228E+04  0.92228432239E+02 0.  0.
    5000000    2    1    2    0    0  0.36559544705E+03  0.77735308900E+03 -0.11905688280E+03  0.10545489713E+04  0.59996761222E+03 0.  0.
         23    2    4    4    0    0  0.27507295425E+03  0.78675345933E+03 -0.24767334960E+03  0.87418753435E+03  0.90640063839E+02 0.  0.
         23    2    4    4    0    0  0.90522492797E+02 -0.94003703314E+01  0.12861646680E+03  0.18036143698E+03  0.87780201375E+02 0.  0.
          1    1    3    3  502    0 -0.33455512987E+03 -0.66687587465E+03 -0.14954117259E+04  0.16711992092E+04  0.00000000000E+00 0. -1.
         -1    1    3    3    0  502 -0.31040317182E+02 -0.11047721435E+03 -0.17224976472E+03  0.20697511354E+03  0.00000000000E+00 0.  1.
         13    1    5    5    0    0  0.74694782611E+02  0.34840171069E+03 -0.99659115506E+02  0.36999324571E+03  0.00000000000E+00 0. -1.
        -13    1    5    5    0    0  0.20037817164E+03  0.43835174864E+03 -0.14801423409E+03  0.50419428864E+03  0.00000000000E+00 0.  1.
          4    1    6    6  503    0 -0.13753982753E+02 -0.70737471248E+01  0.42087211940E+02  0.44839082828E+02  0.00000000000E+00 0. -1.
         -4    1    6    6    0  503  0.10427647555E+03 -0.23266232067E+01  0.86529254861E+02  0.13552235415E+03  0.00000000000E+00 0.  1.
<mgrwt>
<rscale>  0 0.90945586E+03</rscale>
<asrwt>0</asrwt>
<pdfrwt beam="1">  1        2 0.36303397E+00 0.90945586E+03</pdfrwt>
<pdfrwt beam="2">  1       -2 0.88154225E-01 0.90945586E+03</pdfrwt>
<totfact> 0.47378836E+00</totfact>
</mgrwt>
</event>
<event>
12    1  0.1444206E-007  0.1069978E+04  0.7818608E-02  0.9234957E-01
          2   -1    0    0  501    0  0.00000000000E+00  0.00000000000E+00  0.28053229674E+04  0.28053229674E+04  0.00000000000E+00 0. -1.
         -2   -1    0    0    0  501 -0.00000000000E+00 -0.00000000000E+00 -0.45545941129E+03  0.45545941129E+03  0.00000000000E+00 0.  1.
         23    2    1    2    0    0 -0.18266601874E+03  0.10306537494E+04  0.10007775227E+04  0.14509575066E+04  0.90044492656E+02 0.  0.
    5000000    2    1    2    0    0  0.18266601874E+03 -0.10306537494E+04  0.13490860334E+04  0.18098248720E+04  0.59984907800E+03 0.  0.
         23    2    4    4    0    0  0.27130070997E+03 -0.73643726880E+03  0.12417055282E+04  0.14718779476E+04  0.92995416924E+02 0.  0.
         23    2    4    4    0    0 -0.88634691229E+02 -0.29421648057E+03  0.10738050519E+03  0.33794692448E+03  0.90874115896E+02 0.  0.
          1    1    3    3  502    0 -0.91703388823E+02  0.50779416873E+03  0.43127978870E+03  0.67250775866E+03  0.00000000000E+00 0. -1.
         -1    1    3    3    0  502 -0.90962629919E+02  0.52285958065E+03  0.56949773399E+03  0.77844974798E+03  0.00000000000E+00 0.  1.
         13    1    5    5    0    0  0.13330685840E+03 -0.42117364359E+03  0.62013716134E+03  0.76139874930E+03  0.00000000000E+00 0.  1.
        -13    1    5    5    0    0  0.13799385157E+03 -0.31526362522E+03  0.62156836688E+03  0.71047919826E+03  0.00000000000E+00 0. -1.
          1    1    6    6  503    0 -0.12622994688E+02 -0.48992755486E+02 -0.16057118334E+02  0.53079762002E+02  0.00000000000E+00 0. -1.
         -1    1    6    6    0  503 -0.76011696541E+02 -0.24522372509E+03  0.12343762352E+03  0.28486716248E+03  0.00000000000E+00 0.  1.
<mgrwt>
<rscale>  0 0.10699783E+04</rscale>
<asrwt>0</asrwt>
<pdfrwt beam="1">  1        2 0.43158814E+00 0.10699783E+04</pdfrwt>
<pdfrwt beam="2">  1       -2 0.70070680E-01 0.10699783E+04</pdfrwt>
<totfact> 0.42906724E+00</totfact>
</mgrwt>
</event>
<event>
12    1  0.1444206E-007  0.6785969E+03  0.7818608E-02  0.9754551E-01
          2   -1    0    0  501    0  0.00000000000E+00  0.00000000000E+00  0.26844738835E+04  0.26844738835E+04  0.00000000000E+00 0.  1.
         -2   -1    0    0    0  501 -0.00000000000E+00 -0.00000000000E+00 -0.24689369854E+03  0.24689369854E+03  0.00000000000E+00 0. -1.
         23    2    1    2    0    0  0.88129331449E+01  0.57858649642E+03  0.17680117904E+04  0.18621799708E+04  0.83717088385E+02 0.  0.
    5000000    2    1    2    0    0 -0.88129331449E+01 -0.57858649642E+03  0.66956839454E+03  0.10691876113E+04  0.60000025954E+03 0.  0.
         23    2    4    4    0    0 -0.22942744615E+03 -0.44799490048E+03  0.60021943643E+03  0.78862219106E+03  0.91242558404E+02 0.  0.
         23    2    4    4    0    0  0.22061451300E+03 -0.13059159594E+03  0.69348958109E+02  0.28056542019E+03  0.90458547066E+02 0.  0.
          2    1    3    3  502    0  0.30973569618E+02  0.51863469370E+03  0.16089067619E+04  0.16907164979E+04  0.00000000000E+00 0. -1.
         -2    1    3    3    0  502 -0.22160636473E+02  0.59951802718E+02  0.15910502845E+03  0.17146347289E+03  0.00000000000E+00 0.  1.
         13    1    5    5    0    0 -0.61838846224E+02 -0.94322120440E+02  0.83077385498E+02  0.14008053858E+03  0.00000000000E+00 0.  1.
        -13    1    5    5    0    0 -0.16758859992E+03 -0.35367278004E+03  0.51714205094E+03  0.64854165249E+03  0.00000000000E+00 0. -1.
          4    1    6    6  503    0  0.46579181607E+02 -0.72336782215E+02  0.53577090204E+01  0.86202872727E+02  0.00000000000E+00 0.  1.
         -4    1    6    6    0  503  0.17403533139E+03 -0.58254813727E+02  0.63991249089E+02  0.19436254746E+03  0.00000000000E+00 0. -1.
<mgrwt>
<rscale>  0 0.67859687E+03</rscale>
<asrwt>0</asrwt>
<pdfrwt beam="1">  1        2 0.41299596E+00 0.67859687E+03</pdfrwt>
<pdfrwt beam="2">  1       -2 0.37983648E-01 0.67859687E+03</pdfrwt>
<totfact> 0.18873786E+01</totfact>
</mgrwt>
</event>
<event>
12    1  0.1444206E-007  0.5898888E+03  0.7818608E-02  0.9926608E-01
         -1   -1    0    0    0  501 -0.00000000000E+00  0.00000000000E+00  0.27331518614E+03  0.27331518614E+03  0.00000000000E+00 0.  1.
          1   -1    0    0  501    0  0.00000000000E+00 -0.00000000000E+00 -0.20213834942E+04  0.20213834942E+04  0.00000000000E+00 0. -1.
         23    2    1    2    0    0  0.30135131690E+03 -0.40910563280E+03 -0.18971272300E+03  0.54964621672E+03  0.89106741038E+02 0.  0.
    5000000    2    1    2    0    0 -0.30135131690E+03  0.40910563280E+03 -0.15583555851E+04  0.17450524637E+04  0.59879540442E+03 0.  0.
         23    2    4    4    0    0 -0.20623462182E+03  0.47569490043E+03 -0.70873128834E+03  0.88285248550E+03  0.91159829664E+02 0.  0.
         23    2    4    4    0    0 -0.95116695080E+02 -0.66589267634E+02 -0.84962429676E+03  0.86219997817E+03  0.89699723845E+02 0.  0.
          1    1    3    3  502    0  0.52051861830E+02 -0.12321344916E+03 -0.24844468263E+02  0.13604483811E+03  0.00000000000E+00 0. -1.
         -1    1    3    3    0  502  0.24929945507E+03 -0.28589218364E+03 -0.16486825474E+03  0.41360137861E+03  0.00000000000E+00 0.  1.
         13    1    5    5    0    0 -0.16364891309E+03  0.30560919893E+03 -0.41470950592E+03  0.54052004915E+03  0.00000000000E+00 0. -1.
        -13    1    5    5    0    0 -0.42585708731E+02  0.17008570151E+03 -0.29402178242E+03  0.34233243635E+03  0.00000000000E+00 0.  1.
          3    1    6    6  503    0 -0.62588819759E+02  0.82154259632E+01 -0.44296260262E+03  0.44743795201E+03  0.00000000000E+00 0. -1.
         -3    1    6    6    0  503 -0.32527875320E+02 -0.74804693598E+02 -0.40666169415E+03  0.41476202616E+03  0.00000000000E+00 0.  1.
<mgrwt>
<rscale>  0 0.58988882E+03</rscale>
<asrwt>0</asrwt>
<pdfrwt beam="1">  1        1 0.31098207E+00 0.58988882E+03</pdfrwt>
<pdfrwt beam="2">  1       -1 0.42048490E-01 0.58988882E+03</pdfrwt>
<totfact> 0.17137156E+01</totfact>
</mgrwt>
</event>
<event>
12    1  0.1444206E-007  0.1209006E+04  0.7818608E-02  0.9105010E-01
          2   -1    0    0  501    0  0.00000000000E+00  0.00000000000E+00  0.10122301930E+04  0.10122301930E+04  0.00000000000E+00 0. -1.
         -2   -1    0    0    0  501 -0.00000000000E+00 -0.00000000000E+00 -0.18391431135E+04  0.18391431135E+04  0.00000000000E+00 0.  1.
         23    2    1    2    0    0 -0.11234597930E+04 -0.25869910294E+03 -0.10135805193E+04  0.15383995466E+04  0.10119566949E+03 0.  0.
    5000000    2    1    2    0    0  0.11234597930E+04  0.25869910294E+03  0.18666759886E+03  0.13129737599E+04  0.59997347401E+03 0.  0.
         23    2    4    4    0    0  0.20318466915E+03 -0.13599248525E+03  0.16264720969E+03  0.30714075307E+03  0.90018673373E+02 0.  0.
         23    2    4    4    0    0  0.92027512382E+03  0.39469158820E+03  0.24020389167E+02  0.10058330069E+04  0.91843917965E+02 0.  0.
          1    1    3    3  502    0 -0.47606538560E+03 -0.12914425976E+03 -0.37235203295E+03  0.61803117045E+03  0.00000000000E+00 0. -1.
         -1    1    3    3    0  502 -0.64739440736E+03 -0.12955484318E+03 -0.64122848634E+03  0.92036837612E+03  0.00000000000E+00 0.  1.
         13    1    5    5    0    0 -0.74526449542E+01 -0.14116241266E+02  0.17931779142E+02  0.24007475658E+02  0.00000000000E+00 0. -1.
        -13    1    5    5    0    0  0.21063731410E+03 -0.12187624399E+03  0.14471543055E+03  0.28313327742E+03  0.00000000000E+00 0.  1.
          2    1    6    6  503    0  0.18772314608E+03  0.12017196420E+03  0.16404750530E+02  0.22349585320E+03  0.00000000000E+00 0. -1.
         -2    1    6    6    0  503  0.73255197773E+03  0.27451962399E+03  0.76156386373E+01  0.78233715365E+03  0.00000000000E+00 0.  1.
<mgrwt>
<rscale>  0 0.12090064E+04</rscale>
<asrwt>0</asrwt>
<pdfrwt beam="1">  1        2 0.15572772E+00 0.12090064E+04</pdfrwt>
<pdfrwt beam="2">  1       -2 0.28294509E+00 0.12090064E+04</pdfrwt>
<totfact> 0.97509618E-01</totfact>
</mgrwt>
</event>
<event>
12    1  0.1444206E-007  0.7943467E+03  0.7818608E-02  0.9568236E-01
          2   -1    0    0  501    0  0.00000000000E+00  0.00000000000E+00  0.28444746801E+04  0.28444746801E+04  0.00000000000E+00 0. -1.
         -2   -1    0    0    0  501 -0.00000000000E+00 -0.00000000000E+00 -0.26079751225E+03  0.26079751225E+03  0.00000000000E+00 0.  1.
         23    2    1    2    0    0  0.41121402455E+03  0.63130145881E+03  0.11713417779E+04  0.13958082273E+04  0.92739101036E+02 0.  0.
    5000000    2    1    2    0    0 -0.41121402455E+03 -0.63130145881E+03  0.14123353900E+04  0.17094639650E+04  0.59994773789E+03 0.  0.
         23    2    4    4    0    0 -0.31588800329E+03 -0.19229161224E+03  0.10722912812E+04  0.11373098147E+04  0.83088676404E+02 0.  0.
         23    2    4    4    0    0 -0.95326021260E+02 -0.43900984657E+03  0.34004410875E+03  0.57215415033E+03  0.99567465202E+02 0.  0.
          3    1    3    3  502    0  0.17035683618E+03  0.28562282151E+03  0.43651912131E+03  0.54877207570E+03  0.00000000000E+00 0. -1.
         -3    1    3    3    0  502  0.24085718837E+03  0.34567863730E+03  0.73482265660E+03  0.84703615161E+03  0.00000000000E+00 0.  1.
         11    1    5    5    0    0 -0.22075979578E+03 -0.89039307352E+02  0.64319034707E+03  0.68582556693E+03  0.00000000000E+00 0. -1.
        -11    1    5    5    0    0 -0.95128207509E+02 -0.10325230489E+03  0.42910093414E+03  0.45148424779E+03  0.00000000000E+00 0.  1.
          3    1    6    6  503    0 -0.61124226701E+02 -0.11209029437E+03  0.63498192535E+02  0.14259181476E+03  0.00000000000E+00 0. -1.
         -3    1    6    6    0  503 -0.34201794559E+02 -0.32691955220E+03  0.27654591621E+03  0.42956233557E+03  0.00000000000E+00 0.  1.
<mgrwt>
<rscale>  0 0.79434665E+03</rscale>
<asrwt>0</asrwt>
<pdfrwt beam="1">  1        2 0.43761147E+00 0.79434665E+03</pdfrwt>
<pdfrwt beam="2">  1       -2 0.40122696E-01 0.79434665E+03</pdfrwt>
<totfact> 0.13404425E+01</totfact>
</mgrwt>
</event>
<event>
12    1  0.1444206E-007  0.8198735E+03  0.7818608E-02  0.9531688E-01
          2   -1    0    0  501    0  0.00000000000E+00  0.00000000000E+00  0.95403424828E+03  0.95403424828E+03  0.00000000000E+00 0. -1.
         -2   -1    0    0    0  501 -0.00000000000E+00 -0.00000000000E+00 -0.11124144961E+04  0.11124144961E+04  0.00000000000E+00 0.  1.
         23    2    1    2    0    0 -0.32770467225E+03 -0.66312465344E+03 -0.65501024807E+03  0.99241371367E+03  0.93391090495E+02 0.  0.
    5000000    2    1    2    0    0  0.32770467225E+03  0.66312465344E+03  0.49663000027E+03  0.10740350307E+04  0.59982099978E+03 0.  0.
         23    2    4    4    0    0  0.87195070701E+02 -0.61170533514E+02  0.21251838790E+03  0.25482727438E+03  0.91804466380E+02 0.  0.
         23    2    4    4    0    0  0.24050960155E+03  0.72429518695E+03  0.28411161238E+03  0.81920775632E+03  0.89070497060E+02 0.  0.
          1    1    3    3  502    0 -0.18033135202E+03 -0.45685566123E+03 -0.45469708692E+03  0.66931751253E+03  0.00000000000E+00 0. -1.
         -1    1    3    3    0  502 -0.14737332023E+03 -0.20626899221E+03 -0.20031316115E+03  0.32309620114E+03  0.00000000000E+00 0.  1.
         13    1    5    5    0    0 -0.25509226972E+01 -0.35905394676E+02  0.11238351695E+03  0.11800745509E+03  0.00000000000E+00 0. -1.
        -13    1    5    5    0    0  0.89745993398E+02 -0.25265138838E+02  0.10013487094E+03  0.13681981929E+03  0.00000000000E+00 0.  1.
          1    1    6    6  503    0  0.19154929554E+03  0.48215096122E+03  0.22308888517E+03  0.56473828692E+03  0.00000000000E+00 0.  1.
         -1    1    6    6    0  503  0.48960306004E+02  0.24214422574E+03  0.61022727209E+02  0.25446946940E+03  0.00000000000E+00 0. -1.
<mgrwt>
<rscale>  0 0.81987354E+03</rscale>
<asrwt>0</asrwt>
<pdfrwt beam="1">  1        2 0.14677450E+00 0.81987354E+03</pdfrwt>
<pdfrwt beam="2">  1       -2 0.17114069E+00 0.81987354E+03</pdfrwt>
<totfact> 0.57060638E+00</totfact>
</mgrwt>
</event>
<event>
12    1  0.1444206E-007  0.1999623E+04  0.7818608E-02  0.8606797E-01
          2   -1    0    0  501    0  0.00000000000E+00  0.00000000000E+00  0.16402212200E+04  0.16402212200E+04  0.00000000000E+00 0.  1.
         -2   -1    0    0    0  501 -0.00000000000E+00 -0.00000000000E+00 -0.30514277812E+04  0.30514277812E+04  0.00000000000E+00 0. -1.
         23    2    1    2    0    0 -0.30387541031E+03 -0.19481441253E+04  0.32059391358E+03  0.19996639385E+04  0.90937406047E+02 0.  0.
    5000000    2    1    2    0    0  0.30387541031E+03  0.19481441253E+04 -0.17318004748E+04  0.26919850627E+04  0.60003741172E+03 0.  0.
         23    2    4    4    0    0  0.24551202784E+03  0.39463765354E+03 -0.60842485567E+03  0.77181782071E+03  0.97503384421E+02 0.  0.
         23    2    4    4    0    0  0.58363382475E+02  0.15535064717E+04 -0.11233756192E+04  0.19201672420E+04  0.90998974819E+02 0.  0.
          1    1    3    3  502    0 -0.25663144887E+03 -0.15878653662E+04  0.29591406790E+03  0.16354636215E+04  0.00000000000E+00 0. -1.
         -1    1    3    3    0  502 -0.47243961437E+02 -0.36027875909E+03  0.24679845688E+02  0.36420031703E+03  0.00000000000E+00 0.  1.
         13    1    5    5    0    0  0.14159269737E+03  0.15921549844E+03 -0.32880517876E+03  0.39180468664E+03  0.00000000000E+00 0.  1.
        -13    1    5    5    0    0  0.10391933047E+03  0.23542215510E+03 -0.27961967691E+03  0.38001313408E+03  0.00000000000E+00 0. -1.
          3    1    6    6  503    0  0.64805654429E+02  0.60193622186E+03 -0.45384049744E+03  0.75663609823E+03  0.00000000000E+00 0. -1.
         -3    1    6    6    0  503 -0.64422719540E+01  0.95157024988E+03 -0.66953512171E+03  0.11635311438E+04  0.00000000000E+00 0.  1.
<mgrwt>
<rscale>  0 0.19996231E+04</rscale>
<asrwt>0</asrwt>
<pdfrwt beam="1">  1        2 0.25234173E+00 0.19996231E+04</pdfrwt>
<pdfrwt beam="2">  1       -2 0.46945042E+00 0.19996231E+04</pdfrwt>
<totfact> 0.24248393E-02</totfact>
</mgrwt>
</event>
<event>
12    1  0.1444206E-007  0.8544740E+03  0.7818608E-02  0.9484352E-01
          1   -1    0    0  501    0  0.00000000000E+00  0.00000000000E+00  0.81240498600E+03  0.81240498600E+03  0.00000000000E+00 0.  1.
         -1   -1    0    0    0  501 -0.00000000000E+00 -0.00000000000E+00 -0.10571626259E+04  0.10571626259E+04  0.00000000000E+00 0. -1.
         23    2    1    2    0    0  0.43012267366E+03 -0.65510698293E+03 -0.37605357407E+03  0.87383528801E+03  0.89449128097E+02 0.  0.
    5000000    2    1    2    0    0 -0.43012267366E+03  0.65510698293E+03  0.13129593413E+03  0.99573232393E+03  0.60006130114E+03 0.  0.
         23    2    4    4    0    0  0.60578688368E+02  0.30334176655E+03  0.20209945259E+03  0.38066602871E+03  0.91522848815E+02 0.  0.
         23    2    4    4    0    0 -0.49070136203E+03  0.35176521637E+03 -0.70803518452E+02  0.61506629523E+03  0.93631272296E+02 0.  0.
          3    1    3    3  502    0  0.18391433823E+03 -0.34513694760E+03 -0.21675477280E+03  0.44713155551E+03  0.00000000000E+00 0. -1.
         -3    1    3    3    0  502  0.24620833543E+03 -0.30997003533E+03 -0.15929880127E+03  0.42670373250E+03  0.00000000000E+00 0.  1.
         11    1    5    5    0    0  0.68643123330E+02  0.20353815136E+03  0.97587888992E+02  0.23593018780E+03  0.00000000000E+00 0.  1.
        -11    1    5    5    0    0 -0.80644349622E+01  0.99803615199E+02  0.10451156359E+03  0.14473584091E+03  0.00000000000E+00 0. -1.
          4    1    6    6  503    0 -0.33862928477E+03  0.27769564079E+03 -0.82006261392E+02  0.44554426079E+03  0.00000000000E+00 0. -1.
         -4    1    6    6    0  503 -0.15207207727E+03  0.74069575580E+02  0.11202742940E+02  0.16952203444E+03  0.00000000000E+00 0.  1.
<mgrwt>
<rscale>  0 0.85447404E+03</rscale>
<asrwt>0</asrwt>
<pdfrwt beam="1">  1        1 0.12498538E+00 0.85447404E+03</pdfrwt>
<pdfrwt beam="2">  1       -1 0.16264040E+00 0.85447404E+03</pdfrwt>
<totfact> 0.61383596E+00</totfact>
</mgrwt>
</event>
<event>
12    1  0.1444206E-007  0.1674439E+04  0.7818608E-02  0.8776079E-01
          2   -1    0    0  501    0  0.00000000000E+00  0.00000000000E+00  0.17493089023E+04  0.17493089023E+04  0.00000000000E+00 0. -1.
         -2   -1    0    0    0  501 -0.00000000000E+00 -0.00000000000E+00 -0.17638318104E+04  0.17638318104E+04  0.00000000000E+00 0.  1.
         23    2    1    2    0    0  0.49207226376E+03  0.15711051556E+04 -0.44680376658E+03  0.17083476482E+04  0.91167749810E+02 0.  0.
    5000000    2    1    2    0    0 -0.49207226376E+03 -0.15711051556E+04  0.43228085854E+03  0.18047930645E+04  0.59992061346E+03 0.  0.
         23    2    4    4    0    0 -0.27060733561E+03 -0.32117579338E+03 -0.69844483899E+02  0.43659894825E+03  0.96737631494E+02 0.  0.
         23    2    4    4    0    0 -0.22146492815E+03 -0.12499293622E+04  0.50212534243E+03  0.13681941163E+04  0.91951918940E+02 0.  0.
          1    1    3    3  502    0  0.26289174280E+03  0.93769132692E+03 -0.29910885966E+03  0.10187458971E+04  0.00000000000E+00 0. -1.
         -1    1    3    3    0  502  0.22918052096E+03  0.63341382865E+03 -0.14769490693E+03  0.68960175105E+03  0.00000000000E+00 0.  1.
         11    1    5    5    0    0 -0.11352856467E+03 -0.20874161094E+03 -0.32112823732E+02  0.23977703931E+03  0.00000000000E+00 0. -1.
        -11    1    5    5    0    0 -0.15707877093E+03 -0.11243418244E+03 -0.37731660167E+02  0.19682190894E+03  0.00000000000E+00 0.  1.
          3    1    6    6  503    0 -0.64251322533E+02 -0.23567546674E+03  0.66188253512E+02  0.25308505087E+03  0.00000000000E+00 0. -1.
         -3    1    6    6    0  503 -0.15721360562E+03 -0.10142538955E+04  0.43593708892E+03  0.11151090654E+04  0.00000000000E+00 0.  1.
<mgrwt>
<rscale>  0 0.16744387E+04</rscale>
<asrwt>0</asrwt>
<pdfrwt beam="1">  1        2 0.26912445E+00 0.16744387E+04</pdfrwt>
<pdfrwt beam="2">  1       -2 0.27135874E+00 0.16744387E+04</pdfrwt>
<totfact> 0.40367755E-01</totfact>
</mgrwt>
</event>
<event>
12    1  0.1444206E-007  0.7330081E+03  0.7818608E-02  0.9662392E-01
          1   -1    0    0  501    0  0.00000000000E+00  0.00000000000E+00  0.19810476033E+04  0.19810476033E+04  0.00000000000E+00 0. -1.
         -1   -1    0    0    0  501 -0.00000000000E+00 -0.00000000000E+00 -0.44918916419E+03  0.44918916419E+03  0.00000000000E+00 0.  1.
         23    2    1    2    0    0  0.64043740297E+03 -0.11920298992E+03  0.13838677003E+04  0.15324973628E+04  0.95335906452E+02 0.  0.
    5000000    2    1    2    0    0 -0.64043740297E+03  0.11920298992E+03  0.14799073879E+03  0.89773940470E+03  0.59972106856E+03 0.  0.
         23    2    4    4    0    0 -0.57496209983E+02  0.19493945807E+03 -0.11075508181E+03  0.24907343447E+03  0.91998267031E+02 0.  0.
         23    2    4    4    0    0 -0.58294119298E+03 -0.75736468160E+02  0.25874582060E+03  0.64866597023E+03  0.90893862141E+02 0.  0.
          4    1    3    3  502    0  0.30761415596E+03 -0.56101157118E+02  0.77566754602E+03  0.83632167898E+03  0.00000000000E+00 0. -1.
         -4    1    3    3    0  502  0.33282324701E+03 -0.63101832797E+02  0.60820015433E+03  0.69617568385E+03  0.00000000000E+00 0.  1.
         11    1    5    5    0    0 -0.14203931767E+02  0.17449644183E+03 -0.90606599369E+02  0.19713019997E+03  0.00000000000E+00 0.  1.
        -11    1    5    5    0    0 -0.43292278216E+02  0.20443016241E+02 -0.20148482437E+02  0.51943234503E+02  0.00000000000E+00 0. -1.
          3    1    6    6  503    0 -0.36361475407E+03 -0.79771881400E+02  0.12997958646E+03  0.39430183278E+03  0.00000000000E+00 0. -1.
         -3    1    6    6    0  503 -0.21932643891E+03  0.40354132402E+01  0.12876623414E+03  0.25436413745E+03  0.00000000000E+00 0.  1.
<mgrwt>
<rscale>  0 0.73300807E+03</rscale>
<asrwt>0</asrwt>
<pdfrwt beam="1">  1        1 0.30477655E+00 0.73300807E+03</pdfrwt>
<pdfrwt beam="2">  1       -1 0.69106027E-01 0.73300807E+03</pdfrwt>
<totfact> 0.68334080E+00</totfact>
</mgrwt>
</event>
<event>
12    1  0.1444206E-007  0.5825479E+03  0.7818608E-02  0.9942290E-01
         -2   -1    0    0    0  501 -0.00000000000E+00  0.00000000000E+00  0.58221980230E+03  0.58221980230E+03  0.00000000000E+00 0.  1.
          2   -1    0    0  501    0  0.00000000000E+00 -0.00000000000E+00 -0.98382967524E+03  0.98382967524E+03  0.00000000000E+00 0. -1.
         23    2    1    2    0    0  0.49837485805E+03  0.18434293085E+03  0.18803515981E+03  0.57110591662E+03  0.91896307760E+02 0.  0.
    5000000    2    1    2    0    0 -0.49837485805E+03 -0.18434293085E+03 -0.58964503275E+03  0.99494356092E+03  0.59989299836E+03 0.  0.
         23    2    4    4    0    0  0.10013557570E+01 -0.12137962911E+02  0.86155102341E+02  0.13224529128E+03  0.99588064297E+02 0.  0.
         23    2    4    4    0    0 -0.49937621381E+03 -0.17220496794E+03 -0.67580013509E+03  0.86269826964E+03  0.92256858512E+02 0.  0.
          4    1    3    3  502    0  0.35047437066E+03  0.10323988071E+03  0.16488628888E+03  0.40084691058E+03  0.00000000000E+00 0. -1.
         -4    1    3    3    0  502  0.14790048739E+03  0.81103050144E+02  0.23148870930E+02  0.17025900604E+03  0.00000000000E+00 0.  1.
         13    1    5    5    0    0  0.18626331241E+02  0.37745582182E+02  0.59828436574E+02  0.73151288523E+02  0.00000000000E+00 0. -1.
        -13    1    5    5    0    0 -0.17624975484E+02 -0.49883545093E+02  0.26326665767E+02  0.59094002761E+02  0.00000000000E+00 0.  1.
          4    1    6    6  503    0 -0.28659063049E+03 -0.50751630510E+02 -0.37781357070E+03  0.47692034103E+03  0.00000000000E+00 0. -1.
         -4    1    6    6    0  503 -0.21278558332E+03 -0.12145333743E+03 -0.29798656440E+03  0.38577792861E+03  0.00000000000E+00 0.  1.
<mgrwt>
<rscale>  0 0.58254788E+03</rscale>
<asrwt>0</asrwt>
<pdfrwt beam="1">  1        2 0.15135841E+00 0.58254788E+03</pdfrwt>
<pdfrwt beam="2">  1       -2 0.89572278E-01 0.58254788E+03</pdfrwt>
<totfact> 0.28533130E+01</totfact>
</mgrwt>
</event>
<event>
12    1  0.1444206E-007  0.9187402E+03  0.7818608E-02  0.9402454E-01
         -1   -1    0    0    0  501 -0.00000000000E+00  0.00000000000E+00  0.91911795570E+03  0.91911795570E+03  0.00000000000E+00 0.  1.
          1   -1    0    0  501    0  0.00000000000E+00 -0.00000000000E+00 -0.10900455734E+04  0.10900455734E+04  0.00000000000E+00 0. -1.
         23    2    1    2    0    0 -0.46501559801E+03  0.77464266301E+03 -0.17504190452E+03  0.92470200237E+03  0.90129701615E+02 0.  0.
    5000000    2    1    2    0    0  0.46501559801E+03 -0.77464266301E+03  0.41142867851E+01  0.10844615268E+04  0.59977421914E+03 0.  0.
         23    2    4    4    0    0  0.32044694004E+03 -0.32121378815E+03  0.26566462855E+03  0.53374253502E+03  0.91863266589E+02 0.  0.
         23    2    4    4    0    0  0.14456865797E+03 -0.45342887486E+03 -0.26155034176E+03  0.55071899175E+03  0.91569564694E+02 0.  0.
          2    1    3    3  502    0 -0.33741786619E+03  0.59121025877E+03 -0.16799454800E+03  0.70114374749E+03  0.00000000000E+00 0. -1.
         -2    1    3    3    0  502 -0.12759773182E+03  0.18343240424E+03 -0.70473565293E+01  0.22355825488E+03  0.00000000000E+00 0.  1.
         11    1    5    5    0    0  0.24714119192E+03 -0.22705345817E+03  0.15016637716E+03  0.36767102475E+03  0.00000000000E+00 0. -1.
        -11    1    5    5    0    0  0.73305748121E+02 -0.94160329978E+02  0.11549825139E+03  0.16607151027E+03  0.00000000000E+00 0.  1.
          2    1    6    6  503    0  0.53473677036E+01 -0.74296701046E+02 -0.10651478922E+02  0.75246582187E+02  0.00000000000E+00 0. -1.
         -2    1    6    6    0  503  0.13922129026E+03 -0.37913217381E+03 -0.25089886284E+03  0.47547240956E+03  0.00000000000E+00 0.  1.
<mgrwt>
<rscale>  0 0.91874020E+03</rscale>
<asrwt>0</asrwt>
<pdfrwt beam="1">  1        1 0.16769932E+00 0.91874020E+03</pdfrwt>
<pdfrwt beam="2">  1       -1 0.14140276E+00 0.91874020E+03</pdfrwt>
<totfact> 0.53341347E+00</totfact>
</mgrwt>
</event>
<event>
12    1  0.1444206E-007  0.6087360E+03  0.7818608E-02  0.9887446E-01
         -1   -1    0    0    0  501 -0.00000000000E+00  0.00000000000E+00  0.80223862979E+03  0.80223862979E+03  0.00000000000E+00 0.  1.
          1   -1    0    0  501    0  0.00000000000E+00 -0.00000000000E+00 -0.10043188737E+04  0.10043188737E+04  0.00000000000E+00 0. -1.
         23    2    1    2    0    0  0.21903412573E+03  0.55428927991E+03 -0.61886758348E+03  0.86383768678E+03  0.89475746140E+02 0.  0.
    5000000    2    1    2    0    0 -0.21903412573E+03 -0.55428927991E+03  0.41678733953E+03  0.94271981677E+03  0.59983031973E+03 0.  0.
         23    2    4    4    0    0 -0.20821927668E+03 -0.39055747469E+03 -0.35506775504E+02  0.45319791732E+03  0.90759092865E+02 0.  0.
         23    2    4    4    0    0 -0.10814849047E+02 -0.16373180522E+03  0.45229411504E+03  0.48952189944E+03  0.90203428645E+02 0.  0.
          3    1    3    3  502    0  0.15255131246E+03  0.45236156292E+03 -0.45296645642E+03  0.65808927751E+03  0.00000000000E+00 0. -1.
         -3    1    3    3    0  502  0.66482813270E+02  0.10192771699E+03 -0.16590112707E+03  0.20574840926E+03  0.00000000000E+00 0.  1.
         11    1    5    5    0    0 -0.13681030777E+03 -0.33285480978E+03 -0.24045032334E+02  0.36067651474E+03  0.00000000000E+00 0. -1.
        -11    1    5    5    0    0 -0.71408968912E+02 -0.57702664915E+02 -0.11461743170E+02  0.92521402583E+02  0.00000000000E+00 0.  1.
          1    1    6    6  503    0  0.14855763400E+01 -0.13969629123E+03  0.25831864077E+03  0.29367631993E+03  0.00000000000E+00 0. -1.
         -1    1    6    6    0  503 -0.12300425387E+02 -0.24035513991E+02  0.19397547427E+03  0.19584557951E+03  0.00000000000E+00 0.  1.
<mgrwt>
<rscale>  0 0.60873602E+03</rscale>
<asrwt>0</asrwt>
<pdfrwt beam="1">  1        1 0.15451060E+00 0.60873602E+03</pdfrwt>
<pdfrwt beam="2">  1       -1 0.12342133E+00 0.60873602E+03</pdfrwt>
<totfact> 0.91605589E+00</totfact>
</mgrwt>
</event>
<event>
12    1  0.1444206E-007  0.3553068E+03  0.7818608E-02  0.1060458E+00
          2   -1    0    0  501    0  0.00000000000E+00  0.00000000000E+00  0.10769700279E+04  0.10769700279E+04  0.00000000000E+00 0.  1.
         -2   -1    0    0    0  501 -0.00000000000E+00 -0.00000000000E+00 -0.16896659288E+03  0.16896659288E+03  0.00000000000E+00 0. -1.
         23    2    1    2    0    0  0.16994181984E+03 -0.35763537572E+01  0.39121951778E+03  0.43621539713E+03  0.91313466535E+02 0.  0.
    5000000    2    1    2    0    0 -0.16994181984E+03  0.35763537572E+01  0.51678391719E+03  0.80972122361E+03  0.59974146968E+03 0.  0.
         23    2    4    4    0    0  0.16022637298E+03 -0.86767828615E+02  0.23446993399E+02  0.20232216519E+03  0.84754647924E+02 0.  0.
         23    2    4    4    0    0 -0.33016819282E+03  0.90344182372E+02  0.49333692380E+03  0.60739905842E+03  0.91537909908E+02 0.  0.
          2    1    3    3  502    0  0.89229087826E+02 -0.10262180686E+02  0.10218043197E+03  0.13604404855E+03  0.00000000000E+00 0. -1.
         -2    1    3    3    0  502  0.80712732013E+02  0.66858269290E+01  0.28903908580E+03  0.30017134859E+03  0.00000000000E+00 0.  1.
         13    1    5    5    0    0  0.56124734920E+02 -0.52645641127E+02 -0.27216851457E+02  0.81622952671E+02  0.00000000000E+00 0. -1.
        -13    1    5    5    0    0  0.10410163806E+03 -0.34122187488E+02  0.50663844856E+02  0.12069921252E+03  0.00000000000E+00 0.  1.
          3    1    6    6  503    0 -0.22585887552E+03  0.18434146108E+02  0.33821455985E+03  0.40711317578E+03  0.00000000000E+00 0. -1.
         -3    1    6    6    0  503 -0.10430931730E+03  0.71910036265E+02  0.15512236394E+03  0.20028588264E+03  0.00000000000E+00 0.  1.
<mgrwt>
<rscale>  0 0.35530683E+03</rscale>
<asrwt>0</asrwt>
<pdfrwt beam="1">  1        2 0.16568769E+00 0.35530683E+03</pdfrwt>
<pdfrwt beam="2">  1       -2 0.25994861E-01 0.35530683E+03</pdfrwt>
<totfact> 0.31191812E+02</totfact>
</mgrwt>
</event>
<event>
12    1  0.1444206E-007  0.5102752E+03  0.7818608E-02  0.1011131E+00
         -2   -1    0    0    0  501 -0.00000000000E+00  0.00000000000E+00  0.61991138025E+03  0.61991138025E+03  0.00000000000E+00 0.  1.
          2   -1    0    0  501    0  0.00000000000E+00 -0.00000000000E+00 -0.63722091469E+03  0.63722091469E+03  0.00000000000E+00 0. -1.
         23    2    1    2    0    0 -0.36212491656E+03  0.15499195877E+03 -0.27877191476E+03  0.49316006152E+03  0.10166662845E+03 0.  0.
    5000000    2    1    2    0    0  0.36212491656E+03 -0.15499195877E+03  0.26146238032E+03  0.76397223343E+03  0.60011168515E+03 0.  0.
         23    2    4    4    0    0  0.91065407448E+02 -0.28898306606E+03  0.31122540977E+03  0.44403092999E+03  0.92185086656E+02 0.  0.
         23    2    4    4    0    0  0.27105950911E+03  0.13399110728E+03 -0.49763029449E+02  0.31994130344E+03  0.91973932379E+02 0.  0.
          3    1    3    3  502    0 -0.78838249663E+02  0.61788734302E+02 -0.29342420619E+02  0.10437573925E+03  0.00000000000E+00 0. -1.
         -3    1    3    3    0  502 -0.28328666689E+03  0.93203224472E+02 -0.24942949414E+03  0.38878432227E+03  0.00000000000E+00 0.  1.
         13    1    5    5    0    0  0.42485767897E+02 -0.22228808488E+03  0.26836589109E+03  0.35105168373E+03  0.00000000000E+00 0. -1.
        -13    1    5    5    0    0  0.48579639550E+02 -0.66694981179E+02  0.42859518684E+02  0.92979246260E+02  0.00000000000E+00 0.  1.
          3    1    6    6  503    0  0.23004302632E+03  0.14363209230E+03 -0.28352067894E+02  0.27267895344E+03  0.00000000000E+00 0. -1.
         -3    1    6    6    0  503  0.41016482787E+02 -0.96409850172E+01 -0.21410961555E+02  0.47262349995E+02  0.00000000000E+00 0.  1.
<mgrwt>
<rscale>  0 0.51027521E+03</rscale>
<asrwt>0</asrwt>
<pdfrwt beam="1">  1        2 0.98033987E-01 0.51027521E+03</pdfrwt>
<pdfrwt beam="2">  1       -2 0.95370981E-01 0.51027521E+03</pdfrwt>
<totfact> 0.44039672E+01</totfact>
</mgrwt>
</event>
<event>
12    1  0.1444206E-007  0.2119314E+04  0.7818608E-02  0.8552783E-01
          2   -1    0    0  501    0  0.00000000000E+00  0.00000000000E+00  0.19482368280E+04  0.19482368280E+04  0.00000000000E+00 0. -1.
         -2   -1    0    0    0  501 -0.00000000000E+00 -0.00000000000E+00 -0.30164651320E+04  0.30164651320E+04  0.00000000000E+00 0.  1.
         23    2    1    2    0    0 -0.72969166877E+03  0.19874267522E+04 -0.16532542767E+04  0.26877358009E+04  0.91427595842E+02 0.  0.
    5000000    2    1    2    0    0  0.72969166877E+03 -0.19874267522E+04  0.58502597267E+03  0.22769661591E+04  0.60000372843E+03 0.  0.
         23    2    4    4    0    0  0.53303328112E+03 -0.15121979496E+04  0.68333244898E+03  0.17452908638E+04  0.90718497844E+02 0.  0.
         23    2    4    4    0    0  0.19665838765E+03 -0.47522880258E+03 -0.98306476313E+02  0.53167529529E+03  0.92181994419E+02 0.  0.
          1    1    3    3  502    0 -0.19561855870E+01  0.41781615643E+02 -0.31943534762E+02  0.52630024519E+02  0.00000000000E+00 0. -1.
         -1    1    3    3    0  502 -0.72773548318E+03  0.19456451365E+04 -0.16213107419E+04  0.26351057764E+04  0.00000000000E+00 0.  1.
         13    1    5    5    0    0  0.45856143816E+03 -0.12966138101E+04  0.61980953120E+03  0.15085257107E+04  0.00000000000E+00 0.  1.
        -13    1    5    5    0    0  0.74471842955E+02 -0.21558413952E+03  0.63522917773E+02  0.23676515303E+03  0.00000000000E+00 0. -1.
          4    1    6    6  503    0  0.17878682960E+03 -0.45631940376E+03 -0.11132936516E+03  0.50257970138E+03  0.00000000000E+00 0.  1.
         -4    1    6    6    0  503  0.17871558051E+02 -0.18909398820E+02  0.13022888850E+02  0.29095593909E+02  0.00000000000E+00 0. -1.
<mgrwt>
<rscale>  0 0.21193137E+04</rscale>
<asrwt>0</asrwt>
<pdfrwt beam="1">  1        2 0.29972874E+00 0.21193137E+04</pdfrwt>
<pdfrwt beam="2">  1       -2 0.46407156E+00 0.21193137E+04</pdfrwt>
<totfact> 0.17439654E-02</totfact>
</mgrwt>
</event>
<event>
12    1  0.1444206E-007  0.5005113E+03  0.7818608E-02  0.1013646E+00
          2   -1    0    0  501    0  0.00000000000E+00  0.00000000000E+00  0.21701515426E+04  0.21701515426E+04  0.00000000000E+00 0. -1.
         -2   -1    0    0    0  501 -0.00000000000E+00 -0.00000000000E+00 -0.35069306982E+03  0.35069306982E+03  0.00000000000E+00 0.  1.
         23    2    1    2    0    0 -0.30079620257E+03  0.14340091331E+03 -0.19211619121E+03  0.39545824267E+03  0.91849950173E+02 0.  0.
    5000000    2    1    2    0    0  0.30079620257E+03 -0.14340091331E+03  0.20115746640E+04  0.21253863698E+04  0.59982698713E+03 0.  0.
         23    2    4    4    0    0  0.15689744743E+03 -0.35852740443E+03  0.10039680172E+04  0.10810914296E+04  0.87453934941E+02 0.  0.
         23    2    4    4    0    0  0.14389875514E+03  0.21512649112E+03  0.10076066468E+04  0.10442949402E+04  0.91074192671E+02 0.  0.
          1    1    3    3  502    0 -0.90035373856E+02  0.81149866557E+02 -0.10014130564E+03  0.15722579459E+03  0.00000000000E+00 0. -1.
         -1    1    3    3    0  502 -0.21076082872E+03  0.62251046756E+02 -0.91974885574E+02  0.23823244808E+03  0.00000000000E+00 0.  1.
         11    1    5    5    0    0  0.10530940298E+03 -0.25647583031E+03  0.59478919836E+03  0.65623479973E+03  0.00000000000E+00 0.  1.
        -11    1    5    5    0    0  0.51588044451E+02 -0.10205157413E+03  0.40917881889E+03  0.42485662986E+03  0.00000000000E+00 0. -1.
          3    1    6    6  503    0  0.75295194508E+02  0.17109285149E+03  0.79282459038E+03  0.81456304928E+03  0.00000000000E+00 0. -1.
         -3    1    6    6    0  503  0.68603560633E+02  0.44033639626E+02  0.21478205639E+03  0.22973189091E+03  0.00000000000E+00 0.  1.
<mgrwt>
<rscale>  0 0.50051131E+03</rscale>
<asrwt>0</asrwt>
<pdfrwt beam="1">  1        2 0.33386946E+00 0.50051131E+03</pdfrwt>
<pdfrwt beam="2">  1       -2 0.53952781E-01 0.50051131E+03</pdfrwt>
<totfact> 0.18850772E+01</totfact>
</mgrwt>
</event>
<event>
12    1  0.1444206E-007  0.5714898E+03  0.7818608E-02  0.9966387E-01
          2   -1    0    0  501    0  0.00000000000E+00  0.00000000000E+00  0.37551134723E+04  0.37551134723E+04  0.00000000000E+00 0. -1.
         -2   -1    0    0    0  501 -0.00000000000E+00 -0.00000000000E+00 -0.90217069606E+02  0.90217069606E+02  0.00000000000E+00 0.  1.
         23    2    1    2    0    0  0.19640025308E+03 -0.37076983201E+03  0.12402508445E+04  0.13125799893E+04  0.92740192560E+02 0.  0.
    5000000    2    1    2    0    0 -0.19640025308E+03  0.37076983201E+03  0.24246455582E+04  0.25327505526E+04  0.59989661699E+03 0.  0.
         23    2    4    4    0    0 -0.35986167315E+03  0.78584626687E+02  0.11069330638E+04  0.11701832167E+04  0.91389198758E+02 0.  0.
         23    2    4    4    0    0  0.16346142008E+03  0.29218520532E+03  0.13177124944E+04  0.13625673359E+04  0.90175921409E+02 0.  0.
          1    1    3    3  502    0  0.12669510107E+03 -0.14787851390E+03  0.61769650063E+03  0.64766401042E+03  0.00000000000E+00 0. -1.
         -1    1    3    3    0  502  0.69705152003E+02 -0.22289131811E+03  0.62255434386E+03  0.66491597888E+03  0.00000000000E+00 0.  1.
         11    1    5    5    0    0 -0.54855749903E+02 -0.17342797559E+02  0.21925584553E+03  0.22667830007E+03  0.00000000000E+00 0.  1.
        -11    1    5    5    0    0 -0.30500592325E+03  0.95927424246E+02  0.88767721826E+03  0.94350491666E+03  0.00000000000E+00 0. -1.
          4    1    6    6  503    0  0.10385233815E+03  0.22383748328E+03  0.80760923043E+03  0.84446503548E+03  0.00000000000E+00 0. -1.
         -4    1    6    6    0  503  0.59609081927E+02  0.68347722039E+02  0.51010326399E+03  0.51810230041E+03  0.00000000000E+00 0.  1.
<mgrwt>
<rscale>  0 0.57148980E+03</rscale>
<asrwt>0</asrwt>
<pdfrwt beam="1">  1        2 0.57770964E+00 0.57148980E+03</pdfrwt>
<pdfrwt beam="2">  1       -2 0.13879552E-01 0.57148980E+03</pdfrwt>
<totfact> 0.23932559E+01</totfact>
</mgrwt>
</event>
<event>
12    1  0.1444206E-007  0.1382499E+04  0.7818608E-02  0.8966585E-01
         -1   -1    0    0    0  501 -0.00000000000E+00  0.00000000000E+00  0.13573274367E+04  0.13573274367E+04  0.00000000000E+00 0.  1.
          1   -1    0    0  501    0  0.00000000000E+00 -0.00000000000E+00 -0.15176146828E+04  0.15176146828E+04  0.00000000000E+00 0. -1.
         23    2    1    2    0    0 -0.12632768408E+04  0.52573765074E+03 -0.16157615298E+03  0.13809094753E+04  0.92388699843E+02 0.  0.
    5000000    2    1    2    0    0  0.12632768408E+04 -0.52573765074E+03  0.12889068036E+01  0.14940326442E+04  0.59988617830E+03 0.  0.
         23    2    4    4    0    0  0.56647062399E+03 -0.98706345679E+02  0.25157825267E+03  0.63439893200E+03  0.92403880815E+02 0.  0.
         23    2    4    4    0    0  0.69680621678E+03 -0.42703130506E+03 -0.25028934587E+03  0.85963371223E+03  0.91818970253E+02 0.  0.
          4    1    3    3  502    0 -0.47635682957E+03  0.23582598337E+03 -0.33831364501E+02  0.53261081921E+03  0.00000000000E+00 0. -1.
         -4    1    3    3    0  502 -0.78692001120E+03  0.28991166736E+03 -0.12774478848E+03  0.84829865606E+03  0.00000000000E+00 0.  1.
         13    1    5    5    0    0  0.36559432459E+03 -0.88876927278E+02  0.12363634104E+03  0.39603568425E+03  0.00000000000E+00 0. -1.
        -13    1    5    5    0    0  0.20087629940E+03 -0.98294184015E+01  0.12794191164E+03  0.23836324775E+03  0.00000000000E+00 0.  1.
          2    1    6    6  503    0  0.20244748416E+03 -0.13447006770E+03 -0.32087884437E+02  0.24514651798E+03  0.00000000000E+00 0. -1.
         -2    1    6    6    0  503  0.49435873263E+03 -0.29256123736E+03 -0.21820146143E+03  0.61448719425E+03  0.00000000000E+00 0.  1.
<mgrwt>
<rscale>  0 0.13824989E+04</rscale>
<asrwt>0</asrwt>
<pdfrwt beam="1">  1        1 0.23347918E+00 0.13824989E+04</pdfrwt>
<pdfrwt beam="2">  1       -1 0.20881961E+00 0.13824989E+04</pdfrwt>
<totfact> 0.79875317E-01</totfact>
</mgrwt>
</event>
<event>
12    1  0.1444206E-007  0.5632875E+03  0.7818608E-02  0.9984643E-01
         -2   -1    0    0    0  501 -0.00000000000E+00  0.00000000000E+00  0.85546933420E+03  0.85546933420E+03  0.00000000000E+00 0.  1.
          2   -1    0    0  501    0  0.00000000000E+00 -0.00000000000E+00 -0.38213351919E+03  0.38213351919E+03  0.00000000000E+00 0. -1.
         23    2    1    2    0    0 -0.20726139442E+03  0.35072688316E+03  0.15333010736E+03  0.44481957598E+03  0.91584393675E+02 0.  0.
    5000000    2    1    2    0    0  0.20726139442E+03 -0.35072688316E+03  0.32000570765E+03  0.79278327741E+03  0.60011252263E+03 0.  0.
         23    2    4    4    0    0  0.51424251863E+01  0.14738259928E+03  0.12430989306E+03  0.21337746128E+03  0.91262896954E+02 0.  0.
         23    2    4    4    0    0  0.20211896924E+03 -0.49810948244E+03  0.19569581459E+03  0.57940581613E+03  0.91919060598E+02 0.  0.
          1    1    3    3  502    0 -0.19946920960E+02  0.46578200066E+02  0.54030525832E+02  0.74072303183E+02  0.00000000000E+00 0. -1.
         -1    1    3    3    0  502 -0.18731447346E+03  0.30414868309E+03  0.99299581531E+02  0.37074727280E+03  0.00000000000E+00 0.  1.
         11    1    5    5    0    0 -0.24845870921E+02  0.14043106720E+03  0.10066800162E+03  0.17456302153E+03  0.00000000000E+00 0. -1.
        -11    1    5    5    0    0  0.29988296107E+02  0.69515320814E+01  0.23641891449E+02  0.38814439749E+02  0.00000000000E+00 0.  1.
          4    1    6    6  503    0  0.48704132926E+01 -0.10853556555E+03  0.42099808101E+02  0.11651645273E+03  0.00000000000E+00 0. -1.
         -4    1    6    6    0  503  0.19724855594E+03 -0.38957391688E+03  0.15359600648E+03  0.46288936340E+03  0.00000000000E+00 0.  1.
<mgrwt>
<rscale>  0 0.56328751E+03</rscale>
<asrwt>0</asrwt>
<pdfrwt beam="1">  1        2 0.58789772E-01 0.56328751E+03</pdfrwt>
<pdfrwt beam="2">  1       -2 0.13161067E+00 0.56328751E+03</pdfrwt>
<totfact> 0.36184140E+01</totfact>
</mgrwt>
</event>
<event>
12    1  0.1444206E-007  0.1174228E+04  0.7818608E-02  0.9135719E-01
          2   -1    0    0  501    0  0.00000000000E+00  0.00000000000E+00  0.89515276616E+03  0.89515276616E+03  0.00000000000E+00 0. -1.
         -2   -1    0    0    0  501 -0.00000000000E+00 -0.00000000000E+00 -0.17711356736E+04  0.17711356736E+04  0.00000000000E+00 0.  1.
         23    2    1    2    0    0 -0.11377486669E+04 -0.56100700525E+02 -0.66536824017E+02  0.11446551811E+04  0.90493187889E+02 0.  0.
    5000000    2    1    2    0    0  0.11377486669E+04  0.56100700525E+02 -0.80944608340E+03  0.15216332586E+04  0.60211750869E+03 0.  0.
         23    2    4    4    0    0  0.77935064903E+03 -0.12717672392E+03 -0.76961995003E+03  0.11064566751E+04  0.91488540481E+02 0.  0.
         23    2    4    4    0    0  0.35839801786E+03  0.18327742444E+03 -0.39826133369E+02  0.41517658359E+03  0.93518560430E+02 0.  0.
          3    1    3    3  502    0 -0.52730727959E+03 -0.62663296040E+02 -0.57392259109E+02  0.53411003285E+03  0.00000000000E+00 0. -1.
         -3    1    3    3    0  502 -0.61044138730E+03  0.65625955156E+01 -0.91445649080E+01  0.61054514825E+03  0.00000000000E+00 0.  1.
         13    1    5    5    0    0  0.11514612729E+03  0.10182831707E+02 -0.13323899444E+03  0.17639430357E+03  0.00000000000E+00 0.  1.
        -13    1    5    5    0    0  0.66420452174E+03 -0.13735955562E+03 -0.63638095560E+03  0.93006237149E+03  0.00000000000E+00 0. -1.
          2    1    6    6  503    0  0.43284100373E+02 -0.86578885642E+01 -0.75896830986E+00  0.44148028409E+02  0.00000000000E+00 0. -1.
         -2    1    6    6    0  503  0.31511391748E+03  0.19193531301E+03 -0.39067165059E+02  0.37102855518E+03  0.00000000000E+00 0.  1.
<mgrwt>
<rscale>  0 0.11742282E+04</rscale>
<asrwt>0</asrwt>
<pdfrwt beam="1">  1        2 0.13771581E+00 0.11742282E+04</pdfrwt>
<pdfrwt beam="2">  1       -2 0.27248241E+00 0.11742282E+04</pdfrwt>
<totfact> 0.13547211E+00</totfact>
</mgrwt>
</event>
<event>
12    1  0.1444206E-007  0.7983959E+03  0.7818608E-02  0.9562342E-01
          1   -1    0    0  501    0  0.00000000000E+00  0.00000000000E+00  0.39546136092E+04  0.39546136092E+04  0.00000000000E+00 0. -1.
         -1   -1    0    0    0  501 -0.00000000000E+00 -0.00000000000E+00 -0.24869740883E+03  0.24869740883E+03  0.00000000000E+00 0.  1.
         23    2    1    2    0    0  0.54942502569E+03 -0.43125427988E+03  0.48847966124E+03  0.85666469905E+03  0.86104090355E+02 0.  0.
    5000000    2    1    2    0    0 -0.54942502569E+03  0.43125427988E+03  0.32174365391E+04  0.33466463189E+04  0.60024627302E+03 0.  0.
         23    2    4    4    0    0 -0.16535297131E+03  0.46887733829E+03  0.21297585719E+04  0.21889980402E+04  0.93023018642E+02 0.  0.
         23    2    4    4    0    0 -0.38407205438E+03 -0.37623058406E+02  0.10876779672E+04  0.11576482788E+04  0.90439700732E+02 0.  0.
          2    1    3    3  502    0  0.33682267115E+03 -0.21042859021E+03  0.27007081990E+03  0.48027903467E+03  0.00000000000E+00 0. -1.
         -2    1    3    3    0  502  0.21260235454E+03 -0.22082568967E+03  0.21840884134E+03  0.37638566438E+03  0.00000000000E+00 0.  1.
         13    1    5    5    0    0 -0.69155355861E+02  0.27439697553E+03  0.13669107505E+04  0.13958943955E+04  0.00000000000E+00 0. -1.
        -13    1    5    5    0    0 -0.96197615453E+02  0.19448036276E+03  0.76284782133E+03  0.79310364470E+03  0.00000000000E+00 0.  1.
          1    1    6    6  503    0 -0.17525869688E+03 -0.54828909010E+02  0.43524792791E+03  0.47240086669E+03  0.00000000000E+00 0. -1.
         -1    1    6    6    0  503 -0.20881335750E+03  0.17205850604E+02  0.65243003931E+03  0.68524741208E+03  0.00000000000E+00 0.  1.
<mgrwt>
<rscale>  0 0.79839591E+03</rscale>
<asrwt>0</asrwt>
<pdfrwt beam="1">  1        1 0.60840205E+00 0.79839591E+03</pdfrwt>
<pdfrwt beam="2">  1       -1 0.38261143E-01 0.79839591E+03</pdfrwt>
<totfact> 0.75992917E-01</totfact>
</mgrwt>
</event>
<event>
12    1  0.1444206E-007  0.1190631E+04  0.7818608E-02  0.9121097E-01
          1   -1    0    0  501    0  0.00000000000E+00  0.00000000000E+00  0.11004534847E+04  0.11004534847E+04  0.00000000000E+00 0. -1.
         -1   -1    0    0    0  501 -0.00000000000E+00 -0.00000000000E+00 -0.13737893530E+04  0.13737893530E+04  0.00000000000E+00 0.  1.
         23    2    1    2    0    0 -0.11109146971E+04  0.14354546857E+03 -0.40857327620E+03  0.11963580550E+04  0.97998510529E+02 0.  0.
    5000000    2    1    2    0    0  0.11109146971E+04 -0.14354546857E+03  0.13523740789E+03  0.12778847826E+04  0.59996966203E+03 0.  0.
         23    2    4    4    0    0  0.39345554576E+02  0.12442235873E+03  0.44812236686E+02  0.16573804937E+03  0.91825750403E+02 0.  0.
         23    2    4    4    0    0  0.10715691425E+04 -0.26796782730E+03  0.90425171204E+02  0.11121467332E+04  0.92878743443E+02 0.  0.
          1    1    3    3  502    0 -0.58546515188E+03  0.59040583047E+02 -0.16543858286E+03  0.61124885212E+03  0.00000000000E+00 0. -1.
         -1    1    3    3    0  502 -0.52544954522E+03  0.84504885521E+02 -0.24313469333E+03  0.58510920293E+03  0.00000000000E+00 0.  1.
         13    1    5    5    0    0  0.64770910252E+02  0.90213046292E+02  0.51804281443E+02  0.12254529004E+03  0.00000000000E+00 0. -1.
        -13    1    5    5    0    0 -0.25425355676E+02  0.34209312435E+02 -0.69920447578E+01  0.43192759328E+02  0.00000000000E+00 0.  1.
          1    1    6    6  503    0  0.51872978402E+02  0.26834707505E+01 -0.80291523983E+01  0.52559244589E+02  0.00000000000E+00 0. -1.
         -1    1    6    6    0  503  0.10196961641E+04 -0.27065129805E+03  0.98454323603E+02  0.10595874887E+04  0.00000000000E+00 0.  1.
<mgrwt>
<rscale>  0 0.11906309E+04</rscale>
<asrwt>0</asrwt>
<pdfrwt beam="1">  1        1 0.16930054E+00 0.11906309E+04</pdfrwt>
<pdfrwt beam="2">  1       -1 0.21135221E+00 0.11906309E+04</pdfrwt>
<totfact> 0.15653538E+00</totfact>
</mgrwt>
</event>
<event>
12    1  0.1444206E-007  0.1037137E+04  0.7818608E-02  0.9268726E-01
          2   -1    0    0  501    0  0.00000000000E+00  0.00000000000E+00  0.40221570792E+04  0.40221570792E+04  0.00000000000E+00 0. -1.
         -2   -1    0    0    0  501 -0.00000000000E+00 -0.00000000000E+00 -0.31061092030E+03  0.31061092030E+03  0.00000000000E+00 0.  1.
         23    2    1    2    0    0 -0.79538581225E+03 -0.56015623242E+03  0.24106140505E+04  0.26010656078E+04  0.89825388820E+02 0.  0.
    5000000    2    1    2    0    0  0.79538581225E+03  0.56015623242E+03  0.13009321084E+04  0.17317023917E+04  0.59996268859E+03 0.  0.
         23    2    4    4    0    0  0.72604635744E+03  0.65487124364E+03  0.12051976005E+04  0.15545123423E+04  0.89485793956E+02 0.  0.
         23    2    4    4    0    0  0.69339454806E+02 -0.94715011213E+02  0.95734507891E+02  0.17719004936E+03  0.91936522934E+02 0.  0.
          1    1    3    3  502    0 -0.35026100001E+03 -0.29920790208E+03  0.11028070124E+04  0.11951533137E+04  0.00000000000E+00 0. -1.
         -1    1    3    3    0  502 -0.44512481224E+03 -0.26094833034E+03  0.13078070381E+04  0.14059122940E+04  0.00000000000E+00 0.  1.
         13    1    5    5    0    0  0.17688407464E+03  0.16763705293E+03  0.36343511389E+03  0.43757883791E+03  0.00000000000E+00 0. -1.
        -13    1    5    5    0    0  0.54916228280E+03  0.48723419070E+03  0.84176248659E+03  0.11169335044E+04  0.00000000000E+00 0.  1.
          4    1    6    6  503    0  0.70516325009E+02 -0.87029536802E+02  0.11247220001E+03  0.15873464696E+03  0.00000000000E+00 0. -1.
         -4    1    6    6    0  503 -0.11768702027E+01 -0.76854744113E+01 -0.16737692120E+02  0.18455402405E+02  0.00000000000E+00 0.  1.
<mgrwt>
<rscale>  0 0.10371368E+04</rscale>
<asrwt>0</asrwt>
<pdfrwt beam="1">  1        2 0.61879336E+00 0.10371368E+04</pdfrwt>
<pdfrwt beam="2">  1       -2 0.47786298E-01 0.10371368E+04</pdfrwt>
<totfact> 0.14283319E+00</totfact>
</mgrwt>
</event>
<event>
12    1  0.1444206E-007  0.5132403E+03  0.7818608E-02  0.1010380E+00
         -1   -1    0    0    0  501 -0.00000000000E+00  0.00000000000E+00  0.13485615220E+03  0.13485615220E+03  0.00000000000E+00 0.  1.
          1   -1    0    0  501    0  0.00000000000E+00 -0.00000000000E+00 -0.28265649082E+04  0.28265649082E+04  0.00000000000E+00 0. -1.
         23    2    1    2    0    0 -0.44183125520E+03  0.69465938259E+02 -0.13502598281E+04  0.14253438501E+04  0.91450057477E+02 0.  0.
    5000000    2    1    2    0    0  0.44183125520E+03 -0.69465938259E+02 -0.13414489279E+04  0.15360772103E+04  0.60000632927E+03 0.  0.
         23    2    4    4    0    0  0.49815106418E+01  0.93800672377E+02 -0.22778565069E+02  0.13449102781E+03  0.93517869679E+02 0.  0.
         23    2    4    4    0    0  0.43684974456E+03 -0.16326661064E+03 -0.13186703629E+04  0.14015861825E+04  0.89769792403E+02 0.  0.
          4    1    3    3  502    0 -0.29510835030E+03  0.43081997505E+02 -0.75673663853E+03  0.81338510990E+03  0.00000000000E+00 0.  1.
         -4    1    3    3    0  502 -0.14672290490E+03  0.26383940754E+02 -0.59352318956E+03  0.61195874019E+03  0.00000000000E+00 0. -1.
         13    1    5    5    0    0  0.20076877497E+02  0.77036207584E+01 -0.39987330635E+02  0.45402790598E+02  0.00000000000E+00 0. -1.
        -13    1    5    5    0    0 -0.15095366855E+02  0.86097051619E+02  0.17208765566E+02  0.89088237216E+02  0.00000000000E+00 0.  1.
          1    1    6    6  503    0  0.35405609386E+03 -0.10599545971E+03 -0.94818587403E+03  0.10176675325E+04  0.00000000000E+00 0. -1.
         -1    1    6    6    0  503  0.82793650694E+02 -0.57271150927E+02 -0.37048448882E+03  0.38391864995E+03  0.00000000000E+00 0.  1.
<mgrwt>
<rscale>  0 0.51324033E+03</rscale>
<asrwt>0</asrwt>
<pdfrwt beam="1">  1        1 0.43485613E+00 0.51324033E+03</pdfrwt>
<pdfrwt beam="2">  1       -1 0.20747101E-01 0.51324033E+03</pdfrwt>
<totfact> 0.16919236E+01</totfact>
</mgrwt>
</event>
<event>
12    1  0.1444206E-007  0.6170895E+03  0.7818608E-02  0.9870572E-01
         -1   -1    0    0    0  501 -0.00000000000E+00  0.00000000000E+00  0.13446707074E+03  0.13446707074E+03  0.00000000000E+00 0.  1.
          1   -1    0    0  501    0  0.00000000000E+00 -0.00000000000E+00 -0.32059892006E+04  0.32059892006E+04  0.00000000000E+00 0. -1.
         23    2    1    2    0    0  0.17692737813E+03  0.44835330338E+03 -0.76290954047E+03  0.90695040185E+03  0.90576391376E+02 0.  0.
    5000000    2    1    2    0    0 -0.17692737813E+03 -0.44835330338E+03 -0.23086125894E+04  0.24335058695E+04  0.59994562017E+03 0.  0.
         23    2    4    4    0    0  0.12432719193E+03 -0.43054427679E+03 -0.13997070982E+04  0.14725565052E+04  0.91744620348E+02 0.  0.
         23    2    4    4    0    0 -0.30125457007E+03 -0.17809026596E+02 -0.90890549117E+03  0.96094936426E+03  0.79012729182E+02 0.  0.
          1    1    3    3  502    0  0.12777005333E+03  0.27624337190E+03 -0.40331497527E+03  0.50527077525E+03  0.00000000000E+00 0. -1.
         -1    1    3    3    0  502  0.49157324804E+02  0.17210993148E+03 -0.35959456520E+03  0.40167962659E+03  0.00000000000E+00 0.  1.
         11    1    5    5    0    0  0.90022928884E+02 -0.29384911902E+03 -0.81271453523E+03  0.86888224072E+03  0.00000000000E+00 0.  1.
        -11    1    5    5    0    0  0.34304263051E+02 -0.13669515776E+03 -0.58699256300E+03  0.60367426452E+03  0.00000000000E+00 0. -1.
          3    1    6    6  503    0 -0.11701312790E+03  0.36859692011E+01 -0.47193156927E+03  0.48623560600E+03  0.00000000000E+00 0. -1.
         -3    1    6    6    0  503 -0.18424144217E+03 -0.21494995797E+02 -0.43697392190E+03  0.47471375826E+03  0.00000000000E+00 0.  1.
<mgrwt>
<rscale>  0 0.61708947E+03</rscale>
<asrwt>0</asrwt>
<pdfrwt beam="1">  1        1 0.49322910E+00 0.61708947E+03</pdfrwt>
<pdfrwt beam="2">  1       -1 0.20687242E-01 0.61708947E+03</pdfrwt>
<totfact> 0.89003571E+00</totfact>
</mgrwt>
</event>
<event>
12    1  0.1444206E-007  0.1275402E+04  0.7818608E-02  0.9049302E-01
         -2   -1    0    0    0  501 -0.00000000000E+00  0.00000000000E+00  0.91749982904E+03  0.91749982904E+03  0.00000000000E+00 0.  1.
          2   -1    0    0  501    0  0.00000000000E+00 -0.00000000000E+00 -0.20625717062E+04  0.20625717062E+04  0.00000000000E+00 0. -1.
         23    2    1    2    0    0 -0.12041167984E+03  0.12346416517E+04 -0.94731856842E+02  0.12474321627E+04  0.90960953670E+02 0.  0.
    5000000    2    1    2    0    0  0.12041167984E+03 -0.12346416517E+04 -0.10503400203E+04  0.17326393726E+04  0.59998838006E+03 0.  0.
         23    2    4    4    0    0 -0.13992701421E+03 -0.60048009280E+03 -0.24122665101E+03  0.66805498919E+03  0.89169839461E+02 0.  0.
         23    2    4    4    0    0  0.26033869405E+03 -0.63416155891E+03 -0.80911336934E+03  0.10645843834E+04  0.93479123049E+02 0.  0.
          3    1    3    3  502    0 -0.91484431172E+02  0.58746220249E+03 -0.75537626049E+02  0.59932226177E+03  0.00000000000E+00 0. -1.
         -3    1    3    3    0  502 -0.28927248667E+02  0.64717944922E+03 -0.19194230792E+02  0.64810990095E+03  0.00000000000E+00 0.  1.
         11    1    5    5    0    0 -0.56101423787E+02 -0.24523398066E+03 -0.14587675296E+03  0.29080423325E+03  0.00000000000E+00 0.  1.
        -11    1    5    5    0    0 -0.83825590421E+02 -0.35524611214E+03 -0.95349898048E+02  0.37725075594E+03  0.00000000000E+00 0. -1.
          1    1    6    6  503    0  0.14742643706E+03 -0.47030809859E+03 -0.57641695290E+03  0.75840672830E+03  0.00000000000E+00 0. -1.
         -1    1    6    6    0  503  0.11291225699E+03 -0.16385346032E+03 -0.23269641644E+03  0.30617765507E+03  0.00000000000E+00 0.  1.
<mgrwt>
<rscale>  0 0.12754018E+04</rscale>
<asrwt>0</asrwt>
<pdfrwt beam="1">  1        2 0.31731872E+00 0.12754018E+04</pdfrwt>
<pdfrwt beam="2">  1       -2 0.14115382E+00 0.12754018E+04</pdfrwt>
<totfact> 0.20949841E+00</totfact>
</mgrwt>
</event>
<event>
12    1  0.1444206E-007  0.4989157E+03  0.7818608E-02  0.1014062E+00
         -2   -1    0    0    0  501 -0.00000000000E+00  0.00000000000E+00  0.43330939212E+03  0.43330939212E+03  0.00000000000E+00 0.  1.
          2   -1    0    0  501    0  0.00000000000E+00 -0.00000000000E+00 -0.84009104895E+03  0.84009104895E+03  0.00000000000E+00 0. -1.
         23    2    1    2    0    0  0.83231605114E+02 -0.32200757736E+03  0.16294883879E+03  0.38232822173E+03  0.94900817199E+02 0.  0.
    5000000    2    1    2    0    0 -0.83231605114E+02  0.32200757736E+03 -0.56973049562E+03  0.89107221935E+03  0.59899956802E+03 0.  0.
         23    2    4    4    0    0 -0.13221879000E+03  0.47015773027E+03 -0.35602704232E+03  0.61126273456E+03  0.91415403730E+02 0.  0.
         23    2    4    4    0    0  0.48987184882E+02 -0.14815015291E+03 -0.21370345330E+03  0.27980948479E+03  0.90972356980E+02 0.  0.
          1    1    3    3  502    0  0.73051132894E+02 -0.18496628900E+03  0.13951194645E+03  0.24292504870E+03  0.00000000000E+00 0. -1.
         -1    1    3    3    0  502  0.10180472219E+02 -0.13704128835E+03  0.23436892340E+02  0.13940317303E+03  0.00000000000E+00 0.  1.
         13    1    5    5    0    0 -0.12265756860E+03  0.27133398434E+03 -0.21777405323E+03  0.36890723556E+03  0.00000000000E+00 0.  1.
        -13    1    5    5    0    0 -0.95612213931E+01  0.19882374593E+03 -0.13825298909E+03  0.24235549900E+03  0.00000000000E+00 0. -1.
          3    1    6    6  503    0  0.60493799475E+02 -0.12464920019E+03 -0.21241879680E+03  0.25361125392E+03  0.00000000000E+00 0. -1.
         -3    1    6    6    0  503 -0.11506614593E+02 -0.23500952724E+02 -0.12846565043E+01  0.26198230869E+02  0.00000000000E+00 0.  1.
<mgrwt>
<rscale>  0 0.49891572E+03</rscale>
<asrwt>0</asrwt>
<pdfrwt beam="1">  1        2 0.12924478E+00 0.49891572E+03</pdfrwt>
<pdfrwt beam="2">  1       -2 0.66662984E-01 0.49891572E+03</pdfrwt>
<totfact> 0.69131640E+01</totfact>
</mgrwt>
</event>
<event>
12    1  0.1444206E-007  0.6072387E+03  0.7818608E-02  0.9890501E-01
         -1   -1    0    0    0  501 -0.00000000000E+00  0.00000000000E+00  0.20301514162E+03  0.20301514162E+03  0.00000000000E+00 0.  1.
          1   -1    0    0  501    0  0.00000000000E+00 -0.00000000000E+00 -0.22925858626E+04  0.22925858626E+04  0.00000000000E+00 0. -1.
         23    2    1    2    0    0  0.14974748997E+02 -0.52742271557E+03 -0.11031571530E+04  0.12262164890E+04  0.90841673551E+02 0.  0.
    5000000    2    1    2    0    0 -0.14974748997E+02  0.52742271557E+03 -0.98641356802E+03  0.12693845153E+04  0.59993862720E+03 0.  0.
         23    2    4    4    0    0  0.83654899912E+02  0.54040955681E+03 -0.98886942879E+03  0.11338029874E+04  0.92767643939E+02 0.  0.
         23    2    4    4    0    0 -0.98629648909E+02 -0.12986841248E+02  0.24558607708E+01  0.13558152782E+03  0.92086121339E+02 0.  0.
          4    1    3    3  502    0  0.42249235262E+02 -0.45312696575E+03 -0.90930465770E+03  0.10168303720E+04  0.00000000000E+00 0. -1.
         -4    1    3    3    0  502 -0.27274486265E+02 -0.74295749819E+02 -0.19385249525E+03  0.20938611692E+03  0.00000000000E+00 0.  1.
         13    1    5    5    0    0  0.18202877532E+02  0.12633592871E+03 -0.31878683140E+03  0.34339067475E+03  0.00000000000E+00 0. -1.
        -13    1    5    5    0    0  0.65452022380E+02  0.41407362811E+03 -0.67008259740E+03  0.79041231270E+03  0.00000000000E+00 0.  1.
          2    1    6    6  503    0 -0.40677753765E+02 -0.50126060445E+02 -0.10894559557E+02  0.65467495867E+02  0.00000000000E+00 0. -1.
         -2    1    6    6    0  503 -0.57951895144E+02  0.37139219197E+02  0.13350420327E+02  0.70114031950E+02  0.00000000000E+00 0.  1.
<mgrwt>
<rscale>  0 0.60723869E+03</rscale>
<asrwt>0</asrwt>
<pdfrwt beam="1">  1        1 0.35270553E+00 0.60723869E+03</pdfrwt>
<pdfrwt beam="2">  1       -1 0.31233098E-01 0.60723869E+03</pdfrwt>
<totfact> 0.19145096E+01</totfact>
</mgrwt>
</event>
<event>
12    1  0.1444206E-007  0.5347551E+03  0.7818608E-02  0.1005085E+00
          2   -1    0    0  501    0  0.00000000000E+00  0.00000000000E+00  0.12941705726E+04  0.12941705726E+04  0.00000000000E+00 0. -1.
         -2   -1    0    0    0  501 -0.00000000000E+00 -0.00000000000E+00 -0.49853761975E+03  0.49853761975E+03  0.00000000000E+00 0.  1.
         23    2    1    2    0    0  0.55755004393E+02 -0.38281286747E+03 -0.29114141351E+03  0.49251487615E+03  0.90295451429E+02 0.  0.
    5000000    2    1    2    0    0 -0.55755004393E+02  0.38281286747E+03  0.10867743664E+04  0.13001933162E+04  0.59980815610E+03 0.  0.
         23    2    4    4    0    0  0.24530483245E+03  0.20123790244E+03  0.35496672983E+03  0.48307717013E+03  0.81798647992E+02 0.  0.
         23    2    4    4    0    0 -0.30105983685E+03  0.18157496503E+03  0.73180763658E+03  0.81711614612E+03  0.92357381963E+02 0.  0.
          4    1    3    3  502    0  0.49451867004E+02 -0.17601349814E+03 -0.18453908828E+03  0.25977088709E+03  0.00000000000E+00 0. -1.
         -4    1    3    3    0  502  0.63031373890E+01 -0.20679936933E+03 -0.10660232523E+03  0.23274398905E+03  0.00000000000E+00 0.  1.
         13    1    5    5    0    0  0.66182357897E+02  0.41213180020E+02  0.41984380045E+02  0.88551221741E+02  0.00000000000E+00 0. -1.
        -13    1    5    5    0    0  0.17912247456E+03  0.16002472242E+03  0.31298234978E+03  0.39452594839E+03  0.00000000000E+00 0.  1.
          3    1    6    6  503    0 -0.17937672056E+03  0.58800839927E+02  0.34039801387E+03  0.38923560282E+03  0.00000000000E+00 0. -1.
         -3    1    6    6    0  503 -0.12168311628E+03  0.12277412510E+03  0.39140962272E+03  0.42788054330E+03  0.00000000000E+00 0.  1.
<mgrwt>
<rscale>  0 0.53475511E+03</rscale>
<asrwt>0</asrwt>
<pdfrwt beam="1">  1        2 0.19910316E+00 0.53475511E+03</pdfrwt>
<pdfrwt beam="2">  1       -2 0.76698096E-01 0.53475511E+03</pdfrwt>
<totfact> 0.26560276E+01</totfact>
</mgrwt>
</event>
<event>
12    1  0.1444206E-007  0.9754253E+03  0.7818608E-02  0.9335916E-01
          2   -1    0    0  501    0  0.00000000000E+00  0.00000000000E+00  0.21763540222E+04  0.21763540222E+04  0.00000000000E+00 0. -1.
         -2   -1    0    0    0  501 -0.00000000000E+00 -0.00000000000E+00 -0.50392182044E+03  0.50392182044E+03  0.00000000000E+00 0.  1.
         23    2    1    2    0    0 -0.94855885569E+03  0.11057357160E+03  0.87735816725E+03  0.12999899546E+04  0.90697909934E+02 0.  0.
    5000000    2    1    2    0    0  0.94855885569E+03 -0.11057357160E+03  0.79507403449E+03  0.13802858881E+04  0.60087935147E+03 0.  0.
         23    2    4    4    0    0  0.14856965078E+03 -0.11191136689E+03  0.46712837432E+03  0.51087041458E+03  0.90457543791E+02 0.  0.
         23    2    4    4    0    0  0.79998920491E+03  0.13377952927E+01  0.32794566017E+03  0.86941547348E+03  0.91380478370E+02 0.  0.
          1    1    3    3  502    0 -0.44446322153E+03  0.13590759797E+02  0.44064305749E+03  0.62601802542E+03  0.00000000000E+00 0. -1.
         -1    1    3    3    0  502 -0.50409563416E+03  0.96982811803E+02  0.43671510976E+03  0.67397192913E+03  0.00000000000E+00 0.  1.
         13    1    5    5    0    0  0.14903039035E+03 -0.10196297045E+03  0.35485755716E+03  0.39815875033E+03  0.00000000000E+00 0. -1.
        -13    1    5    5    0    0 -0.46073957389E+00 -0.99483964455E+01  0.11227081716E+03  0.11271166425E+03  0.00000000000E+00 0.  1.
          1    1    6    6  503    0  0.65315577303E+03 -0.22544594664E+02  0.29504332028E+03  0.71705737806E+03  0.00000000000E+00 0. -1.
         -1    1    6    6    0  503  0.14683343188E+03  0.23882389957E+02  0.32902339884E+02  0.15235809542E+03  0.00000000000E+00 0.  1.
<mgrwt>
<rscale>  0 0.97542528E+03</rscale>
<asrwt>0</asrwt>
<pdfrwt beam="1">  1        2 0.33482369E+00 0.97542528E+03</pdfrwt>
<pdfrwt beam="2">  1       -2 0.77526435E-01 0.97542528E+03</pdfrwt>
<totfact> 0.79593802E+00</totfact>
</mgrwt>
</event>
<event>
12    1  0.1444206E-007  0.1005899E+04  0.7818608E-02  0.9302099E-01
         -2   -1    0    0    0  501 -0.00000000000E+00  0.00000000000E+00  0.88178057850E+03  0.88178057850E+03  0.00000000000E+00 0.  1.
          2   -1    0    0  501    0  0.00000000000E+00 -0.00000000000E+00 -0.15039877839E+04  0.15039877839E+04  0.00000000000E+00 0. -1.
         23    2    1    2    0    0  0.85642968623E+03 -0.34879878635E+03  0.27013986818E+03  0.96756159139E+03  0.89819173611E+02 0.  0.
    5000000    2    1    2    0    0 -0.85642968623E+03  0.34879878635E+03 -0.89234707353E+03  0.14182067710E+04  0.59991228087E+03 0.  0.
         23    2    4    4    0    0 -0.80084498902E+03  0.82756724484E+02 -0.70735597079E+03  0.10756044711E+04  0.91493917524E+02 0.  0.
         23    2    4    4    0    0 -0.55584697208E+02  0.26604206187E+03 -0.18499110274E+03  0.34260229986E+03  0.96366957662E+02 0.  0.
          2    1    3    3  502    0  0.37442416081E+03 -0.18560451227E+03  0.15573392972E+03  0.44597706672E+03  0.00000000000E+00 0. -1.
         -2    1    3    3    0  502  0.48200552541E+03 -0.16319427408E+03  0.11440593846E+03  0.52158452467E+03  0.00000000000E+00 0.  1.
         13    1    5    5    0    0 -0.24613770010E+03  0.21095997280E+02 -0.16297651215E+03  0.29595633466E+03  0.00000000000E+00 0.  1.
        -13    1    5    5    0    0 -0.55470728891E+03  0.61660727203E+02 -0.54437945864E+03  0.77964813643E+03  0.00000000000E+00 0. -1.
          1    1    6    6  503    0  0.11692017806E+02  0.10020085658E+03 -0.10796953858E+03  0.14776446190E+03  0.00000000000E+00 0. -1.
         -1    1    6    6    0  503 -0.67276715014E+02  0.16584120529E+03 -0.77021564166E+02  0.19483783797E+03  0.00000000000E+00 0.  1.
<mgrwt>
<rscale>  0 0.10058988E+04</rscale>
<asrwt>0</asrwt>
<pdfrwt beam="1">  1        2 0.23138274E+00 0.10058988E+04</pdfrwt>
<pdfrwt beam="2">  1       -2 0.13565855E+00 0.10058988E+04</pdfrwt>
<totfact> 0.48836345E+00</totfact>
</mgrwt>
</event>
<event>
12    1  0.1444206E-007  0.7592292E+03  0.7818608E-02  0.9620981E-01
          2   -1    0    0  501    0  0.00000000000E+00  0.00000000000E+00  0.28059517326E+04  0.28059517326E+04  0.00000000000E+00 0. -1.
         -2   -1    0    0    0  501 -0.00000000000E+00 -0.00000000000E+00 -0.21174922598E+03  0.21174922598E+03  0.00000000000E+00 0.  1.
         23    2    1    2    0    0  0.61799942021E+03  0.19972902800E+03  0.10326023358E+04  0.12231538062E+04  0.89569423510E+02 0.  0.
    5000000    2    1    2    0    0 -0.61799942021E+03 -0.19972902800E+03  0.15616001708E+04  0.17945471524E+04  0.59999118387E+03 0.  0.
         23    2    4    4    0    0 -0.36520274096E+03  0.18010612686E+03  0.81188268829E+03  0.91267089737E+03  0.89461770702E+02 0.  0.
         23    2    4    4    0    0 -0.25279667925E+03 -0.37983515486E+03  0.74971748252E+03  0.88187625504E+03  0.86304806904E+02 0.  0.
          4    1    3    3  502    0  0.93921706915E+02  0.61365098651E+02  0.14842789674E+03  0.18605860070E+03  0.00000000000E+00 0.  1.
         -4    1    3    3    0  502  0.52407771329E+03  0.13836392935E+03  0.88417443908E+03  0.10370952055E+04  0.00000000000E+00 0. -1.
         13    1    5    5    0    0 -0.82343290551E+02  0.32275330199E+02  0.26617541320E+03  0.28048434008E+03  0.00000000000E+00 0. -1.
        -13    1    5    5    0    0 -0.28285945041E+03  0.14783079666E+03  0.54570727510E+03  0.63218655729E+03  0.00000000000E+00 0.  1.
          4    1    6    6  503    0 -0.18912417918E+03 -0.29787295178E+03  0.64018614208E+03  0.73098190611E+03  0.00000000000E+00 0. -1.
         -4    1    6    6    0  503 -0.63672500071E+02 -0.81962203080E+02  0.10953134044E+03  0.15089434893E+03  0.00000000000E+00 0.  1.
<mgrwt>
<rscale>  0 0.75922919E+03</rscale>
<asrwt>0</asrwt>
<pdfrwt beam="1">  1        2 0.43168486E+00 0.75922919E+03</pdfrwt>
<pdfrwt beam="2">  1       -2 0.32576806E-01 0.75922919E+03</pdfrwt>
<totfact> 0.21181609E+01</totfact>
</mgrwt>
</event>
<event>
12    1  0.1444206E-007  0.8380285E+03  0.7818608E-02  0.9506547E-01
         -1   -1    0    0    0  501 -0.00000000000E+00  0.00000000000E+00  0.77793599349E+03  0.77793599349E+03  0.00000000000E+00 0.  1.
          1   -1    0    0  501    0  0.00000000000E+00 -0.00000000000E+00 -0.96164043869E+03  0.96164043869E+03  0.00000000000E+00 0. -1.
         23    2    1    2    0    0 -0.72373308471E+03  0.11025041604E+03 -0.27806130864E+03  0.78842165094E+03  0.91355767026E+02 0.  0.
    5000000    2    1    2    0    0  0.72373308471E+03 -0.11025041604E+03  0.94356863434E+02  0.95115478125E+03  0.59987287659E+03 0.  0.
         23    2    4    4    0    0  0.17610673057E+02 -0.20452593842E+03 -0.13804293980E+02  0.22488615301E+03  0.90786717051E+02 0.  0.
         23    2    4    4    0    0  0.70612241165E+03  0.94275522379E+02  0.10816115741E+03  0.72626862824E+03  0.90942564459E+02 0.  0.
          1    1    3    3  502    0 -0.31455649152E+03  0.58674585516E+01 -0.13767942905E+03  0.34341787753E+03  0.00000000000E+00 0. -1.
         -1    1    3    3    0  502 -0.40917659319E+03  0.10438295749E+03 -0.14038187959E+03  0.44500377341E+03  0.00000000000E+00 0.  1.
         13    1    5    5    0    0  0.44156886995E+02 -0.18038893510E+03  0.18909896330E+01  0.18572445832E+03  0.00000000000E+00 0. -1.
        -13    1    5    5    0    0 -0.26546213938E+02 -0.24137003318E+02 -0.15695283613E+02  0.39161694694E+02  0.00000000000E+00 0.  1.
          2    1    6    6  503    0  0.58921232396E+03  0.11067428756E+03  0.10130279062E+03  0.60801498010E+03  0.00000000000E+00 0.  1.
         -2    1    6    6    0  503  0.11691008769E+03 -0.16398765181E+02  0.68583667960E+01  0.11825364814E+03  0.00000000000E+00 0. -1.
<mgrwt>
<rscale>  0 0.83802852E+03</rscale>
<asrwt>0</asrwt>
<pdfrwt beam="1">  1        1 0.14794468E+00 0.83802852E+03</pdfrwt>
<pdfrwt beam="2">  1       -1 0.11968246E+00 0.83802852E+03</pdfrwt>
<totfact> 0.10316095E+01</totfact>
</mgrwt>
</event>
<event>
12    1  0.1444206E-007  0.1553282E+04  0.7818608E-02  0.8849774E-01
          2   -1    0    0  501    0  0.00000000000E+00  0.00000000000E+00  0.12855398806E+04  0.12855398806E+04  0.00000000000E+00 0. -1.
         -2   -1    0    0    0  501 -0.00000000000E+00 -0.00000000000E+00 -0.20283189555E+04  0.20283189555E+04  0.00000000000E+00 0.  1.
         23    2    1    2    0    0 -0.15246952698E+04 -0.15779948906E+03 -0.74322390161E+02  0.15372397949E+04  0.89364562726E+02 0.  0.
    5000000    2    1    2    0    0  0.15246952698E+04  0.15779948906E+03 -0.66845668472E+03  0.17766190411E+04  0.59995377617E+03 0.  0.
         23    2    4    4    0    0  0.11105741537E+04 -0.29091388058E+02 -0.22910120331E+03  0.11379072454E+04  0.90134776209E+02 0.  0.
         23    2    4    4    0    0  0.41412111601E+03  0.18689087712E+03 -0.43935548140E+03  0.63871179574E+03  0.92168434416E+02 0.  0.
          4    1    3    3  502    0 -0.83126069332E+03 -0.78410116243E+02  0.34338088775E+01  0.83495765021E+03  0.00000000000E+00 0. -1.
         -4    1    3    3    0  502 -0.69343457643E+03 -0.79389372819E+02 -0.77756199039E+02  0.70228214472E+03  0.00000000000E+00 0.  1.
         13    1    5    5    0    0  0.10481218388E+04 -0.35457601428E+02 -0.19579216276E+03  0.10668416947E+04  0.00000000000E+00 0. -1.
        -13    1    5    5    0    0  0.62452314903E+02  0.63662133706E+01 -0.33309040550E+02  0.71065550668E+02  0.00000000000E+00 0.  1.
          2    1    6    6  503    0  0.35372761669E+03  0.19028694616E+03 -0.36379384990E+03  0.54192094803E+03  0.00000000000E+00 0. -1.
         -2    1    6    6    0  503  0.60393499315E+02 -0.33960690416E+01 -0.75561631503E+02  0.96790847707E+02  0.00000000000E+00 0.  1.
<mgrwt>
<rscale>  0 0.15532816E+04</rscale>
<asrwt>0</asrwt>
<pdfrwt beam="1">  1        2 0.19777537E+00 0.15532816E+04</pdfrwt>
<pdfrwt beam="2">  1       -2 0.31204907E+00 0.15532816E+04</pdfrwt>
<totfact> 0.42407205E-01</totfact>
</mgrwt>
</event>
<event>
12    1  0.1444206E-007  0.8845641E+03  0.7818608E-02  0.9445085E-01
         -2   -1    0    0    0  501 -0.00000000000E+00  0.00000000000E+00  0.16294130336E+04  0.16294130336E+04  0.00000000000E+00 0.  1.
          2   -1    0    0  501    0  0.00000000000E+00 -0.00000000000E+00 -0.64459902836E+03  0.64459902836E+03  0.00000000000E+00 0. -1.
         23    2    1    2    0    0  0.60853060759E+02  0.87210298172E+03  0.81841924701E+03  0.12007216692E+04  0.87497184591E+02 0.  0.
    5000000    2    1    2    0    0 -0.60853060759E+02 -0.87210298172E+03  0.16639475821E+03  0.10732903927E+04  0.59999862150E+03 0.  0.
         23    2    4    4    0    0  0.22466132103E+02 -0.51733504326E+03  0.37339401611E+03  0.64502832760E+03  0.92185563199E+02 0.  0.
         23    2    4    4    0    0 -0.83319192862E+02 -0.35476793847E+03 -0.20699925790E+03  0.42826206512E+03  0.88075681023E+02 0.  0.
          3    1    3    3  502    0  0.63296012069E+02  0.39129468716E+03  0.33627722763E+03  0.51980793681E+03  0.00000000000E+00 0. -1.
         -3    1    3    3    0  502 -0.24429513091E+01  0.48080829456E+03  0.48214201938E+03  0.68091373241E+03  0.00000000000E+00 0.  1.
         11    1    5    5    0    0  0.12371440017E+02 -0.22088796659E+03  0.10451146051E+03  0.24467773027E+03  0.00000000000E+00 0. -1.
        -11    1    5    5    0    0  0.10094692085E+02 -0.29644707666E+03  0.26888255560E+03  0.40035059732E+03  0.00000000000E+00 0.  1.
          3    1    6    6  503    0 -0.51687346462E+02 -0.67207454425E+02 -0.35208058872E+02  0.91804308854E+02  0.00000000000E+00 0. -1.
         -3    1    6    6    0  503 -0.31631846400E+02 -0.28756048404E+03 -0.17179119903E+03  0.33645775627E+03  0.00000000000E+00 0.  1.
<mgrwt>
<rscale>  0 0.88456408E+03</rscale>
<asrwt>0</asrwt>
<pdfrwt beam="1">  1        2 0.99169082E-01 0.88456408E+03</pdfrwt>
<pdfrwt beam="2">  1       -2 0.25067893E+00 0.88456408E+03</pdfrwt>
<totfact> 0.29262495E+00</totfact>
</mgrwt>
</event>
<event>
12    1  0.1444206E-007  0.1207246E+04  0.7818608E-02  0.9106538E-01
         -1   -1    0    0    0  501 -0.00000000000E+00  0.00000000000E+00  0.12335027928E+04  0.12335027928E+04  0.00000000000E+00 0.  1.
          1   -1    0    0  501    0  0.00000000000E+00 -0.00000000000E+00 -0.14211583146E+04  0.14211583146E+04  0.00000000000E+00 0. -1.
         23    2    1    2    0    0 -0.79089097794E+03 -0.83825005729E+03 -0.58561237255E+03  0.12958420645E+04  0.89961700738E+02 0.  0.
    5000000    2    1    2    0    0  0.79089097794E+03  0.83825005729E+03  0.39795685074E+03  0.13588190430E+04  0.59987318581E+03 0.  0.
         23    2    4    4    0    0  0.12680441561E+03  0.47438203692E+03  0.31828329954E+03  0.59175249461E+03  0.88028855202E+02 0.  0.
         23    2    4    4    0    0  0.66408656233E+03  0.36386802038E+03  0.79673551198E+02  0.76706654839E+03  0.92910259851E+02 0.  0.
          3    1    3    3  502    0 -0.27013643447E+03 -0.34924234361E+03 -0.21619583814E+03  0.49161422704E+03  0.00000000000E+00 0. -1.
         -3    1    3    3    0  502 -0.52075454347E+03 -0.48900771369E+03 -0.36941653441E+03  0.80422783742E+03  0.00000000000E+00 0.  1.
         11    1    5    5    0    0  0.52758002135E+02  0.32180786682E+03  0.24036711582E+03  0.40511734140E+03  0.00000000000E+00 0.  1.
        -11    1    5    5    0    0  0.74046413476E+02  0.15257417009E+03  0.77916183722E+02  0.18663515321E+03  0.00000000000E+00 0. -1.
          3    1    6    6  503    0  0.43796494190E+03  0.28895989327E+03  0.56647962110E+02  0.52775003730E+03  0.00000000000E+00 0. -1.
         -3    1    6    6    0  503  0.22612162043E+03  0.74908127102E+02  0.23025589089E+02  0.23931651109E+03  0.00000000000E+00 0.  1.
<mgrwt>
<rscale>  0 0.12072455E+04</rscale>
<asrwt>0</asrwt>
<pdfrwt beam="1">  1        1 0.21863974E+00 0.12072455E+04</pdfrwt>
<pdfrwt beam="2">  1       -1 0.18976966E+00 0.12072455E+04</pdfrwt>
<totfact> 0.12891885E+00</totfact>
</mgrwt>
</event>
<event>
12    1  0.1564490E-007  0.9124330E+03  0.7818608E-02  0.9410172E-01
          2   -1    0    0  501    0  0.00000000000E+00  0.00000000000E+00  0.27437488519E+04  0.27437488519E+04  0.00000000000E+00 0. -1.
         -2   -1    0    0    0  501 -0.00000000000E+00 -0.00000000000E+00 -0.35447511658E+03  0.35447511658E+03  0.00000000000E+00 0.  1.
         23    2    1    2    0    0 -0.76556801406E+03  0.29883969129E+03  0.16330008886E+04  0.18304174317E+04  0.91304582411E+02 0.  0.
    5000000    2    1    2    0    0  0.76556801406E+03 -0.29883969129E+03  0.75627284669E+03  0.12678065368E+04  0.59998770889E+03 0.  0.
         23    2    4    4    0    0  0.83646381891E+03 -0.30272241704E+03  0.64420932695E+03  0.11021079433E+04  0.91234202354E+02 0.  0.
         23    2    4    4    0    0 -0.70895804850E+02  0.38827257429E+01  0.11206351973E+03  0.16569859346E+03  0.99279910927E+02 0.  0.
          4    1    3    3  502    0 -0.28344339996E+03  0.73885743259E+02  0.64101068510E+03  0.70476518249E+03  0.00000000000E+00 0.  1.
         -4    1    3    3    0  502 -0.48212461409E+03  0.22495394803E+03  0.99199020352E+03  0.11256522492E+04  0.00000000000E+00 0. -1.
         11    1    5    5    0    0  0.61108517019E+03 -0.19804684848E+03  0.50621189430E+03  0.81786192071E+03  0.00000000000E+00 0. -1.
        -11    1    5    5    0    0  0.22537864872E+03 -0.10467556855E+03  0.13799743265E+03  0.28424602261E+03  0.00000000000E+00 0.  1.
          2    1    6    6  503    0 -0.13720536222E+02  0.39414411687E+02  0.91521667782E+01  0.42726000511E+02  0.00000000000E+00 0. -1.
         -2    1    6    6    0  503 -0.57175268628E+02 -0.35531685945E+02  0.10291135295E+03  0.12297259294E+03  0.00000000000E+00 0.  1.
<mgrwt>
<rscale>  0 0.91243296E+03</rscale>
<asrwt>0</asrwt>
<pdfrwt beam="1">  1        2 0.42211519E+00 0.91243296E+03</pdfrwt>
<pdfrwt beam="2">  1       -2 0.54534635E-01 0.91243296E+03</pdfrwt>
<totfact> 0.81433695E+00</totfact>
</mgrwt>
</event>
<event>
12    1  0.1444206E-007  0.5368966E+03  0.7818608E-02  0.1004573E+00
          1   -1    0    0  501    0  0.00000000000E+00  0.00000000000E+00  0.18363500921E+04  0.18363500921E+04  0.00000000000E+00 0. -1.
         -1   -1    0    0    0  501 -0.00000000000E+00 -0.00000000000E+00 -0.26510805582E+03  0.26510805582E+03  0.00000000000E+00 0.  1.
         23    2    1    2    0    0 -0.50233264757E+03  0.13564903637E+03  0.97218204359E+03  0.11065922652E+04  0.93111576367E+02 0.  0.
    5000000    2    1    2    0    0  0.50233264757E+03 -0.13564903637E+03  0.59905999269E+03  0.99486588271E+03  0.60012207081E+03 0.  0.
         23    2    4    4    0    0  0.39507180922E+03 -0.90859503546E+02  0.70360369549E+03  0.81717757029E+03  0.91563296483E+02 0.  0.
         23    2    4    4    0    0  0.10726083835E+03 -0.44789532825E+02 -0.10454370280E+03  0.17768831242E+03  0.84455674057E+02 0.  0.
          2    1    3    3  502    0 -0.43383934630E+03  0.14685805429E+03  0.86756144189E+03  0.98104369014E+03  0.00000000000E+00 0.  1.
         -2    1    3    3    0  502 -0.68493301268E+02 -0.11209017919E+02  0.10462060171E+03  0.12554857507E+03  0.00000000000E+00 0. -1.
         13    1    5    5    0    0  0.23607315129E+03 -0.29170964639E+02  0.33317113696E+03  0.40937083976E+03  0.00000000000E+00 0.  1.
        -13    1    5    5    0    0  0.15899865792E+03 -0.61688538907E+02  0.37043255852E+03  0.40780673053E+03  0.00000000000E+00 0. -1.
          1    1    6    6  503    0  0.99556759536E+02 -0.74599154876E+01 -0.51405037415E+02  0.11229281624E+03  0.00000000000E+00 0. -1.
         -1    1    6    6    0  503  0.77040788158E+01 -0.37329617338E+02 -0.53138665387E+02  0.65395496176E+02  0.00000000000E+00 0.  1.
<mgrwt>
<rscale>  0 0.53689661E+03</rscale>
<asrwt>0</asrwt>
<pdfrwt beam="1">  1        1 0.28251539E+00 0.53689661E+03</pdfrwt>
<pdfrwt beam="2">  1       -1 0.40785856E-01 0.53689661E+03</pdfrwt>
<totfact> 0.24275427E+01</totfact>
</mgrwt>
</event>
<event>
12    1  0.1444206E-007  0.3519252E+03  0.7818608E-02  0.1061828E+00
          2   -1    0    0  501    0  0.00000000000E+00  0.00000000000E+00  0.22878595127E+04  0.22878595127E+04  0.00000000000E+00 0. -1.
         -2   -1    0    0    0  501 -0.00000000000E+00 -0.00000000000E+00 -0.15036885386E+03  0.15036885386E+03  0.00000000000E+00 0.  1.
         23    2    1    2    0    0 -0.17263545639E+03  0.20894598339E+03  0.10778205210E+03  0.30438849198E+03  0.87028492583E+02 0.  0.
    5000000    2    1    2    0    0  0.17263545639E+03 -0.20894598339E+03  0.20297086067E+04  0.21338398745E+04  0.60007845923E+03 0.  0.
         23    2    4    4    0    0  0.76025231323E+01  0.76428172597E+02  0.57470981093E+02  0.13219927235E+03  0.90965213223E+02 0.  0.
         23    2    4    4    0    0  0.16503293326E+03 -0.28537415599E+03  0.19722376256E+04  0.20016406022E+04  0.90385676255E+02 0.  0.
          1    1    3    3  502    0 -0.92233774499E+02  0.63786631235E+02  0.11979199990E+02  0.11277989499E+03  0.00000000000E+00 0. -1.
         -1    1    3    3    0  502 -0.80401681891E+02  0.14515935215E+03  0.95802852106E+02  0.19160859699E+03  0.00000000000E+00 0.  1.
         11    1    5    5    0    0 -0.13354917832E+02  0.43780246137E+02  0.76376960576E+02  0.89042146700E+02  0.00000000000E+00 0.  1.
        -11    1    5    5    0    0  0.20957440964E+02  0.32647926460E+02 -0.18905979483E+02  0.43157125647E+02  0.00000000000E+00 0. -1.
          3    1    6    6  503    0  0.13305896116E+03 -0.27827401421E+03  0.17443460860E+04  0.17714074579E+04  0.00000000000E+00 0. -1.
         -3    1    6    6    0  503  0.31973972099E+02 -0.71001417809E+01  0.22789153961E+03  0.23023314429E+03  0.00000000000E+00 0.  1.
<mgrwt>
<rscale>  0 0.35192524E+03</rscale>
<asrwt>0</asrwt>
<pdfrwt beam="1">  1        2 0.35197836E+00 0.35192524E+03</pdfrwt>
<pdfrwt beam="2">  1       -2 0.23133671E-01 0.35192524E+03</pdfrwt>
<totfact> 0.83950470E+01</totfact>
</mgrwt>
</event>
<event>
12    1  0.1444206E-007  0.8000541E+03  0.7818608E-02  0.9559939E-01
         -1   -1    0    0    0  501 -0.00000000000E+00  0.00000000000E+00  0.10687549466E+04  0.10687549466E+04  0.00000000000E+00 0.  1.
          1   -1    0    0  501    0  0.00000000000E+00 -0.00000000000E+00 -0.64495256211E+03  0.64495256211E+03  0.00000000000E+00 0. -1.
         23    2    1    2    0    0 -0.69091842836E+03  0.18409016220E+03  0.25717629033E+03  0.76553445449E+03  0.92983300844E+02 0.  0.
    5000000    2    1    2    0    0  0.69091842836E+03 -0.18409016220E+03  0.16662609417E+03  0.94817305423E+03  0.60000868580E+03 0.  0.
         23    2    4    4    0    0  0.71761988337E+03 -0.25660029343E+03  0.24567156261E+03  0.80590197800E+03  0.91112424387E+02 0.  0.
         23    2    4    4    0    0 -0.26701455008E+02  0.72510131223E+02 -0.79045468436E+02  0.14227107623E+03  0.89566657977E+02 0.  0.
          1    1    3    3  502    0 -0.51664401697E+03  0.17097591780E+03  0.16935635795E+03  0.56994331360E+03  0.00000000000E+00 0. -1.
         -1    1    3    3    0  502 -0.17427441139E+03  0.13114244401E+02  0.87819932378E+02  0.19559114089E+03  0.00000000000E+00 0.  1.
         13    1    5    5    0    0  0.16162897134E+03 -0.29018590150E+02  0.26132328736E+02  0.16627958851E+03  0.00000000000E+00 0.  1.
        -13    1    5    5    0    0  0.55599091203E+03 -0.22758170328E+03  0.21953923387E+03  0.63962238949E+03  0.00000000000E+00 0. -1.
          4    1    6    6  503    0 -0.58659813497E+02  0.43894460656E+02 -0.36499716987E+02  0.81853080186E+02  0.00000000000E+00 0. -1.
         -4    1    6    6    0  503  0.31958358489E+02  0.28615670568E+02 -0.42545751449E+02  0.60417996042E+02  0.00000000000E+00 0.  1.
<mgrwt>
<rscale>  0 0.80005412E+03</rscale>
<asrwt>0</asrwt>
<pdfrwt beam="1">  1        1 0.99223471E-01 0.80005412E+03</pdfrwt>
<pdfrwt beam="2">  1       -1 0.16442384E+00 0.80005412E+03</pdfrwt>
<totfact> 0.85482897E+00</totfact>
</mgrwt>
</event>
<event>
12    1  0.1444206E-007  0.6669312E+03  0.7818608E-02  0.9775518E-01
         -1   -1    0    0    0  501 -0.00000000000E+00  0.00000000000E+00  0.39176913256E+03  0.39176913256E+03  0.00000000000E+00 0.  1.
          1   -1    0    0  501    0  0.00000000000E+00 -0.00000000000E+00 -0.20854365502E+04  0.20854365502E+04  0.00000000000E+00 0. -1.
         23    2    1    2    0    0  0.60682969335E+03 -0.76671883078E+02 -0.46093386280E+02  0.62017554907E+03  0.91500038375E+02 0.  0.
    5000000    2    1    2    0    0 -0.60682969335E+03  0.76671883078E+02 -0.16475740313E+04  0.18570301337E+04  0.59994989309E+03 0.  0.
         23    2    4    4    0    0 -0.42922699783E+03  0.20763542592E+03 -0.54853207683E+03  0.73239120116E+03  0.90339063888E+02 0.  0.
         23    2    4    4    0    0 -0.17760269552E+03 -0.13096354284E+03 -0.10990419545E+04  0.11246389325E+04  0.90693680749E+02 0.  0.
          2    1    3    3  502    0  0.17382291337E+03  0.13898513930E+02 -0.33824695794E+02  0.17762793684E+03  0.00000000000E+00 0. -1.
         -2    1    3    3    0  502  0.43300677998E+03 -0.90570397008E+02 -0.12268690486E+02  0.44254761223E+03  0.00000000000E+00 0.  1.
         13    1    5    5    0    0 -0.18980972978E+03  0.64334055273E+02 -0.28631535069E+03  0.34948974839E+03  0.00000000000E+00 0. -1.
        -13    1    5    5    0    0 -0.23941726805E+03  0.14330137064E+03 -0.26221672614E+03  0.38290145277E+03  0.00000000000E+00 0.  1.
          1    1    6    6  503    0 -0.17685065509E+03 -0.93223512773E+02 -0.95767870635E+03  0.97832268814E+03  0.00000000000E+00 0. -1.
         -1    1    6    6    0  503 -0.75204042785E+00 -0.37740030066E+02 -0.14136324816E+03  0.14631624436E+03  0.00000000000E+00 0.  1.
<mgrwt>
<rscale>  0 0.66693122E+03</rscale>
<asrwt>0</asrwt>
<pdfrwt beam="1">  1        1 0.32083640E+00 0.66693122E+03</pdfrwt>
<pdfrwt beam="2">  1       -1 0.60272173E-01 0.66693122E+03</pdfrwt>
<totfact> 0.77463075E+00</totfact>
</mgrwt>
</event>
<event>
12    1  0.1444206E-007  0.8559433E+03  0.7818608E-02  0.9482395E-01
         -3   -1    0    0    0  501 -0.00000000000E+00  0.00000000000E+00  0.20039689345E+04  0.20039689345E+04  0.00000000000E+00 0.  1.
          3   -1    0    0  501    0  0.00000000000E+00 -0.00000000000E+00 -0.43158033027E+03  0.43158033027E+03  0.00000000000E+00 0. -1.
         23    2    1    2    0    0 -0.96642609885E+02 -0.82455108051E+03  0.73846064215E+03  0.11147707537E+04  0.90362795593E+02 0.  0.
    5000000    2    1    2    0    0  0.96642609885E+02  0.82455108051E+03  0.83392796204E+03  0.13207785111E+04  0.59982976833E+03 0.  0.
         23    2    4    4    0    0 -0.51778540449E+02  0.54761670647E+03  0.82189680685E+03  0.99308591855E+03  0.90223090522E+02 0.  0.
         23    2    4    4    0    0  0.14842115033E+03  0.27693437404E+03  0.12031155190E+02  0.32769259250E+03  0.92283265522E+02 0.  0.
          3    1    3    3  502    0 -0.17294669869E+02 -0.48778466729E+03  0.45911422672E+03  0.67008869594E+03  0.00000000000E+00 0. -1.
         -3    1    3    3    0  502 -0.79347940016E+02 -0.33676641322E+03  0.27934641543E+03  0.44468205774E+03  0.00000000000E+00 0.  1.
         13    1    5    5    0    0 -0.59788184540E+02  0.43042841987E+03  0.69910537655E+03  0.82315951016E+03  0.00000000000E+00 0.  1.
        -13    1    5    5    0    0  0.80096440916E+01  0.11718828660E+03  0.12279143029E+03  0.16992640839E+03  0.00000000000E+00 0. -1.
          1    1    6    6  503    0  0.14321385019E+03  0.18622232254E+03  0.23564277840E+02  0.23610217172E+03  0.00000000000E+00 0. -1.
         -1    1    6    6    0  503  0.52073001409E+01  0.90712051494E+02 -0.11533122650E+02  0.91590420782E+02  0.00000000000E+00 0.  1.
<mgrwt>
<rscale>  0 0.85594328E+03</rscale>
<asrwt>0</asrwt>
<pdfrwt beam="1">  1        3 0.66396975E-01 0.85594328E+03</pdfrwt>
<pdfrwt beam="2">  1       -3 0.30830291E+00 0.85594328E+03</pdfrwt>
<totfact> 0.19609016E-01</totfact>
</mgrwt>
</event>
<event>
12    1  0.1444206E-007  0.4109331E+03  0.7818608E-02  0.1040058E+00
         -1   -1    0    0    0  501 -0.00000000000E+00  0.00000000000E+00  0.98545199663E+02  0.98545199663E+02  0.00000000000E+00 0.  1.
          1   -1    0    0  501    0  0.00000000000E+00 -0.00000000000E+00 -0.20815915229E+04  0.20815915229E+04  0.00000000000E+00 0. -1.
         23    2    1    2    0    0  0.21704971511E+03 -0.19671381159E+02 -0.82080846416E+03  0.85418331325E+03  0.91679091030E+02 0.  0.
    5000000    2    1    2    0    0 -0.21704971511E+03  0.19671381159E+02 -0.11622378591E+04  0.13259534093E+04  0.59988170546E+03 0.  0.
         23    2    4    4    0    0  0.16098354200E+03  0.10032467324E+03 -0.22367820153E+03  0.30684982390E+03  0.90244865404E+02 0.  0.
         23    2    4    4    0    0 -0.37803325711E+03 -0.80653292081E+02 -0.93855965757E+03  0.10191035854E+04  0.90905390522E+02 0.  0.
          2    1    3    3  502    0  0.30544810965E+02  0.64920675664E+01 -0.27560467301E+03  0.27736810956E+03  0.00000000000E+00 0. -1.
         -2    1    3    3    0  502  0.18650490414E+03 -0.26163448725E+02 -0.54520379115E+03  0.57681520369E+03  0.00000000000E+00 0.  1.
         13    1    5    5    0    0  0.13531236019E+03  0.40805151382E+02 -0.17925218799E+03  0.22826704120E+03  0.00000000000E+00 0.  1.
        -13    1    5    5    0    0  0.25671181817E+02  0.59519521858E+02 -0.44426013539E+02  0.78582782701E+02  0.00000000000E+00 0. -1.
          3    1    6    6  503    0 -0.91406172929E+02  0.17740880364E+02 -0.25133571018E+03  0.26802885386E+03  0.00000000000E+00 0. -1.
         -3    1    6    6    0  503 -0.28662708418E+03 -0.98394172446E+02 -0.68722394738E+03  0.75107473158E+03  0.00000000000E+00 0.  1.
<mgrwt>
<rscale>  0 0.41093314E+03</rscale>
<asrwt>0</asrwt>
<pdfrwt beam="1">  1        1 0.32024487E+00 0.41093314E+03</pdfrwt>
<pdfrwt beam="2">  1       -1 0.15160799E-01 0.41093314E+03</pdfrwt>
<totfact> 0.91760855E+01</totfact>
</mgrwt>
</event>
<event>
12    1  0.1444206E-007  0.6987262E+03  0.7818608E-02  0.9719413E-01
          1   -1    0    0  501    0  0.00000000000E+00  0.00000000000E+00  0.10216110003E+04  0.10216110003E+04  0.00000000000E+00 0. -1.
         -1   -1    0    0    0  501 -0.00000000000E+00 -0.00000000000E+00 -0.51813999861E+03  0.51813999861E+03  0.00000000000E+00 0.  1.
         23    2    1    2    0    0 -0.30058785958E+03 -0.49321561656E+03  0.38070006932E+03  0.69795198340E+03  0.92680756398E+02 0.  0.
    5000000    2    1    2    0    0  0.30058785958E+03  0.49321561656E+03  0.12277093237E+03  0.84179901551E+03  0.59994847689E+03 0.  0.
         23    2    4    4    0    0 -0.30051545177E+02  0.46717927910E+03  0.13975885892E+03  0.49704772419E+03  0.91456696257E+02 0.  0.
         23    2    4    4    0    0  0.33063940476E+03  0.26036337460E+02 -0.16987926546E+02  0.34475129131E+03  0.92544888384E+02 0.  0.
          1    1    3    3  502    0 -0.15746741086E+03 -0.22688072436E+03  0.23358014639E+03  0.36170503640E+03  0.00000000000E+00 0. -1.
         -1    1    3    3    0  502 -0.14312044873E+03 -0.26633489220E+03  0.14711992293E+03  0.33624694701E+03  0.00000000000E+00 0.  1.
         11    1    5    5    0    0  0.18485137684E+02  0.21164130007E+02  0.12068130615E+02  0.30582028885E+02  0.00000000000E+00 0. -1.
        -11    1    5    5    0    0 -0.48536682861E+02  0.44601514910E+03  0.12769072830E+03  0.46646569531E+03  0.00000000000E+00 0.  1.
          4    1    6    6  503    0  0.26461900562E+03  0.54684532757E+02 -0.29093809575E+02  0.27177208469E+03  0.00000000000E+00 0. -1.
         -4    1    6    6    0  503  0.66020399139E+02 -0.28648195297E+02  0.12105883028E+02  0.72979206628E+02  0.00000000000E+00 0.  1.
<mgrwt>
<rscale>  0 0.69872620E+03</rscale>
<asrwt>0</asrwt>
<pdfrwt beam="1">  1        1 0.15717092E+00 0.69872620E+03</pdfrwt>
<pdfrwt beam="2">  1       -1 0.79713846E-01 0.69872620E+03</pdfrwt>
<totfact> 0.23678409E+01</totfact>
</mgrwt>
</event>
<event>
12    1  0.1444206E-007  0.8419151E+03  0.7818608E-02  0.9501253E-01
         -2   -1    0    0    0  501 -0.00000000000E+00  0.00000000000E+00  0.72229097273E+03  0.72229097273E+03  0.00000000000E+00 0.  1.
          2   -1    0    0  501    0  0.00000000000E+00 -0.00000000000E+00 -0.11868200930E+04  0.11868200930E+04  0.00000000000E+00 0. -1.
         23    2    1    2    0    0  0.59616350044E+03 -0.54582350396E+03 -0.38425143881E+03  0.89923106188E+03  0.87367715376E+02 0.  0.
    5000000    2    1    2    0    0 -0.59616350044E+03  0.54582350396E+03 -0.80277681506E+02  0.10098800039E+04  0.60006574590E+03 0.  0.
         23    2    4    4    0    0  0.19285960023E+02  0.47524721052E+02  0.14762872721E+03  0.18080076557E+03  0.90907251450E+02 0.  0.
         23    2    4    4    0    0 -0.61544946046E+03  0.49829878290E+03 -0.22790640872E+03  0.82907923833E+03  0.91385649176E+02 0.  0.
          3    1    3    3  502    0  0.40702997434E+03 -0.34275154594E+03 -0.21319361742E+03  0.57323951431E+03  0.00000000000E+00 0. -1.
         -3    1    3    3    0  502  0.18913352610E+03 -0.20307195801E+03 -0.17105782139E+03  0.32599154757E+03  0.00000000000E+00 0.  1.
         13    1    5    5    0    0  0.16982254461E+01  0.59747353827E+02  0.42073419725E+02  0.73094479315E+02  0.00000000000E+00 0.  1.
        -13    1    5    5    0    0  0.17587734577E+02 -0.12222632774E+02  0.10555530749E+03  0.10770628625E+03  0.00000000000E+00 0. -1.
          4    1    6    6  503    0 -0.70245045653E+02  0.40415275021E+02  0.15141723254E+01  0.81055867225E+02  0.00000000000E+00 0.  1.
         -4    1    6    6    0  503 -0.54520441481E+03  0.45788350788E+03 -0.22942058104E+03  0.74802337111E+03  0.00000000000E+00 0. -1.
<mgrwt>
<rscale>  0 0.84191513E+03</rscale>
<asrwt>0</asrwt>
<pdfrwt beam="1">  1        2 0.18258771E+00 0.84191513E+03</pdfrwt>
<pdfrwt beam="2">  1       -2 0.11112169E+00 0.84191513E+03</pdfrwt>
<totfact> 0.12473464E+01</totfact>
</mgrwt>
</event>
<event>
12    1  0.1444206E-007  0.1642074E+04  0.7818608E-02  0.8795109E-01
          1   -1    0    0  501    0  0.00000000000E+00  0.00000000000E+00  0.23991838308E+04  0.23991838308E+04  0.00000000000E+00 0. -1.
         -1   -1    0    0    0  501 -0.00000000000E+00 -0.00000000000E+00 -0.12882850667E+04  0.12882850667E+04  0.00000000000E+00 0.  1.
         23    2    1    2    0    0 -0.41762126931E+03  0.15678316717E+04 -0.12103481670E+02  0.16250703772E+04  0.90573513898E+02 0.  0.
    5000000    2    1    2    0    0  0.41762126931E+03 -0.15678316717E+04  0.11230022457E+04  0.20623985203E+04  0.59987493480E+03 0.  0.
         23    2    4    4    0    0 -0.27495099062E+01 -0.58532933113E+03  0.14249877815E+03  0.60956934044E+03  0.93010178719E+02 0.  0.
         23    2    4    4    0    0  0.42037077922E+03 -0.98250234053E+03  0.98050346755E+03  0.14528291798E+04  0.85458380361E+02 0.  0.
          2    1    3    3  502    0 -0.94363829699E+02  0.25102027034E+03  0.18589868134E+02  0.26881460465E+03  0.00000000000E+00 0. -1.
         -2    1    3    3    0  502 -0.32325743961E+03  0.13168114013E+04 -0.30693349803E+02  0.13562557726E+04  0.00000000000E+00 0.  1.
         11    1    5    5    0    0  0.34476056702E+02 -0.29342490304E+03  0.40928218606E+02  0.29826480062E+03  0.00000000000E+00 0. -1.
        -11    1    5    5    0    0 -0.37225566609E+02 -0.29190442809E+03  0.10157055954E+03  0.31130453982E+03  0.00000000000E+00 0.  1.
          1    1    6    6  503    0  0.32430960825E+03 -0.68848825710E+03  0.73369287501E+03  0.10571177971E+04  0.00000000000E+00 0. -1.
         -1    1    6    6    0  503  0.96061170962E+02 -0.29401408343E+03  0.24681059254E+03  0.39571138272E+03  0.00000000000E+00 0.  1.
<mgrwt>
<rscale>  0 0.16420737E+04</rscale>
<asrwt>0</asrwt>
<pdfrwt beam="1">  1        1 0.36910521E+00 0.16420737E+04</pdfrwt>
<pdfrwt beam="2">  1       -1 0.19819770E+00 0.16420737E+04</pdfrwt>
<totfact> 0.22920596E-01</totfact>
</mgrwt>
</event>
<event>
12    1  0.1444206E-007  0.3819696E+03  0.7818608E-02  0.1050208E+00
         -1   -1    0    0    0  501 -0.00000000000E+00  0.00000000000E+00  0.12218496353E+03  0.12218496353E+03  0.00000000000E+00 0.  1.
          1   -1    0    0  501    0  0.00000000000E+00 -0.00000000000E+00 -0.24209757620E+04  0.24209757620E+04  0.00000000000E+00 0. -1.
         23    2    1    2    0    0  0.25221367184E+03 -0.19544731759E+03 -0.36344907637E+03  0.49219109992E+03  0.91353475666E+02 0.  0.
    5000000    2    1    2    0    0 -0.25221367184E+03  0.19544731759E+03 -0.19353417221E+04  0.20509696256E+04  0.59926407671E+03 0.  0.
         23    2    4    4    0    0 -0.16254006726E+03  0.26474934735E+03 -0.18578371082E+04  0.18858666784E+04  0.91776453936E+02 0.  0.
         23    2    4    4    0    0 -0.89673604579E+02 -0.69302029758E+02 -0.77504613878E+02  0.16510294724E+03  0.91694554515E+02 0.  0.
          3    1    3    3  502    0  0.20042687475E+03 -0.10308758211E+03 -0.26113603495E+03  0.34494928679E+03  0.00000000000E+00 0. -1.
         -3    1    3    3    0  502  0.51786797089E+02 -0.92359735481E+02 -0.10231304141E+03  0.14724181313E+03  0.00000000000E+00 0.  1.
         11    1    5    5    0    0 -0.62258362024E+02  0.53057365101E+02 -0.68496384763E+03  0.68983089246E+03  0.00000000000E+00 0.  1.
        -11    1    5    5    0    0 -0.10028170524E+03  0.21169198225E+03 -0.11728732606E+04  0.11960357859E+04  0.00000000000E+00 0. -1.
          2    1    6    6  503    0 -0.86647079176E+02 -0.56432116972E+02 -0.96846624267E+02  0.14167416415E+03  0.00000000000E+00 0. -1.
         -2    1    6    6    0  503 -0.30265254038E+01 -0.12869912786E+02  0.19342010389E+02  0.23428783089E+02  0.00000000000E+00 0.  1.
<mgrwt>
<rscale>  0 0.38196962E+03</rscale>
<asrwt>0</asrwt>
<pdfrwt beam="1">  1        1 0.37245778E+00 0.38196962E+03</pdfrwt>
<pdfrwt beam="2">  1       -1 0.18797688E-01 0.38196962E+03</pdfrwt>
<totfact> 0.38845495E+01</totfact>
</mgrwt>
</event>
<event>
12    1  0.1444206E-007  0.9111545E+03  0.7818608E-02  0.9411744E-01
         -2   -1    0    0    0  501 -0.00000000000E+00  0.00000000000E+00  0.14513307490E+04  0.14513307490E+04  0.00000000000E+00 0.  1.
          2   -1    0    0  501    0  0.00000000000E+00 -0.00000000000E+00 -0.72626101227E+03  0.72626101227E+03  0.00000000000E+00 0. -1.
         23    2    1    2    0    0  0.62123992880E+03  0.61643053905E+03 -0.23971699767E+02  0.87880255721E+03  0.76115921883E+02 0.  0.
    5000000    2    1    2    0    0 -0.62123992880E+03 -0.61643053905E+03  0.74904143649E+03  0.12987892041E+04  0.59988720973E+03 0.  0.
         23    2    4    4    0    0 -0.47597810012E+03 -0.62091926899E+03  0.34451395962E+03  0.85948031573E+03  0.88998058176E+02 0.  0.
         23    2    4    4    0    0 -0.14526182868E+03  0.44887299384E+01  0.40452747686E+03  0.43930888833E+03  0.90712029301E+02 0.  0.
          3    1    3    3  502    0  0.38640676636E+03  0.33617197867E+03  0.28518275157E+01  0.51218153154E+03  0.00000000000E+00 0. -1.
         -3    1    3    3    0  502  0.23483316243E+03  0.28025856038E+03 -0.26823527283E+02  0.36662102567E+03  0.00000000000E+00 0.  1.
         11    1    5    5    0    0 -0.43335704073E+03 -0.54713532859E+03  0.33354423583E+03  0.77356780556E+03  0.00000000000E+00 0. -1.
        -11    1    5    5    0    0 -0.42621059388E+02 -0.73783940396E+02  0.10969723796E+02  0.85912510171E+02  0.00000000000E+00 0.  1.
          3    1    6    6  503    0 -0.12963036694E+03  0.28447749646E+02  0.25929151907E+03  0.29128233444E+03  0.00000000000E+00 0. -1.
         -3    1    6    6    0  503 -0.15631461740E+02 -0.23959019707E+02  0.14523595779E+03  0.14802655389E+03  0.00000000000E+00 0.  1.
<mgrwt>
<rscale>  0 0.91115447E+03</rscale>
<asrwt>0</asrwt>
<pdfrwt beam="1">  1        2 0.11173246E+00 0.91115447E+03</pdfrwt>
<pdfrwt beam="2">  1       -2 0.22328165E+00 0.91115447E+03</pdfrwt>
<totfact> 0.37007285E+00</totfact>
</mgrwt>
</event>
<event>
12    1  0.1444206E-007  0.6473517E+03  0.7818608E-02  0.9811761E-01
         -1   -1    0    0    0  501 -0.00000000000E+00  0.00000000000E+00  0.11129900674E+04  0.11129900674E+04  0.00000000000E+00 0.  1.
          1   -1    0    0  501    0  0.00000000000E+00 -0.00000000000E+00 -0.14433927416E+04  0.14433927416E+04  0.00000000000E+00 0. -1.
         23    2    1    2    0    0 -0.63454412379E+02 -0.63029885708E+03  0.86526650287E+03  0.10762200713E+04  0.90886793269E+02 0.  0.
    5000000    2    1    2    0    0  0.63454412379E+02  0.63029885708E+03 -0.11956691770E+04  0.14801627377E+04  0.59996153013E+03 0.  0.
         23    2    4    4    0    0  0.17149595524E+02  0.45077531711E+03 -0.11880666620E+04  0.12741955923E+04  0.92625693115E+02 0.  0.
         23    2    4    4    0    0  0.46304816855E+02  0.17952353996E+03 -0.76025149884E+01  0.20596714538E+03  0.89397031701E+02 0.  0.
          2    1    3    3  502    0 -0.77704076433E+02 -0.42593857903E+03  0.54517895380E+03  0.69619084185E+03  0.00000000000E+00 0. -1.
         -2    1    3    3    0  502  0.14249664054E+02 -0.20436027804E+03  0.32008754907E+03  0.38002922945E+03  0.00000000000E+00 0.  1.
         11    1    5    5    0    0  0.16627742689E+02  0.35688502827E+03 -0.10316512701E+04  0.10917635954E+04  0.00000000000E+00 0. -1.
        -11    1    5    5    0    0  0.52185283496E+00  0.93890288836E+02 -0.15641539194E+03  0.18243199693E+03  0.00000000000E+00 0.  1.
          2    1    6    6  503    0  0.47146542796E+02  0.29343440041E+02 -0.50712949902E+01  0.55763357179E+02  0.00000000000E+00 0. -1.
         -2    1    6    6    0  503 -0.84172594052E+00  0.15018009992E+03 -0.25312199981E+01  0.15020378820E+03  0.00000000000E+00 0.  1.
<mgrwt>
<rscale>  0 0.64735174E+03</rscale>
<asrwt>0</asrwt>
<pdfrwt beam="1">  1        1 0.22206042E+00 0.64735174E+03</pdfrwt>
<pdfrwt beam="2">  1       -1 0.17122924E+00 0.64735174E+03</pdfrwt>
<totfact> 0.18470129E+00</totfact>
</mgrwt>
</event>
<event>
12    1  0.1444206E-007  0.7055556E+03  0.7818608E-02  0.9707778E-01
          1   -1    0    0  501    0  0.00000000000E+00  0.00000000000E+00  0.22579789654E+04  0.22579789654E+04  0.00000000000E+00 0. -1.
         -1   -1    0    0    0  501 -0.00000000000E+00 -0.00000000000E+00 -0.33826666915E+03  0.33826666915E+03  0.00000000000E+00 0.  1.
         23    2    1    2    0    0  0.14153766457E+03  0.66648388578E+03  0.13721613762E+04  0.15348464002E+04  0.93235988376E+02 0.  0.
    5000000    2    1    2    0    0 -0.14153766457E+03 -0.66648388578E+03  0.54755092007E+03  0.10613992343E+04  0.60209853351E+03 0.  0.
         23    2    4    4    0    0  0.19294623959E+02 -0.93027978868E+02  0.42760958231E+03  0.44720284526E+03  0.90077425358E+02 0.  0.
         23    2    4    4    0    0 -0.16083228853E+03 -0.57345590691E+03  0.11994133776E+03  0.61419638907E+03  0.90180805241E+02 0.  0.
          4    1    3    3  502    0  0.88164821538E+02  0.22063842502E+03  0.43482125947E+03  0.49550366097E+03  0.00000000000E+00 0. -1.
         -4    1    3    3    0  502  0.53372843036E+02  0.44584546076E+03  0.93734011669E+03  0.10393427392E+04  0.00000000000E+00 0.  1.
         11    1    5    5    0    0  0.52031493342E+02 -0.49098269644E+02  0.18196296007E+03  0.19552093294E+03  0.00000000000E+00 0. -1.
        -11    1    5    5    0    0 -0.32736869383E+02 -0.43929709224E+02  0.24564662224E+03  0.25168191232E+03  0.00000000000E+00 0.  1.
          4    1    6    6  503    0 -0.13018458556E+03 -0.52435916080E+03  0.85939815583E+02  0.54707056925E+03  0.00000000000E+00 0. -1.
         -4    1    6    6    0  503 -0.30647702969E+02 -0.49096746105E+02  0.34001522180E+02  0.67125819816E+02  0.00000000000E+00 0.  1.
<mgrwt>
<rscale>  0 0.70555560E+03</rscale>
<asrwt>0</asrwt>
<pdfrwt beam="1">  1        1 0.34738137E+00 0.70555560E+03</pdfrwt>
<pdfrwt beam="2">  1       -1 0.52041027E-01 0.70555560E+03</pdfrwt>
<totfact> 0.78348915E+00</totfact>
</mgrwt>
</event>
<event>
12    1  0.1444206E-007  0.5616516E+03  0.7818608E-02  0.9988324E-01
         -2   -1    0    0    0  501 -0.00000000000E+00  0.00000000000E+00  0.41716712332E+03  0.41716712332E+03  0.00000000000E+00 0.  1.
          2   -1    0    0  501    0  0.00000000000E+00 -0.00000000000E+00 -0.13863587186E+04  0.13863587186E+04  0.00000000000E+00 0. -1.
         23    2    1    2    0    0  0.44252446654E+03 -0.21802078966E+02  0.13422821731E+03  0.47165882947E+03  0.90230831541E+02 0.  0.
    5000000    2    1    2    0    0 -0.44252446654E+03  0.21802078966E+02 -0.11034198126E+04  0.13318670125E+04  0.60002601773E+03 0.  0.
         23    2    4    4    0    0 -0.36732516579E+03  0.23528715201E+03 -0.93469079443E+03  0.10355719467E+04  0.92057341895E+02 0.  0.
         23    2    4    4    0    0 -0.75199300751E+02 -0.21348507305E+03 -0.16872901821E+03  0.29629506585E+03  0.89947057837E+02 0.  0.
          3    1    3    3  502    0  0.25841978563E+03 -0.32712465784E+02  0.11967356072E+03  0.28665772649E+03  0.00000000000E+00 0. -1.
         -3    1    3    3    0  502  0.18410468091E+03  0.10910386817E+02  0.14554656585E+02  0.18500110297E+03  0.00000000000E+00 0.  1.
         13    1    5    5    0    0 -0.24302132114E+03  0.17722113878E+03 -0.72581064264E+03  0.78566391258E+03  0.00000000000E+00 0. -1.
        -13    1    5    5    0    0 -0.12430384465E+03  0.58066013234E+02 -0.20888015179E+03  0.24990803408E+03  0.00000000000E+00 0.  1.
          4    1    6    6  503    0  0.73801426691E+01 -0.98916967536E+02 -0.46635071770E+02  0.10960776839E+03  0.00000000000E+00 0. -1.
         -4    1    6    6    0  503 -0.82579443420E+02 -0.11456810551E+03 -0.12209394644E+03  0.18668729746E+03  0.00000000000E+00 0.  1.
<mgrwt>
<rscale>  0 0.56165165E+03</rscale>
<asrwt>0</asrwt>
<pdfrwt beam="1">  1        2 0.21328596E+00 0.56165165E+03</pdfrwt>
<pdfrwt beam="2">  1       -2 0.64179557E-01 0.56165165E+03</pdfrwt>
<totfact> 0.34562444E+01</totfact>
</mgrwt>
</event>
<event>
12    1  0.1444206E-007  0.9997141E+03  0.7818608E-02  0.9308858E-01
          2   -1    0    0  501    0  0.00000000000E+00  0.00000000000E+00  0.29407645752E+04  0.29407645752E+04  0.00000000000E+00 0. -1.
         -2   -1    0    0    0  501 -0.00000000000E+00 -0.00000000000E+00 -0.38399389274E+03  0.38399389274E+03  0.00000000000E+00 0.  1.
         23    2    1    2    0    0 -0.24299150133E+02  0.94632098722E+03  0.15493733916E+04  0.18176497767E+04  0.84728651766E+02 0.  0.
    5000000    2    1    2    0    0  0.24299150133E+02 -0.94632098722E+03  0.10073972908E+04  0.15071086912E+04  0.60034443955E+03 0.  0.
         23    2    4    4    0    0  0.20363437714E+03 -0.77249838474E+03  0.53565556322E+03  0.96610981249E+03  0.90667377830E+02 0.  0.
         23    2    4    4    0    0 -0.17933522701E+03 -0.17382260247E+03  0.47174172758E+03  0.54099887873E+03  0.88114178598E+02 0.  0.
          2    1    3    3  502    0 -0.38287452007E+02  0.48829024956E+03  0.86462768675E+03  0.99371743141E+03  0.00000000000E+00 0. -1.
         -2    1    3    3    0  502  0.13988301875E+02  0.45803073766E+03  0.68474570488E+03  0.82393234527E+03  0.00000000000E+00 0.  1.
         11    1    5    5    0    0  0.57218939564E+02 -0.30187097751E+03  0.16009655934E+03  0.34645490676E+03  0.00000000000E+00 0.  1.
        -11    1    5    5    0    0  0.14641543757E+03 -0.47062740723E+03  0.37555900388E+03  0.61965490573E+03  0.00000000000E+00 0. -1.
          4    1    6    6  503    0 -0.91110511207E+02 -0.69164412012E+02  0.13170615884E+03  0.17444584666E+03  0.00000000000E+00 0. -1.
         -4    1    6    6    0  503 -0.88224715799E+02 -0.10465819046E+03  0.34003556874E+03  0.36655303207E+03  0.00000000000E+00 0.  1.
<mgrwt>
<rscale>  0 0.99971406E+03</rscale>
<asrwt>0</asrwt>
<pdfrwt beam="1">  1        2 0.45242530E+00 0.99971406E+03</pdfrwt>
<pdfrwt beam="2">  1       -2 0.59075985E-01 0.99971406E+03</pdfrwt>
<totfact> 0.51822608E+00</totfact>
</mgrwt>
</event>
<event>
12    1  0.1444206E-007  0.6280276E+03  0.7818608E-02  0.9848905E-01
          1   -1    0    0  501    0  0.00000000000E+00  0.00000000000E+00  0.62079495978E+03  0.62079495978E+03  0.00000000000E+00 0. -1.
         -1   -1    0    0    0  501 -0.00000000000E+00 -0.00000000000E+00 -0.80625096742E+03  0.80625096742E+03  0.00000000000E+00 0.  1.
         23    2    1    2    0    0 -0.44647962385E+03 -0.21304195621E+03 -0.37388962126E+03  0.62682530138E+03  0.91572812281E+02 0.  0.
    5000000    2    1    2    0    0  0.44647962385E+03  0.21304195621E+03  0.18843361362E+03  0.80022062582E+03  0.60009573706E+03 0.  0.
         23    2    4    4    0    0  0.27895020398E+03 -0.17627383889E+03  0.11316001770E+03  0.36044337674E+03  0.90711386543E+02 0.  0.
         23    2    4    4    0    0  0.16752941987E+03  0.38931579510E+03  0.75273595913E+02  0.43977724909E+03  0.90027883094E+02 0.  0.
          3    1    3    3  502    0 -0.27357991561E+03 -0.13250388007E+03 -0.17278357561E+03  0.34965327464E+03  0.00000000000E+00 0. -1.
         -3    1    3    3    0  502 -0.17289970823E+03 -0.80538076140E+02 -0.20110604564E+03  0.27717202674E+03  0.00000000000E+00 0.  1.
         11    1    5    5    0    0  0.51956024196E+02 -0.28214171151E+02 -0.14490814090E+02  0.60872420660E+02  0.00000000000E+00 0.  1.
        -11    1    5    5    0    0  0.22699417978E+03 -0.14805966774E+03  0.12765083179E+03  0.29957095608E+03  0.00000000000E+00 0. -1.
          3    1    6    6  503    0  0.14092938912E+02  0.12334672353E+03  0.41352180969E+02  0.13085498846E+03  0.00000000000E+00 0. -1.
         -3    1    6    6    0  503  0.15343648095E+03  0.26596907157E+03  0.33921414944E+02  0.30892226063E+03  0.00000000000E+00 0.  1.
<mgrwt>
<rscale>  0 0.62802757E+03</rscale>
<asrwt>0</asrwt>
<pdfrwt beam="1">  1        1 0.95506916E-01 0.62802757E+03</pdfrwt>
<pdfrwt beam="2">  1       -1 0.12403861E+00 0.62802757E+03</pdfrwt>
<totfact> 0.19376499E+01</totfact>
</mgrwt>
</event>
<event>
12    1  0.1444206E-007  0.2008700E+04  0.7818608E-02  0.8602564E-01
          2   -1    0    0  501    0  0.00000000000E+00  0.00000000000E+00  0.27633430072E+04  0.27633430072E+04  0.00000000000E+00 0. -1.
         -2   -1    0    0    0  501 -0.00000000000E+00 -0.00000000000E+00 -0.15224186713E+04  0.15224186713E+04  0.00000000000E+00 0.  1.
         23    2    1    2    0    0 -0.11632607038E+04  0.16225206113E+04  0.39622770391E+03  0.20364929313E+04  0.67516418247E+02 0.  0.
    5000000    2    1    2    0    0  0.11632607038E+04 -0.16225206113E+04  0.84469663207E+03  0.22492687472E+04  0.59995741341E+03 0.  0.
         23    2    4    4    0    0  0.51564395988E+03 -0.47624731064E+03  0.55225818524E+03  0.89773841837E+03  0.90801819387E+02 0.  0.
         23    2    4    4    0    0  0.64761674396E+03 -0.11462733006E+04  0.29243844683E+03  0.13515303289E+04  0.88113891188E+02 0.  0.
          4    1    3    3  502    0 -0.70685800447E+03  0.95137744443E+03  0.20828753823E+03  0.12033914487E+04  0.00000000000E+00 0. -1.
         -4    1    3    3    0  502 -0.45640269937E+03  0.67114316685E+03  0.18794016567E+03  0.83310148258E+03  0.00000000000E+00 0.  1.
         13    1    5    5    0    0  0.22583102037E+03 -0.17579505063E+03  0.17758975041E+03  0.33681102868E+03  0.00000000000E+00 0. -1.
        -13    1    5    5    0    0  0.28981293950E+03 -0.30045226001E+03  0.37466843483E+03  0.56092738969E+03  0.00000000000E+00 0.  1.
          2    1    6    6  503    0  0.32293077539E+03 -0.60204154914E+03  0.10928601220E+03  0.69186830036E+03  0.00000000000E+00 0. -1.
         -2    1    6    6    0  503  0.32468596857E+03 -0.54423175150E+03  0.18315243462E+03  0.65966202849E+03  0.00000000000E+00 0.  1.
<mgrwt>
<rscale>  0 0.20086999E+04</rscale>
<asrwt>0</asrwt>
<pdfrwt beam="1">  1        2 0.42512969E+00 0.20086999E+04</pdfrwt>
<pdfrwt beam="2">  1       -2 0.23421826E+00 0.20086999E+04</pdfrwt>
<totfact> 0.17418348E-01</totfact>
</mgrwt>
</event>
<event>
12    1  0.1444206E-007  0.1196651E+04  0.7818608E-02  0.9115793E-01
         -1   -1    0    0    0  501 -0.00000000000E+00  0.00000000000E+00  0.65682981830E+03  0.65682981830E+03  0.00000000000E+00 0.  1.
          1   -1    0    0  501    0  0.00000000000E+00 -0.00000000000E+00 -0.25935894887E+04  0.25935894887E+04  0.00000000000E+00 0. -1.
         23    2    1    2    0    0  0.23341363482E+03  0.11618997885E+04 -0.13489442006E+04  0.17978013009E+04  0.89140437263E+02 0.  0.
    5000000    2    1    2    0    0 -0.23341363482E+03 -0.11618997885E+04 -0.58781546975E+03  0.14526180061E+04  0.60006583114E+03 0.  0.
         23    2    4    4    0    0 -0.21184545275E+03 -0.93494275269E+03 -0.69190809447E+03  0.11858382090E+04  0.92081486696E+02 0.  0.
         23    2    4    4    0    0 -0.21568182071E+02 -0.22695703582E+03  0.10409262471E+03  0.26677979705E+03  0.91441254419E+02 0.  0.
          3    1    3    3  502    0  0.10547102136E+03  0.51808506185E+03 -0.66920818558E+03  0.85286333214E+03  0.00000000000E+00 0. -1.
         -3    1    3    3    0  502  0.12794261347E+03  0.64381472667E+03 -0.67973601505E+03  0.94493796874E+03  0.00000000000E+00 0.  1.
         13    1    5    5    0    0 -0.66158255187E+02 -0.14238701809E+03 -0.12217532574E+03  0.19894166951E+03  0.00000000000E+00 0.  1.
        -13    1    5    5    0    0 -0.14568719757E+03 -0.79255573460E+03 -0.56973276873E+03  0.98689653954E+03  0.00000000000E+00 0. -1.
          1    1    6    6  503    0 -0.54399849766E+02 -0.18005337890E+03  0.85217346354E+02  0.20649590560E+03  0.00000000000E+00 0. -1.
         -1    1    6    6    0  503  0.32831667695E+02 -0.46903656922E+02  0.18875278358E+02  0.60283891459E+02  0.00000000000E+00 0.  1.
<mgrwt>
<rscale>  0 0.11966509E+04</rscale>
<asrwt>0</asrwt>
<pdfrwt beam="1">  1        1 0.39901377E+00 0.11966509E+04</pdfrwt>
<pdfrwt beam="2">  1       -1 0.10105074E+00 0.11966509E+04</pdfrwt>
<totfact> 0.10755883E+00</totfact>
</mgrwt>
</event>
<event>
12    1  0.1444206E-007  0.1045550E+04  0.7818608E-02  0.9259951E-01
         -2   -1    0    0    0  501 -0.00000000000E+00  0.00000000000E+00  0.37532169577E+03  0.37532169577E+03  0.00000000000E+00 0.  1.
          2   -1    0    0  501    0  0.00000000000E+00 -0.00000000000E+00 -0.29802120665E+04  0.29802120665E+04  0.00000000000E+00 0. -1.
         23    2    1    2    0    0  0.72047909903E+03 -0.64475379177E+03 -0.10731260147E+04  0.14473559891E+04  0.91882162145E+02 0.  0.
    5000000    2    1    2    0    0 -0.72047909903E+03  0.64475379177E+03 -0.15317643560E+04  0.19081777731E+04  0.60003565502E+03 0.  0.
         23    2    4    4    0    0  0.64095155590E+02  0.20635990842E+03 -0.31378913212E+03  0.39171268559E+03  0.91008833866E+02 0.  0.
         23    2    4    4    0    0 -0.78457425462E+03  0.43839388334E+03 -0.12179752239E+04  0.15164650875E+04  0.91960631100E+02 0.  0.
          2    1    3    3  502    0  0.20589920880E+03 -0.18268787022E+03 -0.36941484234E+03  0.46069151051E+03  0.00000000000E+00 0. -1.
         -2    1    3    3    0  502  0.51457989023E+03 -0.46206592154E+03 -0.70371117234E+03  0.98666447862E+03  0.00000000000E+00 0.  1.
         11    1    5    5    0    0  0.59173847319E+02  0.83120287606E+02 -0.19699700789E+03  0.22185208482E+03  0.00000000000E+00 0.  1.
        -11    1    5    5    0    0  0.49213082706E+01  0.12323962082E+03 -0.11679212423E+03  0.16986060078E+03  0.00000000000E+00 0. -1.
          2    1    6    6  503    0 -0.69379246566E+03  0.39321559347E+03 -0.10273111422E+04  0.13005132338E+04  0.00000000000E+00 0. -1.
         -2    1    6    6    0  503 -0.90781788961E+02  0.45178289871E+02 -0.19066408171E+03  0.21595185375E+03  0.00000000000E+00 0.  1.
<mgrwt>
<rscale>  0 0.10455500E+04</rscale>
<asrwt>0</asrwt>
<pdfrwt beam="1">  1        2 0.45849415E+00 0.10455500E+04</pdfrwt>
<pdfrwt beam="2">  1       -2 0.57741801E-01 0.10455500E+04</pdfrwt>
<totfact> 0.51109689E+00</totfact>
</mgrwt>
</event>
<event>
12    1  0.1444206E-007  0.9057679E+03  0.7818608E-02  0.9418400E-01
          2   -1    0    0  501    0  0.00000000000E+00  0.00000000000E+00  0.24238657222E+04  0.24238657222E+04  0.00000000000E+00 0. -1.
         -2   -1    0    0    0  501 -0.00000000000E+00 -0.00000000000E+00 -0.35436370254E+03  0.35436370254E+03  0.00000000000E+00 0.  1.
         23    2    1    2    0    0  0.57630276840E+03  0.59309985383E+03  0.98086877985E+03  0.12852676253E+04  0.76921958873E+02 0.  0.
    5000000    2    1    2    0    0 -0.57630276840E+03 -0.59309985383E+03  0.10886332399E+04  0.14929617995E+04  0.59993356835E+03 0.  0.
         23    2    4    4    0    0 -0.64673242809E+03 -0.37490371575E+03  0.67744327042E+03  0.10132515665E+04  0.94518372135E+02 0.  0.
         23    2    4    4    0    0  0.70429659685E+02 -0.21819613809E+03  0.41118996944E+03  0.47971023307E+03  0.92058813286E+02 0.  0.
          3    1    3    3  502    0  0.46931515325E+03  0.45943012104E+03  0.73523293109E+03  0.98584999475E+03  0.00000000000E+00 0. -1.
         -3    1    3    3    0  502  0.10698761516E+03  0.13366973279E+03  0.24563584876E+03  0.29941763051E+03  0.00000000000E+00 0.  1.
         11    1    5    5    0    0 -0.23480406692E+03 -0.15270449224E+03  0.19640153939E+03  0.34208942758E+03  0.00000000000E+00 0. -1.
        -11    1    5    5    0    0 -0.41192836117E+03 -0.22219922351E+03  0.48104173103E+03  0.67116213887E+03  0.00000000000E+00 0.  1.
          2    1    6    6  503    0  0.57233717336E+02 -0.90633521928E+02  0.26138199119E+03  0.28250783885E+03  0.00000000000E+00 0.  1.
         -2    1    6    6    0  503  0.13195942349E+02 -0.12756261616E+03  0.14980797825E+03  0.19720239422E+03  0.00000000000E+00 0. -1.
<mgrwt>
<rscale>  0 0.90576786E+03</rscale>
<asrwt>0</asrwt>
<pdfrwt beam="1">  1        2 0.37290241E+00 0.90576786E+03</pdfrwt>
<pdfrwt beam="2">  1       -2 0.54517494E-01 0.90576786E+03</pdfrwt>
<totfact> 0.12471558E+01</totfact>
</mgrwt>
</event>
<event>
12    1  0.1444206E-007  0.1623812E+04  0.7818608E-02  0.8806052E-01
          1   -1    0    0  501    0  0.00000000000E+00  0.00000000000E+00  0.91302646803E+03  0.91302646803E+03  0.00000000000E+00 0. -1.
         -1   -1    0    0    0  501 -0.00000000000E+00 -0.00000000000E+00 -0.29670111513E+04  0.29670111513E+04  0.00000000000E+00 0.  1.
         23    2    1    2    0    0  0.15896694472E+04  0.15222269421E+01 -0.10242266535E+04  0.18931985294E+04  0.90050903800E+02 0.  0.
    5000000    2    1    2    0    0 -0.15896694472E+04 -0.15222269421E+01 -0.10297580298E+04  0.19868390899E+04  0.60006391388E+03 0.  0.
         23    2    4    4    0    0 -0.10094865773E+04 -0.22173394105E+03 -0.44363549271E+03  0.11284150136E+04  0.90988472747E+02 0.  0.
         23    2    4    4    0    0 -0.58018286995E+03  0.22021171410E+03 -0.58612253708E+03  0.85842407635E+03  0.90812470334E+02 0.  0.
          3    1    3    3  502    0  0.36385807289E+03 -0.14676433621E+02 -0.27662904554E+03  0.45730922115E+03  0.00000000000E+00 0. -1.
         -3    1    3    3    0  502  0.12258113743E+04  0.16198660563E+02 -0.74759760793E+03  0.14358893082E+04  0.00000000000E+00 0.  1.
         11    1    5    5    0    0 -0.29819350642E+03 -0.29318352235E+02 -0.15154359750E+03  0.33577432152E+03  0.00000000000E+00 0.  1.
        -11    1    5    5    0    0 -0.71129307087E+03 -0.19241558881E+03 -0.29209189521E+03  0.79264069208E+03  0.00000000000E+00 0. -1.
          1    1    6    6  503    0 -0.21642178129E+03  0.94976835572E+02 -0.28251373628E+03  0.36833815700E+03  0.00000000000E+00 0. -1.
         -1    1    6    6    0  503 -0.36376108866E+03  0.12523487853E+03 -0.30360880080E+03  0.49008591935E+03  0.00000000000E+00 0.  1.
<mgrwt>
<rscale>  0 0.16238117E+04</rscale>
<asrwt>0</asrwt>
<pdfrwt beam="1">  1        1 0.14046561E+00 0.16238117E+04</pdfrwt>
<pdfrwt beam="2">  1       -1 0.45646325E+00 0.16238117E+04</pdfrwt>
<totfact> 0.48669207E-02</totfact>
</mgrwt>
</event>
<event>
12    1  0.1444206E-007  0.2147740E+04  0.7818608E-02  0.8540500E-01
         -2   -1    0    0    0  501 -0.00000000000E+00  0.00000000000E+00  0.18292186486E+04  0.18292186486E+04  0.00000000000E+00 0.  1.
          2   -1    0    0  501    0  0.00000000000E+00 -0.00000000000E+00 -0.26681467134E+04  0.26681467134E+04  0.00000000000E+00 0. -1.
         23    2    1    2    0    0 -0.17240017708E+04  0.12736324999E+04 -0.74013590459E+03  0.22693341339E+04  0.88059091446E+02 0.  0.
    5000000    2    1    2    0    0  0.17240017708E+04 -0.12736324999E+04 -0.98792160276E+02  0.22280312281E+04  0.60003450917E+03 0.  0.
         23    2    4    4    0    0  0.10273035526E+04 -0.85704815734E+03 -0.32759542506E+03  0.13804994484E+04  0.92605784691E+02 0.  0.
         23    2    4    4    0    0  0.69669821819E+03 -0.41658434254E+03  0.22880326479E+03  0.84753177973E+03  0.83834730211E+02 0.  0.
          4    1    3    3  502    0 -0.94398493256E+02  0.48345711340E+02 -0.28058986761E+02  0.10970729270E+03  0.00000000000E+00 0.  1.
         -4    1    3    3    0  502 -0.16296032775E+04  0.12252867885E+04 -0.71207691783E+03  0.21596268412E+04  0.00000000000E+00 0. -1.
         13    1    5    5    0    0  0.15174899216E+03 -0.12395141675E+03 -0.14808648169E+02  0.19649683559E+03  0.00000000000E+00 0.  1.
        -13    1    5    5    0    0  0.87555456041E+03 -0.73309674060E+03 -0.31278677690E+03  0.11840026128E+04  0.00000000000E+00 0. -1.
          1    1    6    6  503    0  0.37607625945E+03 -0.20211934859E+03  0.81696634439E+02  0.43469520825E+03  0.00000000000E+00 0. -1.
         -1    1    6    6    0  503  0.32062195874E+03 -0.21446499395E+03  0.14710663035E+03  0.41283657148E+03  0.00000000000E+00 0.  1.
<mgrwt>
<rscale>  0 0.21477397E+04</rscale>
<asrwt>0</asrwt>
<pdfrwt beam="1">  1        2 0.41048411E+00 0.21477397E+04</pdfrwt>
<pdfrwt beam="2">  1       -2 0.28141825E+00 0.21477397E+04</pdfrwt>
<totfact> 0.10014053E-01</totfact>
</mgrwt>
</event>
<event>
12    1  0.1444206E-007  0.5235011E+03  0.7818608E-02  0.1007821E+00
         -1   -1    0    0    0  501 -0.00000000000E+00  0.00000000000E+00  0.36439474713E+03  0.36439474713E+03  0.00000000000E+00 0. -1.
          1   -1    0    0  501    0  0.00000000000E+00 -0.00000000000E+00 -0.18320388159E+04  0.18320388159E+04  0.00000000000E+00 0.  1.
         23    2    1    2    0    0  0.20443716570E+03  0.36949620562E+03 -0.13936041687E+04  0.14590472200E+04  0.91456058276E+02 0.  0.
    5000000    2    1    2    0    0 -0.20443716570E+03 -0.36949620562E+03 -0.74039900053E+02  0.73738634297E+03  0.59994559029E+03 0.  0.
         23    2    4    4    0    0  0.10400628596E+03 -0.18517458052E+01  0.14619501345E+03  0.20141347728E+03  0.91507761368E+02 0.  0.
         23    2    4    4    0    0 -0.30844345166E+03 -0.36764445982E+03 -0.22023491350E+03  0.53597286569E+03  0.91998282213E+02 0.  0.
          2    1    3    3  502    0  0.81230489958E+02  0.95509502423E+02 -0.53190258645E+03  0.54648039217E+03  0.00000000000E+00 0. -1.
         -2    1    3    3    0  502  0.12320667574E+03  0.27398670320E+03 -0.86170158224E+03  0.91256682786E+03  0.00000000000E+00 0.  1.
         11    1    5    5    0    0  0.11717420174E+03 -0.10934227046E+02  0.10690013243E+03  0.15898738688E+03  0.00000000000E+00 0. -1.
        -11    1    5    5    0    0 -0.13167915785E+02  0.90824812406E+01  0.39294881020E+02  0.42426090393E+02  0.00000000000E+00 0.  1.
          1    1    6    6  503    0 -0.68011742632E+02 -0.14358678359E+03 -0.88851229335E+02  0.18203654169E+03  0.00000000000E+00 0. -1.
         -1    1    6    6    0  503 -0.24043170903E+03 -0.22405767623E+03 -0.13138368416E+03  0.35393632400E+03  0.00000000000E+00 0.  1.
<mgrwt>
<rscale>  0 0.52350115E+03</rscale>
<asrwt>0</asrwt>
<pdfrwt beam="1">  1        1 0.28185212E+00 0.52350115E+03</pdfrwt>
<pdfrwt beam="2">  1       -1 0.56060731E-01 0.52350115E+03</pdfrwt>
<totfact> 0.13529588E+01</totfact>
</mgrwt>
</event>
<event>
12    1  0.1444206E-007  0.8212202E+03  0.7818608E-02  0.9529800E-01
          2   -1    0    0  501    0  0.00000000000E+00  0.00000000000E+00  0.27008619541E+04  0.27008619541E+04  0.00000000000E+00 0. -1.
         -2   -1    0    0    0  501 -0.00000000000E+00 -0.00000000000E+00 -0.38220395336E+03  0.38220395336E+03  0.00000000000E+00 0.  1.
         23    2    1    2    0    0 -0.37785915819E+03 -0.60417931460E+03  0.19554600611E+04  0.20832488696E+04  0.91058302419E+02 0.  0.
    5000000    2    1    2    0    0  0.37785915819E+03  0.60417931460E+03  0.36319793962E+03  0.99981703785E+03  0.59992597728E+03 0.  0.
         23    2    4    4    0    0  0.43979173810E+03  0.16527681624E+03  0.20440621085E+03  0.52030966663E+03  0.90592777100E+02 0.  0.
         23    2    4    4    0    0 -0.61932579914E+02  0.43890249836E+03  0.15879172877E+03  0.47950737122E+03  0.90782478520E+02 0.  0.
          3    1    3    3  502    0 -0.18146524720E+03 -0.30724383580E+03  0.11082280192E+04  0.11642584563E+04  0.00000000000E+00 0. -1.
         -3    1    3    3    0  502 -0.19639391098E+03 -0.29693547880E+03  0.84723204193E+03  0.91899041329E+03  0.00000000000E+00 0.  1.
         11    1    5    5    0    0  0.13961264670E+03  0.11823122687E+02  0.43197506103E+02  0.14662026423E+03  0.00000000000E+00 0. -1.
        -11    1    5    5    0    0  0.30017909140E+03  0.15345369355E+03  0.16120870475E+03  0.37368940240E+03  0.00000000000E+00 0.  1.
          2    1    6    6  503    0 -0.77340029236E+02  0.22532292871E+03  0.88410818701E+02  0.25410307985E+03  0.00000000000E+00 0. -1.
         -2    1    6    6    0  503  0.15407449322E+02  0.21357956965E+03  0.70380910069E+02  0.22540429137E+03  0.00000000000E+00 0.  1.
<mgrwt>
<rscale>  0 0.82122016E+03</rscale>
<asrwt>0</asrwt>
<pdfrwt beam="1">  1        2 0.41551721E+00 0.82122016E+03</pdfrwt>
<pdfrwt beam="2">  1       -2 0.58800610E-01 0.82122016E+03</pdfrwt>
<totfact> 0.74742099E+00</totfact>
</mgrwt>
</event>
<event>
12    1  0.1444206E-007  0.6209973E+03  0.7818608E-02  0.9862776E-01
          2   -1    0    0  501    0  0.00000000000E+00  0.00000000000E+00  0.20295754904E+04  0.20295754904E+04  0.00000000000E+00 0. -1.
         -2   -1    0    0    0  501 -0.00000000000E+00 -0.00000000000E+00 -0.20144972632E+03  0.20144972632E+03  0.00000000000E+00 0.  1.
         23    2    1    2    0    0  0.44372225243E+03 -0.18705689970E+03  0.90674266835E+03  0.10307071602E+04  0.91078331419E+02 0.  0.
    5000000    2    1    2    0    0 -0.44372225243E+03  0.18705689970E+03  0.92138309576E+03  0.12003180566E+04  0.59994741996E+03 0.  0.
         23    2    4    4    0    0 -0.13184844023E+03 -0.20554083834E+03  0.30516776504E+03  0.40068624957E+03  0.88266972086E+02 0.  0.
         23    2    4    4    0    0 -0.31187381220E+03  0.39259773804E+03  0.61621533072E+03  0.79963180699E+03  0.91057313140E+02 0.  0.
          1    1    3    3  502    0  0.34484511644E+03 -0.16764926633E+03  0.77672967480E+03  0.86621788168E+03  0.00000000000E+00 0. -1.
         -1    1    3    3    0  502  0.98877135998E+02 -0.19407633365E+02  0.13001299356E+03  0.16448927852E+03  0.00000000000E+00 0.  1.
         11    1    5    5    0    0 -0.12447554861E+03 -0.13973919725E+03  0.26075010516E+03  0.32095454942E+03  0.00000000000E+00 0.  1.
        -11    1    5    5    0    0 -0.73728916262E+01 -0.65801641090E+02  0.44417659877E+02  0.79731700158E+02  0.00000000000E+00 0. -1.
          2    1    6    6  503    0 -0.22571078175E+03  0.24189790198E+03  0.34825427755E+03  0.48035507056E+03  0.00000000000E+00 0. -1.
         -2    1    6    6    0  503 -0.86163030446E+02  0.15069983605E+03  0.26796105318E+03  0.31927673643E+03  0.00000000000E+00 0.  1.
<mgrwt>
<rscale>  0 0.62099733E+03</rscale>
<asrwt>0</asrwt>
<pdfrwt beam="1">  1        2 0.31224237E+00 0.62099733E+03</pdfrwt>
<pdfrwt beam="2">  1       -2 0.30992267E-01 0.62099733E+03</pdfrwt>
<totfact> 0.64907639E+01</totfact>
</mgrwt>
</event>
<event>
12    1  0.1444206E-007  0.1036968E+04  0.7818608E-02  0.9268904E-01
         -1   -1    0    0    0  501 -0.00000000000E+00  0.00000000000E+00  0.82259967832E+03  0.82259967832E+03  0.00000000000E+00 0.  1.
          1   -1    0    0  501    0  0.00000000000E+00 -0.00000000000E+00 -0.19548441758E+04  0.19548441758E+04  0.00000000000E+00 0. -1.
         23    2    1    2    0    0  0.56854219570E+03  0.80038871825E+03 -0.12814589850E+04  0.16170470512E+04  0.94030350887E+02 0.  0.
    5000000    2    1    2    0    0 -0.56854219570E+03 -0.80038871825E+03  0.14921448752E+03  0.11603968029E+04  0.60032778410E+03 0.  0.
         23    2    4    4    0    0 -0.24938515761E+03 -0.38714687804E+02  0.18990311481E+03  0.32856914279E+03  0.90568784313E+02 0.  0.
         23    2    4    4    0    0 -0.31915703809E+03 -0.76167403045E+03 -0.40688627280E+02  0.83182766014E+03  0.90956847813E+02 0.  0.
          4    1    3    3  502    0  0.25724743805E+03  0.33278607162E+03 -0.62042368942E+03  0.74956545294E+03  0.00000000000E+00 0. -1.
         -4    1    3    3    0  502  0.31129475766E+03  0.46760264664E+03 -0.66103529558E+03  0.86748159824E+03  0.00000000000E+00 0.  1.
         11    1    5    5    0    0 -0.13249947523E+03  0.12604332706E+02  0.58558963761E+02  0.14541022101E+03  0.00000000000E+00 0.  1.
        -11    1    5    5    0    0 -0.11688568239E+03 -0.51319020510E+02  0.13134415104E+03  0.18315892178E+03  0.00000000000E+00 0. -1.
          3    1    6    6  503    0 -0.23988368784E+03 -0.45865474943E+03 -0.22832786643E+02  0.51810201603E+03  0.00000000000E+00 0. -1.
         -3    1    6    6    0  503 -0.79273350245E+02 -0.30301928102E+03 -0.17855840638E+02  0.31372564411E+03  0.00000000000E+00 0.  1.
<mgrwt>
<rscale>  0 0.10369675E+04</rscale>
<asrwt>0</asrwt>
<pdfrwt beam="1">  1        1 0.30074526E+00 0.10369675E+04</pdfrwt>
<pdfrwt beam="2">  1       -1 0.12655380E+00 0.10369675E+04</pdfrwt>
<totfact> 0.17438667E+00</totfact>
</mgrwt>
</event>
<event>
12    1  0.1444206E-007  0.5146982E+03  0.7818608E-02  0.1010012E+00
          1   -1    0    0  501    0  0.00000000000E+00  0.00000000000E+00  0.18802704138E+04  0.18802704138E+04  0.00000000000E+00 0. -1.
         -1   -1    0    0    0  501 -0.00000000000E+00 -0.00000000000E+00 -0.15058806098E+03  0.15058806098E+03  0.00000000000E+00 0.  1.
         23    2    1    2    0    0 -0.34949994778E+03 -0.63225551967E+02  0.60534477753E+03  0.70777968015E+03  0.91444475141E+02 0.  0.
    5000000    2    1    2    0    0  0.34949994778E+03  0.63225551967E+02  0.11243375753E+04  0.13230787946E+04  0.60021232049E+03 0.  0.
         23    2    4    4    0    0 -0.13867482169E+03  0.10191433901E+03  0.24926672758E+03  0.31635826370E+03  0.91276562537E+02 0.  0.
         23    2    4    4    0    0  0.48817476947E+03 -0.38688787041E+02  0.87507084768E+03  0.10067205309E+04  0.89027024482E+02 0.  0.
          2    1    3    3  502    0 -0.13892372240E+03 -0.37742478420E+02  0.16474760525E+03  0.21878315465E+03  0.00000000000E+00 0. -1.
         -2    1    3    3    0  502 -0.21057622538E+03 -0.25483073547E+02  0.44059717228E+03  0.48899652550E+03  0.00000000000E+00 0.  1.
         11    1    5    5    0    0 -0.60164317205E+02  0.22706844064E+02  0.31305370937E+02  0.71521829407E+02  0.00000000000E+00 0. -1.
        -11    1    5    5    0    0 -0.78510504486E+02  0.79207494943E+02  0.21796135664E+03  0.24483643429E+03  0.00000000000E+00 0.  1.
          1    1    6    6  503    0  0.22606119220E+02  0.17442518015E+02  0.43329594238E+02  0.51891538788E+02  0.00000000000E+00 0. -1.
         -1    1    6    6    0  503  0.46556865025E+03 -0.56131305056E+02  0.83174125344E+03  0.95482899212E+03  0.00000000000E+00 0.  1.
<mgrwt>
<rscale>  0 0.51469818E+03</rscale>
<asrwt>0</asrwt>
<pdfrwt beam="1">  1        1 0.28927235E+00 0.51469818E+03</pdfrwt>
<pdfrwt beam="2">  1       -1 0.23167395E-01 0.51469818E+03</pdfrwt>
<totfact> 0.60977916E+01</totfact>
</mgrwt>
</event>
<event>
12    1  0.1444206E-007  0.5717603E+03  0.7818608E-02  0.9965791E-01
          2   -1    0    0  501    0  0.00000000000E+00  0.00000000000E+00  0.32255712017E+03  0.32255712017E+03  0.00000000000E+00 0. -1.
         -2   -1    0    0    0  501 -0.00000000000E+00 -0.00000000000E+00 -0.15717651968E+04  0.15717651968E+04  0.00000000000E+00 0.  1.
         23    2    1    2    0    0 -0.55016802993E+02 -0.53519810734E+03 -0.80958949575E+03  0.97628837101E+03  0.90774275160E+02 0.  0.
    5000000    2    1    2    0    0  0.55016802993E+02  0.53519810734E+03 -0.43961858088E+03  0.91803394596E+03  0.60004830352E+03 0.  0.
         23    2    4    4    0    0 -0.93456847112E+02  0.15330942542E+03 -0.45637998670E+03  0.49839755259E+03  0.88766356079E+02 0.  0.
         23    2    4    4    0    0  0.14847365010E+03  0.38188868192E+03  0.16761405824E+02  0.41963639337E+03  0.89052612306E+02 0.  0.
          3    1    3    3  502    0 -0.45567039492E+01 -0.39539645010E+03 -0.55435739858E+03  0.68093409495E+03  0.00000000000E+00 0. -1.
         -3    1    3    3    0  502 -0.50460099044E+02 -0.13980165724E+03 -0.25523209717E+03  0.29535427606E+03  0.00000000000E+00 0.  1.
         11    1    5    5    0    0 -0.76484049244E+02  0.11196555983E+03 -0.22467183426E+03  0.26241861498E+03  0.00000000000E+00 0.  1.
        -11    1    5    5    0    0 -0.16972797868E+02  0.41343865592E+02 -0.23170815244E+03  0.23597893761E+03  0.00000000000E+00 0. -1.
          4    1    6    6  503    0  0.12008743055E+03  0.18701944467E+03  0.13911525946E+02  0.22268990596E+03  0.00000000000E+00 0. -1.
         -4    1    6    6    0  503  0.28386219550E+02  0.19486923725E+03  0.28498798780E+01  0.19694648741E+03  0.00000000000E+00 0.  1.
<mgrwt>
<rscale>  0 0.57176027E+03</rscale>
<asrwt>0</asrwt>
<pdfrwt beam="1">  1        2 0.49624172E-01 0.57176027E+03</pdfrwt>
<pdfrwt beam="2">  1       -2 0.24181003E+00 0.57176027E+03</pdfrwt>
<totfact> 0.76709350E+00</totfact>
</mgrwt>
</event>
<event>
12    1  0.1444206E-007  0.1048008E+04  0.7818608E-02  0.9257403E-01
          1   -1    0    0  501    0  0.00000000000E+00  0.00000000000E+00  0.92888431784E+03  0.92888431784E+03  0.00000000000E+00 0. -1.
         -1   -1    0    0    0  501 -0.00000000000E+00 -0.00000000000E+00 -0.23860189659E+04  0.23860189659E+04  0.00000000000E+00 0.  1.
         23    2    1    2    0    0  0.94512648956E+03  0.38431142986E+03  0.41063975627E+03  0.11036925706E+04  0.92482022509E+02 0.  0.
    5000000    2    1    2    0    0 -0.94512648956E+03 -0.38431142986E+03 -0.18677744044E+04  0.22112107132E+04  0.59992685907E+03 0.  0.
         23    2    4    4    0    0 -0.74411477754E+03 -0.15327632150E+03 -0.84596118725E+03  0.11404344473E+04  0.87977072830E+02 0.  0.
         23    2    4    4    0    0 -0.20101171202E+03 -0.23103510836E+03 -0.10218132171E+04  0.10707762659E+04  0.93148437054E+02 0.  0.
          4    1    3    3  502    0  0.73348877576E+03  0.33166871220E+03  0.29932021614E+03  0.85883788378E+03  0.00000000000E+00 0. -1.
         -4    1    3    3    0  502  0.21163771380E+03  0.52642717661E+02  0.11131954012E+03  0.24485468678E+03  0.00000000000E+00 0.  1.
         11    1    5    5    0    0 -0.32558501355E+03 -0.11035430918E+03 -0.39660719996E+03  0.52486278746E+03  0.00000000000E+00 0.  1.
        -11    1    5    5    0    0 -0.41852976399E+03 -0.42922012318E+02 -0.44935398729E+03  0.61557165983E+03  0.00000000000E+00 0. -1.
          1    1    6    6  503    0 -0.12892120175E+03 -0.17374816524E+03 -0.83398331807E+03  0.86158996977E+03  0.00000000000E+00 0. -1.
         -1    1    6    6    0  503 -0.72090510272E+02 -0.57286943123E+02 -0.18782989904E+03  0.20918629615E+03  0.00000000000E+00 0.  1.
<mgrwt>
<rscale>  0 0.10480077E+04</rscale>
<asrwt>0</asrwt>
<pdfrwt beam="1">  1        1 0.14290528E+00 0.10480077E+04</pdfrwt>
<pdfrwt beam="2">  1       -1 0.36707983E+00 0.10480077E+04</pdfrwt>
<totfact> 0.20894109E-01</totfact>
</mgrwt>
</event>
<event>
12    1  0.1444206E-007  0.4696496E+03  0.7818608E-02  0.1022019E+00
          1   -1    0    0  501    0  0.00000000000E+00  0.00000000000E+00  0.75483328267E+03  0.75483328267E+03  0.00000000000E+00 0. -1.
         -1   -1    0    0    0  501 -0.00000000000E+00 -0.00000000000E+00 -0.38345266808E+03  0.38345266808E+03  0.00000000000E+00 0.  1.
         23    2    1    2    0    0  0.34093143493E+03 -0.21507789260E+02 -0.22142846279E+01  0.35331801479E+03  0.90176982645E+02 0.  0.
    5000000    2    1    2    0    0 -0.34093143493E+03  0.21507789260E+02  0.37359489922E+03  0.78496793596E+03  0.59992056428E+03 0.  0.
         23    2    4    4    0    0 -0.40134385114E+03  0.15376991449E+03  0.83195300563E+02  0.44709506162E+03  0.90832057324E+02 0.  0.
         23    2    4    4    0    0  0.60412416218E+02 -0.13226212523E+03  0.29039959866E+03  0.33787287434E+03  0.93183810333E+02 0.  0.
          4    1    3    3  502    0  0.28830260529E+03  0.13588314278E+02  0.10421351715E+02  0.28881073227E+03  0.00000000000E+00 0. -1.
         -4    1    3    3    0  502  0.52628829634E+02 -0.35096103538E+02 -0.12635636343E+02  0.64507282519E+02  0.00000000000E+00 0.  1.
         13    1    5    5    0    0 -0.31272251426E+03  0.13490754964E+03  0.29696683811E+02  0.34187323806E+03  0.00000000000E+00 0. -1.
        -13    1    5    5    0    0 -0.88621336882E+02  0.18862364859E+02  0.53498616752E+02  0.10522182356E+03  0.00000000000E+00 0.  1.
          4    1    6    6  503    0  0.49739088567E+02 -0.41314568421E+02  0.19585320544E+03  0.20625069352E+03  0.00000000000E+00 0. -1.
         -4    1    6    6    0  503  0.10673327651E+02 -0.90947556814E+02  0.94546393218E+02  0.13162218082E+03  0.00000000000E+00 0.  1.
<mgrwt>
<rscale>  0 0.46964956E+03</rscale>
<asrwt>0</asrwt>
<pdfrwt beam="1">  1        1 0.11612820E+00 0.46964956E+03</pdfrwt>
<pdfrwt beam="2">  1       -1 0.58992718E-01 0.46964956E+03</pdfrwt>
<totfact> 0.74181091E+01</totfact>
</mgrwt>
</event>
<event>
12    1  0.1744737E-007  0.1136487E+04  0.7818608E-02  0.9170341E-01
          1   -1    0    0  501    0  0.00000000000E+00  0.00000000000E+00  0.27958956724E+04  0.27958956724E+04  0.00000000000E+00 0. -1.
         -1   -1    0    0    0  501 -0.00000000000E+00 -0.00000000000E+00 -0.47625788393E+03  0.47625788393E+03  0.00000000000E+00 0.  1.
         23    2    1    2    0    0 -0.92272684392E+03  0.54835118252E+03  0.11034210211E+04  0.15420503882E+04  0.90926356406E+02 0.  0.
    5000000    2    1    2    0    0  0.92272684392E+03 -0.54835118252E+03  0.12162167674E+04  0.17301031681E+04  0.60163103234E+03 0.  0.
         23    2    4    4    0    0 -0.45084697817E+02 -0.14543851262E+02  0.30834299574E+02  0.10689783454E+03  0.90731689134E+02 0.  0.
         23    2    4    4    0    0  0.96781154174E+03 -0.53380733126E+03  0.11853824678E+04  0.16232053336E+04  0.89746936471E+02 0.  0.
          3    1    3    3  502    0 -0.35773250348E+03  0.26096673520E+03  0.47750273242E+03  0.65121812045E+03  0.00000000000E+00 0. -1.
         -3    1    3    3    0  502 -0.56499434044E+03  0.28738444733E+03  0.62591828864E+03  0.89083226780E+03  0.00000000000E+00 0.  1.
         11    1    5    5    0    0 -0.20856202481E+02 -0.46447449459E+02 -0.74835584268E+01  0.51462125781E+02  0.00000000000E+00 0. -1.
        -11    1    5    5    0    0 -0.24228495336E+02  0.31903598198E+02  0.38317858001E+02  0.55435708762E+02  0.00000000000E+00 0.  1.
          3    1    6    6  503    0  0.65904711666E+03 -0.35819133764E+03  0.74206596792E+03  0.10551331845E+04  0.00000000000E+00 0. -1.
         -3    1    6    6    0  503  0.30876442508E+03 -0.17561599362E+03  0.44331649993E+03  0.56807214904E+03  0.00000000000E+00 0.  1.
<mgrwt>
<rscale>  0 0.11364868E+04</rscale>
<asrwt>0</asrwt>
<pdfrwt beam="1">  1        1 0.43013779E+00 0.11364868E+04</pdfrwt>
<pdfrwt beam="2">  1       -1 0.73270445E-01 0.11364868E+04</pdfrwt>
<totfact> 0.15816942E+00</totfact>
</mgrwt>
</event>
<event>
12    1  0.1444206E-007  0.7681876E+03  0.7818608E-02  0.9607241E-01
         -2   -1    0    0    0  501 -0.00000000000E+00  0.00000000000E+00  0.17111279078E+04  0.17111279078E+04  0.00000000000E+00 0. -1.
          2   -1    0    0  501    0  0.00000000000E+00 -0.00000000000E+00 -0.66326155473E+03  0.66326155473E+03  0.00000000000E+00 0.  1.
         23    2    1    2    0    0 -0.45887134055E+02 -0.65099928003E+03  0.12955518621E+04  0.14539225333E+04  0.97623837703E+02 0.  0.
    5000000    2    1    2    0    0  0.45887134055E+02  0.65099928003E+03 -0.24768550909E+03  0.92046692920E+03  0.60000463720E+03 0.  0.
         23    2    4    4    0    0 -0.18645687626E+03  0.58980611547E+03 -0.21307881741E+03  0.66071098903E+03  0.92190064818E+02 0.  0.
         23    2    4    4    0    0  0.23234401032E+03  0.61193164560E+02 -0.34606691686E+02  0.25975594017E+03  0.92450975240E+02 0.  0.
          1    1    3    3  502    0 -0.49531917560E+01 -0.36912889564E+03  0.82591612867E+03  0.90466464909E+03  0.00000000000E+00 0. -1.
         -1    1    3    3    0  502 -0.40933942299E+02 -0.28187038439E+03  0.46963573347E+03  0.54925788422E+03  0.00000000000E+00 0.  1.
         11    1    5    5    0    0  0.56662623106E+00  0.11120099973E+03 -0.46535548234E+02  0.12054684009E+03  0.00000000000E+00 0.  1.
        -11    1    5    5    0    0 -0.18702350249E+03  0.47860511574E+03 -0.16654326917E+03  0.54016414894E+03  0.00000000000E+00 0. -1.
          4    1    6    6  503    0  0.16332540723E+03 -0.26053221837E+01 -0.25548219229E+02  0.16533205333E+03  0.00000000000E+00 0. -1.
         -4    1    6    6    0  503  0.69018603084E+02  0.63798486744E+02 -0.90584724566E+01  0.94423886839E+02  0.00000000000E+00 0.  1.
<mgrwt>
<rscale>  0 0.76818756E+03</rscale>
<asrwt>0</asrwt>
<pdfrwt beam="1">  1        2 0.10204024E+00 0.76818756E+03</pdfrwt>
<pdfrwt beam="2">  1       -2 0.26325045E+00 0.76818756E+03</pdfrwt>
<totfact> 0.24087615E+00</totfact>
</mgrwt>
</event>
<event>
12    1  0.1444206E-007  0.1781598E+04  0.7818608E-02  0.8716147E-01
          2   -1    0    0  501    0  0.00000000000E+00  0.00000000000E+00  0.22046132063E+04  0.22046132063E+04  0.00000000000E+00 0. -1.
         -2   -1    0    0    0  501 -0.00000000000E+00 -0.00000000000E+00 -0.14737148186E+04  0.14737148186E+04  0.00000000000E+00 0.  1.
         23    2    1    2    0    0  0.13021913069E+04 -0.11517364113E+04  0.13782726408E+03  0.17459898436E+04  0.85353491250E+02 0.  0.
    5000000    2    1    2    0    0 -0.13021913069E+04  0.11517364113E+04  0.59307112359E+03  0.19323381813E+04  0.59999877364E+03 0.  0.
         23    2    4    4    0    0 -0.37470809873E+03  0.67951586214E+03  0.36846483667E+03  0.86363859858E+03  0.89203850495E+02 0.  0.
         23    2    4    4    0    0 -0.92748320822E+03  0.47222054912E+03  0.22460628692E+03  0.10686995827E+04  0.91942729150E+02 0.  0.
          4    1    3    3  502    0  0.81328016368E+03 -0.66688767931E+03  0.97466842617E+02  0.10562497748E+04  0.00000000000E+00 0. -1.
         -4    1    3    3    0  502  0.48891114327E+03 -0.48484873195E+03  0.40360421467E+02  0.68974006880E+03  0.00000000000E+00 0.  1.
         13    1    5    5    0    0 -0.20123272510E+03  0.45368755321E+03  0.23180891697E+03  0.54777949905E+03  0.00000000000E+00 0.  1.
        -13    1    5    5    0    0 -0.17347537363E+03  0.22582830893E+03  0.13665591970E+03  0.31585909953E+03  0.00000000000E+00 0. -1.
          3    1    6    6  503    0 -0.70713274927E+03  0.38191711418E+03  0.20703165187E+03  0.82991536441E+03  0.00000000000E+00 0. -1.
         -3    1    6    6    0  503 -0.22035045895E+03  0.90303434941E+02  0.17574635048E+02  0.23878421832E+03  0.00000000000E+00 0.  1.
<mgrwt>
<rscale>  0 0.17815978E+04</rscale>
<asrwt>0</asrwt>
<pdfrwt beam="1">  1        2 0.33917126E+00 0.17815978E+04</pdfrwt>
<pdfrwt beam="2">  1       -2 0.22672536E+00 0.17815978E+04</pdfrwt>
<totfact> 0.41948952E-01</totfact>
</mgrwt>
</event>
<event>
12    1  0.1444206E-007  0.7500753E+03  0.7818608E-02  0.9635232E-01
          1   -1    0    0  501    0  0.00000000000E+00  0.00000000000E+00  0.24027248692E+04  0.24027248692E+04  0.00000000000E+00 0. -1.
         -1   -1    0    0    0  501 -0.00000000000E+00 -0.00000000000E+00 -0.89762077339E+03  0.89762077339E+03  0.00000000000E+00 0.  1.
         23    2    1    2    0    0  0.26046982673E+03 -0.58258634304E+03  0.21293395826E+04  0.22247713725E+04  0.90935273793E+02 0.  0.
    5000000    2    1    2    0    0 -0.26046982673E+03  0.58258634304E+03 -0.62423548679E+03  0.10755742701E+04  0.59994890599E+03 0.  0.
         23    2    4    4    0    0  0.16661053834E+03  0.84898879256E+02 -0.20688831511E+03  0.29273025987E+03  0.89001904090E+02 0.  0.
         23    2    4    4    0    0 -0.42708036507E+03  0.49768746379E+03 -0.41734717168E+03  0.78284401023E+03  0.92604712685E+02 0.  0.
          4    1    3    3  502    0  0.11667206309E+03 -0.25136586714E+03  0.10823643945E+04  0.11172778759E+04  0.00000000000E+00 0.  1.
         -4    1    3    3    0  502  0.14379776364E+03 -0.33122047590E+03  0.10469751881E+04  0.11074934966E+04  0.00000000000E+00 0. -1.
         13    1    5    5    0    0  0.28127900532E+02 -0.15234759340E+02 -0.13685545792E+02  0.34793258602E+02  0.00000000000E+00 0. -1.
        -13    1    5    5    0    0  0.13848263781E+03  0.10013363860E+03 -0.19320276932E+03  0.25793700127E+03  0.00000000000E+00 0.  1.
          2    1    6    6  503    0 -0.25659838170E+03  0.24904911935E+03 -0.26491808832E+03  0.44502784954E+03  0.00000000000E+00 0.  1.
         -2    1    6    6    0  503 -0.17048198336E+03  0.24863834443E+03 -0.15242908336E+03  0.33781616070E+03  0.00000000000E+00 0. -1.
<mgrwt>
<rscale>  0 0.75007532E+03</rscale>
<asrwt>0</asrwt>
<pdfrwt beam="1">  1        1 0.36964998E+00 0.75007532E+03</pdfrwt>
<pdfrwt beam="2">  1       -1 0.13809550E+00 0.75007532E+03</pdfrwt>
<totfact> 0.73351544E-01</totfact>
</mgrwt>
</event>
<event>
12    1  0.1444206E-007  0.5194899E+03  0.7818608E-02  0.1008813E+00
         -1   -1    0    0    0  501 -0.00000000000E+00  0.00000000000E+00  0.86948955044E+03  0.86948955044E+03  0.00000000000E+00 0.  1.
          1   -1    0    0  501    0  0.00000000000E+00 -0.00000000000E+00 -0.62451379067E+03  0.62451379067E+03  0.00000000000E+00 0. -1.
         23    2    1    2    0    0  0.29277781975E+03  0.20276399862E+03  0.60556118495E+03  0.70845437773E+03  0.91494074852E+02 0.  0.
    5000000    2    1    2    0    0 -0.29277781975E+03 -0.20276399862E+03 -0.36058542518E+03  0.78554896338E+03  0.60019433032E+03 0.  0.
         23    2    4    4    0    0 -0.39117205794E+03  0.55126816188E+02 -0.19403376792E+03  0.44974949901E+03  0.92579500937E+02 0.  0.
         23    2    4    4    0    0  0.98394238192E+02 -0.25789081481E+03 -0.16655165726E+03  0.33579946437E+03  0.93982590205E+02 0.  0.
          4    1    3    3  502    0  0.29212525325E+02  0.15786150168E+02  0.12508007634E+03  0.12941251744E+03  0.00000000000E+00 0.  1.
         -4    1    3    3    0  502  0.26356529442E+03  0.18697784846E+03  0.48048110861E+03  0.57904186029E+03  0.00000000000E+00 0. -1.
         11    1    5    5    0    0 -0.44052198681E+02 -0.22126007597E+02 -0.33360705624E+02  0.59523886807E+02  0.00000000000E+00 0.  1.
        -11    1    5    5    0    0 -0.34711985926E+03  0.77252823785E+02 -0.16067306229E+03  0.39022561221E+03  0.00000000000E+00 0. -1.
          1    1    6    6  503    0  0.16865691203E+02 -0.19579332724E+02  0.10533223955E+02  0.27906103572E+02  0.00000000000E+00 0. -1.
         -1    1    6    6    0  503  0.81528546990E+02 -0.23831148209E+03 -0.17708488122E+03  0.30789336080E+03  0.00000000000E+00 0.  1.
<mgrwt>
<rscale>  0 0.51948986E+03</rscale>
<asrwt>0</asrwt>
<pdfrwt beam="1">  1        1 0.96079044E-01 0.51948986E+03</pdfrwt>
<pdfrwt beam="2">  1       -1 0.13376762E+00 0.51948986E+03</pdfrwt>
<totfact> 0.16174627E+01</totfact>
</mgrwt>
</event>
<event>
12    1  0.1444206E-007  0.5752647E+03  0.7818608E-02  0.9958096E-01
         -1   -1    0    0    0  501 -0.00000000000E+00  0.00000000000E+00  0.34105712205E+03  0.34105712205E+03  0.00000000000E+00 0.  1.
          1   -1    0    0  501    0  0.00000000000E+00 -0.00000000000E+00 -0.12401708016E+04  0.12401708016E+04  0.00000000000E+00 0. -1.
         23    2    1    2    0    0 -0.23563423198E+03  0.41154604835E+03 -0.13748191942E+03  0.50189633605E+03  0.90027844439E+02 0.  0.
    5000000    2    1    2    0    0  0.23563423198E+03 -0.41154604835E+03 -0.76163176014E+03  0.10793315876E+04  0.59998341374E+03 0.  0.
         23    2    4    4    0    0  0.22372358489E+03  0.27604414088E+02 -0.51303532984E+03  0.56653191566E+03  0.83300154154E+02 0.  0.
         23    2    4    4    0    0  0.11910647089E+02 -0.43915046244E+03 -0.24859643030E+03  0.51279967196E+03  0.90378792983E+02 0.  0.
          3    1    3    3  502    0 -0.42546330560E+02  0.13072819205E+03 -0.92999636503E+01  0.13779165346E+03  0.00000000000E+00 0. -1.
         -3    1    3    3    0  502 -0.19308790142E+03  0.28081785631E+03 -0.12818195577E+03  0.36410468259E+03  0.00000000000E+00 0.  1.
         13    1    5    5    0    0  0.17632222134E+03  0.56140528956E+01 -0.45722669422E+03  0.49007886430E+03  0.00000000000E+00 0.  1.
        -13    1    5    5    0    0  0.47401363554E+02  0.21990361193E+02 -0.55808635621E+02  0.76453051359E+02  0.00000000000E+00 0. -1.
          3    1    6    6  503    0  0.34056016429E+01 -0.43319448208E+03 -0.25282668380E+03  0.50158786814E+03  0.00000000000E+00 0. -1.
         -3    1    6    6    0  503  0.85050454456E+01 -0.59559803616E+01  0.42302534953E+01  0.11211803813E+02  0.00000000000E+00 0.  1.
<mgrwt>
<rscale>  0 0.57526472E+03</rscale>
<asrwt>0</asrwt>
<pdfrwt beam="1">  1        1 0.19079551E+00 0.57526472E+03</pdfrwt>
<pdfrwt beam="2">  1       -1 0.52470327E-01 0.57526472E+03</pdfrwt>
<totfact> 0.38413878E+01</totfact>
</mgrwt>
</event>
<event>
12    1  0.1444206E-007  0.6033012E+03  0.7818608E-02  0.9898581E-01
          2   -1    0    0  501    0  0.00000000000E+00  0.00000000000E+00  0.20195382945E+04  0.20195382945E+04  0.00000000000E+00 0. -1.
         -2   -1    0    0    0  501 -0.00000000000E+00 -0.00000000000E+00 -0.19432314012E+03  0.19432314012E+03  0.00000000000E+00 0.  1.
         23    2    1    2    0    0 -0.40419919616E+03  0.24050316317E+03  0.85226925821E+03  0.97780799185E+03  0.92340775200E+02 0.  0.
    5000000    2    1    2    0    0  0.40419919616E+03 -0.24050316317E+03  0.97294589617E+03  0.12360534428E+04  0.59998802893E+03 0.  0.
         23    2    4    4    0    0  0.46589931405E+03 -0.34384002867E+03  0.88554327132E+03  0.10618581671E+04  0.89820630168E+02 0.  0.
         23    2    4    4    0    0 -0.61700117892E+02  0.10333686550E+03  0.87402624846E+02  0.17419527563E+03  0.90660702089E+02 0.  0.
          1    1    3    3  502    0 -0.11751091270E+03  0.10623541089E+03  0.22488415091E+03  0.27507754990E+03  0.00000000000E+00 0. -1.
         -1    1    3    3    0  502 -0.28668828346E+03  0.13426775228E+03  0.62738510730E+03  0.70273044195E+03  0.00000000000E+00 0.  1.
         13    1    5    5    0    0  0.28493819804E+03 -0.24306548925E+03  0.50673700274E+03  0.63012141585E+03  0.00000000000E+00 0. -1.
        -13    1    5    5    0    0  0.18096111601E+03 -0.10077453942E+03  0.37880626858E+03  0.43173675129E+03  0.00000000000E+00 0.  1.
          4    1    6    6  503    0 -0.44394647495E+01  0.91351128131E+02  0.44912952166E+02  0.10189166173E+03  0.00000000000E+00 0. -1.
         -4    1    6    6    0  503 -0.57260653143E+02  0.11985737367E+02  0.42489672679E+02  0.72303613900E+02  0.00000000000E+00 0.  1.
<mgrwt>
<rscale>  0 0.60330118E+03</rscale>
<asrwt>0</asrwt>
<pdfrwt beam="1">  1        2 0.31069818E+00 0.60330118E+03</pdfrwt>
<pdfrwt beam="2">  1       -2 0.29895869E-01 0.60330118E+03</pdfrwt>
<totfact> 0.70440562E+01</totfact>
</mgrwt>
</event>
<event>
12    1  0.1444206E-007  0.1195719E+04  0.7818608E-02  0.9116612E-01
          2   -1    0    0  501    0  0.00000000000E+00  0.00000000000E+00  0.40448629697E+04  0.40448629697E+04  0.00000000000E+00 0.  1.
         -2   -1    0    0    0  501 -0.00000000000E+00 -0.00000000000E+00 -0.89168906194E+03  0.89168906194E+03  0.00000000000E+00 0. -1.
         23    2    1    2    0    0  0.11817470339E+04 -0.10803132472E+03 -0.30756445490E+03  0.12291846233E+04  0.90011804384E+02 0.  0.
    5000000    2    1    2    0    0 -0.11817470339E+04  0.10803132472E+03  0.34607383627E+04  0.37073674084E+04  0.59972182446E+03 0.  0.
         23    2    4    4    0    0 -0.66528859791E+03  0.64025558391E+02  0.26894678828E+04  0.27729261417E+04  0.95779454960E+02 0.  0.
         23    2    4    4    0    0 -0.51645843597E+03  0.44005766329E+02  0.77127047990E+03  0.93444126673E+03  0.98267513721E+02 0.  0.
          3    1    3    3  502    0  0.33887295491E+03  0.57966089364E+01 -0.69574633631E+02  0.34599004305E+03  0.00000000000E+00 0. -1.
         -3    1    3    3    0  502  0.84287407897E+03 -0.11382793366E+03 -0.23798982127E+03  0.88319458021E+03  0.00000000000E+00 0.  1.
         13    1    5    5    0    0 -0.39159345745E+03  0.84545114707E+02  0.16206220865E+04  0.16694038635E+04  0.00000000000E+00 0.  1.
        -13    1    5    5    0    0 -0.27369514046E+03 -0.20519556317E+02  0.10688457963E+04  0.11035222782E+04  0.00000000000E+00 0. -1.
          3    1    6    6  503    0 -0.16906104101E+03 -0.30043019273E+02  0.22991214845E+03  0.28695611964E+03  0.00000000000E+00 0. -1.
         -3    1    6    6    0  503 -0.34739739496E+03  0.74048785602E+02  0.54135833145E+03  0.64748514709E+03  0.00000000000E+00 0.  1.
<mgrwt>
<rscale>  0 0.11957193E+04</rscale>
<asrwt>0</asrwt>
<pdfrwt beam="1">  1        2 0.62228660E+00 0.11957193E+04</pdfrwt>
<pdfrwt beam="2">  1       -2 0.13718294E+00 0.11957193E+04</pdfrwt>
<totfact> 0.12036969E-01</totfact>
</mgrwt>
</event>
<event>
12    1  0.1444206E-007  0.8693429E+03  0.7818608E-02  0.9464737E-01
          2   -1    0    0  501    0  0.00000000000E+00  0.00000000000E+00  0.34800708129E+04  0.34800708129E+04  0.00000000000E+00 0. -1.
         -2   -1    0    0    0  501 -0.00000000000E+00 -0.00000000000E+00 -0.25588933981E+03  0.25588933981E+03  0.00000000000E+00 0.  1.
         23    2    1    2    0    0  0.77581869743E+03 -0.28100487274E+01  0.21119842674E+04  0.22531384168E+04  0.11938438718E+03 0.  0.
    5000000    2    1    2    0    0 -0.77581869743E+03  0.28100487274E+01  0.11121972056E+04  0.14828217358E+04  0.59989593130E+03 0.  0.
         23    2    4    4    0    0 -0.20017060680E+03 -0.24769969046E+03  0.51104658023E+03  0.60884395539E+03  0.89994146358E+02 0.  0.
         23    2    4    4    0    0 -0.57564809063E+03  0.25050973919E+03  0.60115062538E+03  0.87397778042E+03  0.91264629480E+02 0.  0.
          2    1    3    3  502    0  0.34434891736E+03  0.70768965459E+01  0.77147604577E+03  0.84486776986E+03  0.00000000000E+00 0. -1.
         -2    1    3    3    0  502  0.43146978007E+03 -0.98869452734E+01  0.13405082217E+04  0.14082706470E+04  0.00000000000E+00 0.  1.
         13    1    5    5    0    0  0.66437464983E+01 -0.27067304330E+02  0.33223550881E+02  0.43365685332E+02  0.00000000000E+00 0. -1.
        -13    1    5    5    0    0 -0.20681435329E+03 -0.22063238613E+03  0.47782302934E+03  0.56547827006E+03  0.00000000000E+00 0.  1.
          3    1    6    6  503    0 -0.83247655875E+02  0.67204223170E+02  0.12895416722E+03  0.16755821992E+03  0.00000000000E+00 0. -1.
         -3    1    6    6    0  503 -0.49240043476E+03  0.18330551602E+03  0.47219645817E+03  0.70641956050E+03  0.00000000000E+00 0.  1.
<mgrwt>
<rscale>  0 0.86934287E+03</rscale>
<asrwt>0</asrwt>
<pdfrwt beam="1">  1        2 0.53539547E+00 0.86934287E+03</pdfrwt>
<pdfrwt beam="2">  1       -2 0.39367593E-01 0.86934287E+03</pdfrwt>
<totfact> 0.54212788E+00</totfact>
</mgrwt>
</event>
<event>
12    1  0.1444206E-007  0.5866625E+03  0.7818608E-02  0.9933470E-01
          1   -1    0    0  501    0  0.00000000000E+00  0.00000000000E+00  0.10941557987E+04  0.10941557987E+04  0.00000000000E+00 0. -1.
         -1   -1    0    0    0  501 -0.00000000000E+00 -0.00000000000E+00 -0.35246125134E+03  0.35246125134E+03  0.00000000000E+00 0.  1.
         23    2    1    2    0    0  0.37430064515E+03 -0.27929677974E+03  0.21934511208E+03  0.52415229871E+03  0.92280495838E+02 0.  0.
    5000000    2    1    2    0    0 -0.37430064515E+03  0.27929677974E+03  0.52234943523E+03  0.92246475128E+03  0.59998718381E+03 0.  0.
         23    2    4    4    0    0  0.13501942905E+03  0.59052844001E+02  0.23125390360E+03  0.28916795137E+03  0.91772825852E+02 0.  0.
         23    2    4    4    0    0 -0.50932007421E+03  0.22024393574E+03  0.29109553163E+03  0.63329679991E+03  0.91727307906E+02 0.  0.
          3    1    3    3  502    0  0.18856476165E+03 -0.12664494684E+03  0.57425828493E+02  0.23429327279E+03  0.00000000000E+00 0. -1.
         -3    1    3    3    0  502  0.18573588350E+03 -0.15265183290E+03  0.16191928359E+03  0.28985902591E+03  0.00000000000E+00 0.  1.
         13    1    5    5    0    0  0.13490264322E+02  0.59331447007E+01  0.10507908725E+03  0.10610751159E+03  0.00000000000E+00 0. -1.
        -13    1    5    5    0    0  0.12152916473E+03  0.53119699300E+02  0.12617481635E+03  0.18306043979E+03  0.00000000000E+00 0.  1.
          2    1    6    6  503    0 -0.14064046549E+03  0.31152172354E+02  0.10931770694E+03  0.18083296001E+03  0.00000000000E+00 0. -1.
         -2    1    6    6    0  503 -0.36867960872E+03  0.18909176339E+03  0.18177782469E+03  0.45246383990E+03  0.00000000000E+00 0.  1.
<mgrwt>
<rscale>  0 0.58666247E+03</rscale>
<asrwt>0</asrwt>
<pdfrwt beam="1">  1        1 0.16833166E+00 0.58666247E+03</pdfrwt>
<pdfrwt beam="2">  1       -1 0.54224809E-01 0.58666247E+03</pdfrwt>
<totfact> 0.45970631E+01</totfact>
</mgrwt>
</event>
<event>
12    1  0.1444206E-007  0.3731646E+03  0.7818608E-02  0.1053489E+00
         -2   -1    0    0    0  501 -0.00000000000E+00  0.00000000000E+00  0.18551457221E+03  0.18551457221E+03  0.00000000000E+00 0. -1.
          2   -1    0    0  501    0  0.00000000000E+00 -0.00000000000E+00 -0.10373862515E+04  0.10373862515E+04  0.00000000000E+00 0.  1.
         23    2    1    2    0    0 -0.45553145942E+02  0.20938788533E+03 -0.29533342646E+03  0.37688538357E+03  0.94352445325E+02 0.  0.
    5000000    2    1    2    0    0  0.45553145942E+02 -0.20938788533E+03 -0.55653825287E+03  0.84601544019E+03  0.60007409750E+03 0.  0.
         23    2    4    4    0    0  0.23589156080E+03 -0.10270681547E+01 -0.47546725845E+03  0.53819839162E+03  0.89120769532E+02 0.  0.
         23    2    4    4    0    0 -0.19033841486E+03 -0.20836081717E+03 -0.81070994425E+02  0.30781704856E+03  0.92389863875E+02 0.  0.
          1    1    3    3  502    0 -0.48955734626E+02  0.10327979105E+03 -0.89063902676E+02  0.14489913026E+03  0.00000000000E+00 0. -1.
         -1    1    3    3    0  502  0.34025886848E+01  0.10610809428E+03 -0.20626952379E+03  0.23198625331E+03  0.00000000000E+00 0.  1.
         13    1    5    5    0    0  0.43100260244E+01  0.24236205705E+01 -0.78132485598E+02  0.78288795921E+02  0.00000000000E+00 0.  1.
        -13    1    5    5    0    0  0.23158153477E+03 -0.34506887252E+01 -0.39733477285E+03  0.45990959570E+03  0.00000000000E+00 0. -1.
          1    1    6    6  503    0 -0.50100020536E+02 -0.10086285236E+03 -0.65860634937E+02  0.13046436402E+03  0.00000000000E+00 0. -1.
         -1    1    6    6    0  503 -0.14023839432E+03 -0.10749796481E+03 -0.15210359488E+02  0.17735268455E+03  0.00000000000E+00 0.  1.
<mgrwt>
<rscale>  0 0.37316463E+03</rscale>
<asrwt>0</asrwt>
<pdfrwt beam="1">  1        2 0.15959788E+00 0.37316463E+03</pdfrwt>
<pdfrwt beam="2">  1       -2 0.28540704E-01 0.37316463E+03</pdfrwt>
<totfact> 0.27797270E+02</totfact>
</mgrwt>
</event>
<event>
12    1  0.1444206E-007  0.6480799E+03  0.7818608E-02  0.9810389E-01
          2   -1    0    0  501    0  0.00000000000E+00  0.00000000000E+00  0.10196621347E+04  0.10196621347E+04  0.00000000000E+00 0. -1.
         -2   -1    0    0    0  501 -0.00000000000E+00 -0.00000000000E+00 -0.55298129917E+03  0.55298129917E+03  0.00000000000E+00 0.  1.
         23    2    1    2    0    0 -0.45235895250E+03  0.30075694415E+03  0.52527714179E+03  0.76116528558E+03  0.91504944783E+02 0.  0.
    5000000    2    1    2    0    0  0.45235895250E+03 -0.30075694415E+03 -0.58596306254E+02  0.81147814829E+03  0.59998324700E+03 0.  0.
         23    2    4    4    0    0 -0.94606317816E+02  0.14480992338E+02  0.84809592561E+02  0.15753709076E+03  0.92006594678E+02 0.  0.
         23    2    4    4    0    0  0.54696527032E+03 -0.31523793649E+03 -0.14340589882E+03  0.65394105753E+03  0.92345500008E+02 0.  0.
          3    1    3    3  502    0 -0.29605815407E+03  0.24591134228E+03  0.37966618580E+03  0.54061930366E+03  0.00000000000E+00 0. -1.
         -3    1    3    3    0  502 -0.15630079843E+03  0.54845601873E+02  0.14561095599E+03  0.22054598192E+03  0.00000000000E+00 0.  1.
         11    1    5    5    0    0 -0.70620759953E+02 -0.18587200197E+02  0.11936619889E+02  0.73994990654E+02  0.00000000000E+00 0. -1.
        -11    1    5    5    0    0 -0.23985557862E+02  0.33068192536E+02  0.72872972672E+02  0.83542100103E+02  0.00000000000E+00 0.  1.
          1    1    6    6  503    0  0.36770104920E+03 -0.19866398451E+03 -0.51154933559E+02  0.42105613349E+03  0.00000000000E+00 0. -1.
         -1    1    6    6    0  503  0.17926422112E+03 -0.11657395198E+03 -0.92250965256E+02  0.23288492404E+03  0.00000000000E+00 0.  1.
<mgrwt>
<rscale>  0 0.64807994E+03</rscale>
<asrwt>0</asrwt>
<pdfrwt beam="1">  1        2 0.15687110E+00 0.64807994E+03</pdfrwt>
<pdfrwt beam="2">  1       -2 0.85074046E-01 0.64807994E+03</pdfrwt>
<totfact> 0.30226486E+01</totfact>
</mgrwt>
</event>
<event>
12    1  0.1444206E-007  0.1118913E+04  0.7818608E-02  0.9186951E-01
         -1   -1    0    0    0  501 -0.00000000000E+00  0.00000000000E+00  0.10169234861E+04  0.10169234861E+04  0.00000000000E+00 0.  1.
          1   -1    0    0  501    0  0.00000000000E+00 -0.00000000000E+00 -0.14562496305E+04  0.14562496305E+04  0.00000000000E+00 0. -1.
         23    2    1    2    0    0 -0.10599157190E+04 -0.22476685984E+03 -0.56932043779E+03  0.12275178189E+04  0.93449250118E+02 0.  0.
    5000000    2    1    2    0    0  0.10599157190E+04  0.22476685984E+03  0.12999429337E+03  0.12456552977E+04  0.60068055722E+03 0.  0.
         23    2    4    4    0    0  0.58410045774E+03 -0.58560116111E+02 -0.15806766640E+03  0.61490836842E+03  0.92327040774E+02 0.  0.
         23    2    4    4    0    0  0.47581526122E+03  0.28332697595E+03  0.28806195976E+03  0.63074692929E+03  0.90485678625E+02 0.  0.
          4    1    3    3  502    0 -0.54817593208E+03 -0.14902139001E+03 -0.33620512701E+03  0.66010462399E+03  0.00000000000E+00 0. -1.
         -4    1    3    3    0  502 -0.51173978688E+03 -0.75745469825E+02 -0.23311531078E+03  0.56741319494E+03  0.00000000000E+00 0.  1.
         11    1    5    5    0    0  0.38265313897E+03  0.41414893305E+01 -0.11495268172E+03  0.39956813653E+03  0.00000000000E+00 0. -1.
        -11    1    5    5    0    0  0.20144731878E+03 -0.62701605441E+02 -0.43114984681E+02  0.21534023189E+03  0.00000000000E+00 0.  1.
          3    1    6    6  503    0  0.13108602775E+03  0.40793513183E+02  0.46571599556E+02  0.14497093251E+03  0.00000000000E+00 0. -1.
         -3    1    6    6    0  503  0.34472923347E+03  0.24253346277E+03  0.24149036021E+03  0.48577599678E+03  0.00000000000E+00 0.  1.
<mgrwt>
<rscale>  0 0.11189131E+04</rscale>
<asrwt>0</asrwt>
<pdfrwt beam="1">  1        1 0.22403840E+00 0.11189131E+04</pdfrwt>
<pdfrwt beam="2">  1       -1 0.15644977E+00 0.11189131E+04</pdfrwt>
<totfact> 0.21607443E+00</totfact>
</mgrwt>
</event>
<event>
12    1  0.1444206E-007  0.7536210E+03  0.7818608E-02  0.9629687E-01
          1   -1    0    0  501    0  0.00000000000E+00  0.00000000000E+00  0.30791131757E+03  0.30791131757E+03  0.00000000000E+00 0. -1.
         -1   -1    0    0    0  501 -0.00000000000E+00 -0.00000000000E+00 -0.20096643657E+04  0.20096643657E+04  0.00000000000E+00 0.  1.
         23    2    1    2    0    0 -0.65229724706E+03  0.11959743691E+03 -0.85339533684E+03  0.10848732588E+04  0.94186736251E+02 0.  0.
    5000000    2    1    2    0    0  0.65229724706E+03 -0.11959743691E+03 -0.84835771129E+03  0.12327024245E+04  0.60004101156E+03 0.  0.
         23    2    4    4    0    0  0.72086229840E+03 -0.29242786260E+02 -0.58840648219E+03  0.93541660667E+03  0.91018931753E+02 0.  0.
         23    2    4    4    0    0 -0.68565051345E+02 -0.90354650651E+02 -0.25995122910E+03  0.29728581780E+03  0.89101553272E+02 0.  0.
          3    1    3    3  502    0 -0.20568489086E+03  0.30468170528E+02 -0.20063632049E+03  0.28894552573E+03  0.00000000000E+00 0. -1.
         -3    1    3    3    0  502 -0.44661235620E+03  0.89129266383E+02 -0.65275901636E+03  0.79592773307E+03  0.00000000000E+00 0.  1.
         11    1    5    5    0    0  0.26590002377E+03  0.55824601951E+01 -0.16528523273E+03  0.31313446738E+03  0.00000000000E+00 0.  1.
        -11    1    5    5    0    0  0.45496227463E+03 -0.34825246455E+02 -0.42312124947E+03  0.62228213929E+03  0.00000000000E+00 0. -1.
          4    1    6    6  503    0 -0.46055555906E+02 -0.87593836121E+02 -0.12016003723E+03  0.15566704501E+03  0.00000000000E+00 0. -1.
         -4    1    6    6    0  503 -0.22509495439E+02 -0.27608145301E+01 -0.13979119187E+03  0.14161877279E+03  0.00000000000E+00 0.  1.
<mgrwt>
<rscale>  0 0.75362101E+03</rscale>
<asrwt>0</asrwt>
<pdfrwt beam="1">  1        1 0.47370972E-01 0.75362101E+03</pdfrwt>
<pdfrwt beam="2">  1       -1 0.30917913E+00 0.75362101E+03</pdfrwt>
<totfact> 0.25619724E+00</totfact>
</mgrwt>
</event>
<event>
12    1  0.1444206E-007  0.1329239E+04  0.7818608E-02  0.9006695E-01
         -1   -1    0    0    0  501 -0.00000000000E+00  0.00000000000E+00  0.35827202799E+04  0.35827202799E+04  0.00000000000E+00 0.  1.
          1   -1    0    0  501    0  0.00000000000E+00 -0.00000000000E+00 -0.98437907171E+03  0.98437907171E+03  0.00000000000E+00 0. -1.
         23    2    1    2    0    0  0.11422839065E+04 -0.64453355848E+03 -0.28283892194E+03  0.13450532317E+04  0.94521476359E+02 0.  0.
    5000000    2    1    2    0    0 -0.11422839065E+04  0.64453355848E+03  0.28811801301E+04  0.32220461199E+04  0.60012184203E+03 0.  0.
         23    2    4    4    0    0 -0.21798647946E+03  0.56642638721E+01  0.18882147178E+03  0.30337317649E+03  0.93976310289E+02 0.  0.
         23    2    4    4    0    0 -0.92429742700E+03  0.63886929461E+03  0.26923586584E+04  0.29186729434E+04  0.85888858478E+02 0.  0.
          3    1    3    3  502    0  0.10671054651E+04 -0.59402512024E+03 -0.23915112769E+03  0.12444971591E+04  0.00000000000E+00 0. -1.
         -3    1    3    3    0  502  0.75178441326E+02 -0.50508438240E+02 -0.43687794254E+02  0.10055607262E+03  0.00000000000E+00 0.  1.
         11    1    5    5    0    0 -0.18903870393E+02 -0.13017218478E+02  0.63178450188E+02  0.67218456251E+02  0.00000000000E+00 0. -1.
        -11    1    5    5    0    0 -0.19908260907E+03  0.18681482350E+02  0.12564302159E+03  0.23615472024E+03  0.00000000000E+00 0.  1.
          2    1    6    6  503    0 -0.60337247796E+03  0.40859868073E+03  0.16390097506E+04  0.17937012548E+04  0.00000000000E+00 0.  1.
         -2    1    6    6    0  503 -0.32092494904E+03  0.23027061388E+03  0.10533489078E+04  0.11249716886E+04  0.00000000000E+00 0. -1.
<mgrwt>
<rscale>  0 0.13292387E+04</rscale>
<asrwt>0</asrwt>
<pdfrwt beam="1">  1        1 0.15144294E+00 0.13292387E+04</pdfrwt>
<pdfrwt beam="2">  1       -1 0.55118773E+00 0.13292387E+04</pdfrwt>
<totfact> 0.10958430E-02</totfact>
</mgrwt>
</event>
<event>
12    1  0.1444206E-007  0.6944142E+03  0.7818608E-02  0.9726833E-01
         -1   -1    0    0    0  501 -0.00000000000E+00  0.00000000000E+00  0.36960825238E+03  0.36960825238E+03  0.00000000000E+00 0.  1.
          1   -1    0    0  501    0  0.00000000000E+00 -0.00000000000E+00 -0.21555706273E+04  0.21555706273E+04  0.00000000000E+00 0. -1.
         23    2    1    2    0    0  0.70323680809E+02 -0.61220750031E+03 -0.14916166881E+04  0.16165703622E+04  0.92929802231E+02 0.  0.
    5000000    2    1    2    0    0 -0.70323680809E+02  0.61220750031E+03 -0.29434568681E+03  0.90860851749E+03  0.59932179269E+03 0.  0.
         23    2    4    4    0    0 -0.65124742508E+02 -0.53563484938E+02 -0.18860715330E+03  0.22757640360E+03  0.95436272947E+02 0.  0.
         23    2    4    4    0    0 -0.51989383008E+01  0.66577098524E+03 -0.10573853352E+03  0.68103211389E+03  0.96675068822E+02 0.  0.
          2    1    3    3  502    0  0.88387917753E+02 -0.37521991404E+03 -0.93113810862E+03  0.10077800282E+04  0.00000000000E+00 0. -1.
         -2    1    3    3    0  502 -0.18064236944E+02 -0.23698758626E+03 -0.56047857946E+03  0.60879033397E+03  0.00000000000E+00 0.  1.
         13    1    5    5    0    0  0.54616822538E+00 -0.26522641117E+02 -0.52637519079E+00  0.26533485681E+02  0.00000000000E+00 0.  1.
        -13    1    5    5    0    0 -0.65670910733E+02 -0.27040843820E+02 -0.18808077811E+03  0.20104291792E+03  0.00000000000E+00 0. -1.
          1    1    6    6  503    0  0.24699818339E+02  0.23087929011E+03 -0.75095161298E+02  0.24403813407E+03  0.00000000000E+00 0. -1.
         -1    1    6    6    0  503 -0.29898756640E+02  0.43489169513E+03 -0.30643372217E+02  0.43699397983E+03  0.00000000000E+00 0.  1.
<mgrwt>
<rscale>  0 0.69441420E+03</rscale>
<asrwt>0</asrwt>
<pdfrwt beam="1">  1        1 0.33162625E+00 0.69441420E+03</pdfrwt>
<pdfrwt beam="2">  1       -1 0.56862807E-01 0.69441420E+03</pdfrwt>
<totfact> 0.77536021E+00</totfact>
</mgrwt>
</event>
<event>
12    1  0.1444206E-007  0.4748385E+03  0.7818608E-02  0.1020563E+00
         -2   -1    0    0    0  501 -0.00000000000E+00  0.00000000000E+00  0.15882692021E+03  0.15882692021E+03  0.00000000000E+00 0.  1.
          2   -1    0    0  501    0  0.00000000000E+00 -0.00000000000E+00 -0.15217982524E+04  0.15217982524E+04  0.00000000000E+00 0. -1.
         23    2    1    2    0    0 -0.45534094032E+02  0.29107369672E+03 -0.34369805392E+03  0.46173741478E+03  0.90971629074E+02 0.  0.
    5000000    2    1    2    0    0  0.45534094032E+02 -0.29107369672E+03 -0.10192732783E+04  0.12188877578E+04  0.59997674934E+03 0.  0.
         23    2    4    4    0    0  0.14414643550E+03  0.13021864324E+03 -0.23457062637E+03  0.31834282304E+03  0.92648174916E+02 0.  0.
         23    2    4    4    0    0 -0.98612341469E+02 -0.42129233996E+03 -0.78470265191E+03  0.90054493479E+03  0.89505854883E+02 0.  0.
          1    1    3    3  502    0 -0.14303320920E+02  0.16088983459E+03 -0.25251802400E+03  0.29975903041E+03  0.00000000000E+00 0. -1.
         -1    1    3    3    0  502 -0.31230773112E+02  0.13018386213E+03 -0.91180029917E+02  0.16197838437E+03  0.00000000000E+00 0.  1.
         11    1    5    5    0    0  0.40185080888E+02  0.98726306675E+02 -0.11611694377E+03  0.15762255227E+03  0.00000000000E+00 0.  1.
        -11    1    5    5    0    0  0.10396135461E+03  0.31492336567E+02 -0.11845368260E+03  0.16072027077E+03  0.00000000000E+00 0. -1.
          4    1    6    6  503    0 -0.29034008804E+02 -0.28062040910E+03 -0.45441628901E+03  0.53486909743E+03  0.00000000000E+00 0. -1.
         -4    1    6    6    0  503 -0.69578332665E+02 -0.14067193087E+03 -0.33028636290E+03  0.36567583736E+03  0.00000000000E+00 0.  1.
<mgrwt>
<rscale>  0 0.47483846E+03</rscale>
<asrwt>0</asrwt>
<pdfrwt beam="1">  1        2 0.23412280E+00 0.47483846E+03</pdfrwt>
<pdfrwt beam="2">  1       -2 0.24434911E-01 0.47483846E+03</pdfrwt>
<totfact> 0.19216861E+02</totfact>
</mgrwt>
</event>
<event>
12    1  0.1444206E-007  0.3470082E+03  0.7818608E-02  0.1063850E+00
         -1   -1    0    0    0  501 -0.00000000000E+00  0.00000000000E+00  0.47575266036E+03  0.47575266036E+03  0.00000000000E+00 0.  1.
          1   -1    0    0  501    0  0.00000000000E+00 -0.00000000000E+00 -0.29155312949E+04  0.29155312949E+04  0.00000000000E+00 0. -1.
         23    2    1    2    0    0 -0.23111772273E+03 -0.13559378505E+03  0.39222990373E+03  0.48395920696E+03  0.92580453189E+02 0.  0.
    5000000    2    1    2    0    0  0.23111772273E+03  0.13559378505E+03 -0.28320085383E+04  0.29073247483E+04  0.60038633811E+03 0.  0.
         23    2    4    4    0    0 -0.44612394321E+02 -0.58466438146E+02 -0.20215734557E+04  0.20249698337E+04  0.91296223355E+02 0.  0.
         23    2    4    4    0    0  0.27573011706E+03  0.19406022319E+03 -0.81043508256E+03  0.88235491462E+03  0.89770288130E+02 0.  0.
          2    1    3    3  502    0 -0.23166495972E+03 -0.12224507041E+03  0.39087996628E+03  0.47053125171E+03  0.00000000000E+00 0. -1.
         -2    1    3    3    0  502  0.54723698479E+00 -0.13348714642E+02  0.13499374511E+01  0.13427955244E+02  0.00000000000E+00 0.  1.
         13    1    5    5    0    0 -0.37140617305E+02 -0.25666175659E+02 -0.33132617566E+03  0.33438781782E+03  0.00000000000E+00 0.  1.
        -13    1    5    5    0    0 -0.74717770154E+01 -0.32800262487E+02 -0.16902472801E+04  0.16905820159E+04  0.00000000000E+00 0. -1.
          4    1    6    6  503    0  0.67724489418E+02  0.26106099302E+02 -0.10229649355E+03  0.12543009001E+03  0.00000000000E+00 0. -1.
         -4    1    6    6    0  503  0.20800562764E+03  0.16795412389E+03 -0.70813858901E+03  0.75692482461E+03  0.00000000000E+00 0.  1.
<mgrwt>
<rscale>  0 0.34700820E+03</rscale>
<asrwt>0</asrwt>
<pdfrwt beam="1">  1        1 0.44854327E+00 0.34700820E+03</pdfrwt>
<pdfrwt beam="2">  1       -1 0.73192718E-01 0.34700820E+03</pdfrwt>
<totfact> 0.15835938E+00</totfact>
</mgrwt>
</event>
<event>
12    1  0.1444206E-007  0.5588482E+03  0.7818608E-02  0.9994664E-01
         -2   -1    0    0    0  501 -0.00000000000E+00  0.00000000000E+00  0.13903476232E+03  0.13903476232E+03  0.00000000000E+00 0. -1.
          2   -1    0    0  501    0  0.00000000000E+00 -0.00000000000E+00 -0.31420009032E+04  0.31420009032E+04  0.00000000000E+00 0.  1.
         23    2    1    2    0    0 -0.15165039590E+03 -0.39992884999E+03 -0.19336115537E+04  0.19823860910E+04  0.89777757475E+02 0.  0.
    5000000    2    1    2    0    0  0.15165039590E+03  0.39992884999E+03 -0.10693545872E+04  0.12986495745E+04  0.60002546326E+03 0.  0.
         23    2    4    4    0    0  0.27999193695E+03  0.29221724704E+02 -0.66638870112E+03  0.72903151457E+03  0.90352942914E+02 0.  0.
         23    2    4    4    0    0 -0.12834154105E+03  0.37070712529E+03 -0.40296588609E+03  0.56961805995E+03  0.90487043100E+02 0.  0.
          1    1    3    3  502    0 -0.96230195667E+02 -0.18699738413E+03 -0.11185600446E+04  0.11381585328E+04  0.00000000000E+00 0. -1.
         -1    1    3    3    0  502 -0.55420200238E+02 -0.21293146586E+03 -0.81505150906E+03  0.84422755828E+03  0.00000000000E+00 0.  1.
         13    1    5    5    0    0  0.97983982598E+02  0.53170874522E+02 -0.27460456419E+03  0.29637083092E+03  0.00000000000E+00 0. -1.
        -13    1    5    5    0    0  0.18200795436E+03 -0.23949149817E+02 -0.39178413693E+03  0.43266068365E+03  0.00000000000E+00 0.  1.
          3    1    6    6  503    0 -0.84497855723E+02  0.24865326729E+03 -0.20592248294E+03  0.33372504242E+03  0.00000000000E+00 0.  1.
         -3    1    6    6    0  503 -0.43843685327E+02  0.12205385800E+03 -0.19704340315E+03  0.23589301753E+03  0.00000000000E+00 0. -1.
<mgrwt>
<rscale>  0 0.55884818E+03</rscale>
<asrwt>0</asrwt>
<pdfrwt beam="1">  1        2 0.48338475E+00 0.55884818E+03</pdfrwt>
<pdfrwt beam="2">  1       -2 0.21389963E-01 0.55884818E+03</pdfrwt>
<totfact> 0.29508139E+01</totfact>
</mgrwt>
</event>
<event>
12    1  0.1444206E-007  0.1200980E+04  0.7818608E-02  0.9111999E-01
         -1   -1    0    0    0  501 -0.00000000000E+00  0.00000000000E+00  0.18473429888E+04  0.18473429888E+04  0.00000000000E+00 0.  1.
          1   -1    0    0  501    0  0.00000000000E+00 -0.00000000000E+00 -0.10556261124E+04  0.10556261124E+04  0.00000000000E+00 0. -1.
         23    2    1    2    0    0 -0.87088198332E+02  0.11316255662E+04  0.10998381677E+04  0.15827823605E+04  0.85995518269E+02 0.  0.
    5000000    2    1    2    0    0  0.87088198332E+02 -0.11316255662E+04 -0.30812129137E+03  0.13201867407E+04  0.59982791192E+03 0.  0.
         23    2    4    4    0    0  0.28932121492E+03 -0.34948427503E+03 -0.41477514106E+02  0.46455773376E+03  0.90815637011E+02 0.  0.
         23    2    4    4    0    0 -0.20223301658E+03 -0.78214129115E+03 -0.26664377727E+03  0.85562900698E+03  0.91427027286E+02 0.  0.
          2    1    3    3  502    0 -0.31305459095E+02  0.10388494281E+03  0.91852845967E+02  0.14215856789E+03  0.00000000000E+00 0. -1.
         -2    1    3    3    0  502 -0.55782739237E+02  0.10277406234E+04  0.10079853217E+04  0.14406237926E+04  0.00000000000E+00 0.  1.
         13    1    5    5    0    0  0.11448750571E+03 -0.12683376974E+03 -0.59417816522E+02  0.18089961589E+03  0.00000000000E+00 0.  1.
        -13    1    5    5    0    0  0.17483370921E+03 -0.22265050529E+03  0.17940302416E+02  0.28365811787E+03  0.00000000000E+00 0. -1.
          3    1    6    6  503    0 -0.11568463885E+03 -0.32460007868E+03 -0.14840979041E+03  0.37519809786E+03  0.00000000000E+00 0. -1.
         -3    1    6    6    0  503 -0.86548377733E+02 -0.45754121247E+03 -0.11823398685E+03  0.48043090913E+03  0.00000000000E+00 0.  1.
<mgrwt>
<rscale>  0 0.12009798E+04</rscale>
<asrwt>0</asrwt>
<pdfrwt beam="1">  1        1 0.16240402E+00 0.12009798E+04</pdfrwt>
<pdfrwt beam="2">  1       -1 0.28420661E+00 0.12009798E+04</pdfrwt>
<totfact> 0.56346892E-01</totfact>
</mgrwt>
</event>
<event>
12    1  0.1444206E-007  0.7593867E+03  0.7818608E-02  0.9620738E-01
          2   -1    0    0  501    0  0.00000000000E+00  0.00000000000E+00  0.16094766290E+04  0.16094766290E+04  0.00000000000E+00 0. -1.
         -2   -1    0    0    0  501 -0.00000000000E+00 -0.00000000000E+00 -0.39332699893E+03  0.39332699893E+03  0.00000000000E+00 0.  1.
         23    2    1    2    0    0 -0.49521597040E+03 -0.42725867203E+03  0.29327716908E+03  0.72243229609E+03  0.90044957455E+02 0.  0.
    5000000    2    1    2    0    0  0.49521597040E+03  0.42725867203E+03  0.92287246104E+03  0.12803713319E+04  0.59989027167E+03 0.  0.
         23    2    4    4    0    0 -0.14543185141E+02 -0.95848099026E+02  0.57497216687E+02  0.14432300259E+03  0.90137876770E+02 0.  0.
         23    2    4    4    0    0  0.50975915554E+03  0.52310677106E+03  0.86537524435E+03  0.11360483293E+04  0.90754627494E+02 0.  0.
          3    1    3    3  502    0 -0.42209242678E+03 -0.40187602333E+03  0.26030149483E+03  0.63829712758E+03  0.00000000000E+00 0.  1.
         -3    1    3    3    0  502 -0.73123543620E+02 -0.25382648697E+02  0.32975674253E+02  0.84135168502E+02  0.00000000000E+00 0. -1.
         13    1    5    5    0    0  0.24179703712E+02 -0.74488235158E+02  0.61979610015E+02  0.99873055957E+02  0.00000000000E+00 0. -1.
        -13    1    5    5    0    0 -0.38722888853E+02 -0.21359863868E+02 -0.44823933284E+01  0.44449946632E+02  0.00000000000E+00 0.  1.
          3    1    6    6  503    0  0.40816004969E+03  0.36203823582E+03  0.64235890366E+03  0.84278779742E+03  0.00000000000E+00 0. -1.
         -3    1    6    6    0  503  0.10159910584E+03  0.16106853523E+03  0.22301634069E+03  0.29326053189E+03  0.00000000000E+00 0.  1.
<mgrwt>
<rscale>  0 0.75938674E+03</rscale>
<asrwt>0</asrwt>
<pdfrwt beam="1">  1        2 0.24761179E+00 0.75938674E+03</pdfrwt>
<pdfrwt beam="2">  1       -2 0.60511847E-01 0.75938674E+03</pdfrwt>
<totfact> 0.28699195E+01</totfact>
</mgrwt>
</event>
<event>
12    1  0.1444206E-007  0.9421309E+03  0.7818608E-02  0.9374396E-01
          1   -1    0    0  501    0  0.00000000000E+00  0.00000000000E+00  0.24179714999E+04  0.24179714999E+04  0.00000000000E+00 0. -1.
         -1   -1    0    0    0  501 -0.00000000000E+00 -0.00000000000E+00 -0.38000071361E+03  0.38000071361E+03  0.00000000000E+00 0.  1.
         23    2    1    2    0    0  0.83545254977E+03 -0.18926247747E+03  0.80391242774E+03  0.11803353362E+04  0.11452102893E+03 0.  0.
    5000000    2    1    2    0    0 -0.83545254977E+03  0.18926247747E+03  0.12340583586E+04  0.16176368774E+04  0.60003982063E+03 0.  0.
         23    2    4    4    0    0 -0.48101631951E+03  0.37426538266E+03  0.89024409744E+03  0.10827618193E+04  0.91582356580E+02 0.  0.
         23    2    4    4    0    0 -0.35443623025E+03 -0.18500290519E+03  0.34381426115E+03  0.53487505806E+03  0.89621232520E+02 0.  0.
          2    1    3    3  502    0  0.28378251971E+03 -0.11330050865E+03  0.32177845591E+03  0.44374643485E+03  0.00000000000E+00 0. -1.
         -2    1    3    3    0  502  0.55167003005E+03 -0.75961968815E+02  0.48213397183E+03  0.73658890133E+03  0.00000000000E+00 0.  1.
         11    1    5    5    0    0 -0.43022973671E+03  0.30571453784E+03  0.72461783461E+03  0.89645413226E+03  0.00000000000E+00 0.  1.
        -11    1    5    5    0    0 -0.50786582799E+02  0.68550844817E+02  0.16562626283E+03  0.18630768706E+03  0.00000000000E+00 0. -1.
          4    1    6    6  503    0 -0.15860794337E+03 -0.13065170085E+03  0.19165634301E+03  0.28099555237E+03  0.00000000000E+00 0. -1.
         -4    1    6    6    0  503 -0.19582828688E+03 -0.54351204342E+02  0.15215791814E+03  0.25387950569E+03  0.00000000000E+00 0.  1.
<mgrwt>
<rscale>  0 0.94213092E+03</rscale>
<asrwt>0</asrwt>
<pdfrwt beam="1">  1        1 0.37199561E+00 0.94213092E+03</pdfrwt>
<pdfrwt beam="2">  1       -1 0.58461650E-01 0.94213092E+03</pdfrwt>
<totfact> 0.46946880E+00</totfact>
</mgrwt>
</event>
<event>
12    1  0.1444206E-007  0.6370693E+03  0.7818608E-02  0.9831350E-01
         -2   -1    0    0    0  501 -0.00000000000E+00  0.00000000000E+00  0.30250854508E+03  0.30250854508E+03  0.00000000000E+00 0.  1.
          2   -1    0    0  501    0  0.00000000000E+00 -0.00000000000E+00 -0.13807877580E+04  0.13807877580E+04  0.00000000000E+00 0. -1.
         23    2    1    2    0    0  0.49572558001E+03  0.77746257327E+02 -0.44590221137E+03  0.67752896270E+03  0.91806219718E+02 0.  0.
    5000000    2    1    2    0    0 -0.49572558001E+03 -0.77746257327E+02 -0.63237700156E+03  0.10057673404E+04  0.59989910794E+03 0.  0.
         23    2    4    4    0    0 -0.61423580975E+03 -0.46814094627E+02 -0.53987634832E+03  0.82370272186E+03  0.86847642946E+02 0.  0.
         23    2    4    4    0    0  0.11851022974E+03 -0.30932162700E+02 -0.92500653242E+02  0.18206461855E+03  0.97926917823E+02 0.  0.
          4    1    3    3  502    0  0.36040896905E+03  0.42132413957E+02 -0.37044508665E+03  0.51855503806E+03  0.00000000000E+00 0. -1.
         -4    1    3    3    0  502  0.13531661097E+03  0.35613843370E+02 -0.75457124724E+02  0.15897392464E+03  0.00000000000E+00 0.  1.
         11    1    5    5    0    0 -0.11215136072E+03  0.24644320681E+02 -0.93017195601E+02  0.14777506194E+03  0.00000000000E+00 0. -1.
        -11    1    5    5    0    0 -0.50208444903E+03 -0.71458415308E+02 -0.44685915272E+03  0.67592765992E+03  0.00000000000E+00 0.  1.
          1    1    6    6  503    0  0.11784248422E+03  0.59616436777E+00 -0.93625845300E+02  0.15050915390E+03  0.00000000000E+00 0. -1.
         -1    1    6    6    0  503  0.66774551436E+00 -0.31528327068E+02  0.11251920578E+01  0.31555464645E+02  0.00000000000E+00 0.  1.
<mgrwt>
<rscale>  0 0.63706930E+03</rscale>
<asrwt>0</asrwt>
<pdfrwt beam="1">  1        2 0.21242889E+00 0.63706930E+03</pdfrwt>
<pdfrwt beam="2">  1       -2 0.46539776E-01 0.63706930E+03</pdfrwt>
<totfact> 0.66973734E+01</totfact>
</mgrwt>
</event>
<event>
12    1  0.1444206E-007  0.1053417E+04  0.7818608E-02  0.9251823E-01
          2   -1    0    0  501    0  0.00000000000E+00  0.00000000000E+00  0.33172813881E+04  0.33172813881E+04  0.00000000000E+00 0. -1.
         -2   -1    0    0    0  501 -0.00000000000E+00 -0.00000000000E+00 -0.66043487292E+03  0.66043487292E+03  0.00000000000E+00 0.  1.
         23    2    1    2    0    0  0.59319340393E+03  0.84481892903E+03 -0.30910249314E+02  0.10367126419E+04  0.90665435006E+02 0.  0.
    5000000    2    1    2    0    0 -0.59319340393E+03 -0.84481892903E+03  0.26877567645E+04  0.29410036191E+04  0.59989034424E+03 0.  0.
         23    2    4    4    0    0 -0.29584328967E+03 -0.21786874284E+03  0.16242177780E+04  0.16679704340E+04  0.95141668235E+02 0.  0.
         23    2    4    4    0    0 -0.29735011426E+03 -0.62695018619E+03  0.10635389864E+04  0.12730331851E+04  0.89524791088E+02 0.  0.
          2    1    3    3  502    0  0.21555122488E+03  0.37734728846E+03  0.61880108829E+01  0.43461661051E+03  0.00000000000E+00 0. -1.
         -2    1    3    3    0  502  0.37764217905E+03  0.46747164057E+03 -0.37098260197E+02  0.60209603141E+03  0.00000000000E+00 0.  1.
         13    1    5    5    0    0 -0.65910047225E+02 -0.95285602041E+02  0.60333984177E+03  0.61436344695E+03  0.00000000000E+00 0. -1.
        -13    1    5    5    0    0 -0.22993324244E+03 -0.12258314080E+03  0.10208779363E+04  0.10536069871E+04  0.00000000000E+00 0.  1.
          2    1    6    6  503    0 -0.28962997908E+03 -0.59152680329E+03  0.96773169156E+03  0.11705956222E+04  0.00000000000E+00 0.  1.
         -2    1    6    6    0  503 -0.77201351797E+01 -0.35423382903E+02  0.95807294849E+02  0.10243756288E+03  0.00000000000E+00 0. -1.
<mgrwt>
<rscale>  0 0.10534173E+04</rscale>
<asrwt>0</asrwt>
<pdfrwt beam="1">  1        2 0.51035097E+00 0.10534173E+04</pdfrwt>
<pdfrwt beam="2">  1       -2 0.10160537E+00 0.10534173E+04</pdfrwt>
<totfact> 0.87862507E-01</totfact>
</mgrwt>
</event>
<event>
12    1  0.1444206E-007  0.4826221E+03  0.7818608E-02  0.1018417E+00
         -2   -1    0    0    0  501 -0.00000000000E+00  0.00000000000E+00  0.34673038097E+03  0.34673038097E+03  0.00000000000E+00 0.  1.
          2   -1    0    0  501    0  0.00000000000E+00 -0.00000000000E+00 -0.75329984231E+03  0.75329984231E+03  0.00000000000E+00 0. -1.
         23    2    1    2    0    0  0.12627432473E+03  0.27668541118E+03 -0.26192709373E+03  0.41198639223E+03  0.92881446506E+02 0.  0.
    5000000    2    1    2    0    0 -0.12627432473E+03 -0.27668541118E+03 -0.14464236761E+03  0.68804383106E+03  0.59998573075E+03 0.  0.
         23    2    4    4    0    0 -0.30793528434E+03 -0.55053600871E+01 -0.13726245365E+03  0.34953719843E+03  0.92091387072E+02 0.  0.
         23    2    4    4    0    0  0.18166095960E+03 -0.27118005109E+03 -0.73799139600E+01  0.33850663263E+03  0.89403315659E+02 0.  0.
          4    1    3    3  502    0  0.66905103755E+02  0.55390157228E+02 -0.93510354675E+02  0.12762659933E+03  0.00000000000E+00 0. -1.
         -4    1    3    3    0  502  0.59369220978E+02  0.22129525395E+03 -0.16841673906E+03  0.28435979289E+03  0.00000000000E+00 0.  1.
         11    1    5    5    0    0 -0.19001494828E+03 -0.46002721307E+02 -0.68534744032E+02  0.20716887333E+03  0.00000000000E+00 0.  1.
        -11    1    5    5    0    0 -0.11792033606E+03  0.40497361220E+02 -0.68727709615E+02  0.14236832510E+03  0.00000000000E+00 0. -1.
          2    1    6    6  503    0  0.47556700061E+02 -0.10699665094E+03  0.35232617208E+02  0.12227534644E+03  0.00000000000E+00 0. -1.
         -2    1    6    6    0  503  0.13410425954E+03 -0.16418340015E+03 -0.42612531168E+02  0.21623128618E+03  0.00000000000E+00 0.  1.
<mgrwt>
<rscale>  0 0.48262206E+03</rscale>
<asrwt>0</asrwt>
<pdfrwt beam="1">  1        2 0.11589228E+00 0.48262206E+03</pdfrwt>
<pdfrwt beam="2">  1       -2 0.53343136E-01 0.48262206E+03</pdfrwt>
<totfact> 0.12738590E+02</totfact>
</mgrwt>
</event>
<event>
12    1  0.1444206E-007  0.9840956E+03  0.7818608E-02  0.9326163E-01
          1   -1    0    0  501    0  0.00000000000E+00  0.00000000000E+00  0.35751199872E+04  0.35751199872E+04  0.00000000000E+00 0. -1.
         -1   -1    0    0    0  501 -0.00000000000E+00 -0.00000000000E+00 -0.30984245374E+03  0.30984245374E+03  0.00000000000E+00 0.  1.
         23    2    1    2    0    0 -0.88851993728E+03 -0.18074961105E+03  0.21106088564E+04  0.22989242928E+04  0.90802304523E+02 0.  0.
    5000000    2    1    2    0    0  0.88851993728E+03  0.18074961105E+03  0.11546686771E+04  0.15860381481E+04  0.60009928571E+03 0.  0.
         23    2    4    4    0    0  0.44011198263E+03  0.36229453462E+03  0.76866808774E+03  0.96074471730E+03  0.84993503568E+02 0.  0.
         23    2    4    4    0    0  0.44840795466E+03 -0.18154492357E+03  0.38600058934E+03  0.62529343084E+03  0.89258986172E+02 0.  0.
          3    1    3    3  502    0 -0.82025311190E+03 -0.14427966976E+03  0.19594630581E+04  0.21291141977E+04  0.00000000000E+00 0. -1.
         -3    1    3    3    0  502 -0.68266825384E+02 -0.36469941283E+02  0.15114579832E+03  0.16981009515E+03  0.00000000000E+00 0.  1.
         11    1    5    5    0    0  0.26024362274E+03  0.25592685009E+03  0.44593536332E+03  0.57626699023E+03  0.00000000000E+00 0.  1.
        -11    1    5    5    0    0  0.17986835988E+03  0.10636768453E+03  0.32273272442E+03  0.38447772707E+03  0.00000000000E+00 0. -1.
          4    1    6    6  503    0  0.28354097067E+03 -0.12230811589E+03  0.29844471698E+03  0.42944616235E+03  0.00000000000E+00 0. -1.
         -4    1    6    6    0  503  0.16486698399E+03 -0.59236807687E+02  0.87555872357E+02  0.19584726850E+03  0.00000000000E+00 0.  1.
<mgrwt>
<rscale>  0 0.98409561E+03</rscale>
<asrwt>0</asrwt>
<pdfrwt beam="1">  1        1 0.55001843E+00 0.98409561E+03</pdfrwt>
<pdfrwt beam="2">  1       -1 0.47668072E-01 0.98409561E+03</pdfrwt>
<totfact> 0.99947227E-01</totfact>
</mgrwt>
</event>
<event>
12    1  0.1444206E-007  0.5842802E+03  0.7818608E-02  0.9938567E-01
         -1   -1    0    0    0  501 -0.00000000000E+00  0.00000000000E+00  0.27967522210E+04  0.27967522210E+04  0.00000000000E+00 0.  1.
          1   -1    0    0  501    0  0.00000000000E+00 -0.00000000000E+00 -0.49871438694E+03  0.49871438694E+03  0.00000000000E+00 0. -1.
         23    2    1    2    0    0 -0.33391514588E+03 -0.36117337021E+03  0.24538095956E+04  0.25042460921E+04  0.90118980475E+02 0.  0.
    5000000    2    1    2    0    0  0.33391514588E+03  0.36117337021E+03 -0.15577176150E+03  0.79122051582E+03  0.59984959364E+03 0.  0.
         23    2    4    4    0    0  0.35026542469E+03  0.45507226742E+03  0.73598733058E+01  0.58172922544E+03  0.92617966313E+02 0.  0.
         23    2    4    4    0    0 -0.16350278816E+02 -0.93898897213E+02 -0.16313163480E+03  0.20949129038E+03  0.90500474911E+02 0.  0.
          3    1    3    3  502    0 -0.16963769937E+03 -0.24298924294E+03  0.13665724925E+04  0.13983351167E+04  0.00000000000E+00 0. -1.
         -3    1    3    3    0  502 -0.16427744651E+03 -0.11818412727E+03  0.10872371030E+04  0.11059109754E+04  0.00000000000E+00 0.  1.
         13    1    5    5    0    0  0.27695117820E+02  0.28819468153E+02  0.24543377211E+02  0.46903716917E+02  0.00000000000E+00 0. -1.
        -13    1    5    5    0    0  0.32257030687E+03  0.42625279926E+03 -0.17183503905E+02  0.53482550852E+03  0.00000000000E+00 0.  1.
          1    1    6    6  503    0 -0.11374596837E+02 -0.69143076569E+02 -0.16953123360E+03  0.18344204986E+03  0.00000000000E+00 0. -1.
         -1    1    6    6    0  503 -0.49756819791E+01 -0.24755820644E+02  0.63995988033E+01  0.26049240522E+02  0.00000000000E+00 0.  1.
<mgrwt>
<rscale>  0 0.58428022E+03</rscale>
<asrwt>0</asrwt>
<pdfrwt beam="1">  1        1 0.76725292E-01 0.58428022E+03</pdfrwt>
<pdfrwt beam="2">  1       -1 0.43026956E+00 0.58428022E+03</pdfrwt>
<totfact> 0.22101426E-01</totfact>
</mgrwt>
</event>
<event>
12    1  0.1444206E-007  0.4239307E+03  0.7818608E-02  0.1035795E+00
          1   -1    0    0  501    0  0.00000000000E+00  0.00000000000E+00  0.31620714705E+03  0.31620714705E+03  0.00000000000E+00 0. -1.
         -1   -1    0    0    0  501 -0.00000000000E+00 -0.00000000000E+00 -0.71702215543E+03  0.71702215543E+03  0.00000000000E+00 0.  1.
         23    2    1    2    0    0  0.92771839491E+02 -0.19509946591E+03 -0.30978261551E+03  0.38888532445E+03  0.92715213939E+02 0.  0.
    5000000    2    1    2    0    0 -0.92771839491E+02  0.19509946591E+03 -0.91032392861E+02  0.64434397803E+03  0.60018484626E+03 0.  0.
         23    2    4    4    0    0 -0.32020351194E+03  0.19890448671E+02 -0.85176391245E+02  0.34357154061E+03  0.88659274122E+02 0.  0.
         23    2    4    4    0    0  0.22743167245E+03  0.17520901724E+03 -0.58560016155E+01  0.30077243742E+03  0.89478494627E+02 0.  0.
          3    1    3    3  502    0  0.87769845630E+02 -0.16194730754E+03 -0.30312329883E+03  0.35470298915E+03  0.00000000000E+00 0.  1.
         -3    1    3    3    0  502  0.50019938613E+01 -0.33152158378E+02 -0.66593166833E+01  0.34182335297E+02  0.00000000000E+00 0. -1.
         11    1    5    5    0    0 -0.12215905866E+03 -0.29060410206E+02 -0.92945278552E+01  0.12591160114E+03  0.00000000000E+00 0.  1.
        -11    1    5    5    0    0 -0.19804445328E+03  0.48950858878E+02 -0.75881863390E+02  0.21765993947E+03  0.00000000000E+00 0. -1.
          4    1    6    6  503    0  0.12326894602E+03  0.39416404428E+02 -0.73209963403E+01  0.12962439191E+03  0.00000000000E+00 0. -1.
         -4    1    6    6    0  503  0.10416272643E+03  0.13579261282E+03  0.14649947248E+01  0.17114804551E+03  0.00000000000E+00 0.  1.
<mgrwt>
<rscale>  0 0.42393070E+03</rscale>
<asrwt>0</asrwt>
<pdfrwt beam="1">  1        1 0.48647255E-01 0.42393070E+03</pdfrwt>
<pdfrwt beam="2">  1       -1 0.11031110E+00 0.42393070E+03</pdfrwt>
<totfact> 0.65207387E+01</totfact>
</mgrwt>
</event>
<event>
12    1  0.1444206E-007  0.3959017E+03  0.7818608E-02  0.1045208E+00
         -2   -1    0    0    0  501 -0.00000000000E+00  0.00000000000E+00  0.44507517499E+03  0.44507517499E+03  0.00000000000E+00 0.  1.
          2   -1    0    0  501    0  0.00000000000E+00 -0.00000000000E+00 -0.94894750827E+03  0.94894750827E+03  0.00000000000E+00 0. -1.
         23    2    1    2    0    0 -0.71901256305E+02 -0.28258828838E+03  0.24476013952E+03  0.39122375166E+03  0.90125282686E+02 0.  0.
    5000000    2    1    2    0    0  0.71901256305E+02  0.28258828838E+03 -0.74863247281E+03  0.10027989316E+04  0.60010764575E+03 0.  0.
         23    2    4    4    0    0 -0.15743754847E+03  0.15327678142E+03 -0.67395399559E+03  0.71466216521E+03  0.90816677022E+02 0.  0.
         23    2    4    4    0    0  0.22933880478E+03  0.12931150697E+03 -0.74678477214E+02  0.28813676638E+03  0.90156352921E+02 0.  0.
          3    1    3    3  502    0 -0.89390114112E+02 -0.18657659094E+03  0.17868886721E+03  0.27336994724E+03  0.00000000000E+00 0. -1.
         -3    1    3    3    0  502  0.17488857807E+02 -0.96011697445E+02  0.66071272310E+02  0.11785380443E+03  0.00000000000E+00 0.  1.
         13    1    5    5    0    0 -0.11291748425E+03  0.10010790079E+03 -0.31764875308E+03  0.35167126750E+03  0.00000000000E+00 0.  1.
        -13    1    5    5    0    0 -0.44520064225E+02  0.53168880630E+02 -0.35630524251E+03  0.36299089771E+03  0.00000000000E+00 0. -1.
          2    1    6    6  503    0  0.13177585893E+03  0.48589633328E+02 -0.79555419416E+02  0.16141528497E+03  0.00000000000E+00 0. -1.
         -2    1    6    6    0  503  0.97562945845E+02  0.80721873638E+02  0.48769422016E+01  0.12672148141E+03  0.00000000000E+00 0.  1.
<mgrwt>
<rscale>  0 0.39590166E+03</rscale>
<asrwt>0</asrwt>
<pdfrwt beam="1">  1        2 0.14599193E+00 0.39590166E+03</pdfrwt>
<pdfrwt beam="2">  1       -2 0.68473103E-01 0.39590166E+03</pdfrwt>
<totfact> 0.56019823E+01</totfact>
</mgrwt>
</event>
<event>
12    1  0.1444206E-007  0.1190359E+04  0.7818608E-02  0.9121337E-01
         -1   -1    0    0    0  501 -0.00000000000E+00  0.00000000000E+00  0.12491176858E+04  0.12491176858E+04  0.00000000000E+00 0.  1.
          1   -1    0    0  501    0  0.00000000000E+00 -0.00000000000E+00 -0.15425200268E+04  0.15425200268E+04  0.00000000000E+00 0. -1.
         23    2    1    2    0    0  0.28058445722E+03  0.10866358113E+04  0.56133746718E+03  0.12581511404E+04  0.91320950504E+02 0.  0.
    5000000    2    1    2    0    0 -0.28058445722E+03 -0.10866358113E+04 -0.85473980809E+03  0.15334865722E+04  0.60124529395E+03 0.  0.
         23    2    4    4    0    0 -0.66111567064E+02 -0.10100135674E+04 -0.60381489886E+03  0.11824467344E+04  0.95339929151E+02 0.  0.
         23    2    4    4    0    0 -0.21447289016E+03 -0.76622243936E+02 -0.25092490923E+03  0.35103983776E+03  0.91630064634E+02 0.  0.
          2    1    3    3  502    0  0.25923538929E+03  0.85731439653E+03  0.44967307348E+03  0.10021960061E+04  0.00000000000E+00 0. -1.
         -2    1    3    3    0  502  0.21349067937E+02  0.22932141479E+03  0.11166439370E+03  0.25595513436E+03  0.00000000000E+00 0.  1.
         13    1    5    5    0    0 -0.14989614406E+02 -0.94599690067E+02 -0.90084534276E+02  0.13148769226E+03  0.00000000000E+00 0. -1.
        -13    1    5    5    0    0 -0.51121952659E+02 -0.91541387731E+03 -0.51373036459E+03  0.10509590422E+04  0.00000000000E+00 0.  1.
          2    1    6    6  503    0 -0.15186444965E+03 -0.92141313285E+02 -0.20815835185E+03  0.27364709413E+03  0.00000000000E+00 0. -1.
         -2    1    6    6    0  503 -0.62608440513E+02  0.15519069349E+02 -0.42766557380E+02  0.77392743633E+02  0.00000000000E+00 0.  1.
<mgrwt>
<rscale>  0 0.11903593E+04</rscale>
<asrwt>0</asrwt>
<pdfrwt beam="1">  1        1 0.23731077E+00 0.11903593E+04</pdfrwt>
<pdfrwt beam="2">  1       -1 0.19217195E+00 0.11903593E+04</pdfrwt>
<totfact> 0.10232531E+00</totfact>
</mgrwt>
</event>
<event>
12    1  0.1444206E-007  0.4518843E+03  0.7818608E-02  0.1027162E+00
         -2   -1    0    0    0  501 -0.00000000000E+00  0.00000000000E+00  0.11827606711E+03  0.11827606711E+03  0.00000000000E+00 0.  1.
          2   -1    0    0  501    0  0.00000000000E+00 -0.00000000000E+00 -0.27779543011E+04  0.27779543011E+04  0.00000000000E+00 0. -1.
         23    2    1    2    0    0  0.25167620566E+03 -0.38400193289E+02 -0.17849367443E+04  0.18053698962E+04  0.92443460708E+02 0.  0.
    5000000    2    1    2    0    0 -0.25167620566E+03  0.38400193289E+02 -0.87474148968E+03  0.10908604721E+04  0.59999034024E+03 0.  0.
         23    2    4    4    0    0  0.10675999851E+03  0.20039214883E+03 -0.39347416111E+03  0.46295028737E+03  0.89142260043E+02 0.  0.
         23    2    4    4    0    0 -0.35843620418E+03 -0.16199195554E+03 -0.48126732857E+03  0.62791018468E+03  0.89078910817E+02 0.  0.
          1    1    3    3  502    0  0.83812009063E+02  0.30186989440E+02 -0.54091397198E+03  0.54820035779E+03  0.00000000000E+00 0. -1.
         -1    1    3    3    0  502  0.16786419660E+03 -0.68587182729E+02 -0.12440227724E+04  0.12571695384E+04  0.00000000000E+00 0.  1.
         11    1    5    5    0    0  0.99082934904E+02  0.10911537575E+03 -0.19570174950E+03  0.24499544480E+03  0.00000000000E+00 0.  1.
        -11    1    5    5    0    0  0.76770636097E+01  0.91276773077E+02 -0.19777241161E+03  0.21795484258E+03  0.00000000000E+00 0. -1.
          3    1    6    6  503    0 -0.27766350592E+03 -0.13821937225E+03 -0.31801741952E+03  0.44422595208E+03  0.00000000000E+00 0. -1.
         -3    1    6    6    0  503 -0.80772698254E+02 -0.23772583286E+02 -0.16324990905E+03  0.18368423260E+03  0.00000000000E+00 0.  1.
<mgrwt>
<rscale>  0 0.45188435E+03</rscale>
<asrwt>0</asrwt>
<pdfrwt beam="1">  1        2 0.42737755E+00 0.45188435E+03</pdfrwt>
<pdfrwt beam="2">  1       -2 0.18196319E-01 0.45188435E+03</pdfrwt>
<totfact> 0.66195642E+01</totfact>
</mgrwt>
</event>
<event>
12    1  0.1444206E-007  0.5867879E+03  0.7818608E-02  0.9933202E-01
         -2   -1    0    0    0  501 -0.00000000000E+00  0.00000000000E+00  0.22395453033E+03  0.22395453033E+03  0.00000000000E+00 0.  1.
          2   -1    0    0  501    0  0.00000000000E+00 -0.00000000000E+00 -0.15870028651E+04  0.15870028651E+04  0.00000000000E+00 0. -1.
         23    2    1    2    0    0 -0.42884867724E+03  0.93545309271E+02 -0.48781041734E+03  0.66260740845E+03  0.91802296308E+02 0.  0.
    5000000    2    1    2    0    0  0.42884867724E+03 -0.93545309271E+02 -0.87523791743E+03  0.11483499870E+04  0.60000363971E+03 0.  0.
         23    2    4    4    0    0  0.33150666341E+03  0.21520870899E+03 -0.53335064873E+03  0.66872112258E+03  0.80706684838E+02 0.  0.
         23    2    4    4    0    0  0.97342013826E+02 -0.30875401826E+03 -0.34188726870E+03  0.47962886441E+03  0.91391638720E+02 0.  0.
          2    1    3    3  502    0 -0.33302939130E+03  0.11048179391E+03 -0.37265627836E+03  0.51184714912E+03  0.00000000000E+00 0. -1.
         -2    1    3    3    0  502 -0.95819285936E+02 -0.16936484640E+02 -0.11515413898E+03  0.15076025933E+03  0.00000000000E+00 0.  1.
         13    1    5    5    0    0  0.23293222441E+03  0.11146863134E+03 -0.31007049173E+03  0.40351751732E+03  0.00000000000E+00 0. -1.
        -13    1    5    5    0    0  0.98574438999E+02  0.10374007765E+03 -0.22328015700E+03  0.26520360526E+03  0.00000000000E+00 0.  1.
          3    1    6    6  503    0  0.56879915515E+02 -0.15631970647E+03 -0.23947830669E+03  0.29158366689E+03  0.00000000000E+00 0. -1.
         -3    1    6    6    0  503  0.40462098311E+02 -0.15243431179E+03 -0.10240896200E+03  0.18804519752E+03  0.00000000000E+00 0.  1.
<mgrwt>
<rscale>  0 0.58678792E+03</rscale>
<asrwt>0</asrwt>
<pdfrwt beam="1">  1        2 0.24415428E+00 0.58678792E+03</pdfrwt>
<pdfrwt beam="2">  1       -2 0.34454545E-01 0.58678792E+03</pdfrwt>
<totfact> 0.92912079E+01</totfact>
</mgrwt>
</event>
<event>
12    1  0.1444206E-007  0.1297058E+04  0.7818608E-02  0.9031901E-01
         -2   -1    0    0    0  501 -0.00000000000E+00  0.00000000000E+00  0.11424010586E+04  0.11424010586E+04  0.00000000000E+00 0.  1.
          2   -1    0    0  501    0  0.00000000000E+00 -0.00000000000E+00 -0.22805450435E+04  0.22805450435E+04  0.00000000000E+00 0. -1.
         23    2    1    2    0    0 -0.51935237031E+02  0.12540314572E+04 -0.15267115751E+04  0.19786164141E+04  0.93715079843E+02 0.  0.
    5000000    2    1    2    0    0  0.51935237031E+02 -0.12540314572E+04  0.38856759018E+03  0.14443296879E+04  0.59984273851E+03 0.  0.
         23    2    4    4    0    0  0.25650323767E+03 -0.65147946973E+03  0.25928294031E+02  0.70624427401E+03  0.88821662514E+02 0.  0.
         23    2    4    4    0    0 -0.20456800064E+03 -0.60255198744E+03  0.36263929615E+03  0.73808541394E+03  0.91355649513E+02 0.  0.
          1    1    3    3  502    0 -0.65734221299E+02  0.11123705985E+04 -0.13169136281E+04  0.17250944438E+04  0.00000000000E+00 0. -1.
         -1    1    3    3    0  502  0.13798984268E+02  0.14166085871E+03 -0.20979794702E+03  0.25352197032E+03  0.00000000000E+00 0.  1.
         13    1    5    5    0    0  0.10548966016E+03 -0.26791495473E+03  0.54445559976E+02  0.29303721670E+03  0.00000000000E+00 0. -1.
        -13    1    5    5    0    0  0.15101357751E+03 -0.38356451499E+03 -0.28517265945E+02  0.41320705731E+03  0.00000000000E+00 0.  1.
          1    1    6    6  503    0 -0.18991732406E+03 -0.58103465985E+03  0.32497154512E+03  0.69229789185E+03  0.00000000000E+00 0. -1.
         -1    1    6    6    0  503 -0.14650676579E+02 -0.21517327595E+02  0.37667751035E+02  0.45787522089E+02  0.00000000000E+00 0.  1.
<mgrwt>
<rscale>  0 0.12970580E+04</rscale>
<asrwt>0</asrwt>
<pdfrwt beam="1">  1        2 0.35085308E+00 0.12970580E+04</pdfrwt>
<pdfrwt beam="2">  1       -2 0.17575401E+00 0.12970580E+04</pdfrwt>
<totfact> 0.86865868E-01</totfact>
</mgrwt>
</event>
<event>
12    1  0.1444206E-007  0.1060421E+04  0.7818608E-02  0.9244650E-01
          2   -1    0    0  501    0  0.00000000000E+00  0.00000000000E+00  0.14548688510E+04  0.14548688510E+04  0.00000000000E+00 0. -1.
         -2   -1    0    0    0  501 -0.00000000000E+00 -0.00000000000E+00 -0.78583379094E+03  0.78583379094E+03  0.00000000000E+00 0.  1.
         23    2    1    2    0    0  0.86221567283E+03  0.47151164984E+03  0.29272916297E+03  0.10293759421E+04  0.90473006998E+02 0.  0.
    5000000    2    1    2    0    0 -0.86221567283E+03 -0.47151164984E+03  0.37630589712E+03  0.12113266998E+04  0.59997261864E+03 0.  0.
         23    2    4    4    0    0 -0.79601936717E+02 -0.32785599006E+03  0.13798692103E+03  0.37570176394E+03  0.91024208325E+02 0.  0.
         23    2    4    4    0    0 -0.78261373611E+03 -0.14365565978E+03  0.23831897609E+03  0.83562493590E+03  0.91388678670E+02 0.  0.
          2    1    3    3  502    0  0.26491002119E+03  0.14410011619E+03  0.46755458910E+02  0.30516919201E+03  0.00000000000E+00 0. -1.
         -2    1    3    3    0  502  0.59730565164E+03  0.32741153365E+03  0.24597370406E+03  0.72420675013E+03  0.00000000000E+00 0.  1.
         11    1    5    5    0    0 -0.21755097248E+02 -0.20517280450E+03  0.44779518866E+02  0.21112642960E+03  0.00000000000E+00 0. -1.
        -11    1    5    5    0    0 -0.57846839468E+02 -0.12268318556E+03  0.93207402161E+02  0.16457533434E+03  0.00000000000E+00 0.  1.
          4    1    6    6  503    0 -0.22337554884E+03 -0.28453767132E+02  0.10903995644E+03  0.25019185595E+03  0.00000000000E+00 0.  1.
         -4    1    6    6    0  503 -0.55923818728E+03 -0.11520189264E+03  0.12927901965E+03  0.58543307995E+03  0.00000000000E+00 0. -1.
<mgrwt>
<rscale>  0 0.10604212E+04</rscale>
<asrwt>0</asrwt>
<pdfrwt beam="1">  1        2 0.22382598E+00 0.10604212E+04</pdfrwt>
<pdfrwt beam="2">  1       -2 0.12089751E+00 0.10604212E+04</pdfrwt>
<totfact> 0.69307709E+00</totfact>
</mgrwt>
</event>
<event>
12    1  0.1444206E-007  0.1023599E+04  0.7818608E-02  0.9283034E-01
         -2   -1    0    0    0  501 -0.00000000000E+00  0.00000000000E+00  0.71246055529E+03  0.71246055529E+03  0.00000000000E+00 0.  1.
          2   -1    0    0  501    0  0.00000000000E+00 -0.00000000000E+00 -0.34161628466E+04  0.34161628466E+04  0.00000000000E+00 0. -1.
         23    2    1    2    0    0 -0.15285604851E+03  0.98279795286E+03  0.18435685405E+03  0.10157252339E+04  0.91942990654E+02 0.  0.
    5000000    2    1    2    0    0  0.15285604851E+03 -0.98279795286E+03 -0.28880591453E+04  0.31128981679E+04  0.59999382433E+03 0.  0.
         23    2    4    4    0    0  0.15525245152E+03 -0.14393433155E+03 -0.23498844075E+03  0.32887334591E+03  0.90098251152E+02 0.  0.
         23    2    4    4    0    0 -0.23964030104E+01 -0.83886362130E+03 -0.26530707046E+04  0.27840248220E+04  0.91170873686E+02 0.  0.
          4    1    3    3  502    0 -0.88634425039E+02  0.53888507005E+03  0.14741814799E+03  0.56567242321E+03  0.00000000000E+00 0. -1.
         -4    1    3    3    0  502 -0.64221623471E+02  0.44391288280E+03  0.36938706057E+02  0.45005281073E+03  0.00000000000E+00 0.  1.
         11    1    5    5    0    0  0.96913886683E+02 -0.77625657876E+02 -0.19669731881E+03  0.23261100451E+03  0.00000000000E+00 0.  1.
        -11    1    5    5    0    0  0.58338564838E+02 -0.66308673679E+02 -0.38291121944E+02  0.96262341402E+02  0.00000000000E+00 0. -1.
          2    1    6    6  503    0 -0.16039681425E+02 -0.74752252297E+03 -0.22695321431E+04  0.23895236643E+04  0.00000000000E+00 0.  1.
         -2    1    6    6    0  503  0.13643278415E+02 -0.91341098331E+02 -0.38353856146E+03  0.39450115769E+03  0.00000000000E+00 0. -1.
<mgrwt>
<rscale>  0 0.10235986E+04</rscale>
<asrwt>0</asrwt>
<pdfrwt beam="1">  1        2 0.52556350E+00 0.10235986E+04</pdfrwt>
<pdfrwt beam="2">  1       -2 0.10960932E+00 0.10235986E+04</pdfrwt>
<totfact> 0.63185000E-01</totfact>
</mgrwt>
</event>
<event>
12    1  0.1444206E-007  0.7831585E+03  0.7818608E-02  0.9584720E-01
         -2   -1    0    0    0  501 -0.00000000000E+00  0.00000000000E+00  0.43632480756E+03  0.43632480756E+03  0.00000000000E+00 0.  1.
          2   -1    0    0  501    0  0.00000000000E+00 -0.00000000000E+00 -0.16062167447E+04  0.16062167447E+04  0.00000000000E+00 0. -1.
         23    2    1    2    0    0 -0.71234463144E+03  0.10551251132E+03 -0.63459545861E+03  0.96320657966E+03  0.80546601629E+02 0.  0.
    5000000    2    1    2    0    0  0.71234463144E+03 -0.10551251132E+03 -0.53529647851E+03  0.10793349726E+04  0.59987823693E+03 0.  0.
         23    2    4    4    0    0  0.73254450430E+03 -0.13546653680E+03 -0.60361988587E+03  0.96310361142E+03  0.90768751998E+02 0.  0.
         23    2    4    4    0    0 -0.20199872863E+02  0.29954025484E+02  0.68323407358E+02  0.11623136116E+03  0.86812227353E+02 0.  0.
          4    1    3    3  502    0 -0.26098370865E+03  0.64451175518E+02 -0.19773421320E+03  0.33371435281E+03  0.00000000000E+00 0. -1.
         -4    1    3    3    0  502 -0.45136092279E+03  0.41061335798E+02 -0.43686124541E+03  0.62949222685E+03  0.00000000000E+00 0.  1.
         13    1    5    5    0    0  0.21470203387E+03 -0.81664119180E+02 -0.19327951665E+03  0.30020486882E+03  0.00000000000E+00 0. -1.
        -13    1    5    5    0    0  0.51784247043E+03 -0.53802417620E+02 -0.41034036922E+03  0.66289874260E+03  0.00000000000E+00 0.  1.
          3    1    6    6  503    0  0.14811438649E+02  0.50981224327E+02  0.35944568133E+02  0.64112993433E+02  0.00000000000E+00 0. -1.
         -3    1    6    6    0  503 -0.35011311512E+02 -0.21027198843E+02  0.32378839225E+02  0.52118367727E+02  0.00000000000E+00 0.  1.
<mgrwt>
<rscale>  0 0.78315849E+03</rscale>
<asrwt>0</asrwt>
<pdfrwt beam="1">  1        2 0.24711027E+00 0.78315849E+03</pdfrwt>
<pdfrwt beam="2">  1       -2 0.67126893E-01 0.78315849E+03</pdfrwt>
<totfact> 0.23016228E+01</totfact>
</mgrwt>
</event>
<event>
12    1  0.1444206E-007  0.2303409E+04  0.7818608E-02  0.8476578E-01
          2   -1    0    0  501    0  0.00000000000E+00  0.00000000000E+00  0.33965619299E+04  0.33965619299E+04  0.00000000000E+00 0. -1.
         -2   -1    0    0    0  501 -0.00000000000E+00 -0.00000000000E+00 -0.16302075709E+04  0.16302075709E+04  0.00000000000E+00 0.  1.
         23    2    1    2    0    0  0.18000491803E+04 -0.13909334006E+04  0.41675191431E+03  0.23145027566E+04  0.91477188930E+02 0.  0.
    5000000    2    1    2    0    0 -0.18000491803E+04  0.13909334006E+04  0.13496024447E+04  0.27122667441E+04  0.60007612526E+03 0.  0.
         23    2    4    4    0    0 -0.12151783739E+04  0.12057813592E+04  0.83756278511E+03  0.19079867980E+04  0.91296416779E+02 0.  0.
         23    2    4    4    0    0 -0.58487080638E+03  0.18515204142E+03  0.51203965961E+03  0.80427994614E+03  0.91249548787E+02 0.  0.
          2    1    3    3  502    0  0.12816885914E+04 -0.96382314980E+03  0.25697881138E+03  0.16241055442E+04  0.00000000000E+00 0. -1.
         -2    1    3    3    0  502  0.51836058894E+03 -0.42711025078E+03  0.15977310293E+03  0.69039721241E+03  0.00000000000E+00 0.  1.
         11    1    5    5    0    0 -0.65675081620E+03  0.68526011944E+03  0.42113912045E+03  0.10383935789E+04  0.00000000000E+00 0.  1.
        -11    1    5    5    0    0 -0.55842755772E+03  0.52052123971E+03  0.41642366467E+03  0.86959321909E+03  0.00000000000E+00 0. -1.
          4    1    6    6  503    0 -0.30678236911E+03  0.14002796047E+03  0.25323909841E+03  0.42172656150E+03  0.00000000000E+00 0. -1.
         -4    1    6    6    0  503 -0.27808843726E+03  0.45124080953E+02  0.25880056119E+03  0.38255338463E+03  0.00000000000E+00 0.  1.
<mgrwt>
<rscale>  0 0.23034088E+04</rscale>
<asrwt>0</asrwt>
<pdfrwt beam="1">  1        2 0.52254799E+00 0.23034088E+04</pdfrwt>
<pdfrwt beam="2">  1       -2 0.25080117E+00 0.23034088E+04</pdfrwt>
<totfact> 0.52487244E-02</totfact>
</mgrwt>
</event>
<event>
12    1  0.1444206E-007  0.7611600E+03  0.7818608E-02  0.9618003E-01
          1   -1    0    0  501    0  0.00000000000E+00  0.00000000000E+00  0.12637374108E+04  0.12637374108E+04  0.00000000000E+00 0. -1.
         -1   -1    0    0    0  501 -0.00000000000E+00 -0.00000000000E+00 -0.51245626156E+03  0.51245626156E+03  0.00000000000E+00 0.  1.
         23    2    1    2    0    0 -0.64304444198E+03  0.24793834231E+03  0.34831732488E+03  0.77769481874E+03  0.92220910494E+02 0.  0.
    5000000    2    1    2    0    0  0.64304444198E+03 -0.24793834231E+03  0.40296382441E+03  0.99849885366E+03  0.59970037605E+03 0.  0.
         23    2    4    4    0    0  0.33450768038E+03  0.11156583857E+03 -0.82170490430E+01  0.36424966816E+03  0.90928412988E+02 0.  0.
         23    2    4    4    0    0  0.30853676160E+03 -0.35950418088E+03  0.41118087345E+03  0.63424918550E+03  0.93616928452E+02 0.  0.
          4    1    3    3  502    0 -0.31301841345E+03  0.74942525176E+02  0.18059596803E+03  0.36906884575E+03  0.00000000000E+00 0.  1.
         -4    1    3    3    0  502 -0.33002602853E+03  0.17299581713E+03  0.16772135686E+03  0.40862597299E+03  0.00000000000E+00 0. -1.
         13    1    5    5    0    0  0.18447604164E+03  0.72788194099E+02 -0.48451544162E+02  0.20414965901E+03  0.00000000000E+00 0.  1.
        -13    1    5    5    0    0  0.15003163874E+03  0.38777644471E+02  0.40234495119E+02  0.16010000915E+03  0.00000000000E+00 0. -1.
          1    1    6    6  503    0  0.13816696827E+03 -0.14004412323E+03  0.22955359811E+03  0.30231990007E+03  0.00000000000E+00 0. -1.
         -1    1    6    6    0  503  0.17036979333E+03 -0.21946005764E+03  0.18162727534E+03  0.33192928543E+03  0.00000000000E+00 0.  1.
<mgrwt>
<rscale>  0 0.76115996E+03</rscale>
<asrwt>0</asrwt>
<pdfrwt beam="1">  1        1 0.19442114E+00 0.76115996E+03</pdfrwt>
<pdfrwt beam="2">  1       -1 0.78839425E-01 0.76115996E+03</pdfrwt>
<totfact> 0.15943076E+01</totfact>
</mgrwt>
</event>
<event>
12    1  0.1444206E-007  0.4113009E+03  0.7818608E-02  0.1039935E+00
          2   -1    0    0  501    0  0.00000000000E+00  0.00000000000E+00  0.76788403551E+03  0.76788403551E+03  0.00000000000E+00 0. -1.
         -2   -1    0    0    0  501 -0.00000000000E+00 -0.00000000000E+00 -0.24517452865E+03  0.24517452865E+03  0.00000000000E+00 0.  1.
         23    2    1    2    0    0 -0.14764272132E+03  0.15187345823E+03  0.13475732758E+03  0.26771573089E+03  0.92995993212E+02 0.  0.
    5000000    2    1    2    0    0  0.14764272132E+03 -0.15187345823E+03  0.38795217928E+03  0.74534283327E+03  0.60013758858E+03 0.  0.
         23    2    4    4    0    0 -0.18503806561E+03  0.32414555017E+02  0.26026849247E+03  0.33374272398E+03  0.91404204133E+02 0.  0.
         23    2    4    4    0    0  0.33268078693E+03 -0.18428801324E+03  0.12768368680E+03  0.41160010929E+03  0.92048619083E+02 0.  0.
          1    1    3    3  502    0  0.12855180888E+02  0.18241023578E+02  0.10105870617E+02  0.24497331238E+02  0.00000000000E+00 0. -1.
         -1    1    3    3    0  502 -0.16049790221E+03  0.13363243465E+03  0.12465145697E+03  0.24321839965E+03  0.00000000000E+00 0.  1.
         11    1    5    5    0    0 -0.17175963250E+03  0.21091126990E+01  0.23931124909E+03  0.29457714381E+03  0.00000000000E+00 0.  1.
        -11    1    5    5    0    0 -0.13278433111E+02  0.30305442318E+02  0.20957243383E+02  0.39165580172E+02  0.00000000000E+00 0. -1.
          2    1    6    6  503    0  0.15511009640E+02  0.60856384037E+01  0.20600556709E+02  0.26495459075E+02  0.00000000000E+00 0. -1.
         -2    1    6    6    0  503  0.31716977729E+03 -0.19037365165E+03  0.10708313009E+03  0.38510465022E+03  0.00000000000E+00 0.  1.
<mgrwt>
<rscale>  0 0.41130091E+03</rscale>
<asrwt>0</asrwt>
<pdfrwt beam="1">  1        2 0.11813600E+00 0.41130091E+03</pdfrwt>
<pdfrwt beam="2">  1       -2 0.37719158E-01 0.41130091E+03</pdfrwt>
<totfact> 0.24818459E+02</totfact>
</mgrwt>
</event>
<event>
12    1  0.1444206E-007  0.3339497E+03  0.7818608E-02  0.1069402E+00
         -1   -1    0    0    0  501 -0.00000000000E+00  0.00000000000E+00  0.78237805257E+03  0.78237805257E+03  0.00000000000E+00 0.  1.
          1   -1    0    0  501    0  0.00000000000E+00 -0.00000000000E+00 -0.10839463463E+04  0.10839463463E+04  0.00000000000E+00 0. -1.
         23    2    1    2    0    0  0.19768667216E+03 -0.19138952381E+02  0.67137869667E+03  0.70614155497E+03  0.91870677939E+02 0.  0.
    5000000    2    1    2    0    0 -0.19768667216E+03  0.19138952381E+02 -0.97294699044E+03  0.11601828440E+04  0.59996005313E+03 0.  0.
         23    2    4    4    0    0 -0.36480761732E+02  0.19237409111E+03 -0.78678739214E+02  0.23058006653E+03  0.92941842945E+02 0.  0.
         23    2    4    4    0    0 -0.16120591043E+03 -0.17323513873E+03 -0.89426825123E+03  0.92960277742E+03  0.91912239582E+02 0.  0.
          4    1    3    3  502    0  0.36896266532E+02 -0.28525135055E+01  0.28402021806E+03  0.28642094125E+03  0.00000000000E+00 0. -1.
         -4    1    3    3    0  502  0.16079040563E+03 -0.16286438875E+02  0.38735847860E+03  0.41972061372E+03  0.00000000000E+00 0.  1.
         11    1    5    5    0    0 -0.35785893045E+02  0.14155951522E+02 -0.15628096357E+02  0.41536231176E+02  0.00000000000E+00 0.  1.
        -11    1    5    5    0    0 -0.69486868648E+00  0.17821813959E+03 -0.63050642857E+02  0.18904383536E+03  0.00000000000E+00 0. -1.
          1    1    6    6  503    0 -0.64636670603E+02 -0.13316662348E+03 -0.56933372842E+03  0.58826196810E+03  0.00000000000E+00 0. -1.
         -1    1    6    6    0  503 -0.96569239830E+02 -0.40068515250E+02 -0.32493452281E+03  0.34134080932E+03  0.00000000000E+00 0.  1.
<mgrwt>
<rscale>  0 0.33394972E+03</rscale>
<asrwt>0</asrwt>
<pdfrwt beam="1">  1        1 0.16676098E+00 0.33394972E+03</pdfrwt>
<pdfrwt beam="2">  1       -1 0.12036585E+00 0.33394972E+03</pdfrwt>
<totfact> 0.90649565E+00</totfact>
</mgrwt>
</event>
<event>
12    1  0.1444206E-007  0.7659044E+03  0.7818608E-02  0.9610724E-01
          1   -1    0    0  501    0  0.00000000000E+00  0.00000000000E+00  0.29422870732E+04  0.29422870732E+04  0.00000000000E+00 0. -1.
         -1   -1    0    0    0  501 -0.00000000000E+00 -0.00000000000E+00 -0.67774085808E+03  0.67774085808E+03  0.00000000000E+00 0.  1.
         23    2    1    2    0    0  0.28093586308E+03  0.69248908454E+03 -0.35358579973E+03  0.83201351167E+03  0.93581378825E+02 0.  0.
    5000000    2    1    2    0    0 -0.28093586308E+03 -0.69248908454E+03  0.26181320148E+04  0.27880144196E+04  0.59995255258E+03 0.  0.
         23    2    4    4    0    0  0.35124934422E+02 -0.40775021325E+02  0.48183509747E+02  0.11677800249E+03  0.91755587686E+02 0.  0.
         23    2    4    4    0    0 -0.31606079751E+03 -0.65171406321E+03  0.25699485051E+04  0.26712364171E+04  0.79012842756E+02 0.  0.
          4    1    3    3  502    0  0.62885165270E+02  0.21427655475E+03 -0.14666048847E+03  0.26716714769E+03  0.00000000000E+00 0. -1.
         -4    1    3    3    0  502  0.21805069781E+03  0.47821252978E+03 -0.20692531126E+03  0.56484636398E+03  0.00000000000E+00 0.  1.
         11    1    5    5    0    0  0.84299221347E+01 -0.15340976458E+02  0.71194702218E+02  0.73315037815E+02  0.00000000000E+00 0.  1.
        -11    1    5    5    0    0  0.26695012287E+02 -0.25434044867E+02 -0.23011192471E+02  0.43462964674E+02  0.00000000000E+00 0. -1.
          2    1    6    6  503    0 -0.16658088569E+03 -0.25489848904E+03  0.10562647456E+04  0.10992805119E+04  0.00000000000E+00 0. -1.
         -2    1    6    6    0  503 -0.14947991182E+03 -0.39681557417E+03  0.15136837595E+04  0.15719559051E+04  0.00000000000E+00 0.  1.
<mgrwt>
<rscale>  0 0.76590439E+03</rscale>
<asrwt>0</asrwt>
<pdfrwt beam="1">  1        1 0.45265954E+00 0.76590439E+03</pdfrwt>
<pdfrwt beam="2">  1       -1 0.10426783E+00 0.76590439E+03</pdfrwt>
<totfact> 0.61305477E-01</totfact>
</mgrwt>
</event>
<event>
12    1  0.1444206E-007  0.7837604E+03  0.7818608E-02  0.9583825E-01
         -1   -1    0    0    0  501 -0.00000000000E+00  0.00000000000E+00  0.21431140279E+03  0.21431140279E+03  0.00000000000E+00 0.  1.
          1   -1    0    0  501    0  0.00000000000E+00 -0.00000000000E+00 -0.32294275711E+04  0.32294275711E+04  0.00000000000E+00 0. -1.
         23    2    1    2    0    0 -0.49370825853E+03 -0.52455172421E+03 -0.13722923932E+04  0.15522185930E+04  0.85403699664E+02 0.  0.
    5000000    2    1    2    0    0  0.49370825853E+03  0.52455172421E+03 -0.16428237750E+04  0.18915203809E+04  0.60006419623E+03 0.  0.
         23    2    4    4    0    0  0.56761576012E+03  0.49532308854E+03 -0.11049717276E+04  0.13403242010E+04  0.89296314439E+02 0.  0.
         23    2    4    4    0    0 -0.73907501596E+02  0.29228635665E+02 -0.53785204741E+03  0.55119617988E+03  0.90640895194E+02 0.  0.
          2    1    3    3  502    0 -0.28527726853E+03 -0.25392720858E+03 -0.66831640863E+03  0.76974604204E+03  0.00000000000E+00 0. -1.
         -2    1    3    3    0  502 -0.20843099000E+03 -0.27062451563E+03 -0.70397598460E+03  0.78247255092E+03  0.00000000000E+00 0.  1.
         11    1    5    5    0    0  0.13662083987E+03  0.76306202111E+02 -0.20087740334E+03  0.25463625339E+03  0.00000000000E+00 0. -1.
        -11    1    5    5    0    0  0.43099492025E+03  0.41901688643E+03 -0.90409432429E+03  0.10856879476E+04  0.00000000000E+00 0.  1.
          3    1    6    6  503    0 -0.11032659291E+02 -0.77456189257E+01 -0.34097940971E+03  0.34124576485E+03  0.00000000000E+00 0. -1.
         -3    1    6    6    0  503 -0.62874842305E+02  0.36974254591E+02 -0.19687263770E+03  0.20995041504E+03  0.00000000000E+00 0.  1.
<mgrwt>
<rscale>  0 0.78376043E+03</rscale>
<asrwt>0</asrwt>
<pdfrwt beam="1">  1        1 0.49683501E+00 0.78376043E+03</pdfrwt>
<pdfrwt beam="2">  1       -1 0.32970985E-01 0.78376043E+03</pdfrwt>
<totfact> 0.37243370E+00</totfact>
</mgrwt>
</event>
<event>
12    1  0.1444206E-007  0.4627126E+03  0.7818608E-02  0.1023997E+00
          1   -1    0    0  501    0  0.00000000000E+00  0.00000000000E+00  0.48954077989E+03  0.48954077989E+03  0.00000000000E+00 0. -1.
         -1   -1    0    0    0  501 -0.00000000000E+00 -0.00000000000E+00 -0.56358319316E+03  0.56358319316E+03  0.00000000000E+00 0.  1.
         23    2    1    2    0    0 -0.17685905508E+03  0.25549330775E+03  0.12732082017E+03  0.34806683630E+03  0.91564051964E+02 0.  0.
    5000000    2    1    2    0    0  0.17685905508E+03 -0.25549330775E+03 -0.20136323345E+03  0.70505713675E+03  0.60000204885E+03 0.  0.
         23    2    4    4    0    0  0.12542990757E+03 -0.41848466384E+03 -0.24243921686E+03  0.50748871072E+03  0.88915364562E+02 0.  0.
         23    2    4    4    0    0  0.51429147508E+02  0.16299135609E+03  0.41075983413E+02  0.19756842602E+03  0.90193720268E+02 0.  0.
          1    1    3    3  502    0 -0.97058482673E+02  0.10080535673E+03  0.99723413362E+02  0.17183372247E+03  0.00000000000E+00 0. -1.
         -1    1    3    3    0  502 -0.79800572409E+02  0.15468795103E+03  0.27597406809E+02  0.17623311384E+03  0.00000000000E+00 0.  1.
         13    1    5    5    0    0  0.43103245040E+02 -0.90211184495E+02 -0.96402031665E+02  0.13888592171E+03  0.00000000000E+00 0. -1.
        -13    1    5    5    0    0  0.82326662534E+02 -0.32827347935E+03 -0.14603718520E+03  0.36860278901E+03  0.00000000000E+00 0.  1.
          4    1    6    6  503    0  0.72657603883E+01  0.66473965522E+02 -0.26291649016E+02  0.71852836925E+02  0.00000000000E+00 0. -1.
         -4    1    6    6    0  503  0.44163387120E+02  0.96517390567E+02  0.67367632429E+02  0.12571558910E+03  0.00000000000E+00 0.  1.
<mgrwt>
<rscale>  0 0.46271260E+03</rscale>
<asrwt>0</asrwt>
<pdfrwt beam="1">  1        1 0.75313966E-01 0.46271260E+03</pdfrwt>
<pdfrwt beam="2">  1       -1 0.86705107E-01 0.46271260E+03</pdfrwt>
<totfact> 0.62810402E+01</totfact>
</mgrwt>
</event>
<event>
12    1  0.1444206E-007  0.1757318E+04  0.7818608E-02  0.8729332E-01
         -2   -1    0    0    0  501 -0.00000000000E+00  0.00000000000E+00  0.15427303649E+04  0.15427303649E+04  0.00000000000E+00 0. -1.
          2   -1    0    0  501    0  0.00000000000E+00 -0.00000000000E+00 -0.22477046237E+04  0.22477046237E+04  0.00000000000E+00 0.  1.
         23    2    1    2    0    0 -0.23922424604E+03  0.16925653260E+04  0.27032524745E+03  0.17330470681E+04  0.91491956495E+02 0.  0.
    5000000    2    1    2    0    0  0.23922424604E+03 -0.16925653260E+04 -0.97529950631E+03  0.20573879205E+04  0.59969184240E+03 0.  0.
         23    2    4    4    0    0  0.10028569036E+03 -0.31940087283E+02 -0.48288906731E+02  0.14830972220E+03  0.92663727100E+02 0.  0.
         23    2    4    4    0    0  0.13893855568E+03 -0.16606252387E+04 -0.92701059958E+03  0.19090781983E+04  0.90833968701E+02 0.  0.
          3    1    3    3  502    0 -0.17438218696E+03  0.14299902204E+04  0.20832524495E+03  0.14555688184E+04  0.00000000000E+00 0. -1.
         -3    1    3    3    0  502 -0.64842059078E+02  0.26257510559E+03  0.62000002499E+02  0.27747824962E+03  0.00000000000E+00 0.  1.
         13    1    5    5    0    0  0.10663566798E+03 -0.50164405964E+02 -0.29736683601E+02  0.12153972051E+03  0.00000000000E+00 0. -1.
        -13    1    5    5    0    0 -0.63499776237E+01  0.18224318681E+02 -0.18552223130E+02  0.26770001686E+02  0.00000000000E+00 0.  1.
          2    1    6    6  503    0  0.12792120420E+02 -0.18189311137E+03 -0.13489033114E+03  0.22681301493E+03  0.00000000000E+00 0. -1.
         -2    1    6    6    0  503  0.12614643526E+03 -0.14787321273E+04 -0.79212026844E+03  0.16822651834E+04  0.00000000000E+00 0.  1.
<mgrwt>
<rscale>  0 0.17573183E+04</rscale>
<asrwt>0</asrwt>
<pdfrwt beam="1">  1        2 0.34580071E+00 0.17573183E+04</pdfrwt>
<pdfrwt beam="2">  1       -2 0.23734313E+00 0.17573183E+04</pdfrwt>
<totfact> 0.34087036E-01</totfact>
</mgrwt>
</event>
<event>
12    1  0.1444206E-007  0.6553549E+03  0.7818608E-02  0.9796783E-01
          2   -1    0    0  501    0  0.00000000000E+00  0.00000000000E+00  0.67047563522E+03  0.67047563522E+03  0.00000000000E+00 0. -1.
         -2   -1    0    0    0  501 -0.00000000000E+00 -0.00000000000E+00 -0.70977411759E+03  0.70977411759E+03  0.00000000000E+00 0.  1.
         23    2    1    2    0    0  0.53563706439E+03 -0.91796240859E+01 -0.16061194661E+03  0.56682019965E+03  0.92182487982E+02 0.  0.
    5000000    2    1    2    0    0 -0.53563706439E+03  0.91796240859E+01  0.12131346424E+03  0.81342955316E+03  0.59996612496E+03 0.  0.
         23    2    4    4    0    0 -0.37811475083E+03  0.27115555037E+03  0.14165513723E+03  0.49437958413E+03  0.88594006663E+02 0.  0.
         23    2    4    4    0    0 -0.15752231356E+03 -0.26197592628E+03 -0.20341672986E+02  0.31904996903E+03  0.89075439128E+02 0.  0.
          1    1    3    3  502    0  0.53716730832E+02 -0.65821723677E+01 -0.47008623721E+02  0.71684188414E+02  0.00000000000E+00 0. -1.
         -1    1    3    3    0  502  0.48192033356E+03 -0.25974517181E+01 -0.11360332289E+03  0.49513601124E+03  0.00000000000E+00 0.  1.
         13    1    5    5    0    0 -0.64453207775E+02  0.73078291227E+02  0.44013564683E+00  0.97441502249E+02  0.00000000000E+00 0.  1.
        -13    1    5    5    0    0 -0.31366154305E+03  0.19807725914E+03  0.14121500158E+03  0.39693808188E+03  0.00000000000E+00 0. -1.
          1    1    6    6  503    0 -0.12571149395E+03 -0.19350161981E+03  0.23161644325E+02  0.23191101386E+03  0.00000000000E+00 0. -1.
         -1    1    6    6    0  503 -0.31810819611E+02 -0.68474306466E+02 -0.43503317311E+02  0.87138955166E+02  0.00000000000E+00 0.  1.
<mgrwt>
<rscale>  0 0.65535489E+03</rscale>
<asrwt>0</asrwt>
<pdfrwt beam="1">  1        2 0.10315010E+00 0.65535489E+03</pdfrwt>
<pdfrwt beam="2">  1       -2 0.10919602E+00 0.65535489E+03</pdfrwt>
<totfact> 0.29566441E+01</totfact>
</mgrwt>
</event>
<event>
12    1  0.1444206E-007  0.1259695E+04  0.7818608E-02  0.9062153E-01
          2   -1    0    0  501    0  0.00000000000E+00  0.00000000000E+00  0.26230117029E+04  0.26230117029E+04  0.00000000000E+00 0. -1.
         -2   -1    0    0    0  501 -0.00000000000E+00 -0.00000000000E+00 -0.10190395517E+04  0.10190395517E+04  0.00000000000E+00 0.  1.
         23    2    1    2    0    0  0.53759067634E+03 -0.11090271650E+04  0.18740320287E+04  0.22449940398E+04  0.95169354904E+02 0.  0.
    5000000    2    1    2    0    0 -0.53759067634E+03  0.11090271650E+04 -0.27005987742E+03  0.13970572148E+04  0.59990960661E+03 0.  0.
         23    2    4    4    0    0 -0.49333713937E+03  0.64506713589E+03 -0.39219170580E+03  0.90650439259E+03  0.91884366408E+02 0.  0.
         23    2    4    4    0    0 -0.44253536972E+02  0.46396002908E+03  0.12213182838E+03  0.49055282222E+03  0.92242093205E+02 0.  0.
          1    1    3    3  502    0  0.17642403829E+03 -0.26843539127E+03  0.48390131311E+03  0.58081277655E+03  0.00000000000E+00 0. -1.
         -1    1    3    3    0  502  0.36116663805E+03 -0.84059177371E+03  0.13901307156E+04  0.16641812632E+04  0.00000000000E+00 0.  1.
         13    1    5    5    0    0 -0.32380144004E+03  0.44208707204E+03 -0.21762150370E+03  0.58961637588E+03  0.00000000000E+00 0. -1.
        -13    1    5    5    0    0 -0.16953569933E+03  0.20298006385E+03 -0.17457020210E+03  0.31688801670E+03  0.00000000000E+00 0.  1.
          3    1    6    6  503    0  0.16049725384E+02  0.16874835977E+03  0.75869099562E+02  0.18571408907E+03  0.00000000000E+00 0. -1.
         -3    1    6    6    0  503 -0.60303262356E+02  0.29521166931E+03  0.46262728820E+02  0.30483873315E+03  0.00000000000E+00 0.  1.
<mgrwt>
<rscale>  0 0.12596945E+04</rscale>
<asrwt>0</asrwt>
<pdfrwt beam="1">  1        2 0.40354026E+00 0.12596945E+04</pdfrwt>
<pdfrwt beam="2">  1       -2 0.15677532E+00 0.12596945E+04</pdfrwt>
<totfact> 0.76257199E-01</totfact>
</mgrwt>
</event>
<event>
12    1  0.1444206E-007  0.7743784E+03  0.7818608E-02  0.9597862E-01
         -2   -1    0    0    0  501 -0.00000000000E+00  0.00000000000E+00  0.31927966559E+03  0.31927966559E+03  0.00000000000E+00 0.  1.
          2   -1    0    0  501    0  0.00000000000E+00 -0.00000000000E+00 -0.22254460860E+04  0.22254460860E+04  0.00000000000E+00 0. -1.
         23    2    1    2    0    0  0.52940225691E+03 -0.47450856314E+03 -0.11044850208E+04  0.13166867738E+04  0.91388034875E+02 0.  0.
    5000000    2    1    2    0    0 -0.52940225691E+03  0.47450856314E+03 -0.80168139965E+03  0.12280389779E+04  0.59996794790E+03 0.  0.
         23    2    4    4    0    0 -0.73765070918E+02 -0.60899967214E+02  0.29553250371E+02  0.13549323867E+03  0.91295845605E+02 0.  0.
         23    2    4    4    0    0 -0.45563718599E+03  0.53540853035E+03 -0.83123465002E+03  0.10925457392E+04  0.91856459790E+02 0.  0.
          1    1    3    3  502    0  0.35910390161E+03 -0.30557318156E+03 -0.80560524186E+03  0.93345079525E+03  0.00000000000E+00 0. -1.
         -1    1    3    3    0  502  0.17029835530E+03 -0.16893538158E+03 -0.29887977893E+03  0.38323597850E+03  0.00000000000E+00 0.  1.
         11    1    5    5    0    0  0.20437031744E+02 -0.12711292403E+02  0.15801691885E+02  0.28791364807E+02  0.00000000000E+00 0. -1.
        -11    1    5    5    0    0 -0.94202102661E+02 -0.48188674811E+02  0.13751558487E+02  0.10670187387E+03  0.00000000000E+00 0.  1.
          4    1    6    6  503    0 -0.31386050965E+03  0.30966518593E+03 -0.55242184761E+03  0.70680325736E+03  0.00000000000E+00 0. -1.
         -4    1    6    6    0  503 -0.14177667634E+03  0.22574334442E+03 -0.27881280241E+03  0.38574248184E+03  0.00000000000E+00 0.  1.
<mgrwt>
<rscale>  0 0.77437840E+03</rscale>
<asrwt>0</asrwt>
<pdfrwt beam="1">  1        2 0.34237632E+00 0.77437840E+03</pdfrwt>
<pdfrwt beam="2">  1       -2 0.49119949E-01 0.77437840E+03</pdfrwt>
<totfact> 0.20299373E+01</totfact>
</mgrwt>
</event>
<event>
12    1  0.1444206E-007  0.9086121E+03  0.7818608E-02  0.9414880E-01
          1   -1    0    0  501    0  0.00000000000E+00  0.00000000000E+00  0.16699925717E+04  0.16699925717E+04  0.00000000000E+00 0. -1.
         -1   -1    0    0    0  501 -0.00000000000E+00 -0.00000000000E+00 -0.54428345743E+03  0.54428345743E+03  0.00000000000E+00 0.  1.
         23    2    1    2    0    0 -0.75688453878E+03 -0.32332220513E+03  0.23356598726E+03  0.86029527798E+03  0.90241019106E+02 0.  0.
    5000000    2    1    2    0    0  0.75688453878E+03  0.32332220513E+03  0.89214312704E+03  0.13539807512E+04  0.59994421580E+03 0.  0.
         23    2    4    4    0    0  0.20107537438E+03 -0.14907811273E+03  0.13260607531E+03  0.29683151892E+03  0.88707325191E+02 0.  0.
         23    2    4    4    0    0  0.55580916440E+03  0.47240031786E+03  0.75953705173E+03  0.10571492323E+04  0.92639509745E+02 0.  0.
          2    1    3    3  502    0 -0.58779751056E+03 -0.20907515298E+03  0.17221033202E+03  0.64720532404E+03  0.00000000000E+00 0.  1.
         -2    1    3    3    0  502 -0.16908702822E+03 -0.11424705216E+03  0.61355655243E+02  0.21308995394E+03  0.00000000000E+00 0. -1.
         13    1    5    5    0    0  0.17435313115E+03 -0.10633010807E+03  0.13748137121E+03  0.24618333342E+03  0.00000000000E+00 0.  1.
        -13    1    5    5    0    0  0.26722243232E+02 -0.42748004653E+02 -0.48752958963E+01  0.50648185507E+02  0.00000000000E+00 0. -1.
          4    1    6    6  503    0  0.38465989327E+03  0.37751005690E+03  0.57651877829E+03  0.78920908401E+03  0.00000000000E+00 0. -1.
         -4    1    6    6    0  503  0.17114927113E+03  0.94890260957E+02  0.18301827344E+03  0.26794014825E+03  0.00000000000E+00 0.  1.
<mgrwt>
<rscale>  0 0.90861206E+03</rscale>
<asrwt>0</asrwt>
<pdfrwt beam="1">  1        1 0.25692193E+00 0.90861206E+03</pdfrwt>
<pdfrwt beam="2">  1       -1 0.83735917E-01 0.90861206E+03</pdfrwt>
<totfact> 0.71999704E+00</totfact>
</mgrwt>
</event>
<event>
12    1  0.1444206E-007  0.3712670E+03  0.7818608E-02  0.1054210E+00
          2   -1    0    0  501    0  0.00000000000E+00  0.00000000000E+00  0.27462720102E+04  0.27462720102E+04  0.00000000000E+00 0. -1.
         -2   -1    0    0    0  501 -0.00000000000E+00 -0.00000000000E+00 -0.84310759897E+02  0.84310759897E+02  0.00000000000E+00 0.  1.
         23    2    1    2    0    0 -0.23465688392E+03  0.12886229017E+03  0.10980391698E+04  0.11342412063E+04  0.95622970950E+02 0.  0.
    5000000    2    1    2    0    0  0.23465688392E+03 -0.12886229017E+03  0.15639220805E+04  0.16963415638E+04  0.60004423527E+03 0.  0.
         23    2    4    4    0    0  0.21642520905E+03 -0.25576568274E+03  0.14762688744E+04  0.15163534058E+04  0.87760504140E+02 0.  0.
         23    2    4    4    0    0  0.18231674878E+02  0.12690339257E+03  0.87653206025E+02  0.17998815799E+03  0.90971355241E+02 0.  0.
          1    1    3    3  502    0 -0.14024211719E+03  0.70668588882E+02  0.44608000106E+03  0.47291570944E+03  0.00000000000E+00 0. -1.
         -1    1    3    3    0  502 -0.94414766729E+02  0.58193701287E+02  0.65195916874E+03  0.66132549683E+03  0.00000000000E+00 0.  1.
         11    1    5    5    0    0  0.13190394930E+03 -0.14285593076E+03  0.66216344515E+03  0.69012092917E+03  0.00000000000E+00 0.  1.
        -11    1    5    5    0    0  0.84521259743E+02 -0.11290975198E+03  0.81410542928E+03  0.82623247662E+03  0.00000000000E+00 0. -1.
          3    1    6    6  503    0 -0.14545260181E+02  0.83277741479E+02  0.92372798133E+02  0.12521773299E+03  0.00000000000E+00 0. -1.
         -3    1    6    6    0  503  0.32776935059E+02  0.43625651090E+02 -0.47195921080E+01  0.54770424999E+02  0.00000000000E+00 0.  1.
<mgrwt>
<rscale>  0 0.37126700E+03</rscale>
<asrwt>0</asrwt>
<pdfrwt beam="1">  1        2 0.42250332E+00 0.37126700E+03</pdfrwt>
<pdfrwt beam="2">  1       -2 0.12970888E-01 0.37126700E+03</pdfrwt>
<totfact> 0.12417118E+02</totfact>
</mgrwt>
</event>
<event>
12    1  0.1444206E-007  0.7907172E+03  0.7818608E-02  0.9573552E-01
          2   -1    0    0  501    0  0.00000000000E+00  0.00000000000E+00  0.38836450325E+04  0.38836450325E+04  0.00000000000E+00 0.  1.
         -2   -1    0    0    0  501 -0.00000000000E+00 -0.00000000000E+00 -0.21207913468E+03  0.21207913468E+03  0.00000000000E+00 0. -1.
         23    2    1    2    0    0 -0.38060187929E+02  0.76700765477E+03  0.10907812277E+04  0.13370370529E+04  0.90083703370E+02 0.  0.
    5000000    2    1    2    0    0  0.38060187929E+02 -0.76700765477E+03  0.25807846701E+04  0.27586871143E+04  0.60012978673E+03 0.  0.
         23    2    4    4    0    0  0.13704462764E+03 -0.44014386091E+03  0.21528316790E+04  0.22035372732E+04  0.91566520704E+02 0.  0.
         23    2    4    4    0    0 -0.98984439715E+02 -0.32686379386E+03  0.42795299106E+03  0.55514984116E+03  0.91704550218E+02 0.  0.
          1    1    3    3  502    0 -0.53143626787E+02  0.51998095880E+03  0.79409161251E+03  0.95067656521E+03  0.00000000000E+00 0. -1.
         -1    1    3    3    0  502  0.15083438858E+02  0.24702669597E+03  0.29668961524E+03  0.38636048768E+03  0.00000000000E+00 0.  1.
         11    1    5    5    0    0  0.11793475594E+03 -0.38128308708E+03  0.19834313485E+04  0.20231869201E+04  0.00000000000E+00 0.  1.
        -11    1    5    5    0    0  0.19109871701E+02 -0.58860773824E+02  0.16940033051E+03  0.18035035311E+03  0.00000000000E+00 0. -1.
          3    1    6    6  503    0 -0.61619685752E+02 -0.29436846443E+03  0.33771577201E+03  0.45221866524E+03  0.00000000000E+00 0. -1.
         -3    1    6    6    0  503 -0.37364753962E+02 -0.32495329429E+02  0.90237219050E+02  0.10293117591E+03  0.00000000000E+00 0.  1.
<mgrwt>
<rscale>  0 0.79071721E+03</rscale>
<asrwt>0</asrwt>
<pdfrwt beam="1">  1        2 0.59748380E+00 0.79071721E+03</pdfrwt>
<pdfrwt beam="2">  1       -2 0.32627562E-01 0.79071721E+03</pdfrwt>
<totfact> 0.40434519E+00</totfact>
</mgrwt>
</event>
<event>
12    1  0.1444206E-007  0.1219311E+04  0.7818608E-02  0.9096120E-01
         -2   -1    0    0    0  501 -0.00000000000E+00  0.00000000000E+00  0.12734208680E+04  0.12734208680E+04  0.00000000000E+00 0.  1.
          2   -1    0    0  501    0  0.00000000000E+00 -0.00000000000E+00 -0.13550431915E+04  0.13550431915E+04  0.00000000000E+00 0. -1.
         23    2    1    2    0    0  0.11465722075E+04 -0.96922086290E+02 -0.51006096996E+03  0.12620932928E+04  0.93250033760E+02 0.  0.
    5000000    2    1    2    0    0 -0.11465722075E+04  0.96922086290E+02  0.42843864653E+03  0.13663707667E+04  0.59948951659E+03 0.  0.
         23    2    4    4    0    0 -0.20890163563E+03  0.25528319150E+03  0.87521424843E+02  0.35225712484E+03  0.87267869027E+02 0.  0.
         23    2    4    4    0    0 -0.93767057185E+03 -0.15836110521E+03  0.34091722168E+03  0.10141136419E+04  0.88868361181E+02 0.  0.
          4    1    3    3  502    0  0.10498484625E+03  0.17716015979E+02 -0.42575095479E+02  0.11466609752E+03  0.00000000000E+00 0. -1.
         -4    1    3    3    0  502  0.10415873612E+04 -0.11463810227E+03 -0.46748587448E+03  0.11474271953E+04  0.00000000000E+00 0.  1.
         11    1    5    5    0    0 -0.76611459604E+02  0.12716757474E+03  0.23940251769E+00  0.14846199892E+03  0.00000000000E+00 0. -1.
        -11    1    5    5    0    0 -0.13229017603E+03  0.12811561676E+03  0.87282022325E+02  0.20379512593E+03  0.00000000000E+00 0.  1.
          1    1    6    6  503    0 -0.32356365260E+03 -0.72358266246E+02  0.16011719413E+03  0.36819379657E+03  0.00000000000E+00 0. -1.
         -1    1    6    6    0  503 -0.61410691925E+03 -0.86002838963E+02  0.18080002756E+03  0.64591984530E+03  0.00000000000E+00 0.  1.
<mgrwt>
<rscale>  0 0.12193109E+04</rscale>
<asrwt>0</asrwt>
<pdfrwt beam="1">  1        2 0.20846818E+00 0.12193109E+04</pdfrwt>
<pdfrwt beam="2">  1       -2 0.19591090E+00 0.12193109E+04</pdfrwt>
<totfact> 0.21052041E+00</totfact>
</mgrwt>
</event>
<event>
12    1  0.1449580E-007  0.6306033E+03  0.7818608E-02  0.9843872E-01
          1   -1    0    0  501    0  0.00000000000E+00  0.00000000000E+00  0.10877306426E+04  0.10877306426E+04  0.00000000000E+00 0. -1.
         -1   -1    0    0    0  501 -0.00000000000E+00 -0.00000000000E+00 -0.98137586579E+03  0.98137586579E+03  0.00000000000E+00 0.  1.
         23    2    1    2    0    0 -0.22702514452E+03 -0.44966912850E+03 -0.75023387955E+03  0.90822990112E+03  0.91038112257E+02 0.  0.
    5000000    2    1    2    0    0  0.22702514452E+03  0.44966912850E+03  0.85658865639E+03  0.11608766073E+04  0.60012301218E+03 0.  0.
         23    2    4    4    0    0 -0.18701360890E+03  0.14983539137E+03  0.20487355574E+03  0.32741010970E+03  0.88314617550E+02 0.  0.
         23    2    4    4    0    0  0.41403875342E+03  0.29983373713E+03  0.65171510066E+03  0.83346649760E+03  0.92765677649E+02 0.  0.
          4    1    3    3  502    0 -0.14320431378E+03 -0.23123842952E+03 -0.33388520481E+03  0.43064836788E+03  0.00000000000E+00 0. -1.
         -4    1    3    3    0  502 -0.83820830740E+02 -0.21843069899E+03 -0.41634867475E+03  0.47758153324E+03  0.00000000000E+00 0.  1.
         13    1    5    5    0    0 -0.95207867807E+02  0.60107730074E+02  0.42332031645E+02  0.12028914419E+03  0.00000000000E+00 0. -1.
        -13    1    5    5    0    0 -0.91805741089E+02  0.89727661295E+02  0.16254152409E+03  0.20712096551E+03  0.00000000000E+00 0.  1.
          2    1    6    6  503    0  0.16928484756E+03  0.15713614033E+03  0.23449877804E+03  0.32914860339E+03  0.00000000000E+00 0. -1.
         -2    1    6    6    0  503  0.24475390585E+03  0.14269759680E+03  0.41721632262E+03  0.50431789421E+03  0.00000000000E+00 0.  1.
<mgrwt>
<rscale>  0 0.63060326E+03</rscale>
<asrwt>0</asrwt>
<pdfrwt beam="1">  1        1 0.16734318E+00 0.63060326E+03</pdfrwt>
<pdfrwt beam="2">  1       -1 0.15098090E+00 0.63060326E+03</pdfrwt>
<totfact> 0.47050193E+00</totfact>
</mgrwt>
</event>
<event>
12    1  0.1444206E-007  0.4571617E+03  0.7818608E-02  0.1025608E+00
          2   -1    0    0  501    0  0.00000000000E+00  0.00000000000E+00  0.40294164954E+03  0.40294164954E+03  0.00000000000E+00 0. -1.
         -2   -1    0    0    0  501 -0.00000000000E+00 -0.00000000000E+00 -0.70667456272E+03  0.70667456272E+03  0.00000000000E+00 0.  1.
         23    2    1    2    0    0 -0.21970306350E+03  0.23225014295E+03  0.63120334028E+02  0.33708788053E+03  0.86223532890E+02 0.  0.
    5000000    2    1    2    0    0  0.21970306350E+03 -0.23225014295E+03 -0.36685324721E+03  0.77252833173E+03  0.60000762772E+03 0.  0.
         23    2    4    4    0    0  0.14237276161E+03  0.14329086941E+03  0.17967433055E+02  0.22152866414E+03  0.89161897007E+02 0.  0.
         23    2    4    4    0    0  0.77330301883E+02 -0.37554101237E+03 -0.38482068026E+03  0.55099966759E+03  0.92209815973E+02 0.  0.
          4    1    3    3  502    0 -0.89538290693E+02  0.13255518859E+03  0.66155390884E+02  0.17310262640E+03  0.00000000000E+00 0. -1.
         -4    1    3    3    0  502 -0.13016477280E+03  0.99694954359E+02 -0.30350568560E+01  0.16398525413E+03  0.00000000000E+00 0.  1.
         13    1    5    5    0    0  0.76780537285E+02  0.59752811915E+02 -0.34289808498E+02  0.10315735749E+03  0.00000000000E+00 0. -1.
        -13    1    5    5    0    0  0.65592224328E+02  0.83538057499E+02  0.52257241553E+02  0.11837130665E+03  0.00000000000E+00 0.  1.
          2    1    6    6  503    0  0.30028085543E+02 -0.53051289885E+02 -0.10504328645E+03  0.12145047265E+03  0.00000000000E+00 0. -1.
         -2    1    6    6    0  503  0.47302216340E+02 -0.32248972248E+03 -0.27977739382E+03  0.42954919494E+03  0.00000000000E+00 0.  1.
<mgrwt>
<rscale>  0 0.45716169E+03</rscale>
<asrwt>0</asrwt>
<pdfrwt beam="1">  1        2 0.61991023E-01 0.45716169E+03</pdfrwt>
<pdfrwt beam="2">  1       -2 0.10871916E+00 0.45716169E+03</pdfrwt>
<totfact> 0.55117697E+01</totfact>
</mgrwt>
</event>
<event>
12    1  0.1444206E-007  0.5965406E+03  0.7818608E-02  0.9912609E-01
          2   -1    0    0  501    0  0.00000000000E+00  0.00000000000E+00  0.53254153348E+03  0.53254153348E+03  0.00000000000E+00 0. -1.
         -2   -1    0    0    0  501 -0.00000000000E+00 -0.00000000000E+00 -0.85051468110E+03  0.85051468110E+03  0.00000000000E+00 0.  1.
         23    2    1    2    0    0  0.16395148848E+03 -0.48533489774E+03  0.29163770218E+02  0.52104549528E+03  0.90597070127E+02 0.  0.
    5000000    2    1    2    0    0 -0.16395148848E+03  0.48533489774E+03 -0.34713691784E+03  0.86201071930E+03  0.60010697956E+03 0.  0.
         23    2    4    4    0    0 -0.33708577855E+02 -0.74615726374E+02 -0.24138111995E+03  0.27054114006E+03  0.90685657932E+02 0.  0.
         23    2    4    4    0    0 -0.13024291063E+03  0.55995062412E+03 -0.10575579789E+03  0.59146957924E+03  0.90244430056E+02 0.  0.
          2    1    3    3  502    0  0.52791650187E+02 -0.12615943182E+03  0.47077486292E+02  0.14463557751E+03  0.00000000000E+00 0. -1.
         -2    1    3    3    0  502  0.11115983830E+03 -0.35917546593E+03 -0.17913716073E+02  0.37640991777E+03  0.00000000000E+00 0.  1.
         11    1    5    5    0    0  0.46790528611E+01 -0.59941704274E+02 -0.61429064770E+02  0.85955985512E+02  0.00000000000E+00 0. -1.
        -11    1    5    5    0    0 -0.38387630716E+02 -0.14674022100E+02 -0.17995205518E+03  0.18458515455E+03  0.00000000000E+00 0.  1.
          1    1    6    6  503    0 -0.12088710404E+03  0.37655910315E+03 -0.99120808313E+02  0.40771973797E+03  0.00000000000E+00 0.  1.
         -1    1    6    6    0  503 -0.93558065916E+01  0.18339152097E+03 -0.66349895774E+01  0.18374984127E+03  0.00000000000E+00 0. -1.
<mgrwt>
<rscale>  0 0.59654063E+03</rscale>
<asrwt>0</asrwt>
<pdfrwt beam="1">  1        2 0.81929468E-01 0.59654063E+03</pdfrwt>
<pdfrwt beam="2">  1       -2 0.13084841E+00 0.59654063E+03</pdfrwt>
<totfact> 0.25100085E+01</totfact>
</mgrwt>
</event>
<event>
12    1  0.1444206E-007  0.2552250E+03  0.7818608E-02  0.1110047E+00
          1   -1    0    0  501    0  0.00000000000E+00  0.00000000000E+00  0.18606585921E+04  0.18606585921E+04  0.00000000000E+00 0. -1.
         -1   -1    0    0    0  501 -0.00000000000E+00 -0.00000000000E+00 -0.12390297423E+03  0.12390297423E+03  0.00000000000E+00 0.  1.
         23    2    1    2    0    0 -0.81556496407E+02 -0.16425875332E+03  0.91801700931E+02  0.22416300416E+03  0.90493646149E+02 0.  0.
    5000000    2    1    2    0    0  0.81556496407E+02  0.16425875332E+03  0.16449539170E+04  0.17603985622E+04  0.59958094422E+03 0.  0.
         23    2    4    4    0    0  0.14434401164E+03  0.10989538267E+03  0.13271914503E+03  0.24312294216E+03  0.92640189524E+02 0.  0.
         23    2    4    4    0    0 -0.62787515236E+02  0.54363370656E+02  0.15122347719E+04  0.15172756200E+04  0.91507669490E+02 0.  0.
          2    1    3    3  502    0 -0.93122697006E+01 -0.25720140234E+02 -0.18398691486E+02  0.32965979874E+02  0.00000000000E+00 0. -1.
         -2    1    3    3    0  502 -0.72244226707E+02 -0.13853861309E+03  0.11020039242E+03  0.19119702429E+03  0.00000000000E+00 0.  1.
         11    1    5    5    0    0  0.12714293541E+03  0.42467188606E+02  0.90295591690E+02  0.16162327187E+03  0.00000000000E+00 0. -1.
        -11    1    5    5    0    0  0.17201076235E+02  0.67428194059E+02  0.42423553345E+02  0.81499670282E+02  0.00000000000E+00 0.  1.
          2    1    6    6  503    0  0.12402917827E+02 -0.15995676457E+02  0.29438643478E+03  0.29508145827E+03  0.00000000000E+00 0. -1.
         -2    1    6    6    0  503 -0.75190433063E+02  0.70359047113E+02  0.12178483372E+04  0.12221941618E+04  0.00000000000E+00 0.  1.
<mgrwt>
<rscale>  0 0.25522498E+03</rscale>
<asrwt>0</asrwt>
<pdfrwt beam="1">  1        1 0.28625515E+00 0.25522498E+03</pdfrwt>
<pdfrwt beam="2">  1       -1 0.19061997E-01 0.25522498E+03</pdfrwt>
<totfact> 0.91733684E+01</totfact>
</mgrwt>
</event>
<event>
12    1  0.1444206E-007  0.6973510E+03  0.7818608E-02  0.9721773E-01
          2   -1    0    0  501    0  0.00000000000E+00  0.00000000000E+00  0.59368184280E+03  0.59368184280E+03  0.00000000000E+00 0. -1.
         -2   -1    0    0    0  501 -0.00000000000E+00 -0.00000000000E+00 -0.11368348046E+04  0.11368348046E+04  0.00000000000E+00 0.  1.
         23    2    1    2    0    0  0.33342025388E+03  0.59066231134E+03 -0.20661376547E+02  0.68499770442E+03  0.93508988038E+02 0.  0.
    5000000    2    1    2    0    0 -0.33342025388E+03 -0.59066231134E+03 -0.52249158524E+03  0.10455189430E+04  0.60005114093E+03 0.  0.
         23    2    4    4    0    0 -0.12792727955E+03 -0.79084411689E+02  0.10525401561E+03  0.20512377750E+03  0.91529357420E+02 0.  0.
         23    2    4    4    0    0 -0.20549297433E+03 -0.51157789965E+03 -0.62774560085E+03  0.84039516547E+03  0.90885559098E+02 0.  0.
          2    1    3    3  502    0  0.14791926064E+03  0.27421737947E+03  0.36732273812E+02  0.31372685382E+03  0.00000000000E+00 0.  1.
         -2    1    3    3    0  502  0.18550099324E+03  0.31644493187E+03 -0.57393650359E+02  0.37127085059E+03  0.00000000000E+00 0. -1.
         13    1    5    5    0    0 -0.11221851029E+03 -0.34194244367E+02  0.39117438196E+02  0.12366250188E+03  0.00000000000E+00 0.  1.
        -13    1    5    5    0    0 -0.15708769255E+02 -0.44890167322E+02  0.66136577414E+02  0.81461275621E+02  0.00000000000E+00 0. -1.
          3    1    6    6  503    0 -0.16192728019E+03 -0.38864123012E+03 -0.41717786602E+03  0.59270551011E+03  0.00000000000E+00 0. -1.
         -3    1    6    6    0  503 -0.43565694142E+02 -0.12293666953E+03 -0.21056773483E+03  0.24768965536E+03  0.00000000000E+00 0.  1.
<mgrwt>
<rscale>  0 0.69735104E+03</rscale>
<asrwt>0</asrwt>
<pdfrwt beam="1">  1        2 0.91335669E-01 0.69735104E+03</pdfrwt>
<pdfrwt beam="2">  1       -2 0.17489766E+00 0.69735104E+03</pdfrwt>
<totfact> 0.10110659E+01</totfact>
</mgrwt>
</event>
<event>
12    1  0.1444206E-007  0.4752872E+03  0.7818608E-02  0.1020438E+00
          2   -1    0    0  501    0  0.00000000000E+00  0.00000000000E+00  0.19688047137E+04  0.19688047137E+04  0.00000000000E+00 0.  1.
         -2   -1    0    0    0  501 -0.00000000000E+00 -0.00000000000E+00 -0.35848412790E+03  0.35848412790E+03  0.00000000000E+00 0. -1.
         23    2    1    2    0    0 -0.40127448507E+03  0.51932184665E+01  0.15491142392E+04  0.16028511204E+04  0.91261198816E+02 0.  0.
    5000000    2    1    2    0    0  0.40127448507E+03 -0.51932184665E+01  0.61206346634E+02  0.72443772117E+03  0.60001301077E+03 0.  0.
         23    2    4    4    0    0  0.73887318860E+02 -0.15484464592E+03 -0.19329779654E+03  0.27436685703E+03  0.92070265719E+02 0.  0.
         23    2    4    4    0    0  0.32738716621E+03  0.14965142745E+03  0.25450414317E+03  0.45007086414E+03  0.90628458651E+02 0.  0.
          4    1    3    3  502    0 -0.23403858103E+03  0.41189194585E+02  0.99193171986E+03  0.10199995804E+04  0.00000000000E+00 0. -1.
         -4    1    3    3    0  502 -0.16723590404E+03 -0.35995976119E+02  0.55718251932E+03  0.58285154004E+03  0.00000000000E+00 0.  1.
         13    1    5    5    0    0  0.78175111109E+02 -0.14159246197E+03 -0.20135915506E+03  0.25827365837E+03  0.00000000000E+00 0.  1.
        -13    1    5    5    0    0 -0.42877922487E+01 -0.13252183947E+02  0.80613585180E+01  0.16093198653E+02  0.00000000000E+00 0. -1.
          1    1    6    6  503    0  0.30955243288E+01  0.14584918396E+02 -0.20737726829E+01  0.15053326829E+02  0.00000000000E+00 0. -1.
         -1    1    6    6    0  503  0.32429164188E+03  0.13506650906E+03  0.25657791586E+03  0.43501753731E+03  0.00000000000E+00 0.  1.
<mgrwt>
<rscale>  0 0.47528720E+03</rscale>
<asrwt>0</asrwt>
<pdfrwt beam="1">  1        2 0.30289303E+00 0.47528720E+03</pdfrwt>
<pdfrwt beam="2">  1       -2 0.55151406E-01 0.47528720E+03</pdfrwt>
<totfact> 0.23267281E+01</totfact>
</mgrwt>
</event>
<event>
12    1  0.1444206E-007  0.1068704E+04  0.7818608E-02  0.9236244E-01
          1   -1    0    0  501    0  0.00000000000E+00  0.00000000000E+00  0.13046122627E+04  0.13046122627E+04  0.00000000000E+00 0. -1.
         -1   -1    0    0    0  501 -0.00000000000E+00 -0.00000000000E+00 -0.93350203501E+03  0.93350203501E+03  0.00000000000E+00 0.  1.
         23    2    1    2    0    0 -0.99406295649E+03 -0.96481171309E+02 -0.36993718202E+02  0.10036303232E+04  0.91845046208E+02 0.  0.
    5000000    2    1    2    0    0  0.99406295649E+03  0.96481171309E+02  0.40810394585E+03  0.12344839745E+04  0.59994339298E+03 0.  0.
         23    2    4    4    0    0  0.40626174785E+03  0.30396180081E+03  0.29696423616E+03  0.59490114457E+03  0.90984779703E+02 0.  0.
         23    2    4    4    0    0  0.58780120864E+03 -0.20748062950E+03  0.11113970970E+03  0.63958282992E+03  0.90308852109E+02 0.  0.
          3    1    3    3  502    0 -0.50384274607E+03 -0.90338241050E+02  0.12908723420E+01  0.51187906473E+03  0.00000000000E+00 0. -1.
         -3    1    3    3    0  502 -0.49022021042E+03 -0.61429302585E+01 -0.38284590544E+02  0.49175125843E+03  0.00000000000E+00 0.  1.
         11    1    5    5    0    0  0.12020297405E+03  0.12787703170E+03  0.67202127765E+02  0.18792928506E+03  0.00000000000E+00 0.  1.
        -11    1    5    5    0    0  0.28605877380E+03  0.17608476911E+03  0.22976210839E+03  0.40697185951E+03  0.00000000000E+00 0. -1.
          4    1    6    6  503    0  0.39487156002E+03 -0.15192689642E+03  0.11617690902E+03  0.43875096006E+03  0.00000000000E+00 0. -1.
         -4    1    6    6    0  503  0.19292964862E+03 -0.55553733080E+02 -0.50371993191E+01  0.20083186986E+03  0.00000000000E+00 0.  1.
<mgrwt>
<rscale>  0 0.10687040E+04</rscale>
<asrwt>0</asrwt>
<pdfrwt beam="1">  1        1 0.20070958E+00 0.10687040E+04</pdfrwt>
<pdfrwt beam="2">  1       -1 0.14361570E+00 0.10687040E+04</pdfrwt>
<totfact> 0.35030843E+00</totfact>
</mgrwt>
</event>
<event>
12    1  0.1444206E-007  0.1172383E+04  0.7818608E-02  0.9137379E-01
         -2   -1    0    0    0  501 -0.00000000000E+00  0.00000000000E+00  0.53249710158E+03  0.53249710158E+03  0.00000000000E+00 0.  1.
          2   -1    0    0  501    0  0.00000000000E+00 -0.00000000000E+00 -0.28371427037E+04  0.28371427037E+04  0.00000000000E+00 0. -1.
         23    2    1    2    0    0  0.84112230173E+03 -0.78541068464E+03 -0.12024855664E+04  0.16669105346E+04  0.90898421381E+02 0.  0.
    5000000    2    1    2    0    0 -0.84112230173E+03  0.78541068464E+03 -0.11021600357E+04  0.17027292706E+04  0.60014461152E+03 0.  0.
         23    2    4    4    0    0 -0.85345388195E+03  0.69256802989E+03 -0.76790794079E+03  0.13437150467E+04  0.88620067982E+02 0.  0.
         23    2    4    4    0    0  0.12331580227E+02  0.92842654753E+02 -0.33425209488E+03  0.35901422394E+03  0.91623815952E+02 0.  0.
          3    1    3    3  502    0  0.64034236656E+03 -0.57491508064E+03 -0.84554496002E+03  0.12064460103E+04  0.00000000000E+00 0. -1.
         -3    1    3    3    0  502  0.20077993517E+03 -0.21049560401E+03 -0.35694060641E+03  0.46046452434E+03  0.00000000000E+00 0.  1.
         11    1    5    5    0    0 -0.28901737092E+03  0.21508214803E+03 -0.29958342658E+03  0.46855266574E+03  0.00000000000E+00 0.  1.
        -11    1    5    5    0    0 -0.56443651104E+03  0.47748588186E+03 -0.46832451421E+03  0.87516238092E+03  0.00000000000E+00 0. -1.
          2    1    6    6  503    0  0.49885606177E+01  0.51501546752E+02 -0.50947519671E+02  0.72615045380E+02  0.00000000000E+00 0. -1.
         -2    1    6    6    0  503  0.73430196088E+01  0.41341108001E+02 -0.28330457521E+03  0.28639917856E+03  0.00000000000E+00 0.  1.
<mgrwt>
<rscale>  0 0.11723830E+04</rscale>
<asrwt>0</asrwt>
<pdfrwt beam="1">  1        2 0.43648348E+00 0.11723830E+04</pdfrwt>
<pdfrwt beam="2">  1       -2 0.81922633E-01 0.11723830E+04</pdfrwt>
<totfact> 0.28587941E+00</totfact>
</mgrwt>
</event>
<event>
12    1  0.1444206E-007  0.9543998E+03  0.7818608E-02  0.9360023E-01
         -2   -1    0    0    0  501 -0.00000000000E+00  0.00000000000E+00  0.23392299287E+03  0.23392299287E+03  0.00000000000E+00 0.  1.
          2   -1    0    0  501    0  0.00000000000E+00 -0.00000000000E+00 -0.42744518255E+04  0.42744518255E+04  0.00000000000E+00 0. -1.
         23    2    1    2    0    0 -0.72920288457E+03  0.48926739048E+03 -0.23561969700E+04  0.25162933343E+04  0.94596809781E+02 0.  0.
    5000000    2    1    2    0    0  0.72920288457E+03 -0.48926739048E+03 -0.16843318626E+04  0.19920814841E+04  0.60024610750E+03 0.  0.
         23    2    4    4    0    0 -0.65679242012E+02 -0.59160712123E+02 -0.86498557281E+02  0.15403145796E+03  0.91814688037E+02 0.  0.
         23    2    4    4    0    0  0.79488212658E+03 -0.43010667836E+03 -0.15978333053E+04  0.18380500261E+04  0.92343256293E+02 0.  0.
          4    1    3    3  502    0 -0.33006544968E+03  0.20108843022E+03 -0.11624762796E+04  0.12250432068E+04  0.00000000000E+00 0.  1.
         -4    1    3    3    0  502 -0.39913743489E+03  0.28817896026E+03 -0.11937206904E+04  0.12912501275E+04  0.00000000000E+00 0. -1.
         11    1    5    5    0    0 -0.53263019340E+02 -0.80675974196E+02 -0.85680605757E+02  0.12917711966E+03  0.00000000000E+00 0.  1.
        -11    1    5    5    0    0 -0.12416222673E+02  0.21515262072E+02 -0.81795152448E+00  0.24854338297E+02  0.00000000000E+00 0. -1.
          2    1    6    6  503    0  0.25004918280E+03 -0.87631867989E+02 -0.46531434127E+03  0.53546370026E+03  0.00000000000E+00 0. -1.
         -2    1    6    6    0  503  0.54483294379E+03 -0.34247481037E+03 -0.11325189640E+04  0.13025863258E+04  0.00000000000E+00 0.  1.
<mgrwt>
<rscale>  0 0.95439984E+03</rscale>
<asrwt>0</asrwt>
<pdfrwt beam="1">  1        2 0.65760803E+00 0.95439984E+03</pdfrwt>
<pdfrwt beam="2">  1       -2 0.35988150E-01 0.95439984E+03</pdfrwt>
<totfact> 0.15609017E+00</totfact>
</mgrwt>
</event>
<event>
12    1  0.1444206E-007  0.1121037E+04  0.7818608E-02  0.9184927E-01
         -2   -1    0    0    0  501 -0.00000000000E+00  0.00000000000E+00  0.53593942038E+03  0.53593942038E+03  0.00000000000E+00 0. -1.
          2   -1    0    0  501    0  0.00000000000E+00 -0.00000000000E+00 -0.39189734796E+04  0.39189734796E+04  0.00000000000E+00 0.  1.
         23    2    1    2    0    0  0.26110186030E+03 -0.10148532894E+04 -0.30139434660E+04  0.31922050656E+04  0.90645375267E+02 0.  0.
    5000000    2    1    2    0    0 -0.26110186030E+03  0.10148532894E+04 -0.36909059327E+03  0.12627078344E+04  0.60008485121E+03 0.  0.
         23    2    4    4    0    0 -0.41404293484E+03  0.49810467347E+03 -0.13378154263E+03  0.66778365395E+03  0.92182914393E+02 0.  0.
         23    2    4    4    0    0  0.15294107454E+03  0.51674861593E+03 -0.23530905064E+03  0.59492418049E+03  0.90245924387E+02 0.  0.
          1    1    3    3  502    0  0.13842786393E+03 -0.50876547031E+03 -0.16520320388E+04  0.17341321849E+04  0.00000000000E+00 0. -1.
         -1    1    3    3    0  502  0.12267399637E+03 -0.50608781909E+03 -0.13619114271E+04  0.14580728807E+04  0.00000000000E+00 0.  1.
         11    1    5    5    0    0 -0.14777484000E+03  0.17330652973E+03 -0.25579764670E+01  0.22776983959E+03  0.00000000000E+00 0. -1.
        -11    1    5    5    0    0 -0.26626809484E+03  0.32479814374E+03 -0.13122356616E+03  0.44001381436E+03  0.00000000000E+00 0.  1.
          3    1    6    6  503    0  0.71730855911E+02  0.10845240040E+03 -0.51467107105E+02  0.13984313339E+03  0.00000000000E+00 0. -1.
         -3    1    6    6    0  503  0.81210218630E+02  0.40829621553E+03 -0.18384194354E+03  0.45508104710E+03  0.00000000000E+00 0.  1.
<mgrwt>
<rscale>  0 0.11210368E+04</rscale>
<asrwt>0</asrwt>
<pdfrwt beam="1">  1        2 0.60291899E+00 0.11210368E+04</pdfrwt>
<pdfrwt beam="2">  1       -2 0.82452219E-01 0.11210368E+04</pdfrwt>
<totfact> 0.52667081E-01</totfact>
</mgrwt>
</event>
<event>
12    1  0.1444206E-007  0.6403253E+03  0.7818608E-02  0.9825104E-01
          2   -1    0    0  501    0  0.00000000000E+00  0.00000000000E+00  0.14053512500E+04  0.14053512500E+04  0.00000000000E+00 0. -1.
         -2   -1    0    0    0  501 -0.00000000000E+00 -0.00000000000E+00 -0.32193054631E+03  0.32193054631E+03  0.00000000000E+00 0.  1.
         23    2    1    2    0    0  0.11656520873E+03  0.50176878555E+03  0.25268379408E+03  0.58093226790E+03  0.90960640125E+02 0.  0.
    5000000    2    1    2    0    0 -0.11656520873E+03 -0.50176878555E+03  0.83073690957E+03  0.11463495284E+04  0.59886064010E+03 0.  0.
         23    2    4    4    0    0 -0.17811046769E+03  0.52758452542E+02  0.12789133903E+03  0.24436853003E+03  0.94090333476E+02 0.  0.
         23    2    4    4    0    0  0.61545258955E+02 -0.55452723809E+03  0.70284557054E+03  0.90198099836E+03  0.91046958700E+02 0.  0.
          1    1    3    3  502    0  0.69715896305E+02  0.38021206650E+03  0.22660516996E+03  0.44807524453E+03  0.00000000000E+00 0. -1.
         -1    1    3    3    0  502  0.46849312427E+02  0.12155671905E+03  0.26078624124E+02  0.13285702337E+03  0.00000000000E+00 0.  1.
         13    1    5    5    0    0 -0.14668864756E+03  0.77477912177E+02  0.87571928404E+02  0.18758792297E+03  0.00000000000E+00 0. -1.
        -13    1    5    5    0    0 -0.31421820128E+02 -0.24719459635E+02  0.40319410631E+02  0.56780607063E+02  0.00000000000E+00 0.  1.
          2    1    6    6  503    0  0.22861298330E+02 -0.18441054474E+03  0.16864007498E+03  0.25093696990E+03  0.00000000000E+00 0. -1.
         -2    1    6    6    0  503  0.38683960625E+02 -0.37011669335E+03  0.53420549556E+03  0.65104402846E+03  0.00000000000E+00 0.  1.
<mgrwt>
<rscale>  0 0.64032532E+03</rscale>
<asrwt>0</asrwt>
<pdfrwt beam="1">  1        2 0.21620788E+00 0.64032532E+03</pdfrwt>
<pdfrwt beam="2">  1       -2 0.49527777E-01 0.64032532E+03</pdfrwt>
<totfact> 0.57211310E+01</totfact>
</mgrwt>
</event>
<event>
12    1  0.1444206E-007  0.9811464E+03  0.7818608E-02  0.9329468E-01
          2   -1    0    0  501    0  0.00000000000E+00  0.00000000000E+00  0.26246159085E+04  0.26246159085E+04  0.00000000000E+00 0. -1.
         -2   -1    0    0    0  501 -0.00000000000E+00 -0.00000000000E+00 -0.45031186965E+03  0.45031186965E+03  0.00000000000E+00 0.  1.
         23    2    1    2    0    0  0.96296073457E+03 -0.98022903118E+02  0.13732097238E+04  0.16825118733E+04  0.90771099033E+02 0.  0.
    5000000    2    1    2    0    0 -0.96296073457E+03  0.98022903118E+02  0.80109431502E+03  0.13924159048E+04  0.60014005415E+03 0.  0.
         23    2    4    4    0    0 -0.20186016290E+03 -0.42403776403E+02  0.51457839734E+03  0.56185342415E+03  0.91338587644E+02 0.  0.
         23    2    4    4    0    0 -0.76110057166E+03  0.14042667952E+03  0.28651591767E+03  0.83056248067E+03  0.93535718939E+02 0.  0.
          1    1    3    3  502    0  0.57745520862E+03 -0.10177159418E+03  0.84902004542E+03  0.10318173350E+04  0.00000000000E+00 0. -1.
         -1    1    3    3    0  502  0.38550552594E+03  0.37486910644E+01  0.52418967841E+03  0.65069453829E+03  0.00000000000E+00 0.  1.
         11    1    5    5    0    0 -0.96547829281E+02 -0.53585080950E+02  0.18258694174E+03  0.21337955744E+03  0.00000000000E+00 0.  1.
        -11    1    5    5    0    0 -0.10531233362E+03  0.11181304547E+02  0.33199145560E+03  0.34847386671E+03  0.00000000000E+00 0. -1.
          1    1    6    6  503    0 -0.28325181329E+03  0.59553069794E+02  0.60010203294E+02  0.29560003781E+03  0.00000000000E+00 0. -1.
         -1    1    6    6    0  503 -0.47784875837E+03  0.80873609727E+02  0.22650571438E+03  0.53496244286E+03  0.00000000000E+00 0.  1.
<mgrwt>
<rscale>  0 0.98114639E+03</rscale>
<asrwt>0</asrwt>
<pdfrwt beam="1">  1        2 0.40378706E+00 0.98114639E+03</pdfrwt>
<pdfrwt beam="2">  1       -2 0.69278750E-01 0.98114639E+03</pdfrwt>
<totfact> 0.56872868E+00</totfact>
</mgrwt>
</event>
<event>
12    1  0.1444206E-007  0.8206666E+03  0.7818608E-02  0.9530576E-01
          1   -1    0    0  501    0  0.00000000000E+00  0.00000000000E+00  0.89285378621E+03  0.89285378621E+03  0.00000000000E+00 0. -1.
         -1   -1    0    0    0  501 -0.00000000000E+00 -0.00000000000E+00 -0.81907294655E+03  0.81907294655E+03  0.00000000000E+00 0.  1.
         23    2    1    2    0    0  0.51892233089E+03  0.53157861296E+03 -0.43046259543E+02  0.74982047354E+03  0.92312267987E+02 0.  0.
    5000000    2    1    2    0    0 -0.51892233089E+03 -0.53157861296E+03  0.11682709920E+03  0.96210625923E+03  0.60011971779E+03 0.  0.
         23    2    4    4    0    0 -0.51312630066E+03 -0.60399053206E+03  0.19728909745E+03  0.82183515359E+03  0.91579847457E+02 0.  0.
         23    2    4    4    0    0 -0.57960302346E+01  0.72411919093E+02 -0.80461998246E+02  0.14027110564E+03  0.89021176823E+02 0.  0.
          3    1    3    3  502    0  0.43507883955E+03  0.47924889330E+03 -0.16534123437E+02  0.64749245215E+03  0.00000000000E+00 0. -1.
         -3    1    3    3    0  502  0.83843491343E+02  0.52329719659E+02 -0.26512136106E+02  0.10232802139E+03  0.00000000000E+00 0.  1.
         13    1    5    5    0    0 -0.17025652689E+03 -0.26453126266E+03  0.95110070921E+02  0.32864874785E+03  0.00000000000E+00 0. -1.
        -13    1    5    5    0    0 -0.34286977377E+03 -0.33945926940E+03  0.10217902653E+03  0.49318640574E+03  0.00000000000E+00 0.  1.
          2    1    6    6  503    0  0.14542414001E+02 -0.70231612428E+01  0.93475565880E+01  0.18659673443E+02  0.00000000000E+00 0. -1.
         -2    1    6    6    0  503 -0.20338444236E+02  0.79435080336E+02 -0.89809554834E+02  0.12161143220E+03  0.00000000000E+00 0.  1.
<mgrwt>
<rscale>  0 0.82066661E+03</rscale>
<asrwt>0</asrwt>
<pdfrwt beam="1">  1        1 0.13736212E+00 0.82066661E+03</pdfrwt>
<pdfrwt beam="2">  1       -1 0.12601122E+00 0.82066661E+03</pdfrwt>
<totfact> 0.10341610E+01</totfact>
</mgrwt>
</event>
<event>
12    1  0.1444206E-007  0.5432466E+03  0.7818608E-02  0.1003069E+00
         -1   -1    0    0    0  501 -0.00000000000E+00  0.00000000000E+00  0.18512783452E+03  0.18512783452E+03  0.00000000000E+00 0.  1.
          1   -1    0    0  501    0  0.00000000000E+00 -0.00000000000E+00 -0.20273203446E+04  0.20273203446E+04  0.00000000000E+00 0. -1.
         23    2    1    2    0    0 -0.30117895512E+03  0.34199476758E+03 -0.59382050768E+03  0.75426805645E+03  0.92888759114E+02 0.  0.
    5000000    2    1    2    0    0  0.30117895512E+03 -0.34199476758E+03 -0.12483720024E+04  0.14581801226E+04  0.60015617111E+03 0.  0.
         23    2    4    4    0    0 -0.18822908808E+02 -0.28421575751E+03 -0.20814356849E+03  0.36457405410E+03  0.91965195076E+02 0.  0.
         23    2    4    4    0    0  0.32000186393E+03 -0.57779010075E+02 -0.10402284339E+04  0.10936060685E+04  0.90329572132E+02 0.  0.
          2    1    3    3  502    0 -0.17094685663E+02  0.43156261472E-01 -0.44009267030E+02  0.47212770782E+02  0.00000000000E+00 0. -1.
         -2    1    3    3    0  502 -0.28408426946E+03  0.34195161132E+03 -0.54981124065E+03  0.70705528567E+03  0.00000000000E+00 0.  1.
         11    1    5    5    0    0 -0.56156065486E+02 -0.18367776651E+03 -0.13321725101E+03  0.23374743115E+03  0.00000000000E+00 0. -1.
        -11    1    5    5    0    0  0.37333156679E+02 -0.10053799099E+03 -0.74926317489E+02  0.13082662295E+03  0.00000000000E+00 0.  1.
          4    1    6    6  503    0  0.13782980456E+03 -0.17358333813E+02 -0.30635440686E+03  0.33637982904E+03  0.00000000000E+00 0. -1.
         -4    1    6    6    0  503  0.18217205937E+03 -0.40420676262E+02 -0.73387402700E+03  0.75722623950E+03  0.00000000000E+00 0.  1.
<mgrwt>
<rscale>  0 0.54324662E+03</rscale>
<asrwt>0</asrwt>
<pdfrwt beam="1">  1        1 0.31189543E+00 0.54324662E+03</pdfrwt>
<pdfrwt beam="2">  1       -1 0.28481206E-01 0.54324662E+03</pdfrwt>
<totfact> 0.34140284E+01</totfact>
</mgrwt>
</event>
<event>
12    1  0.1444206E-007  0.9375212E+03  0.7818608E-02  0.9379856E-01
         -1   -1    0    0    0  501 -0.00000000000E+00  0.00000000000E+00  0.12399088610E+04  0.12399088610E+04  0.00000000000E+00 0.  1.
          1   -1    0    0  501    0  0.00000000000E+00 -0.00000000000E+00 -0.89423749572E+03  0.89423749572E+03  0.00000000000E+00 0. -1.
         23    2    1    2    0    0  0.68293407592E+03  0.50592829264E+03 -0.30706328924E+03  0.90594798016E+03  0.63964754432E+02 0.  0.
    5000000    2    1    2    0    0 -0.68293407592E+03 -0.50592829264E+03  0.65273465454E+03  0.12281983766E+04  0.60003861015E+03 0.  0.
         23    2    4    4    0    0 -0.33678932682E+03  0.70612881200E+02  0.29264939036E+03  0.45999103297E+03  0.86803543045E+02 0.  0.
         23    2    4    4    0    0 -0.34614474910E+03 -0.57654117384E+03  0.36008526419E+03  0.76820734362E+03  0.90913216014E+02 0.  0.
          4    1    3    3  502    0  0.33206490870E+03  0.20635722673E+03 -0.14202850153E+03  0.41595973827E+03  0.00000000000E+00 0. -1.
         -4    1    3    3    0  502  0.35086916722E+03  0.29957106592E+03 -0.16503478771E+03  0.48998824189E+03  0.00000000000E+00 0.  1.
         13    1    5    5    0    0 -0.10146925990E+03  0.18497169653E+02  0.14290847621E+03  0.17624127940E+03  0.00000000000E+00 0.  1.
        -13    1    5    5    0    0 -0.23532006692E+03  0.52115711547E+02  0.14974091415E+03  0.28374975358E+03  0.00000000000E+00 0. -1.
          1    1    6    6  503    0 -0.19283268240E+03 -0.23359595355E+03  0.16423304531E+03  0.34456350081E+03  0.00000000000E+00 0. -1.
         -1    1    6    6    0  503 -0.15331206670E+03 -0.34294522029E+03  0.19585221887E+03  0.42364384281E+03  0.00000000000E+00 0.  1.
<mgrwt>
<rscale>  0 0.93752118E+03</rscale>
<asrwt>0</asrwt>
<pdfrwt beam="1">  1        1 0.13757500E+00 0.93752118E+03</pdfrwt>
<pdfrwt beam="2">  1       -1 0.19075521E+00 0.93752118E+03</pdfrwt>
<totfact> 0.32480000E+00</totfact>
</mgrwt>
</event>
<event>
12    1  0.1444206E-007  0.7764448E+03  0.7818608E-02  0.9594752E-01
          1   -1    0    0  501    0  0.00000000000E+00  0.00000000000E+00  0.22853814626E+04  0.22853814626E+04  0.00000000000E+00 0. -1.
         -1   -1    0    0    0  501 -0.00000000000E+00 -0.00000000000E+00 -0.27846260742E+03  0.27846260742E+03  0.00000000000E+00 0.  1.
         23    2    1    2    0    0 -0.60504931472E+03 -0.26507106960E+03  0.59612342060E+03  0.89449807717E+03  0.91740570511E+02 0.  0.
    5000000    2    1    2    0    0  0.60504931472E+03  0.26507106960E+03  0.14107954346E+04  0.16693459929E+04  0.60002078337E+03 0.  0.
         23    2    4    4    0    0  0.46697302998E+03 -0.10196231392E+03  0.71170928041E+03  0.86267046648E+03  0.95969316581E+02 0.  0.
         23    2    4    4    0    0  0.13807628475E+03  0.36703338352E+03  0.69908615421E+03  0.80667552642E+03  0.90693929730E+02 0.  0.
          1    1    3    3  502    0 -0.35895943243E+03 -0.11586252713E+03  0.37151633814E+03  0.52943402689E+03  0.00000000000E+00 0. -1.
         -1    1    3    3    0  502 -0.24608988229E+03 -0.14920854246E+03  0.22460708247E+03  0.36506405028E+03  0.00000000000E+00 0.  1.
         13    1    5    5    0    0  0.15511401921E+03 -0.79941810981E+02  0.23884864484E+03  0.29580352810E+03  0.00000000000E+00 0. -1.
        -13    1    5    5    0    0  0.31185901077E+03 -0.22020502940E+02  0.47286063557E+03  0.56686693838E+03  0.00000000000E+00 0.  1.
          3    1    6    6  503    0  0.81408686813E+00  0.10460626233E+03  0.15104936858E+03  0.18373634535E+03  0.00000000000E+00 0. -1.
         -3    1    6    6    0  503  0.13726219788E+03  0.26242712119E+03  0.54803678563E+03  0.62293918107E+03  0.00000000000E+00 0.  1.
<mgrwt>
<rscale>  0 0.77644480E+03</rscale>
<asrwt>0</asrwt>
<pdfrwt beam="1">  1        1 0.35159714E+00 0.77644480E+03</pdfrwt>
<pdfrwt beam="2">  1       -1 0.42840403E-01 0.77644480E+03</pdfrwt>
<totfact> 0.10686183E+01</totfact>
</mgrwt>
</event>
<event>
12    1  0.1444206E-007  0.8301049E+03  0.7818608E-02  0.9517435E-01
         -1   -1    0    0    0  501 -0.00000000000E+00  0.00000000000E+00  0.74093006196E+03  0.74093006196E+03  0.00000000000E+00 0.  1.
          1   -1    0    0  501    0  0.00000000000E+00 -0.00000000000E+00 -0.16030504535E+04  0.16030504535E+04  0.00000000000E+00 0. -1.
         23    2    1    2    0    0  0.60376455056E+03  0.40815456551E+03  0.34507192796E+03  0.81150681941E+03  0.91361373872E+02 0.  0.
    5000000    2    1    2    0    0 -0.60376455056E+03 -0.40815456551E+03 -0.12071923195E+04  0.15324736961E+04  0.60003379155E+03 0.  0.
         23    2    4    4    0    0 -0.29391946945E+02  0.11807044186E+03 -0.13263338232E+03  0.20222771500E+03  0.92195004329E+02 0.  0.
         23    2    4    4    0    0 -0.57437260361E+03 -0.52622500737E+03 -0.10745589372E+04  0.13302459811E+04  0.89782038774E+02 0.  0.
          3    1    3    3  502    0  0.13047566891E+03  0.87009105727E+02  0.34153458444E+02  0.16050216005E+03  0.00000000000E+00 0. -1.
         -3    1    3    3    0  502  0.47328888165E+03  0.32114545978E+03  0.31091846951E+03  0.65100465936E+03  0.00000000000E+00 0.  1.
         11    1    5    5    0    0  0.14482306337E+02  0.10583179395E+03 -0.87170834698E+02  0.13787262321E+03  0.00000000000E+00 0.  1.
        -11    1    5    5    0    0 -0.43874253283E+02  0.12238647907E+02 -0.45462547623E+02  0.64355091796E+02  0.00000000000E+00 0. -1.
          2    1    6    6  503    0 -0.14730105520E+03 -0.12867658018E+03 -0.33895117054E+03  0.39133509830E+03  0.00000000000E+00 0. -1.
         -2    1    6    6    0  503 -0.42707154841E+03 -0.39754842718E+03 -0.73560776665E+03  0.93891088276E+03  0.00000000000E+00 0.  1.
<mgrwt>
<rscale>  0 0.83010492E+03</rscale>
<asrwt>0</asrwt>
<pdfrwt beam="1">  1        1 0.24662314E+00 0.83010492E+03</pdfrwt>
<pdfrwt beam="2">  1       -1 0.11398924E+00 0.83010492E+03</pdfrwt>
<totfact> 0.40133698E+00</totfact>
</mgrwt>
</event>
<event>
12    1  0.1444206E-007  0.8080984E+03  0.7818608E-02  0.9548368E-01
         -2   -1    0    0    0  501 -0.00000000000E+00  0.00000000000E+00  0.11107226915E+04  0.11107226915E+04  0.00000000000E+00 0.  1.
          2   -1    0    0  501    0  0.00000000000E+00 -0.00000000000E+00 -0.71829394404E+03  0.71829394404E+03  0.00000000000E+00 0. -1.
         23    2    1    2    0    0 -0.73034977229E+03 -0.29085437609E+03  0.10000697232E+03  0.79788977341E+03  0.92842005720E+02 0.  0.
    5000000    2    1    2    0    0  0.73034977229E+03  0.29085437609E+03  0.29242177512E+03  0.10311268621E+04  0.59975416063E+03 0.  0.
         23    2    4    4    0    0  0.57001599350E+03  0.28899827685E+03  0.45068892198E+03  0.78728977250E+03  0.90919990202E+02 0.  0.
         23    2    4    4    0    0  0.16033377879E+03  0.18560992405E+01 -0.15826714685E+03  0.24383708960E+03  0.93261303686E+02 0.  0.
          2    1    3    3  502    0 -0.36594844957E+03 -0.15200540860E+03  0.96817643142E+02  0.40791858012E+03  0.00000000000E+00 0. -1.
         -2    1    3    3    0  502 -0.36440132272E+03 -0.13884896749E+03  0.31893291754E+01  0.38997119329E+03  0.00000000000E+00 0.  1.
         11    1    5    5    0    0  0.42269037630E+03  0.25372414258E+03  0.36334836583E+03  0.61242561156E+03  0.00000000000E+00 0.  1.
        -11    1    5    5    0    0  0.14732561720E+03  0.35274134268E+02  0.87340556153E+02  0.17486416094E+03  0.00000000000E+00 0. -1.
          2    1    6    6  503    0  0.14848597341E+02  0.33466711686E+02 -0.30854833937E+02  0.47880292516E+02  0.00000000000E+00 0. -1.
         -2    1    6    6    0  503  0.14548518145E+03 -0.31610612446E+02 -0.12741231292E+03  0.19595679708E+03  0.00000000000E+00 0.  1.
<mgrwt>
<rscale>  0 0.80809839E+03</rscale>
<asrwt>0</asrwt>
<pdfrwt beam="1">  1        2 0.11050676E+00 0.80809839E+03</pdfrwt>
<pdfrwt beam="2">  1       -2 0.17088042E+00 0.80809839E+03</pdfrwt>
<totfact> 0.84189275E+00</totfact>
</mgrwt>
</event>
<event>
12    1  0.1444206E-007  0.7013851E+03  0.7818608E-02  0.9714866E-01
         -2   -1    0    0    0  501 -0.00000000000E+00  0.00000000000E+00  0.28690043545E+03  0.28690043545E+03  0.00000000000E+00 0.  1.
          2   -1    0    0  501    0  0.00000000000E+00 -0.00000000000E+00 -0.19829596376E+04  0.19829596376E+04  0.00000000000E+00 0. -1.
         23    2    1    2    0    0 -0.54180303332E+03 -0.23149475802E+03 -0.10572135889E+04  0.12138168718E+04  0.92252239031E+02 0.  0.
    5000000    2    1    2    0    0  0.54180303332E+03  0.23149475802E+03 -0.63884561316E+03  0.10560432012E+04  0.59996931215E+03 0.  0.
         23    2    4    4    0    0  0.43303699464E+02 -0.15945440245E+03 -0.21242024898E+03  0.28723831156E+03  0.10041199431E+03 0.  0.
         23    2    4    4    0    0  0.49849933386E+03  0.39094916047E+03 -0.42642536418E+03  0.76880488968E+03  0.88766746352E+02 0.  0.
          3    1    3    3  502    0 -0.28039784244E+03 -0.15669836446E+03 -0.63520619448E+03  0.71180351009E+03  0.00000000000E+00 0. -1.
         -3    1    3    3    0  502 -0.26140519089E+03 -0.74796393553E+02 -0.42200739446E+03  0.50201336167E+03  0.00000000000E+00 0.  1.
         13    1    5    5    0    0 -0.57596579510E+01 -0.87617123662E+02 -0.45232563026E+02  0.98772054633E+02  0.00000000000E+00 0.  1.
        -13    1    5    5    0    0  0.49063357415E+02 -0.71837278786E+02 -0.16718768595E+03  0.18846625692E+03  0.00000000000E+00 0. -1.
          4    1    6    6  503    0  0.35283510903E+03  0.25228329871E+03 -0.24619041988E+03  0.49874763138E+03  0.00000000000E+00 0. -1.
         -4    1    6    6    0  503  0.14566422483E+03  0.13866586176E+03 -0.18023494431E+03  0.27005725830E+03  0.00000000000E+00 0.  1.
<mgrwt>
<rscale>  0 0.70138514E+03</rscale>
<asrwt>0</asrwt>
<pdfrwt beam="1">  1        2 0.30507072E+00 0.70138514E+03</pdfrwt>
<pdfrwt beam="2">  1       -2 0.44138528E-01 0.70138514E+03</pdfrwt>
<totfact> 0.34509779E+01</totfact>
</mgrwt>
</event>
<event>
12    1  0.1444206E-007  0.5449598E+03  0.7818608E-02  0.1002667E+00
         -1   -1    0    0    0  501 -0.00000000000E+00  0.00000000000E+00  0.52911689186E+03  0.52911689186E+03  0.00000000000E+00 0.  1.
          1   -1    0    0  501    0  0.00000000000E+00 -0.00000000000E+00 -0.60358160366E+03  0.60358160366E+03  0.00000000000E+00 0. -1.
         23    2    1    2    0    0 -0.67077071418E+01  0.39479658140E+03 -0.85059336330E+02  0.41415210694E+03  0.91528918766E+02 0.  0.
    5000000    2    1    2    0    0  0.67077071418E+01 -0.39479658140E+03  0.10594624538E+02  0.71854638858E+03  0.60023939595E+03 0.  0.
         23    2    4    4    0    0 -0.15650176109E+03  0.87695614446E+02 -0.29418430839E+02  0.20023421794E+03  0.83934354962E+02 0.  0.
         23    2    4    4    0    0  0.16320946823E+03 -0.48249219584E+03  0.40013055377E+02  0.51831217064E+03  0.87237675717E+02 0.  0.
          1    1    3    3  502    0  0.10848671955E+02  0.46437297275E+02  0.17159790866E+02  0.50681107762E+02  0.00000000000E+00 0. -1.
         -1    1    3    3    0  502 -0.17556379097E+02  0.34835928412E+03 -0.10221912720E+03  0.36347099918E+03  0.00000000000E+00 0.  1.
         11    1    5    5    0    0 -0.63369918447E+01  0.16399477181E+02 -0.29105477212E+02  0.34003369263E+02  0.00000000000E+00 0.  1.
        -11    1    5    5    0    0 -0.15016476924E+03  0.71296137265E+02 -0.31295362682E+00  0.16623084868E+03  0.00000000000E+00 0. -1.
          1    1    6    6  503    0  0.51742737813E+02 -0.17786172218E+03  0.56058981215E+02  0.19353220019E+03  0.00000000000E+00 0. -1.
         -1    1    6    6    0  503  0.11146673042E+03 -0.30463047366E+03 -0.16045925838E+02  0.32477997045E+03  0.00000000000E+00 0.  1.
<mgrwt>
<rscale>  0 0.54495976E+03</rscale>
<asrwt>0</asrwt>
<pdfrwt beam="1">  1        1 0.92858708E-01 0.54495976E+03</pdfrwt>
<pdfrwt beam="2">  1       -1 0.81402599E-01 0.54495976E+03</pdfrwt>
<totfact> 0.53223293E+01</totfact>
</mgrwt>
</event>
<event>
12    1  0.1444206E-007  0.8871454E+03  0.7818608E-02  0.9441794E-01
          1   -1    0    0  501    0  0.00000000000E+00  0.00000000000E+00  0.81254037399E+03  0.81254037399E+03  0.00000000000E+00 0. -1.
         -1   -1    0    0    0  501 -0.00000000000E+00 -0.00000000000E+00 -0.10927279920E+04  0.10927279920E+04  0.00000000000E+00 0.  1.
         23    2    1    2    0    0 -0.20319270954E+03 -0.80231482831E+03  0.41453991765E+02  0.83365981430E+03  0.90960934505E+02 0.  0.
    5000000    2    1    2    0    0  0.20319270954E+03  0.80231482831E+03 -0.32164160981E+03  0.10716085517E+04  0.59991266200E+03 0.  0.
         23    2    4    4    0    0 -0.11714330319E+03  0.40869773857E+03 -0.34545360823E+03  0.55527446312E+03  0.90747666407E+02 0.  0.
         23    2    4    4    0    0  0.32033601273E+03  0.39361708974E+03  0.23811998417E+02  0.51633408861E+03  0.92110289322E+02 0.  0.
          1    1    3    3  502    0 -0.91285386736E+02 -0.44298168435E+03  0.63162898171E+02  0.45667860275E+03  0.00000000000E+00 0. -1.
         -1    1    3    3    0  502 -0.11190732281E+03 -0.35933314396E+03 -0.21708906407E+02  0.37698121155E+03  0.00000000000E+00 0.  1.
         13    1    5    5    0    0 -0.80355728173E+02  0.36424813681E+03 -0.27088873960E+03  0.46099290392E+03  0.00000000000E+00 0.  1.
        -13    1    5    5    0    0 -0.36787575016E+02  0.44449601764E+02 -0.74564868623E+02  0.94281559200E+02  0.00000000000E+00 0. -1.
          4    1    6    6  503    0  0.17506799457E+03  0.28125047944E+03  0.29450917659E+02  0.33259283133E+03  0.00000000000E+00 0. -1.
         -4    1    6    6    0  503  0.14526801817E+03  0.11236661030E+03 -0.56389192411E+01  0.18374125727E+03  0.00000000000E+00 0.  1.
<mgrwt>
<rscale>  0 0.88714541E+03</rscale>
<asrwt>0</asrwt>
<pdfrwt beam="1">  1        1 0.12500621E+00 0.88714541E+03</pdfrwt>
<pdfrwt beam="2">  1       -1 0.16811200E+00 0.88714541E+03</pdfrwt>
<totfact> 0.55655729E+00</totfact>
</mgrwt>
</event>
<event>
12    1  0.1444206E-007  0.4285877E+03  0.7818608E-02  0.1034307E+00
          2   -1    0    0  501    0  0.00000000000E+00  0.00000000000E+00  0.55111444745E+03  0.55111444745E+03  0.00000000000E+00 0.  1.
         -2   -1    0    0    0  501 -0.00000000000E+00 -0.00000000000E+00 -0.43588994837E+03  0.43588994837E+03  0.00000000000E+00 0. -1.
         23    2    1    2    0    0 -0.96561208917E+02  0.27172430369E+03  0.11036908109E+03  0.32141412100E+03  0.89261071205E+02 0.  0.
    5000000    2    1    2    0    0  0.96561208917E+02 -0.27172430369E+03  0.48554179873E+01  0.66559027482E+03  0.59985721182E+03 0.  0.
         23    2    4    4    0    0  0.29505581509E+03 -0.13846310660E+03  0.14949523575E+03  0.36961783891E+03  0.89657991408E+02 0.  0.
         23    2    4    4    0    0 -0.19849460617E+03 -0.13326119710E+03 -0.14463981776E+03  0.29597243591E+03  0.97572283997E+02 0.  0.
          4    1    3    3  502    0 -0.87847059032E+02  0.23453525102E+03  0.58830326575E+02  0.25726425534E+03  0.00000000000E+00 0. -1.
         -4    1    3    3    0  502 -0.87141498849E+01  0.37189052674E+02  0.51538754517E+02  0.64149865660E+02  0.00000000000E+00 0.  1.
         13    1    5    5    0    0  0.76273949241E+02 -0.16882488966E+02  0.84344241227E-01  0.78120041478E+02  0.00000000000E+00 0.  1.
        -13    1    5    5    0    0  0.21878186585E+03 -0.12158061763E+03  0.14941089151E+03  0.29149779743E+03  0.00000000000E+00 0. -1.
          1    1    6    6  503    0 -0.29670072527E+02 -0.10883152451E+02  0.13407388046E+02  0.34329495558E+02  0.00000000000E+00 0. -1.
         -1    1    6    6    0  503 -0.16882453365E+03 -0.12237804465E+03 -0.15804720581E+03  0.26164294035E+03  0.00000000000E+00 0.  1.
<mgrwt>
<rscale>  0 0.42858771E+03</rscale>
<asrwt>0</asrwt>
<pdfrwt beam="1">  1        2 0.84786838E-01 0.42858771E+03</pdfrwt>
<pdfrwt beam="2">  1       -2 0.67059992E-01 0.42858771E+03</pdfrwt>
<totfact> 0.11581360E+02</totfact>
</mgrwt>
</event>
<event>
12    1  0.1444206E-007  0.1248631E+04  0.7818608E-02  0.9071323E-01
         -2   -1    0    0    0  501 -0.00000000000E+00  0.00000000000E+00  0.11336277637E+04  0.11336277637E+04  0.00000000000E+00 0.  1.
          2   -1    0    0  501    0  0.00000000000E+00 -0.00000000000E+00 -0.14824850478E+04  0.14824850478E+04  0.00000000000E+00 0. -1.
         23    2    1    2    0    0  0.46079769803E+03 -0.11051981064E+04  0.95320223039E+02  0.12049898882E+04  0.95484620804E+02 0.  0.
    5000000    2    1    2    0    0 -0.46079769803E+03  0.11051981064E+04 -0.44417750711E+03  0.14111229234E+04  0.60014737705E+03 0.  0.
         23    2    4    4    0    0  0.10115707021E+03  0.27477910399E+03  0.63929181585E+01  0.30805329748E+03  0.95496889160E+02 0.  0.
         23    2    4    4    0    0 -0.56195476824E+03  0.83041900241E+03 -0.45057042527E+03  0.11030696259E+04  0.91433092256E+02 0.  0.
          3    1    3    3  502    0  0.30184033927E+03 -0.68761184793E+03  0.10384883900E+03  0.75809117208E+03  0.00000000000E+00 0. -1.
         -3    1    3    3    0  502  0.15895735876E+03 -0.41758625846E+03 -0.85286159600E+01  0.44689871610E+03  0.00000000000E+00 0.  1.
         11    1    5    5    0    0  0.33396964392E+02  0.90138386085E+02  0.47345383824E+02  0.10715349386E+03  0.00000000000E+00 0. -1.
        -11    1    5    5    0    0  0.67760105821E+02  0.18464071791E+03 -0.40952465665E+02  0.20089980362E+03  0.00000000000E+00 0.  1.
          1    1    6    6  503    0 -0.32650306944E+03  0.55910525837E+03 -0.28038317820E+03  0.70556195398E+03  0.00000000000E+00 0. -1.
         -1    1    6    6    0  503 -0.23545169880E+03  0.27131374403E+03 -0.17018724707E+03  0.39750767192E+03  0.00000000000E+00 0.  1.
<mgrwt>
<rscale>  0 0.12486310E+04</rscale>
<asrwt>0</asrwt>
<pdfrwt beam="1">  1        2 0.22807462E+00 0.12486310E+04</pdfrwt>
<pdfrwt beam="2">  1       -2 0.17440427E+00 0.12486310E+04</pdfrwt>
<totfact> 0.24885419E+00</totfact>
</mgrwt>
</event>
<event>
12    1  0.1444206E-007  0.5383022E+03  0.7818608E-02  0.1004238E+00
          2   -1    0    0  501    0  0.00000000000E+00  0.00000000000E+00  0.18262032548E+03  0.18262032548E+03  0.00000000000E+00 0. -1.
         -2   -1    0    0    0  501 -0.00000000000E+00 -0.00000000000E+00 -0.24909372590E+04  0.24909372590E+04  0.00000000000E+00 0.  1.
         23    2    1    2    0    0 -0.49214264573E+03  0.80852754342E+02 -0.53845859648E+03  0.73942038858E+03  0.89795875619E+02 0.  0.
    5000000    2    1    2    0    0  0.49214264573E+03 -0.80852754342E+02 -0.17698583370E+04  0.19341371959E+04  0.59978880264E+03 0.  0.
         23    2    4    4    0    0  0.86497588750E+02 -0.13813616646E+03 -0.12575676944E+04  0.12713567223E+04  0.91148100518E+02 0.  0.
         23    2    4    4    0    0  0.40564505699E+03  0.57283412114E+02 -0.51229064266E+03  0.66278047354E+03  0.94904962933E+02 0.  0.
          4    1    3    3  502    0 -0.34309710425E+03  0.33163060687E+02 -0.41889151417E+03  0.54248088646E+03  0.00000000000E+00 0. -1.
         -4    1    3    3    0  502 -0.14904554149E+03  0.47689693655E+02 -0.11956708232E+03  0.19693950211E+03  0.00000000000E+00 0.  1.
         11    1    5    5    0    0  0.45654441990E+02 -0.96672585621E+02 -0.48713612599E+03  0.49872990900E+03  0.00000000000E+00 0. -1.
        -11    1    5    5    0    0  0.40843146759E+02 -0.41463580835E+02 -0.77043156836E+03  0.77262681334E+03  0.00000000000E+00 0.  1.
          1    1    6    6  503    0  0.33719568701E+03  0.38901069504E+02 -0.47161322907E+03  0.58106218461E+03  0.00000000000E+00 0. -1.
         -1    1    6    6    0  503  0.68449369975E+02  0.18382342610E+02 -0.40677413590E+02  0.81718288933E+02  0.00000000000E+00 0.  1.
<mgrwt>
<rscale>  0 0.53830219E+03</rscale>
<asrwt>0</asrwt>
<pdfrwt beam="1">  1        2 0.28095436E-01 0.53830219E+03</pdfrwt>
<pdfrwt beam="2">  1       -2 0.38322110E+00 0.53830219E+03</pdfrwt>
<totfact> 0.20118497E+00</totfact>
</mgrwt>
</event>
<event>
12    1  0.1444206E-007  0.7493573E+03  0.7818608E-02  0.9636359E-01
         -2   -1    0    0    0  501 -0.00000000000E+00  0.00000000000E+00  0.21555321534E+03  0.21555321534E+03  0.00000000000E+00 0.  1.
          2   -1    0    0  501    0  0.00000000000E+00 -0.00000000000E+00 -0.29622492705E+04  0.29622492705E+04  0.00000000000E+00 0. -1.
         23    2    1    2    0    0  0.98944446001E+02 -0.67470040997E+03 -0.12598609460E+04  0.14354078360E+04  0.90196483137E+02 0.  0.
    5000000    2    1    2    0    0 -0.98944446001E+02  0.67470040997E+03 -0.14868351091E+04  0.17423946499E+04  0.60020815359E+03 0.  0.
         23    2    4    4    0    0  0.17200873979E+03  0.31556316843E+03 -0.32798543895E+03  0.49570257738E+03  0.94760103546E+02 0.  0.
         23    2    4    4    0    0 -0.27095318579E+03  0.35913724154E+03 -0.11588496702E+04  0.12466920725E+04  0.94410690259E+02 0.  0.
          4    1    3    3  502    0  0.37801416598E+02 -0.32096023046E+03 -0.68942457550E+03  0.76141359453E+03  0.00000000000E+00 0. -1.
         -4    1    3    3    0  502  0.61143029403E+02 -0.35374017951E+03 -0.57043637054E+03  0.67399424143E+03  0.00000000000E+00 0.  1.
         13    1    5    5    0    0  0.17573512661E+03  0.30074423985E+03 -0.28493207947E+03  0.45001802457E+03  0.00000000000E+00 0.  1.
        -13    1    5    5    0    0 -0.37263868209E+01  0.14818928583E+02 -0.43053359475E+02  0.45684552807E+02  0.00000000000E+00 0. -1.
          4    1    6    6  503    0 -0.23661225082E+03  0.33810944527E+03 -0.11042985657E+04  0.11788887464E+04  0.00000000000E+00 0.  1.
         -4    1    6    6    0  503 -0.34340934970E+02  0.21027796266E+02 -0.54551104536E+02  0.67803326147E+02  0.00000000000E+00 0. -1.
<mgrwt>
<rscale>  0 0.74935728E+03</rscale>
<asrwt>0</asrwt>
<pdfrwt beam="1">  1        2 0.45573061E+00 0.74935728E+03</pdfrwt>
<pdfrwt beam="2">  1       -2 0.33162036E-01 0.74935728E+03</pdfrwt>
<totfact> 0.16533954E+01</totfact>
</mgrwt>
</event>
<event>
12    1  0.1444206E-007  0.4835675E+03  0.7818608E-02  0.1018159E+00
          1   -1    0    0  501    0  0.00000000000E+00  0.00000000000E+00  0.65562629062E+03  0.65562629062E+03  0.00000000000E+00 0. -1.
         -1   -1    0    0    0  501 -0.00000000000E+00 -0.00000000000E+00 -0.62329827316E+03  0.62329827316E+03  0.00000000000E+00 0.  1.
         23    2    1    2    0    0  0.30936682052E+03  0.17560689406E+02 -0.37129929467E+03  0.49220372969E+03  0.91570398330E+02 0.  0.
    5000000    2    1    2    0    0 -0.30936682052E+03 -0.17560689406E+02  0.40362731214E+03  0.78672083409E+03  0.59999871354E+03 0.  0.
         23    2    4    4    0    0 -0.20714825661E+03  0.26952754513E+03  0.16886872232E+03  0.39116175267E+03  0.94527104977E+02 0.  0.
         23    2    4    4    0    0 -0.10221856390E+03 -0.28708823453E+03  0.23475858981E+03  0.39555908142E+03  0.92125469813E+02 0.  0.
          3    1    3    3  502    0  0.94631458919E+02  0.26325732880E+02 -0.17724994580E+03  0.20264673823E+03  0.00000000000E+00 0. -1.
         -3    1    3    3    0  502  0.21473536160E+03 -0.87650434745E+01 -0.19404934887E+03  0.28955699146E+03  0.00000000000E+00 0.  1.
         13    1    5    5    0    0 -0.14070158390E+03  0.13536578552E+03  0.13582714528E+03  0.23784416116E+03  0.00000000000E+00 0. -1.
        -13    1    5    5    0    0 -0.66446672716E+02  0.13416175960E+03  0.33041577046E+02  0.15331759152E+03  0.00000000000E+00 0.  1.
          4    1    6    6  503    0 -0.89153325978E+02 -0.28064932924E+03  0.24019909139E+03  0.38001048017E+03  0.00000000000E+00 0. -1.
         -4    1    6    6    0  503 -0.13065237923E+02 -0.64389052925E+01 -0.54405015754E+01  0.15548601247E+02  0.00000000000E+00 0.  1.
<mgrwt>
<rscale>  0 0.48356748E+03</rscale>
<asrwt>0</asrwt>
<pdfrwt beam="1">  1        1 0.10086558E+00 0.48356748E+03</pdfrwt>
<pdfrwt beam="2">  1       -1 0.95892042E-01 0.48356748E+03</pdfrwt>
<totfact> 0.33370615E+01</totfact>
</mgrwt>
</event>
<event>
12    1  0.1444206E-007  0.6402215E+03  0.7818608E-02  0.9825303E-01
         -2   -1    0    0    0  501 -0.00000000000E+00  0.00000000000E+00  0.25869242952E+04  0.25869242952E+04  0.00000000000E+00 0.  1.
          2   -1    0    0  501    0  0.00000000000E+00 -0.00000000000E+00 -0.80046118201E+03  0.80046118201E+03  0.00000000000E+00 0. -1.
         23    2    1    2    0    0  0.10157304025E+03 -0.55233600957E+03 -0.62176117348E+03  0.84279649594E+03  0.91251447932E+02 0.  0.
    5000000    2    1    2    0    0 -0.10157304025E+03  0.55233600957E+03  0.24082242867E+04  0.25445889813E+04  0.59999726560E+03 0.  0.
         23    2    4    4    0    0  0.77551695992E+02  0.52005328972E+03  0.21501252826E+04  0.22155012505E+04  0.94537665466E+02 0.  0.
         23    2    4    4    0    0 -0.17912473624E+03  0.32282719846E+02  0.25809900406E+03  0.32908773080E+03  0.92497532589E+02 0.  0.
          4    1    3    3  502    0  0.40218778977E+02 -0.14402380100E+03 -0.11218904743E+03  0.18694059965E+03  0.00000000000E+00 0. -1.
         -4    1    3    3    0  502  0.61354261272E+02 -0.40831220857E+03 -0.50957212605E+03  0.65585589629E+03  0.00000000000E+00 0.  1.
         11    1    5    5    0    0  0.26810945323E+02  0.38347596764E+03  0.16746359374E+04  0.17181903757E+04  0.00000000000E+00 0.  1.
        -11    1    5    5    0    0  0.50740750669E+02  0.13657732208E+03  0.47548934525E+03  0.49731087474E+03  0.00000000000E+00 0. -1.
          4    1    6    6  503    0 -0.82314324953E+02 -0.87039966322E+01  0.52076177994E+02  0.97792310354E+02  0.00000000000E+00 0. -1.
         -4    1    6    6    0  503 -0.96810411288E+02  0.40986716478E+02  0.20602282606E+03  0.23129542045E+03  0.00000000000E+00 0.  1.
<mgrwt>
<rscale>  0 0.64022148E+03</rscale>
<asrwt>0</asrwt>
<pdfrwt beam="1">  1        2 0.12314787E+00 0.64022148E+03</pdfrwt>
<pdfrwt beam="2">  1       -2 0.39798835E+00 0.64022148E+03</pdfrwt>
<totfact> 0.28819334E-01</totfact>
</mgrwt>
</event>
<event>
12    1  0.1444206E-007  0.1230365E+04  0.7818608E-02  0.9086685E-01
          1   -1    0    0  501    0  0.00000000000E+00  0.00000000000E+00  0.17350873384E+04  0.17350873384E+04  0.00000000000E+00 0. -1.
         -1   -1    0    0    0  501 -0.00000000000E+00 -0.00000000000E+00 -0.11369303729E+04  0.11369303729E+04  0.00000000000E+00 0.  1.
         23    2    1    2    0    0 -0.10386075679E+04 -0.62342326301E+03  0.86854293393E+03  0.14934268208E+04  0.92707043490E+02 0.  0.
    5000000    2    1    2    0    0  0.10386075679E+04  0.62342326301E+03 -0.27038596840E+03  0.13785908906E+04  0.60003502117E+03 0.  0.
         23    2    4    4    0    0  0.12814395204E+03  0.19376724778E+03  0.14136612955E+03  0.28663832099E+03  0.90611951304E+02 0.  0.
         23    2    4    4    0    0  0.91046361588E+03  0.42965601523E+03 -0.41175209795E+03  0.10919525696E+04  0.96292973638E+02 0.  0.
          4    1    3    3  502    0 -0.66575445131E+03 -0.34811608349E+03  0.54795316369E+03  0.92987443595E+03  0.00000000000E+00 0. -1.
         -4    1    3    3    0  502 -0.37285311661E+03 -0.27530717952E+03  0.32058977023E+03  0.56355238482E+03  0.00000000000E+00 0.  1.
         11    1    5    5    0    0  0.92082508872E+02  0.16887181348E+03  0.73615936453E+02  0.20595189712E+03  0.00000000000E+00 0. -1.
        -11    1    5    5    0    0  0.36061443171E+02  0.24895434304E+02  0.67750193094E+02  0.80686423871E+02  0.00000000000E+00 0.  1.
          3    1    6    6  503    0  0.34645763242E+03  0.20602334527E+03 -0.13502693010E+03  0.42510090768E+03  0.00000000000E+00 0. -1.
         -3    1    6    6    0  503  0.56400598346E+03  0.22363266997E+03 -0.27672516785E+03  0.66685166190E+03  0.00000000000E+00 0.  1.
<mgrwt>
<rscale>  0 0.12303655E+04</rscale>
<asrwt>0</asrwt>
<pdfrwt beam="1">  1        1 0.26693651E+00 0.12303655E+04</pdfrwt>
<pdfrwt beam="2">  1       -1 0.17491237E+00 0.12303655E+04</pdfrwt>
<totfact> 0.99817333E-01</totfact>
</mgrwt>
</event>
<event>
12    1  0.1444206E-007  0.2454598E+04  0.7818608E-02  0.8419341E-01
          2   -1    0    0  501    0  0.00000000000E+00  0.00000000000E+00  0.30407661024E+04  0.30407661024E+04  0.00000000000E+00 0. -1.
         -2   -1    0    0    0  501 -0.00000000000E+00 -0.00000000000E+00 -0.21176235294E+04  0.21176235294E+04  0.00000000000E+00 0.  1.
         23    2    1    2    0    0  0.12937927952E+04  0.20616767436E+04  0.10408469790E+04  0.26487598481E+04  0.90307846109E+02 0.  0.
    5000000    2    1    2    0    0 -0.12937927952E+04 -0.20616767436E+04 -0.11770440600E+03  0.25096297837E+04  0.59998044298E+03 0.  0.
         23    2    4    4    0    0 -0.56035079880E+03 -0.12883830651E+04 -0.25600958730E+03  0.14309116617E+04  0.89684640524E+02 0.  0.
         23    2    4    4    0    0 -0.73344199643E+03 -0.77329367856E+03  0.13830518130E+03  0.10787181220E+04  0.92650894072E+02 0.  0.
          3    1    3    3  502    0  0.61184060020E+03  0.93089106800E+03  0.51808044444E+03  0.12285415937E+04  0.00000000000E+00 0. -1.
         -3    1    3    3    0  502  0.68195219503E+03  0.11307856756E+04  0.52276653452E+03  0.14202182544E+04  0.00000000000E+00 0.  1.
         11    1    5    5    0    0 -0.19896846510E+03 -0.36344516544E+03 -0.91901508941E+02  0.42441339014E+03  0.00000000000E+00 0.  1.
        -11    1    5    5    0    0 -0.36138233370E+03 -0.92493789963E+03 -0.16410807836E+03  0.10064982716E+04  0.00000000000E+00 0. -1.
          4    1    6    6  503    0 -0.42551490149E+03 -0.48957174508E+03  0.11967410877E+03  0.65959481295E+03  0.00000000000E+00 0. -1.
         -4    1    6    6    0  503 -0.30792709494E+03 -0.28372193348E+03  0.18631072529E+02  0.41912330906E+03  0.00000000000E+00 0.  1.
<mgrwt>
<rscale>  0 0.24545977E+04</rscale>
<asrwt>0</asrwt>
<pdfrwt beam="1">  1        2 0.46781017E+00 0.24545977E+04</pdfrwt>
<pdfrwt beam="2">  1       -2 0.32578823E+00 0.24545977E+04</pdfrwt>
<totfact> 0.30549175E-02</totfact>
</mgrwt>
</event>
<event>
12    1  0.1444206E-007  0.6499738E+03  0.7818608E-02  0.9806828E-01
          1   -1    0    0  501    0  0.00000000000E+00  0.00000000000E+00  0.40497317121E+03  0.40497317121E+03  0.00000000000E+00 0. -1.
         -1   -1    0    0    0  501 -0.00000000000E+00 -0.00000000000E+00 -0.14921461035E+04  0.14921461035E+04  0.00000000000E+00 0.  1.
         23    2    1    2    0    0 -0.41592539830E+03  0.35763841714E+03 -0.21024918563E+02  0.55642665851E+03  0.90936267438E+02 0.  0.
    5000000    2    1    2    0    0  0.41592539830E+03 -0.35763841714E+03 -0.10661480137E+04  0.13406926162E+04  0.59990493377E+03 0.  0.
         23    2    4    4    0    0  0.12147515140E+03 -0.42636412745E+03 -0.83618914552E+03  0.95075431773E+03  0.90437293202E+02 0.  0.
         23    2    4    4    0    0  0.29445024690E+03  0.68725710305E+02 -0.22995886818E+03  0.38993829845E+03  0.88014910002E+02 0.  0.
          4    1    3    3  502    0 -0.26511823654E+03  0.22086446056E+03  0.30519840873E+02  0.34641052232E+03  0.00000000000E+00 0. -1.
         -4    1    3    3    0  502 -0.15080716175E+03  0.13677395658E+03 -0.51544759436E+02  0.21001613619E+03  0.00000000000E+00 0.  1.
         13    1    5    5    0    0  0.88034743979E+02 -0.34572525524E+03 -0.73573150105E+03  0.81766552446E+03  0.00000000000E+00 0.  1.
        -13    1    5    5    0    0  0.33440407418E+02 -0.80638872206E+02 -0.10045764448E+03  0.13308879327E+03  0.00000000000E+00 0. -1.
          1    1    6    6  503    0  0.23011609725E+03  0.29787258711E+02 -0.13374092530E+03  0.26781959245E+03  0.00000000000E+00 0. -1.
         -1    1    6    6    0  503  0.64334149646E+02  0.38938451593E+02 -0.96217942880E+02  0.12211870600E+03  0.00000000000E+00 0.  1.
<mgrwt>
<rscale>  0 0.64997384E+03</rscale>
<asrwt>0</asrwt>
<pdfrwt beam="1">  1        1 0.62303564E-01 0.64997384E+03</pdfrwt>
<pdfrwt beam="2">  1       -1 0.22956094E+00 0.64997384E+03</pdfrwt>
<totfact> 0.59014081E+00</totfact>
</mgrwt>
</event>
<event>
12    1  0.1444206E-007  0.8247961E+03  0.7818608E-02  0.9524803E-01
          1   -1    0    0  501    0  0.00000000000E+00  0.00000000000E+00  0.23192679838E+04  0.23192679838E+04  0.00000000000E+00 0. -1.
         -1   -1    0    0    0  501 -0.00000000000E+00 -0.00000000000E+00 -0.36757425059E+03  0.36757425059E+03  0.00000000000E+00 0.  1.
         23    2    1    2    0    0 -0.71818420239E+03  0.37239962011E+03  0.10948178877E+04  0.13644188163E+04  0.92425502390E+02 0.  0.
    5000000    2    1    2    0    0  0.71818420239E+03 -0.37239962011E+03  0.85687584547E+03  0.13224234180E+04  0.60008120813E+03 0.  0.
         23    2    4    4    0    0  0.38460145143E+03 -0.28942621177E+03  0.83226611663E+03  0.96580409660E+03  0.91787012257E+02 0.  0.
         23    2    4    4    0    0  0.33358275097E+03 -0.82973408337E+02  0.24609728841E+02  0.35661932142E+03  0.91704217046E+02 0.  0.
          4    1    3    3  502    0 -0.43626140346E+03  0.26297766578E+03  0.73728152763E+03  0.89613911634E+03  0.00000000000E+00 0. -1.
         -4    1    3    3    0  502 -0.28192279893E+03  0.10942195432E+03  0.35753636006E+03  0.46827969997E+03  0.00000000000E+00 0.  1.
         11    1    5    5    0    0  0.32734063503E+03 -0.20415283482E+03  0.62485599644E+03  0.73435365294E+03  0.00000000000E+00 0. -1.
        -11    1    5    5    0    0  0.57260816401E+02 -0.85273376952E+02  0.20741012019E+03  0.23145044366E+03  0.00000000000E+00 0.  1.
          4    1    6    6  503    0  0.33090517948E+03 -0.72869730222E+02  0.10417944830E+02  0.33899375947E+03  0.00000000000E+00 0. -1.
         -4    1    6    6    0  503  0.26775714883E+01 -0.10103678115E+02  0.14191784011E+02  0.17625561947E+02  0.00000000000E+00 0.  1.
<mgrwt>
<rscale>  0 0.82479615E+03</rscale>
<asrwt>0</asrwt>
<pdfrwt beam="1">  1        1 0.35681045E+00 0.82479615E+03</pdfrwt>
<pdfrwt beam="2">  1       -1 0.56549886E-01 0.82479615E+03</pdfrwt>
<totfact> 0.59501992E+00</totfact>
</mgrwt>
</event>
<event>
12    1  0.1444206E-007  0.5039903E+03  0.7818608E-02  0.1012743E+00
         -1   -1    0    0    0  501 -0.00000000000E+00  0.00000000000E+00  0.61038780311E+03  0.61038780311E+03  0.00000000000E+00 0.  1.
          1   -1    0    0  501    0  0.00000000000E+00 -0.00000000000E+00 -0.67760425857E+03  0.67760425857E+03  0.00000000000E+00 0. -1.
         23    2    1    2    0    0  0.28506796264E+03 -0.27579612503E+03 -0.32792026205E+03  0.52289837363E+03  0.92540612570E+02 0.  0.
    5000000    2    1    2    0    0 -0.28506796264E+03  0.27579612503E+03  0.26070380659E+03  0.76509368805E+03  0.60006218912E+03 0.  0.
         23    2    4    4    0    0 -0.23556728000E+03 -0.71055378074E+02  0.30131814089E+03  0.40017384404E+03  0.93838548920E+02 0.  0.
         23    2    4    4    0    0 -0.49500682637E+02  0.34685150311E+03 -0.40614334296E+02  0.36491984401E+03  0.93598534242E+02 0.  0.
          2    1    3    3  502    0  0.94497565547E+02 -0.13625107235E+03 -0.17734248681E+03  0.24278488882E+03  0.00000000000E+00 0. -1.
         -2    1    3    3    0  502  0.19057039709E+03 -0.13954505269E+03 -0.15057777524E+03  0.28011348481E+03  0.00000000000E+00 0.  1.
         13    1    5    5    0    0 -0.10804999169E+02  0.54626350345E+00  0.66345696699E+02  0.67222004443E+02  0.00000000000E+00 0.  1.
        -13    1    5    5    0    0 -0.22476228083E+03 -0.71601641577E+02  0.23497244419E+03  0.33295183959E+03  0.00000000000E+00 0. -1.
          2    1    6    6  503    0  0.47698658263E+01  0.23386089010E+03 -0.50094858467E+02  0.23921363336E+03  0.00000000000E+00 0. -1.
         -2    1    6    6    0  503 -0.54270548463E+02  0.11299061300E+03  0.94805241715E+01  0.12570621065E+03  0.00000000000E+00 0.  1.
<mgrwt>
<rscale>  0 0.50399031E+03</rscale>
<asrwt>0</asrwt>
<pdfrwt beam="1">  1        1 0.10424681E+00 0.50399031E+03</pdfrwt>
<pdfrwt beam="2">  1       -1 0.93905816E-01 0.50399031E+03</pdfrwt>
<totfact> 0.33201083E+01</totfact>
</mgrwt>
</event>
<event>
12    1  0.1444206E-007  0.7943384E+03  0.7818608E-02  0.9568248E-01
         -1   -1    0    0    0  501 -0.00000000000E+00  0.00000000000E+00  0.30825627405E+03  0.30825627405E+03  0.00000000000E+00 0.  1.
          1   -1    0    0  501    0  0.00000000000E+00 -0.00000000000E+00 -0.28630872748E+04  0.28630872748E+04  0.00000000000E+00 0. -1.
         23    2    1    2    0    0 -0.78472705962E+03  0.24151214516E+02 -0.16579135385E+04  0.18367592365E+04  0.92883542900E+02 0.  0.
    5000000    2    1    2    0    0  0.78472705962E+03 -0.24151214516E+02 -0.89691746224E+03  0.13345843123E+04  0.60022871755E+03 0.  0.
         23    2    4    4    0    0  0.21254541434E+03 -0.65293797824E+02  0.31565269496E+02  0.23937801542E+03  0.82865160556E+02 0.  0.
         23    2    4    4    0    0  0.57218164528E+03  0.41142583308E+02 -0.92848273173E+03  0.10952062969E+04  0.91170731616E+02 0.  0.
          1    1    3    3  502    0 -0.21218721892E+03  0.18544759567E+02 -0.36237958563E+03  0.42034068095E+03  0.00000000000E+00 0. -1.
         -1    1    3    3    0  502 -0.57253984070E+03  0.56064549486E+01 -0.12955339529E+04  0.14164185556E+04  0.00000000000E+00 0.  1.
         11    1    5    5    0    0  0.38949180714E+02 -0.36279975568E+02 -0.18566243439E+02  0.56373581587E+02  0.00000000000E+00 0. -1.
        -11    1    5    5    0    0  0.17359623363E+03 -0.29013822256E+02  0.50131512935E+02  0.18300443383E+03  0.00000000000E+00 0.  1.
          4    1    6    6  503    0  0.47616917899E+03  0.40208692719E+02 -0.82952891503E+03  0.95732546548E+03  0.00000000000E+00 0. -1.
         -4    1    6    6    0  503  0.96012466285E+02  0.93389058889E+00 -0.98953816703E+02  0.13788083142E+03  0.00000000000E+00 0.  1.
<mgrwt>
<rscale>  0 0.79433841E+03</rscale>
<asrwt>0</asrwt>
<pdfrwt beam="1">  1        1 0.44047496E+00 0.79433841E+03</pdfrwt>
<pdfrwt beam="2">  1       -1 0.47424043E-01 0.79433841E+03</pdfrwt>
<totfact> 0.35299583E+00</totfact>
</mgrwt>
</event>
<event>
12    1  0.1444206E-007  0.1372962E+04  0.7818608E-02  0.8973626E-01
         -3   -1    0    0    0  501 -0.00000000000E+00  0.00000000000E+00  0.18583405571E+04  0.18583405571E+04  0.00000000000E+00 0.  1.
          3   -1    0    0  501    0  0.00000000000E+00 -0.00000000000E+00 -0.12053684378E+04  0.12053684378E+04  0.00000000000E+00 0. -1.
         23    2    1    2    0    0 -0.13259946108E+04 -0.30175910236E+03 -0.15501068070E+03  0.13719268502E+04  0.93993125266E+02 0.  0.
    5000000    2    1    2    0    0  0.13259946108E+04  0.30175910236E+03  0.80798280003E+03  0.16917821447E+04  0.59997529643E+03 0.  0.
         23    2    4    4    0    0  0.10465741092E+04  0.28724423966E+03  0.34354821666E+03  0.11423136124E+04  0.95017854454E+02 0.  0.
         23    2    4    4    0    0  0.27942050159E+03  0.14514862697E+02  0.46443458338E+03  0.54946853231E+03  0.89048794556E+02 0.  0.
          1    1    3    3  502    0 -0.67797527490E+03 -0.10719221782E+03 -0.88114350723E+02  0.69202946740E+03  0.00000000000E+00 0.  1.
         -1    1    3    3    0  502 -0.64801933586E+03 -0.19456688454E+03 -0.66896329980E+02  0.67989738282E+03  0.00000000000E+00 0. -1.
         11    1    5    5    0    0  0.64875060147E+03  0.13067792505E+03  0.21712277588E+03  0.69648859489E+03  0.00000000000E+00 0. -1.
        -11    1    5    5    0    0  0.39782350770E+03  0.15656631461E+03  0.12642544077E+03  0.44582501750E+03  0.00000000000E+00 0.  1.
          1    1    6    6  503    0  0.28399719767E+03  0.61212462223E+01  0.44971074019E+03  0.53191317692E+03  0.00000000000E+00 0. -1.
         -1    1    6    6    0  503 -0.45766960814E+01  0.83936164745E+01  0.14723843191E+02  0.17555355389E+02  0.00000000000E+00 0.  1.
<mgrwt>
<rscale>  0 0.13729617E+04</rscale>
<asrwt>0</asrwt>
<pdfrwt beam="1">  1        3 0.18544130E+00 0.13729617E+04</pdfrwt>
<pdfrwt beam="2">  1       -3 0.28589855E+00 0.13729617E+04</pdfrwt>
<totfact> 0.20332612E-02</totfact>
</mgrwt>
</event>
<event>
12    1  0.1444206E-007  0.1257117E+04  0.7818608E-02  0.9064281E-01
         -1   -1    0    0    0  501 -0.00000000000E+00  0.00000000000E+00  0.12131210703E+04  0.12131210703E+04  0.00000000000E+00 0.  1.
          1   -1    0    0  501    0  0.00000000000E+00 -0.00000000000E+00 -0.15792239951E+04  0.15792239951E+04  0.00000000000E+00 0. -1.
         23    2    1    2    0    0  0.26788046460E+03  0.11844289686E+04  0.34089052886E+03  0.12645536373E+04  0.90871470339E+02 0.  0.
    5000000    2    1    2    0    0 -0.26788046460E+03 -0.11844289686E+04 -0.70699345364E+03  0.15277914281E+04  0.59972908832E+03 0.  0.
         23    2    4    4    0    0  0.11849806412E+03 -0.33462189254E+03 -0.22455396045E+02  0.36690573801E+03  0.90010963798E+02 0.  0.
         23    2    4    4    0    0 -0.38637852872E+03 -0.84980707602E+03 -0.68453805760E+03  0.11608856901E+04  0.87194032065E+02 0.  0.
          1    1    3    3  502    0  0.21128843734E+03  0.88267654017E+03  0.21498822022E+03  0.93272751281E+03  0.00000000000E+00 0. -1.
         -1    1    3    3    0  502  0.56592027265E+02  0.30175242839E+03  0.12590230864E+03  0.33182612452E+03  0.00000000000E+00 0.  1.
         13    1    5    5    0    0  0.80232167739E+02 -0.99328449291E+02 -0.12817267093E+02  0.12832624016E+03  0.00000000000E+00 0. -1.
        -13    1    5    5    0    0  0.38265896382E+02 -0.23529344325E+03 -0.96381289514E+01  0.23857949785E+03  0.00000000000E+00 0.  1.
          3    1    6    6  503    0 -0.90687622313E+02 -0.19355742442E+03 -0.20367557627E+03  0.29524982940E+03  0.00000000000E+00 0. -1.
         -3    1    6    6    0  503 -0.29569090641E+03 -0.65624965161E+03 -0.48086248133E+03  0.86563586069E+03  0.00000000000E+00 0.  1.
<mgrwt>
<rscale>  0 0.12571169E+04</rscale>
<asrwt>0</asrwt>
<pdfrwt beam="1">  1        1 0.24295754E+00 0.12571169E+04</pdfrwt>
<pdfrwt beam="2">  1       -1 0.18663401E+00 0.12571169E+04</pdfrwt>
<totfact> 0.10474348E+00</totfact>
</mgrwt>
</event>
<event>
12    1  0.1444206E-007  0.5678346E+03  0.7818608E-02  0.9974482E-01
          2   -1    0    0  501    0  0.00000000000E+00  0.00000000000E+00  0.14000531091E+04  0.14000531091E+04  0.00000000000E+00 0. -1.
         -2   -1    0    0    0  501 -0.00000000000E+00 -0.00000000000E+00 -0.26087326308E+03  0.26087326308E+03  0.00000000000E+00 0.  1.
         23    2    1    2    0    0  0.39200851977E+03  0.19479664042E+03  0.30204534362E+03  0.54174544459E+03  0.10315195802E+03 0.  0.
    5000000    2    1    2    0    0 -0.39200851977E+03 -0.19479664042E+03  0.83713450237E+03  0.11191809276E+04  0.60012945509E+03 0.  0.
         23    2    4    4    0    0  0.59409227584E+02  0.12163098547E+03  0.31401129358E+03  0.35339209557E+03  0.89215064693E+02 0.  0.
         23    2    4    4    0    0 -0.45141774736E+03 -0.31642762590E+03  0.52312320879E+03  0.76578883199E+03  0.94181837765E+02 0.  0.
          1    1    3    3  502    0  0.74385715252E+02  0.17429983380E+01  0.26216594245E+02  0.78889685578E+02  0.00000000000E+00 0. -1.
         -1    1    3    3    0  502  0.31762280452E+03  0.19305364208E+03  0.27582874937E+03  0.46285575901E+03  0.00000000000E+00 0.  1.
         13    1    5    5    0    0  0.28770467192E+02  0.39648060135E+02  0.21816967455E+03  0.22360168906E+03  0.00000000000E+00 0.  1.
        -13    1    5    5    0    0  0.30638760392E+02  0.81982925339E+02  0.95841619023E+02  0.12979040651E+03  0.00000000000E+00 0. -1.
          4    1    6    6  503    0 -0.31295408016E+03 -0.19376857036E+03  0.39996316671E+03  0.54355961024E+03  0.00000000000E+00 0. -1.
         -4    1    6    6    0  503 -0.13846366719E+03 -0.12265905553E+03  0.12316004208E+03  0.22222922175E+03  0.00000000000E+00 0.  1.
<mgrwt>
<rscale>  0 0.56783457E+03</rscale>
<asrwt>0</asrwt>
<pdfrwt beam="1">  1        2 0.21539278E+00 0.56783457E+03</pdfrwt>
<pdfrwt beam="2">  1       -2 0.40134349E-01 0.56783457E+03</pdfrwt>
<totfact> 0.88180001E+01</totfact>
</mgrwt>
</event>
<event>
12    1  0.1444206E-007  0.8288693E+03  0.7818608E-02  0.9519145E-01
         -1   -1    0    0    0  501 -0.00000000000E+00  0.00000000000E+00  0.25746731849E+03  0.25746731849E+03  0.00000000000E+00 0.  1.
          1   -1    0    0  501    0  0.00000000000E+00 -0.00000000000E+00 -0.28269594110E+04  0.28269594110E+04  0.00000000000E+00 0. -1.
         23    2    1    2    0    0 -0.41083237674E+02 -0.73779052436E+03 -0.96671078721E+03  0.12202713964E+04  0.92248818754E+02 0.  0.
    5000000    2    1    2    0    0  0.41083237674E+02  0.73779052436E+03 -0.16027813053E+04  0.18641553331E+04  0.60012040703E+03 0.  0.
         23    2    4    4    0    0  0.15687479757E+02  0.80702645831E+03 -0.15072035156E+04  0.17121397619E+04  0.90677039742E+02 0.  0.
         23    2    4    4    0    0  0.25395757918E+02 -0.69235933944E+02 -0.95577789749E+02  0.15201557118E+03  0.92385393423E+02 0.  0.
          1    1    3    3  502    0 -0.41535891575E+02 -0.19379992613E+03 -0.21561142749E+03  0.29286845053E+03  0.00000000000E+00 0. -1.
         -1    1    3    3    0  502  0.45265390029E+00 -0.54399059823E+03 -0.75109935972E+03  0.92740294589E+03  0.00000000000E+00 0.  1.
         13    1    5    5    0    0  0.52627334596E+02  0.44957628673E+03 -0.86149072890E+03  0.97316738021E+03  0.00000000000E+00 0. -1.
        -13    1    5    5    0    0 -0.36939854839E+02  0.35745017158E+03 -0.64571278667E+03  0.73897238169E+03  0.00000000000E+00 0.  1.
          2    1    6    6  503    0  0.51157623545E+02 -0.48199217623E+02 -0.95721378702E+02  0.11875541826E+03  0.00000000000E+00 0. -1.
         -2    1    6    6    0  503 -0.25761865627E+02 -0.21036716321E+02  0.14358895283E+00  0.33260152915E+02  0.00000000000E+00 0.  1.
<mgrwt>
<rscale>  0 0.82886930E+03</rscale>
<asrwt>0</asrwt>
<pdfrwt beam="1">  1        1 0.43491683E+00 0.82886930E+03</pdfrwt>
<pdfrwt beam="2">  1       -1 0.39610357E-01 0.82886930E+03</pdfrwt>
<totfact> 0.51897831E+00</totfact>
</mgrwt>
</event>
<event>
12    1  0.1444206E-007  0.1302224E+04  0.7818608E-02  0.9027803E-01
         -2   -1    0    0    0  501 -0.00000000000E+00  0.00000000000E+00  0.13784307279E+04  0.13784307279E+04  0.00000000000E+00 0.  1.
          2   -1    0    0  501    0  0.00000000000E+00 -0.00000000000E+00 -0.18331535505E+04  0.18331535505E+04  0.00000000000E+00 0. -1.
         23    2    1    2    0    0  0.12335125986E+04  0.12659841401E+03  0.68874465363E+03  0.14213391133E+04  0.90858063092E+02 0.  0.
    5000000    2    1    2    0    0 -0.12335125986E+04 -0.12659841401E+03 -0.11434674761E+04  0.17902451651E+04  0.59989948548E+03 0.  0.
         23    2    4    4    0    0 -0.50823419597E+02 -0.15347784431E+03 -0.21262107614E+03  0.28239522304E+03  0.91656267119E+02 0.  0.
         23    2    4    4    0    0 -0.11826891791E+04  0.26879430293E+02 -0.93084640000E+03  0.15078499421E+04  0.87522736141E+02 0.  0.
          3    1    3    3  502    0  0.35192182597E+03  0.10195211846E+02  0.15944686706E+03  0.38649219572E+03  0.00000000000E+00 0. -1.
         -3    1    3    3    0  502  0.88159077268E+03  0.11640320217E+03  0.52929778657E+03  0.10348469176E+04  0.00000000000E+00 0.  1.
         13    1    5    5    0    0 -0.70056029903E+02 -0.10161889747E+03 -0.10779461061E+03  0.16387167456E+03  0.00000000000E+00 0. -1.
        -13    1    5    5    0    0  0.19232610306E+02 -0.51858946838E+02 -0.10482646554E+03  0.11852354847E+03  0.00000000000E+00 0.  1.
          2    1    6    6  503    0 -0.41107101001E+03 -0.18118879714E+02 -0.36367647646E+03  0.54915230001E+03  0.00000000000E+00 0. -1.
         -2    1    6    6    0  503 -0.77161816904E+03  0.44998310007E+02 -0.56716992354E+03  0.95869764205E+03  0.00000000000E+00 0.  1.
<mgrwt>
<rscale>  0 0.13022243E+04</rscale>
<asrwt>0</asrwt>
<pdfrwt beam="1">  1        2 0.28202362E+00 0.13022243E+04</pdfrwt>
<pdfrwt beam="2">  1       -2 0.21206627E+00 0.13022243E+04</pdfrwt>
<totfact> 0.88084550E-01</totfact>
</mgrwt>
</event>
<event>
12    1  0.1444206E-007  0.1193737E+04  0.7818608E-02  0.9118356E-01
          2   -1    0    0  501    0  0.00000000000E+00  0.00000000000E+00  0.25797220849E+04  0.25797220849E+04  0.00000000000E+00 0.  1.
         -2   -1    0    0    0  501 -0.00000000000E+00 -0.00000000000E+00 -0.63577050985E+03  0.63577050985E+03  0.00000000000E+00 0. -1.
         23    2    1    2    0    0 -0.47089552684E+03 -0.10645357177E+04  0.51176060143E+03  0.12748096025E+04  0.90893992344E+02 0.  0.
    5000000    2    1    2    0    0  0.47089552684E+03  0.10645357177E+04  0.14321909736E+04  0.19406829923E+04  0.60008382755E+03 0.  0.
         23    2    4    4    0    0  0.25352872194E+03  0.89594969214E+03  0.13419645241E+04  0.16358945591E+04  0.90992092712E+02 0.  0.
         23    2    4    4    0    0  0.21736680489E+03  0.16858602560E+03  0.90226449545E+02  0.30478843318E+03  0.95318418498E+02 0.  0.
          1    1    3    3  502    0 -0.98515223806E+02 -0.31990106891E+03  0.15981634079E+03  0.37092210233E+03  0.00000000000E+00 0. -1.
         -1    1    3    3    0  502 -0.37238030303E+03 -0.74463464883E+03  0.35194426064E+03  0.90388750014E+03  0.00000000000E+00 0.  1.
         13    1    5    5    0    0  0.69686495871E+02  0.26578201634E+03  0.32649258101E+03  0.42672437635E+03  0.00000000000E+00 0.  1.
        -13    1    5    5    0    0  0.18384222607E+03  0.63016767580E+03  0.10154719431E+04  0.12091701828E+04  0.00000000000E+00 0. -1.
          4    1    6    6  503    0  0.14657928712E+03  0.57891769228E+02  0.30787500921E+02  0.16057650690E+03  0.00000000000E+00 0. -1.
         -4    1    6    6    0  503  0.70787517774E+02  0.11069425637E+03  0.59438948624E+02  0.14421192627E+03  0.00000000000E+00 0.  1.
<mgrwt>
<rscale>  0 0.11937373E+04</rscale>
<asrwt>0</asrwt>
<pdfrwt beam="1">  1        2 0.39688032E+00 0.11937373E+04</pdfrwt>
<pdfrwt beam="2">  1       -2 0.97810849E-01 0.11937373E+04</pdfrwt>
<totfact> 0.26824571E+00</totfact>
</mgrwt>
</event>
<event>
12    1  0.1444206E-007  0.8603338E+03  0.7818608E-02  0.9476571E-01
          2   -1    0    0  501    0  0.00000000000E+00  0.00000000000E+00  0.24475853722E+04  0.24475853722E+04  0.00000000000E+00 0. -1.
         -2   -1    0    0    0  501 -0.00000000000E+00 -0.00000000000E+00 -0.51494643356E+03  0.51494643356E+03  0.00000000000E+00 0.  1.
         23    2    1    2    0    0 -0.74817665620E+03  0.35801908803E+03  0.70064162039E+02  0.83718237348E+03  0.89550898322E+02 0.  0.
    5000000    2    1    2    0    0  0.74817665620E+03 -0.35801908803E+03  0.18625747766E+04  0.21253494322E+04  0.59998286185E+03 0.  0.
         23    2    4    4    0    0  0.70594740835E+03 -0.26514030576E+03  0.10251645432E+04  0.12760578271E+04  0.93274393125E+02 0.  0.
         23    2    4    4    0    0  0.42229247855E+02 -0.92878782271E+02  0.83741023342E+03  0.84929160516E+03  0.98135386046E+02 0.  0.
          4    1    3    3  502    0 -0.26310387907E+03  0.14857046974E+03 -0.12490772533E+02  0.30241173102E+03  0.00000000000E+00 0. -1.
         -4    1    3    3    0  502 -0.48507277713E+03  0.20944861829E+03  0.82554934572E+02  0.53477064247E+03  0.00000000000E+00 0.  1.
         13    1    5    5    0    0  0.62248674681E+03 -0.20320704372E+03  0.86005194573E+03  0.10809589270E+04  0.00000000000E+00 0. -1.
        -13    1    5    5    0    0  0.83460661534E+02 -0.61933262043E+02  0.16511259742E+03  0.19509890004E+03  0.00000000000E+00 0.  1.
          2    1    6    6  503    0 -0.24676155318E+02 -0.35705322844E+02  0.14635507368E+03  0.15265513523E+03  0.00000000000E+00 0.  1.
         -2    1    6    6    0  503  0.66905403172E+02 -0.57173459427E+02  0.69105515973E+03  0.69663646993E+03  0.00000000000E+00 0. -1.
<mgrwt>
<rscale>  0 0.86033384E+03</rscale>
<asrwt>0</asrwt>
<pdfrwt beam="1">  1        2 0.37655159E+00 0.86033384E+03</pdfrwt>
<pdfrwt beam="2">  1       -2 0.79222530E-01 0.86033384E+03</pdfrwt>
<totfact> 0.54290652E+00</totfact>
</mgrwt>
</event>
<event>
12    1  0.1444206E-007  0.4915047E+03  0.7818608E-02  0.1016020E+00
         -2   -1    0    0    0  501 -0.00000000000E+00  0.00000000000E+00  0.10477098140E+03  0.10477098140E+03  0.00000000000E+00 0.  1.
          2   -1    0    0  501    0  0.00000000000E+00 -0.00000000000E+00 -0.34866032641E+04  0.34866032641E+04  0.00000000000E+00 0. -1.
         23    2    1    2    0    0 -0.38236452976E+03 -0.20084637214E+02 -0.19793385163E+04  0.20186143410E+04  0.10206306490E+03 0.  0.
    5000000    2    1    2    0    0  0.38236452976E+03  0.20084637214E+02 -0.14024937664E+04  0.15727599045E+04  0.59998243827E+03 0.  0.
         23    2    4    4    0    0  0.19532041382E+03 -0.19835362966E+03 -0.11276891966E+04  0.11648856160E+04  0.88211947065E+02 0.  0.
         23    2    4    4    0    0  0.18704411594E+03  0.21843826688E+03 -0.27480456976E+03  0.40787428857E+03  0.90239159846E+02 0.  0.
          3    1    3    3  502    0 -0.12834692676E+03  0.39620567247E+02 -0.74207305504E+03  0.75413204545E+03  0.00000000000E+00 0. -1.
         -3    1    3    3    0  502 -0.25401760300E+03 -0.59705204461E+02 -0.12372654613E+04  0.12644822955E+04  0.00000000000E+00 0.  1.
         11    1    5    5    0    0  0.19195706694E+03 -0.15771911571E+03 -0.90434016281E+03  0.93784538442E+03  0.00000000000E+00 0. -1.
        -11    1    5    5    0    0  0.33633468842E+01 -0.40634513953E+02 -0.22334903383E+03  0.22704023154E+03  0.00000000000E+00 0.  1.
          4    1    6    6  503    0  0.12838433882E+03  0.88399852741E+02 -0.11531544801E+03  0.19389359187E+03  0.00000000000E+00 0. -1.
         -4    1    6    6    0  503  0.58659777123E+02  0.13003841414E+03 -0.15948912175E+03  0.21398069670E+03  0.00000000000E+00 0.  1.
<mgrwt>
<rscale>  0 0.49150470E+03</rscale>
<asrwt>0</asrwt>
<pdfrwt beam="1">  1        2 0.53640052E+00 0.49150470E+03</pdfrwt>
<pdfrwt beam="2">  1       -2 0.16118612E-01 0.49150470E+03</pdfrwt>
<totfact> 0.29229011E+01</totfact>
</mgrwt>
</event>
<event>
12    1  0.1444206E-007  0.7663601E+03  0.7818608E-02  0.9610028E-01
         -2   -1    0    0    0  501 -0.00000000000E+00  0.00000000000E+00  0.83191947189E+03  0.83191947189E+03  0.00000000000E+00 0.  1.
          2   -1    0    0  501    0  0.00000000000E+00 -0.00000000000E+00 -0.11447518336E+04  0.11447518336E+04  0.00000000000E+00 0. -1.
         23    2    1    2    0    0 -0.51731392481E+03 -0.45113217334E+03 -0.70162257226E+03  0.98561693614E+03  0.89624640987E+02 0.  0.
    5000000    2    1    2    0    0  0.51731392481E+03  0.45113217334E+03  0.38879021051E+03  0.99105436941E+03  0.59991416112E+03 0.  0.
         23    2    4    4    0    0  0.59128476534E+03  0.31036796566E+03  0.14990053149E+03  0.69018368600E+03  0.89092105377E+02 0.  0.
         23    2    4    4    0    0 -0.73970840536E+02  0.14076420768E+03  0.23888967902E+03  0.30087068341E+03  0.90380539837E+02 0.  0.
          1    1    3    3  502    0 -0.30072419979E+03 -0.28599837073E+03 -0.47959154949E+03  0.63422248994E+03  0.00000000000E+00 0. -1.
         -1    1    3    3    0  502 -0.21658972502E+03 -0.16513380261E+03 -0.22203102277E+03  0.35139444620E+03  0.00000000000E+00 0.  1.
         11    1    5    5    0    0  0.29976927987E+03  0.11582901053E+03  0.97415261670E+02  0.33580904401E+03  0.00000000000E+00 0.  1.
        -11    1    5    5    0    0  0.29151548547E+03  0.19453895513E+03  0.52485269820E+02  0.35437464198E+03  0.00000000000E+00 0. -1.
          1    1    6    6  503    0 -0.49176360576E+02  0.14035465090E+03  0.16122310671E+03  0.21934136091E+03  0.00000000000E+00 0. -1.
         -1    1    6    6    0  503 -0.24794479960E+02  0.40955677979E+00  0.77666572312E+02  0.81529322504E+02  0.00000000000E+00 0.  1.
<mgrwt>
<rscale>  0 0.76636012E+03</rscale>
<asrwt>0</asrwt>
<pdfrwt beam="1">  1        2 0.17611566E+00 0.76636012E+03</pdfrwt>
<pdfrwt beam="2">  1       -2 0.12798761E+00 0.76636012E+03</pdfrwt>
<totfact> 0.93988109E+00</totfact>
</mgrwt>
</event>
<event>
12    1  0.1444206E-007  0.9840820E+03  0.7818608E-02  0.9326178E-01
          1   -1    0    0  501    0  0.00000000000E+00  0.00000000000E+00  0.37937063321E+04  0.37937063321E+04  0.00000000000E+00 0. -1.
         -1   -1    0    0    0  501 -0.00000000000E+00 -0.00000000000E+00 -0.42818197051E+03  0.42818197051E+03  0.00000000000E+00 0.  1.
         23    2    1    2    0    0 -0.39889293258E+03  0.85209777733E+03  0.28308241385E+04  0.29844685337E+04  0.91109448331E+02 0.  0.
    5000000    2    1    2    0    0  0.39889293258E+03 -0.85209777733E+03  0.53470022308E+03  0.12374197689E+04  0.60009762720E+03 0.  0.
         23    2    4    4    0    0  0.23848744051E+03 -0.80500671113E+03  0.59948775328E+03  0.10356753508E+04  0.91245830761E+02 0.  0.
         23    2    4    4    0    0  0.16040549208E+03 -0.47091066205E+02 -0.64787530209E+02  0.20174441815E+03  0.92498085275E+02 0.  0.
          1    1    3    3  502    0 -0.18999841699E+03  0.35520619735E+03  0.10870845349E+04  0.11593203299E+04  0.00000000000E+00 0. -1.
         -1    1    3    3    0  502 -0.20889451559E+03  0.49689157998E+03  0.17437396036E+04  0.18251482038E+04  0.00000000000E+00 0.  1.
         13    1    5    5    0    0  0.84676978336E+02 -0.38962251083E+03  0.32669385662E+03  0.51546558329E+03  0.00000000000E+00 0.  1.
        -13    1    5    5    0    0  0.15381046217E+03 -0.41538420030E+03  0.27279389666E+03  0.52020976749E+03  0.00000000000E+00 0. -1.
          1    1    6    6  503    0  0.11514824785E+03 -0.69141557427E+02 -0.69414886671E+02  0.15118895607E+03  0.00000000000E+00 0. -1.
         -1    1    6    6    0  503  0.45257244226E+02  0.22050491223E+02  0.46273564629E+01  0.50555462078E+02  0.00000000000E+00 0.  1.
<mgrwt>
<rscale>  0 0.98408199E+03</rscale>
<asrwt>0</asrwt>
<pdfrwt beam="1">  1        1 0.58364711E+00 0.98408199E+03</pdfrwt>
<pdfrwt beam="2">  1       -1 0.65874152E-01 0.98408199E+03</pdfrwt>
<totfact> 0.35424795E-01</totfact>
</mgrwt>
</event>
<event>
12    1  0.1444206E-007  0.1357047E+04  0.7818608E-02  0.8985511E-01
          2   -1    0    0  501    0  0.00000000000E+00  0.00000000000E+00  0.15616155162E+04  0.15616155162E+04  0.00000000000E+00 0. -1.
         -2   -1    0    0    0  501 -0.00000000000E+00 -0.00000000000E+00 -0.12869153101E+04  0.12869153101E+04  0.00000000000E+00 0.  1.
         23    2    1    2    0    0  0.94549663097E+03 -0.96253947712E+03  0.38635603751E+02  0.13529910173E+04  0.92983110069E+02 0.  0.
    5000000    2    1    2    0    0 -0.94549663097E+03  0.96253947712E+03  0.23606460239E+03  0.14955398091E+04  0.60038879050E+03 0.  0.
         23    2    4    4    0    0 -0.28729280371E+03  0.28256384076E+03  0.34568712871E+03  0.53846556463E+03  0.89811436737E+02 0.  0.
         23    2    4    4    0    0 -0.65820382726E+03  0.67997563636E+03 -0.10962252632E+03  0.95707424442E+03  0.91514298236E+02 0.  0.
          2    1    3    3  502    0  0.62597390653E+03 -0.67671109230E+03  0.59669036606E+02  0.92376492033E+03  0.00000000000E+00 0. -1.
         -2    1    3    3    0  502  0.31952272444E+03 -0.28582838482E+03 -0.21033432856E+02  0.42922609695E+03  0.00000000000E+00 0.  1.
         13    1    5    5    0    0 -0.60691104598E+02  0.11810931979E+03  0.11591930395E+03  0.17626828026E+03  0.00000000000E+00 0. -1.
        -13    1    5    5    0    0 -0.22660169912E+03  0.16445452097E+03  0.22976782476E+03  0.36219728437E+03  0.00000000000E+00 0.  1.
          2    1    6    6  503    0 -0.24365233748E+03  0.31660165004E+03 -0.44314491618E+02  0.40195377910E+03  0.00000000000E+00 0. -1.
         -2    1    6    6    0  503 -0.41455148977E+03  0.36337398633E+03 -0.65308034701E+02  0.55512046531E+03  0.00000000000E+00 0.  1.
<mgrwt>
<rscale>  0 0.13570470E+04</rscale>
<asrwt>0</asrwt>
<pdfrwt beam="1">  1        2 0.24024854E+00 0.13570470E+04</pdfrwt>
<pdfrwt beam="2">  1       -2 0.19798697E+00 0.13570470E+04</pdfrwt>
<totfact> 0.15336586E+00</totfact>
</mgrwt>
</event>
<event>
12    1  0.1444206E-007  0.1066751E+04  0.7818608E-02  0.9238219E-01
         -1   -1    0    0    0  501 -0.00000000000E+00  0.00000000000E+00  0.11940578152E+04  0.11940578152E+04  0.00000000000E+00 0.  1.
          1   -1    0    0  501    0  0.00000000000E+00 -0.00000000000E+00 -0.11020047629E+04  0.11020047629E+04  0.00000000000E+00 0. -1.
         23    2    1    2    0    0 -0.82921433511E+03 -0.65581711050E+03  0.18450473509E+03  0.10769326099E+04  0.89718186893E+02 0.  0.
    5000000    2    1    2    0    0  0.82921433511E+03  0.65581711050E+03 -0.92451682784E+02  0.12191299681E+04  0.60003172374E+03 0.  0.
         23    2    4    4    0    0  0.40628222737E+02  0.58111127963E+02  0.15616638264E+03  0.19443846427E+03  0.91601428179E+02 0.  0.
         23    2    4    4    0    0  0.78858611237E+03  0.59770598254E+03 -0.24861806543E+03  0.10246915038E+04  0.95190531976E+02 0.  0.
          4    1    3    3  502    0 -0.21040388438E+03 -0.21146795263E+03  0.32276979899E+02  0.30005048405E+03  0.00000000000E+00 0. -1.
         -4    1    3    3    0  502 -0.61881045073E+03 -0.44434915788E+03  0.15222775519E+03  0.77688212587E+03  0.00000000000E+00 0.  1.
         13    1    5    5    0    0  0.46267862957E+02  0.38555345663E+02  0.16235491128E+03  0.17316566357E+03  0.00000000000E+00 0.  1.
        -13    1    5    5    0    0 -0.56396402208E+01  0.19555782299E+02 -0.61885286357E+01  0.21272800705E+02  0.00000000000E+00 0. -1.
          3    1    6    6  503    0 -0.60142042881E+00 -0.16845451365E+01  0.18017603983E+01  0.25388460730E+01  0.00000000000E+00 0. -1.
         -3    1    6    6    0  503  0.78918753280E+03  0.59939052768E+03 -0.25041982583E+03  0.10221526578E+04  0.00000000000E+00 0.  1.
<mgrwt>
<rscale>  0 0.10667508E+04</rscale>
<asrwt>0</asrwt>
<pdfrwt beam="1">  1        1 0.16953919E+00 0.10667508E+04</pdfrwt>
<pdfrwt beam="2">  1       -1 0.18370120E+00 0.10667508E+04</pdfrwt>
<totfact> 0.24626928E+00</totfact>
</mgrwt>
</event>
<event>
12    1  0.1444206E-007  0.6546591E+03  0.7818608E-02  0.9798076E-01
          2   -1    0    0  501    0  0.00000000000E+00  0.00000000000E+00  0.17237914237E+04  0.17237914237E+04  0.00000000000E+00 0. -1.
         -2   -1    0    0    0  501 -0.00000000000E+00 -0.00000000000E+00 -0.33936191923E+03  0.33936191923E+03  0.00000000000E+00 0.  1.
         23    2    1    2    0    0  0.10621507849E+03  0.57729857351E+03  0.23312381514E+03  0.63823848352E+03  0.91904095551E+02 0.  0.
    5000000    2    1    2    0    0 -0.10621507849E+03 -0.57729857351E+03  0.11513056893E+04  0.14249148594E+04  0.60026850696E+03 0.  0.
         23    2    4    4    0    0 -0.20616862216E+03 -0.13538478326E+03  0.80659326283E+03  0.84836921077E+03  0.91121269957E+02 0.  0.
         23    2    4    4    0    0  0.99953543669E+02 -0.44191379025E+03  0.34471242650E+03  0.57654564865E+03  0.91102794103E+02 0.  0.
          1    1    3    3  502    0  0.24739535653E+02  0.18998999190E+03  0.12203586887E+03  0.22715852381E+03  0.00000000000E+00 0. -1.
         -1    1    3    3    0  502  0.81475542837E+02  0.38730858161E+03  0.11108794627E+03  0.41107995971E+03  0.00000000000E+00 0.  1.
         13    1    5    5    0    0 -0.98759930683E+02 -0.16775504911E+02  0.25288221317E+03  0.27200065296E+03  0.00000000000E+00 0.  1.
        -13    1    5    5    0    0 -0.10740869148E+03 -0.11860927835E+03  0.55371104966E+03  0.57636855781E+03  0.00000000000E+00 0. -1.
          4    1    6    6  503    0  0.84856079003E+02 -0.17580558258E+03  0.15756751484E+03  0.25086984423E+03  0.00000000000E+00 0.  1.
         -4    1    6    6    0  503  0.15097464666E+02 -0.26610820767E+03  0.18714491166E+03  0.32567580442E+03  0.00000000000E+00 0. -1.
<mgrwt>
<rscale>  0 0.65465913E+03</rscale>
<asrwt>0</asrwt>
<pdfrwt beam="1">  1        2 0.26519868E+00 0.65465913E+03</pdfrwt>
<pdfrwt beam="2">  1       -2 0.52209527E-01 0.65465913E+03</pdfrwt>
<totfact> 0.34240149E+01</totfact>
</mgrwt>
</event>
<event>
12    1  0.1444206E-007  0.5070822E+03  0.7818608E-02  0.1011947E+00
         -2   -1    0    0    0  501 -0.00000000000E+00  0.00000000000E+00  0.19816928094E+03  0.19816928094E+03  0.00000000000E+00 0.  1.
          2   -1    0    0  501    0  0.00000000000E+00 -0.00000000000E+00 -0.17685013099E+04  0.17685013099E+04  0.00000000000E+00 0. -1.
         23    2    1    2    0    0  0.35152165309E+03 -0.23746808264E+03 -0.74046630058E+03  0.85821719149E+03  0.91037589066E+02 0.  0.
    5000000    2    1    2    0    0 -0.35152165309E+03  0.23746808264E+03 -0.82986572839E+03  0.11084533993E+04  0.60002770645E+03 0.  0.
         23    2    4    4    0    0 -0.27504191379E+03  0.35065039029E+03 -0.82505502426E+03  0.94220213969E+03  0.91789587791E+02 0.  0.
         23    2    4    4    0    0 -0.76479739301E+02 -0.11318230765E+03 -0.48107041209E+01  0.16625125965E+03  0.94641181162E+02 0.  0.
          3    1    3    3  502    0  0.93478227986E+02 -0.10849458720E+03 -0.28740978735E+03  0.32111312714E+03  0.00000000000E+00 0.  1.
         -3    1    3    3    0  502  0.25804342510E+03 -0.12897349543E+03 -0.45305651323E+03  0.53710406435E+03  0.00000000000E+00 0. -1.
         11    1    5    5    0    0 -0.15089467498E+03  0.20256498313E+03 -0.55857174333E+03  0.61302868430E+03  0.00000000000E+00 0. -1.
        -11    1    5    5    0    0 -0.12414723881E+03  0.14808540716E+03 -0.26648328093E+03  0.32917345539E+03  0.00000000000E+00 0.  1.
          1    1    6    6  503    0 -0.57720594336E+02 -0.88034671257E+02  0.39088995699E+02  0.11229300930E+03  0.00000000000E+00 0. -1.
         -1    1    6    6    0  503 -0.18759144965E+02 -0.25147636397E+02 -0.43899699820E+02  0.53958250346E+02  0.00000000000E+00 0.  1.
<mgrwt>
<rscale>  0 0.50708222E+03</rscale>
<asrwt>0</asrwt>
<pdfrwt beam="1">  1        2 0.27207712E+00 0.50708222E+03</pdfrwt>
<pdfrwt beam="2">  1       -2 0.30487582E-01 0.50708222E+03</pdfrwt>
<totfact> 0.94113348E+01</totfact>
</mgrwt>
</event>
<event>
12    1  0.1444206E-007  0.2749298E+04  0.7818608E-02  0.8319184E-01
         -1   -1    0    0    0  501 -0.00000000000E+00  0.00000000000E+00  0.22883736859E+04  0.22883736859E+04  0.00000000000E+00 0.  1.
          1   -1    0    0  501    0  0.00000000000E+00 -0.00000000000E+00 -0.41252245699E+04  0.41252245699E+04  0.00000000000E+00 0. -1.
         23    2    1    2    0    0  0.11303959788E+04  0.24821910311E+04 -0.23169881172E+04  0.35799533747E+04  0.92546452789E+02 0.  0.
    5000000    2    1    2    0    0 -0.11303959788E+04 -0.24821910311E+04  0.48013723319E+03  0.28336448811E+04  0.59995346951E+03 0.  0.
         23    2    4    4    0    0 -0.19923760618E+03 -0.13800004170E+03  0.10767032971E+03  0.28226222434E+03  0.96640716912E+02 0.  0.
         23    2    4    4    0    0 -0.93115837262E+03 -0.23441909894E+04  0.37246690348E+03  0.25513826567E+04  0.92382667280E+02 0.  0.
          3    1    3    3  502    0  0.34843391588E+03  0.71340395852E+03 -0.62732386846E+03  0.10118728367E+04  0.00000000000E+00 0. -1.
         -3    1    3    3    0  502  0.78196206292E+03  0.17687870726E+04 -0.16896642488E+04  0.25680805380E+04  0.00000000000E+00 0.  1.
         13    1    5    5    0    0 -0.19755325472E+03 -0.12545896753E+03  0.72673894636E+02  0.24504843591E+03  0.00000000000E+00 0.  1.
        -13    1    5    5    0    0 -0.16843514609E+01 -0.12541074177E+02  0.34996435074E+02  0.37213788429E+02  0.00000000000E+00 0. -1.
          4    1    6    6  503    0 -0.13617520665E+03 -0.43925754299E+03  0.69648784737E+02  0.46512560582E+03  0.00000000000E+00 0.  1.
         -4    1    6    6    0  503 -0.79498316597E+03 -0.19049334464E+04  0.30281811875E+03  0.20862570509E+04  0.00000000000E+00 0. -1.
<mgrwt>
<rscale>  0 0.27492978E+04</rscale>
<asrwt>0</asrwt>
<pdfrwt beam="1">  1        1 0.63464993E+00 0.27492978E+04</pdfrwt>
<pdfrwt beam="2">  1       -1 0.35205749E+00 0.27492978E+04</pdfrwt>
<totfact> 0.90482244E-04</totfact>
</mgrwt>
</event>
<event>
12    1  0.1444206E-007  0.1029752E+04  0.7818608E-02  0.9276502E-01
          1   -1    0    0  501    0  0.00000000000E+00  0.00000000000E+00  0.14837971539E+04  0.14837971539E+04  0.00000000000E+00 0. -1.
         -1   -1    0    0    0  501 -0.00000000000E+00 -0.00000000000E+00 -0.76430360515E+03  0.76430360515E+03  0.00000000000E+00 0.  1.
         23    2    1    2    0    0 -0.96194448993E+03  0.13456073530E+03  0.21024622787E+03  0.99797536223E+03  0.91145784810E+02 0.  0.
    5000000    2    1    2    0    0  0.96194448993E+03 -0.13456073530E+03  0.50924732085E+03  0.12501253968E+04  0.60003073315E+03 0.  0.
         23    2    4    4    0    0  0.10142884649E+04 -0.16406528065E+03  0.48539183795E+03  0.11399685461E+04  0.90689268527E+02 0.  0.
         23    2    4    4    0    0 -0.52343974936E+02  0.29504545352E+02  0.23855482900E+02  0.11015685071E+03  0.89191018527E+02 0.  0.
          1    1    3    3  502    0 -0.52855599570E+03  0.58843271096E+02  0.71163177890E+02  0.53656143081E+03  0.00000000000E+00 0. -1.
         -1    1    3    3    0  502 -0.43338849424E+03  0.75717464202E+02  0.13908304998E+03  0.46141393143E+03  0.00000000000E+00 0.  1.
         11    1    5    5    0    0  0.40602707970E+03 -0.63768781326E+02  0.14547116219E+03  0.43598888283E+03  0.00000000000E+00 0. -1.
        -11    1    5    5    0    0  0.60826138517E+03 -0.10029649932E+03  0.33992067576E+03  0.70397966325E+03  0.00000000000E+00 0.  1.
          4    1    6    6  503    0 -0.30049141767E+02  0.14401301513E+02  0.57867068235E+02  0.66775339702E+02  0.00000000000E+00 0. -1.
         -4    1    6    6    0  503 -0.22294833169E+02  0.15103243839E+02 -0.34011585335E+02  0.43381511010E+02  0.00000000000E+00 0.  1.
<mgrwt>
<rscale>  0 0.10297522E+04</rscale>
<asrwt>0</asrwt>
<pdfrwt beam="1">  1        1 0.22827648E+00 0.10297522E+04</pdfrwt>
<pdfrwt beam="2">  1       -1 0.11758517E+00 0.10297522E+04</pdfrwt>
<totfact> 0.43746825E+00</totfact>
</mgrwt>
</event>
<event>
12    1  0.1444206E-007  0.8199750E+03  0.7818608E-02  0.9531546E-01
          1   -1    0    0  501    0  0.00000000000E+00  0.00000000000E+00  0.84897222224E+03  0.84897222224E+03  0.00000000000E+00 0. -1.
         -1   -1    0    0    0  501 -0.00000000000E+00 -0.00000000000E+00 -0.10486727705E+04  0.10486727705E+04  0.00000000000E+00 0.  1.
         23    2    1    2    0    0  0.38941519569E+03  0.63729212466E+03 -0.48873307244E+03  0.89694247433E+03  0.88658554981E+02 0.  0.
    5000000    2    1    2    0    0 -0.38941519569E+03 -0.63729212466E+03  0.28903252414E+03  0.10007025185E+04  0.60006689930E+03 0.  0.
         23    2    4    4    0    0 -0.29933802790E+03 -0.70640985001E+03  0.34439329662E+03  0.84597149155E+03  0.91885203525E+02 0.  0.
         23    2    4    4    0    0 -0.90077167783E+02  0.69117725344E+02 -0.55360772476E+02  0.15473102690E+03  0.89362852702E+02 0.  0.
          2    1    3    3  502    0  0.56765338360E+02  0.15476180674E+03 -0.87007060528E+02  0.18639675170E+03  0.00000000000E+00 0.  1.
         -2    1    3    3    0  502  0.33264985733E+03  0.48253031793E+03 -0.40172601191E+03  0.71054572263E+03  0.00000000000E+00 0. -1.
         13    1    5    5    0    0 -0.25524803181E+03 -0.60184829441E+03  0.25578000994E+03  0.70199454464E+03  0.00000000000E+00 0. -1.
        -13    1    5    5    0    0 -0.44089996095E+02 -0.10456155560E+03  0.88613286683E+02  0.14397694691E+03  0.00000000000E+00 0.  1.
          3    1    6    6  503    0 -0.28514663351E+02 -0.96116077695E+00 -0.54421941271E+02  0.61447193164E+02  0.00000000000E+00 0. -1.
         -3    1    6    6    0  503 -0.61562504433E+02  0.70078886121E+02 -0.93883120546E+00  0.93283833734E+02  0.00000000000E+00 0.  1.
<mgrwt>
<rscale>  0 0.81997503E+03</rscale>
<asrwt>0</asrwt>
<pdfrwt beam="1">  1        1 0.13061111E+00 0.81997503E+03</pdfrwt>
<pdfrwt beam="2">  1       -1 0.16133427E+00 0.81997503E+03</pdfrwt>
<totfact> 0.58706990E+00</totfact>
</mgrwt>
</event>
<event>
12    1  0.1444206E-007  0.6052043E+03  0.7818608E-02  0.9894667E-01
          1   -1    0    0  501    0  0.00000000000E+00  0.00000000000E+00  0.29850744058E+04  0.29850744058E+04  0.00000000000E+00 0. -1.
         -1   -1    0    0    0  501 -0.00000000000E+00 -0.00000000000E+00 -0.38210931099E+03  0.38210931099E+03  0.00000000000E+00 0.  1.
         23    2    1    2    0    0  0.50601230497E+03  0.17301351948E+03  0.24971734118E+04  0.25554333150E+04  0.91554617305E+02 0.  0.
    5000000    2    1    2    0    0 -0.50601230497E+03 -0.17301351948E+03  0.10579168300E+03  0.81175040181E+03  0.60146878884E+03 0.  0.
         23    2    4    4    0    0 -0.63133705949E+02 -0.21979448532E+03 -0.15007598315E+03  0.28934497238E+03  0.94351638671E+02 0.  0.
         23    2    4    4    0    0 -0.44287859903E+03  0.46780965844E+02  0.25586766615E+03  0.52240542943E+03  0.95442432282E+02 0.  0.
          1    1    3    3  502    0  0.17644990803E+03  0.48200692040E+02  0.66620165839E+03  0.69085637175E+03  0.00000000000E+00 0. -1.
         -1    1    3    3    0  502  0.32956239695E+03  0.12481282744E+03  0.18309717535E+04  0.18645769433E+04  0.00000000000E+00 0.  1.
         11    1    5    5    0    0 -0.32284667153E+02 -0.12236847983E+03 -0.13668653861E+03  0.18627816412E+03  0.00000000000E+00 0.  1.
        -11    1    5    5    0    0 -0.30849038795E+02 -0.97426005488E+02 -0.13389444533E+02  0.10306680826E+03  0.00000000000E+00 0. -1.
          4    1    6    6  503    0 -0.28285013696E+03  0.15445509881E+02  0.11086833950E+03  0.30419492510E+03  0.00000000000E+00 0. -1.
         -4    1    6    6    0  503 -0.16002846207E+03  0.31335455963E+02  0.14499932665E+03  0.21821050433E+03  0.00000000000E+00 0.  1.
<mgrwt>
<rscale>  0 0.60520429E+03</rscale>
<asrwt>0</asrwt>
<pdfrwt beam="1">  1        1 0.45924220E+00 0.60520429E+03</pdfrwt>
<pdfrwt beam="2">  1       -1 0.58786050E-01 0.60520429E+03</pdfrwt>
<totfact> 0.19979116E+00</totfact>
</mgrwt>
</event>
<event>
12    1  0.1444206E-007  0.2920046E+03  0.7818608E-02  0.1089307E+00
          2   -1    0    0  501    0  0.00000000000E+00  0.00000000000E+00  0.18661296754E+04  0.18661296754E+04  0.00000000000E+00 0. -1.
         -2   -1    0    0    0  501 -0.00000000000E+00 -0.00000000000E+00 -0.10803499386E+03  0.10803499386E+03  0.00000000000E+00 0.  1.
         23    2    1    2    0    0  0.94787000694E+02  0.19340729391E+03  0.70619476091E+03  0.74415330220E+03  0.93070618351E+02 0.  0.
    5000000    2    1    2    0    0 -0.94787000694E+02 -0.19340729391E+03  0.10518999206E+04  0.12300113671E+04  0.60003630162E+03 0.  0.
         23    2    4    4    0    0 -0.15172603988E+03 -0.17950072479E+03  0.10868571913E+04  0.11157478113E+04  0.91615079264E+02 0.  0.
         23    2    4    4    0    0  0.56939039187E+02 -0.13906569117E+02 -0.34957270670E+02  0.11426355578E+03  0.91644435498E+02 0.  0.
          2    1    3    3  502    0  0.92662961554E+02  0.10491693370E+03  0.51101676680E+03  0.52984160215E+03  0.00000000000E+00 0. -1.
         -2    1    3    3    0  502  0.21240391401E+01  0.88490360208E+02  0.19517799411E+03  0.21431170005E+03  0.00000000000E+00 0.  1.
         13    1    5    5    0    0 -0.14788353781E+03 -0.11420572892E+03  0.80297924970E+03  0.82443202554E+03  0.00000000000E+00 0.  1.
        -13    1    5    5    0    0 -0.38425020753E+01 -0.65294995866E+02  0.28387794161E+03  0.29131578577E+03  0.00000000000E+00 0. -1.
          2    1    6    6  503    0 -0.14184119555E+02 -0.27411585880E+02  0.54722189014E+01  0.31345326090E+02  0.00000000000E+00 0. -1.
         -2    1    6    6    0  503  0.71123158742E+02  0.13505016763E+02 -0.40429489571E+02  0.82918229686E+02  0.00000000000E+00 0.  1.
<mgrwt>
<rscale>  0 0.29200456E+03</rscale>
<asrwt>0</asrwt>
<pdfrwt beam="1">  1        2 0.28709685E+00 0.29200456E+03</pdfrwt>
<pdfrwt beam="2">  1       -2 0.16620770E-01 0.29200456E+03</pdfrwt>
<totfact> 0.25204305E+02</totfact>
</mgrwt>
</event>
<event>
12    1  0.1444206E-007  0.6531454E+03  0.7818608E-02  0.9800895E-01
          2   -1    0    0  501    0  0.00000000000E+00  0.00000000000E+00  0.11218590838E+04  0.11218590838E+04  0.00000000000E+00 0. -1.
         -2   -1    0    0    0  501 -0.00000000000E+00 -0.00000000000E+00 -0.83863891632E+03  0.83863891632E+03  0.00000000000E+00 0.  1.
         23    2    1    2    0    0  0.11967556688E+03 -0.51253397767E+03 -0.57809876516E+03  0.78634822321E+03  0.84451324947E+02 0.  0.
    5000000    2    1    2    0    0 -0.11967556688E+03  0.51253397767E+03  0.86131893264E+03  0.11741497769E+04  0.59978669153E+03 0.  0.
         23    2    4    4    0    0 -0.33042797602E+03  0.42479819092E+03  0.54148743381E+03  0.76889368815E+03  0.91393174597E+02 0.  0.
         23    2    4    4    0    0  0.21075240914E+03  0.87735786752E+02  0.31983149882E+03  0.40525608876E+03  0.99127007439E+02 0.  0.
          1    1    3    3  502    0  0.97184560214E+02 -0.49444554286E+03 -0.55233236568E+03  0.74765786010E+03  0.00000000000E+00 0. -1.
         -1    1    3    3    0  502  0.22491006669E+02 -0.18088434814E+02 -0.25766399480E+02  0.38690363104E+02  0.00000000000E+00 0.  1.
         13    1    5    5    0    0 -0.11809130545E+03  0.11712404335E+03  0.22028212873E+03  0.27602140169E+03  0.00000000000E+00 0. -1.
        -13    1    5    5    0    0 -0.21233667057E+03  0.30767414757E+03  0.32120530508E+03  0.49287228646E+03  0.00000000000E+00 0.  1.
          1    1    6    6  503    0  0.19052262894E+03  0.93643207547E+02  0.32019529850E+03  0.38417828106E+03  0.00000000000E+00 0. -1.
         -1    1    6    6    0  503  0.20229780195E+02 -0.59074207953E+01 -0.36379967545E+00  0.21077807699E+02  0.00000000000E+00 0.  1.
<mgrwt>
<rscale>  0 0.65314535E+03</rscale>
<asrwt>0</asrwt>
<pdfrwt beam="1">  1        2 0.17259371E+00 0.65314535E+03</pdfrwt>
<pdfrwt beam="2">  1       -2 0.12902137E+00 0.65314535E+03</pdfrwt>
<totfact> 0.96516980E+00</totfact>
</mgrwt>
</event>
<event>
12    1  0.1444206E-007  0.4375069E+03  0.7818608E-02  0.1031514E+00
          1   -1    0    0  501    0  0.00000000000E+00  0.00000000000E+00  0.18742317177E+04  0.18742317177E+04  0.00000000000E+00 0. -1.
         -1   -1    0    0    0  501 -0.00000000000E+00 -0.00000000000E+00 -0.19920635977E+03  0.19920635977E+03  0.00000000000E+00 0.  1.
         23    2    1    2    0    0  0.37386663551E+03  0.51207017785E+02  0.10830433643E+04  0.11499579417E+04  0.83796892058E+02 0.  0.
    5000000    2    1    2    0    0 -0.37386663551E+03 -0.51207017785E+02  0.59198199365E+03  0.92348013571E+03  0.59997871664E+03 0.  0.
         23    2    4    4    0    0 -0.42178779848E+02  0.91228790100E+02  0.52580941315E+03  0.54326044828E+03  0.92491264967E+02 0.  0.
         23    2    4    4    0    0 -0.33168785566E+03 -0.14243580789E+03  0.66172580501E+02  0.38021968743E+03  0.99415327472E+02 0.  0.
          1    1    3    3  502    0  0.23312730115E+03  0.29114160528E+02  0.54726591038E+03  0.59556355627E+03  0.00000000000E+00 0. -1.
         -1    1    3    3    0  502  0.14073933435E+03  0.22092857258E+02  0.53577745387E+03  0.55439438548E+03  0.00000000000E+00 0.  1.
         11    1    5    5    0    0 -0.42752540610E+02  0.10981575854E+03  0.46242198468E+03  0.47720160568E+03  0.00000000000E+00 0. -1.
        -11    1    5    5    0    0  0.57376076197E+00 -0.18586968437E+02  0.63387428474E+02  0.66058842600E+02  0.00000000000E+00 0.  1.
          1    1    6    6  503    0 -0.55187113299E+02 -0.28572679149E+02  0.51705678480E+02  0.80842393923E+02  0.00000000000E+00 0. -1.
         -1    1    6    6    0  503 -0.27650074236E+03 -0.11386312874E+03  0.14466902020E+02  0.29937729350E+03  0.00000000000E+00 0.  1.
<mgrwt>
<rscale>  0 0.43750692E+03</rscale>
<asrwt>0</asrwt>
<pdfrwt beam="1">  1        1 0.28834333E+00 0.43750692E+03</pdfrwt>
<pdfrwt beam="2">  1       -1 0.30647134E-01 0.43750692E+03</pdfrwt>
<totfact> 0.38768896E+01</totfact>
</mgrwt>
</event>
<event>
12    1  0.1444206E-007  0.8677493E+03  0.7818608E-02  0.9466819E-01
         -2   -1    0    0    0  501 -0.00000000000E+00  0.00000000000E+00  0.65002613943E+03  0.65002613943E+03  0.00000000000E+00 0. -1.
          2   -1    0    0  501    0  0.00000000000E+00 -0.00000000000E+00 -0.13838857204E+04  0.13838857204E+04  0.00000000000E+00 0.  1.
         23    2    1    2    0    0  0.27034408641E+03  0.79097115052E+03 -0.50854083247E+03  0.98062649634E+03  0.65522980881E+02 0.  0.
    5000000    2    1    2    0    0 -0.27034408641E+03 -0.79097115052E+03 -0.22531874849E+03  0.10532853635E+04  0.59993352337E+03 0.  0.
         23    2    4    4    0    0 -0.28970003475E+03 -0.71275240391E+03  0.23619520047E+02  0.77497691243E+03  0.89940167084E+02 0.  0.
         23    2    4    4    0    0  0.19355948337E+02 -0.78218746611E+02 -0.24893826854E+03  0.27830845104E+03  0.94828831699E+02 0.  0.
          1    1    3    3  502    0  0.63092441196E+02  0.27398189787E+03 -0.15780031231E+03  0.32240917335E+03  0.00000000000E+00 0. -1.
         -1    1    3    3    0  502  0.20725164522E+03  0.51698925265E+03 -0.35074052015E+03  0.65821732299E+03  0.00000000000E+00 0.  1.
         13    1    5    5    0    0 -0.25810833062E+03 -0.53780705669E+03  0.90439513339E+01  0.59660550921E+03  0.00000000000E+00 0. -1.
        -13    1    5    5    0    0 -0.31591704132E+02 -0.17494534722E+03  0.14575568713E+02  0.17837140322E+03  0.00000000000E+00 0.  1.
          3    1    6    6  503    0 -0.15549046689E+02  0.16158711516E+02 -0.63256496394E+02  0.67113792523E+02  0.00000000000E+00 0. -1.
         -3    1    6    6    0  503  0.34904995026E+02 -0.94377458127E+02 -0.18568177214E+03  0.21119465852E+03  0.00000000000E+00 0.  1.
<mgrwt>
<rscale>  0 0.86774930E+03</rscale>
<asrwt>0</asrwt>
<pdfrwt beam="1">  1        2 0.21290550E+00 0.86774930E+03</pdfrwt>
<pdfrwt beam="2">  1       -2 0.10000402E+00 0.86774930E+03</pdfrwt>
<totfact> 0.12309905E+01</totfact>
</mgrwt>
</event>
<event>
12    1  0.1444206E-007  0.1112263E+04  0.7818608E-02  0.9193322E-01
          1   -1    0    0  501    0  0.00000000000E+00  0.00000000000E+00  0.20007685464E+04  0.20007685464E+04  0.00000000000E+00 0. -1.
         -1   -1    0    0    0  501 -0.00000000000E+00 -0.00000000000E+00 -0.65430982582E+03  0.65430982582E+03  0.00000000000E+00 0.  1.
         23    2    1    2    0    0  0.10620557488E+04 -0.50663407307E+02  0.61338350680E+03  0.12310053710E+04  0.92766927420E+02 0.  0.
    5000000    2    1    2    0    0 -0.10620557488E+04  0.50663407307E+02  0.73307521377E+03  0.14240730012E+04  0.60004620598E+03 0.  0.
         23    2    4    4    0    0 -0.10697779094E+04  0.70086242714E+02  0.77654775779E+03  0.13269924541E+04  0.92442935987E+02 0.  0.
         23    2    4    4    0    0  0.77221606220E+01 -0.19422835406E+02 -0.43472544023E+02  0.97080547022E+02  0.84248989468E+02 0.  0.
          2    1    3    3  502    0  0.65714941836E+03 -0.56015953137E+02  0.33616780102E+03  0.74026477391E+03  0.00000000000E+00 0. -1.
         -2    1    3    3    0  502  0.40490633040E+03  0.53525458296E+01  0.27721570578E+03  0.49074059713E+03  0.00000000000E+00 0.  1.
         11    1    5    5    0    0 -0.79259336967E+03  0.17203391674E+02  0.59855316450E+03  0.99336101044E+03  0.00000000000E+00 0. -1.
        -11    1    5    5    0    0 -0.27718453971E+03  0.52882851040E+02  0.17799459330E+03  0.33363144371E+03  0.00000000000E+00 0.  1.
          1    1    6    6  503    0  0.35976309114E+02  0.16337024471E+02 -0.29829431946E+02  0.49507455966E+02  0.00000000000E+00 0. -1.
         -1    1    6    6    0  503 -0.28254148492E+02 -0.35759859878E+02 -0.13643112077E+02  0.47573091056E+02  0.00000000000E+00 0.  1.
<mgrwt>
<rscale>  0 0.11122626E+04</rscale>
<asrwt>0</asrwt>
<pdfrwt beam="1">  1        1 0.30781054E+00 0.11122626E+04</pdfrwt>
<pdfrwt beam="2">  1       -1 0.10066305E+00 0.11122626E+04</pdfrwt>
<totfact> 0.27842392E+00</totfact>
</mgrwt>
</event>
<event>
12    1  0.1444206E-007  0.5796017E+03  0.7818608E-02  0.9948654E-01
         -1   -1    0    0    0  501 -0.00000000000E+00  0.00000000000E+00  0.34925134829E+03  0.34925134829E+03  0.00000000000E+00 0.  1.
          1   -1    0    0  501    0  0.00000000000E+00 -0.00000000000E+00 -0.13525954181E+04  0.13525954181E+04  0.00000000000E+00 0. -1.
         23    2    1    2    0    0 -0.37188848283E+03 -0.40581568257E+03 -0.45239850380E+03  0.71843220729E+03  0.92157573483E+02 0.  0.
    5000000    2    1    2    0    0  0.37188848283E+03  0.40581568257E+03 -0.55094556604E+03  0.98341455912E+03  0.60047961370E+03 0.  0.
         23    2    4    4    0    0  0.32345319451E+03  0.38414098906E+03 -0.65895080392E+03  0.83288805769E+03  0.85440541569E+02 0.  0.
         23    2    4    4    0    0  0.48435288328E+02  0.21674693510E+02  0.10800523788E+03  0.15052650143E+03  0.90428572531E+02 0.  0.
          3    1    3    3  502    0 -0.19275558203E+03 -0.23346480332E+03 -0.30339268583E+03  0.42861130480E+03  0.00000000000E+00 0.  1.
         -3    1    3    3    0  502 -0.17913290081E+03 -0.17235087925E+03 -0.14900581797E+03  0.28982090249E+03  0.00000000000E+00 0. -1.
         13    1    5    5    0    0  0.19996235161E+03  0.28732209584E+03 -0.49133651459E+03  0.60328310053E+03  0.00000000000E+00 0. -1.
        -13    1    5    5    0    0  0.12349084290E+03  0.96818893223E+02 -0.16761428933E+03  0.22960495716E+03  0.00000000000E+00 0.  1.
          3    1    6    6  503    0  0.53841176372E+02  0.49141964849E+02  0.57745982503E+02  0.92996792835E+02  0.00000000000E+00 0. -1.
         -3    1    6    6    0  503 -0.54058880439E+01 -0.27467271340E+02  0.50259255376E+02  0.57529708598E+02  0.00000000000E+00 0.  1.
<mgrwt>
<rscale>  0 0.57960169E+03</rscale>
<asrwt>0</asrwt>
<pdfrwt beam="1">  1        1 0.20809161E+00 0.57960169E+03</pdfrwt>
<pdfrwt beam="2">  1       -1 0.53730976E-01 0.57960169E+03</pdfrwt>
<totfact> 0.30588127E+01</totfact>
</mgrwt>
</event>
<event>
12    1  0.1444206E-007  0.9845953E+03  0.7818608E-02  0.9325604E-01
          2   -1    0    0  501    0  0.00000000000E+00  0.00000000000E+00  0.23040286846E+04  0.23040286846E+04  0.00000000000E+00 0. -1.
         -2   -1    0    0    0  501 -0.00000000000E+00 -0.00000000000E+00 -0.74198407847E+03  0.74198407847E+03  0.00000000000E+00 0.  1.
         23    2    1    2    0    0  0.54950221587E+03 -0.75685539854E+03 -0.20197210816E+03  0.96129341316E+03  0.92247027959E+02 0.  0.
    5000000    2    1    2    0    0 -0.54950221587E+03  0.75685539854E+03  0.17640167143E+04  0.20847193499E+04  0.59959738163E+03 0.  0.
         23    2    4    4    0    0 -0.45073148539E+02  0.38919087102E+03  0.10935364349E+04  0.11643917218E+04  0.80529649102E+02 0.  0.
         23    2    4    4    0    0 -0.50442906733E+03  0.36766452751E+03  0.67048027936E+03  0.92032762815E+03  0.88505645935E+02 0.  0.
          2    1    3    3  502    0  0.36136379458E+03 -0.42270043217E+03 -0.13036220366E+03  0.57118626693E+03  0.00000000000E+00 0. -1.
         -2    1    3    3    0  502  0.18813842129E+03 -0.33415496637E+03 -0.71609904498E+02  0.39010714623E+03  0.00000000000E+00 0.  1.
         11    1    5    5    0    0 -0.62359617366E+02  0.19350258573E+03  0.53640463135E+03  0.57363917325E+03  0.00000000000E+00 0. -1.
        -11    1    5    5    0    0  0.17286468827E+02  0.19568828530E+03  0.55713180357E+03  0.59075254850E+03  0.00000000000E+00 0.  1.
          1    1    6    6  503    0 -0.11947035597E+03  0.13399470083E+03  0.20942806256E+03  0.27584027841E+03  0.00000000000E+00 0. -1.
         -1    1    6    6    0  503 -0.38495871136E+03  0.23366982668E+03  0.46105221680E+03  0.64448734974E+03  0.00000000000E+00 0.  1.
<mgrwt>
<rscale>  0 0.98459530E+03</rscale>
<asrwt>0</asrwt>
<pdfrwt beam="1">  1        2 0.35446595E+00 0.98459530E+03</pdfrwt>
<pdfrwt beam="2">  1       -2 0.11415140E+00 0.98459530E+03</pdfrwt>
<totfact> 0.27244150E+00</totfact>
</mgrwt>
</event>
<event>
12    1  0.1444206E-007  0.1035181E+04  0.7818608E-02  0.9270779E-01
          3   -1    0    0  501    0  0.00000000000E+00  0.00000000000E+00  0.11700602638E+04  0.11700602638E+04  0.00000000000E+00 0. -1.
         -3   -1    0    0    0  501 -0.00000000000E+00 -0.00000000000E+00 -0.23444095649E+04  0.23444095649E+04  0.00000000000E+00 0.  1.
         23    2    1    2    0    0 -0.77854548346E+03 -0.55867396003E+03  0.79168558657E+03  0.12465220455E+04  0.93816194977E+02 0.  0.
    5000000    2    1    2    0    0  0.77854548346E+03  0.55867396003E+03 -0.19660348877E+04  0.22679477832E+04  0.60003691935E+03 0.  0.
         23    2    4    4    0    0  0.60170070402E+03  0.66996511020E+03 -0.15570938944E+04  0.18008749533E+04  0.87819218905E+02 0.  0.
         23    2    4    4    0    0  0.17684477944E+03 -0.11129115018E+03 -0.40894099327E+03  0.46707282999E+03  0.85232015172E+02 0.  0.
          3    1    3    3  502    0 -0.49997356049E+03 -0.39882500569E+03  0.56528391857E+03  0.85356947869E+03  0.00000000000E+00 0. -1.
         -3    1    3    3    0  502 -0.27857192298E+03 -0.15984895434E+03  0.22640166799E+03  0.39295256679E+03  0.00000000000E+00 0.  1.
         13    1    5    5    0    0  0.37345907672E+03  0.40309669721E+03 -0.10320233445E+04  0.11692009292E+04  0.00000000000E+00 0.  1.
        -13    1    5    5    0    0  0.22824162730E+03  0.26686841299E+03 -0.52507054991E+03  0.63167402406E+03  0.00000000000E+00 0. -1.
          3    1    6    6  503    0  0.16264494311E+03 -0.10165912500E+03 -0.29515637736E+03  0.35200176465E+03  0.00000000000E+00 0. -1.
         -3    1    6    6    0  503  0.14199836323E+02 -0.96320251758E+01 -0.11378461591E+03  0.11507106534E+03  0.00000000000E+00 0.  1.
<mgrwt>
<rscale>  0 0.10351809E+04</rscale>
<asrwt>0</asrwt>
<pdfrwt beam="1">  1        3 0.18000927E+00 0.10351809E+04</pdfrwt>
<pdfrwt beam="2">  1       -3 0.36067839E+00 0.10351809E+04</pdfrwt>
<totfact> 0.87985502E-03</totfact>
</mgrwt>
</event>
<event>
12    1  0.1444206E-007  0.1055216E+04  0.7818608E-02  0.9249975E-01
         -1   -1    0    0    0  501 -0.00000000000E+00  0.00000000000E+00  0.61860166223E+03  0.61860166223E+03  0.00000000000E+00 0.  1.
          1   -1    0    0  501    0  0.00000000000E+00 -0.00000000000E+00 -0.19197007166E+04  0.19197007166E+04  0.00000000000E+00 0. -1.
         23    2    1    2    0    0  0.95442914254E+03 -0.31256150154E+03 -0.61009622908E+03  0.11795706432E+04  0.10266359283E+03 0.  0.
    5000000    2    1    2    0    0 -0.95442914254E+03  0.31256150154E+03 -0.69100282528E+03  0.13587317356E+04  0.60003111948E+03 0.  0.
         23    2    4    4    0    0 -0.95347638109E+03  0.20915838718E+03 -0.72189855240E+03  0.12178164682E+04  0.95262742606E+02 0.  0.
         23    2    4    4    0    0 -0.95276144275E+00  0.10340311436E+03  0.30895727124E+02  0.14091526733E+03  0.90606041739E+02 0.  0.
          4    1    3    3  502    0  0.31232890386E+03 -0.77477754294E+02 -0.14736418851E+03  0.35393269226E+03  0.00000000000E+00 0. -1.
         -4    1    3    3    0  502  0.64210023867E+03 -0.23508374724E+03 -0.46273204057E+03  0.82563795098E+03  0.00000000000E+00 0.  1.
         11    1    5    5    0    0 -0.82820185786E+03  0.15297779567E+03 -0.64164303301E+03  0.10587852970E+04  0.00000000000E+00 0. -1.
        -11    1    5    5    0    0 -0.12527452323E+03  0.56180591509E+02 -0.80255519388E+02  0.15903117124E+03  0.00000000000E+00 0.  1.
          4    1    6    6  503    0  0.32267478656E+02  0.27138752547E+02 -0.16381845341E+02  0.45233471295E+02  0.00000000000E+00 0. -1.
         -4    1    6    6    0  503 -0.33220240099E+02  0.76264361812E+02  0.47277572465E+02  0.95681796038E+02  0.00000000000E+00 0.  1.
<mgrwt>
<rscale>  0 0.10552159E+04</rscale>
<asrwt>0</asrwt>
<pdfrwt beam="1">  1        1 0.29533857E+00 0.10552159E+04</pdfrwt>
<pdfrwt beam="2">  1       -1 0.95169488E-01 0.10552159E+04</pdfrwt>
<totfact> 0.36136699E+00</totfact>
</mgrwt>
</event>
<event>
12    1  0.1444206E-007  0.1192141E+04  0.7818608E-02  0.9119763E-01
         -2   -1    0    0    0  501 -0.00000000000E+00  0.00000000000E+00  0.14276606336E+04  0.14276606336E+04  0.00000000000E+00 0.  1.
          2   -1    0    0  501    0  0.00000000000E+00 -0.00000000000E+00 -0.14371810011E+04  0.14371810011E+04  0.00000000000E+00 0. -1.
         23    2    1    2    0    0 -0.10547994066E+04 -0.50197189285E+03  0.70627899546E+03  0.13691884856E+04  0.10615799652E+03 0.  0.
    5000000    2    1    2    0    0  0.10547994066E+04  0.50197189285E+03 -0.71579936292E+03  0.14956531491E+04  0.60002670365E+03 0.  0.
         23    2    4    4    0    0  0.99739832757E+02  0.16646809166E+03  0.53460087368E+02  0.22080916905E+03  0.90769204125E+02 0.  0.
         23    2    4    4    0    0  0.95505957383E+03  0.33550380119E+03 -0.76925945028E+03  0.12748439800E+04  0.93624149757E+02 0.  0.
          3    1    3    3  502    0 -0.10787497089E+03 -0.34208591696E+02  0.10216294156E+03  0.15246148274E+03  0.00000000000E+00 0. -1.
         -3    1    3    3    0  502 -0.94692443570E+03 -0.46776330115E+03  0.60411605390E+03  0.12167270028E+04  0.00000000000E+00 0.  1.
         11    1    5    5    0    0  0.10650859294E+03  0.16367240802E+03  0.31677829419E+02  0.19782877039E+03  0.00000000000E+00 0. -1.
        -11    1    5    5    0    0 -0.67687601842E+01  0.27956836416E+01  0.21782257949E+02  0.22980398665E+02  0.00000000000E+00 0.  1.
          1    1    6    6  503    0  0.21197650538E+03  0.68818567646E+02 -0.21941968920E+03  0.31275395136E+03  0.00000000000E+00 0. -1.
         -1    1    6    6    0  503  0.74308306845E+03  0.26668523355E+03 -0.54983976108E+03  0.96209002868E+03  0.00000000000E+00 0.  1.
<mgrwt>
<rscale>  0 0.11921415E+04</rscale>
<asrwt>0</asrwt>
<pdfrwt beam="1">  1        2 0.22110477E+00 0.11921415E+04</pdfrwt>
<pdfrwt beam="2">  1       -2 0.21964010E+00 0.11921415E+04</pdfrwt>
<totfact> 0.13297909E+00</totfact>
</mgrwt>
</event>
<event>
12    1  0.1444206E-007  0.1126295E+04  0.7818608E-02  0.9179935E-01
         -2   -1    0    0    0  501 -0.00000000000E+00  0.00000000000E+00  0.10102809576E+04  0.10102809576E+04  0.00000000000E+00 0.  1.
          2   -1    0    0  501    0  0.00000000000E+00 -0.00000000000E+00 -0.12967304073E+04  0.12967304073E+04  0.00000000000E+00 0. -1.
         23    2    1    2    0    0  0.35905161587E+03 -0.10010910582E+04 -0.15807817503E+03  0.10791534968E+04  0.92098807989E+02 0.  0.
    5000000    2    1    2    0    0 -0.35905161587E+03  0.10010910582E+04 -0.12837127471E+03  0.12278578681E+04  0.60004532352E+03 0.  0.
         23    2    4    4    0    0 -0.48128366486E+03  0.67661915417E+03 -0.20743335220E+03  0.86069983479E+03  0.91258775777E+02 0.  0.
         23    2    4    4    0    0  0.12223204899E+03  0.32447190408E+03  0.79062077495E+02  0.36715803329E+03  0.91277154729E+02 0.  0.
          3    1    3    3  502    0  0.13437657786E+03 -0.45040758777E+03 -0.31498493970E+02  0.47107983922E+03  0.00000000000E+00 0. -1.
         -3    1    3    3    0  502  0.22467503801E+03 -0.55068347047E+03 -0.12657968106E+03  0.60807365755E+03  0.00000000000E+00 0.  1.
         13    1    5    5    0    0 -0.14349567295E+03  0.27226340274E+03 -0.93340675737E+02  0.32160667029E+03  0.00000000000E+00 0. -1.
        -13    1    5    5    0    0 -0.33778799191E+03  0.40435575142E+03 -0.11409267647E+03  0.53909316450E+03  0.00000000000E+00 0.  1.
          3    1    6    6  503    0  0.12848234105E+03  0.27773707239E+03  0.45726529382E+02  0.30941316849E+03  0.00000000000E+00 0. -1.
         -3    1    6    6    0  503 -0.62502920560E+01  0.46734831682E+02  0.33335548114E+02  0.57744864803E+02  0.00000000000E+00 0.  1.
<mgrwt>
<rscale>  0 0.11262952E+04</rscale>
<asrwt>0</asrwt>
<pdfrwt beam="1">  1        2 0.19949699E+00 0.11262952E+04</pdfrwt>
<pdfrwt beam="2">  1       -2 0.15542784E+00 0.11262952E+04</pdfrwt>
<totfact> 0.44288510E+00</totfact>
</mgrwt>
</event>
<event>
12    1  0.1444206E-007  0.7943481E+03  0.7818608E-02  0.9568234E-01
         -2   -1    0    0    0  501 -0.00000000000E+00  0.00000000000E+00  0.12629808127E+04  0.12629808127E+04  0.00000000000E+00 0.  1.
          2   -1    0    0  501    0  0.00000000000E+00 -0.00000000000E+00 -0.60692977712E+03  0.60692977712E+03  0.00000000000E+00 0. -1.
         23    2    1    2    0    0 -0.19591285252E+03  0.73970395463E+03  0.20483632817E+03  0.79830810275E+03  0.98965242840E+02 0.  0.
    5000000    2    1    2    0    0  0.19591285252E+03 -0.73970395463E+03  0.45121470736E+03  0.10716024870E+04  0.59932744955E+03 0.  0.
         23    2    4    4    0    0  0.10546583093E+03 -0.10127314979E+03 -0.11496873729E+03  0.20805321768E+03  0.93215012040E+02 0.  0.
         23    2    4    4    0    0  0.90447021588E+02 -0.63843080485E+03  0.56618344466E+03  0.86354926935E+03  0.96845708704E+02 0.  0.
          2    1    3    3  502    0 -0.14441092350E+03  0.35240762164E+03  0.10446124068E+03  0.39491492428E+03  0.00000000000E+00 0. -1.
         -2    1    3    3    0  502 -0.51501929018E+02  0.38729633299E+03  0.10037508749E+03  0.40339317847E+03  0.00000000000E+00 0.  1.
         11    1    5    5    0    0  0.55550771845E+01 -0.57957135959E+02 -0.14756640428E+02  0.60063690594E+02  0.00000000000E+00 0. -1.
        -11    1    5    5    0    0  0.99910753749E+02 -0.43316013827E+02 -0.10021209687E+03  0.14798952709E+03  0.00000000000E+00 0.  1.
          3    1    6    6  503    0  0.47050103878E+02 -0.54475363694E+03  0.49993036211E+03  0.74087826543E+03  0.00000000000E+00 0. -1.
         -3    1    6    6    0  503  0.43396917710E+02 -0.93677167909E+02  0.66253082548E+02  0.12267100391E+03  0.00000000000E+00 0.  1.
<mgrwt>
<rscale>  0 0.79434807E+03</rscale>
<asrwt>0</asrwt>
<pdfrwt beam="1">  1        2 0.93373812E-01 0.79434807E+03</pdfrwt>
<pdfrwt beam="2">  1       -2 0.19430474E+00 0.79434807E+03</pdfrwt>
<totfact> 0.71954382E+00</totfact>
</mgrwt>
</event>
<event>
12    1  0.1444206E-007  0.8337761E+03  0.7818608E-02  0.9512375E-01
         -2   -1    0    0    0  501 -0.00000000000E+00  0.00000000000E+00  0.61829593100E+03  0.61829593100E+03  0.00000000000E+00 0. -1.
          2   -1    0    0  501    0  0.00000000000E+00 -0.00000000000E+00 -0.28210493643E+04  0.28210493643E+04  0.00000000000E+00 0.  1.
         23    2    1    2    0    0 -0.73912978675E+03 -0.46260507280E+02  0.26667131013E+03  0.79236862693E+03  0.91003170810E+02 0.  0.
    5000000    2    1    2    0    0  0.73912978675E+03  0.46260507280E+02 -0.24694247434E+04  0.26469766684E+04  0.59997836897E+03 0.  0.
         23    2    4    4    0    0 -0.62114356453E+02  0.46488050224E+02 -0.16614690396E+03  0.20679116471E+03  0.95595292852E+02 0.  0.
         23    2    4    4    0    0  0.80124414320E+03 -0.22754294415E+00 -0.23032778395E+04  0.24401855037E+04  0.86164132219E+02 0.  0.
          4    1    3    3  502    0 -0.42187971663E+03 -0.61770813775E+02  0.18237397972E+03  0.46374389184E+03  0.00000000000E+00 0. -1.
         -4    1    3    3    0  502 -0.31725007012E+03  0.15510306496E+02  0.84297330417E+02  0.32862473509E+03  0.00000000000E+00 0.  1.
         13    1    5    5    0    0 -0.56374106011E+02 -0.16687137220E+02 -0.67565107515E+02  0.89563073477E+02  0.00000000000E+00 0.  1.
        -13    1    5    5    0    0 -0.57402504416E+01  0.63175187444E+02 -0.98581796449E+02  0.11722809124E+03  0.00000000000E+00 0. -1.
          1    1    6    6  503    0  0.53263128291E+03  0.49759242756E+01 -0.16490463928E+04  0.17329382127E+04  0.00000000000E+00 0. -1.
         -1    1    6    6    0  503  0.26861286029E+03 -0.52034672198E+01 -0.65423144664E+03  0.70724729095E+03  0.00000000000E+00 0.  1.
<mgrwt>
<rscale>  0 0.83377607E+03</rscale>
<asrwt>0</asrwt>
<pdfrwt beam="1">  1        2 0.43400759E+00 0.83377607E+03</pdfrwt>
<pdfrwt beam="2">  1       -2 0.95122451E-01 0.83377607E+03</pdfrwt>
<totfact> 0.21783395E+00</totfact>
</mgrwt>
</event>
<event>
12    1  0.1444206E-007  0.9970381E+03  0.7818608E-02  0.9311799E-01
         -1   -1    0    0    0  501 -0.00000000000E+00  0.00000000000E+00  0.87041622407E+03  0.87041622407E+03  0.00000000000E+00 0.  1.
          1   -1    0    0  501    0  0.00000000000E+00 -0.00000000000E+00 -0.17293740111E+04  0.17293740111E+04  0.00000000000E+00 0. -1.
         23    2    1    2    0    0 -0.86669983804E+03 -0.29281084316E+03 -0.11454129156E+04  0.14688697347E+04  0.93277815979E+02 0.  0.
    5000000    2    1    2    0    0  0.86669983804E+03  0.29281084316E+03  0.28645512861E+03  0.11309205005E+04  0.60001486532E+03 0.  0.
         23    2    4    4    0    0  0.99101040888E+02  0.28000542606E+03  0.14062435815E+02  0.31133010311E+03  0.92220529586E+02 0.  0.
         23    2    4    4    0    0  0.76759879715E+03  0.12805417102E+02  0.27239269280E+03  0.81959039739E+03  0.90325789783E+02 0.  0.
          4    1    3    3  502    0 -0.33080687318E+03 -0.15602183147E+03 -0.48497150327E+03  0.60743177248E+03  0.00000000000E+00 0. -1.
         -4    1    3    3    0  502 -0.53589296486E+03 -0.13678901169E+03 -0.66044141238E+03  0.86143796219E+03  0.00000000000E+00 0.  1.
         13    1    5    5    0    0  0.26204655587E+02  0.21765833112E+02 -0.22051628273E+02  0.40579671942E+02  0.00000000000E+00 0.  1.
        -13    1    5    5    0    0  0.72896385302E+02  0.25823959294E+03  0.36114064087E+02  0.27075043117E+03  0.00000000000E+00 0. -1.
          2    1    6    6  503    0  0.40228344680E+03  0.51175502250E+02  0.13484371797E+03  0.42735667993E+03  0.00000000000E+00 0. -1.
         -2    1    6    6    0  503  0.36531535035E+03 -0.38370085149E+02  0.13754897483E+03  0.39223371746E+03  0.00000000000E+00 0.  1.
<mgrwt>
<rscale>  0 0.99703805E+03</rscale>
<asrwt>0</asrwt>
<pdfrwt beam="1">  1        1 0.26605754E+00 0.99703805E+03</pdfrwt>
<pdfrwt beam="2">  1       -1 0.13391019E+00 0.99703805E+03</pdfrwt>
<totfact> 0.21577506E+00</totfact>
</mgrwt>
</event>
<event>
12    1  0.1444206E-007  0.6453338E+03  0.7818608E-02  0.9815575E-01
         -2   -1    0    0    0  501 -0.00000000000E+00  0.00000000000E+00  0.82792685796E+03  0.82792685796E+03  0.00000000000E+00 0.  1.
          2   -1    0    0  501    0  0.00000000000E+00 -0.00000000000E+00 -0.51816798431E+03  0.51816798431E+03  0.00000000000E+00 0. -1.
         23    2    1    2    0    0  0.24938069864E+03 -0.43584631947E+03  0.22960146982E+03  0.55958714957E+03  0.90929620972E+02 0.  0.
    5000000    2    1    2    0    0 -0.24938069864E+03  0.43584631947E+03  0.80157403829E+02  0.78650769270E+03  0.60001366170E+03 0.  0.
         23    2    4    4    0    0  0.17303965988E+03  0.23505447448E+03  0.19606082837E+02  0.30611908674E+03  0.90172983284E+02 0.  0.
         23    2    4    4    0    0 -0.42242035852E+03  0.20079184499E+03  0.60551320992E+02  0.48038860596E+03  0.91380665081E+02 0.  0.
          1    1    3    3  502    0  0.94677608128E+02 -0.88755263437E+02  0.69713626700E+02  0.14731373329E+03  0.00000000000E+00 0. -1.
         -1    1    3    3    0  502  0.15470309051E+03 -0.34709105603E+03  0.15988784312E+03  0.41227341628E+03  0.00000000000E+00 0.  1.
         11    1    5    5    0    0  0.12984976339E+03  0.10059828121E+03  0.93659197625E+01  0.16452566878E+03  0.00000000000E+00 0. -1.
        -11    1    5    5    0    0  0.43189896492E+02  0.13445619328E+03  0.10240163075E+02  0.14159341796E+03  0.00000000000E+00 0.  1.
          1    1    6    6  503    0 -0.17929684195E+03  0.39357028838E+02  0.71579834187E+01  0.18370511691E+03  0.00000000000E+00 0. -1.
         -1    1    6    6    0  503 -0.24312351658E+03  0.16143481615E+03  0.53393337573E+02  0.29668348905E+03  0.00000000000E+00 0.  1.
<mgrwt>
<rscale>  0 0.64533383E+03</rscale>
<asrwt>0</asrwt>
<pdfrwt beam="1">  1        2 0.79718152E-01 0.64533383E+03</pdfrwt>
<pdfrwt beam="2">  1       -2 0.12737336E+00 0.64533383E+03</pdfrwt>
<totfact> 0.27597765E+01</totfact>
</mgrwt>
</event>
<event>
12    1  0.1444206E-007  0.1388200E+04  0.7818608E-02  0.8962405E-01
         -1   -1    0    0    0  501 -0.00000000000E+00  0.00000000000E+00  0.71915554200E+03  0.71915554200E+03  0.00000000000E+00 0.  1.
          1   -1    0    0  501    0  0.00000000000E+00 -0.00000000000E+00 -0.28488224644E+04  0.28488224644E+04  0.00000000000E+00 0. -1.
         23    2    1    2    0    0 -0.10931524114E+04 -0.80996394419E+03 -0.85369095991E+03  0.16086296975E+04  0.88755074501E+02 0.  0.
    5000000    2    1    2    0    0  0.10931524114E+04  0.80996394419E+03 -0.12759759625E+04  0.19593483089E+04  0.59992278933E+03 0.  0.
         23    2    4    4    0    0  0.70532678165E+03  0.71783931228E+03 -0.62129868509E+03  0.11866213620E+04  0.96327843815E+02 0.  0.
         23    2    4    4    0    0  0.38782562978E+03  0.92124631909E+02 -0.65467727744E+03  0.77272694691E+03  0.98025149615E+02 0.  0.
          2    1    3    3  502    0 -0.61515821715E+03 -0.43554199725E+03 -0.52102730089E+03  0.91628920750E+03  0.00000000000E+00 0. -1.
         -2    1    3    3    0  502 -0.47799419428E+03 -0.37442194694E+03 -0.33266365902E+03  0.69234049004E+03  0.00000000000E+00 0.  1.
         11    1    5    5    0    0  0.35001188694E+03  0.36716821816E+03 -0.25730334487E+03  0.56879331282E+03  0.00000000000E+00 0. -1.
        -11    1    5    5    0    0  0.35531489471E+03  0.35067109412E+03 -0.36399534022E+03  0.61782804918E+03  0.00000000000E+00 0.  1.
          1    1    6    6  503    0  0.64353250364E+02 -0.18783254521E+02 -0.84427597234E+02  0.10780617170E+03  0.00000000000E+00 0. -1.
         -1    1    6    6    0  503  0.32347237942E+03  0.11090788643E+03 -0.57024968021E+03  0.66492077521E+03  0.00000000000E+00 0.  1.
<mgrwt>
<rscale>  0 0.13881997E+04</rscale>
<asrwt>0</asrwt>
<pdfrwt beam="1">  1        1 0.43828038E+00 0.13881997E+04</pdfrwt>
<pdfrwt beam="2">  1       -1 0.11063931E+00 0.13881997E+04</pdfrwt>
<totfact> 0.56097259E-01</totfact>
</mgrwt>
</event>
<event>
12    1  0.1444206E-007  0.5913634E+03  0.7818608E-02  0.9923488E-01
          2   -1    0    0  501    0  0.00000000000E+00  0.00000000000E+00  0.28842450502E+04  0.28842450502E+04  0.00000000000E+00 0. -1.
         -2   -1    0    0    0  501 -0.00000000000E+00 -0.00000000000E+00 -0.16435139777E+03  0.16435139777E+03  0.00000000000E+00 0.  1.
         23    2    1    2    0    0 -0.30325781034E+03  0.32155725334E+03  0.36980950173E+03  0.58320125981E+03  0.89444257343E+02 0.  0.
    5000000    2    1    2    0    0  0.30325781034E+03 -0.32155725334E+03  0.23500841507E+04  0.24653951882E+04  0.59992795539E+03 0.  0.
         23    2    4    4    0    0  0.11525087293E+03 -0.46562914310E+03  0.14381568492E+04  0.15187203795E+04  0.90128828748E+02 0.  0.
         23    2    4    4    0    0  0.18800693741E+03  0.14407188976E+03  0.91192730154E+03  0.94667480862E+03  0.92078618889E+02 0.  0.
          2    1    3    3  502    0 -0.10909514528E+03  0.18006336946E+03  0.16458514559E+03  0.26723180554E+03  0.00000000000E+00 0. -1.
         -2    1    3    3    0  502 -0.19416266506E+03  0.14149388388E+03  0.20522435614E+03  0.31596945427E+03  0.00000000000E+00 0.  1.
         13    1    5    5    0    0  0.12818333679E+03 -0.42788479071E+03  0.12836209736E+04  0.13591170537E+04  0.00000000000E+00 0. -1.
        -13    1    5    5    0    0 -0.12932463867E+02 -0.37744352393E+02  0.15453587559E+03  0.15960332579E+03  0.00000000000E+00 0.  1.
          1    1    6    6  503    0  0.17530089504E+03  0.15058188438E+03  0.89583432765E+03  0.92516185087E+03  0.00000000000E+00 0. -1.
         -1    1    6    6    0  503  0.12706042376E+02 -0.65099946181E+01  0.16092973882E+02  0.21512957751E+02  0.00000000000E+00 0.  1.
<mgrwt>
<rscale>  0 0.59136335E+03</rscale>
<asrwt>0</asrwt>
<pdfrwt beam="1">  1        2 0.44372997E+00 0.59136335E+03</pdfrwt>
<pdfrwt beam="2">  1       -2 0.25284833E-01 0.59136335E+03</pdfrwt>
<totfact> 0.31242341E+01</totfact>
</mgrwt>
</event>
<event>
12    1  0.1444206E-007  0.1172549E+04  0.7818608E-02  0.9137230E-01
          1   -1    0    0  501    0  0.00000000000E+00  0.00000000000E+00  0.13853190751E+04  0.13853190751E+04  0.00000000000E+00 0. -1.
         -1   -1    0    0    0  501 -0.00000000000E+00 -0.00000000000E+00 -0.12367628127E+04  0.12367628127E+04  0.00000000000E+00 0.  1.
         23    2    1    2    0    0  0.61147824950E+03  0.95395013677E+03  0.57108546578E+03  0.12722144408E+04  0.92002505385E+02 0.  0.
    5000000    2    1    2    0    0 -0.61147824950E+03 -0.95395013677E+03 -0.42252920335E+03  0.13498674470E+04  0.59973717900E+03 0.  0.
         23    2    4    4    0    0 -0.34573757772E+03 -0.85635945343E+03 -0.48252538675E+03  0.10460196202E+04  0.91871165020E+02 0.  0.
         23    2    4    4    0    0 -0.26574067177E+03 -0.97590683343E+02  0.59996183403E+02  0.30384782680E+03  0.92638618942E+02 0.  0.
          1    1    3    3  502    0  0.26602328761E+03  0.33291151607E+03  0.20913225575E+03  0.47469439377E+03  0.00000000000E+00 0. -1.
         -1    1    3    3    0  502  0.34545496188E+03  0.62103862070E+03  0.36195321004E+03  0.79752004699E+03  0.00000000000E+00 0.  1.
         13    1    5    5    0    0 -0.12648104858E+03 -0.36474441514E+03 -0.24806971776E+03  0.45888400375E+03  0.00000000000E+00 0. -1.
        -13    1    5    5    0    0 -0.21925652914E+03 -0.49161503829E+03 -0.23445566899E+03  0.58713561650E+03  0.00000000000E+00 0.  1.
          1    1    6    6  503    0 -0.71411504217E+02 -0.36833005176E+02 -0.23605459546E+02  0.83746587544E+02  0.00000000000E+00 0. -1.
         -1    1    6    6    0  503 -0.19432916755E+03 -0.60757678167E+02  0.83601642949E+02  0.22010123926E+03  0.00000000000E+00 0.  1.
<mgrwt>
<rscale>  0 0.11725490E+04</rscale>
<asrwt>0</asrwt>
<pdfrwt beam="1">  1        1 0.21312601E+00 0.11725490E+04</pdfrwt>
<pdfrwt beam="2">  1       -1 0.19027120E+00 0.11725490E+04</pdfrwt>
<totfact> 0.13608153E+00</totfact>
</mgrwt>
</event>
<event>
12    1  0.1444206E-007  0.1334823E+04  0.7818608E-02  0.9002397E-01
          1   -1    0    0  501    0  0.00000000000E+00  0.00000000000E+00  0.97003726634E+03  0.97003726634E+03  0.00000000000E+00 0. -1.
         -1   -1    0    0    0  501 -0.00000000000E+00 -0.00000000000E+00 -0.19673115279E+04  0.19673115279E+04  0.00000000000E+00 0.  1.
         23    2    1    2    0    0 -0.21481545620E+03  0.12967197449E+04 -0.45099874022E+03  0.13927387483E+04  0.93239371662E+02 0.  0.
    5000000    2    1    2    0    0  0.21481545620E+03 -0.12967197449E+04 -0.54627552135E+03  0.15446100459E+04  0.59981286388E+03 0.  0.
         23    2    4    4    0    0  0.22792757346E+03 -0.12365941853E+04 -0.32988032083E+03  0.13032330141E+04  0.92082056354E+02 0.  0.
         23    2    4    4    0    0 -0.13112117259E+02 -0.60125559556E+02 -0.21639520051E+03  0.24137703177E+03  0.87458436590E+02 0.  0.
          2    1    3    3  502    0 -0.15760413047E+03  0.83986939419E+03 -0.33569469089E+03  0.91810162114E+03  0.00000000000E+00 0. -1.
         -2    1    3    3    0  502 -0.57211325730E+02  0.45685035070E+03 -0.11530404933E+03  0.47463712720E+03  0.00000000000E+00 0.  1.
         11    1    5    5    0    0  0.81564476680E+02 -0.47288236410E+03 -0.17198413399E+03  0.50975389796E+03  0.00000000000E+00 0. -1.
        -11    1    5    5    0    0  0.14636309678E+03 -0.76371182123E+03 -0.15789618684E+03  0.79347911618E+03  0.00000000000E+00 0.  1.
          4    1    6    6  503    0  0.27365907503E+02 -0.47505348478E+02 -0.16954888690E+03  0.17819224471E+03  0.00000000000E+00 0. -1.
         -4    1    6    6    0  503 -0.40478024763E+02 -0.12620211077E+02 -0.46846313617E+02  0.63184787060E+02  0.00000000000E+00 0.  1.
<mgrwt>
<rscale>  0 0.13348233E+04</rscale>
<asrwt>0</asrwt>
<pdfrwt beam="1">  1        1 0.14923650E+00 0.13348233E+04</pdfrwt>
<pdfrwt beam="2">  1       -1 0.30266331E+00 0.13348233E+04</pdfrwt>
<totfact> 0.49156770E-01</totfact>
</mgrwt>
</event>
<event>
12    1  0.1444206E-007  0.8413336E+03  0.7818608E-02  0.9502043E-01
         -2   -1    0    0    0  501 -0.00000000000E+00  0.00000000000E+00  0.73642957390E+03  0.73642957390E+03  0.00000000000E+00 0.  1.
          2   -1    0    0  501    0  0.00000000000E+00 -0.00000000000E+00 -0.15060045396E+04  0.15060045396E+04  0.00000000000E+00 0. -1.
         23    2    1    2    0    0 -0.48476452533E+03 -0.65710007955E+03 -0.90260104143E+03  0.12206528076E+04  0.92344340421E+02 0.  0.
    5000000    2    1    2    0    0  0.48476452533E+03  0.65710007955E+03  0.13302607578E+03  0.10217813058E+04  0.59963650702E+03 0.  0.
         23    2    4    4    0    0  0.39807388744E+03  0.32254550800E+03 -0.17662506307E+03  0.54981978436E+03  0.92773691172E+02 0.  0.
         23    2    4    4    0    0  0.86690637892E+02  0.33455457155E+03  0.30965113884E+03  0.47196152148E+03  0.86149996659E+02 0.  0.
          1    1    3    3  502    0 -0.30890148277E+03 -0.45841632694E+03 -0.66231418000E+03  0.86268518470E+03  0.00000000000E+00 0. -1.
         -1    1    3    3    0  502 -0.17586304256E+03 -0.19868375261E+03 -0.24028686142E+03  0.35796762293E+03  0.00000000000E+00 0.  1.
         13    1    5    5    0    0  0.22613544351E+03  0.19330707377E+03 -0.54418805409E+02  0.30243391008E+03  0.00000000000E+00 0.  1.
        -13    1    5    5    0    0  0.17193844392E+03  0.12923843423E+03 -0.12220625766E+03  0.24738587428E+03  0.00000000000E+00 0. -1.
          4    1    6    6  503    0 -0.65258217464E+01  0.90091748245E+02  0.11299685726E+03  0.14466305404E+03  0.00000000000E+00 0. -1.
         -4    1    6    6    0  503  0.93216459638E+02  0.24446282330E+03  0.19665428158E+03  0.32729846744E+03  0.00000000000E+00 0.  1.
<mgrwt>
<rscale>  0 0.84133360E+03</rscale>
<asrwt>0</asrwt>
<pdfrwt beam="1">  1        2 0.23169300E+00 0.84133360E+03</pdfrwt>
<pdfrwt beam="2">  1       -2 0.11329686E+00 0.84133360E+03</pdfrwt>
<totfact> 0.77997755E+00</totfact>
</mgrwt>
</event>
<event>
12    1  0.1444206E-007  0.5696132E+03  0.7818608E-02  0.9970535E-01
         -1   -1    0    0    0  501 -0.00000000000E+00  0.00000000000E+00  0.10130642816E+04  0.10130642816E+04  0.00000000000E+00 0.  1.
          1   -1    0    0  501    0  0.00000000000E+00 -0.00000000000E+00 -0.60748339216E+03  0.60748339216E+03  0.00000000000E+00 0. -1.
         23    2    1    2    0    0 -0.97218965334E+02  0.48546389837E+03  0.63402808775E+03  0.80991396176E+03  0.94033427874E+02 0.  0.
    5000000    2    1    2    0    0  0.97218965334E+02 -0.48546389837E+03 -0.22844719831E+03  0.81063371200E+03  0.59984345356E+03 0.  0.
         23    2    4    4    0    0  0.24083821947E+03 -0.30080337517E+03 -0.35202372532E+03  0.52996964924E+03  0.91985908979E+02 0.  0.
         23    2    4    4    0    0 -0.14361925413E+03 -0.18466052320E+03  0.12357652702E+03  0.28066406277E+03  0.93675819257E+02 0.  0.
          4    1    3    3  502    0 -0.40230121741E+02  0.97212261323E+02  0.19120840778E+03  0.21824147556E+03  0.00000000000E+00 0. -1.
         -4    1    3    3    0  502 -0.56988843592E+02  0.38825163704E+03  0.44281967997E+03  0.59167248620E+03  0.00000000000E+00 0.  1.
         11    1    5    5    0    0  0.22126141092E+03 -0.23995311304E+03 -0.25692695127E+03  0.41538604539E+03  0.00000000000E+00 0. -1.
        -11    1    5    5    0    0  0.19576808551E+02 -0.60850262132E+02 -0.95096774052E+02  0.11458360384E+03  0.00000000000E+00 0.  1.
          3    1    6    6  503    0 -0.48594930666E+02 -0.13622409800E+03  0.81445045981E+02  0.16598725155E+03  0.00000000000E+00 0. -1.
         -3    1    6    6    0  503 -0.95024323466E+02 -0.48436425195E+02  0.42131481038E+02  0.11467681121E+03  0.00000000000E+00 0.  1.
<mgrwt>
<rscale>  0 0.56961317E+03</rscale>
<asrwt>0</asrwt>
<pdfrwt beam="1">  1        1 0.93458983E-01 0.56961317E+03</pdfrwt>
<pdfrwt beam="2">  1       -1 0.15585604E+00 0.56961317E+03</pdfrwt>
<totfact> 0.11177340E+01</totfact>
</mgrwt>
</event>
<event>
12    1  0.1444206E-007  0.6480500E+03  0.7818608E-02  0.9810445E-01
          2   -1    0    0  501    0  0.00000000000E+00  0.00000000000E+00  0.66873252121E+03  0.66873252121E+03  0.00000000000E+00 0. -1.
         -2   -1    0    0    0  501 -0.00000000000E+00 -0.00000000000E+00 -0.91190872651E+03  0.91190872651E+03  0.00000000000E+00 0.  1.
         23    2    1    2    0    0 -0.23888491786E+02 -0.51632137158E+03  0.31443707695E+03  0.61185550942E+03  0.91313034417E+02 0.  0.
    5000000    2    1    2    0    0  0.23888491786E+02  0.51632137158E+03 -0.55761328225E+03  0.96878573830E+03  0.60037889321E+03 0.  0.
         23    2    4    4    0    0  0.12429417912E+03 -0.82613274147E+02 -0.17983118717E+03  0.24923438958E+03  0.86628684858E+02 0.  0.
         23    2    4    4    0    0 -0.10040568733E+03  0.59893464573E+03 -0.37778209508E+03  0.71955134873E+03  0.78935544530E+02 0.  0.
          1    1    3    3  502    0 -0.10372779163E+02 -0.42548989557E+03  0.21619863667E+03  0.47737940496E+03  0.00000000000E+00 0. -1.
         -1    1    3    3    0  502 -0.13515712623E+02 -0.90831476010E+02  0.98238440285E+02  0.13447610446E+03  0.00000000000E+00 0.  1.
         13    1    5    5    0    0  0.30008402690E+02 -0.69834789267E+02 -0.64238549768E+02  0.99518808776E+02  0.00000000000E+00 0. -1.
        -13    1    5    5    0    0  0.94285776427E+02 -0.12778484880E+02 -0.11559263740E+03  0.14971558080E+03  0.00000000000E+00 0.  1.
          3    1    6    6  503    0 -0.77369113696E+02  0.41800545230E+03 -0.22142990568E+03  0.47931799573E+03  0.00000000000E+00 0. -1.
         -3    1    6    6    0  503 -0.23036573634E+02  0.18092919343E+03 -0.15635218940E+03  0.24023335300E+03  0.00000000000E+00 0.  1.
<mgrwt>
<rscale>  0 0.64805001E+03</rscale>
<asrwt>0</asrwt>
<pdfrwt beam="1">  1        2 0.10288193E+00 0.64805001E+03</pdfrwt>
<pdfrwt beam="2">  1       -2 0.14029365E+00 0.64805001E+03</pdfrwt>
<totfact> 0.15895518E+01</totfact>
</mgrwt>
</event>
<event>
12    1  0.1444206E-007  0.6067444E+03  0.7818608E-02  0.9891512E-01
         -2   -1    0    0    0  501 -0.00000000000E+00  0.00000000000E+00  0.23198780314E+03  0.23198780314E+03  0.00000000000E+00 0.  1.
          2   -1    0    0  501    0  0.00000000000E+00 -0.00000000000E+00 -0.17868182140E+04  0.17868182140E+04  0.00000000000E+00 0. -1.
         23    2    1    2    0    0  0.49903791659E+03 -0.41600825537E+01 -0.61810870616E+03  0.79958817851E+03  0.90701345668E+02 0.  0.
    5000000    2    1    2    0    0 -0.49903791659E+03  0.41600825537E+01 -0.93672170467E+03  0.12192178386E+04  0.59999036447E+03 0.  0.
         23    2    4    4    0    0  0.62059493146E+02  0.88336176788E+02 -0.26787927852E+02  0.14291549567E+03  0.89736196741E+02 0.  0.
         23    2    4    4    0    0 -0.56109740974E+03 -0.84176094234E+02 -0.90993377682E+03  0.10763023429E+04  0.92365237645E+02 0.  0.
          1    1    3    3  502    0  0.14754333794E+03 -0.39055203390E+02 -0.21426447953E+03  0.26306579532E+03  0.00000000000E+00 0. -1.
         -1    1    3    3    0  502  0.35149457865E+03  0.34895120836E+02 -0.40384422663E+03  0.53652238319E+03  0.00000000000E+00 0.  1.
         13    1    5    5    0    0  0.71773828638E+02  0.26093747175E+02 -0.23205931556E+02  0.79817801137E+02  0.00000000000E+00 0.  1.
        -13    1    5    5    0    0 -0.97143354922E+01  0.62242429613E+02 -0.35819962958E+01  0.63097694535E+02  0.00000000000E+00 0. -1.
          4    1    6    6  503    0 -0.22171653482E+03 -0.49088551801E+02 -0.28617513645E+03  0.36532740994E+03  0.00000000000E+00 0. -1.
         -4    1    6    6    0  503 -0.33938087492E+03 -0.35087542434E+02 -0.62375864036E+03  0.71097493298E+03  0.00000000000E+00 0.  1.
<mgrwt>
<rscale>  0 0.60674436E+03</rscale>
<asrwt>0</asrwt>
<pdfrwt beam="1">  1        2 0.27489510E+00 0.60674436E+03</pdfrwt>
<pdfrwt beam="2">  1       -2 0.35690433E-01 0.60674436E+03</pdfrwt>
<totfact> 0.67493366E+01</totfact>
</mgrwt>
</event>
<event>
12    1  0.1444206E-007  0.8608804E+03  0.7818608E-02  0.9475849E-01
          1   -1    0    0  501    0  0.00000000000E+00  0.00000000000E+00  0.37712383900E+04  0.37712383900E+04  0.00000000000E+00 0. -1.
         -1   -1    0    0    0  501 -0.00000000000E+00 -0.00000000000E+00 -0.22139237439E+03  0.22139237439E+03  0.00000000000E+00 0.  1.
         23    2    1    2    0    0 -0.77988203460E+03  0.87270608098E+02  0.11281723491E+04  0.13772362082E+04  0.90413368009E+02 0.  0.
    5000000    2    1    2    0    0  0.77988203460E+03 -0.87270608098E+02  0.24216736666E+04  0.26153945562E+04  0.59996099062E+03 0.  0.
         23    2    4    4    0    0  0.79944495939E+03 -0.19623071809E+03  0.18682397040E+04  0.20435389036E+04  0.90071757215E+02 0.  0.
         23    2    4    4    0    0 -0.19562924791E+02  0.10896011000E+03  0.55343396263E+03  0.57185565257E+03  0.92058257526E+02 0.  0.
          1    1    3    3  502    0 -0.17548722811E+03 -0.19707564320E+01  0.30849945101E+03  0.35492472778E+03  0.00000000000E+00 0. -1.
         -1    1    3    3    0  502 -0.60439480648E+03  0.89241364530E+02  0.81967289805E+03  0.10223114804E+04  0.00000000000E+00 0.  1.
         11    1    5    5    0    0  0.41736798319E+03 -0.12484091828E+03  0.10839558391E+04  0.11682215327E+04  0.00000000000E+00 0. -1.
        -11    1    5    5    0    0  0.38207697620E+03 -0.71389799816E+02  0.78428386488E+03  0.87531737100E+03  0.00000000000E+00 0.  1.
          4    1    6    6  503    0 -0.18946377494E+02  0.87951490102E+02  0.53876456031E+03  0.54622493652E+03  0.00000000000E+00 0. -1.
         -4    1    6    6    0  503 -0.61654729709E+00  0.21008619894E+02  0.14669402321E+02  0.25630716043E+02  0.00000000000E+00 0.  1.
<mgrwt>
<rscale>  0 0.86088045E+03</rscale>
<asrwt>0</asrwt>
<pdfrwt beam="1">  1        1 0.58019047E+00 0.86088045E+03</pdfrwt>
<pdfrwt beam="2">  1       -1 0.34060368E-01 0.86088045E+03</pdfrwt>
<totfact> 0.13149168E+00</totfact>
</mgrwt>
</event>
<event>
12    1  0.1444206E-007  0.9910891E+03  0.7818608E-02  0.9318372E-01
          2   -1    0    0  501    0  0.00000000000E+00  0.00000000000E+00  0.10863718250E+04  0.10863718250E+04  0.00000000000E+00 0. -1.
         -2   -1    0    0    0  501 -0.00000000000E+00 -0.00000000000E+00 -0.10060016558E+04  0.10060016558E+04  0.00000000000E+00 0.  1.
         23    2    1    2    0    0  0.91553768744E+03  0.27768596054E+03  0.15989375085E+02  0.96144387300E+03  0.93807840839E+02 0.  0.
    5000000    2    1    2    0    0 -0.91553768744E+03 -0.27768596054E+03  0.64380794075E+02  0.11309296078E+04  0.59961499418E+03 0.  0.
         23    2    4    4    0    0 -0.63718238705E+03 -0.25897309947E+02 -0.18728272653E+03  0.67068063607E+03  0.89808857671E+02 0.  0.
         23    2    4    4    0    0 -0.27835530039E+03 -0.25178865059E+03  0.25166352061E+03  0.46024897168E+03  0.87266204835E+02 0.  0.
          4    1    3    3  502    0  0.52336428135E+03  0.13274599300E+03 -0.30318329528E+02  0.54078726941E+03  0.00000000000E+00 0.  1.
         -4    1    3    3    0  502  0.39217340610E+03  0.14493996754E+03  0.46307704614E+02  0.42065660359E+03  0.00000000000E+00 0. -1.
         13    1    5    5    0    0 -0.45097948216E+03 -0.58958537879E+02 -0.12780067915E+03  0.47243159940E+03  0.00000000000E+00 0.  1.
        -13    1    5    5    0    0 -0.18620290489E+03  0.33061227932E+02 -0.59482047380E+02  0.19824903668E+03  0.00000000000E+00 0. -1.
          3    1    6    6  503    0 -0.10426070929E+03 -0.13498628142E+03  0.15050991935E+03  0.22747489421E+03  0.00000000000E+00 0. -1.
         -3    1    6    6    0  503 -0.17409459110E+03 -0.11680236917E+03  0.10115360126E+03  0.23277407747E+03  0.00000000000E+00 0.  1.
<mgrwt>
<rscale>  0 0.99108912E+03</rscale>
<asrwt>0</asrwt>
<pdfrwt beam="1">  1        2 0.16713413E+00 0.99108912E+03</pdfrwt>
<pdfrwt beam="2">  1       -2 0.15476948E+00 0.99108912E+03</pdfrwt>
<totfact> 0.60738755E+00</totfact>
</mgrwt>
</event>
<event>
12    1  0.1444206E-007  0.8480759E+03  0.7818608E-02  0.9492923E-01
         -1   -1    0    0    0  501 -0.00000000000E+00  0.00000000000E+00  0.84511873945E+03  0.84511873945E+03  0.00000000000E+00 0.  1.
          1   -1    0    0  501    0  0.00000000000E+00 -0.00000000000E+00 -0.10863277315E+04  0.10863277315E+04  0.00000000000E+00 0. -1.
         23    2    1    2    0    0 -0.11495811969E+03  0.77500573705E+03  0.25235953423E+03  0.82815800205E+03  0.91165125444E+02 0.  0.
    5000000    2    1    2    0    0  0.11495811969E+03 -0.77500573705E+03 -0.49356852630E+03  0.11032884689E+04  0.59982188502E+03 0.  0.
         23    2    4    4    0    0 -0.13120361664E+03 -0.53822002810E+03 -0.93228778604E+02  0.56924365772E+03  0.91932306763E+02 0.  0.
         23    2    4    4    0    0  0.24616173633E+03 -0.23678570895E+03 -0.40033974769E+03  0.53404481120E+03  0.90933351343E+02 0.  0.
          4    1    3    3  502    0 -0.17674866012E+02  0.88434787777E+02  0.60771538032E+02  0.10874875821E+03  0.00000000000E+00 0.  1.
         -4    1    3    3    0  502 -0.97283253682E+02  0.68657094928E+03  0.19158799620E+03  0.71940924384E+03  0.00000000000E+00 0. -1.
         11    1    5    5    0    0 -0.11607461284E+03 -0.32013885641E+03 -0.82456679685E+02  0.35037309707E+03  0.00000000000E+00 0.  1.
        -11    1    5    5    0    0 -0.15129003799E+02 -0.21808117169E+03 -0.10772098919E+02  0.21887056065E+03  0.00000000000E+00 0. -1.
          2    1    6    6  503    0  0.22861983782E+03 -0.17148799506E+03 -0.31998406645E+03  0.42902793088E+03  0.00000000000E+00 0. -1.
         -2    1    6    6    0  503  0.17541898510E+02 -0.65297713898E+02 -0.80355681243E+02  0.10501688032E+03  0.00000000000E+00 0.  1.
<mgrwt>
<rscale>  0 0.84807594E+03</rscale>
<asrwt>0</asrwt>
<pdfrwt beam="1">  1        1 0.16712734E+00 0.84807594E+03</pdfrwt>
<pdfrwt beam="2">  1       -1 0.13001827E+00 0.84807594E+03</pdfrwt>
<totfact> 0.67224475E+00</totfact>
</mgrwt>
</event>
<event>
12    1  0.1444206E-007  0.8417390E+03  0.7818608E-02  0.9501492E-01
         -1   -1    0    0    0  501 -0.00000000000E+00  0.00000000000E+00  0.47508545752E+03  0.47508545752E+03  0.00000000000E+00 0.  1.
          1   -1    0    0  501    0  0.00000000000E+00 -0.00000000000E+00 -0.15344055153E+04  0.15344055153E+04  0.00000000000E+00 0. -1.
         23    2    1    2    0    0  0.42130330140E+03 -0.61420940284E+03 -0.48179256795E+03  0.89223818401E+03  0.95996021574E+02 0.  0.
    5000000    2    1    2    0    0 -0.42130330140E+03  0.61420940284E+03 -0.57752748979E+03  0.11172527888E+04  0.59997177455E+03 0.  0.
         23    2    4    4    0    0  0.12561123654E+03  0.24186337885E+03 -0.19278290714E+03  0.34661753029E+03  0.93286581247E+02 0.  0.
         23    2    4    4    0    0 -0.54691453794E+03  0.37234602399E+03 -0.38474458265E+03  0.77063525849E+03  0.89962405238E+02 0.  0.
          3    1    3    3  502    0  0.29408545262E+03 -0.36841614607E+03 -0.26584044411E+03  0.54119114170E+03  0.00000000000E+00 0. -1.
         -3    1    3    3    0  502  0.12721784878E+03 -0.24579325677E+03 -0.21595212384E+03  0.35104704231E+03  0.00000000000E+00 0.  1.
         11    1    5    5    0    0  0.10665362392E+03  0.22139088682E+03 -0.13021336059E+03  0.27810868296E+03  0.00000000000E+00 0.  1.
        -11    1    5    5    0    0  0.18957612621E+02  0.20472492037E+02 -0.62569546555E+02  0.68508847330E+02  0.00000000000E+00 0. -1.
          4    1    6    6  503    0 -0.45101699698E+03  0.31034614310E+03 -0.27669788987E+03  0.61342707991E+03  0.00000000000E+00 0.  1.
         -4    1    6    6    0  503 -0.95897540959E+02  0.61999880885E+02 -0.10804669278E+03  0.15720817858E+03  0.00000000000E+00 0. -1.
<mgrwt>
<rscale>  0 0.84173903E+03</rscale>
<asrwt>0</asrwt>
<pdfrwt beam="1">  1        1 0.23606239E+00 0.84173903E+03</pdfrwt>
<pdfrwt beam="2">  1       -1 0.73090070E-01 0.84173903E+03</pdfrwt>
<totfact> 0.11976065E+01</totfact>
</mgrwt>
</event>
<event>
12    1  0.1444206E-007  0.1313810E+04  0.7818608E-02  0.9018685E-01
          2   -1    0    0  501    0  0.00000000000E+00  0.00000000000E+00  0.12662154024E+04  0.12662154024E+04  0.00000000000E+00 0. -1.
         -2   -1    0    0    0  501 -0.00000000000E+00 -0.00000000000E+00 -0.15070467491E+04  0.15070467491E+04  0.00000000000E+00 0.  1.
         23    2    1    2    0    0 -0.10627756493E+04  0.75132334778E+03 -0.28871238066E+03  0.13392649822E+04  0.12765970410E+03 0.  0.
    5000000    2    1    2    0    0  0.10627756493E+04 -0.75132334778E+03  0.47881033981E+02  0.14339971694E+04  0.60006369232E+03 0.  0.
         23    2    4    4    0    0  0.40790200788E+03 -0.17866138321E+03  0.27439819701E+03  0.53055659675E+03  0.88836895196E+02 0.  0.
         23    2    4    4    0    0  0.65487364141E+03 -0.57266196457E+03 -0.22651716303E+03  0.90344057266E+03  0.89964611466E+02 0.  0.
          3    1    3    3  502    0 -0.52892895200E+03  0.30728399276E+03 -0.10132624183E+03  0.62004539814E+03  0.00000000000E+00 0. -1.
         -3    1    3    3    0  502 -0.53384669729E+03  0.44403935502E+03 -0.18738613883E+03  0.71921958402E+03  0.00000000000E+00 0.  1.
         11    1    5    5    0    0  0.27012518773E+03 -0.98120097799E+02  0.13036149410E+03  0.31557770799E+03  0.00000000000E+00 0. -1.
        -11    1    5    5    0    0  0.13777682016E+03 -0.80541285410E+02  0.14403670291E+03  0.21497888876E+03  0.00000000000E+00 0.  1.
          1    1    6    6  503    0  0.14729401513E+03 -0.18139556857E+03 -0.64206209674E+02  0.24232687954E+03  0.00000000000E+00 0. -1.
         -1    1    6    6    0  503  0.50757962628E+03 -0.39126639600E+03 -0.16231095336E+03  0.66111369312E+03  0.00000000000E+00 0.  1.
<mgrwt>
<rscale>  0 0.13138102E+04</rscale>
<asrwt>0</asrwt>
<pdfrwt beam="1">  1        2 0.19480237E+00 0.13138102E+04</pdfrwt>
<pdfrwt beam="2">  1       -2 0.23185335E+00 0.13138102E+04</pdfrwt>
<totfact> 0.13826637E+00</totfact>
</mgrwt>
</event>
<event>
12    1  0.1444206E-007  0.5078310E+03  0.7818608E-02  0.1011755E+00
         -1   -1    0    0    0  501 -0.00000000000E+00  0.00000000000E+00  0.21128704898E+03  0.21128704898E+03  0.00000000000E+00 0.  1.
          1   -1    0    0  501    0  0.00000000000E+00 -0.00000000000E+00 -0.20419356599E+04  0.20419356599E+04  0.00000000000E+00 0. -1.
         23    2    1    2    0    0  0.42520238390E+03 -0.21753957004E+03 -0.10580457561E+04  0.11646483354E+04  0.93938230880E+02 0.  0.
    5000000    2    1    2    0    0 -0.42520238390E+03  0.21753957004E+03 -0.77260285473E+03  0.10885743734E+04  0.59996538532E+03 0.  0.
         23    2    4    4    0    0 -0.11977488148E+03  0.14243265563E+03  0.40454909022E+02  0.21192498886E+03  0.92965141940E+02 0.  0.
         23    2    4    4    0    0 -0.30542750242E+03  0.75106914410E+02 -0.81305776376E+03  0.87664938459E+03  0.92326640123E+02 0.  0.
          1    1    3    3  502    0  0.30883142560E+03 -0.11686596950E+03 -0.77659872230E+03  0.84388392552E+03  0.00000000000E+00 0. -1.
         -1    1    3    3    0  502  0.11637095829E+03 -0.10067360054E+03 -0.28144703384E+03  0.32076440986E+03  0.00000000000E+00 0.  1.
         11    1    5    5    0    0 -0.11695607631E+03  0.71838493825E+02  0.23284796202E+02  0.13921808329E+03  0.00000000000E+00 0.  1.
        -11    1    5    5    0    0 -0.28188051705E+01  0.70594161803E+02  0.17170112820E+02  0.72706905569E+02  0.00000000000E+00 0. -1.
          4    1    6    6  503    0 -0.30985208222E+03  0.71566594740E+02 -0.76799696691E+03  0.83123368045E+03  0.00000000000E+00 0.  1.
         -4    1    6    6    0  503  0.44245798045E+01  0.35403196701E+01 -0.45060796851E+02  0.45415704142E+02  0.00000000000E+00 0. -1.
<mgrwt>
<rscale>  0 0.50783097E+03</rscale>
<asrwt>0</asrwt>
<pdfrwt beam="1">  1        1 0.31414393E+00 0.50783097E+03</pdfrwt>
<pdfrwt beam="2">  1       -1 0.32505702E-01 0.50783097E+03</pdfrwt>
<totfact> 0.26723771E+01</totfact>
</mgrwt>
</event>
<event>
12    1  0.1444206E-007  0.2207412E+04  0.7818608E-02  0.8515349E-01
          1   -1    0    0  501    0  0.00000000000E+00  0.00000000000E+00  0.38709498360E+04  0.38709498360E+04  0.00000000000E+00 0. -1.
         -1   -1    0    0    0  501 -0.00000000000E+00 -0.00000000000E+00 -0.13026114532E+04  0.13026114532E+04  0.00000000000E+00 0.  1.
         23    2    1    2    0    0  0.21899948728E+04 -0.13868545420E+03  0.10185108077E+04  0.24208716593E+04  0.89129835622E+02 0.  0.
    5000000    2    1    2    0    0 -0.21899948728E+04  0.13868545420E+03  0.15498275751E+04  0.27526896298E+04  0.60001957255E+03 0.  0.
         23    2    4    4    0    0 -0.14860444749E+03  0.24095513693E+02  0.31962419369E+03  0.36488357201E+03  0.91194957841E+02 0.  0.
         23    2    4    4    0    0 -0.20413904253E+04  0.11458994050E+03  0.12302033814E+04  0.23878060578E+04  0.88383748718E+02 0.  0.
          1    1    3    3  502    0  0.11771323325E+04 -0.47744900432E+02  0.50747851056E+03  0.12827527207E+04  0.00000000000E+00 0. -1.
         -1    1    3    3    0  502  0.10128625403E+04 -0.90940553765E+02  0.51103229711E+03  0.11381189386E+04  0.00000000000E+00 0.  1.
         11    1    5    5    0    0 -0.82577886669E+02  0.56585264912E+02  0.21276021985E+03  0.23513381450E+03  0.00000000000E+00 0.  1.
        -11    1    5    5    0    0 -0.66026560818E+02 -0.32489751218E+02  0.10686397384E+03  0.12974975750E+03  0.00000000000E+00 0. -1.
          1    1    6    6  503    0 -0.56401117903E+03 -0.32872378959E+01  0.36080102877E+03  0.66954969820E+03  0.00000000000E+00 0. -1.
         -1    1    6    6    0  503 -0.14773792463E+04  0.11787717840E+03  0.86940235263E+03  0.17182563596E+04  0.00000000000E+00 0.  1.
<mgrwt>
<rscale>  0 0.22074123E+04</rscale>
<asrwt>0</asrwt>
<pdfrwt beam="1">  1        1 0.59553074E+00 0.22074123E+04</pdfrwt>
<pdfrwt beam="2">  1       -1 0.20040176E+00 0.22074123E+04</pdfrwt>
<totfact> 0.16251113E-02</totfact>
</mgrwt>
</event>
<event>
12    1  0.1444206E-007  0.5156415E+03  0.7818608E-02  0.1009775E+00
         -1   -1    0    0    0  501 -0.00000000000E+00  0.00000000000E+00  0.20310980114E+03  0.20310980114E+03  0.00000000000E+00 0.  1.
          1   -1    0    0  501    0  0.00000000000E+00 -0.00000000000E+00 -0.20797572235E+04  0.20797572235E+04  0.00000000000E+00 0. -1.
         23    2    1    2    0    0  0.37859884335E+03  0.30158558640E+03 -0.48033093460E+03  0.68790373586E+03  0.90569271661E+02 0.  0.
    5000000    2    1    2    0    0 -0.37859884335E+03 -0.30158558640E+03 -0.13963164878E+04  0.15949632888E+04  0.59993100311E+03 0.  0.
         23    2    4    4    0    0 -0.29907357289E+03 -0.12421411512E+03 -0.22614559395E+03  0.40529597758E+03  0.90823187468E+02 0.  0.
         23    2    4    4    0    0 -0.79525270459E+02 -0.17737147128E+03 -0.11701708938E+04  0.11896673112E+04  0.90683422839E+02 0.  0.
          4    1    3    3  502    0  0.76512204315E+02  0.11056491512E+03 -0.11686837922E+03  0.17814863436E+03  0.00000000000E+00 0. -1.
         -4    1    3    3    0  502  0.30208663903E+03  0.19102067128E+03 -0.36346255538E+03  0.50975510149E+03  0.00000000000E+00 0.  1.
         13    1    5    5    0    0 -0.14297552918E+03 -0.89292944765E+02 -0.72489941963E+02  0.18349393346E+03  0.00000000000E+00 0.  1.
        -13    1    5    5    0    0 -0.15609804370E+03 -0.34921170351E+02 -0.15365565199E+03  0.22180204412E+03  0.00000000000E+00 0. -1.
          2    1    6    6  503    0 -0.94110309133E+02 -0.12466259397E+03 -0.95303230900E+03  0.96574742796E+03  0.00000000000E+00 0. -1.
         -2    1    6    6    0  503  0.14585038674E+02 -0.52708877309E+02 -0.21713858485E+03  0.22391988328E+03  0.00000000000E+00 0.  1.
<mgrwt>
<rscale>  0 0.51564154E+03</rscale>
<asrwt>0</asrwt>
<pdfrwt beam="1">  1        1 0.31996264E+00 0.51564154E+03</pdfrwt>
<pdfrwt beam="2">  1       -1 0.31247663E-01 0.51564154E+03</pdfrwt>
<totfact> 0.26982654E+01</totfact>
</mgrwt>
</event>
<event>
12    1  0.1444206E-007  0.4600646E+03  0.7818608E-02  0.1024762E+00
          1   -1    0    0  501    0  0.00000000000E+00  0.00000000000E+00  0.52893755239E+03  0.52893755239E+03  0.00000000000E+00 0. -1.
         -1   -1    0    0    0  501 -0.00000000000E+00 -0.00000000000E+00 -0.46588170064E+03  0.46588170064E+03  0.00000000000E+00 0.  1.
         23    2    1    2    0    0  0.24922306783E+03 -0.11572225087E+03 -0.11464420636E+03  0.31139465001E+03  0.91211606273E+02 0.  0.
    5000000    2    1    2    0    0 -0.24922306783E+03  0.11572225087E+03  0.17770005810E+03  0.68342460302E+03  0.59999008365E+03 0.  0.
         23    2    4    4    0    0 -0.19277087174E+03 -0.22061159157E+03  0.71862079725E+02  0.31478260806E+03  0.89965818561E+02 0.  0.
         23    2    4    4    0    0 -0.56452196083E+02  0.33633384244E+03  0.10583797838E+03  0.36864199496E+03  0.91585690822E+02 0.  0.
          2    1    3    3  502    0  0.66881397926E+02 -0.50172241541E+02  0.48438980142E+01  0.83748663021E+02  0.00000000000E+00 0. -1.
         -2    1    3    3    0  502  0.18234166990E+03 -0.65550009332E+02 -0.11948810437E+03  0.22764598699E+03  0.00000000000E+00 0.  1.
         11    1    5    5    0    0 -0.56699388990E+02 -0.24194904686E+02  0.40567245789E+02  0.73796446767E+02  0.00000000000E+00 0. -1.
        -11    1    5    5    0    0 -0.13607148275E+03 -0.19641668688E+03  0.31294833936E+02  0.24098616130E+03  0.00000000000E+00 0.  1.
          3    1    6    6  503    0 -0.40535738924E+02  0.29664816608E+03  0.12148181338E+03  0.32311160850E+03  0.00000000000E+00 0. -1.
         -3    1    6    6    0  503 -0.15916457159E+02  0.39685676366E+02 -0.15643835002E+02  0.45530386454E+02  0.00000000000E+00 0.  1.
<mgrwt>
<rscale>  0 0.46006464E+03</rscale>
<asrwt>0</asrwt>
<pdfrwt beam="1">  1        1 0.81375008E-01 0.46006464E+03</pdfrwt>
<pdfrwt beam="2">  1       -1 0.71674108E-01 0.46006464E+03</pdfrwt>
<totfact> 0.84258426E+01</totfact>
</mgrwt>
</event>
<event>
12    1  0.1444206E-007  0.5664722E+03  0.7818608E-02  0.9977516E-01
         -1   -1    0    0    0  501 -0.00000000000E+00  0.00000000000E+00  0.95751113908E+03  0.95751113908E+03  0.00000000000E+00 0. -1.
          1   -1    0    0  501    0  0.00000000000E+00 -0.00000000000E+00 -0.49738184263E+03  0.49738184263E+03  0.00000000000E+00 0.  1.
         23    2    1    2    0    0  0.21989826563E+03 -0.50333394931E+03  0.26765928802E+03  0.61898304661E+03  0.98985886733E+02 0.  0.
    5000000    2    1    2    0    0 -0.21989826563E+03  0.50333394931E+03  0.19247000843E+03  0.83590993510E+03  0.60000033642E+03 0.  0.
         23    2    4    4    0    0 -0.10204643322E+03  0.28194353241E+03  0.39275069338E+03  0.50153438422E+03  0.85895293295E+02 0.  0.
         23    2    4    4    0    0 -0.11785183241E+03  0.22139041690E+03 -0.20028068495E+03  0.33437555088E+03  0.93765052996E+02 0.  0.
          3    1    3    3  502    0  0.29159310110E+02 -0.17209234720E+03  0.10405695068E+03  0.20320898188E+03  0.00000000000E+00 0. -1.
         -3    1    3    3    0  502  0.19073895552E+03 -0.33124160211E+03  0.16360233734E+03  0.41577406474E+03  0.00000000000E+00 0.  1.
         13    1    5    5    0    0 -0.56236659311E+02  0.24023164897E+03  0.28254176171E+03  0.37510485751E+03  0.00000000000E+00 0.  1.
        -13    1    5    5    0    0 -0.45809773906E+02  0.41711883435E+02  0.11020893167E+03  0.12642952671E+03  0.00000000000E+00 0. -1.
          4    1    6    6  503    0 -0.77416158600E+02  0.51818085721E+02 -0.62608621811E+02  0.11224177095E+03  0.00000000000E+00 0. -1.
         -4    1    6    6    0  503 -0.40435673814E+02  0.16957233118E+03 -0.13767206314E+03  0.22213377993E+03  0.00000000000E+00 0.  1.
<mgrwt>
<rscale>  0 0.56647215E+03</rscale>
<asrwt>0</asrwt>
<pdfrwt beam="1">  1        1 0.76520283E-01 0.56647215E+03</pdfrwt>
<pdfrwt beam="2">  1       -1 0.14730941E+00 0.56647215E+03</pdfrwt>
<totfact> 0.17196122E+01</totfact>
</mgrwt>
</event>
<event>
12    1  0.1444206E-007  0.7871622E+03  0.7818608E-02  0.9578787E-01
         -2   -1    0    0    0  501 -0.00000000000E+00  0.00000000000E+00  0.30688116082E+03  0.30688116082E+03  0.00000000000E+00 0.  1.
          2   -1    0    0  501    0  0.00000000000E+00 -0.00000000000E+00 -0.23564279453E+04  0.23564279453E+04  0.00000000000E+00 0. -1.
         23    2    1    2    0    0 -0.61173969234E+03 -0.41809439093E+03 -0.85917918185E+03  0.11382084986E+04  0.91111738675E+02 0.  0.
    5000000    2    1    2    0    0  0.61173969234E+03  0.41809439093E+03 -0.11903676027E+04  0.15251006075E+04  0.59994038261E+03 0.  0.
         23    2    4    4    0    0  0.55207938362E+03  0.46608660350E+03 -0.66320318601E+03  0.98470418193E+03  0.88178751415E+02 0.  0.
         23    2    4    4    0    0  0.59660308723E+02 -0.47992212574E+02 -0.52716441666E+03  0.54039642560E+03  0.90903078621E+02 0.  0.
          4    1    3    3  502    0 -0.11775190489E+03 -0.93163998611E+02 -0.12380182924E+03  0.19460712902E+03  0.00000000000E+00 0. -1.
         -4    1    3    3    0  502 -0.49398778745E+03 -0.32493039232E+03 -0.73537735261E+03  0.94360136961E+03  0.00000000000E+00 0.  1.
         11    1    5    5    0    0  0.28960241484E+03  0.22441845817E+03 -0.39185671951E+03  0.53645586181E+03  0.00000000000E+00 0. -1.
        -11    1    5    5    0    0  0.26247696878E+03  0.24166814534E+03 -0.27134646650E+03  0.44824832012E+03  0.00000000000E+00 0.  1.
          4    1    6    6  503    0  0.16393098733E+02 -0.62098909933E+02 -0.40439971369E+03  0.40946811442E+03  0.00000000000E+00 0.  1.
         -4    1    6    6    0  503  0.43267209989E+02  0.14106697359E+02 -0.12276470297E+03  0.13092831117E+03  0.00000000000E+00 0. -1.
<mgrwt>
<rscale>  0 0.78716225E+03</rscale>
<asrwt>0</asrwt>
<pdfrwt beam="1">  1        2 0.36252738E+00 0.78716225E+03</pdfrwt>
<pdfrwt beam="2">  1       -2 0.47212486E-01 0.78716225E+03</pdfrwt>
<totfact> 0.18563864E+01</totfact>
</mgrwt>
</event>
<event>
12    1  0.1444206E-007  0.1231890E+04  0.7818608E-02  0.9085392E-01
         -2   -1    0    0    0  501 -0.00000000000E+00  0.00000000000E+00  0.42342021495E+03  0.42342021495E+03  0.00000000000E+00 0. -1.
          2   -1    0    0  501    0  0.00000000000E+00 -0.00000000000E+00 -0.39147526054E+04  0.39147526054E+04  0.00000000000E+00 0.  1.
         23    2    1    2    0    0  0.22195213579E+03 -0.11737044451E+04 -0.20340957046E+04  0.23606224430E+04  0.90266871115E+02 0.  0.
    5000000    2    1    2    0    0 -0.22195213579E+03  0.11737044451E+04 -0.14572366859E+04  0.19775503774E+04  0.60026815801E+03 0.  0.
         23    2    4    4    0    0 -0.33860370083E+03  0.82539421713E+03 -0.12699829256E+04  0.15544529771E+04  0.86829411519E+02 0.  0.
         23    2    4    4    0    0  0.11665156504E+03  0.34831022793E+03 -0.18725376028E+03  0.42309740033E+03  0.94972822005E+02 0.  0.
          4    1    3    3  502    0  0.96885225390E+02 -0.70848029089E+03 -0.12644782785E+04  0.14526652699E+04  0.00000000000E+00 0. -1.
         -4    1    3    3    0  502  0.12506691040E+03 -0.46522415417E+03 -0.76961742608E+03  0.90795717312E+03  0.00000000000E+00 0.  1.
         13    1    5    5    0    0 -0.19570182525E+03  0.41815623738E+03 -0.59174982920E+03  0.75054760251E+03  0.00000000000E+00 0.  1.
        -13    1    5    5    0    0 -0.14290187558E+03  0.40723797975E+03 -0.67823309643E+03  0.80390537459E+03  0.00000000000E+00 0. -1.
          2    1    6    6  503    0  0.70647534131E+02  0.10823202569E+03 -0.10046213775E+03  0.16370060044E+03  0.00000000000E+00 0. -1.
         -2    1    6    6    0  503  0.46004030907E+02  0.24007820224E+03 -0.86791622532E+02  0.25939679988E+03  0.00000000000E+00 0.  1.
<mgrwt>
<rscale>  0 0.12318898E+04</rscale>
<asrwt>0</asrwt>
<pdfrwt beam="1">  1        2 0.60226964E+00 0.12318898E+04</pdfrwt>
<pdfrwt beam="2">  1       -2 0.65141570E-01 0.12318898E+04</pdfrwt>
<totfact> 0.87976654E-01</totfact>
</mgrwt>
</event>
<event>
12    1  0.1444206E-007  0.4440036E+03  0.7818608E-02  0.1029525E+00
         -2   -1    0    0    0  501 -0.00000000000E+00  0.00000000000E+00  0.87678968485E+02  0.87678968485E+02  0.00000000000E+00 0.  1.
          2   -1    0    0  501    0  0.00000000000E+00 -0.00000000000E+00 -0.25800914491E+04  0.25800914491E+04  0.00000000000E+00 0. -1.
         23    2    1    2    0    0 -0.89346813086E+02  0.22509360749E+03 -0.38665587595E+03  0.46510367839E+03  0.90380750721E+02 0.  0.
    5000000    2    1    2    0    0  0.89346813086E+02 -0.22509360749E+03 -0.21057566046E+04  0.22026667392E+04  0.59906585675E+03 0.  0.
         23    2    4    4    0    0  0.12665947453E+03 -0.40887956644E+03 -0.15007927286E+04  0.15632633240E+04  0.90489136293E+02 0.  0.
         23    2    4    4    0    0 -0.37312661444E+02  0.18378595895E+03 -0.60496387607E+03  0.63940341514E+03  0.87669393361E+02 0.  0.
          3    1    3    3  502    0 -0.59393104972E+02  0.47518551400E+02 -0.87616014648E+02  0.11602637488E+03  0.00000000000E+00 0. -1.
         -3    1    3    3    0  502 -0.29953708114E+02  0.17757505609E+03 -0.29903986130E+03  0.34907730350E+03  0.00000000000E+00 0.  1.
         11    1    5    5    0    0 -0.14037522910E+02 -0.32826604397E+02 -0.13912966206E+03  0.14363739370E+03  0.00000000000E+00 0.  1.
        -11    1    5    5    0    0  0.14069699744E+03 -0.37605296205E+03 -0.13616630665E+04  0.14196259303E+04  0.00000000000E+00 0. -1.
          1    1    6    6  503    0  0.58531165718E+01  0.10200980428E+03 -0.20708893937E+03  0.23092442043E+03  0.00000000000E+00 0. -1.
         -1    1    6    6    0  503 -0.43165778016E+02  0.81776154679E+02 -0.39787493670E+03  0.40847899471E+03  0.00000000000E+00 0.  1.
<mgrwt>
<rscale>  0 0.44400361E+03</rscale>
<asrwt>0</asrwt>
<pdfrwt beam="1">  1        2 0.39693708E+00 0.44400361E+03</pdfrwt>
<pdfrwt beam="2">  1       -2 0.13489074E-01 0.44400361E+03</pdfrwt>
<totfact> 0.14240766E+02</totfact>
</mgrwt>
</event>
<event>
12    1  0.1444206E-007  0.4663214E+03  0.7818608E-02  0.1022964E+00
         -2   -1    0    0    0  501 -0.00000000000E+00  0.00000000000E+00  0.80897499557E+02  0.80897499557E+02  0.00000000000E+00 0.  1.
          2   -1    0    0  501    0  0.00000000000E+00 -0.00000000000E+00 -0.29048835905E+04  0.29048835905E+04  0.00000000000E+00 0. -1.
         23    2    1    2    0    0 -0.27231270586E+03  0.84638092573E+02 -0.73625176058E+03  0.79490547178E+03  0.92142485425E+02 0.  0.
    5000000    2    1    2    0    0  0.27231270586E+03 -0.84638092573E+02 -0.20877343304E+04  0.21908756183E+04  0.59998626994E+03 0.  0.
         23    2    4    4    0    0 -0.15953062801E+03  0.58980850523E+02 -0.76531812342E+03  0.78929804232E+03  0.91382753191E+02 0.  0.
         23    2    4    4    0    0  0.43184333387E+03 -0.14361894310E+03 -0.13224162070E+04  0.14015775760E+04  0.92303906793E+02 0.  0.
          4    1    3    3  502    0 -0.16407055755E+03  0.10316847620E+02 -0.47243563324E+03  0.50022096393E+03  0.00000000000E+00 0. -1.
         -4    1    3    3    0  502 -0.10824214830E+03  0.74321244953E+02 -0.26381612734E+03  0.29468450785E+03  0.00000000000E+00 0.  1.
         13    1    5    5    0    0 -0.87831421953E+02 -0.23442847378E+00 -0.23476225916E+03  0.25065460691E+03  0.00000000000E+00 0. -1.
        -13    1    5    5    0    0 -0.71699206061E+02  0.59215278997E+02 -0.53055586426E+03  0.53864343541E+03  0.00000000000E+00 0.  1.
          2    1    6    6  503    0  0.15097836313E+03 -0.34955000307E+02 -0.33200207587E+03  0.36639008797E+03  0.00000000000E+00 0. -1.
         -2    1    6    6    0  503  0.28086497074E+03 -0.10866394279E+03 -0.99041413109E+03  0.10351874880E+04  0.00000000000E+00 0.  1.
<mgrwt>
<rscale>  0 0.46632138E+03</rscale>
<asrwt>0</asrwt>
<pdfrwt beam="1">  1        2 0.44690518E+00 0.46632138E+03</pdfrwt>
<pdfrwt beam="2">  1       -2 0.12445769E-01 0.46632138E+03</pdfrwt>
<totfact> 0.10515963E+02</totfact>
</mgrwt>
</event>
<event>
12    1  0.1444206E-007  0.7740134E+03  0.7818608E-02  0.9598413E-01
          1   -1    0    0  501    0  0.00000000000E+00  0.00000000000E+00  0.10966099204E+04  0.10966099204E+04  0.00000000000E+00 0. -1.
         -1   -1    0    0    0  501 -0.00000000000E+00 -0.00000000000E+00 -0.63220570890E+03  0.63220570890E+03  0.00000000000E+00 0.  1.
         23    2    1    2    0    0 -0.44485686162E+03  0.56233379788E+03  0.28906083813E+03  0.77760083086E+03  0.83605959371E+02 0.  0.
    5000000    2    1    2    0    0  0.44485686162E+03 -0.56233379788E+03  0.17534337339E+03  0.95121479846E+03  0.59995613728E+03 0.  0.
         23    2    4    4    0    0  0.49710568729E+03 -0.46412665813E+03 -0.45118002719E+02  0.68792882466E+03  0.93181621101E+02 0.  0.
         23    2    4    4    0    0 -0.52248825667E+02 -0.98207139744E+02  0.22046137611E+03  0.26328597380E+03  0.91332927050E+02 0.  0.
          3    1    3    3  502    0 -0.16620205232E+03  0.24714539797E+03  0.83226619603E+02  0.30924204136E+03  0.00000000000E+00 0. -1.
         -3    1    3    3    0  502 -0.27865480930E+03  0.31518839990E+03  0.20583421853E+03  0.46835878950E+03  0.00000000000E+00 0.  1.
         13    1    5    5    0    0  0.23854322251E+03 -0.16020911176E+03 -0.23862104570E+02  0.28833873922E+03  0.00000000000E+00 0. -1.
        -13    1    5    5    0    0  0.25856246477E+03 -0.30391754637E+03 -0.21255898149E+02  0.39959008545E+03  0.00000000000E+00 0.  1.
          2    1    6    6  503    0  0.11279464484E+02  0.11648248853E+02  0.16996299747E+02  0.23490045243E+02  0.00000000000E+00 0. -1.
         -2    1    6    6    0  503 -0.63528290152E+02 -0.10985538860E+03  0.20346507637E+03  0.23979592856E+03  0.00000000000E+00 0.  1.
<mgrwt>
<rscale>  0 0.77401337E+03</rscale>
<asrwt>0</asrwt>
<pdfrwt beam="1">  1        1 0.16870922E+00 0.77401337E+03</pdfrwt>
<pdfrwt beam="2">  1       -1 0.97262417E-01 0.77401337E+03</pdfrwt>
<totfact> 0.13322768E+01</totfact>
</mgrwt>
</event>
<event>
12    1  0.1444206E-007  0.5696821E+03  0.7818608E-02  0.9970382E-01
         -1   -1    0    0    0  501 -0.00000000000E+00  0.00000000000E+00  0.76124854958E+03  0.76124854958E+03  0.00000000000E+00 0.  1.
          1   -1    0    0  501    0  0.00000000000E+00 -0.00000000000E+00 -0.73131026352E+03  0.73131026352E+03  0.00000000000E+00 0. -1.
         23    2    1    2    0    0 -0.20975998896E+03 -0.47434433541E+03 -0.33033530189E+03  0.62148013535E+03  0.90079661734E+02 0.  0.
    5000000    2    1    2    0    0  0.20975998896E+03  0.47434433541E+03  0.36027358796E+03  0.87107867774E+03  0.59998266903E+03 0.  0.
         23    2    4    4    0    0  0.27735700711E+03  0.26155062402E+03  0.46512071352E+03  0.60830630067E+03  0.91452933113E+02 0.  0.
         23    2    4    4    0    0 -0.67597018146E+02  0.21279371139E+03 -0.10484712556E+03  0.26277237707E+03  0.90586323166E+02 0.  0.
          1    1    3    3  502    0 -0.94187432736E+02 -0.31981741785E+03 -0.21353995178E+03  0.39592141171E+03  0.00000000000E+00 0. -1.
         -1    1    3    3    0  502 -0.11557255623E+03 -0.15452691756E+03 -0.11679535011E+03  0.22555872364E+03  0.00000000000E+00 0.  1.
         13    1    5    5    0    0  0.13536738231E+02 -0.14831697548E+01  0.43962573156E+02  0.46023373550E+02  0.00000000000E+00 0. -1.
        -13    1    5    5    0    0  0.26382026888E+03  0.26303379378E+03  0.42115814036E+03  0.56228292712E+03  0.00000000000E+00 0.  1.
          4    1    6    6  503    0 -0.60348223736E+02  0.12559904461E+03 -0.19783153518E+02  0.14074232227E+03  0.00000000000E+00 0. -1.
         -4    1    6    6    0  503 -0.72487944099E+01  0.87194666781E+02 -0.85063972044E+02  0.12203005480E+03  0.00000000000E+00 0.  1.
<mgrwt>
<rscale>  0 0.56968214E+03</rscale>
<asrwt>0</asrwt>
<pdfrwt beam="1">  1        1 0.11250927E+00 0.56968214E+03</pdfrwt>
<pdfrwt beam="2">  1       -1 0.11711516E+00 0.56968214E+03</pdfrwt>
<totfact> 0.17622842E+01</totfact>
</mgrwt>
</event>
<event>
12    1  0.1444206E-007  0.4638182E+03  0.7818608E-02  0.1023680E+00
         -2   -1    0    0    0  501 -0.00000000000E+00  0.00000000000E+00  0.40031156888E+03  0.40031156888E+03  0.00000000000E+00 0.  1.
          2   -1    0    0  501    0  0.00000000000E+00 -0.00000000000E+00 -0.71432616982E+03  0.71432616982E+03  0.00000000000E+00 0. -1.
         23    2    1    2    0    0 -0.34375437758E+03  0.85914699766E+02 -0.16795334413E+03  0.40266649291E+03  0.91561842299E+02 0.  0.
    5000000    2    1    2    0    0  0.34375437758E+03 -0.85914699766E+02 -0.14606125680E+03  0.71197124580E+03  0.60001729672E+03 0.  0.
         23    2    4    4    0    0  0.18453954303E+03  0.17428460680E+03  0.12253126797E+03  0.29567347199E+03  0.89324819056E+02 0.  0.
         23    2    4    4    0    0  0.15921483455E+03 -0.26019930656E+03 -0.26859252478E+03  0.41629777381E+03  0.90049150108E+02 0.  0.
          1    1    3    3  502    0 -0.31002161045E+03  0.96926475733E+02 -0.17094439810E+03  0.36705602826E+03  0.00000000000E+00 0. -1.
         -1    1    3    3    0  502 -0.33732767132E+02 -0.11011775967E+02  0.29910539707E+01  0.35610464644E+02  0.00000000000E+00 0.  1.
         11    1    5    5    0    0  0.36004072667E+02  0.14439922931E+02  0.54912268746E+02  0.67232149168E+02  0.00000000000E+00 0. -1.
        -11    1    5    5    0    0  0.14853547036E+03  0.15984468387E+03  0.67618999225E+02  0.22844132282E+03  0.00000000000E+00 0.  1.
          1    1    6    6  503    0  0.50025359824E+02 -0.38219173694E+02 -0.21169583174E+02  0.66418319123E+02  0.00000000000E+00 0. -1.
         -1    1    6    6    0  503  0.10918947472E+03 -0.22198013287E+03 -0.24742294160E+03  0.34987945468E+03  0.00000000000E+00 0.  1.
<mgrwt>
<rscale>  0 0.46381825E+03</rscale>
<asrwt>0</asrwt>
<pdfrwt beam="1">  1        2 0.10989633E+00 0.46381825E+03</pdfrwt>
<pdfrwt beam="2">  1       -2 0.61586396E-01 0.46381825E+03</pdfrwt>
<totfact> 0.10124150E+02</totfact>
</mgrwt>
</event>
<event>
12    1  0.1444206E-007  0.8419408E+03  0.7818608E-02  0.9501218E-01
         -2   -1    0    0    0  501 -0.00000000000E+00  0.00000000000E+00  0.12453313308E+04  0.12453313308E+04  0.00000000000E+00 0.  1.
          2   -1    0    0  501    0  0.00000000000E+00 -0.00000000000E+00 -0.57840187361E+03  0.57840187361E+03  0.00000000000E+00 0. -1.
         23    2    1    2    0    0  0.22463824689E+03  0.70139736037E+03  0.36502661615E+03  0.82693626635E+03  0.90324741935E+02 0.  0.
    5000000    2    1    2    0    0 -0.22463824689E+03 -0.70139736037E+03  0.30190284108E+03  0.99679693810E+03  0.60003184187E+03 0.  0.
         23    2    4    4    0    0 -0.60466308877E+02  0.87351814011E+02  0.49505527973E+02  0.14776955051E+03  0.89991826506E+02 0.  0.
         23    2    4    4    0    0 -0.16417193802E+03 -0.78874917438E+03  0.25239731311E+03  0.84902738759E+03  0.89807660585E+02 0.  0.
          3    1    3    3  502    0  0.18567504129E+03  0.48909565964E+03  0.22393709331E+03  0.56906731324E+03  0.00000000000E+00 0. -1.
         -3    1    3    3    0  502  0.38963205608E+02  0.21230170073E+03  0.14108952284E+03  0.25786895311E+03  0.00000000000E+00 0.  1.
         13    1    5    5    0    0  0.47550489071E+01  0.72084941075E+02  0.26262743913E+02  0.76867294331E+02  0.00000000000E+00 0. -1.
        -13    1    5    5    0    0 -0.65221357784E+02  0.15266872936E+02  0.23242784060E+02  0.70902256179E+02  0.00000000000E+00 0.  1.
          4    1    6    6  503    0 -0.10936576331E+03 -0.52278722677E+03  0.21131211088E+03  0.57438677114E+03  0.00000000000E+00 0. -1.
         -4    1    6    6    0  503 -0.54806174705E+02 -0.26596194761E+03  0.41085202233E+02  0.27464061645E+03  0.00000000000E+00 0.  1.
<mgrwt>
<rscale>  0 0.84194077E+03</rscale>
<asrwt>0</asrwt>
<pdfrwt beam="1">  1        2 0.88984904E-01 0.84194077E+03</pdfrwt>
<pdfrwt beam="2">  1       -2 0.19158943E+00 0.84194077E+03</pdfrwt>
<totfact> 0.79088939E+00</totfact>
</mgrwt>
</event>
<event>
12    1  0.1444206E-007  0.1137669E+04  0.7818608E-02  0.9169235E-01
          2   -1    0    0  501    0  0.00000000000E+00  0.00000000000E+00  0.12409880623E+04  0.12409880623E+04  0.00000000000E+00 0. -1.
         -2   -1    0    0    0  501 -0.00000000000E+00 -0.00000000000E+00 -0.11712776682E+04  0.11712776682E+04  0.00000000000E+00 0.  1.
         23    2    1    2    0    0 -0.73395704625E+03  0.84869602384E+03 -0.91990013752E+02  0.11296365109E+04  0.92944055866E+02 0.  0.
    5000000    2    1    2    0    0  0.73395704625E+03 -0.84869602384E+03  0.16170040785E+03  0.12826292195E+04  0.60001067180E+03 0.  0.
         23    2    4    4    0    0  0.44967201681E+03 -0.68590072231E+03  0.34646734013E+03  0.89523579926E+03  0.93502914007E+02 0.  0.
         23    2    4    4    0    0  0.28428502944E+03 -0.16279530153E+03 -0.18476693228E+03  0.38739342028E+03  0.92814625169E+02 0.  0.
          3    1    3    3  502    0 -0.44054920510E+03  0.55715820631E+03 -0.25828862825E+02  0.71075734194E+03  0.00000000000E+00 0. -1.
         -3    1    3    3    0  502 -0.29340784115E+03  0.29153781753E+03 -0.66161150927E+02  0.41887916896E+03  0.00000000000E+00 0.  1.
         13    1    5    5    0    0  0.12277663702E+03 -0.20115264017E+03  0.55247993471E+02  0.24205129214E+03  0.00000000000E+00 0. -1.
        -13    1    5    5    0    0  0.32689537979E+03 -0.48474808214E+03  0.29121934666E+03  0.65318450712E+03  0.00000000000E+00 0.  1.
          2    1    6    6  503    0  0.14773857752E+03 -0.56970770452E+02 -0.43432129586E+02  0.16419106508E+03  0.00000000000E+00 0. -1.
         -2    1    6    6    0  503  0.13654645192E+03 -0.10582453108E+03 -0.14133480270E+03  0.22320235519E+03  0.00000000000E+00 0.  1.
<mgrwt>
<rscale>  0 0.11376694E+04</rscale>
<asrwt>0</asrwt>
<pdfrwt beam="1">  1        2 0.19092124E+00 0.11376694E+04</pdfrwt>
<pdfrwt beam="2">  1       -2 0.18019656E+00 0.11376694E+04</pdfrwt>
<totfact> 0.31625513E+00</totfact>
</mgrwt>
</event>
<event>
12    1  0.1444206E-007  0.6494006E+03  0.7818608E-02  0.9807905E-01
          1   -1    0    0  501    0  0.00000000000E+00  0.00000000000E+00  0.63899416175E+03  0.63899416175E+03  0.00000000000E+00 0. -1.
         -1   -1    0    0    0  501 -0.00000000000E+00 -0.00000000000E+00 -0.15347128637E+04  0.15347128637E+04  0.00000000000E+00 0.  1.
         23    2    1    2    0    0 -0.40277639109E+03  0.40580159485E+03  0.34916898209E+03  0.67817897363E+03  0.10537545546E+03 0.  0.
    5000000    2    1    2    0    0  0.40277639109E+03 -0.40580159485E+03 -0.12448876840E+04  0.14955280518E+04  0.59996254240E+03 0.  0.
         23    2    4    4    0    0  0.15456943074E+03  0.72599196789E+02 -0.69162994746E+03  0.71781886223E+03  0.88031712822E+02 0.  0.
         23    2    4    4    0    0  0.24820696035E+03 -0.47840079164E+03 -0.55325773655E+03  0.77770918955E+03  0.90903508494E+02 0.  0.
          2    1    3    3  502    0 -0.18296804123E+03  0.23969467437E+03  0.14110523940E+03  0.33292871553E+03  0.00000000000E+00 0. -1.
         -2    1    3    3    0  502 -0.21980834986E+03  0.16610692048E+03  0.20806374269E+03  0.34525025811E+03  0.00000000000E+00 0.  1.
         13    1    5    5    0    0 -0.56152032708E+01  0.28058773789E+01 -0.11801985529E+03  0.11818667310E+03  0.00000000000E+00 0.  1.
        -13    1    5    5    0    0  0.16018463401E+03  0.69793319410E+02 -0.57361009217E+03  0.59963218913E+03  0.00000000000E+00 0. -1.
          3    1    6    6  503    0  0.13326802978E+03 -0.20944803713E+03 -0.19800477219E+03  0.31754485955E+03  0.00000000000E+00 0. -1.
         -3    1    6    6    0  503  0.11493893058E+03 -0.26895275451E+03 -0.35525296436E+03  0.46016433000E+03  0.00000000000E+00 0.  1.
<mgrwt>
<rscale>  0 0.64940063E+03</rscale>
<asrwt>0</asrwt>
<pdfrwt beam="1">  1        1 0.98306796E-01 0.64940063E+03</pdfrwt>
<pdfrwt beam="2">  1       -1 0.23610967E+00 0.64940063E+03</pdfrwt>
<totfact> 0.28503498E+00</totfact>
</mgrwt>
</event>
<event>
12    1  0.1444206E-007  0.7113609E+03  0.7818608E-02  0.9697998E-01
         -2   -1    0    0    0  501 -0.00000000000E+00  0.00000000000E+00  0.38164132305E+03  0.38164132305E+03  0.00000000000E+00 0.  1.
          2   -1    0    0  501    0  0.00000000000E+00 -0.00000000000E+00 -0.23704764730E+04  0.23704764730E+04  0.00000000000E+00 0. -1.
         23    2    1    2    0    0  0.64059316798E+03  0.16891887823E+03 -0.16767864002E+04  0.18052161367E+04  0.91101448923E+02 0.  0.
    5000000    2    1    2    0    0 -0.64059316798E+03 -0.16891887823E+03 -0.31204874982E+03  0.94690165942E+03  0.60029587377E+03 0.  0.
         23    2    4    4    0    0 -0.52862296961E+03  0.65186338336E+00 -0.43632215200E+03  0.69119598925E+03  0.89062934487E+02 0.  0.
         23    2    4    4    0    0 -0.11197019836E+03 -0.16957074161E+03  0.12427340218E+03  0.25570567017E+03  0.93005104888E+02 0.  0.
          3    1    3    3  502    0  0.18710586563E+03  0.12116070053E+02 -0.52507814973E+03  0.55755041694E+03  0.00000000000E+00 0. -1.
         -3    1    3    3    0  502  0.45348730235E+03  0.15680280817E+03 -0.11517082504E+04  0.12476657197E+04  0.00000000000E+00 0.  1.
         11    1    5    5    0    0 -0.23717131482E+03  0.36411902245E+02 -0.22949244844E+03  0.33202837694E+03  0.00000000000E+00 0. -1.
        -11    1    5    5    0    0 -0.29145165479E+03 -0.35760038861E+02 -0.20682970356E+03  0.35916761231E+03  0.00000000000E+00 0.  1.
          3    1    6    6  503    0  0.14845485983E+02 -0.96534802765E+01  0.19307381374E+02  0.26198341762E+02  0.00000000000E+00 0. -1.
         -3    1    6    6    0  503 -0.12681568435E+03 -0.15991726133E+03  0.10496602081E+03  0.22950732841E+03  0.00000000000E+00 0.  1.
<mgrwt>
<rscale>  0 0.71136087E+03</rscale>
<asrwt>0</asrwt>
<pdfrwt beam="1">  1        2 0.36468868E+00 0.71136087E+03</pdfrwt>
<pdfrwt beam="2">  1       -2 0.58714050E-01 0.71136087E+03</pdfrwt>
<totfact> 0.11779730E+01</totfact>
</mgrwt>
</event>
<event>
12    1  0.1694022E-007  0.7232944E+03  0.7818608E-02  0.9678205E-01
          1   -1    0    0  501    0  0.00000000000E+00  0.00000000000E+00  0.15645662499E+04  0.15645662499E+04  0.00000000000E+00 0. -1.
         -1   -1    0    0    0  501 -0.00000000000E+00 -0.00000000000E+00 -0.38146748656E+03  0.38146748656E+03  0.00000000000E+00 0.  1.
         23    2    1    2    0    0  0.65044597801E+03 -0.16552775465E+02  0.44589234920E+03  0.79411349638E+03  0.91881953430E+02 0.  0.
    5000000    2    1    2    0    0 -0.65044597801E+03  0.16552775465E+02  0.73720641414E+03  0.11519202401E+04  0.60007747647E+03 0.  0.
         23    2    4    4    0    0 -0.46701395920E+03 -0.19643839223E+03  0.67660495070E+03  0.85003919071E+03  0.89901537274E+02 0.  0.
         23    2    4    4    0    0 -0.18343201881E+03  0.21299116769E+03  0.60601463444E+02  0.30188104937E+03  0.91908038580E+02 0.  0.
          2    1    3    3  502    0  0.31456615699E+03  0.33880950262E+02  0.23782355983E+03  0.39580276846E+03  0.00000000000E+00 0.  1.
         -2    1    3    3    0  502  0.33587982102E+03 -0.50433725727E+02  0.20806878937E+03  0.39831072792E+03  0.00000000000E+00 0. -1.
         11    1    5    5    0    0 -0.18523134427E+03 -0.89296504512E+02  0.20534372514E+03  0.29060378881E+03  0.00000000000E+00 0.  1.
        -11    1    5    5    0    0 -0.28178261493E+03 -0.10714188772E+03  0.47126122556E+03  0.55943540190E+03  0.00000000000E+00 0. -1.
          2    1    6    6  503    0 -0.26388490162E+02  0.53375616445E+02 -0.21616151670E+02  0.63344825020E+02  0.00000000000E+00 0. -1.
         -2    1    6    6    0  503 -0.15704352865E+03  0.15961555125E+03  0.82217615113E+02  0.23853622435E+03  0.00000000000E+00 0.  1.
<mgrwt>
<rscale>  0 0.72329438E+03</rscale>
<asrwt>0</asrwt>
<pdfrwt beam="1">  1        1 0.24070250E+00 0.72329438E+03</pdfrwt>
<pdfrwt beam="2">  1       -1 0.58687307E-01 0.72329438E+03</pdfrwt>
<totfact> 0.18059846E+01</totfact>
</mgrwt>
</event>
<event>
12    1  0.1444206E-007  0.7514651E+03  0.7818608E-02  0.9633055E-01
          2   -1    0    0  501    0  0.00000000000E+00  0.00000000000E+00  0.62202045811E+03  0.62202045811E+03  0.00000000000E+00 0. -1.
         -2   -1    0    0    0  501 -0.00000000000E+00 -0.00000000000E+00 -0.11934825019E+04  0.11934825019E+04  0.00000000000E+00 0.  1.
         23    2    1    2    0    0  0.69188962223E+03 -0.25967008276E+03 -0.95204878812E+02  0.75066175005E+03  0.91045553432E+02 0.  0.
    5000000    2    1    2    0    0 -0.69188962223E+03  0.25967008276E+03 -0.47625716495E+03  0.10648412099E+04  0.60077126594E+03 0.  0.
         23    2    4    4    0    0 -0.32259321198E+03  0.19262357685E+03 -0.54908482712E+03  0.67166870351E+03  0.92056923320E+02 0.  0.
         23    2    4    4    0    0 -0.36929641025E+03  0.67046505908E+02  0.72827662166E+02  0.39317250642E+03  0.91682489345E+02 0.  0.
          4    1    3    3  502    0  0.67945987553E+03 -0.23976805083E+03 -0.86781497847E+02  0.72573098943E+03  0.00000000000E+00 0.  1.
         -4    1    3    3    0  502  0.12429746705E+02 -0.19902031928E+02 -0.84233809652E+01  0.24930760616E+02  0.00000000000E+00 0. -1.
         13    1    5    5    0    0 -0.17730044361E+03  0.68446944768E+02 -0.21656383672E+03  0.28813248156E+03  0.00000000000E+00 0.  1.
        -13    1    5    5    0    0 -0.14529276837E+03  0.12417663209E+03 -0.33252099040E+03  0.38353622196E+03  0.00000000000E+00 0. -1.
          4    1    6    6  503    0 -0.26729855989E+03  0.67786057081E+02  0.15567533131E+02  0.27619887354E+03  0.00000000000E+00 0. -1.
         -4    1    6    6    0  503 -0.10199785036E+03 -0.73955117320E+00  0.57260129036E+02  0.11697363289E+03  0.00000000000E+00 0.  1.
<mgrwt>
<rscale>  0 0.75146512E+03</rscale>
<asrwt>0</asrwt>
<pdfrwt beam="1">  1        2 0.95695456E-01 0.75146512E+03</pdfrwt>
<pdfrwt beam="2">  1       -2 0.18361269E+00 0.75146512E+03</pdfrwt>
<totfact> 0.82730701E+00</totfact>
</mgrwt>
</event>
<event>
12    1  0.1444206E-007  0.9213294E+03  0.7818608E-02  0.9399305E-01
          2   -1    0    0  501    0  0.00000000000E+00  0.00000000000E+00  0.19916772039E+04  0.19916772039E+04  0.00000000000E+00 0. -1.
         -2   -1    0    0    0  501 -0.00000000000E+00 -0.00000000000E+00 -0.46938918981E+03  0.46938918981E+03  0.00000000000E+00 0.  1.
         23    2    1    2    0    0 -0.10296443435E+03  0.82532141283E+03  0.10193612752E+04  0.13188132949E+04  0.91727794135E+02 0.  0.
    5000000    2    1    2    0    0  0.10296443435E+03 -0.82532141283E+03  0.50292673886E+03  0.11422530988E+04  0.60004143839E+03 0.  0.
         23    2    4    4    0    0  0.27215760679E+03 -0.16345409169E+03  0.10676398910E+03  0.34703476111E+03  0.90816149557E+02 0.  0.
         23    2    4    4    0    0 -0.16919317245E+03 -0.66186732114E+03  0.39616274976E+03  0.79521833767E+03  0.93448380826E+02 0.  0.
          1    1    3    3  502    0 -0.89131428996E+02  0.40019242358E+03  0.46208161125E+03  0.61775221812E+03  0.00000000000E+00 0. -1.
         -1    1    3    3    0  502 -0.13833005349E+02  0.42512898925E+03  0.55727966399E+03  0.70106107682E+03  0.00000000000E+00 0.  1.
         13    1    5    5    0    0  0.21176199945E+03 -0.15412089489E+03  0.56563810417E+02  0.26794749355E+03  0.00000000000E+00 0. -1.
        -13    1    5    5    0    0  0.60395607345E+02 -0.93331968042E+01  0.50200178686E+02  0.79087267555E+02  0.00000000000E+00 0.  1.
          1    1    6    6  503    0 -0.85264390369E+02 -0.41098718672E+03  0.19471401784E+03  0.46270296374E+03  0.00000000000E+00 0. -1.
         -1    1    6    6    0  503 -0.83928782081E+02 -0.25088013442E+03  0.20144873192E+03  0.33251537393E+03  0.00000000000E+00 0.  1.
<mgrwt>
<rscale>  0 0.92132940E+03</rscale>
<asrwt>0</asrwt>
<pdfrwt beam="1">  1        2 0.30641187E+00 0.92132940E+03</pdfrwt>
<pdfrwt beam="2">  1       -2 0.72213722E-01 0.92132940E+03</pdfrwt>
<totfact> 0.11861672E+01</totfact>
</mgrwt>
</event>
<event>
12    1  0.1444206E-007  0.8954411E+03  0.7818608E-02  0.9431298E-01
          1   -1    0    0  501    0  0.00000000000E+00  0.00000000000E+00  0.20446331646E+04  0.20446331646E+04  0.00000000000E+00 0. -1.
         -1   -1    0    0    0  501 -0.00000000000E+00 -0.00000000000E+00 -0.56723513510E+03  0.56723513510E+03  0.00000000000E+00 0.  1.
         23    2    1    2    0    0  0.76860420102E+03  0.29397903781E+03  0.13525159352E+04  0.15857854547E+04  0.90774780547E+02 0.  0.
    5000000    2    1    2    0    0 -0.76860420102E+03 -0.29397903781E+03  0.12488209423E+03  0.10260828450E+04  0.60006197576E+03 0.  0.
         23    2    4    4    0    0 -0.23885057021E+02 -0.21369866928E+03 -0.76112175219E+02  0.24509627277E+03  0.89674425049E+02 0.  0.
         23    2    4    4    0    0 -0.74471914400E+03 -0.80280368530E+02  0.20099426945E+03  0.78098657219E+03  0.92140048688E+02 0.  0.
          1    1    3    3  502    0  0.42353996672E+03  0.18570767774E+03  0.68308788701E+03  0.82491363570E+03  0.00000000000E+00 0. -1.
         -1    1    3    3    0  502  0.34506423430E+03  0.10827136007E+03  0.66942804823E+03  0.76087181901E+03  0.00000000000E+00 0.  1.
         13    1    5    5    0    0 -0.15932392984E+02 -0.18843742209E+03 -0.29375590690E+02  0.19137771165E+03  0.00000000000E+00 0. -1.
        -13    1    5    5    0    0 -0.79526640371E+01 -0.25261247195E+02 -0.46736584529E+02  0.53718561118E+02  0.00000000000E+00 0.  1.
          2    1    6    6  503    0 -0.23522398116E+03  0.10533816893E+01  0.98192768764E+02  0.25489851071E+03  0.00000000000E+00 0. -1.
         -2    1    6    6    0  503 -0.50949516284E+03 -0.81333750219E+02  0.10280150068E+03  0.52608806148E+03  0.00000000000E+00 0.  1.
<mgrwt>
<rscale>  0 0.89544107E+03</rscale>
<asrwt>0</asrwt>
<pdfrwt beam="1">  1        1 0.31455894E+00 0.89544107E+03</pdfrwt>
<pdfrwt beam="2">  1       -1 0.87266945E-01 0.89544107E+03</pdfrwt>
<totfact> 0.36897681E+00</totfact>
</mgrwt>
</event>
<event>
12    1  0.1444206E-007  0.1054241E+04  0.7818608E-02  0.9250976E-01
         -1   -1    0    0    0  501 -0.00000000000E+00  0.00000000000E+00  0.13704112641E+04  0.13704112641E+04  0.00000000000E+00 0.  1.
          1   -1    0    0  501    0  0.00000000000E+00 -0.00000000000E+00 -0.13474449815E+04  0.13474449815E+04  0.00000000000E+00 0. -1.
         23    2    1    2    0    0  0.15393534157E+03  0.10277872662E+04  0.77679396581E+03  0.13006791389E+04  0.91184445494E+02 0.  0.
    5000000    2    1    2    0    0 -0.15393534157E+03 -0.10277872662E+04 -0.75382768322E+03  0.14171771066E+04  0.60007667976E+03 0.  0.
         23    2    4    4    0    0  0.68236758460E+01 -0.53213782038E+03 -0.70210363216E+03  0.88575263095E+03  0.91602349883E+02 0.  0.
         23    2    4    4    0    0 -0.16075901741E+03 -0.49564944585E+03 -0.51724051058E+02  0.53142447570E+03  0.90690468403E+02 0.  0.
          3    1    3    3  502    0  0.95657062086E+02  0.42628466364E+03  0.36629721843E+03  0.57012502157E+03  0.00000000000E+00 0. -1.
         -3    1    3    3    0  502  0.58278279483E+02  0.60150260259E+03  0.41049674737E+03  0.73055411736E+03  0.00000000000E+00 0.  1.
         13    1    5    5    0    0  0.29008453350E+02 -0.58031622160E+02 -0.97397360893E+02  0.11702737050E+03  0.00000000000E+00 0.  1.
        -13    1    5    5    0    0 -0.22184777504E+02 -0.47410619823E+03 -0.60470627126E+03  0.76872526045E+03  0.00000000000E+00 0. -1.
          3    1    6    6  503    0 -0.80589140554E+02 -0.12627209696E+03  0.90963437573E+00  0.14980013178E+03  0.00000000000E+00 0. -1.
         -3    1    6    6    0  503 -0.80169876861E+02 -0.36937734889E+03 -0.52633685434E+02  0.38162434392E+03  0.00000000000E+00 0.  1.
<mgrwt>
<rscale>  0 0.10542412E+04</rscale>
<asrwt>0</asrwt>
<pdfrwt beam="1">  1        1 0.20729923E+00 0.10542412E+04</pdfrwt>
<pdfrwt beam="2">  1       -1 0.21083250E+00 0.10542412E+04</pdfrwt>
<totfact> 0.10605895E+00</totfact>
</mgrwt>
</event>
<event>
12    1  0.1444206E-007  0.7093797E+03  0.7818608E-02  0.9701325E-01
          2   -1    0    0  501    0  0.00000000000E+00  0.00000000000E+00  0.13558188215E+04  0.13558188215E+04  0.00000000000E+00 0. -1.
         -2   -1    0    0    0  501 -0.00000000000E+00 -0.00000000000E+00 -0.43121993836E+03  0.43121993836E+03  0.00000000000E+00 0.  1.
         23    2    1    2    0    0  0.60065341963E+03  0.13657746844E+03  0.17423704225E+03  0.64573604196E+03  0.84726345351E+02 0.  0.
    5000000    2    1    2    0    0 -0.60065341963E+03 -0.13657746844E+03  0.75036184087E+03  0.11413027179E+04  0.60007588369E+03 0.  0.
         23    2    4    4    0    0 -0.68379180979E+03 -0.86512257453E+02  0.49558786031E+03  0.85381158307E+03  0.91275858118E+02 0.  0.
         23    2    4    4    0    0  0.83138390152E+02 -0.50065210983E+02  0.25477398056E+03  0.28749113480E+03  0.91229678030E+02 0.  0.
          3    1    3    3  502    0  0.30220313640E+03  0.73851577743E+02  0.13165317735E+03  0.33780667591E+03  0.00000000000E+00 0. -1.
         -3    1    3    3    0  502  0.29845028324E+03  0.62725890692E+02  0.42583864896E+02  0.30792936605E+03  0.00000000000E+00 0.  1.
         13    1    5    5    0    0 -0.33895470034E+03 -0.87970607826E+02  0.26081302556E+03  0.43663778011E+03  0.00000000000E+00 0. -1.
        -13    1    5    5    0    0 -0.34483710945E+03  0.14583503740E+01  0.23477483475E+03  0.41717380295E+03  0.00000000000E+00 0.  1.
          2    1    6    6  503    0  0.48971008932E+02 -0.24105362693E+01  0.20436499083E+03  0.21016426879E+03  0.00000000000E+00 0. -1.
         -2    1    6    6    0  503  0.34167381220E+02 -0.47654674713E+02  0.50408989730E+02  0.77326866011E+02  0.00000000000E+00 0.  1.
<mgrwt>
<rscale>  0 0.70937968E+03</rscale>
<asrwt>0</asrwt>
<pdfrwt beam="1">  1        2 0.20858751E+00 0.70937968E+03</pdfrwt>
<pdfrwt beam="2">  1       -2 0.66341530E-01 0.70937968E+03</pdfrwt>
<totfact> 0.32865270E+01</totfact>
</mgrwt>
</event>
<event>
12    1  0.1444206E-007  0.9784475E+03  0.7818608E-02  0.9332504E-01
          2   -1    0    0  501    0  0.00000000000E+00  0.00000000000E+00  0.15001244777E+04  0.15001244777E+04  0.00000000000E+00 0. -1.
         -2   -1    0    0    0  501 -0.00000000000E+00 -0.00000000000E+00 -0.68635481175E+03  0.68635481175E+03  0.00000000000E+00 0.  1.
         23    2    1    2    0    0 -0.57061320991E+03  0.69155665906E+03  0.12962237701E+03  0.90930528435E+03  0.78638994842E+02 0.  0.
    5000000    2    1    2    0    0  0.57061320991E+03 -0.69155665906E+03  0.68414728893E+03  0.12771740051E+04  0.59938791970E+03 0.  0.
         23    2    4    4    0    0  0.44974102269E+03 -0.12012625137E+03  0.40642099494E+03  0.62392388056E+03  0.86056259773E+02 0.  0.
         23    2    4    4    0    0  0.12087218723E+03 -0.57143040769E+03  0.27772629398E+03  0.65325012452E+03  0.91983880861E+02 0.  0.
          2    1    3    3  502    0 -0.19481905356E+03  0.26347891860E+03  0.81414810748E+02  0.33764474761E+03  0.00000000000E+00 0. -1.
         -2    1    3    3    0  502 -0.37579415635E+03  0.42807774045E+03  0.48207566259E+02  0.57166053674E+03  0.00000000000E+00 0.  1.
         13    1    5    5    0    0  0.64831813345E+02  0.12521544001E+02  0.49971247814E+02  0.82807479697E+02  0.00000000000E+00 0. -1.
        -13    1    5    5    0    0  0.38490920934E+03 -0.13264779537E+03  0.35644974713E+03  0.54111640086E+03  0.00000000000E+00 0.  1.
          4    1    6    6  503    0  0.70593701089E+02 -0.21058186452E+03  0.65254122599E+02  0.23148713315E+03  0.00000000000E+00 0. -1.
         -4    1    6    6    0  503  0.50278486137E+02 -0.36084854317E+03  0.21247217138E+03  0.42176299137E+03  0.00000000000E+00 0.  1.
<mgrwt>
<rscale>  0 0.97844753E+03</rscale>
<asrwt>0</asrwt>
<pdfrwt beam="1">  1        2 0.23078838E+00 0.97844753E+03</pdfrwt>
<pdfrwt beam="2">  1       -2 0.10559305E+00 0.97844753E+03</pdfrwt>
<totfact> 0.91789141E+00</totfact>
</mgrwt>
</event>
<event>
12    1  0.1444206E-007  0.7471799E+03  0.7818608E-02  0.9639785E-01
         -1   -1    0    0    0  501 -0.00000000000E+00  0.00000000000E+00  0.54611681778E+03  0.54611681778E+03  0.00000000000E+00 0.  1.
          1   -1    0    0  501    0  0.00000000000E+00 -0.00000000000E+00 -0.11419569602E+04  0.11419569602E+04  0.00000000000E+00 0. -1.
         23    2    1    2    0    0  0.59355745581E+03 -0.21412833771E+03 -0.80834805591E+01  0.63754481400E+03  0.90755985155E+02 0.  0.
    5000000    2    1    2    0    0 -0.59355745581E+03  0.21412833771E+03 -0.58775666188E+03  0.10505289640E+04  0.59999317685E+03 0.  0.
         23    2    4    4    0    0  0.50906843658E+02  0.18707343112E+03 -0.98098536801E+02  0.23563334288E+03  0.91168931072E+02 0.  0.
         23    2    4    4    0    0 -0.64446429946E+03  0.27054906591E+02 -0.48965812508E+03  0.81489562112E+03  0.90684026228E+02 0.  0.
          1    1    3    3  502    0  0.29752567704E+03 -0.12373400889E+03  0.38547363696E+02  0.32452662864E+03  0.00000000000E+00 0. -1.
         -1    1    3    3    0  502  0.29603177877E+03 -0.90394328823E+02 -0.46630844255E+02  0.31301818535E+03  0.00000000000E+00 0.  1.
         11    1    5    5    0    0  0.60071522604E+02  0.63357147730E+02 -0.59713288654E+02  0.10577519954E+03  0.00000000000E+00 0. -1.
        -11    1    5    5    0    0 -0.91646789468E+01  0.12371628339E+03 -0.38385248148E+02  0.12985814334E+03  0.00000000000E+00 0.  1.
          4    1    6    6  503    0 -0.40258923804E+03 -0.26671223326E+02 -0.31134722582E+03  0.50963373492E+03  0.00000000000E+00 0. -1.
         -4    1    6    6    0  503 -0.24187506142E+03  0.53726129917E+02 -0.17831089925E+03  0.30526188620E+03  0.00000000000E+00 0.  1.
<mgrwt>
<rscale>  0 0.74717992E+03</rscale>
<asrwt>0</asrwt>
<pdfrwt beam="1">  1        1 0.17568569E+00 0.74717992E+03</pdfrwt>
<pdfrwt beam="2">  1       -1 0.84017972E-01 0.74717992E+03</pdfrwt>
<totfact> 0.17083374E+01</totfact>
</mgrwt>
</event>
<event>
12    1  0.1444206E-007  0.6027185E+03  0.7818608E-02  0.9899782E-01
          2   -1    0    0  501    0  0.00000000000E+00  0.00000000000E+00  0.24209296361E+04  0.24209296361E+04  0.00000000000E+00 0. -1.
         -2   -1    0    0    0  501 -0.00000000000E+00 -0.00000000000E+00 -0.54727258357E+03  0.54727258357E+03  0.00000000000E+00 0.  1.
         23    2    1    2    0    0 -0.13538618840E+03 -0.48981510903E+03 -0.34043390754E+03  0.61860723797E+03  0.92365623543E+02 0.  0.
    5000000    2    1    2    0    0  0.13538618840E+03  0.48981510903E+03  0.22140909601E+04  0.23495949817E+04  0.60012460171E+03 0.  0.
         23    2    4    4    0    0  0.22707234499E+03  0.57466286605E+02  0.13659949325E+04  0.13888724171E+04  0.90333888921E+02 0.  0.
         23    2    4    4    0    0 -0.91686156585E+02  0.43234882243E+03  0.84809602760E+03  0.96072256461E+03  0.91592131556E+02 0.  0.
          3    1    3    3  502    0 -0.13348002649E+03 -0.32061578005E+03 -0.23025601746E+03  0.41668840813E+03  0.00000000000E+00 0. -1.
         -3    1    3    3    0  502 -0.19061619108E+01 -0.16919932898E+03 -0.11017789008E+03  0.20191882984E+03  0.00000000000E+00 0.  1.
         13    1    5    5    0    0  0.10158796978E+03  0.66012362880E+02  0.54535512334E+03  0.55865012147E+03  0.00000000000E+00 0. -1.
        -13    1    5    5    0    0  0.12548437521E+03 -0.85460762753E+01  0.82063980914E+03  0.83022229564E+03  0.00000000000E+00 0.  1.
          2    1    6    6  503    0 -0.50855568974E+02  0.25478151864E+03  0.59124796053E+03  0.64581271431E+03  0.00000000000E+00 0. -1.
         -2    1    6    6    0  503 -0.40830587611E+02  0.17756730379E+03  0.25684806707E+03  0.31490985030E+03  0.00000000000E+00 0.  1.
<mgrwt>
<rscale>  0 0.60271853E+03</rscale>
<asrwt>0</asrwt>
<pdfrwt beam="1">  1        2 0.37245071E+00 0.60271853E+03</pdfrwt>
<pdfrwt beam="2">  1       -2 0.84195783E-01 0.60271853E+03</pdfrwt>
<totfact> 0.51354375E+00</totfact>
</mgrwt>
</event>
<event>
12    1  0.1444206E-007  0.8020525E+03  0.7818608E-02  0.9557051E-01
         -1   -1    0    0    0  501 -0.00000000000E+00  0.00000000000E+00  0.17739569638E+04  0.17739569638E+04  0.00000000000E+00 0.  1.
          1   -1    0    0  501    0  0.00000000000E+00 -0.00000000000E+00 -0.43818560883E+03  0.43818560883E+03  0.00000000000E+00 0. -1.
         23    2    1    2    0    0  0.22694499595E+03  0.66837567140E+03  0.10012145562E+04  0.12281012832E+04  0.87017843445E+02 0.  0.
    5000000    2    1    2    0    0 -0.22694499595E+03 -0.66837567140E+03  0.33455679882E+03  0.98404128943E+03  0.59848052463E+03 0.  0.
         23    2    4    4    0    0  0.13492194882E+03 -0.30233112450E+02 -0.15951429879E+02  0.16572731498E+03  0.89961777728E+02 0.  0.
         23    2    4    4    0    0 -0.36186694477E+03 -0.63814255895E+03  0.35050822870E+03  0.81831397445E+03  0.92780014758E+02 0.  0.
          3    1    3    3  502    0  0.13543868897E+03  0.36233065558E+03  0.47572097158E+03  0.61313749293E+03  0.00000000000E+00 0. -1.
         -3    1    3    3    0  502  0.91506306979E+02  0.30604501581E+03  0.52549358461E+03  0.61496379031E+03  0.00000000000E+00 0.  1.
         11    1    5    5    0    0  0.11206063766E+03 -0.58033710600E+02 -0.24920744645E+02  0.12863336112E+03  0.00000000000E+00 0. -1.
        -11    1    5    5    0    0  0.22861311164E+02  0.27800598150E+02  0.89693147658E+01  0.37093953861E+02  0.00000000000E+00 0.  1.
          1    1    6    6  503    0 -0.29684393975E+03 -0.56167037265E+03  0.32991228446E+03  0.71584359151E+03  0.00000000000E+00 0. -1.
         -1    1    6    6    0  503 -0.65023005027E+02 -0.76472186298E+02  0.20595944236E+02  0.10247038294E+03  0.00000000000E+00 0.  1.
<mgrwt>
<rscale>  0 0.80205246E+03</rscale>
<asrwt>0</asrwt>
<pdfrwt beam="1">  1        1 0.67413172E-01 0.80205246E+03</pdfrwt>
<pdfrwt beam="2">  1       -1 0.27291645E+00 0.80205246E+03</pdfrwt>
<totfact> 0.27252253E+00</totfact>
</mgrwt>
</event>
<event>
12    1  0.1444206E-007  0.9614439E+03  0.7818608E-02  0.9351874E-01
          2   -1    0    0  501    0  0.00000000000E+00  0.00000000000E+00  0.12465055654E+04  0.12465055654E+04  0.00000000000E+00 0. -1.
         -2   -1    0    0    0  501 -0.00000000000E+00 -0.00000000000E+00 -0.10525552536E+04  0.10525552536E+04  0.00000000000E+00 0.  1.
         23    2    1    2    0    0  0.65516595764E+03 -0.59641709769E+03  0.68320952131E+03  0.11225072973E+04  0.91058201150E+02 0.  0.
    5000000    2    1    2    0    0 -0.65516595764E+03  0.59641709769E+03 -0.48925920959E+03  0.11765535217E+04  0.59995652244E+03 0.  0.
         23    2    4    4    0    0  0.44061331809E+02 -0.26358197819E+02  0.53586103873E+01  0.11423946434E+03  0.10191067144E+03 0.  0.
         23    2    4    4    0    0 -0.69922728945E+03  0.62277529551E+03 -0.49461781998E+03  0.10623140574E+04  0.84240712574E+02 0.  0.
          2    1    3    3  502    0  0.31936129233E+03 -0.25193762744E+03  0.35750166622E+03  0.54154560704E+03  0.00000000000E+00 0.  1.
         -2    1    3    3    0  502  0.33580466531E+03 -0.34447947025E+03  0.32570785509E+03  0.58096169025E+03  0.00000000000E+00 0. -1.
         13    1    5    5    0    0  0.12592169573E+02 -0.54818575046E+02 -0.25517950987E+02  0.61764105492E+02  0.00000000000E+00 0. -1.
        -13    1    5    5    0    0  0.31469162236E+02  0.28460377226E+02  0.30876561375E+02  0.52475358846E+02  0.00000000000E+00 0.  1.
          3    1    6    6  503    0 -0.42943908246E+03  0.38486635511E+03 -0.25788647313E+03  0.63170045897E+03  0.00000000000E+00 0.  1.
         -3    1    6    6    0  503 -0.26978820699E+03  0.23790894040E+03 -0.23673134685E+03  0.43061359840E+03  0.00000000000E+00 0. -1.
<mgrwt>
<rscale>  0 0.96144386E+03</rscale>
<asrwt>0</asrwt>
<pdfrwt beam="1">  1        2 0.19177009E+00 0.96144386E+03</pdfrwt>
<pdfrwt beam="2">  1       -2 0.16193158E+00 0.96144386E+03</pdfrwt>
<totfact> 0.43132469E+00</totfact>
</mgrwt>
</event>
<event>
12    1  0.1444206E-007  0.6624565E+03  0.7818608E-02  0.9783682E-01
         -2   -1    0    0    0  501 -0.00000000000E+00  0.00000000000E+00  0.12493623677E+04  0.12493623677E+04  0.00000000000E+00 0. -1.
          2   -1    0    0  501    0  0.00000000000E+00 -0.00000000000E+00 -0.16739777942E+04  0.16739777942E+04  0.00000000000E+00 0.  1.
         23    2    1    2    0    0 -0.61703144945E+03 -0.31720239050E+02  0.10465044885E+04  0.12186464258E+04  0.90517862444E+02 0.  0.
    5000000    2    1    2    0    0  0.61703144945E+03  0.31720239050E+02 -0.14711199151E+04  0.17046937361E+04  0.60004412004E+03 0.  0.
         23    2    4    4    0    0  0.10808853805E+02 -0.22983772578E+02 -0.75364531408E+03  0.75953185851E+03  0.90897192144E+02 0.  0.
         23    2    4    4    0    0  0.60622259564E+03  0.54704011628E+02 -0.71747460105E+03  0.94516187757E+03  0.89793136247E+02 0.  0.
          4    1    3    3  502    0 -0.34781686338E+03 -0.53864062935E+02  0.53915740304E+03  0.64387002802E+03  0.00000000000E+00 0. -1.
         -4    1    3    3    0  502 -0.26921458606E+03  0.22143823886E+02  0.50734708550E+03  0.57477639779E+03  0.00000000000E+00 0.  1.
         11    1    5    5    0    0  0.39084126329E+02  0.19049827396E+02 -0.37525570182E+03  0.37776620628E+03  0.00000000000E+00 0. -1.
        -11    1    5    5    0    0 -0.28275272524E+02 -0.42033599974E+02 -0.37838961225E+03  0.38176565223E+03  0.00000000000E+00 0.  1.
          4    1    6    6  503    0  0.22211042206E+03  0.19243431787E+02 -0.19833123740E+03  0.29839341310E+03  0.00000000000E+00 0.  1.
         -4    1    6    6    0  503  0.38411217359E+03  0.35460579841E+02 -0.51914336365E+03  0.64676846448E+03  0.00000000000E+00 0. -1.
<mgrwt>
<rscale>  0 0.66245649E+03</rscale>
<asrwt>0</asrwt>
<pdfrwt beam="1">  1        2 0.25753505E+00 0.66245649E+03</pdfrwt>
<pdfrwt beam="2">  1       -2 0.19220959E+00 0.66245649E+03</pdfrwt>
<totfact> 0.15993672E+00</totfact>
</mgrwt>
</event>
<event>
12    1  0.1444206E-007  0.6702379E+03  0.7818608E-02  0.9769528E-01
          1   -1    0    0  501    0  0.00000000000E+00  0.00000000000E+00  0.33555119297E+03  0.33555119297E+03  0.00000000000E+00 0. -1.
         -1   -1    0    0    0  501 -0.00000000000E+00 -0.00000000000E+00 -0.22469268305E+04  0.22469268305E+04  0.00000000000E+00 0.  1.
         23    2    1    2    0    0 -0.40997510087E+03 -0.34931244430E+03 -0.16454174746E+04  0.17339233428E+04  0.94829984385E+02 0.  0.
    5000000    2    1    2    0    0  0.40997510087E+03  0.34931244430E+03 -0.26595816285E+03  0.84855468058E+03  0.59934341948E+03 0.  0.
         23    2    4    4    0    0  0.49740765914E+03  0.91633431279E+02 -0.21417611036E+03  0.55681585400E+03  0.91440821963E+02 0.  0.
         23    2    4    4    0    0 -0.87432558264E+02  0.25767901302E+03 -0.51782052495E+02  0.29173882658E+03  0.91581853979E+02 0.  0.
          1    1    3    3  502    0 -0.52096106800E+02 -0.93229559027E+02 -0.32876361287E+03  0.34567509047E+03  0.00000000000E+00 0. -1.
         -1    1    3    3    0  502 -0.35787899407E+03 -0.25608288527E+03 -0.13166538618E+04  0.13882482524E+04  0.00000000000E+00 0.  1.
         13    1    5    5    0    0  0.25473317522E+03  0.60918569342E+02 -0.63436159980E+02  0.26948879205E+03  0.00000000000E+00 0. -1.
        -13    1    5    5    0    0  0.24267448392E+03  0.30714861937E+02 -0.15073995038E+03  0.28732706195E+03  0.00000000000E+00 0.  1.
          1    1    6    6  503    0  0.87310759870E+01  0.11317474500E+03 -0.22099913560E+02  0.11564238312E+03  0.00000000000E+00 0. -1.
         -1    1    6    6    0  503 -0.96163634251E+02  0.14450426802E+03 -0.29682138935E+02  0.17609644346E+03  0.00000000000E+00 0.  1.
<mgrwt>
<rscale>  0 0.67023786E+03</rscale>
<asrwt>0</asrwt>
<pdfrwt beam="1">  1        1 0.51623261E-01 0.67023786E+03</pdfrwt>
<pdfrwt beam="2">  1       -1 0.34568105E+00 0.67023786E+03</pdfrwt>
<totfact> 0.13514639E+00</totfact>
</mgrwt>
</event>
<event>
12    1  0.1444206E-007  0.8475998E+03  0.7818608E-02  0.9493564E-01
          1   -1    0    0  501    0  0.00000000000E+00  0.00000000000E+00  0.37510510805E+04  0.37510510805E+04  0.00000000000E+00 0. -1.
         -1   -1    0    0    0  501 -0.00000000000E+00 -0.00000000000E+00 -0.43352387261E+03  0.43352387261E+03  0.00000000000E+00 0.  1.
         23    2    1    2    0    0  0.71735420322E+03  0.19388526547E+03  0.16503546044E+02  0.74811501921E+03  0.84942132620E+02 0.  0.
    5000000    2    1    2    0    0 -0.71735420322E+03 -0.19388526547E+03  0.33010236618E+04  0.34364599339E+04  0.60025920418E+03 0.  0.
         23    2    4    4    0    0  0.66361737958E+01 -0.20524419303E+03  0.84320798928E+03  0.87259604943E+03  0.90856671327E+02 0.  0.
         23    2    4    4    0    0 -0.72399037702E+03  0.11358927554E+02  0.24578156726E+04  0.25638638845E+04  0.90824261797E+02 0.  0.
          2    1    3    3  502    0  0.31189261008E+03  0.12343070471E+03  0.26333015172E+02  0.33646034948E+03  0.00000000000E+00 0. -1.
         -2    1    3    3    0  502  0.40546159314E+03  0.70454560759E+02 -0.98294691278E+01  0.41165466973E+03  0.00000000000E+00 0.  1.
         11    1    5    5    0    0 -0.36695324486E+02 -0.12189822681E+03  0.40946562158E+03  0.42879811076E+03  0.00000000000E+00 0. -1.
        -11    1    5    5    0    0  0.43331498282E+02 -0.83345966215E+02  0.43374236770E+03  0.44379793867E+03  0.00000000000E+00 0.  1.
          3    1    6    6  503    0 -0.27621741532E+03  0.35953139340E+02  0.10521660141E+04  0.10884126102E+04  0.00000000000E+00 0.  1.
         -3    1    6    6    0  503 -0.44777296170E+03 -0.24594211786E+02  0.14056496584E+04  0.14754512743E+04  0.00000000000E+00 0. -1.
<mgrwt>
<rscale>  0 0.84759984E+03</rscale>
<asrwt>0</asrwt>
<pdfrwt beam="1">  1        1 0.57708476E+00 0.84759984E+03</pdfrwt>
<pdfrwt beam="2">  1       -1 0.66695983E-01 0.84759984E+03</pdfrwt>
<totfact> 0.38500768E-01</totfact>
</mgrwt>
</event>
<event>
12    1  0.1444206E-007  0.1029288E+04  0.7818608E-02  0.9276993E-01
          2   -1    0    0  501    0  0.00000000000E+00  0.00000000000E+00  0.34430543773E+04  0.34430543773E+04  0.00000000000E+00 0. -1.
         -2   -1    0    0    0  501 -0.00000000000E+00 -0.00000000000E+00 -0.48251098454E+03  0.48251098454E+03  0.00000000000E+00 0.  1.
         23    2    1    2    0    0  0.98682432864E+03 -0.61057764838E+01  0.31672291144E+03  0.10404924261E+04  0.91932312178E+02 0.  0.
    5000000    2    1    2    0    0 -0.98682432864E+03  0.61057764838E+01  0.26438204813E+04  0.28850729357E+04  0.59999964251E+03 0.  0.
         23    2    4    4    0    0 -0.34057117322E+03  0.19922456953E+03  0.15092400960E+04  0.15624685180E+04  0.88448003101E+02 0.  0.
         23    2    4    4    0    0 -0.64625315543E+03 -0.19311879305E+03  0.11345803853E+04  0.13226044177E+04  0.84093911401E+02 0.  0.
          3    1    3    3  502    0  0.39438498883E+03  0.20156763417E+02  0.16770560821E+03  0.42903494677E+03  0.00000000000E+00 0. -1.
         -3    1    3    3    0  502  0.59243933981E+03 -0.26262539901E+02  0.14901730324E+03  0.61145747932E+03  0.00000000000E+00 0.  1.
         11    1    5    5    0    0 -0.13308263096E+03  0.66176803459E+02  0.73733404277E+03  0.75216477358E+03  0.00000000000E+00 0.  1.
        -11    1    5    5    0    0 -0.20748854226E+03  0.13304776607E+03  0.77190605323E+03  0.81030374444E+03  0.00000000000E+00 0. -1.
          3    1    6    6  503    0 -0.54860653671E+03 -0.14958396400E+03  0.89662431680E+03  0.10617342699E+04  0.00000000000E+00 0. -1.
         -3    1    6    6    0  503 -0.97646618715E+02 -0.43534829043E+02  0.23795606846E+03  0.26087014778E+03  0.00000000000E+00 0.  1.
<mgrwt>
<rscale>  0 0.10292883E+04</rscale>
<asrwt>0</asrwt>
<pdfrwt beam="1">  1        2 0.52970066E+00 0.10292883E+04</pdfrwt>
<pdfrwt beam="2">  1       -2 0.74232461E-01 0.10292883E+04</pdfrwt>
<totfact> 0.14970198E+00</totfact>
</mgrwt>
</event>
<event>
12    1  0.1444206E-007  0.4301091E+03  0.7818608E-02  0.1033826E+00
          1   -1    0    0  501    0  0.00000000000E+00  0.00000000000E+00  0.12105713988E+04  0.12105713988E+04  0.00000000000E+00 0. -1.
         -1   -1    0    0    0  501 -0.00000000000E+00 -0.00000000000E+00 -0.20156275172E+03  0.20156275172E+03  0.00000000000E+00 0.  1.
         23    2    1    2    0    0 -0.16730075012E+02  0.24833802677E+03  0.76418455266E+02  0.27568041585E+03  0.90599340105E+02 0.  0.
    5000000    2    1    2    0    0  0.16730075012E+02 -0.24833802677E+03  0.93259019179E+03  0.11364537346E+04  0.59987578231E+03 0.  0.
         23    2    4    4    0    0 -0.18367858227E+03 -0.32193884143E+03  0.74356847180E+03  0.83599142587E+03  0.92763962163E+02 0.  0.
         23    2    4    4    0    0  0.20040865728E+03  0.73600814656E+02  0.18902171999E+03  0.30046230877E+03  0.94697827474E+02 0.  0.
          3    1    3    3  502    0  0.34185813605E+02  0.59619638563E+02  0.28676563314E+02  0.74468224349E+02  0.00000000000E+00 0. -1.
         -3    1    3    3    0  502 -0.50915888616E+02  0.18871838821E+03  0.47741891953E+02  0.20121219150E+03  0.00000000000E+00 0.  1.
         11    1    5    5    0    0 -0.72601570979E+02 -0.21764810847E+03  0.43100225410E+03  0.48826696619E+03  0.00000000000E+00 0. -1.
        -11    1    5    5    0    0 -0.11107701129E+03 -0.10429073296E+03  0.31256621770E+03  0.34772445968E+03  0.00000000000E+00 0.  1.
          1    1    6    6  503    0  0.13963346549E+03  0.42521445948E+02  0.66916206022E+02  0.16057196729E+03  0.00000000000E+00 0. -1.
         -1    1    6    6    0  503  0.60775191792E+02  0.31079368708E+02  0.12210551397E+03  0.13989034148E+03  0.00000000000E+00 0.  1.
<mgrwt>
<rscale>  0 0.43010907E+03</rscale>
<asrwt>0</asrwt>
<pdfrwt beam="1">  1        1 0.18624175E+00 0.43010907E+03</pdfrwt>
<pdfrwt beam="2">  1       -1 0.31009655E-01 0.43010907E+03</pdfrwt>
<totfact> 0.10675882E+02</totfact>
</mgrwt>
</event>
<event>
12    1  0.1444206E-007  0.4069027E+03  0.7818608E-02  0.1041415E+00
         -2   -1    0    0    0  501 -0.00000000000E+00  0.00000000000E+00  0.15512386286E+03  0.15512386286E+03  0.00000000000E+00 0.  1.
          2   -1    0    0  501    0  0.00000000000E+00 -0.00000000000E+00 -0.22305252053E+04  0.22305252053E+04  0.00000000000E+00 0. -1.
         23    2    1    2    0    0  0.83276542867E+02 -0.34083810584E+03 -0.27355810428E+03  0.45436077147E+03  0.92217553905E+02 0.  0.
    5000000    2    1    2    0    0 -0.83276542867E+02  0.34083810584E+03 -0.18018432381E+04  0.19312882967E+04  0.60010818446E+03 0.  0.
         23    2    4    4    0    0  0.97263073127E+02  0.17218505595E+03 -0.15562493824E+04  0.15713749799E+04  0.90550474432E+02 0.  0.
         23    2    4    4    0    0 -0.18053961599E+03  0.16865304989E+03 -0.24559385577E+03  0.35991331678E+03  0.90459103598E+02 0.  0.
          1    1    3    3  502    0  0.10052050600E+02 -0.21462682225E+03 -0.13922158623E+03  0.25602415242E+03  0.00000000000E+00 0. -1.
         -1    1    3    3    0  502  0.73224492266E+02 -0.12621128359E+03 -0.13433651806E+03  0.19833661905E+03  0.00000000000E+00 0.  1.
         13    1    5    5    0    0  0.72471850841E+02  0.70845224378E+02 -0.10235704426E+04  0.10285755519E+04  0.00000000000E+00 0.  1.
        -13    1    5    5    0    0  0.24791222285E+02  0.10133983157E+03 -0.53267893973E+03  0.54279942797E+03  0.00000000000E+00 0. -1.
          2    1    6    6  503    0 -0.11449523775E+03  0.11479344957E+03 -0.21518779296E+03  0.26942991996E+03  0.00000000000E+00 0. -1.
         -2    1    6    6    0  503 -0.66044378244E+02  0.53859600325E+02 -0.30406062812E+02  0.90483396822E+02  0.00000000000E+00 0.  1.
<mgrwt>
<rscale>  0 0.40690265E+03</rscale>
<asrwt>0</asrwt>
<pdfrwt beam="1">  1        2 0.34315772E+00 0.40690265E+03</pdfrwt>
<pdfrwt beam="2">  1       -2 0.23865210E-01 0.40690265E+03</pdfrwt>
<totfact> 0.84245055E+01</totfact>
</mgrwt>
</event>
<event>
12    1  0.1444206E-007  0.1295025E+04  0.7818608E-02  0.9033520E-01
         -1   -1    0    0    0  501 -0.00000000000E+00  0.00000000000E+00  0.10426085235E+04  0.10426085235E+04  0.00000000000E+00 0.  1.
          1   -1    0    0  501    0  0.00000000000E+00 -0.00000000000E+00 -0.17089134185E+04  0.17089134185E+04  0.00000000000E+00 0. -1.
         23    2    1    2    0    0  0.24133692915E+03 -0.12028402386E+04 -0.63722049033E+03  0.13855004592E+04  0.92159731997E+02 0.  0.
    5000000    2    1    2    0    0 -0.24133692915E+03  0.12028402386E+04 -0.29084404691E+02  0.13660214828E+04  0.60008385742E+03 0.  0.
         23    2    4    4    0    0  0.12800126467E+03  0.78873156491E+02  0.19736617970E+02  0.17850154609E+03  0.94169895909E+02 0.  0.
         23    2    4    4    0    0 -0.36933819381E+03  0.11239670821E+04 -0.48821022661E+02  0.11875199367E+04  0.90041128321E+02 0.  0.
          4    1    3    3  502    0  0.86992743370E+02 -0.56822793428E+03 -0.25604526897E+03  0.62929317687E+03  0.00000000000E+00 0. -1.
         -4    1    3    3    0  502  0.15434418578E+03 -0.63461230430E+03 -0.38117522137E+03  0.75620728232E+03  0.00000000000E+00 0.  1.
         11    1    5    5    0    0  0.78221767980E+02  0.95887729873E+02  0.22700990898E+02  0.12581111522E+03  0.00000000000E+00 0.  1.
        -11    1    5    5    0    0  0.49779496686E+02 -0.17014573382E+02 -0.29643729285E+01  0.52690430863E+02  0.00000000000E+00 0. -1.
          3    1    6    6  503    0 -0.85926542024E+02  0.16882924839E+03 -0.23601987308E+02  0.19090243461E+03  0.00000000000E+00 0. -1.
         -3    1    6    6    0  503 -0.28341165179E+03  0.95513783369E+03 -0.25219035353E+02  0.99661750209E+03  0.00000000000E+00 0.  1.
<mgrwt>
<rscale>  0 0.12950247E+04</rscale>
<asrwt>0</asrwt>
<pdfrwt beam="1">  1        1 0.26290975E+00 0.12950247E+04</pdfrwt>
<pdfrwt beam="2">  1       -1 0.16040131E+00 0.12950247E+04</pdfrwt>
<totfact> 0.13231857E+00</totfact>
</mgrwt>
</event>
<event>
12    1  0.1444206E-007  0.6924184E+03  0.7818608E-02  0.9730286E-01
         -2   -1    0    0    0  501 -0.00000000000E+00  0.00000000000E+00  0.79898104706E+03  0.79898104706E+03  0.00000000000E+00 0.  1.
          2   -1    0    0  501    0  0.00000000000E+00 -0.00000000000E+00 -0.12546762314E+04  0.12546762314E+04  0.00000000000E+00 0. -1.
         23    2    1    2    0    0 -0.13606129859E+03 -0.66077036500E+03  0.41660872674E+03  0.79830950685E+03  0.92763598982E+02 0.  0.
    5000000    2    1    2    0    0  0.13606129859E+03  0.66077036500E+03 -0.87230391104E+03  0.12553477716E+04  0.59987812273E+03 0.  0.
         23    2    4    4    0    0  0.15816285742E+03  0.31002144259E+03 -0.59293190295E+02  0.36495752032E+03  0.92463640920E+02 0.  0.
         23    2    4    4    0    0 -0.22101558825E+02  0.35074892241E+03 -0.81301072075E+03  0.89039025125E+03  0.91077340707E+02 0.  0.
          3    1    3    3  502    0 -0.52578948073E+01 -0.13857619477E+03  0.12165082671E+03  0.18447203271E+03  0.00000000000E+00 0. -1.
         -3    1    3    3    0  502 -0.13080340378E+03 -0.52219417023E+03  0.29495790003E+03  0.61383747414E+03  0.00000000000E+00 0.  1.
         11    1    5    5    0    0  0.52342828997E+02  0.12822939244E+03  0.20447665991E+02  0.14000234240E+03  0.00000000000E+00 0.  1.
        -11    1    5    5    0    0  0.10582002842E+03  0.18179205015E+03 -0.79740856286E+02  0.22495517792E+03  0.00000000000E+00 0. -1.
          3    1    6    6  503    0  0.19592337612E+02  0.23745996416E+03 -0.47375654020E+03  0.53029836286E+03  0.00000000000E+00 0. -1.
         -3    1    6    6    0  503 -0.41693896437E+02  0.11328895825E+03 -0.33925418055E+03  0.36009188839E+03  0.00000000000E+00 0.  1.
<mgrwt>
<rscale>  0 0.69241837E+03</rscale>
<asrwt>0</asrwt>
<pdfrwt beam="1">  1        2 0.19302711E+00 0.69241837E+03</pdfrwt>
<pdfrwt beam="2">  1       -2 0.12292016E+00 0.69241837E+03</pdfrwt>
<totfact> 0.90421211E+00</totfact>
</mgrwt>
</event>
<event>
12    1  0.1444206E-007  0.4472823E+03  0.7818608E-02  0.1028536E+00
          1   -1    0    0  501    0  0.00000000000E+00  0.00000000000E+00  0.12165296419E+04  0.12165296419E+04  0.00000000000E+00 0. -1.
         -1   -1    0    0    0  501 -0.00000000000E+00 -0.00000000000E+00 -0.23125768419E+03  0.23125768419E+03  0.00000000000E+00 0.  1.
         23    2    1    2    0    0  0.27923320865E+03  0.89871139778E+02  0.60425274882E+03  0.67889080670E+03  0.98606979421E+02 0.  0.
    5000000    2    1    2    0    0 -0.27923320865E+03 -0.89871139778E+02  0.38101920886E+03  0.76889651935E+03  0.59998184420E+03 0.  0.
         23    2    4    4    0    0  0.13598995463E+03  0.22405785417E+02 -0.27920514565E+02  0.16822031218E+03  0.92321348098E+02 0.  0.
         23    2    4    4    0    0 -0.41522316328E+03 -0.11227692520E+03  0.40893972342E+03  0.60067620717E+03  0.92540938029E+02 0.  0.
          3    1    3    3  502    0  0.12909533600E+03  0.83779790405E+02  0.36822204366E+03  0.39908912850E+03  0.00000000000E+00 0. -1.
         -3    1    3    3    0  502  0.15013787265E+03  0.60913493727E+01  0.23603070516E+03  0.27980167819E+03  0.00000000000E+00 0.  1.
         13    1    5    5    0    0  0.91400952041E+02  0.49231398622E+02  0.93153369426E+01  0.10423358454E+03  0.00000000000E+00 0.  1.
        -13    1    5    5    0    0  0.44589002588E+02 -0.26825613205E+02 -0.37235851508E+02  0.63986727633E+02  0.00000000000E+00 0. -1.
          1    1    6    6  503    0 -0.21803428600E+03 -0.90841566639E+02  0.17499715271E+03  0.29396452772E+03  0.00000000000E+00 0. -1.
         -1    1    6    6    0  503 -0.19718887728E+03 -0.21435358556E+02  0.23394257071E+03  0.30671167945E+03  0.00000000000E+00 0.  1.
<mgrwt>
<rscale>  0 0.44728228E+03</rscale>
<asrwt>0</asrwt>
<pdfrwt beam="1">  1        1 0.18715840E+00 0.44728228E+03</pdfrwt>
<pdfrwt beam="2">  1       -1 0.35578106E-01 0.44728228E+03</pdfrwt>
<totfact> 0.82915294E+01</totfact>
</mgrwt>
</event>
<event>
12    1  0.1444206E-007  0.1093612E+04  0.7818608E-02  0.9211441E-01
          2   -1    0    0  501    0  0.00000000000E+00  0.00000000000E+00  0.25264941368E+04  0.25264941368E+04  0.00000000000E+00 0. -1.
         -2   -1    0    0    0  501 -0.00000000000E+00 -0.00000000000E+00 -0.61194185823E+03  0.61194185823E+03  0.00000000000E+00 0.  1.
         23    2    1    2    0    0 -0.10808927508E+04 -0.28694744913E+02  0.14643154579E+04  0.18224526922E+04  0.89227395431E+02 0.  0.
    5000000    2    1    2    0    0  0.10808927508E+04  0.28694744913E+02  0.45023682073E+03  0.13159833028E+04  0.59995527450E+03 0.  0.
         23    2    4    4    0    0  0.53293270654E+03  0.11991902185E+03  0.50645065488E+03  0.75020334107E+03  0.88965980189E+02 0.  0.
         23    2    4    4    0    0  0.54796004429E+03 -0.91224276936E+02 -0.56213834154E+02  0.56577996175E+03  0.91459778740E+02 0.  0.
          4    1    3    3  502    0 -0.39011056417E+03 -0.28497083911E+01  0.60048612507E+03  0.71608516219E+03  0.00000000000E+00 0. -1.
         -4    1    3    3    0  502 -0.69078218667E+03 -0.25845036522E+02  0.86382933281E+03  0.11063675301E+04  0.00000000000E+00 0.  1.
         13    1    5    5    0    0  0.87551547212E+02  0.41296993445E+02  0.12799820157E+03  0.16048132194E+03  0.00000000000E+00 0.  1.
        -13    1    5    5    0    0  0.44538115933E+03  0.78622028403E+02  0.37845245331E+03  0.58972201913E+03  0.00000000000E+00 0. -1.
          4    1    6    6  503    0  0.52859123809E+03 -0.80674810934E+02 -0.70739232276E+02  0.53937107921E+03  0.00000000000E+00 0.  1.
         -4    1    6    6    0  503  0.19368806209E+02 -0.10549466001E+02  0.14525398123E+02  0.26408882549E+02  0.00000000000E+00 0. -1.
<mgrwt>
<rscale>  0 0.10936120E+04</rscale>
<asrwt>0</asrwt>
<pdfrwt beam="1">  1        2 0.38869140E+00 0.10936120E+04</pdfrwt>
<pdfrwt beam="2">  1       -2 0.94144903E-01 0.10936120E+04</pdfrwt>
<totfact> 0.31892398E+00</totfact>
</mgrwt>
</event>
<event>
12    1  0.1444206E-007  0.2899394E+03  0.7818608E-02  0.1090381E+00
         -2   -1    0    0    0  501 -0.00000000000E+00  0.00000000000E+00  0.16802668521E+03  0.16802668521E+03  0.00000000000E+00 0.  1.
          2   -1    0    0  501    0  0.00000000000E+00 -0.00000000000E+00 -0.19999279269E+04  0.19999279269E+04  0.00000000000E+00 0. -1.
         23    2    1    2    0    0  0.17784454867E+03  0.20421918788E+03 -0.79754203927E+02  0.29615378593E+03  0.89510735035E+02 0.  0.
    5000000    2    1    2    0    0 -0.17784454867E+03 -0.20421918788E+03 -0.17521470378E+04  0.18718008262E+04  0.60023739532E+03 0.  0.
         23    2    4    4    0    0 -0.10600798570E+03 -0.59995524226E+02 -0.16549255917E+04  0.16619660098E+04  0.92277558323E+02 0.  0.
         23    2    4    4    0    0 -0.71836562973E+02 -0.14422366366E+03 -0.97221446070E+02  0.20983481637E+03  0.92831479815E+02 0.  0.
          1    1    3    3  502    0  0.12032170390E+03  0.12392903759E+03 -0.59093444191E+01  0.17283124468E+03  0.00000000000E+00 0.  1.
         -1    1    3    3    0  502  0.57522844776E+02  0.80290150297E+02 -0.73844859508E+02  0.12332254126E+03  0.00000000000E+00 0. -1.
         11    1    5    5    0    0 -0.22805877998E+02  0.46397906997E+01 -0.83173657984E+03  0.83206212146E+03  0.00000000000E+00 0. -1.
        -11    1    5    5    0    0 -0.83202107700E+02 -0.64635314925E+02 -0.82318901185E+03  0.82990388834E+03  0.00000000000E+00 0.  1.
          2    1    6    6  503    0 -0.69390187751E+01  0.10145856655E+02  0.54103332382E+01  0.13429821092E+02  0.00000000000E+00 0. -1.
         -2    1    6    6    0  503 -0.64897544198E+02 -0.15436952031E+03 -0.10263177931E+03  0.19640499527E+03  0.00000000000E+00 0.  1.
<mgrwt>
<rscale>  0 0.28993942E+03</rscale>
<asrwt>0</asrwt>
<pdfrwt beam="1">  1        2 0.30768125E+00 0.28993942E+03</pdfrwt>
<pdfrwt beam="2">  1       -2 0.25850257E-01 0.28993942E+03</pdfrwt>
<totfact> 0.99877160E+01</totfact>
</mgrwt>
</event>
<event>
12    1  0.1444206E-007  0.5993720E+03  0.7818608E-02  0.9906710E-01
         -2   -1    0    0    0  501 -0.00000000000E+00  0.00000000000E+00  0.35061404632E+03  0.35061404632E+03  0.00000000000E+00 0.  1.
          2   -1    0    0  501    0  0.00000000000E+00 -0.00000000000E+00 -0.28691634591E+04  0.28691634591E+04  0.00000000000E+00 0. -1.
         23    2    1    2    0    0 -0.55552381132E+03  0.37280693013E+02 -0.23062090273E+04  0.23742190429E+04  0.91210914810E+02 0.  0.
    5000000    2    1    2    0    0  0.55552381132E+03 -0.37280693013E+02 -0.21234038544E+03  0.84555846251E+03  0.59990342490E+03 0.  0.
         23    2    4    4    0    0  0.43432869739E+03  0.86528493840E+02  0.11261039190E+03  0.46565310249E+03  0.89571836372E+02 0.  0.
         23    2    4    4    0    0  0.12119511393E+03 -0.12380918685E+03 -0.32495077735E+03  0.37990536002E+03  0.93370790299E+02 0.  0.
          4    1    3    3  502    0 -0.28497857038E+03  0.44724690753E+02 -0.13480687825E+04  0.13785871484E+04  0.00000000000E+00 0. -1.
         -4    1    3    3    0  502 -0.27054524094E+03 -0.74439977399E+01 -0.95814024484E+03  0.99563189447E+03  0.00000000000E+00 0.  1.
         13    1    5    5    0    0  0.33677337759E+03  0.95004152803E+02  0.61799759619E+02  0.35533267116E+03  0.00000000000E+00 0. -1.
        -13    1    5    5    0    0  0.97555319797E+02 -0.84756589630E+01  0.50810632283E+02  0.11032043133E+03  0.00000000000E+00 0.  1.
          2    1    6    6  503    0  0.12297386604E+03 -0.77309906372E+02 -0.27878211605E+03  0.31435467481E+03  0.00000000000E+00 0. -1.
         -2    1    6    6    0  503 -0.17787521007E+01 -0.46499280481E+02 -0.46168661302E+02  0.65550685204E+02  0.00000000000E+00 0.  1.
<mgrwt>
<rscale>  0 0.59937204E+03</rscale>
<asrwt>0</asrwt>
<pdfrwt beam="1">  1        2 0.44140978E+00 0.59937204E+03</pdfrwt>
<pdfrwt beam="2">  1       -2 0.53940621E-01 0.59937204E+03</pdfrwt>
<totfact> 0.74312224E+00</totfact>
</mgrwt>
</event>
<event>
12    1  0.1444206E-007  0.1251352E+04  0.7818608E-02  0.9069058E-01
          1   -1    0    0  501    0  0.00000000000E+00  0.00000000000E+00  0.15447816700E+04  0.15447816700E+04  0.00000000000E+00 0. -1.
         -1   -1    0    0    0  501 -0.00000000000E+00 -0.00000000000E+00 -0.11756117143E+04  0.11756117143E+04  0.00000000000E+00 0.  1.
         23    2    1    2    0    0 -0.10062202400E+04 -0.64475121161E+03  0.63592480576E+03  0.13567902595E+04  0.91083222258E+02 0.  0.
    5000000    2    1    2    0    0  0.10062202400E+04  0.64475121161E+03 -0.26675485002E+03  0.13636031248E+04  0.60006002680E+03 0.  0.
         23    2    4    4    0    0 -0.20299091029E+01  0.17524022623E+03  0.46460172294E+02  0.20444243107E+03  0.94471702602E+02 0.  0.
         23    2    4    4    0    0  0.10082501491E+04  0.46951098538E+03 -0.31321502232E+03  0.11591606937E+04  0.92417180173E+02 0.  0.
          4    1    3    3  502    0 -0.63888315196E+03 -0.40028179794E+03  0.35167015884E+03  0.83190690600E+03  0.00000000000E+00 0.  1.
         -4    1    3    3    0  502 -0.36733708800E+03 -0.24446941368E+03  0.28425464691E+03  0.52488335346E+03  0.00000000000E+00 0. -1.
         13    1    5    5    0    0  0.38797762110E+02  0.48816389528E+02 -0.36263474179E+01  0.62461641244E+02  0.00000000000E+00 0. -1.
        -13    1    5    5    0    0 -0.40827671213E+02  0.12642383670E+03  0.50086519711E+02  0.14198078983E+03  0.00000000000E+00 0.  1.
          4    1    6    6  503    0  0.19753424652E+02  0.68041088849E+01  0.64739478246E+01  0.21872486911E+02  0.00000000000E+00 0. -1.
         -4    1    6    6    0  503  0.98849672442E+03  0.46270687650E+03 -0.31968897014E+03  0.11372882068E+04  0.00000000000E+00 0.  1.
<mgrwt>
<rscale>  0 0.12513525E+04</rscale>
<asrwt>0</asrwt>
<pdfrwt beam="1">  1        1 0.23765872E+00 0.12513525E+04</pdfrwt>
<pdfrwt beam="2">  1       -1 0.18086334E+00 0.12513525E+04</pdfrwt>
<totfact> 0.12172321E+00</totfact>
</mgrwt>
</event>
<event>
12    1  0.1444206E-007  0.1717638E+04  0.7818608E-02  0.8751368E-01
          2   -1    0    0  501    0  0.00000000000E+00  0.00000000000E+00  0.20240047203E+04  0.20240047203E+04  0.00000000000E+00 0. -1.
         -2   -1    0    0    0  501 -0.00000000000E+00 -0.00000000000E+00 -0.18019101826E+04  0.18019101826E+04  0.00000000000E+00 0.  1.
         23    2    1    2    0    0  0.15195463552E+04 -0.71290565579E+03 -0.69776500761E+03  0.18201223450E+04  0.93347442482E+02 0.  0.
    5000000    2    1    2    0    0 -0.15195463552E+04  0.71290565579E+03  0.91985954526E+03  0.20057925579E+04  0.59983881390E+03 0.  0.
         23    2    4    4    0    0 -0.44316723700E+03  0.48127050250E+03  0.47902943002E+03  0.81612512468E+03  0.92587946171E+02 0.  0.
         23    2    4    4    0    0 -0.10763791182E+04  0.23163515329E+03  0.44083011524E+03  0.11896674333E+04  0.93437470110E+02 0.  0.
          3    1    3    3  502    0  0.89732478852E+03 -0.40731004227E+03 -0.36151757979E+03  0.10496609963E+04  0.00000000000E+00 0. -1.
         -3    1    3    3    0  502  0.62222156672E+03 -0.30559561352E+03 -0.33624742782E+03  0.77046134868E+03  0.00000000000E+00 0.  1.
         13    1    5    5    0    0 -0.14530466194E+03  0.16847362561E+03  0.11083058232E+03  0.24855628193E+03  0.00000000000E+00 0. -1.
        -13    1    5    5    0    0 -0.29786257506E+03  0.31279687689E+03  0.36819884770E+03  0.56756884275E+03  0.00000000000E+00 0.  1.
          3    1    6    6  503    0 -0.13811185479E+03  0.47454050087E+02  0.30604514301E+02  0.14920927451E+03  0.00000000000E+00 0. -1.
         -3    1    6    6    0  503 -0.93826726345E+03  0.18418110321E+03  0.41022560094E+03  0.10404581587E+04  0.00000000000E+00 0.  1.
<mgrwt>
<rscale>  0 0.17176382E+04</rscale>
<asrwt>0</asrwt>
<pdfrwt beam="1">  1        2 0.31138534E+00 0.17176382E+04</pdfrwt>
<pdfrwt beam="2">  1       -2 0.27721695E+00 0.17176382E+04</pdfrwt>
<totfact> 0.25982766E-01</totfact>
</mgrwt>
</event>
<event>
12    1  0.2085350E-007  0.1088426E+04  0.7818608E-02  0.9216546E-01
         -2   -1    0    0    0  501 -0.00000000000E+00  0.00000000000E+00  0.68268699459E+03  0.68268699459E+03  0.00000000000E+00 0.  1.
          2   -1    0    0  501    0  0.00000000000E+00 -0.00000000000E+00 -0.17924316236E+04  0.17924316236E+04  0.00000000000E+00 0. -1.
         23    2    1    2    0    0 -0.31913782230E+03 -0.96649390379E+03 -0.40500105770E+03  0.10993989277E+04  0.93234810252E+02 0.  0.
    5000000    2    1    2    0    0  0.31913782230E+03  0.96649390379E+03 -0.70474357131E+03  0.13757196905E+04  0.59998479129E+03 0.  0.
         23    2    4    4    0    0  0.38283699283E+03  0.97385903275E+03 -0.55623149634E+03  0.11891006927E+04  0.97986739045E+02 0.  0.
         23    2    4    4    0    0 -0.63699170537E+02 -0.73651289615E+01 -0.14851207497E+03  0.18661899780E+03  0.93053664512E+02 0.  0.
          2    1    3    3  502    0 -0.11052036415E+03 -0.41130476046E+03 -0.12729052667E+03  0.44451010680E+03  0.00000000000E+00 0. -1.
         -2    1    3    3    0  502 -0.20861745815E+03 -0.55518914333E+03 -0.27771053103E+03  0.65488882092E+03  0.00000000000E+00 0.  1.
         11    1    5    5    0    0  0.19642236151E+03  0.54126647792E+03 -0.25333027318E+03  0.62906865407E+03  0.00000000000E+00 0. -1.
        -11    1    5    5    0    0  0.18641463132E+03  0.43259255483E+03 -0.30290122316E+03  0.56003203860E+03  0.00000000000E+00 0.  1.
          4    1    6    6  503    0 -0.56229398313E+02  0.36159971864E+02 -0.71807981371E+02  0.98110524351E+02  0.00000000000E+00 0.  1.
         -4    1    6    6    0  503 -0.74697722247E+01 -0.43525100825E+02 -0.76704093595E+02  0.88508473454E+02  0.00000000000E+00 0. -1.
<mgrwt>
<rscale>  0 0.10884263E+04</rscale>
<asrwt>0</asrwt>
<pdfrwt beam="1">  1        2 0.27575871E+00 0.10884263E+04</pdfrwt>
<pdfrwt beam="2">  1       -2 0.10502877E+00 0.10884263E+04</pdfrwt>
<totfact> 0.63242037E+00</totfact>
</mgrwt>
</event>
<event>
12    1  0.1444206E-007  0.7690517E+03  0.7818608E-02  0.9605926E-01
         -1   -1    0    0    0  501 -0.00000000000E+00  0.00000000000E+00  0.11546249981E+04  0.11546249981E+04  0.00000000000E+00 0.  1.
          1   -1    0    0  501    0  0.00000000000E+00 -0.00000000000E+00 -0.60472506833E+03  0.60472506833E+03  0.00000000000E+00 0. -1.
         23    2    1    2    0    0 -0.45660982685E+03 -0.46896055601E+03  0.56745810614E+03  0.87128820266E+03  0.93369656758E+02 0.  0.
    5000000    2    1    2    0    0  0.45660982685E+03  0.46896055601E+03 -0.17558176343E+02  0.88806186379E+03  0.59994086983E+03 0.  0.
         23    2    4    4    0    0 -0.89749293628E+02 -0.40328243050E+02 -0.25968690778E+02  0.13564016727E+03  0.89680428086E+02 0.  0.
         23    2    4    4    0    0  0.54635912047E+03  0.50928879906E+03  0.84105144349E+01  0.75242169652E+03  0.90467139172E+02 0.  0.
          4    1    3    3  502    0 -0.26318830436E+03 -0.20961778521E+03  0.26337387780E+03  0.42728620261E+03  0.00000000000E+00 0. -1.
         -4    1    3    3    0  502 -0.19342152248E+03 -0.25934277081E+03  0.30408422834E+03  0.44400200006E+03  0.00000000000E+00 0.  1.
         13    1    5    5    0    0 -0.86828610818E+02 -0.41425401286E-01 -0.36039771701E+02  0.94011034017E+02  0.00000000000E+00 0.  1.
        -13    1    5    5    0    0 -0.29206828105E+01 -0.40286817649E+02  0.10071080924E+02  0.41629133252E+02  0.00000000000E+00 0. -1.
          4    1    6    6  503    0  0.50783458648E+03  0.44149166878E+03 -0.69349877554E+01  0.67294795852E+03  0.00000000000E+00 0. -1.
         -4    1    6    6    0  503  0.38524533997E+02  0.67797130284E+02  0.15345502190E+02  0.79473738001E+02  0.00000000000E+00 0.  1.
<mgrwt>
<rscale>  0 0.76905168E+03</rscale>
<asrwt>0</asrwt>
<pdfrwt beam="1">  1        1 0.93034626E-01 0.76905168E+03</pdfrwt>
<pdfrwt beam="2">  1       -1 0.17763461E+00 0.76905168E+03</pdfrwt>
<totfact> 0.75493617E+00</totfact>
</mgrwt>
</event>
<event>
12    1  0.1444206E-007  0.8097427E+03  0.7818608E-02  0.9546021E-01
         -2   -1    0    0    0  501 -0.00000000000E+00  0.00000000000E+00  0.62446215444E+03  0.62446215444E+03  0.00000000000E+00 0.  1.
          2   -1    0    0  501    0  0.00000000000E+00 -0.00000000000E+00 -0.11722290755E+04  0.11722290755E+04  0.00000000000E+00 0. -1.
         23    2    1    2    0    0  0.71268342640E+03  0.39052483361E+02 -0.79763430347E+01  0.71927684357E+03  0.88615985682E+02 0.  0.
    5000000    2    1    2    0    0 -0.71268342640E+03 -0.39052483361E+02 -0.53979057805E+03  0.10774143864E+04  0.60000427426E+03 0.  0.
         23    2    4    4    0    0  0.29476793392E+02 -0.14708624552E+03 -0.12064283352E+03  0.21319557278E+03  0.91621034717E+02 0.  0.
         23    2    4    4    0    0 -0.74216021979E+03  0.10803376216E+03 -0.41914774453E+03  0.86421881361E+03  0.93360807873E+02 0.  0.
          3    1    3    3  502    0  0.51392234078E+03  0.28062926606E+02  0.34091111352E+02  0.51581576563E+03  0.00000000000E+00 0. -1.
         -3    1    3    3    0  502  0.19876108562E+03  0.10989556755E+02 -0.42067454387E+02  0.20346107793E+03  0.00000000000E+00 0.  1.
         11    1    5    5    0    0  0.18985897023E+02 -0.73483293393E+02 -0.54471357614E+01  0.76091589428E+02  0.00000000000E+00 0.  1.
        -11    1    5    5    0    0  0.10490896369E+02 -0.73602952128E+02 -0.11519569776E+03  0.13710398335E+03  0.00000000000E+00 0. -1.
          1    1    6    6  503    0 -0.19752280220E+02  0.19363003540E+02 -0.19927233598E+02  0.34090660288E+02  0.00000000000E+00 0. -1.
         -1    1    6    6    0  503 -0.72240793957E+03  0.88670758620E+02 -0.39922051093E+03  0.83012815333E+03  0.00000000000E+00 0.  1.
<mgrwt>
<rscale>  0 0.80974268E+03</rscale>
<asrwt>0</asrwt>
<pdfrwt beam="1">  1        2 0.18034293E+00 0.80974268E+03</pdfrwt>
<pdfrwt beam="2">  1       -2 0.96071101E-01 0.80974268E+03</pdfrwt>
<totfact> 0.18087694E+01</totfact>
</mgrwt>
</event>
<event>
12    1  0.1444206E-007  0.1970187E+04  0.7818608E-02  0.8620687E-01
          2   -1    0    0  501    0  0.00000000000E+00  0.00000000000E+00  0.34205478326E+04  0.34205478326E+04  0.00000000000E+00 0.  1.
         -2   -1    0    0    0  501 -0.00000000000E+00 -0.00000000000E+00 -0.12379795817E+04  0.12379795817E+04  0.00000000000E+00 0. -1.
         23    2    1    2    0    0  0.15773719543E+04 -0.11409690286E+04  0.48887244290E+03  0.20092664328E+04  0.90789459760E+02 0.  0.
    5000000    2    1    2    0    0 -0.15773719543E+04  0.11409690286E+04  0.16936958080E+04  0.26492609815E+04  0.60005470716E+03 0.  0.
         23    2    4    4    0    0 -0.15386688134E+04  0.10536096469E+04  0.14206923210E+04  0.23461238093E+04  0.91297602634E+02 0.  0.
         23    2    4    4    0    0 -0.38703140939E+02  0.87359381721E+02  0.27300348703E+03  0.30313717225E+03  0.90728422075E+02 0.  0.
          4    1    3    3  502    0  0.13993995517E+04 -0.97741747543E+03  0.41799659498E+03  0.17573802036E+04  0.00000000000E+00 0. -1.
         -4    1    3    3    0  502  0.17797240264E+03 -0.16355155319E+03  0.70875847925E+02  0.25188622922E+03  0.00000000000E+00 0.  1.
         11    1    5    5    0    0 -0.14464268182E+04  0.10079278567E+04  0.13226206647E+04  0.22039497561E+04  0.00000000000E+00 0. -1.
        -11    1    5    5    0    0 -0.92241995159E+02  0.45681790176E+02  0.98071656248E+02  0.14217405313E+03  0.00000000000E+00 0.  1.
          1    1    6    6  503    0  0.24563634187E+02  0.39376434599E+02  0.14745374948E+03  0.15458487624E+03  0.00000000000E+00 0. -1.
         -1    1    6    6    0  503 -0.63266775126E+02  0.47982947122E+02  0.12554973755E+03  0.14855229601E+03  0.00000000000E+00 0.  1.
<mgrwt>
<rscale>  0 0.19701874E+04</rscale>
<asrwt>0</asrwt>
<pdfrwt beam="1">  1        2 0.52623813E+00 0.19701874E+04</pdfrwt>
<pdfrwt beam="2">  1       -2 0.19045840E+00 0.19701874E+04</pdfrwt>
<totfact> 0.12756312E-01</totfact>
</mgrwt>
</event>
<event>
12    1  0.1444206E-007  0.4864317E+03  0.7818608E-02  0.1017382E+00
          2   -1    0    0  501    0  0.00000000000E+00  0.00000000000E+00  0.47865200382E+03  0.47865200382E+03  0.00000000000E+00 0. -1.
         -2   -1    0    0    0  501 -0.00000000000E+00 -0.00000000000E+00 -0.97887122260E+03  0.97887122260E+03  0.00000000000E+00 0.  1.
         23    2    1    2    0    0  0.31278496152E+03  0.64025234943E+01 -0.68284215764E+03  0.75671491270E+03  0.92025118255E+02 0.  0.
    5000000    2    1    2    0    0 -0.31278496152E+03 -0.64025234943E+01  0.18262293886E+03  0.70080831373E+03  0.59992143680E+03 0.  0.
         23    2    4    4    0    0 -0.46819156030E+03  0.15490198763E+01  0.20475190747E+03  0.51867990394E+03  0.88880608342E+02 0.  0.
         23    2    4    4    0    0  0.15540659878E+03 -0.79515433706E+01 -0.22128968607E+02  0.18212840979E+03  0.92014283747E+02 0.  0.
          4    1    3    3  502    0  0.11349449240E+03 -0.41953555717E+02 -0.25842982522E+03  0.28535429768E+03  0.00000000000E+00 0. -1.
         -4    1    3    3    0  502  0.19929046912E+03  0.48356079211E+02 -0.42441233242E+03  0.47136061502E+03  0.00000000000E+00 0.  1.
         13    1    5    5    0    0 -0.17908436467E+03 -0.29384395380E+02  0.45203245234E+02  0.18702402450E+03  0.00000000000E+00 0. -1.
        -13    1    5    5    0    0 -0.28910719563E+03  0.30933415256E+02  0.15954866223E+03  0.33165587944E+03  0.00000000000E+00 0.  1.
          2    1    6    6  503    0  0.12781610271E+03  0.26379204856E+02  0.46322615766E+01  0.13059202276E+03  0.00000000000E+00 0.  1.
         -2    1    6    6    0  503  0.27590496073E+02 -0.34330748226E+02 -0.26761230183E+02  0.51536387031E+02  0.00000000000E+00 0. -1.
<mgrwt>
<rscale>  0 0.48643171E+03</rscale>
<asrwt>0</asrwt>
<pdfrwt beam="1">  1        2 0.73638769E-01 0.48643171E+03</pdfrwt>
<pdfrwt beam="2">  1       -2 0.15059557E+00 0.48643171E+03</pdfrwt>
<totfact> 0.20020960E+01</totfact>
</mgrwt>
</event>
<event>
12    1  0.1444206E-007  0.1659790E+04  0.7818608E-02  0.8784636E-01
         -2   -1    0    0    0  501 -0.00000000000E+00  0.00000000000E+00  0.16422288577E+04  0.16422288577E+04  0.00000000000E+00 0. -1.
          2   -1    0    0  501    0  0.00000000000E+00 -0.00000000000E+00 -0.17706522211E+04  0.17706522211E+04  0.00000000000E+00 0.  1.
         23    2    1    2    0    0 -0.14068495629E+04 -0.82000901963E+03  0.21114542476E+03  0.16445972104E+04  0.92071218139E+02 0.  0.
    5000000    2    1    2    0    0  0.14068495629E+04  0.82000901963E+03 -0.33956878811E+03  0.17682838684E+04  0.59990031879E+03 0.  0.
         23    2    4    4    0    0  0.72626387531E+03  0.17799882890E+03  0.39415581846E+02  0.75468739693E+03  0.94109932141E+02 0.  0.
         23    2    4    4    0    0  0.68058568755E+03  0.64201019073E+03 -0.37898436995E+03  0.10135964714E+04  0.91513338578E+02 0.  0.
          1    1    3    3  502    0 -0.37940891310E+03 -0.17700197948E+03  0.41397775133E+02  0.42070726149E+03  0.00000000000E+00 0. -1.
         -1    1    3    3    0  502 -0.10274406498E+04 -0.64300704015E+03  0.16974764962E+03  0.12238899489E+04  0.00000000000E+00 0.  1.
         11    1    5    5    0    0  0.57750622641E+03  0.15759840480E+03  0.65826307204E+02  0.60223234840E+03  0.00000000000E+00 0. -1.
        -11    1    5    5    0    0  0.14875764890E+03  0.20400424101E+02 -0.26410725358E+02  0.15245504853E+03  0.00000000000E+00 0.  1.
          4    1    6    6  503    0  0.63484711085E+02  0.10158367797E+03 -0.48521127952E+02  0.12924338292E+03  0.00000000000E+00 0. -1.
         -4    1    6    6    0  503  0.61710097646E+03  0.54042651276E+03 -0.33046324200E+03  0.88435308851E+03  0.00000000000E+00 0.  1.
<mgrwt>
<rscale>  0 0.16597898E+04</rscale>
<asrwt>0</asrwt>
<pdfrwt beam="1">  1        2 0.27240803E+00 0.16597898E+04</pdfrwt>
<pdfrwt beam="2">  1       -2 0.25265059E+00 0.16597898E+04</pdfrwt>
<totfact> 0.51221865E-01</totfact>
</mgrwt>
</event>
<event>
12    1  0.1444206E-007  0.5051184E+03  0.7818608E-02  0.1012452E+00
         -1   -1    0    0    0  501 -0.00000000000E+00  0.00000000000E+00  0.22647802116E+03  0.22647802116E+03  0.00000000000E+00 0.  1.
          1   -1    0    0  501    0  0.00000000000E+00 -0.00000000000E+00 -0.12979601508E+04  0.12979601508E+04  0.00000000000E+00 0. -1.
         23    2    1    2    0    0  0.17526163898E+03  0.30992826635E+03 -0.51199876845E+03  0.63019882281E+03  0.90750454549E+02 0.  0.
    5000000    2    1    2    0    0 -0.17526163898E+03 -0.30992826635E+03 -0.55948336124E+03  0.89423934920E+03  0.59989183173E+03 0.  0.
         23    2    4    4    0    0  0.96100616168E+02 -0.35403086153E+03 -0.18699710359E+03  0.42131968384E+03  0.89270263193E+02 0.  0.
         23    2    4    4    0    0 -0.27136225515E+03  0.44102595180E+02 -0.37248625765E+03  0.47291966536E+03  0.96563374694E+02 0.  0.
          2    1    3    3  502    0  0.14024722344E+03  0.20877074189E+03 -0.29088993379E+03  0.38454058295E+03  0.00000000000E+00 0. -1.
         -2    1    3    3    0  502  0.35014415536E+02  0.10115752447E+03 -0.22110883465E+03  0.24565823986E+03  0.00000000000E+00 0.  1.
         11    1    5    5    0    0  0.62055312438E+02 -0.20999275257E+03 -0.15919818803E+03  0.27072473290E+03  0.00000000000E+00 0.  1.
        -11    1    5    5    0    0  0.34045303730E+02 -0.14403810897E+03 -0.27798915561E+02  0.15059495094E+03  0.00000000000E+00 0. -1.
          2    1    6    6  503    0 -0.13394228466E+03 -0.15664026685E+02 -0.12660664802E+03  0.18497335125E+03  0.00000000000E+00 0.  1.
         -2    1    6    6    0  503 -0.13741997048E+03  0.59766621866E+02 -0.24587960963E+03  0.28794631411E+03  0.00000000000E+00 0. -1.
<mgrwt>
<rscale>  0 0.50511837E+03</rscale>
<asrwt>0</asrwt>
<pdfrwt beam="1">  1        1 0.19968617E+00 0.50511837E+03</pdfrwt>
<pdfrwt beam="2">  1       -1 0.34842773E-01 0.50511837E+03</pdfrwt>
<totfact> 0.74746085E+01</totfact>
</mgrwt>
</event>
<event>
12    1  0.1444206E-007  0.5925969E+03  0.7818608E-02  0.9920885E-01
         -2   -1    0    0    0  501 -0.00000000000E+00  0.00000000000E+00  0.61371486779E+03  0.61371486779E+03  0.00000000000E+00 0.  1.
          2   -1    0    0  501    0  0.00000000000E+00 -0.00000000000E+00 -0.14277934603E+04  0.14277934603E+04  0.00000000000E+00 0. -1.
         23    2    1    2    0    0 -0.57328818680E+03 -0.10450880373E+03 -0.10225352180E+04  0.11798529997E+04  0.83026463857E+02 0.  0.
    5000000    2    1    2    0    0  0.57328818680E+03  0.10450880373E+03  0.20845662543E+03  0.86165532843E+03  0.59951172227E+03 0.  0.
         23    2    4    4    0    0  0.24058710421E+03  0.52024414868E+02 -0.19590156622E+03  0.32751476268E+03  0.91103247309E+02 0.  0.
         23    2    4    4    0    0  0.33270108259E+03  0.52484388865E+02  0.40435819165E+03  0.53414056576E+03  0.91411024481E+02 0.  0.
          4    1    3    3  502    0 -0.24150279772E+03 -0.84450748988E+02 -0.42361027567E+03  0.49487492962E+03  0.00000000000E+00 0. -1.
         -4    1    3    3    0  502 -0.33178538907E+03 -0.20058054745E+02 -0.59892494230E+03  0.68497807006E+03  0.00000000000E+00 0.  1.
         13    1    5    5    0    0  0.13660010674E+02 -0.12337716584E+02  0.33916672154E+01  0.18716798568E+02  0.00000000000E+00 0. -1.
        -13    1    5    5    0    0  0.22692709353E+03  0.64362131452E+02 -0.19929323343E+03  0.30879796411E+03  0.00000000000E+00 0.  1.
          4    1    6    6  503    0  0.37725321602E+02 -0.14106007777E+02  0.86496491519E+02  0.95413952809E+02  0.00000000000E+00 0. -1.
         -4    1    6    6    0  503  0.29497576099E+03  0.66590396642E+02  0.31786170013E+03  0.43872661295E+03  0.00000000000E+00 0.  1.
<mgrwt>
<rscale>  0 0.59259688E+03</rscale>
<asrwt>0</asrwt>
<pdfrwt beam="1">  1        2 0.21966053E+00 0.59259688E+03</pdfrwt>
<pdfrwt beam="2">  1       -2 0.94417673E-01 0.59259688E+03</pdfrwt>
<totfact> 0.13803336E+01</totfact>
</mgrwt>
</event>
<event>
12    1  0.1444206E-007  0.1403869E+04  0.7818608E-02  0.8951023E-01
          2   -1    0    0  501    0  0.00000000000E+00  0.00000000000E+00  0.18229217023E+04  0.18229217023E+04  0.00000000000E+00 0. -1.
         -2   -1    0    0    0  501 -0.00000000000E+00 -0.00000000000E+00 -0.13260779216E+04  0.13260779216E+04  0.00000000000E+00 0.  1.
         23    2    1    2    0    0 -0.12824873082E+04 -0.55611605055E+03  0.77753610420E+03  0.16021040790E+04  0.90201603373E+02 0.  0.
    5000000    2    1    2    0    0  0.12824873082E+04  0.55611605055E+03 -0.28069232349E+03  0.15468955449E+04  0.60004907217E+03 0.  0.
         23    2    4    4    0    0  0.57313858108E+03  0.20167976862E+03  0.15877402041E+03  0.63464142521E+03  0.91640530533E+02 0.  0.
         23    2    4    4    0    0  0.70934872709E+03  0.35443628193E+03 -0.43946634390E+03  0.91225411968E+03  0.10137167684E+03 0.  0.
          2    1    3    3  502    0 -0.16884996147E+03 -0.42012525338E+02  0.10564845878E+03  0.20356070008E+03  0.00000000000E+00 0. -1.
         -2    1    3    3    0  502 -0.11136373467E+04 -0.51410352521E+03  0.67188764542E+03  0.13985433789E+04  0.00000000000E+00 0.  1.
         11    1    5    5    0    0  0.35207660074E+03  0.16966234049E+03  0.11001528110E+03  0.40601305969E+03  0.00000000000E+00 0.  1.
        -11    1    5    5    0    0  0.22106198034E+03  0.32017428132E+02  0.48758739311E+02  0.22862836551E+03  0.00000000000E+00 0. -1.
          4    1    6    6  503    0  0.51944177242E+03  0.25890413476E+03 -0.37136438761E+03  0.68903019840E+03  0.00000000000E+00 0.  1.
         -4    1    6    6    0  503  0.18990695468E+03  0.95532147174E+02 -0.68101956295E+02  0.22322392128E+03  0.00000000000E+00 0. -1.
<mgrwt>
<rscale>  0 0.14038690E+04</rscale>
<asrwt>0</asrwt>
<pdfrwt beam="1">  1        2 0.28044949E+00 0.14038690E+04</pdfrwt>
<pdfrwt beam="2">  1       -2 0.20401199E+00 0.14038690E+04</pdfrwt>
<totfact> 0.99541379E-01</totfact>
</mgrwt>
</event>
<event>
12    1  0.1444206E-007  0.1242470E+04  0.7818608E-02  0.9076474E-01
         -1   -1    0    0    0  501 -0.00000000000E+00  0.00000000000E+00  0.12391071958E+04  0.12391071958E+04  0.00000000000E+00 0.  1.
          1   -1    0    0  501    0  0.00000000000E+00 -0.00000000000E+00 -0.13844751654E+04  0.13844751654E+04  0.00000000000E+00 0. -1.
         23    2    1    2    0    0 -0.49709845228E+03  0.11300216892E+04  0.44886590572E+02  0.12384489604E+04  0.87664886048E+02 0.  0.
    5000000    2    1    2    0    0  0.49709845228E+03 -0.11300216892E+04 -0.19025456010E+03  0.13851334008E+04  0.59861661440E+03 0.  0.
         23    2    4    4    0    0  0.24554958856E+03 -0.45697237796E+03 -0.36467410614E+03  0.64052784067E+03  0.90390023379E+02 0.  0.
         23    2    4    4    0    0  0.25154886372E+03 -0.67304931123E+03  0.17441954604E+03  0.74460556012E+03  0.87994635799E+02 0.  0.
          1    1    3    3  502    0 -0.71737526513E+02  0.16798852831E+03 -0.24439785967E+02  0.18429248897E+03  0.00000000000E+00 0. -1.
         -1    1    3    3    0  502 -0.42536092577E+03  0.96203316089E+03  0.69326376538E+02  0.10541564714E+04  0.00000000000E+00 0.  1.
         11    1    5    5    0    0  0.47513677336E+00  0.42561648042E+01 -0.31737352355E+01  0.53304117232E+01  0.00000000000E+00 0.  1.
        -11    1    5    5    0    0  0.24507445179E+03 -0.46122854277E+03 -0.36150037090E+03  0.63519742895E+03  0.00000000000E+00 0. -1.
          1    1    6    6  503    0  0.54653955097E+02 -0.26721138541E+03  0.70629414771E+02  0.28174011701E+03  0.00000000000E+00 0. -1.
         -1    1    6    6    0  503  0.19689490862E+03 -0.40583792582E+03  0.10379013127E+03  0.46286544311E+03  0.00000000000E+00 0.  1.
<mgrwt>
<rscale>  0 0.12424700E+04</rscale>
<asrwt>0</asrwt>
<pdfrwt beam="1">  1        1 0.21299618E+00 0.12424700E+04</pdfrwt>
<pdfrwt beam="2">  1       -1 0.19063188E+00 0.12424700E+04</pdfrwt>
<totfact> 0.13435654E+00</totfact>
</mgrwt>
</event>
<event>
12    1  0.1444206E-007  0.1186780E+04  0.7818608E-02  0.9124507E-01
         -2   -1    0    0    0  501 -0.00000000000E+00  0.00000000000E+00  0.89580541022E+03  0.89580541022E+03  0.00000000000E+00 0.  1.
          2   -1    0    0  501    0  0.00000000000E+00 -0.00000000000E+00 -0.23125721957E+04  0.23125721957E+04  0.00000000000E+00 0. -1.
         23    2    1    2    0    0  0.41570309540E+03  0.10499819124E+04  0.19650955334E+03  0.11497635824E+04  0.89828786516E+02 0.  0.
    5000000    2    1    2    0    0 -0.41570309540E+03 -0.10499819124E+04 -0.16132763389E+04  0.20586140235E+04  0.59996672610E+03 0.  0.
         23    2    4    4    0    0  0.94818004584E+02 -0.39584317898E+03 -0.35109253229E+03  0.54512937540E+03  0.90652045534E+02 0.  0.
         23    2    4    4    0    0 -0.51052109999E+03 -0.65413873347E+03 -0.12621838066E+04  0.15134846481E+04  0.94860647489E+02 0.  0.
          1    1    3    3  502    0  0.19824694379E+03  0.54935543298E+03  0.14334126229E+03  0.60136508042E+03  0.00000000000E+00 0. -1.
         -1    1    3    3    0  502  0.21745615161E+03  0.50062647946E+03  0.53168291057E+02  0.54839850199E+03  0.00000000000E+00 0.  1.
         13    1    5    5    0    0 -0.12486410355E+02 -0.26179721136E+02 -0.95804967271E+01  0.30546262617E+02  0.00000000000E+00 0.  1.
        -13    1    5    5    0    0  0.10730441494E+03 -0.36966345784E+03 -0.34151203556E+03  0.51458311279E+03  0.00000000000E+00 0. -1.
          2    1    6    6  503    0 -0.27084597140E+03 -0.34374250419E+03 -0.75097039392E+03  0.86917948777E+03  0.00000000000E+00 0. -1.
         -2    1    6    6    0  503 -0.23967512859E+03 -0.31039622928E+03 -0.51121341265E+03  0.64430516038E+03  0.00000000000E+00 0.  1.
<mgrwt>
<rscale>  0 0.11867805E+04</rscale>
<asrwt>0</asrwt>
<pdfrwt beam="1">  1        2 0.35578033E+00 0.11867805E+04</pdfrwt>
<pdfrwt beam="2">  1       -2 0.13781622E+00 0.11867805E+04</pdfrwt>
<totfact> 0.16323608E+00</totfact>
</mgrwt>
</event>
<event>
12    1  0.1444206E-007  0.1429900E+04  0.7818608E-02  0.8932455E-01
         -1   -1    0    0    0  501 -0.00000000000E+00  0.00000000000E+00  0.18923562389E+04  0.18923562389E+04  0.00000000000E+00 0. -1.
          1   -1    0    0  501    0  0.00000000000E+00 -0.00000000000E+00 -0.10930992802E+04  0.10930992802E+04  0.00000000000E+00 0.  1.
         23    2    1    2    0    0  0.60735438521E+03 -0.12301007801E+04  0.46482174644E+03  0.14511964327E+04  0.88795000098E+02 0.  0.
    5000000    2    1    2    0    0 -0.60735438521E+03  0.12301007801E+04  0.33443521221E+03  0.15342590863E+04  0.60006395865E+03 0.  0.
         23    2    4    4    0    0 -0.47958242550E+03  0.37149878577E+03  0.48887203961E+02  0.61524107753E+03  0.90116447396E+02 0.  0.
         23    2    4    4    0    0 -0.12777195971E+03  0.85860199430E+03  0.28554800825E+03  0.91901800881E+03  0.97639014671E+02 0.  0.
          4    1    3    3  502    0  0.48663928433E+03 -0.10561092209E+04  0.40063375720E+03  0.12299153983E+04  0.00000000000E+00 0.  1.
         -4    1    3    3    0  502  0.12071510088E+03 -0.17399155915E+03  0.64187989241E+02  0.22128103443E+03  0.00000000000E+00 0. -1.
         13    1    5    5    0    0 -0.28311201752E+03  0.26835752862E+03  0.50459728885E+02  0.39333746563E+03  0.00000000000E+00 0.  1.
        -13    1    5    5    0    0 -0.19647040798E+03  0.10314125715E+03 -0.15725249237E+01  0.22190361190E+03  0.00000000000E+00 0. -1.
          1    1    6    6  503    0  0.14860745708E+02  0.51362489971E+02  0.23530225177E+02  0.58417622648E+02  0.00000000000E+00 0. -1.
         -1    1    6    6    0  503 -0.14263270542E+03  0.80723950433E+03  0.26201778307E+03  0.86060038616E+03  0.00000000000E+00 0.  1.
<mgrwt>
<rscale>  0 0.14298999E+04</rscale>
<asrwt>0</asrwt>
<pdfrwt beam="1">  1        1 0.16816912E+00 0.14298999E+04</pdfrwt>
<pdfrwt beam="2">  1       -1 0.29113173E+00 0.14298999E+04</pdfrwt>
<totfact> 0.46306624E-01</totfact>
</mgrwt>
</event>
<event>
12    1  0.1444206E-007  0.5090249E+03  0.7818608E-02  0.1011450E+00
          2   -1    0    0  501    0  0.00000000000E+00  0.00000000000E+00  0.16637433523E+04  0.16637433523E+04  0.00000000000E+00 0.  1.
         -2   -1    0    0    0  501 -0.00000000000E+00 -0.00000000000E+00 -0.31186239010E+03  0.31186239010E+03  0.00000000000E+00 0. -1.
         23    2    1    2    0    0 -0.45154294148E+03 -0.41569105876E+02  0.10814746817E+04  0.11762992693E+04  0.92051426394E+02 0.  0.
    5000000    2    1    2    0    0  0.45154294148E+03  0.41569105876E+02  0.27040628044E+03  0.79930647310E+03  0.60012687232E+03 0.  0.
         23    2    4    4    0    0  0.11859220178E+02  0.11276587238E+03  0.31047489852E+03  0.34282902380E+03  0.90996120075E+02 0.  0.
         23    2    4    4    0    0  0.43968372130E+03 -0.71196766508E+02 -0.40068618083E+02  0.45647744931E+03  0.91517283774E+02 0.  0.
          3    1    3    3  502    0 -0.35950159182E+03 -0.11326080405E+02  0.76519075236E+03  0.84550964638E+03  0.00000000000E+00 0. -1.
         -3    1    3    3    0  502 -0.92041349658E+02 -0.30243025471E+02  0.31628392937E+03  0.33078962289E+03  0.00000000000E+00 0.  1.
         11    1    5    5    0    0  0.18771452065E+02  0.64591532608E+02  0.27366026108E+03  0.28180555706E+03  0.00000000000E+00 0.  1.
        -11    1    5    5    0    0 -0.69122318876E+01  0.48174339777E+02  0.36814637445E+02  0.61023466738E+02  0.00000000000E+00 0. -1.
          3    1    6    6  503    0  0.25037090881E+03 -0.46236465989E+02  0.22349609748E+02  0.25558346547E+03  0.00000000000E+00 0. -1.
         -3    1    6    6    0  503  0.18931281250E+03 -0.24960300519E+02 -0.62418227831E+02  0.20089398384E+03  0.00000000000E+00 0.  1.
<mgrwt>
<rscale>  0 0.50902492E+03</rscale>
<asrwt>0</asrwt>
<pdfrwt beam="1">  1        2 0.25596051E+00 0.50902492E+03</pdfrwt>
<pdfrwt beam="2">  1       -2 0.47978830E-01 0.50902492E+03</pdfrwt>
<totfact> 0.44783410E+01</totfact>
</mgrwt>
</event>
<event>
12    1  0.1444206E-007  0.9072901E+03  0.7818608E-02  0.9416514E-01
          1   -1    0    0  501    0  0.00000000000E+00  0.00000000000E+00  0.21091752706E+04  0.21091752706E+04  0.00000000000E+00 0. -1.
         -1   -1    0    0    0  501 -0.00000000000E+00 -0.00000000000E+00 -0.42149353255E+03  0.42149353255E+03  0.00000000000E+00 0.  1.
         23    2    1    2    0    0 -0.35335434248E+01  0.82544005644E+03  0.10015511085E+04  0.13009877500E+04  0.90004054777E+02 0.  0.
    5000000    2    1    2    0    0  0.35335434248E+01 -0.82544005644E+03  0.68613062951E+03  0.12296810532E+04  0.59998039889E+03 0.  0.
         23    2    4    4    0    0 -0.17174535049E+03 -0.50736589995E+02  0.49072978031E+02  0.20731591707E+03  0.92201221880E+02 0.  0.
         23    2    4    4    0    0  0.17527889392E+03 -0.77470346644E+03  0.63705765148E+03  0.10223651361E+04  0.92194732094E+02 0.  0.
          3    1    3    3  502    0 -0.21903652633E+02  0.11139811555E+03  0.17460380902E+03  0.20826857726E+03  0.00000000000E+00 0. -1.
         -3    1    3    3    0  502  0.18370109208E+02  0.71404194088E+03  0.82694729949E+03  0.10927191727E+04  0.00000000000E+00 0.  1.
         11    1    5    5    0    0 -0.11749411372E+03  0.86666846911E+00  0.59526788679E+02  0.13171581698E+03  0.00000000000E+00 0.  1.
        -11    1    5    5    0    0 -0.54251236772E+02 -0.51603258465E+02 -0.10453810648E+02  0.75600100082E+02  0.00000000000E+00 0. -1.
          1    1    6    6  503    0  0.30230229781E+02 -0.15824076994E+03  0.17870724087E+03  0.24060400247E+03  0.00000000000E+00 0. -1.
         -1    1    6    6    0  503  0.14504866414E+03 -0.61646269651E+03  0.45835041061E+03  0.78176113363E+03  0.00000000000E+00 0.  1.
<mgrwt>
<rscale>  0 0.90729008E+03</rscale>
<asrwt>0</asrwt>
<pdfrwt beam="1">  1        1 0.32448850E+00 0.90729008E+03</pdfrwt>
<pdfrwt beam="2">  1       -1 0.64845160E-01 0.90729008E+03</pdfrwt>
<totfact> 0.62107444E+00</totfact>
</mgrwt>
</event>
<event>
12    1  0.1444206E-007  0.1036786E+04  0.7818608E-02  0.9269094E-01
          2   -1    0    0  501    0  0.00000000000E+00  0.00000000000E+00  0.13772702730E+04  0.13772702730E+04  0.00000000000E+00 0. -1.
         -2   -1    0    0    0  501 -0.00000000000E+00 -0.00000000000E+00 -0.88456042007E+03  0.88456042007E+03  0.00000000000E+00 0.  1.
         23    2    1    2    0    0 -0.24856672553E+03  0.98605857423E+03  0.30950295616E+03  0.10670038233E+04  0.92780117431E+02 0.  0.
    5000000    2    1    2    0    0  0.24856672553E+03 -0.98605857423E+03  0.18320689675E+03  0.11948268698E+04  0.59995795922E+03 0.  0.
         23    2    4    4    0    0  0.46285065006E+02 -0.67681896505E+03 -0.13671303759E+03  0.69780145139E+03  0.89499677234E+02 0.  0.
         23    2    4    4    0    0  0.20228166052E+03 -0.30923960918E+03  0.31991993434E+03  0.49702541837E+03  0.90213613400E+02 0.  0.
          1    1    3    3  502    0 -0.17840642316E+03  0.82405229423E+03  0.27708489089E+03  0.88750609700E+03  0.00000000000E+00 0. -1.
         -1    1    3    3    0  502 -0.70160302369E+02  0.16200628000E+03  0.32418065274E+02  0.17949772629E+03  0.00000000000E+00 0.  1.
         13    1    5    5    0    0 -0.26428539456E+02 -0.23961706892E+03 -0.47749233085E+02  0.24575352831E+03  0.00000000000E+00 0.  1.
        -13    1    5    5    0    0  0.72713604462E+02 -0.43720189613E+03 -0.88963804503E+02  0.45204792308E+03  0.00000000000E+00 0. -1.
          4    1    6    6  503    0  0.34437821809E+02 -0.58174761825E+02  0.17935143399E+02  0.69942375232E+02  0.00000000000E+00 0. -1.
         -4    1    6    6    0  503  0.16784383872E+03 -0.25106484735E+03  0.30198479094E+03  0.42708304313E+03  0.00000000000E+00 0.  1.
<mgrwt>
<rscale>  0 0.10367863E+04</rscale>
<asrwt>0</asrwt>
<pdfrwt beam="1">  1        2 0.21188773E+00 0.10367863E+04</pdfrwt>
<pdfrwt beam="2">  1       -2 0.13608622E+00 0.10367863E+04</pdfrwt>
<totfact> 0.56979650E+00</totfact>
</mgrwt>
</event>
<event>
12    1  0.1444206E-007  0.4935223E+03  0.7818608E-02  0.1015484E+00
          2   -1    0    0  501    0  0.00000000000E+00  0.00000000000E+00  0.42057832793E+04  0.42057832793E+04  0.00000000000E+00 0. -1.
         -2   -1    0    0    0  501 -0.00000000000E+00 -0.00000000000E+00 -0.84265293963E+02  0.84265293963E+02  0.00000000000E+00 0.  1.
         23    2    1    2    0    0 -0.27572175636E+03  0.28487209870E+03  0.22216320465E+04  0.22585775581E+04  0.91373061694E+02 0.  0.
    5000000    2    1    2    0    0  0.27572175636E+03 -0.28487209870E+03  0.18998859388E+04  0.20314710152E+04  0.60011107746E+03 0.  0.
         23    2    4    4    0    0  0.14546030372E+03 -0.37533796418E+03  0.66270190371E+03  0.78074179592E+03  0.91360009866E+02 0.  0.
         23    2    4    4    0    0  0.13026145263E+03  0.90465865485E+02  0.12371840351E+04  0.12507292192E+04  0.92450658266E+02 0.  0.
          3    1    3    3  502    0 -0.18084282196E+03  0.13631599792E+03  0.14054064892E+04  0.14235355905E+04  0.00000000000E+00 0. -1.
         -3    1    3    3    0  502 -0.94878934394E+02  0.14855610078E+03  0.81622555732E+03  0.83504196762E+03  0.00000000000E+00 0.  1.
         13    1    5    5    0    0  0.44087558669E+02 -0.10708433170E+03  0.27601134946E+03  0.29932095142E+03  0.00000000000E+00 0. -1.
        -13    1    5    5    0    0  0.10137274505E+03 -0.26825363248E+03  0.38669055425E+03  0.48142084450E+03  0.00000000000E+00 0.  1.
          3    1    6    6  503    0  0.87360024246E+02  0.66910456381E+01  0.68507722135E+03  0.69065718206E+03  0.00000000000E+00 0. -1.
         -3    1    6    6    0  503  0.42901428385E+02  0.83774819847E+02  0.55210681378E+03  0.56007203717E+03  0.00000000000E+00 0.  1.
<mgrwt>
<rscale>  0 0.49352233E+03</rscale>
<asrwt>0</asrwt>
<pdfrwt beam="1">  1        2 0.64704342E+00 0.49352233E+03</pdfrwt>
<pdfrwt beam="2">  1       -2 0.12963895E-01 0.49352233E+03</pdfrwt>
<totfact> 0.12212433E+01</totfact>
</mgrwt>
</event>
<event>
12    1  0.1444206E-007  0.1495338E+04  0.7818608E-02  0.8887559E-01
          2   -1    0    0  501    0  0.00000000000E+00  0.00000000000E+00  0.38826596831E+04  0.38826596831E+04  0.00000000000E+00 0.  1.
         -2   -1    0    0    0  501 -0.00000000000E+00 -0.00000000000E+00 -0.11240142988E+04  0.11240142988E+04  0.00000000000E+00 0. -1.
         23    2    1    2    0    0  0.13133059477E+04  0.59088739883E+03 -0.38991790857E+03  0.14929600626E+04  0.54528366875E+02 0.  0.
    5000000    2    1    2    0    0 -0.13133059477E+04 -0.59088739883E+03  0.31485632929E+04  0.35137139193E+04  0.59901107371E+03 0.  0.
         23    2    4    4    0    0 -0.29358107729E+03  0.99817788260E+02  0.59194725505E+03  0.67440293950E+03  0.90908372845E+02 0.  0.
         23    2    4    4    0    0 -0.10197248704E+04 -0.69070518709E+03  0.25566160379E+04  0.28393109798E+04  0.92134726303E+02 0.  0.
          4    1    3    3  502    0  0.47408099512E+03  0.23884963450E+03 -0.15630813837E+03  0.55338428958E+03  0.00000000000E+00 0. -1.
         -4    1    3    3    0  502  0.83922495259E+03  0.35203776433E+03 -0.23360977020E+03  0.93957577305E+03  0.00000000000E+00 0.  1.
         11    1    5    5    0    0 -0.16371726443E+03  0.89483874386E+02  0.41171848516E+03  0.45202081531E+03  0.00000000000E+00 0. -1.
        -11    1    5    5    0    0 -0.12986381286E+03  0.10333913875E+02  0.18022876989E+03  0.22238212420E+03  0.00000000000E+00 0.  1.
          3    1    6    6  503    0 -0.35161536625E+03 -0.20631410920E+03  0.92598746006E+03  0.10117567166E+04  0.00000000000E+00 0. -1.
         -3    1    6    6    0  503 -0.66810950417E+03 -0.48439107789E+03  0.16306285778E+04  0.18275542631E+04  0.00000000000E+00 0.  1.
<mgrwt>
<rscale>  0 0.14953385E+04</rscale>
<asrwt>0</asrwt>
<pdfrwt beam="1">  1        2 0.59733225E+00 0.14953385E+04</pdfrwt>
<pdfrwt beam="2">  1       -2 0.17292528E+00 0.14953385E+04</pdfrwt>
<totfact> 0.82453196E-02</totfact>
</mgrwt>
</event>
<event>
12    1  0.1444206E-007  0.2212228E+04  0.7818608E-02  0.8513356E-01
         -1   -1    0    0    0  501 -0.00000000000E+00  0.00000000000E+00  0.21581547664E+04  0.21581547664E+04  0.00000000000E+00 0.  1.
          1   -1    0    0  501    0  0.00000000000E+00 -0.00000000000E+00 -0.25707669020E+04  0.25707669020E+04  0.00000000000E+00 0. -1.
         23    2    1    2    0    0 -0.14786201187E+03 -0.21971080241E+04  0.51808437577E+03  0.22641129122E+04  0.93000079688E+02 0.  0.
    5000000    2    1    2    0    0  0.14786201187E+03  0.21971080241E+04 -0.93069651136E+03  0.24648087562E+04  0.59994946793E+03 0.  0.
         23    2    4    4    0    0 -0.85923605675E+01  0.15410726279E+04 -0.89235083801E+03  0.17831624493E+04  0.91649491081E+02 0.  0.
         23    2    4    4    0    0  0.15645437244E+03  0.65603539619E+03 -0.38345673353E+02  0.68164630690E+03  0.91164057250E+02 0.  0.
          3    1    3    3  502    0 -0.67716878047E+02 -0.99808917642E+03  0.28296754445E+03  0.10396336907E+04  0.00000000000E+00 0. -1.
         -3    1    3    3    0  502 -0.80145133824E+02 -0.11990188477E+04  0.23511683132E+03  0.12244792215E+04  0.00000000000E+00 0.  1.
         13    1    5    5    0    0  0.27391910493E+02  0.44633836494E+03 -0.22561367717E+03  0.50086902889E+03  0.00000000000E+00 0.  1.
        -13    1    5    5    0    0 -0.35984271060E+02  0.10947342630E+04 -0.66673716083E+03  0.12822934204E+04  0.00000000000E+00 0. -1.
          4    1    6    6  503    0  0.13003189106E+03  0.36184453204E+03 -0.36919886346E+02  0.38626782945E+03  0.00000000000E+00 0. -1.
         -4    1    6    6    0  503  0.26422481379E+02  0.29419086415E+03 -0.14257870079E+01  0.29537847745E+03  0.00000000000E+00 0.  1.
<mgrwt>
<rscale>  0 0.22122281E+04</rscale>
<asrwt>0</asrwt>
<pdfrwt beam="1">  1        1 0.39550260E+00 0.22122281E+04</pdfrwt>
<pdfrwt beam="2">  1       -1 0.33202381E+00 0.22122281E+04</pdfrwt>
<totfact> 0.21395130E-02</totfact>
</mgrwt>
</event>
<event>
12    1  0.1444206E-007  0.5131937E+03  0.7818608E-02  0.1010391E+00
          2   -1    0    0  501    0  0.00000000000E+00  0.00000000000E+00  0.23793743317E+04  0.23793743317E+04  0.00000000000E+00 0. -1.
         -2   -1    0    0    0  501 -0.00000000000E+00 -0.00000000000E+00 -0.12160454253E+03  0.12160454253E+03  0.00000000000E+00 0.  1.
         23    2    1    2    0    0 -0.32825565003E+03  0.14918578852E+03  0.67267608030E+03  0.76827998560E+03  0.88050303754E+02 0.  0.
    5000000    2    1    2    0    0  0.32825565003E+03 -0.14918578852E+03  0.15850937088E+04  0.17326988886E+04  0.59976262098E+03 0.  0.
         23    2    4    4    0    0  0.21203226612E+03  0.19056758113E+03  0.96485647381E+03  0.10102131630E+04  0.91153358928E+02 0.  0.
         23    2    4    4    0    0  0.11622338390E+03 -0.33975336965E+03  0.62023723502E+03  0.72248572558E+03  0.91384729586E+02 0.  0.
          1    1    3    3  502    0 -0.22185913237E+03  0.77950022304E+02  0.35553097458E+03  0.42626277633E+03  0.00000000000E+00 0. -1.
         -1    1    3    3    0  502 -0.10639651766E+03  0.71235766211E+02  0.31714510572E+03  0.34201720927E+03  0.00000000000E+00 0.  1.
         11    1    5    5    0    0  0.17848376460E+03  0.10461966112E+03  0.68206641663E+03  0.71275263901E+03  0.00000000000E+00 0. -1.
        -11    1    5    5    0    0  0.33548501519E+02  0.85947920018E+02  0.28279005718E+03  0.29746052402E+03  0.00000000000E+00 0.  1.
          3    1    6    6  503    0  0.75631576799E+02 -0.13002855040E+03  0.32446916601E+03  0.35764199840E+03  0.00000000000E+00 0. -1.
         -3    1    6    6    0  503  0.40591807105E+02 -0.20972481925E+03  0.29576806901E+03  0.36484372718E+03  0.00000000000E+00 0.  1.
<mgrwt>
<rscale>  0 0.51319368E+03</rscale>
<asrwt>0</asrwt>
<pdfrwt beam="1">  1        2 0.36605756E+00 0.51319368E+03</pdfrwt>
<pdfrwt beam="2">  1       -2 0.18708393E-01 0.51319368E+03</pdfrwt>
<totfact> 0.10475378E+02</totfact>
</mgrwt>
</event>
<event>
12    1  0.1444206E-007  0.6744238E+03  0.7818608E-02  0.9761999E-01
          2   -1    0    0  501    0  0.00000000000E+00  0.00000000000E+00  0.12294321500E+04  0.12294321500E+04  0.00000000000E+00 0. -1.
         -2   -1    0    0    0  501 -0.00000000000E+00 -0.00000000000E+00 -0.10700277874E+04  0.10700277874E+04  0.00000000000E+00 0.  1.
         23    2    1    2    0    0 -0.61773220024E+03  0.21959435356E+03 -0.76866604347E+03  0.10146381298E+04  0.93959016157E+02 0.  0.
    5000000    2    1    2    0    0  0.61773220024E+03 -0.21959435356E+03  0.92807040607E+03  0.12848218077E+04  0.59969796354E+03 0.  0.
         23    2    4    4    0    0  0.32232609254E+03 -0.17277187232E+03  0.89408779219E+03  0.97026433661E+03  0.90970725748E+02 0.  0.
         23    2    4    4    0    0  0.29540610770E+03 -0.46822481238E+02  0.33982613878E+02  0.31455747105E+03  0.91293325778E+02 0.  0.
          4    1    3    3  502    0 -0.37294925036E+03  0.85744306570E+02 -0.42252960193E+03  0.57006534183E+03  0.00000000000E+00 0. -1.
         -4    1    3    3    0  502 -0.24478294988E+03  0.13385004699E+03 -0.34613644154E+03  0.44457278796E+03  0.00000000000E+00 0.  1.
         13    1    5    5    0    0  0.96611886951E+02 -0.11960287771E+02  0.18741668470E+03  0.21119166387E+03  0.00000000000E+00 0. -1.
        -13    1    5    5    0    0  0.22571420559E+03 -0.16081158455E+03  0.70667110750E+03  0.75907267274E+03  0.00000000000E+00 0.  1.
          3    1    6    6  503    0  0.20710472985E+03  0.10572131496E+02  0.20584610799E+02  0.20839353467E+03  0.00000000000E+00 0. -1.
         -3    1    6    6    0  503  0.88301377848E+02 -0.57394612734E+02  0.13398003079E+02  0.10616393638E+03  0.00000000000E+00 0.  1.
<mgrwt>
<rscale>  0 0.67442379E+03</rscale>
<asrwt>0</asrwt>
<pdfrwt beam="1">  1        2 0.18914341E+00 0.67442379E+03</pdfrwt>
<pdfrwt beam="2">  1       -2 0.16461966E+00 0.67442379E+03</pdfrwt>
<totfact> 0.43870687E+00</totfact>
</mgrwt>
</event>
<event>
12    1  0.1444206E-007  0.7857391E+03  0.7818608E-02  0.9580892E-01
          1   -1    0    0  501    0  0.00000000000E+00  0.00000000000E+00  0.12169412082E+04  0.12169412082E+04  0.00000000000E+00 0. -1.
         -1   -1    0    0    0  501 -0.00000000000E+00 -0.00000000000E+00 -0.57827529351E+03  0.57827529351E+03  0.00000000000E+00 0.  1.
         23    2    1    2    0    0  0.66856747189E+03  0.13550591352E+03  0.59863578792E+01  0.68823921954E+03  0.91066293274E+02 0.  0.
    5000000    2    1    2    0    0 -0.66856747189E+03 -0.13550591352E+03  0.63267955677E+03  0.11069772821E+04  0.59980910674E+03 0.  0.
         23    2    4    4    0    0 -0.19494416579E+03 -0.31090625688E+03  0.15973041441E+03  0.40875755163E+03  0.83084308909E+02 0.  0.
         23    2    4    4    0    0 -0.47362330610E+03  0.17540034336E+03  0.47294914236E+03  0.69821973050E+03  0.93517828620E+02 0.  0.
          3    1    3    3  502    0  0.39278436711E+03  0.95626321459E+02 -0.38390703774E+02  0.40607609944E+03  0.00000000000E+00 0. -1.
         -3    1    3    3    0  502  0.27578310478E+03  0.39879592058E+02  0.44377061653E+02  0.28216312010E+03  0.00000000000E+00 0.  1.
         13    1    5    5    0    0 -0.18048694904E+03 -0.22477885274E+03  0.13260787043E+03  0.31731044533E+03  0.00000000000E+00 0.  1.
        -13    1    5    5    0    0 -0.14457216747E+02 -0.86127404135E+02  0.27122543983E+02  0.91447106303E+02  0.00000000000E+00 0. -1.
          4    1    6    6  503    0 -0.39058583976E+03  0.10592008636E+03  0.35810434870E+03  0.54038420358E+03  0.00000000000E+00 0. -1.
         -4    1    6    6    0  503 -0.83037466335E+02  0.69480257000E+02  0.11484479365E+03  0.15783552692E+03  0.00000000000E+00 0.  1.
<mgrwt>
<rscale>  0 0.78573913E+03</rscale>
<asrwt>0</asrwt>
<pdfrwt beam="1">  1        1 0.18722172E+00 0.78573913E+03</pdfrwt>
<pdfrwt beam="2">  1       -1 0.88965430E-01 0.78573913E+03</pdfrwt>
<totfact> 0.13236282E+01</totfact>
</mgrwt>
</event>
<event>
12    1  0.1444206E-007  0.6983075E+03  0.7818608E-02  0.9720131E-01
          1   -1    0    0  501    0  0.00000000000E+00  0.00000000000E+00  0.10578099151E+04  0.10578099151E+04  0.00000000000E+00 0. -1.
         -1   -1    0    0    0  501 -0.00000000000E+00 -0.00000000000E+00 -0.93286270529E+03  0.93286270529E+03  0.00000000000E+00 0.  1.
         23    2    1    2    0    0 -0.29493018082E+03 -0.57149454897E+03 -0.57427942007E+03  0.86710853848E+03  0.92144094345E+02 0.  0.
    5000000    2    1    2    0    0  0.29493018082E+03  0.57149454897E+03  0.69922662988E+03  0.11235640819E+04  0.59990710546E+03 0.  0.
         23    2    4    4    0    0 -0.35030266529E+02  0.33344916351E+03  0.48406640618E+02  0.35071351777E+03  0.90781630704E+02 0.  0.
         23    2    4    4    0    0  0.32996044735E+03  0.23804538546E+03  0.65081998927E+03  0.77285056415E+03  0.90508749408E+02 0.  0.
          4    1    3    3  502    0 -0.11890224276E+03 -0.14123919316E+03 -0.17254506714E+03  0.25270151011E+03  0.00000000000E+00 0. -1.
         -4    1    3    3    0  502 -0.17602793806E+03 -0.43025535581E+03 -0.40173435293E+03  0.61440702837E+03  0.00000000000E+00 0.  1.
         13    1    5    5    0    0  0.14369184802E+02  0.40255783163E+02  0.31145415367E+02  0.52887034785E+02  0.00000000000E+00 0. -1.
        -13    1    5    5    0    0 -0.49399451331E+02  0.29319338035E+03  0.17261225251E+02  0.29782648299E+03  0.00000000000E+00 0.  1.
          3    1    6    6  503    0  0.16213121375E+03  0.10942447322E+03  0.23024995569E+03  0.30211800329E+03  0.00000000000E+00 0. -1.
         -3    1    6    6    0  503  0.16782923360E+03  0.12862091224E+03  0.42057003357E+03  0.47073256086E+03  0.00000000000E+00 0.  1.
<mgrwt>
<rscale>  0 0.69830753E+03</rscale>
<asrwt>0</asrwt>
<pdfrwt beam="1">  1        1 0.16273999E+00 0.69830753E+03</pdfrwt>
<pdfrwt beam="2">  1       -1 0.14351734E+00 0.69830753E+03</pdfrwt>
<totfact> 0.56004914E+00</totfact>
</mgrwt>
</event>
<event>
12    1  0.1444206E-007  0.4143067E+03  0.7818608E-02  0.1038935E+00
         -2   -1    0    0    0  501 -0.00000000000E+00  0.00000000000E+00  0.25172147928E+03  0.25172147928E+03  0.00000000000E+00 0.  1.
          2   -1    0    0  501    0  0.00000000000E+00 -0.00000000000E+00 -0.98593083256E+03  0.98593083256E+03  0.00000000000E+00 0. -1.
         23    2    1    2    0    0  0.21563941390E+03 -0.34529804166E+02 -0.50581907644E+03  0.55945675263E+03  0.97191850287E+02 0.  0.
    5000000    2    1    2    0    0 -0.21563941390E+03  0.34529804166E+02 -0.22839027684E+03  0.67819555922E+03  0.60007868966E+03 0.  0.
         23    2    4    4    0    0 -0.10770049028E+03 -0.24938883776E+03 -0.21762001762E+03  0.36084345795E+03  0.95159555868E+02 0.  0.
         23    2    4    4    0    0 -0.10793892363E+03  0.28391864193E+03 -0.10770259215E+02  0.31735210126E+03  0.91300335298E+02 0.  0.
          4    1    3    3  502    0  0.15923171552E+03 -0.68173736803E+02 -0.35787109663E+03  0.39758536118E+03  0.00000000000E+00 0. -1.
         -4    1    3    3    0  502  0.56407698383E+02  0.33643932636E+02 -0.14794797981E+03  0.16187139145E+03  0.00000000000E+00 0.  1.
         11    1    5    5    0    0 -0.62552434592E+02 -0.18783232200E+03 -0.10309848159E+03  0.22321085360E+03  0.00000000000E+00 0. -1.
        -11    1    5    5    0    0 -0.45148055683E+02 -0.61556515764E+02 -0.11452153603E+03  0.13763260435E+03  0.00000000000E+00 0.  1.
          1    1    6    6  503    0 -0.54341443784E+02  0.45005691613E+02 -0.16387354372E+02  0.72436525134E+02  0.00000000000E+00 0. -1.
         -1    1    6    6    0  503 -0.53597479844E+02  0.23891295031E+03  0.56170951574E+01  0.24491557613E+03  0.00000000000E+00 0.  1.
<mgrwt>
<rscale>  0 0.41430669E+03</rscale>
<asrwt>0</asrwt>
<pdfrwt beam="1">  1        2 0.15168167E+00 0.41430669E+03</pdfrwt>
<pdfrwt beam="2">  1       -2 0.38726382E-01 0.41430669E+03</pdfrwt>
<totfact> 0.16842610E+02</totfact>
</mgrwt>
</event>
<event>
12    1  0.1444206E-007  0.8082500E+03  0.7818608E-02  0.9548152E-01
          1   -1    0    0  501    0  0.00000000000E+00  0.00000000000E+00  0.17493058948E+04  0.17493058948E+04  0.00000000000E+00 0. -1.
         -1   -1    0    0    0  501 -0.00000000000E+00 -0.00000000000E+00 -0.39580758773E+03  0.39580758773E+03  0.00000000000E+00 0.  1.
         23    2    1    2    0    0  0.57411997689E+03  0.42445756108E+03  0.46343526038E+03  0.85602376990E+03  0.90699972764E+02 0.  0.
    5000000    2    1    2    0    0 -0.57411997689E+03 -0.42445756108E+03  0.89006304671E+03  0.12890897127E+04  0.59980170985E+03 0.  0.
         23    2    4    4    0    0 -0.67799077861E+03 -0.39533675710E+03  0.74584306408E+03  0.10866551901E+04  0.92601180313E+02 0.  0.
         23    2    4    4    0    0  0.10387080172E+03 -0.29120803975E+02  0.14421998263E+03  0.20243452253E+03  0.92429258608E+02 0.  0.
          4    1    3    3  502    0  0.24972057133E+03  0.15858296472E+03  0.23910290880E+03  0.38036708775E+03  0.00000000000E+00 0. -1.
         -4    1    3    3    0  502  0.32439940556E+03  0.26587459636E+03  0.22433235158E+03  0.47565668216E+03  0.00000000000E+00 0.  1.
         11    1    5    5    0    0 -0.49901732270E+02 -0.47791001971E+02  0.39553726817E+02  0.79615702334E+02  0.00000000000E+00 0.  1.
        -11    1    5    5    0    0 -0.62808904634E+03 -0.34754575513E+03  0.70628933727E+03  0.10070394878E+04  0.00000000000E+00 0. -1.
          2    1    6    6  503    0  0.34055375795E+02  0.83781733548E+01 -0.30422783904E+01  0.35202526431E+02  0.00000000000E+00 0. -1.
         -2    1    6    6    0  503  0.69815425929E+02 -0.37498977330E+02  0.14726226102E+03  0.16723199610E+03  0.00000000000E+00 0.  1.
<mgrwt>
<rscale>  0 0.80825002E+03</rscale>
<asrwt>0</asrwt>
<pdfrwt beam="1">  1        1 0.26912398E+00 0.80825002E+03</pdfrwt>
<pdfrwt beam="2">  1       -1 0.60893476E-01 0.80825002E+03</pdfrwt>
<totfact> 0.12452029E+01</totfact>
</mgrwt>
</event>
<event>
12    1  0.1444206E-007  0.5785485E+03  0.7818608E-02  0.9950938E-01
         -1   -1    0    0    0  501 -0.00000000000E+00  0.00000000000E+00  0.71857383444E+03  0.71857383444E+03  0.00000000000E+00 0.  1.
          1   -1    0    0  501    0  0.00000000000E+00 -0.00000000000E+00 -0.70794287701E+03  0.70794287701E+03  0.00000000000E+00 0. -1.
         23    2    1    2    0    0 -0.15788987764E+03 -0.47629721573E+03  0.30115033851E+03  0.59233541238E+03  0.91550331560E+02 0.  0.
    5000000    2    1    2    0    0  0.15788987764E+03  0.47629721573E+03 -0.29051938108E+03  0.83418129907E+03  0.59972383458E+03 0.  0.
         23    2    4    4    0    0  0.27825363913E+03  0.22518051535E+03  0.63095307916E+02  0.37464928577E+03  0.90827954227E+02 0.  0.
         23    2    4    4    0    0 -0.12036376149E+03  0.25111670038E+03 -0.35361468900E+03  0.45953201330E+03  0.92624460506E+02 0.  0.
          1    1    3    3  502    0 -0.10130322253E+03 -0.37238127151E+03  0.19065503747E+03  0.43044105007E+03  0.00000000000E+00 0. -1.
         -1    1    3    3    0  502 -0.56586655116E+02 -0.10391594421E+03  0.11049530104E+03  0.16189436232E+03  0.00000000000E+00 0.  1.
         13    1    5    5    0    0  0.27482395130E+03  0.19228454337E+03  0.50192076001E+02  0.33914715732E+03  0.00000000000E+00 0. -1.
        -13    1    5    5    0    0  0.34296878327E+01  0.32895971973E+02  0.12903231914E+02  0.35502128451E+02  0.00000000000E+00 0.  1.
          1    1    6    6  503    0 -0.16112167680E+02  0.96854933806E+02 -0.17959940036E+03  0.20468616162E+03  0.00000000000E+00 0. -1.
         -1    1    6    6    0  503 -0.10425159381E+03  0.15426176657E+03 -0.17401528863E+03  0.25484585168E+03  0.00000000000E+00 0.  1.
<mgrwt>
<rscale>  0 0.57854854E+03</rscale>
<asrwt>0</asrwt>
<pdfrwt beam="1">  1        1 0.10891429E+00 0.57854854E+03</pdfrwt>
<pdfrwt beam="2">  1       -1 0.11054982E+00 0.57854854E+03</pdfrwt>
<totfact> 0.21197125E+01</totfact>
</mgrwt>
</event>
<event>
12    1  0.1444206E-007  0.3796339E+03  0.7818608E-02  0.1051069E+00
          2   -1    0    0  501    0  0.00000000000E+00  0.00000000000E+00  0.23625327216E+04  0.23625327216E+04  0.00000000000E+00 0. -1.
         -2   -1    0    0    0  501 -0.00000000000E+00 -0.00000000000E+00 -0.13996718281E+03  0.13996718281E+03  0.00000000000E+00 0.  1.
         23    2    1    2    0    0  0.16538274058E+03 -0.29593681249E+03  0.30463655188E+03  0.46451815859E+03  0.89686359307E+02 0.  0.
    5000000    2    1    2    0    0 -0.16538274058E+03  0.29593681249E+03  0.19179289869E+04  0.20379817458E+04  0.59998995794E+03 0.  0.
         23    2    4    4    0    0  0.15982179785E+02  0.18812033443E+03  0.17257967244E+04  0.17385602253E+04  0.92588512319E+02 0.  0.
         23    2    4    4    0    0 -0.18136492037E+03  0.10781647807E+03  0.19213226246E+03  0.29942152051E+03  0.90668701261E+02 0.  0.
          1    1    3    3  502    0  0.29228774842E+02 -0.12254234141E+03  0.14642699538E+03  0.19316265605E+03  0.00000000000E+00 0. -1.
         -1    1    3    3    0  502  0.13615396574E+03 -0.17339447109E+03  0.15820955650E+03  0.27135550254E+03  0.00000000000E+00 0.  1.
         13    1    5    5    0    0  0.27017675769E+02  0.18270278899E+03  0.13514273481E+04  0.13639890547E+04  0.00000000000E+00 0. -1.
        -13    1    5    5    0    0 -0.11035495984E+02  0.54175454384E+01  0.37436937629E+03  0.37457117063E+03  0.00000000000E+00 0.  1.
          3    1    6    6  503    0 -0.95578007918E+02  0.82872097688E+02  0.16112949841E+03  0.20485520601E+03  0.00000000000E+00 0. -1.
         -3    1    6    6    0  503 -0.85786912450E+02  0.24944380378E+02  0.31002764048E+02  0.94566314503E+02  0.00000000000E+00 0.  1.
<mgrwt>
<rscale>  0 0.37963395E+03</rscale>
<asrwt>0</asrwt>
<pdfrwt beam="1">  1        2 0.36346654E+00 0.37963395E+03</pdfrwt>
<pdfrwt beam="2">  1       -2 0.21533414E-01 0.37963395E+03</pdfrwt>
<totfact> 0.86109178E+01</totfact>
</mgrwt>
</event>
<event>
12    1  0.1444206E-007  0.3896335E+03  0.7818608E-02  0.1047430E+00
         -2   -1    0    0    0  501 -0.00000000000E+00  0.00000000000E+00  0.26293971079E+03  0.26293971079E+03  0.00000000000E+00 0.  1.
          2   -1    0    0  501    0  0.00000000000E+00 -0.00000000000E+00 -0.77658665956E+03  0.77658665956E+03  0.00000000000E+00 0. -1.
         23    2    1    2    0    0 -0.15909521871E+03 -0.14905363558E+03 -0.26210105661E+03  0.35337548626E+03  0.92999975895E+02 0.  0.
    5000000    2    1    2    0    0  0.15909521871E+03  0.14905363558E+03 -0.25154589217E+03  0.68615088409E+03  0.59999952081E+03 0.  0.
         23    2    4    4    0    0  0.34395125635E+03  0.60499891422E+02 -0.16278891201E+02  0.36133337446E+03  0.91291300752E+02 0.  0.
         23    2    4    4    0    0 -0.18485603763E+03  0.88553744157E+02 -0.23526700097E+03  0.32481750963E+03  0.90234874451E+02 0.  0.
          3    1    3    3  502    0 -0.81605533863E+02 -0.76750900565E+02 -0.20342950433E+03  0.23223636048E+03  0.00000000000E+00 0. -1.
         -3    1    3    3    0  502 -0.77489684850E+02 -0.72302735014E+02 -0.58671552276E+02  0.12113912578E+03  0.00000000000E+00 0.  1.
         13    1    5    5    0    0  0.14379593880E+03 -0.37889674010E+01  0.27870465801E+02  0.14652095806E+03  0.00000000000E+00 0. -1.
        -13    1    5    5    0    0  0.20015531755E+03  0.64288858823E+02 -0.44149357002E+02  0.21481241639E+03  0.00000000000E+00 0.  1.
          3    1    6    6  503    0 -0.15581132666E+03  0.61556221857E+02 -0.12914755210E+03  0.21153115179E+03  0.00000000000E+00 0. -1.
         -3    1    6    6    0  503 -0.29044710977E+02  0.26997522300E+02 -0.10611944887E+03  0.11328635784E+03  0.00000000000E+00 0.  1.
<mgrwt>
<rscale>  0 0.38963352E+03</rscale>
<asrwt>0</asrwt>
<pdfrwt beam="1">  1        2 0.11947487E+00 0.38963352E+03</pdfrwt>
<pdfrwt beam="2">  1       -2 0.40452263E-01 0.38963352E+03</pdfrwt>
<totfact> 0.21424117E+02</totfact>
</mgrwt>
</event>
<event>
12    1  0.1444206E-007  0.2289489E+03  0.7818608E-02  0.1127382E+00
         -2   -1    0    0    0  501 -0.00000000000E+00  0.00000000000E+00  0.74919813585E+02  0.74919813585E+02  0.00000000000E+00 0.  1.
          2   -1    0    0  501    0  0.00000000000E+00 -0.00000000000E+00 -0.20738595957E+04  0.20738595957E+04  0.00000000000E+00 0. -1.
         23    2    1    2    0    0 -0.61420887952E+01  0.12312295114E+03 -0.64089858665E+03  0.65899996826E+03  0.91285121699E+02 0.  0.
    5000000    2    1    2    0    0  0.61420887952E+01 -0.12312295114E+03 -0.13580411954E+04  0.14897794410E+04  0.59997492277E+03 0.  0.
         23    2    4    4    0    0 -0.11391025108E+03 -0.34008012206E+02 -0.33264766629E+02  0.15317467107E+03  0.90685417586E+02 0.  0.
         23    2    4    4    0    0  0.12005233988E+03 -0.89114938934E+02 -0.13247764288E+04  0.13366047699E+04  0.95528467036E+02 0.  0.
          4    1    3    3  502    0  0.35736913001E+02  0.85140067970E+02 -0.31581812090E+03  0.32903957758E+03  0.00000000000E+00 0. -1.
         -4    1    3    3    0  502 -0.41879001797E+02  0.37982883170E+02 -0.32508046575E+03  0.32996039068E+03  0.00000000000E+00 0.  1.
         11    1    5    5    0    0 -0.45821120957E+02  0.18320373355E+02  0.18733892759E+02  0.52784182702E+02  0.00000000000E+00 0.  1.
        -11    1    5    5    0    0 -0.68089130125E+02 -0.52328385561E+02 -0.51998659389E+02  0.10039048837E+03  0.00000000000E+00 0. -1.
          3    1    6    6  503    0  0.10872619486E+03 -0.10705526263E+03 -0.10524927547E+04  0.10634957515E+04  0.00000000000E+00 0. -1.
         -3    1    6    6    0  503  0.11326145015E+02  0.17940323693E+02 -0.27228367404E+03  0.27310901839E+03  0.00000000000E+00 0.  1.
<mgrwt>
<rscale>  0 0.22894891E+03</rscale>
<asrwt>0</asrwt>
<pdfrwt beam="1">  1        2 0.31905522E+00 0.22894891E+03</pdfrwt>
<pdfrwt beam="2">  1       -2 0.11526129E-01 0.22894891E+03</pdfrwt>
<totfact> 0.36288807E+02</totfact>
</mgrwt>
</event>
<event>
12    1  0.1444206E-007  0.1828010E+04  0.7818608E-02  0.8691544E-01
          2   -1    0    0  501    0  0.00000000000E+00  0.00000000000E+00  0.21318248324E+04  0.21318248324E+04  0.00000000000E+00 0. -1.
         -2   -1    0    0    0  501 -0.00000000000E+00 -0.00000000000E+00 -0.16165005788E+04  0.16165005788E+04  0.00000000000E+00 0.  1.
         23    2    1    2    0    0 -0.13695129895E+04 -0.11780843231E+04  0.22233420674E+03  0.18223627270E+04  0.90138274858E+02 0.  0.
    5000000    2    1    2    0    0  0.13695129895E+04  0.11780843231E+04  0.29299004679E+03  0.19259626842E+04  0.60003382631E+03 0.  0.
         23    2    4    4    0    0  0.56187278246E+03  0.25473460947E+03  0.30857605824E+03  0.69569154903E+03  0.90425675287E+02 0.  0.
         23    2    4    4    0    0  0.80764020707E+03  0.92334971360E+03 -0.15586011454E+02  0.12302711352E+04  0.92014915165E+02 0.  0.
          4    1    3    3  502    0 -0.89145088233E+03 -0.72001771803E+03  0.16608694618E+03  0.11578838731E+04  0.00000000000E+00 0. -1.
         -4    1    3    3    0  502 -0.47806210719E+03 -0.45806660503E+03  0.56247260560E+02  0.66447885391E+03  0.00000000000E+00 0.  1.
         11    1    5    5    0    0  0.26495871804E+03  0.80310805368E+02  0.16727577536E+03  0.32347199685E+03  0.00000000000E+00 0. -1.
        -11    1    5    5    0    0  0.29691406441E+03  0.17442380410E+03  0.14130028288E+03  0.37221955218E+03  0.00000000000E+00 0.  1.
          4    1    6    6  503    0  0.26979559906E+02  0.27394744164E+02 -0.16712231967E+02  0.41924543622E+02  0.00000000000E+00 0. -1.
         -4    1    6    6    0  503  0.78066064716E+03  0.89595496943E+03  0.11262205122E+01  0.11883465915E+04  0.00000000000E+00 0.  1.
<mgrwt>
<rscale>  0 0.18280096E+04</rscale>
<asrwt>0</asrwt>
<pdfrwt beam="1">  1        2 0.32797305E+00 0.18280096E+04</pdfrwt>
<pdfrwt beam="2">  1       -2 0.24869240E+00 0.18280096E+04</pdfrwt>
<totfact> 0.33473738E-01</totfact>
</mgrwt>
</event>
<event>
12    1  0.1444206E-007  0.1130278E+04  0.7818608E-02  0.9176173E-01
         -1   -1    0    0    0  501 -0.00000000000E+00  0.00000000000E+00  0.20028267659E+04  0.20028267659E+04  0.00000000000E+00 0.  1.
          1   -1    0    0  501    0  0.00000000000E+00 -0.00000000000E+00 -0.11966533369E+04  0.11966533369E+04  0.00000000000E+00 0. -1.
         23    2    1    2    0    0 -0.10273756494E+04 -0.29942177365E+03  0.14573832075E+04  0.18104633589E+04  0.93046423492E+02 0.  0.
    5000000    2    1    2    0    0  0.10273756494E+04  0.29942177365E+03 -0.65120977850E+03  0.13890167439E+04  0.60011600187E+03 0.  0.
         23    2    4    4    0    0  0.64587038666E+03  0.43478354150E+03 -0.56837243452E+03  0.96829497535E+03  0.91447529485E+02 0.  0.
         23    2    4    4    0    0  0.38150526270E+03 -0.13536176785E+03 -0.82837343983E+02  0.42072176852E+03  0.79219361804E+02 0.  0.
          4    1    3    3  502    0 -0.16760618911E+03 -0.66355984769E+02  0.19657628461E+03  0.26671555450E+03  0.00000000000E+00 0. -1.
         -4    1    3    3    0  502 -0.85976946025E+03 -0.23306578888E+03  0.12608069229E+04  0.15437478044E+04  0.00000000000E+00 0.  1.
         13    1    5    5    0    0  0.85084453218E+02  0.90890709606E+02 -0.11388483784E+03  0.16873127025E+03  0.00000000000E+00 0.  1.
        -13    1    5    5    0    0  0.56078593344E+03  0.34389283189E+03 -0.45448759668E+03  0.79956370510E+03  0.00000000000E+00 0. -1.
          3    1    6    6  503    0  0.13274938449E+03 -0.25275203472E+02 -0.59633779779E+02  0.14770721947E+03  0.00000000000E+00 0. -1.
         -3    1    6    6    0  503  0.24875587821E+03 -0.11008656438E+03 -0.23203564204E+02  0.27301454905E+03  0.00000000000E+00 0.  1.
<mgrwt>
<rscale>  0 0.11302784E+04</rscale>
<asrwt>0</asrwt>
<pdfrwt beam="1">  1        1 0.18410051E+00 0.11302784E+04</pdfrwt>
<pdfrwt beam="2">  1       -1 0.30812720E+00 0.11302784E+04</pdfrwt>
<totfact> 0.31271599E-01</totfact>
</mgrwt>
</event>
<event>
12    1  0.1444206E-007  0.1173451E+04  0.7818608E-02  0.9136418E-01
          2   -1    0    0  501    0  0.00000000000E+00  0.00000000000E+00  0.34725843334E+04  0.34725843334E+04  0.00000000000E+00 0. -1.
         -2   -1    0    0    0  501 -0.00000000000E+00 -0.00000000000E+00 -0.44917028341E+03  0.44917028341E+03  0.00000000000E+00 0.  1.
         23    2    1    2    0    0  0.23948672189E+02  0.11137209245E+04  0.20131125066E+04  0.23026110275E+04  0.91911606887E+02 0.  0.
    5000000    2    1    2    0    0 -0.23948672189E+02 -0.11137209245E+04  0.10103015434E+04  0.16191435893E+04  0.59997409740E+03 0.  0.
         23    2    4    4    0    0 -0.19405783616E+03 -0.18755670901E+03  0.40292756827E+03  0.49501445443E+03  0.99260878252E+02 0.  0.
         23    2    4    4    0    0  0.17010916397E+03 -0.92616421547E+03  0.60737397514E+03  0.11241291348E+04  0.89698854223E+02 0.  0.
          4    1    3    3  502    0  0.48187736300E+02  0.57180757288E+03  0.10938605287E+04  0.12352395778E+04  0.00000000000E+00 0.  1.
         -4    1    3    3    0  502 -0.24239064111E+02  0.54191335160E+03  0.91925197787E+03  0.10673714497E+04  0.00000000000E+00 0. -1.
         11    1    5    5    0    0 -0.16250648950E+03 -0.93257626824E+02  0.24584150173E+03  0.30910093507E+03  0.00000000000E+00 0. -1.
        -11    1    5    5    0    0 -0.31551346655E+02 -0.94299082186E+02  0.15708606655E+03  0.18591351936E+03  0.00000000000E+00 0.  1.
          4    1    6    6  503    0  0.10810580794E+03 -0.73327590075E+03  0.44538335280E+03  0.86472350684E+03  0.00000000000E+00 0. -1.
         -4    1    6    6    0  503  0.62003356033E+02 -0.19288831472E+03  0.16199062234E+03  0.25940562801E+03  0.00000000000E+00 0.  1.
<mgrwt>
<rscale>  0 0.11734510E+04</rscale>
<asrwt>0</asrwt>
<pdfrwt beam="1">  1        2 0.53424373E+00 0.11734510E+04</pdfrwt>
<pdfrwt beam="2">  1       -2 0.69103123E-01 0.11734510E+04</pdfrwt>
<totfact> 0.16378891E+00</totfact>
</mgrwt>
</event>
<event>
12    1  0.1444206E-007  0.5387187E+03  0.7818608E-02  0.1004139E+00
          2   -1    0    0  501    0  0.00000000000E+00  0.00000000000E+00  0.19485484757E+04  0.19485484757E+04  0.00000000000E+00 0. -1.
         -2   -1    0    0    0  501 -0.00000000000E+00 -0.00000000000E+00 -0.18061795279E+03  0.18061795279E+03  0.00000000000E+00 0.  1.
         23    2    1    2    0    0  0.21426890261E+03  0.30876367546E+03  0.26739505219E+03  0.47001870084E+03  0.90395217227E+02 0.  0.
    5000000    2    1    2    0    0 -0.21426890261E+03 -0.30876367546E+03  0.15005354708E+04  0.16591477277E+04  0.59993192393E+03 0.  0.
         23    2    4    4    0    0  0.28226046987E+02 -0.41542322814E+03  0.98055101839E+03  0.10687145416E+04  0.85424256413E+02 0.  0.
         23    2    4    4    0    0 -0.24249494960E+03  0.10665955268E+03  0.51998445238E+03  0.59043318607E+03  0.89707612521E+02 0.  0.
          1    1    3    3  502    0  0.96201784682E+02  0.15501850600E+03  0.18360304284E+03  0.25883507861E+03  0.00000000000E+00 0. -1.
         -1    1    3    3    0  502  0.11806711793E+03  0.15374516946E+03  0.83792009343E+02  0.21118362223E+03  0.00000000000E+00 0.  1.
         13    1    5    5    0    0  0.56387551400E+02 -0.21988384359E+03  0.54998711205E+03  0.59499099493E+03  0.00000000000E+00 0. -1.
        -13    1    5    5    0    0 -0.28161504413E+02 -0.19553938456E+03  0.43056390634E+03  0.47372354669E+03  0.00000000000E+00 0.  1.
          2    1    6    6  503    0 -0.12747905070E+03  0.98840476418E+02  0.25905309472E+03  0.30517020502E+03  0.00000000000E+00 0. -1.
         -2    1    6    6    0  503 -0.11501589890E+03  0.78190762643E+01  0.26093135765E+03  0.28526298105E+03  0.00000000000E+00 0.  1.
<mgrwt>
<rscale>  0 0.53871873E+03</rscale>
<asrwt>0</asrwt>
<pdfrwt beam="1">  1        2 0.29977668E+00 0.53871873E+03</pdfrwt>
<pdfrwt beam="2">  1       -2 0.27787379E-01 0.53871873E+03</pdfrwt>
<totfact> 0.88842051E+01</totfact>
</mgrwt>
</event>
<event>
12    1  0.1444206E-007  0.5501695E+03  0.7818608E-02  0.1001455E+00
         -2   -1    0    0    0  501 -0.00000000000E+00  0.00000000000E+00  0.35590499341E+03  0.35590499341E+03  0.00000000000E+00 0.  1.
          2   -1    0    0  501    0  0.00000000000E+00 -0.00000000000E+00 -0.11320308938E+04  0.11320308938E+04  0.00000000000E+00 0. -1.
         23    2    1    2    0    0  0.30512402800E+03  0.31352767364E+03 -0.48985496129E+02  0.44862813605E+03  0.86413835811E+02 0.  0.
    5000000    2    1    2    0    0 -0.30512402800E+03 -0.31352767364E+03 -0.72714040427E+03  0.10393077512E+04  0.60002263251E+03 0.  0.
         23    2    4    4    0    0 -0.26825168316E+03  0.55894865495E+02 -0.54337851360E+03  0.61523795636E+03  0.90412014644E+02 0.  0.
         23    2    4    4    0    0 -0.36872344835E+02 -0.36942253914E+03 -0.18376189067E+03  0.42406979481E+03  0.90742361520E+02 0.  0.
          3    1    3    3  502    0  0.67375318015E+02  0.26339470804E+02 -0.17790225131E+02  0.74496263732E+02  0.00000000000E+00 0. -1.
         -3    1    3    3    0  502  0.23774870998E+03  0.28718820284E+03 -0.31195270999E+02  0.37413187231E+03  0.00000000000E+00 0.  1.
         11    1    5    5    0    0 -0.64578825371E+02  0.37430167690E+02 -0.83867990197E+02  0.11227324668E+03  0.00000000000E+00 0.  1.
        -11    1    5    5    0    0 -0.20367285779E+03  0.18464697805E+02 -0.45951052340E+03  0.50296470968E+03  0.00000000000E+00 0. -1.
          4    1    6    6  503    0  0.76303462481E+01 -0.21945280088E+03 -0.14423662236E+03  0.26272030227E+03  0.00000000000E+00 0. -1.
         -4    1    6    6    0  503 -0.44502691083E+02 -0.14996973826E+03 -0.39525268303E+02  0.16134949254E+03  0.00000000000E+00 0.  1.
<mgrwt>
<rscale>  0 0.55016949E+03</rscale>
<asrwt>0</asrwt>
<pdfrwt beam="1">  1        2 0.17415860E+00 0.55016949E+03</pdfrwt>
<pdfrwt beam="2">  1       -2 0.54754616E-01 0.55016949E+03</pdfrwt>
<totfact> 0.67734331E+01</totfact>
</mgrwt>
</event>
<event>
12    1  0.1444206E-007  0.1299138E+04  0.7818608E-02  0.9030249E-01
          1   -1    0    0  501    0  0.00000000000E+00  0.00000000000E+00  0.13849773385E+04  0.13849773385E+04  0.00000000000E+00 0. -1.
         -1   -1    0    0    0  501 -0.00000000000E+00 -0.00000000000E+00 -0.13328952975E+04  0.13328952975E+04  0.00000000000E+00 0.  1.
         23    2    1    2    0    0  0.84568079092E+03  0.96681741253E+03  0.15211679775E+03  0.12963899606E+04  0.87037350866E+02 0.  0.
    5000000    2    1    2    0    0 -0.84568079092E+03 -0.96681741253E+03 -0.10003475672E+03  0.14214826754E+04  0.60057816688E+03 0.  0.
         23    2    4    4    0    0 -0.19901373177E+03 -0.11831657129E+03 -0.23854339618E+03  0.34183096634E+03  0.79625254886E+02 0.  0.
         23    2    4    4    0    0 -0.64666705915E+03 -0.84850084123E+03  0.13850863945E+03  0.10796517090E+04  0.91275443821E+02 0.  0.
          3    1    3    3  502    0  0.66952675785E+03  0.80305794702E+03  0.14692006654E+03  0.10558189483E+04  0.00000000000E+00 0. -1.
         -3    1    3    3    0  502  0.17615403307E+03  0.16375946551E+03  0.51967312100E+01  0.24057101223E+03  0.00000000000E+00 0.  1.
         13    1    5    5    0    0 -0.11611297534E+03 -0.11246320766E+03 -0.15332802538E+03  0.22279963978E+03  0.00000000000E+00 0. -1.
        -13    1    5    5    0    0 -0.82900756434E+02 -0.58533636287E+01 -0.85215370798E+02  0.11903132656E+03  0.00000000000E+00 0.  1.
          4    1    6    6  503    0 -0.39412637092E+03 -0.54624981286E+03  0.12798987470E+03  0.68564266373E+03  0.00000000000E+00 0.  1.
         -4    1    6    6    0  503 -0.25254068822E+03 -0.30225102837E+03  0.10518764750E+02  0.39400904529E+03  0.00000000000E+00 0. -1.
<mgrwt>
<rscale>  0 0.12991383E+04</rscale>
<asrwt>0</asrwt>
<pdfrwt beam="1">  1        1 0.21307344E+00 0.12991383E+04</pdfrwt>
<pdfrwt beam="2">  1       -1 0.20506082E+00 0.12991383E+04</pdfrwt>
<totfact> 0.10591712E+00</totfact>
</mgrwt>
</event>
<event>
12    1  0.1444206E-007  0.7186690E+03  0.7818608E-02  0.9685828E-01
         -2   -1    0    0    0  501 -0.00000000000E+00  0.00000000000E+00  0.52418655549E+03  0.52418655549E+03  0.00000000000E+00 0.  1.
          2   -1    0    0  501    0  0.00000000000E+00 -0.00000000000E+00 -0.11773207753E+04  0.11773207753E+04  0.00000000000E+00 0. -1.
         23    2    1    2    0    0  0.54744207406E+03  0.30428791629E+03 -0.30114544961E+02  0.63360851609E+03  0.90933521780E+02 0.  0.
    5000000    2    1    2    0    0 -0.54744207406E+03 -0.30428791629E+03 -0.62301967480E+03  0.10678988147E+04  0.59997533508E+03 0.  0.
         23    2    4    4    0    0 -0.49389185481E+02 -0.29691683740E+03 -0.73490672857E+02  0.32053915178E+03  0.82131412084E+02 0.  0.
         23    2    4    4    0    0 -0.49805288858E+03 -0.73710788884E+01 -0.54952900195E+03  0.74735966288E+03  0.91941987620E+02 0.  0.
          3    1    3    3  502    0  0.17305956689E+03  0.52721611430E+02 -0.24152216660E+02  0.18251715419E+03  0.00000000000E+00 0. -1.
         -3    1    3    3    0  502  0.37438250717E+03  0.25156630486E+03 -0.59623283016E+01  0.45109136190E+03  0.00000000000E+00 0.  1.
         11    1    5    5    0    0 -0.32653128318E+02 -0.70785023083E+02  0.10657065919E+02  0.78678582447E+02  0.00000000000E+00 0.  1.
        -11    1    5    5    0    0 -0.16736057163E+02 -0.22613181432E+03 -0.84147738776E+02  0.24186056933E+03  0.00000000000E+00 0. -1.
          1    1    6    6  503    0 -0.61757246599E+02  0.15843940520E+02 -0.11298232381E+03  0.12973046463E+03  0.00000000000E+00 0. -1.
         -1    1    6    6    0  503 -0.43629564198E+03 -0.23215019409E+02 -0.43654667813E+03  0.61762919825E+03  0.00000000000E+00 0.  1.
<mgrwt>
<rscale>  0 0.71866895E+03</rscale>
<asrwt>0</asrwt>
<pdfrwt beam="1">  1        2 0.18112627E+00 0.71866895E+03</pdfrwt>
<pdfrwt beam="2">  1       -2 0.80644086E-01 0.71866895E+03</pdfrwt>
<totfact> 0.27113372E+01</totfact>
</mgrwt>
</event>
<event>
12    1  0.1444206E-007  0.2438349E+04  0.7818608E-02  0.8425284E-01
         -2   -1    0    0    0  501 -0.00000000000E+00  0.00000000000E+00  0.25760792045E+04  0.25760792045E+04  0.00000000000E+00 0.  1.
          2   -1    0    0  501    0  0.00000000000E+00 -0.00000000000E+00 -0.28738933415E+04  0.28738933415E+04  0.00000000000E+00 0. -1.
         23    2    1    2    0    0 -0.14701146566E+04  0.19005470849E+04 -0.13517050749E+04  0.27584209389E+04  0.91995333311E+02 0.  0.
    5000000    2    1    2    0    0  0.14701146566E+04 -0.19005470849E+04  0.10538909379E+04  0.26915516071E+04  0.60037290014E+03 0.  0.
         23    2    4    4    0    0  0.34610884150E+03 -0.89908628888E+03  0.44249709336E+03  0.10641576245E+04  0.92088473921E+02 0.  0.
         23    2    4    4    0    0  0.11240058151E+04 -0.10014607960E+04  0.61139384456E+03  0.16273939826E+04  0.91082068833E+02 0.  0.
          3    1    3    3  502    0 -0.65994691983E+03  0.91243131769E+03 -0.66552306289E+03  0.13080450274E+04  0.00000000000E+00 0. -1.
         -3    1    3    3    0  502 -0.81016773677E+03  0.98811576716E+03 -0.68618201201E+03  0.14503759115E+04  0.00000000000E+00 0.  1.
         13    1    5    5    0    0  0.79000699322E+02 -0.30494774293E+03  0.17090158974E+03  0.35838748553E+03  0.00000000000E+00 0.  1.
        -13    1    5    5    0    0  0.26710814218E+03 -0.59413854595E+03  0.27159550362E+03  0.70577013892E+03  0.00000000000E+00 0. -1.
          3    1    6    6  503    0  0.31721185424E+03 -0.31560533555E+03  0.14569272066E+03  0.47059160336E+03  0.00000000000E+00 0. -1.
         -3    1    6    6    0  503  0.80679396086E+03 -0.68585546042E+03  0.46570112390E+03  0.11568023793E+04  0.00000000000E+00 0.  1.
<mgrwt>
<rscale>  0 0.24383486E+04</rscale>
<asrwt>0</asrwt>
<pdfrwt beam="1">  1        2 0.44213744E+00 0.24383486E+04</pdfrwt>
<pdfrwt beam="2">  1       -2 0.39631988E+00 0.24383486E+04</pdfrwt>
<totfact> 0.13752110E-02</totfact>
</mgrwt>
</event>
<event>
12    1  0.1529859E-007  0.7084405E+03  0.7818608E-02  0.9702906E-01
          1   -1    0    0  501    0  0.00000000000E+00  0.00000000000E+00  0.12796148080E+04  0.12796148080E+04  0.00000000000E+00 0. -1.
         -1   -1    0    0    0  501 -0.00000000000E+00 -0.00000000000E+00 -0.44524052546E+03  0.44524052546E+03  0.00000000000E+00 0.  1.
         23    2    1    2    0    0 -0.61933147856E+03  0.43791030780E+02  0.48616685549E+03  0.79399122300E+03  0.92599763052E+02 0.  0.
    5000000    2    1    2    0    0  0.61933147856E+03 -0.43791030780E+02  0.34820742707E+03  0.93086411047E+03  0.59980867382E+03 0.  0.
         23    2    4    4    0    0 -0.75320198101E+02  0.14717668768E+01  0.17061644268E+03  0.20658712152E+03  0.88842388104E+02 0.  0.
         23    2    4    4    0    0  0.69465167666E+03 -0.45262797657E+02  0.17759098438E+03  0.72427698895E+03  0.91918040975E+02 0.  0.
          1    1    3    3  502    0 -0.37258504794E+03  0.61692726614E+02  0.25738195118E+03  0.45702415610E+03  0.00000000000E+00 0. -1.
         -1    1    3    3    0  502 -0.24674643062E+03 -0.17901695834E+02  0.22878490431E+03  0.33696706690E+03  0.00000000000E+00 0.  1.
         13    1    5    5    0    0 -0.32512220845E+01  0.20172198916E+02  0.10615651584E+03  0.10810501334E+03  0.00000000000E+00 0. -1.
        -13    1    5    5    0    0 -0.72068976016E+02 -0.18700432039E+02  0.64459926841E+02  0.98482108176E+02  0.00000000000E+00 0.  1.
          4    1    6    6  503    0  0.24535064218E+03  0.13830165587E+00  0.20748120803E+02  0.24622640244E+03  0.00000000000E+00 0. -1.
         -4    1    6    6    0  503  0.44930103448E+03 -0.45401099313E+02  0.15684286358E+03  0.47805058651E+03  0.00000000000E+00 0.  1.
<mgrwt>
<rscale>  0 0.70844047E+03</rscale>
<asrwt>0</asrwt>
<pdfrwt beam="1">  1        1 0.19686381E+00 0.70844047E+03</pdfrwt>
<pdfrwt beam="2">  1       -1 0.68498543E-01 0.70844047E+03</pdfrwt>
<totfact> 0.20934251E+01</totfact>
</mgrwt>
</event>
<event>
12    1  0.1444206E-007  0.1133991E+04  0.7818608E-02  0.9172681E-01
         -2   -1    0    0    0  501 -0.00000000000E+00  0.00000000000E+00  0.11209853633E+04  0.11209853633E+04  0.00000000000E+00 0. -1.
          2   -1    0    0  501    0  0.00000000000E+00 -0.00000000000E+00 -0.13044541002E+04  0.13044541002E+04  0.00000000000E+00 0.  1.
         23    2    1    2    0    0 -0.11042651807E+04 -0.10757726371E+03  0.14325765387E+03  0.11224072209E+04  0.91108491130E+02 0.  0.
    5000000    2    1    2    0    0  0.11042651807E+04  0.10757726371E+03 -0.32672639084E+03  0.13030322426E+04  0.60014034513E+03 0.  0.
         23    2    4    4    0    0  0.88093369070E+03  0.18925649243E+03 -0.22972170713E+02  0.90601585511E+03  0.92058795076E+02 0.  0.
         23    2    4    4    0    0  0.22333149000E+03 -0.81679228718E+02 -0.30375422013E+03  0.39701638750E+03  0.93845270909E+02 0.  0.
          4    1    3    3  502    0 -0.84348481431E+03 -0.10468487666E+03  0.14118590948E+03  0.86160258612E+03  0.00000000000E+00 0. -1.
         -4    1    3    3    0  502 -0.26078036639E+03 -0.28923870553E+01  0.20717443990E+01  0.26080463478E+03  0.00000000000E+00 0.  1.
         11    1    5    5    0    0  0.23573333281E+03  0.68695943584E+02  0.30733493641E+02  0.24745481304E+03  0.00000000000E+00 0. -1.
        -11    1    5    5    0    0  0.64520035788E+03  0.12056054885E+03 -0.53705664354E+02  0.65856104207E+03  0.00000000000E+00 0.  1.
          1    1    6    6  503    0  0.14970394984E+03 -0.99264150536E+02 -0.22268173007E+03  0.28609753072E+03  0.00000000000E+00 0. -1.
         -1    1    6    6    0  503  0.73627540160E+02  0.17584921818E+02 -0.81072490059E+02  0.11091885678E+03  0.00000000000E+00 0.  1.
<mgrwt>
<rscale>  0 0.11339905E+04</rscale>
<asrwt>0</asrwt>
<pdfrwt beam="1">  1        2 0.20068524E+00 0.11339905E+04</pdfrwt>
<pdfrwt beam="2">  1       -2 0.17245929E+00 0.11339905E+04</pdfrwt>
<totfact> 0.32886772E+00</totfact>
</mgrwt>
</event>
<event>
12    1  0.1444206E-007  0.1021066E+04  0.7818608E-02  0.9285737E-01
          2   -1    0    0  501    0  0.00000000000E+00  0.00000000000E+00  0.12554376072E+04  0.12554376072E+04  0.00000000000E+00 0. -1.
         -2   -1    0    0    0  501 -0.00000000000E+00 -0.00000000000E+00 -0.12670406484E+04  0.12670406484E+04  0.00000000000E+00 0.  1.
         23    2    1    2    0    0 -0.94611125677E+03  0.35518061850E+03  0.61898786233E+03  0.11885757630E+04  0.91030701731E+02 0.  0.
    5000000    2    1    2    0    0  0.94611125677E+03 -0.35518061850E+03 -0.63059090356E+03  0.13339024927E+04  0.60030924558E+03 0.  0.
         23    2    4    4    0    0  0.49487006516E+03 -0.88447719372E+02 -0.27719408796E+01  0.51083851216E+03  0.90713402519E+02 0.  0.
         23    2    4    4    0    0  0.45124119160E+03 -0.26673289913E+03 -0.62781896268E+03  0.82306398049E+03  0.92263826129E+02 0.  0.
          3    1    3    3  502    0 -0.48208711534E+03  0.20946724090E+03  0.27828251146E+03  0.59474840728E+03  0.00000000000E+00 0. -1.
         -3    1    3    3    0  502 -0.46402414143E+03  0.14571337760E+03  0.34070535087E+03  0.59382735568E+03  0.00000000000E+00 0.  1.
         11    1    5    5    0    0  0.29940938945E+03 -0.43821066894E+02  0.41745522714E+02  0.30546514869E+03  0.00000000000E+00 0. -1.
        -11    1    5    5    0    0  0.19546067571E+03 -0.44626652478E+02 -0.44517463593E+02  0.20537336347E+03  0.00000000000E+00 0.  1.
          1    1    6    6  503    0  0.23706243020E+03 -0.10823051161E+03 -0.36781097828E+03  0.45077417317E+03  0.00000000000E+00 0. -1.
         -1    1    6    6    0  503  0.21417876140E+03 -0.15850238752E+03 -0.26000798440E+03  0.37228980732E+03  0.00000000000E+00 0.  1.
<mgrwt>
<rscale>  0 0.10210661E+04</rscale>
<asrwt>0</asrwt>
<pdfrwt beam="1">  1        2 0.19314425E+00 0.10210661E+04</pdfrwt>
<pdfrwt beam="2">  1       -2 0.19492933E+00 0.10210661E+04</pdfrwt>
<totfact> 0.24964469E+00</totfact>
</mgrwt>
</event>
<event>
12    1  0.1444206E-007  0.5405931E+03  0.7818608E-02  0.1003695E+00
         -2   -1    0    0    0  501 -0.00000000000E+00  0.00000000000E+00  0.41651320450E+03  0.41651320450E+03  0.00000000000E+00 0.  1.
          2   -1    0    0  501    0  0.00000000000E+00 -0.00000000000E+00 -0.14253875318E+04  0.14253875318E+04  0.00000000000E+00 0. -1.
         23    2    1    2    0    0  0.16061365748E+03  0.45258666509E+03 -0.95238855239E+03  0.10712839004E+04  0.99868934965E+02 0.  0.
    5000000    2    1    2    0    0 -0.16061365748E+03 -0.45258666509E+03 -0.56485774879E+02  0.77061683585E+03  0.60002352333E+03 0.  0.
         23    2    4    4    0    0  0.14963614651E+02  0.23789468009E+02  0.17978328729E+03  0.20341571375E+03  0.90917950146E+02 0.  0.
         23    2    4    4    0    0 -0.17557727213E+03 -0.47637613310E+03 -0.23626906217E+03  0.56720112211E+03  0.90180067111E+02 0.  0.
          2    1    3    3  502    0  0.12133613538E+03  0.31285720761E+03 -0.75557673780E+03  0.82673955803E+03  0.00000000000E+00 0. -1.
         -2    1    3    3    0  502  0.39277522101E+02  0.13972945748E+03 -0.19681181459E+03  0.24454434238E+03  0.00000000000E+00 0.  1.
         13    1    5    5    0    0 -0.29263337936E+02 -0.14874282292E+02  0.92965427101E+02  0.98590860920E+02  0.00000000000E+00 0. -1.
        -13    1    5    5    0    0  0.44226952587E+02  0.38663750301E+02  0.86817860191E+02  0.10482485283E+03  0.00000000000E+00 0.  1.
          3    1    6    6  503    0 -0.93407262950E+02 -0.30250916214E+03 -0.10187817290E+03  0.33258964515E+03  0.00000000000E+00 0. -1.
         -3    1    6    6    0  503 -0.82170009178E+02 -0.17386697096E+03 -0.13439088927E+03  0.23461147695E+03  0.00000000000E+00 0.  1.
<mgrwt>
<rscale>  0 0.54059312E+03</rscale>
<asrwt>0</asrwt>
<pdfrwt beam="1">  1        2 0.21929038E+00 0.54059312E+03</pdfrwt>
<pdfrwt beam="2">  1       -2 0.64078956E-01 0.54059312E+03</pdfrwt>
<totfact> 0.33084622E+01</totfact>
</mgrwt>
</event>
<event>
12    1  0.1444206E-007  0.1052922E+04  0.7818608E-02  0.9252332E-01
         -2   -1    0    0    0  501 -0.00000000000E+00  0.00000000000E+00  0.62994373020E+03  0.62994373020E+03  0.00000000000E+00 0. -1.
          2   -1    0    0  501    0  0.00000000000E+00 -0.00000000000E+00 -0.22711249742E+04  0.22711249742E+04  0.00000000000E+00 0.  1.
         23    2    1    2    0    0 -0.66440799959E+03 -0.79936225746E+03 -0.26734807810E+03  0.10768827593E+04  0.88223997776E+02 0.  0.
    5000000    2    1    2    0    0  0.66440799959E+03  0.79936225746E+03 -0.13738331659E+04  0.18241859451E+04  0.59984896942E+03 0.  0.
         23    2    4    4    0    0  0.32068376576E+03  0.50115058338E+03 -0.34280663861E+03  0.69341235017E+03  0.96510678453E+02 0.  0.
         23    2    4    4    0    0  0.34372423384E+03  0.29821167407E+03 -0.10310265273E+04  0.11307735950E+04  0.92502278846E+02 0.  0.
          2    1    3    3  502    0 -0.50908732901E+03 -0.55311152293E+03 -0.20414092769E+03  0.77895813990E+03  0.00000000000E+00 0. -1.
         -2    1    3    3    0  502 -0.15532067058E+03 -0.24625073453E+03 -0.63207150408E+02  0.29792461937E+03  0.00000000000E+00 0.  1.
         13    1    5    5    0    0  0.93188548956E+02  0.92860918498E+02 -0.10877763499E+03  0.17070392413E+03  0.00000000000E+00 0.  1.
        -13    1    5    5    0    0  0.22749521680E+03  0.40828966489E+03 -0.23402900362E+03  0.52270842604E+03  0.00000000000E+00 0. -1.
          3    1    6    6  503    0  0.25554207712E+03  0.26923497360E+03 -0.80695002353E+03  0.88823283246E+03  0.00000000000E+00 0. -1.
         -3    1    6    6    0  503  0.88182156715E+02  0.28976700473E+02 -0.22407650376E+03  0.24254076249E+03  0.00000000000E+00 0.  1.
<mgrwt>
<rscale>  0 0.10529221E+04</rscale>
<asrwt>0</asrwt>
<pdfrwt beam="1">  1        2 0.34940384E+00 0.10529221E+04</pdfrwt>
<pdfrwt beam="2">  1       -2 0.96914421E-01 0.10529221E+04</pdfrwt>
<totfact> 0.41789322E+00</totfact>
</mgrwt>
</event>
<event>
12    1  0.1444206E-007  0.7745708E+03  0.7818608E-02  0.9597572E-01
          2   -1    0    0  501    0  0.00000000000E+00  0.00000000000E+00  0.14834475110E+04  0.14834475110E+04  0.00000000000E+00 0.  1.
         -2   -1    0    0    0  501 -0.00000000000E+00 -0.00000000000E+00 -0.46759099736E+03  0.46759099736E+03  0.00000000000E+00 0. -1.
         23    2    1    2    0    0  0.38492247601E+03 -0.60953218051E+03  0.47922052880E+03  0.87045271388E+03  0.91328091319E+02 0.  0.
    5000000    2    1    2    0    0 -0.38492247601E+03  0.60953218051E+03  0.53663598487E+03  0.10805857945E+04  0.59999390618E+03 0.  0.
         23    2    4    4    0    0 -0.22607430023E+03  0.61226908685E+03  0.18764865009E+03  0.68515875229E+03  0.90815615545E+02 0.  0.
         23    2    4    4    0    0 -0.15884817578E+03 -0.27369063364E+01  0.34898733478E+03  0.39542704223E+03  0.96592713429E+02 0.  0.
          4    1    3    3  502    0  0.45337101979E+02 -0.82331209876E+02  0.10170904237E+03  0.13848685943E+03  0.00000000000E+00 0. -1.
         -4    1    3    3    0  502  0.33958537403E+03 -0.52720097063E+03  0.37751148643E+03  0.73196585445E+03  0.00000000000E+00 0.  1.
         13    1    5    5    0    0 -0.21101890074E+03  0.46960982603E+03  0.13391013172E+03  0.53197207498E+03  0.00000000000E+00 0. -1.
        -13    1    5    5    0    0 -0.15055399486E+02  0.14265926081E+03  0.53738518374E+02  0.15318667731E+03  0.00000000000E+00 0.  1.
          3    1    6    6  503    0 -0.16007448894E+03  0.67238379736E+01  0.25634111993E+03  0.30229095549E+03  0.00000000000E+00 0. -1.
         -3    1    6    6    0  503  0.12263131627E+01 -0.94607443100E+01  0.92646214850E+02  0.93136086738E+02  0.00000000000E+00 0.  1.
<mgrwt>
<rscale>  0 0.77457078E+03</rscale>
<asrwt>0</asrwt>
<pdfrwt beam="1">  1        2 0.22822269E+00 0.77457078E+03</pdfrwt>
<pdfrwt beam="2">  1       -2 0.71937077E-01 0.77457078E+03</pdfrwt>
<totfact> 0.23176589E+01</totfact>
</mgrwt>
</event>
<event>
12    1  0.1444206E-007  0.7049649E+03  0.7818608E-02  0.9708779E-01
          2   -1    0    0  501    0  0.00000000000E+00  0.00000000000E+00  0.58027310504E+03  0.58027310504E+03  0.00000000000E+00 0.  1.
         -2   -1    0    0    0  501 -0.00000000000E+00 -0.00000000000E+00 -0.12156819933E+04  0.12156819933E+04  0.00000000000E+00 0. -1.
         23    2    1    2    0    0 -0.31458380970E+03 -0.50013685273E+03  0.17964104761E+03  0.62407450083E+03  0.89990176181E+02 0.  0.
    5000000    2    1    2    0    0  0.31458380970E+03  0.50013685273E+03 -0.81504993591E+03  0.11718805976E+04  0.59991490407E+03 0.  0.
         23    2    4    4    0    0  0.46409024399E+03  0.43933757459E+03 -0.54705448696E+03  0.84609264449E+03  0.90591899940E+02 0.  0.
         23    2    4    4    0    0 -0.14950643429E+03  0.60799278139E+02 -0.26799544895E+03  0.32578795307E+03  0.90925813694E+02 0.  0.
          2    1    3    3  502    0 -0.21008588288E+03 -0.39138860140E+03  0.15921514800E+03  0.47187983517E+03  0.00000000000E+00 0. -1.
         -2    1    3    3    0  502 -0.10449792683E+03 -0.10874825133E+03  0.20425899611E+02  0.15219466565E+03  0.00000000000E+00 0.  1.
         11    1    5    5    0    0  0.21996599522E+03  0.14690460824E+03 -0.22409282890E+03  0.34667506247E+03  0.00000000000E+00 0.  1.
        -11    1    5    5    0    0  0.24412424877E+03  0.29243296636E+03 -0.32296165806E+03  0.49941758202E+03  0.00000000000E+00 0. -1.
          1    1    6    6  503    0 -0.80051220620E+02  0.47274316124E+01 -0.62261759473E+02  0.10152375695E+03  0.00000000000E+00 0. -1.
         -1    1    6    6    0  503 -0.69455213665E+02  0.56071846527E+02 -0.20573368948E+03  0.22426419612E+03  0.00000000000E+00 0.  1.
<mgrwt>
<rscale>  0 0.70496487E+03</rscale>
<asrwt>0</asrwt>
<pdfrwt beam="1">  1        2 0.89272786E-01 0.70496487E+03</pdfrwt>
<pdfrwt beam="2">  1       -2 0.18702800E+00 0.70496487E+03</pdfrwt>
<totfact> 0.85780335E+00</totfact>
</mgrwt>
</event>
<event>
12    1  0.1444206E-007  0.1682123E+04  0.7818608E-02  0.8771626E-01
         -2   -1    0    0    0  501 -0.00000000000E+00  0.00000000000E+00  0.10698141231E+04  0.10698141231E+04  0.00000000000E+00 0. -1.
          2   -1    0    0  501    0  0.00000000000E+00 -0.00000000000E+00 -0.27874744799E+04  0.27874744799E+04  0.00000000000E+00 0.  1.
         23    2    1    2    0    0  0.94229132455E+03  0.13829828213E+04 -0.84720558168E+03  0.18779287240E+04  0.91129415118E+02 0.  0.
    5000000    2    1    2    0    0 -0.94229132455E+03 -0.13829828213E+04 -0.87045477508E+03  0.19793598790E+04  0.59968290857E+03 0.  0.
         23    2    4    4    0    0 -0.76401007939E+03 -0.10024227930E+04 -0.36340206663E+03  0.13148879860E+04  0.91139982731E+02 0.  0.
         23    2    4    4    0    0 -0.17828124516E+03 -0.38056002830E+03 -0.50705270846E+03  0.66447189297E+03  0.88375957619E+02 0.  0.
          1    1    3    3  502    0  0.33168431758E+03  0.50710534278E+03 -0.35443095400E+03  0.70199117969E+03  0.00000000000E+00 0. -1.
         -1    1    3    3    0  502  0.61060700697E+03  0.87587747851E+03 -0.49277462768E+03  0.11759375443E+04  0.00000000000E+00 0.  1.
         13    1    5    5    0    0 -0.46974088361E+03 -0.65826467585E+03 -0.19576949943E+03  0.83204241365E+03  0.00000000000E+00 0.  1.
        -13    1    5    5    0    0 -0.29426919578E+03 -0.34415811714E+03 -0.16763256719E+03  0.48284557238E+03  0.00000000000E+00 0. -1.
          1    1    6    6  503    0 -0.15783193560E+03 -0.24124398485E+03 -0.35304209340E+03  0.45579414195E+03  0.00000000000E+00 0. -1.
         -1    1    6    6    0  503 -0.20449309562E+02 -0.13931604345E+03 -0.15401061506E+03  0.20867775103E+03  0.00000000000E+00 0.  1.
<mgrwt>
<rscale>  0 0.16821234E+04</rscale>
<asrwt>0</asrwt>
<pdfrwt beam="1">  1        2 0.42884222E+00 0.16821234E+04</pdfrwt>
<pdfrwt beam="2">  1       -2 0.16458679E+00 0.16821234E+04</pdfrwt>
<totfact> 0.50827209E-01</totfact>
</mgrwt>
</event>
<event>
12    1  0.1444206E-007  0.1014361E+04  0.7818608E-02  0.9292933E-01
          2   -1    0    0  501    0  0.00000000000E+00  0.00000000000E+00  0.34804235590E+04  0.34804235590E+04  0.00000000000E+00 0.  1.
         -2   -1    0    0    0  501 -0.00000000000E+00 -0.00000000000E+00 -0.34291750965E+03  0.34291750965E+03  0.00000000000E+00 0. -1.
         23    2    1    2    0    0 -0.42656630254E+03  0.90552914976E+03  0.16525621661E+04  0.19347128916E+04  0.10104656650E+03 0.  0.
    5000000    2    1    2    0    0  0.42656630254E+03 -0.90552914976E+03  0.14849438832E+04  0.18886281770E+04  0.59993016526E+03 0.  0.
         23    2    4    4    0    0  0.20763210051E+03 -0.23629378151E+03  0.11766353427E+03  0.34853050689E+03  0.93182437149E+02 0.  0.
         23    2    4    4    0    0  0.21893420202E+03 -0.66923536825E+03  0.13672803489E+04  0.15400976701E+04  0.81468509126E+02 0.  0.
          1    1    3    3  502    0 -0.16002969998E+03  0.26441709896E+03  0.57584856547E+03  0.65354990433E+03  0.00000000000E+00 0. -1.
         -1    1    3    3    0  502 -0.26653660255E+03  0.64111205080E+03  0.10767136007E+04  0.12811629873E+04  0.00000000000E+00 0.  1.
         13    1    5    5    0    0  0.16015655685E+02 -0.46947823916E+02 -0.97156373361E+01  0.50546938645E+02  0.00000000000E+00 0. -1.
        -13    1    5    5    0    0  0.19161644483E+03 -0.18934595759E+03  0.12737917161E+03  0.29798356825E+03  0.00000000000E+00 0.  1.
          1    1    6    6  503    0  0.37173966034E+02 -0.19422328123E+03  0.44279472308E+03  0.48494510360E+03  0.00000000000E+00 0. -1.
         -1    1    6    6    0  503  0.18176023599E+03 -0.47501208703E+03  0.92448562586E+03  0.10551525665E+04  0.00000000000E+00 0.  1.
<mgrwt>
<rscale>  0 0.10143606E+04</rscale>
<asrwt>0</asrwt>
<pdfrwt beam="1">  1        2 0.53544975E+00 0.10143606E+04</pdfrwt>
<pdfrwt beam="2">  1       -2 0.52756542E-01 0.10143606E+04</pdfrwt>
<totfact> 0.29406103E+00</totfact>
</mgrwt>
</event>
<event>
12    1  0.1444206E-007  0.1287240E+04  0.7818608E-02  0.9039745E-01
          2   -1    0    0  501    0  0.00000000000E+00  0.00000000000E+00  0.20115609143E+04  0.20115609143E+04  0.00000000000E+00 0. -1.
         -2   -1    0    0    0  501 -0.00000000000E+00 -0.00000000000E+00 -0.10731695131E+04  0.10731695131E+04  0.00000000000E+00 0.  1.
         23    2    1    2    0    0  0.11723149655E+04  0.49571872743E+03  0.10779777377E+04  0.16706626074E+04  0.94963727992E+02 0.  0.
    5000000    2    1    2    0    0 -0.11723149655E+04 -0.49571872743E+03 -0.13958633644E+03  0.14140678200E+04  0.60003668149E+03 0.  0.
         23    2    4    4    0    0 -0.84245160484E+03 -0.22119279056E+03 -0.32998758736E+03  0.93570555810E+03  0.89454606111E+02 0.  0.
         23    2    4    4    0    0 -0.32986336071E+03 -0.27452593687E+03  0.19040125092E+03  0.47836226193E+03  0.91670554320E+02 0.  0.
          4    1    3    3  502    0  0.86862363793E+03  0.34219718552E+03  0.74311035557E+03  0.11932388439E+04  0.00000000000E+00 0.  1.
         -4    1    3    3    0  502  0.30369132762E+03  0.15352154191E+03  0.33486738213E+03  0.47742376346E+03  0.00000000000E+00 0. -1.
         13    1    5    5    0    0 -0.80327536594E+03 -0.20551438779E+03 -0.29240167185E+03  0.87919634600E+03  0.00000000000E+00 0.  1.
        -13    1    5    5    0    0 -0.39176238896E+02 -0.15678402772E+02 -0.37585915506E+02  0.56509212098E+02  0.00000000000E+00 0. -1.
          3    1    6    6  503    0 -0.40973278582E+02 -0.30377493436E+02 -0.73730629479E+01  0.51536042945E+02  0.00000000000E+00 0. -1.
         -3    1    6    6    0  503 -0.28889008213E+03 -0.24414844343E+03  0.19777431387E+03  0.42682621898E+03  0.00000000000E+00 0.  1.
<mgrwt>
<rscale>  0 0.12872403E+04</rscale>
<asrwt>0</asrwt>
<pdfrwt beam="1">  1        2 0.30947091E+00 0.12872403E+04</pdfrwt>
<pdfrwt beam="2">  1       -2 0.16510300E+00 0.12872403E+04</pdfrwt>
<totfact> 0.14649767E+00</totfact>
</mgrwt>
</event>
<event>
12    1  0.1444206E-007  0.5118133E+03  0.7818608E-02  0.1010741E+00
          2   -1    0    0  501    0  0.00000000000E+00  0.00000000000E+00  0.15464777330E+03  0.15464777330E+03  0.00000000000E+00 0. -1.
         -2   -1    0    0    0  501 -0.00000000000E+00 -0.00000000000E+00 -0.18635170022E+04  0.18635170022E+04  0.00000000000E+00 0.  1.
         23    2    1    2    0    0 -0.34961953842E+03  0.96516900501E+01 -0.76419911167E+03  0.84554788969E+03  0.92865357988E+02 0.  0.
    5000000    2    1    2    0    0  0.34961953842E+03 -0.96516900501E+01 -0.94467011723E+03  0.11726168858E+04  0.60025140878E+03 0.  0.
         23    2    4    4    0    0  0.37877772050E+03  0.21259541855E+03 -0.71072230718E+03  0.83806019986E+03  0.92462571454E+02 0.  0.
         23    2    4    4    0    0 -0.29158182080E+02 -0.22224710860E+03 -0.23394781005E+03  0.33455668596E+03  0.83382380818E+02 0.  0.
          2    1    3    3  502    0 -0.10649351203E+03 -0.32930226889E+02 -0.29557147474E+03  0.31589201419E+03  0.00000000000E+00 0. -1.
         -2    1    3    3    0  502 -0.24312602639E+03  0.42581916939E+02 -0.46862763693E+03  0.52965587551E+03  0.00000000000E+00 0.  1.
         11    1    5    5    0    0  0.94195365545E+02  0.92655204659E+02 -0.26060725426E+03  0.29218811545E+03  0.00000000000E+00 0.  1.
        -11    1    5    5    0    0  0.28458235496E+03  0.11994021389E+03 -0.45011505293E+03  0.54587208440E+03  0.00000000000E+00 0. -1.
          1    1    6    6  503    0 -0.16857739657E+02 -0.90362180754E+02 -0.41317048310E+02  0.10077998600E+03  0.00000000000E+00 0. -1.
         -1    1    6    6    0  503 -0.12300442422E+02 -0.13188492784E+03 -0.19263076174E+03  0.23377669996E+03  0.00000000000E+00 0.  1.
<mgrwt>
<rscale>  0 0.51181331E+03</rscale>
<asrwt>0</asrwt>
<pdfrwt beam="1">  1        2 0.23791964E-01 0.51181331E+03</pdfrwt>
<pdfrwt beam="2">  1       -2 0.28669493E+00 0.51181331E+03</pdfrwt>
<totfact> 0.94964727E+00</totfact>
</mgrwt>
</event>
<event>
12    1  0.1444206E-007  0.5886539E+03  0.7818608E-02  0.9929229E-01
          1   -1    0    0  501    0  0.00000000000E+00  0.00000000000E+00  0.16590722210E+04  0.16590722210E+04  0.00000000000E+00 0.  1.
         -1   -1    0    0    0  501 -0.00000000000E+00 -0.00000000000E+00 -0.28597024131E+03  0.28597024131E+03  0.00000000000E+00 0. -1.
         23    2    1    2    0    0  0.43372756278E+03  0.33586586969E+03  0.66527390648E+03  0.86719617551E+03  0.92273262828E+02 0.  0.
    5000000    2    1    2    0    0 -0.43372756278E+03 -0.33586586969E+03  0.70782807323E+03  0.10778462868E+04  0.59983877470E+03 0.  0.
         23    2    4    4    0    0 -0.55091404598E+01 -0.25255106687E+01 -0.81029295888E+02  0.11596531090E+03  0.82737402113E+02 0.  0.
         23    2    4    4    0    0 -0.42821842232E+03 -0.33334035902E+03  0.78885736912E+03  0.96188097592E+03  0.91827288193E+02 0.  0.
          1    1    3    3  502    0  0.36292965921E+03  0.24985862957E+03  0.57113650994E+03  0.72134886518E+03  0.00000000000E+00 0. -1.
         -1    1    3    3    0  502  0.70797903570E+02  0.86007240125E+02  0.94137396542E+02  0.14584731033E+03  0.00000000000E+00 0.  1.
         11    1    5    5    0    0 -0.32010258562E+01 -0.41719564637E+02 -0.53933454544E+02  0.68261161425E+02  0.00000000000E+00 0. -1.
        -11    1    5    5    0    0 -0.23081146036E+01  0.39194053968E+02 -0.27095841344E+02  0.47704149480E+02  0.00000000000E+00 0.  1.
          1    1    6    6  503    0 -0.32980220316E+03 -0.23427068031E+03  0.51904380707E+03  0.65807197063E+03  0.00000000000E+00 0. -1.
         -1    1    6    6    0  503 -0.98416219157E+02 -0.99069678710E+02  0.26981356205E+03  0.30380900529E+03  0.00000000000E+00 0.  1.
<mgrwt>
<rscale>  0 0.58865393E+03</rscale>
<asrwt>0</asrwt>
<pdfrwt beam="1">  1        1 0.25524187E+00 0.58865393E+03</pdfrwt>
<pdfrwt beam="2">  1       -1 0.43995423E-01 0.58865393E+03</pdfrwt>
<totfact> 0.27491779E+01</totfact>
</mgrwt>
</event>
<event>
12    1  0.1444206E-007  0.1165071E+04  0.7818608E-02  0.9143991E-01
          1   -1    0    0  501    0  0.00000000000E+00  0.00000000000E+00  0.25044208051E+04  0.25044208051E+04  0.00000000000E+00 0. -1.
         -1   -1    0    0    0  501 -0.00000000000E+00 -0.00000000000E+00 -0.60982017145E+03  0.60982017145E+03  0.00000000000E+00 0.  1.
         23    2    1    2    0    0  0.11077044389E+04 -0.10467015851E+03  0.47488729569E+03  0.12133163722E+04  0.93025314903E+02 0.  0.
    5000000    2    1    2    0    0 -0.11077044389E+04  0.10467015851E+03  0.14197133379E+04  0.19009246043E+04  0.59996951873E+03 0.  0.
         23    2    4    4    0    0 -0.69180140529E+03 -0.16913061986E+03  0.10585585191E+04  0.12791008929E+04  0.91425406898E+02 0.  0.
         23    2    4    4    0    0 -0.41590303365E+03  0.27380077837E+03  0.36115481882E+03  0.62182371140E+03  0.91047928426E+02 0.  0.
          1    1    3    3  502    0  0.41043368362E+03  0.16110939565E+01  0.19635622280E+03  0.45498809930E+03  0.00000000000E+00 0. -1.
         -1    1    3    3    0  502  0.69727075532E+03 -0.10628125247E+03  0.27853107289E+03  0.75832827286E+03  0.00000000000E+00 0.  1.
         11    1    5    5    0    0 -0.46317208609E+03 -0.13492170451E+03  0.64695078354E+03  0.80701769746E+03  0.00000000000E+00 0.  1.
        -11    1    5    5    0    0 -0.22862931920E+03 -0.34208915347E+02  0.41160773556E+03  0.47208319548E+03  0.00000000000E+00 0. -1.
          4    1    6    6  503    0 -0.55836610243E+02  0.60285652745E+02  0.95710767542E+02  0.12614530508E+03  0.00000000000E+00 0. -1.
         -4    1    6    6    0  503 -0.36006642341E+03  0.21351512563E+03  0.26544405128E+03  0.49567840632E+03  0.00000000000E+00 0.  1.
<mgrwt>
<rscale>  0 0.11650712E+04</rscale>
<asrwt>0</asrwt>
<pdfrwt beam="1">  1        1 0.38529550E+00 0.11650712E+04</pdfrwt>
<pdfrwt beam="2">  1       -1 0.93818490E-01 0.11650712E+04</pdfrwt>
<totfact> 0.14743914E+00</totfact>
</mgrwt>
</event>
<event>
12    1  0.1444206E-007  0.6200030E+03  0.7818608E-02  0.9864754E-01
          1   -1    0    0  501    0  0.00000000000E+00  0.00000000000E+00  0.21127167448E+04  0.21127167448E+04  0.00000000000E+00 0. -1.
         -1   -1    0    0    0  501 -0.00000000000E+00 -0.00000000000E+00 -0.24415137387E+03  0.24415137387E+03  0.00000000000E+00 0.  1.
         23    2    1    2    0    0 -0.39717740998E+03 -0.41919688016E+03  0.58556548637E+03  0.82731864719E+03  0.89962691314E+02 0.  0.
    5000000    2    1    2    0    0  0.39717740998E+03  0.41919688016E+03  0.12829998846E+04  0.15295494715E+04  0.59996413444E+03 0.  0.
         23    2    4    4    0    0  0.38739559280E+03  0.21401754499E+03  0.35328245355E+03  0.57292592704E+03  0.86929689960E+02 0.  0.
         23    2    4    4    0    0  0.97818171813E+01  0.20517933516E+03  0.92971743104E+03  0.95662354448E+03  0.92519515504E+02 0.  0.
          2    1    3    3  502    0 -0.85330236517E+02 -0.13431606768E+03  0.19849342577E+03  0.25440458992E+03  0.00000000000E+00 0. -1.
         -2    1    3    3    0  502 -0.31184717346E+03 -0.28488081248E+03  0.38707206060E+03  0.57291405727E+03  0.00000000000E+00 0.  1.
         13    1    5    5    0    0  0.19559224071E+02  0.25717217223E+01 -0.16028415831E+01  0.19792576892E+02  0.00000000000E+00 0.  1.
        -13    1    5    5    0    0  0.36783636873E+03  0.21144582327E+03  0.35488529513E+03  0.55313335014E+03  0.00000000000E+00 0. -1.
          3    1    6    6  503    0 -0.26286967113E+02  0.79241933952E+02  0.22850605792E+03  0.24328030591E+03  0.00000000000E+00 0. -1.
         -3    1    6    6    0  503  0.36068784295E+02  0.12593740121E+03  0.70121137312E+03  0.71334323857E+03  0.00000000000E+00 0.  1.
<mgrwt>
<rscale>  0 0.62000296E+03</rscale>
<asrwt>0</asrwt>
<pdfrwt beam="1">  1        1 0.32503333E+00 0.62000296E+03</pdfrwt>
<pdfrwt beam="2">  1       -1 0.37561751E-01 0.62000296E+03</pdfrwt>
<totfact> 0.18176406E+01</totfact>
</mgrwt>
</event>
<event>
12    1  0.1444206E-007  0.4109336E+03  0.7818608E-02  0.1040058E+00
         -2   -1    0    0    0  501 -0.00000000000E+00  0.00000000000E+00  0.33211663277E+03  0.33211663277E+03  0.00000000000E+00 0.  1.
          2   -1    0    0  501    0  0.00000000000E+00 -0.00000000000E+00 -0.80449270344E+03  0.80449270344E+03  0.00000000000E+00 0. -1.
         23    2    1    2    0    0 -0.15835313593E+03  0.17812905660E+03  0.99571400527E+02  0.27410005783E+03  0.91709876421E+02 0.  0.
    5000000    2    1    2    0    0  0.15835313593E+03 -0.17812905660E+03 -0.57194747120E+03  0.86250927839E+03  0.59999389082E+03 0.  0.
         23    2    4    4    0    0  0.21320266941E+03  0.13540854560E+03 -0.41914019707E+03  0.49750274106E+03  0.89663928585E+02 0.  0.
         23    2    4    4    0    0 -0.54849533484E+02 -0.31353760220E+03 -0.15280727413E+03  0.36500653733E+03  0.92549499994E+02 0.  0.
          2    1    3    3  502    0 -0.25468078176E+02  0.69108698782E+02  0.66150731790E+02  0.98997750326E+02  0.00000000000E+00 0. -1.
         -2    1    3    3    0  502 -0.13288505775E+03  0.10902035782E+03  0.33420668737E+02  0.17510230750E+03  0.00000000000E+00 0.  1.
         13    1    5    5    0    0  0.83832935649E+02  0.84292248858E+02 -0.12713886673E+03  0.17406158609E+03  0.00000000000E+00 0.  1.
        -13    1    5    5    0    0  0.12936973376E+03  0.51116296740E+02 -0.29200133034E+03  0.32344115497E+03  0.00000000000E+00 0. -1.
          2    1    6    6  503    0 -0.35742663842E+02 -0.21899121340E+03 -0.15125157599E+03  0.26853627093E+03  0.00000000000E+00 0. -1.
         -2    1    6    6    0  503 -0.19106869642E+02 -0.94546388804E+02 -0.15556981400E+01  0.96470266404E+02  0.00000000000E+00 0.  1.
<mgrwt>
<rscale>  0 0.41093356E+03</rscale>
<asrwt>0</asrwt>
<pdfrwt beam="1">  1        2 0.12376811E+00 0.41093356E+03</pdfrwt>
<pdfrwt beam="2">  1       -2 0.51094867E-01 0.41093356E+03</pdfrwt>
<totfact> 0.12867359E+02</totfact>
</mgrwt>
</event>
<event>
12    1  0.1444206E-007  0.4042455E+03  0.7818608E-02  0.1042319E+00
          2   -1    0    0  501    0  0.00000000000E+00  0.00000000000E+00  0.93677237744E+03  0.93677237744E+03  0.00000000000E+00 0. -1.
         -2   -1    0    0    0  501 -0.00000000000E+00 -0.00000000000E+00 -0.38021352161E+03  0.38021352161E+03  0.00000000000E+00 0.  1.
         23    2    1    2    0    0 -0.22811036881E+03 -0.39987972178E+02  0.62254089339E+03  0.67049581094E+03  0.91510055555E+02 0.  0.
    5000000    2    1    2    0    0  0.22811036881E+03  0.39987972178E+02 -0.65982037557E+02  0.64649008811E+03  0.59996868791E+03 0.  0.
         23    2    4    4    0    0 -0.78263030029E+02 -0.15640499099E+03 -0.16496781990E+03  0.25735446109E+03  0.91811295430E+02 0.  0.
         23    2    4    4    0    0  0.30637339884E+03  0.19639296316E+03  0.98985782340E+02  0.38913562702E+03  0.95882718001E+02 0.  0.
          2    1    3    3  502    0 -0.50973343134E+02 -0.49964274909E+02  0.16614390076E+03  0.18082728289E+03  0.00000000000E+00 0. -1.
         -2    1    3    3    0  502 -0.17713702568E+03  0.99763027304E+01  0.45639699263E+03  0.48966852805E+03  0.00000000000E+00 0.  1.
         11    1    5    5    0    0 -0.49400669788E+02 -0.15255392415E+02 -0.29130190867E+02  0.59344091477E+02  0.00000000000E+00 0.  1.
        -11    1    5    5    0    0 -0.28862360241E+02 -0.14114959857E+03 -0.13583762903E+03  0.19801036962E+03  0.00000000000E+00 0. -1.
          2    1    6    6  503    0  0.27220307315E+03  0.17362671408E+03  0.11817748055E+03  0.34381196283E+03  0.00000000000E+00 0. -1.
         -2    1    6    6    0  503  0.34170325688E+02  0.22766249085E+02 -0.19191698213E+02  0.45323664186E+02  0.00000000000E+00 0.  1.
<mgrwt>
<rscale>  0 0.40424552E+03</rscale>
<asrwt>0</asrwt>
<pdfrwt beam="1">  1        2 0.14411883E+00 0.40424552E+03</pdfrwt>
<pdfrwt beam="2">  1       -2 0.58494388E-01 0.40424552E+03</pdfrwt>
<totfact> 0.79500919E+01</totfact>
</mgrwt>
</event>
<event>
12    1  0.1444206E-007  0.5616165E+03  0.7818608E-02  0.9988404E-01
         -1   -1    0    0    0  501 -0.00000000000E+00  0.00000000000E+00  0.17243212086E+04  0.17243212086E+04  0.00000000000E+00 0.  1.
          1   -1    0    0  501    0  0.00000000000E+00 -0.00000000000E+00 -0.10581876502E+04  0.10581876502E+04  0.00000000000E+00 0. -1.
         23    2    1    2    0    0 -0.34633163662E+03  0.43653034835E+03 -0.87257491617E+03  0.10395168656E+04  0.93295133838E+02 0.  0.
    5000000    2    1    2    0    0  0.34633163662E+03 -0.43653034835E+03  0.15387084746E+04  0.17429919932E+04  0.59991080252E+03 0.  0.
         23    2    4    4    0    0  0.29484110550E+03 -0.38722852394E+03  0.15486404004E+04  0.16258358484E+04  0.90431793260E+02 0.  0.
         23    2    4    4    0    0  0.51490531120E+02 -0.49301824403E+02 -0.99319257589E+01  0.11715614474E+03  0.92439030812E+02 0.  0.
          2    1    3    3  502    0 -0.19351667736E+03  0.21642882597E+03 -0.53315381724E+03  0.60707753538E+03  0.00000000000E+00 0. -1.
         -2    1    3    3    0  502 -0.15281495926E+03  0.22010152238E+03 -0.33942109893E+03  0.43243933023E+03  0.00000000000E+00 0.  1.
         11    1    5    5    0    0  0.16983102279E+03 -0.23844427843E+03  0.78350731392E+03  0.83641016325E+03  0.00000000000E+00 0. -1.
        -11    1    5    5    0    0  0.12501008271E+03 -0.14878424551E+03  0.76513308644E+03  0.78942568520E+03  0.00000000000E+00 0.  1.
          2    1    6    6  503    0  0.20361302363E+02 -0.40823306659E+02  0.38003153325E+02  0.59374781373E+02  0.00000000000E+00 0. -1.
         -2    1    6    6    0  503  0.31129228757E+02 -0.84785177440E+01 -0.47935079084E+02  0.57781363370E+02  0.00000000000E+00 0.  1.
<mgrwt>
<rscale>  0 0.56161647E+03</rscale>
<asrwt>0</asrwt>
<pdfrwt beam="1">  1        1 0.16279810E+00 0.56161647E+03</pdfrwt>
<pdfrwt beam="2">  1       -1 0.26528018E+00 0.56161647E+03</pdfrwt>
<totfact> 0.83533550E-01</totfact>
</mgrwt>
</event>
<event>
12    1  0.1444206E-007  0.4853371E+03  0.7818608E-02  0.1017679E+00
         -2   -1    0    0    0  501 -0.00000000000E+00  0.00000000000E+00  0.31255668175E+03  0.31255668175E+03  0.00000000000E+00 0.  1.
          2   -1    0    0  501    0  0.00000000000E+00 -0.00000000000E+00 -0.94896775211E+03  0.94896775211E+03  0.00000000000E+00 0. -1.
         23    2    1    2    0    0  0.30577624365E+03 -0.21112478380E+03 -0.20073711852E+03  0.43210492737E+03  0.91359137424E+02 0.  0.
    5000000    2    1    2    0    0 -0.30577624365E+03  0.21112478380E+03 -0.43567395184E+03  0.82941950649E+03  0.60004344835E+03 0.  0.
         23    2    4    4    0    0 -0.33915433819E+03 -0.99344325911E+01 -0.24162760734E+02  0.35243892072E+03  0.92222533948E+02 0.  0.
         23    2    4    4    0    0  0.33378094538E+02  0.22105921639E+03 -0.41151119111E+03  0.47698058576E+03  0.90486156086E+02 0.  0.
          1    1    3    3  502    0  0.19295529653E+03 -0.17276927593E+03 -0.16731969288E+03  0.30834534015E+03  0.00000000000E+00 0. -1.
         -1    1    3    3    0  502  0.11282094712E+03 -0.38355507866E+02 -0.33417425636E+02  0.12375958722E+03  0.00000000000E+00 0.  1.
         11    1    5    5    0    0 -0.10700306529E+03  0.39843713686E+02 -0.82694632739E+01  0.11447952447E+03  0.00000000000E+00 0.  1.
        -11    1    5    5    0    0 -0.23215127290E+03 -0.49778146277E+02 -0.15893297460E+02  0.23795939625E+03  0.00000000000E+00 0. -1.
          3    1    6    6  503    0  0.41315355375E+02  0.33538296947E+02 -0.81641948793E+02  0.97453495343E+02  0.00000000000E+00 0. -1.
         -3    1    6    6    0  503 -0.79372608372E+01  0.18752091944E+03 -0.32986924232E+03  0.37952709042E+03  0.00000000000E+00 0.  1.
<mgrwt>
<rscale>  0 0.48533712E+03</rscale>
<asrwt>0</asrwt>
<pdfrwt beam="1">  1        2 0.14599504E+00 0.48533712E+03</pdfrwt>
<pdfrwt beam="2">  1       -2 0.48085644E-01 0.48533712E+03</pdfrwt>
<totfact> 0.11538512E+02</totfact>
</mgrwt>
</event>
<event>
12    1  0.1444206E-007  0.5123801E+03  0.7818608E-02  0.1010597E+00
          1   -1    0    0  501    0  0.00000000000E+00  0.00000000000E+00  0.12335178492E+04  0.12335178492E+04  0.00000000000E+00 0. -1.
         -1   -1    0    0    0  501 -0.00000000000E+00 -0.00000000000E+00 -0.23844716656E+03  0.23844716656E+03  0.00000000000E+00 0.  1.
         23    2    1    2    0    0  0.35416917736E+03  0.72592775796E+02  0.44730752785E+03  0.58277061037E+03  0.93978947364E+02 0.  0.
    5000000    2    1    2    0    0 -0.35416917736E+03 -0.72592775796E+02  0.54776315475E+03  0.88919440535E+03  0.59993057891E+03 0.  0.
         23    2    4    4    0    0 -0.14806679142E+03  0.23549756156E+03  0.36035443288E+03  0.46421738732E+03  0.90882281970E+02 0.  0.
         23    2    4    4    0    0 -0.20610238595E+03 -0.30809033735E+03  0.18740872187E+03  0.42497701802E+03  0.89919894089E+02 0.  0.
          1    1    3    3  502    0  0.17215779265E+03  0.66077378051E+01  0.15254215948E+03  0.23011101275E+03  0.00000000000E+00 0. -1.
         -1    1    3    3    0  502  0.18201138471E+03  0.65985037991E+02  0.29476536837E+03  0.35265959762E+03  0.00000000000E+00 0.  1.
         13    1    5    5    0    0 -0.45178954970E+01  0.50876613515E+02  0.29273355541E+02  0.58870795197E+02  0.00000000000E+00 0. -1.
        -13    1    5    5    0    0 -0.14354889592E+03  0.18462094804E+03  0.33108107734E+03  0.40534659213E+03  0.00000000000E+00 0.  1.
          1    1    6    6  503    0 -0.66118968371E+02 -0.14258009630E+03  0.37964460378E+02  0.16168519441E+03  0.00000000000E+00 0. -1.
         -1    1    6    6    0  503 -0.13998341757E+03 -0.16551024105E+03  0.14944426149E+03  0.26329182361E+03  0.00000000000E+00 0.  1.
<mgrwt>
<rscale>  0 0.51238015E+03</rscale>
<asrwt>0</asrwt>
<pdfrwt beam="1">  1        1 0.18977197E+00 0.51238015E+03</pdfrwt>
<pdfrwt beam="2">  1       -1 0.36684180E-01 0.51238015E+03</pdfrwt>
<totfact> 0.75661841E+01</totfact>
</mgrwt>
</event>
<event>
12    1  0.1444206E-007  0.2433604E+04  0.7818608E-02  0.8427029E-01
         -2   -1    0    0    0  501 -0.00000000000E+00  0.00000000000E+00  0.28962999443E+04  0.28962999443E+04  0.00000000000E+00 0.  1.
          2   -1    0    0  501    0  0.00000000000E+00 -0.00000000000E+00 -0.21389863207E+04  0.21389863207E+04  0.00000000000E+00 0. -1.
         23    2    1    2    0    0 -0.15699888717E+04 -0.18191083595E+04  0.86685970060E+03  0.25561574069E+04  0.92057956517E+02 0.  0.
    5000000    2    1    2    0    0  0.15699888717E+04  0.18191083595E+04 -0.10954607698E+03  0.24791288580E+04  0.60004939033E+03 0.  0.
         23    2    4    4    0    0  0.78858462695E+03  0.53110016536E+03  0.76907234130E+02  0.95835913662E+03  0.92759972844E+02 0.  0.
         23    2    4    4    0    0  0.78140424478E+03  0.12880081941E+04 -0.18645331111E+03  0.15207697214E+04  0.91749694575E+02 0.  0.
          3    1    3    3  502    0 -0.51785082819E+03 -0.66646786790E+03  0.31143161333E+03  0.89963245216E+03  0.00000000000E+00 0. -1.
         -3    1    3    3    0  502 -0.10521380435E+04 -0.11526404916E+04  0.55542808727E+03  0.16565249547E+04  0.00000000000E+00 0.  1.
         13    1    5    5    0    0  0.19428987404E+03  0.84660339240E+02  0.20453341578E+02  0.21291845241E+03  0.00000000000E+00 0.  1.
        -13    1    5    5    0    0  0.59429475291E+03  0.44643982612E+03  0.56453892552E+02  0.74544068421E+03  0.00000000000E+00 0. -1.
          1    1    6    6  503    0  0.55132646163E+03  0.95154063117E+03 -0.10146802205E+03  0.11043940418E+04  0.00000000000E+00 0. -1.
         -1    1    6    6    0  503  0.23007778315E+03  0.33646756297E+03 -0.84985289060E+02  0.41637567963E+03  0.00000000000E+00 0.  1.
<mgrwt>
<rscale>  0 0.24336037E+04</rscale>
<asrwt>0</asrwt>
<pdfrwt beam="1">  1        2 0.32907482E+00 0.24336037E+04</pdfrwt>
<pdfrwt beam="2">  1       -2 0.44558461E+00 0.24336037E+04</pdfrwt>
<totfact> 0.17543319E-02</totfact>
</mgrwt>
</event>
<event>
12    1  0.1444206E-007  0.7227666E+03  0.7818608E-02  0.9679071E-01
         -2   -1    0    0    0  501 -0.00000000000E+00  0.00000000000E+00  0.47957022821E+03  0.47957022821E+03  0.00000000000E+00 0.  1.
          2   -1    0    0  501    0  0.00000000000E+00 -0.00000000000E+00 -0.16663540130E+04  0.16663540130E+04  0.00000000000E+00 0. -1.
         23    2    1    2    0    0 -0.39853504460E+03 -0.52373302555E+03 -0.10534195675E+04  0.12454656407E+04  0.91462632679E+02 0.  0.
    5000000    2    1    2    0    0  0.39853504460E+03  0.52373302555E+03 -0.13336421736E+03  0.90045860056E+03  0.59992767316E+03 0.  0.
         23    2    4    4    0    0  0.11477486179E+01 -0.39963193346E+02  0.12211895613E+03  0.15954583465E+03  0.94569867077E+02 0.  0.
         23    2    4    4    0    0  0.39738729598E+03  0.56369621890E+03 -0.25548317349E+03  0.74091276591E+03  0.89498516959E+02 0.  0.
          3    1    3    3  502    0 -0.87362784703E+02 -0.79363167587E+02 -0.14018440428E+03  0.18325511104E+03  0.00000000000E+00 0. -1.
         -3    1    3    3    0  502 -0.31117225989E+03 -0.44436985797E+03 -0.91323516320E+03  0.10622105297E+04  0.00000000000E+00 0.  1.
         11    1    5    5    0    0  0.12736588436E+02 -0.63024303926E+02  0.45695477268E+02  0.78881938446E+02  0.00000000000E+00 0.  1.
        -11    1    5    5    0    0 -0.11588839819E+02  0.23061110579E+02  0.76423478865E+02  0.80663896207E+02  0.00000000000E+00 0. -1.
          3    1    6    6  503    0  0.68689864324E+02  0.16137649367E+03 -0.51645520670E+02  0.18283306587E+03  0.00000000000E+00 0. -1.
         -3    1    6    6    0  503  0.32869743165E+03  0.40231972523E+03 -0.20383765282E+03  0.55807970004E+03  0.00000000000E+00 0.  1.
<mgrwt>
<rscale>  0 0.72276655E+03</rscale>
<asrwt>0</asrwt>
<pdfrwt beam="1">  1        2 0.25636216E+00 0.72276655E+03</pdfrwt>
<pdfrwt beam="2">  1       -2 0.73780034E-01 0.72276655E+03</pdfrwt>
<totfact> 0.17481173E+01</totfact>
</mgrwt>
</event>
<event>
12    1  0.1444206E-007  0.5799427E+03  0.7818608E-02  0.9947915E-01
          1   -1    0    0  501    0  0.00000000000E+00  0.00000000000E+00  0.11118891723E+04  0.11118891723E+04  0.00000000000E+00 0. -1.
         -1   -1    0    0    0  501 -0.00000000000E+00 -0.00000000000E+00 -0.39045947293E+03  0.39045947293E+03  0.00000000000E+00 0.  1.
         23    2    1    2    0    0  0.29726738851E+03 -0.33300964472E+03  0.58624205810E+03  0.74237472958E+03  0.90427676545E+02 0.  0.
    5000000    2    1    2    0    0 -0.29726738851E+03  0.33300964472E+03  0.13518764129E+03  0.75997391567E+03  0.60001777506E+03 0.  0.
         23    2    4    4    0    0 -0.95622696903E+02  0.45826200529E+03  0.10348821873E+02  0.47669332453E+03  0.89340147080E+02 0.  0.
         23    2    4    4    0    0 -0.20164469161E+03 -0.12525236057E+03  0.12483881942E+03  0.28328059114E+03  0.91183479865E+02 0.  0.
          1    1    3    3  502    0  0.14663700312E+03 -0.21962616144E+03  0.30060827029E+03  0.40012922118E+03  0.00000000000E+00 0. -1.
         -1    1    3    3    0  502  0.15063038539E+03 -0.11338348328E+03  0.28563378781E+03  0.34224550841E+03  0.00000000000E+00 0.  1.
         13    1    5    5    0    0 -0.42656689439E+02  0.18201304368E+03 -0.39387949691E+02  0.19104908218E+03  0.00000000000E+00 0. -1.
        -13    1    5    5    0    0 -0.52966007465E+02  0.27624896161E+03  0.49736771564E+02  0.28564424234E+03  0.00000000000E+00 0.  1.
          4    1    6    6  503    0 -0.83419074247E+02 -0.35725037271E+02  0.20891449904E+01  0.90771056857E+02  0.00000000000E+00 0. -1.
         -4    1    6    6    0  503 -0.11822561736E+03 -0.89527323295E+02  0.12274967443E+03  0.19250953428E+03  0.00000000000E+00 0.  1.
<mgrwt>
<rscale>  0 0.57994269E+03</rscale>
<asrwt>0</asrwt>
<pdfrwt beam="1">  1        1 0.17105987E+00 0.57994269E+03</pdfrwt>
<pdfrwt beam="2">  1       -1 0.60070688E-01 0.57994269E+03</pdfrwt>
<totfact> 0.36605978E+01</totfact>
</mgrwt>
</event>
<event>
12    1  0.1444206E-007  0.3334353E+03  0.7818608E-02  0.1069627E+00
         -2   -1    0    0    0  501 -0.00000000000E+00  0.00000000000E+00  0.19874655359E+03  0.19874655359E+03  0.00000000000E+00 0. -1.
          2   -1    0    0  501    0  0.00000000000E+00 -0.00000000000E+00 -0.13294065651E+04  0.13294065651E+04  0.00000000000E+00 0.  1.
         23    2    1    2    0    0 -0.28808923869E+03  0.14489855657E+03 -0.26508441256E+03  0.42747738889E+03  0.92066123446E+02 0.  0.
    5000000    2    1    2    0    0  0.28808923869E+03 -0.14489855657E+03 -0.86557559894E+03  0.11006757298E+04  0.59856072669E+03 0.  0.
         23    2    4    4    0    0  0.19748003711E+03 -0.12430758277E+03 -0.27525680038E+02  0.25260703086E+03  0.92746475867E+02 0.  0.
         23    2    4    4    0    0  0.90609201578E+02 -0.20590973797E+02 -0.83804991890E+03  0.84806869893E+03  0.90878137796E+02 0.  0.
          1    1    3    3  502    0 -0.25197599000E+02  0.41878057234E+02 -0.65407586349E+02  0.81650738056E+02  0.00000000000E+00 0. -1.
         -1    1    3    3    0  502 -0.26289163969E+03  0.10302049933E+03 -0.19967682621E+03  0.34582665083E+03  0.00000000000E+00 0.  1.
         11    1    5    5    0    0  0.13763869772E+03 -0.11605953377E+03 -0.52048522111E+02  0.18741204642E+03  0.00000000000E+00 0.  1.
        -11    1    5    5    0    0  0.59841339398E+02 -0.82480489976E+01  0.24522842073E+02  0.65194984443E+02  0.00000000000E+00 0. -1.
          2    1    6    6  503    0  0.16956997017E+02  0.42200598633E+01 -0.53259370568E+03  0.53288029048E+03  0.00000000000E+00 0. -1.
         -2    1    6    6    0  503  0.73652204561E+02 -0.24811033660E+02 -0.30545621322E+03  0.31518840846E+03  0.00000000000E+00 0.  1.
<mgrwt>
<rscale>  0 0.33343529E+03</rscale>
<asrwt>0</asrwt>
<pdfrwt beam="1">  1        2 0.20452409E+00 0.33343529E+03</pdfrwt>
<pdfrwt beam="2">  1       -2 0.30576393E-01 0.33343529E+03</pdfrwt>
<totfact> 0.16673640E+02</totfact>
</mgrwt>
</event>
<event>
12    1  0.1444206E-007  0.1100860E+04  0.7818608E-02  0.9204354E-01
          1   -1    0    0  501    0  0.00000000000E+00  0.00000000000E+00  0.17742848512E+04  0.17742848512E+04  0.00000000000E+00 0. -1.
         -1   -1    0    0    0  501 -0.00000000000E+00 -0.00000000000E+00 -0.69093426616E+03  0.69093426616E+03  0.00000000000E+00 0.  1.
         23    2    1    2    0    0 -0.10183956574E+04 -0.88903889161E+02  0.56513930481E+03  0.11715257102E+04  0.89757669865E+02 0.  0.
    5000000    2    1    2    0    0  0.10183956574E+04  0.88903889161E+02  0.51821128019E+03  0.12936934071E+04  0.60005506757E+03 0.  0.
         23    2    4    4    0    0  0.33211051160E+03  0.30515283129E+03  0.17783672003E+03  0.49318878791E+03  0.90518722719E+02 0.  0.
         23    2    4    4    0    0  0.68628514581E+03 -0.21624894213E+03  0.34037456016E+03  0.80050461920E+03  0.84863995982E+02 0.  0.
          3    1    3    3  502    0 -0.45798465763E+03  0.48000608153E+01  0.25305704259E+03  0.52326938952E+03  0.00000000000E+00 0. -1.
         -3    1    3    3    0  502 -0.56041099979E+03 -0.93703949976E+02  0.31208226222E+03  0.64825632069E+03  0.00000000000E+00 0.  1.
         13    1    5    5    0    0  0.22968912560E+03  0.22008966509E+03  0.16783855804E+03  0.35967532117E+03  0.00000000000E+00 0.  1.
        -13    1    5    5    0    0  0.10242138601E+03  0.85063166205E+02  0.99981619913E+01  0.13351346674E+03  0.00000000000E+00 0. -1.
          2    1    6    6  503    0  0.49159587353E+03 -0.19328256638E+03  0.23849046222E+03  0.57957083597E+03  0.00000000000E+00 0. -1.
         -2    1    6    6    0  503  0.19468927229E+03 -0.22966375754E+02  0.10188409795E+03  0.22093378323E+03  0.00000000000E+00 0.  1.
<mgrwt>
<rscale>  0 0.11008602E+04</rscale>
<asrwt>0</asrwt>
<pdfrwt beam="1">  1        1 0.27296690E+00 0.11008602E+04</pdfrwt>
<pdfrwt beam="2">  1       -1 0.10629758E+00 0.11008602E+04</pdfrwt>
<totfact> 0.34937163E+00</totfact>
</mgrwt>
</event>
<event>
12    1  0.1444206E-007  0.1832619E+04  0.7818608E-02  0.8689143E-01
         -1   -1    0    0    0  501 -0.00000000000E+00  0.00000000000E+00  0.14143392121E+04  0.14143392121E+04  0.00000000000E+00 0.  1.
          1   -1    0    0  501    0  0.00000000000E+00 -0.00000000000E+00 -0.24594823747E+04  0.24594823747E+04  0.00000000000E+00 0. -1.
         23    2    1    2    0    0  0.23836344423E+03 -0.17966385444E+04 -0.62443702817E+03  0.19188901440E+04  0.86548205330E+02 0.  0.
    5000000    2    1    2    0    0 -0.23836344423E+03  0.17966385444E+04 -0.42070613443E+03  0.19549314427E+04  0.60003008555E+03 0.  0.
         23    2    4    4    0    0  0.87019841177E+02  0.16929199922E+03 -0.17601506464E+03  0.27486327388E+03  0.91303245216E+02 0.  0.
         23    2    4    4    0    0 -0.32538328541E+03  0.16273465452E+04 -0.24469106978E+03  0.16800681689E+04  0.92866958174E+02 0.  0.
          2    1    3    3  502    0  0.45270551872E+02 -0.44736166512E+03 -0.19188657598E+03  0.48887865604E+03  0.00000000000E+00 0. -1.
         -2    1    3    3    0  502  0.19309289236E+03 -0.13492768793E+04 -0.43255045219E+03  0.14300114880E+04  0.00000000000E+00 0.  1.
         11    1    5    5    0    0  0.84264451642E+01  0.45424322374E+02 -0.98839774365E+02  0.10910396435E+03  0.00000000000E+00 0. -1.
        -11    1    5    5    0    0  0.78593396012E+02  0.12386767685E+03 -0.77175290279E+02  0.16575930953E+03  0.00000000000E+00 0.  1.
          4    1    6    6  503    0 -0.14209180731E+03  0.76001074946E+03 -0.15980884799E+03  0.78952219025E+03  0.00000000000E+00 0. -1.
         -4    1    6    6    0  503 -0.18329147810E+03  0.86733579570E+03 -0.84882221797E+02  0.89054597861E+03  0.00000000000E+00 0.  1.
<mgrwt>
<rscale>  0 0.18326187E+04</rscale>
<asrwt>0</asrwt>
<pdfrwt beam="1">  1        1 0.37838190E+00 0.18326187E+04</pdfrwt>
<pdfrwt beam="2">  1       -1 0.21759065E+00 0.18326187E+04</pdfrwt>
<totfact> 0.15019179E-01</totfact>
</mgrwt>
</event>
<event>
12    1  0.1444206E-007  0.7960609E+03  0.7818608E-02  0.9565736E-01
          3   -1    0    0  501    0  0.00000000000E+00  0.00000000000E+00  0.79322919240E+03  0.79322919240E+03  0.00000000000E+00 0. -1.
         -3   -1    0    0    0  501 -0.00000000000E+00 -0.00000000000E+00 -0.11337813816E+04  0.11337813816E+04  0.00000000000E+00 0.  1.
         23    2    1    2    0    0  0.64256801768E+03 -0.45451048774E+03  0.17444241223E+03  0.81135426745E+03  0.91608685767E+02 0.  0.
    5000000    2    1    2    0    0 -0.64256801768E+03  0.45451048774E+03 -0.51499460143E+03  0.11156563066E+04  0.59999676169E+03 0.  0.
         23    2    4    4    0    0 -0.21977278483E+03  0.11163194182E+03 -0.49870217579E+03  0.56336751727E+03  0.88979390797E+02 0.  0.
         23    2    4    4    0    0 -0.42279523285E+03  0.34287854591E+03 -0.16292425644E+02  0.55228878929E+03  0.91847468507E+02 0.  0.
          3    1    3    3  502    0  0.14252066605E+03 -0.14568169715E+03  0.61448724982E+02  0.21286437686E+03  0.00000000000E+00 0. -1.
         -3    1    3    3    0  502  0.50004735164E+03 -0.30882879058E+03  0.11299368724E+03  0.59848989058E+03  0.00000000000E+00 0.  1.
         11    1    5    5    0    0 -0.22922653963E+02  0.28548364817E+02 -0.15005618701E+03  0.15445813821E+03  0.00000000000E+00 0.  1.
        -11    1    5    5    0    0 -0.19685013087E+03  0.83083577007E+02 -0.34864598878E+03  0.40890937906E+03  0.00000000000E+00 0. -1.
          3    1    6    6  503    0 -0.18319365366E+03  0.20056613717E+03  0.13817960196E+02  0.27198828310E+03  0.00000000000E+00 0. -1.
         -3    1    6    6    0  503 -0.23960157919E+03  0.14231240874E+03 -0.30110385840E+02  0.28030050619E+03  0.00000000000E+00 0.  1.
<mgrwt>
<rscale>  0 0.79606094E+03</rscale>
<asrwt>0</asrwt>
<pdfrwt beam="1">  1        3 0.12203526E+00 0.79606094E+03</pdfrwt>
<pdfrwt beam="2">  1       -3 0.17442791E+00 0.79606094E+03</pdfrwt>
<totfact> 0.30250522E-01</totfact>
</mgrwt>
</event>
<event>
12    1  0.1444206E-007  0.5274781E+03  0.7818608E-02  0.1006846E+00
         -2   -1    0    0    0  501 -0.00000000000E+00  0.00000000000E+00  0.47372728053E+03  0.47372728053E+03  0.00000000000E+00 0.  1.
          2   -1    0    0  501    0  0.00000000000E+00 -0.00000000000E+00 -0.71119890325E+03  0.71119890325E+03  0.00000000000E+00 0. -1.
         23    2    1    2    0    0 -0.39984942753E+03  0.12173854310E+03 -0.56680304967E+02  0.43169111651E+03  0.91895187762E+02 0.  0.
    5000000    2    1    2    0    0  0.39984942753E+03 -0.12173854310E+03 -0.18079131776E+03  0.75323506726E+03  0.59998144005E+03 0.  0.
         23    2    4    4    0    0  0.99117646376E+01 -0.22566290774E+03 -0.23161296092E+03  0.33647881057E+03  0.92473970891E+02 0.  0.
         23    2    4    4    0    0  0.38993766289E+03  0.10392436464E+03  0.50821643165E+02  0.41675625669E+03  0.90836576157E+02 0.  0.
          3    1    3    3  502    0 -0.92970514903E+02  0.62922817414E+02 -0.38567099387E+02  0.11870222722E+03  0.00000000000E+00 0. -1.
         -3    1    3    3    0  502 -0.30687891263E+03  0.58815725685E+02 -0.18113205580E+02  0.31298888929E+03  0.00000000000E+00 0.  1.
         13    1    5    5    0    0  0.30625748618E+01 -0.18195791865E+02 -0.72835849150E+02  0.75136722898E+02  0.00000000000E+00 0.  1.
        -13    1    5    5    0    0  0.68491897759E+01 -0.20746711587E+03 -0.15877711177E+03  0.26134208768E+03  0.00000000000E+00 0. -1.
          4    1    6    6  503    0  0.23053204425E+03  0.73055289461E+02  0.73638591041E+02  0.25279387025E+03  0.00000000000E+00 0. -1.
         -4    1    6    6    0  503  0.15940561864E+03  0.30869075176E+02 -0.22816947876E+02  0.16396238644E+03  0.00000000000E+00 0.  1.
<mgrwt>
<rscale>  0 0.52747806E+03</rscale>
<asrwt>0</asrwt>
<pdfrwt beam="1">  1        2 0.10941522E+00 0.52747806E+03</pdfrwt>
<pdfrwt beam="2">  1       -2 0.72881120E-01 0.52747806E+03</pdfrwt>
<totfact> 0.70447030E+01</totfact>
</mgrwt>
</event>
<event>
12    1  0.1444206E-007  0.1054102E+04  0.7818608E-02  0.9251119E-01
          2   -1    0    0  501    0  0.00000000000E+00  0.00000000000E+00  0.22169804641E+04  0.22169804641E+04  0.00000000000E+00 0. -1.
         -2   -1    0    0    0  501 -0.00000000000E+00 -0.00000000000E+00 -0.81209332966E+03  0.81209332966E+03  0.00000000000E+00 0.  1.
         23    2    1    2    0    0  0.96336194211E+03 -0.10892644613E+03  0.15991275280E+04  0.18722401207E+04  0.90238663514E+02 0.  0.
    5000000    2    1    2    0    0 -0.96336194211E+03  0.10892644613E+03 -0.19424039362E+03  0.11568336731E+04  0.60050280136E+03 0.  0.
         23    2    4    4    0    0 -0.67064761256E+02  0.20215280363E+03 -0.80686697466E+01  0.23210108947E+03  0.91882392693E+02 0.  0.
         23    2    4    4    0    0 -0.89629718085E+03 -0.93226357496E+02 -0.18617172387E+03  0.92473258359E+03  0.91818572408E+02 0.  0.
          1    1    3    3  502    0  0.79283493626E+02  0.13988222159E+02  0.15126979018E+03  0.17135954056E+03  0.00000000000E+00 0. -1.
         -1    1    3    3    0  502  0.88407844848E+03 -0.12291466829E+03  0.14478577378E+04  0.17008805801E+04  0.00000000000E+00 0.  1.
         13    1    5    5    0    0  0.15043058841E+02  0.97407630059E+02  0.24706456553E+01  0.98593326869E+02  0.00000000000E+00 0. -1.
        -13    1    5    5    0    0 -0.82107820097E+02  0.10474517357E+03 -0.10539315402E+02  0.13350776260E+03  0.00000000000E+00 0.  1.
          2    1    6    6  503    0 -0.55117522820E+03 -0.88990190651E+02 -0.14719754087E+03  0.57739111723E+03  0.00000000000E+00 0. -1.
         -2    1    6    6    0  503 -0.34512195265E+03 -0.42361668450E+01 -0.38974183003E+02  0.34734146636E+03  0.00000000000E+00 0.  1.
<mgrwt>
<rscale>  0 0.10541022E+04</rscale>
<asrwt>0</asrwt>
<pdfrwt beam="1">  1        2 0.34107392E+00 0.10541022E+04</pdfrwt>
<pdfrwt beam="2">  1       -2 0.12493744E+00 0.10541022E+04</pdfrwt>
<totfact> 0.24120753E+00</totfact>
</mgrwt>
</event>
<event>
12    1  0.1444206E-007  0.7193846E+03  0.7818608E-02  0.9684644E-01
          2   -1    0    0  501    0  0.00000000000E+00  0.00000000000E+00  0.27171101863E+04  0.27171101863E+04  0.00000000000E+00 0. -1.
         -2   -1    0    0    0  501 -0.00000000000E+00 -0.00000000000E+00 -0.20880762103E+03  0.20880762103E+03  0.00000000000E+00 0.  1.
         23    2    1    2    0    0  0.56820682342E+03 -0.17828138294E+03  0.14588235911E+04  0.15783074670E+04  0.90801678036E+02 0.  0.
    5000000    2    1    2    0    0 -0.56820682342E+03  0.17828138294E+03  0.10494789742E+04  0.13476103404E+04  0.60000355540E+03 0.  0.
         23    2    4    4    0    0 -0.54434400341E+03  0.34616151058E+03  0.84319617617E+03  0.10655620072E+04  0.91128559018E+02 0.  0.
         23    2    4    4    0    0 -0.23862820015E+02 -0.16788012764E+03  0.20628279803E+03  0.28204833315E+03  0.90804724727E+02 0.  0.
          2    1    3    3  502    0  0.43123015822E+03 -0.98883329514E+02  0.11240156829E+04  0.12079522414E+04  0.00000000000E+00 0.  1.
         -2    1    3    3    0  502  0.13697666521E+03 -0.79398053422E+02  0.33480790826E+03  0.37035522561E+03  0.00000000000E+00 0. -1.
         11    1    5    5    0    0 -0.29464966366E+03  0.15060129329E+03  0.48499399827E+03  0.58712720274E+03  0.00000000000E+00 0.  1.
        -11    1    5    5    0    0 -0.24969433974E+03  0.19556021729E+03  0.35820217790E+03  0.47843480448E+03  0.00000000000E+00 0. -1.
          1    1    6    6  503    0  0.28776264760E+02 -0.26600479010E+02  0.62128237439E+02  0.73454589947E+02  0.00000000000E+00 0. -1.
         -1    1    6    6    0  503 -0.52639084775E+02 -0.14127964863E+03  0.14415456059E+03  0.20859374320E+03  0.00000000000E+00 0.  1.
<mgrwt>
<rscale>  0 0.71938456E+03</rscale>
<asrwt>0</asrwt>
<pdfrwt beam="1">  1        2 0.41801693E+00 0.71938456E+03</pdfrwt>
<pdfrwt beam="2">  1       -2 0.32124251E-01 0.71938456E+03</pdfrwt>
<totfact> 0.24675731E+01</totfact>
</mgrwt>
</event>
<event>
12    1  0.1444206E-007  0.9181967E+03  0.7818608E-02  0.9403116E-01
         -1   -1    0    0    0  501 -0.00000000000E+00  0.00000000000E+00  0.95705467543E+03  0.95705467543E+03  0.00000000000E+00 0.  1.
          1   -1    0    0  501    0  0.00000000000E+00 -0.00000000000E+00 -0.11021808311E+04  0.11021808311E+04  0.00000000000E+00 0. -1.
         23    2    1    2    0    0 -0.81811436053E+03  0.37643610671E+03  0.19344690012E+03  0.92539075654E+03  0.88944363408E+02 0.  0.
    5000000    2    1    2    0    0  0.81811436053E+03 -0.37643610671E+03 -0.33857305579E+03  0.11338447500E+04  0.59996412696E+03 0.  0.
         23    2    4    4    0    0  0.59396910210E+03 -0.34568747236E+03 -0.48830051761E+03  0.84796457446E+03  0.91144946345E+02 0.  0.
         23    2    4    4    0    0  0.22414525843E+03 -0.30748634348E+02  0.14972746182E+03  0.28588017553E+03  0.90125393465E+02 0.  0.
          2    1    3    3  502    0 -0.27209095643E+03  0.80462983644E+02  0.67823403169E+02  0.29173240191E+03  0.00000000000E+00 0. -1.
         -2    1    3    3    0  502 -0.54602340409E+03  0.29597312307E+03  0.12562349695E+03  0.63365835462E+03  0.00000000000E+00 0.  1.
         11    1    5    5    0    0  0.33274527086E+03 -0.24537883392E+03 -0.29125947098E+03  0.50572944037E+03  0.00000000000E+00 0. -1.
        -11    1    5    5    0    0  0.26122383123E+03 -0.10030863845E+03 -0.19704104663E+03  0.34223513409E+03  0.00000000000E+00 0.  1.
          1    1    6    6  503    0  0.13053429623E+03 -0.54946941101E+02  0.59453799861E+02  0.15360053107E+03  0.00000000000E+00 0. -1.
         -1    1    6    6    0  503  0.93610962199E+02  0.24198306753E+02  0.90273661959E+02  0.13227964445E+03  0.00000000000E+00 0.  1.
<mgrwt>
<rscale>  0 0.91819672E+03</rscale>
<asrwt>0</asrwt>
<pdfrwt beam="1">  1        1 0.16956628E+00 0.91819672E+03</pdfrwt>
<pdfrwt beam="2">  1       -1 0.14723918E+00 0.91819672E+03</pdfrwt>
<totfact> 0.46930107E+00</totfact>
</mgrwt>
</event>
<event>
12    1  0.1444206E-007  0.4265144E+03  0.7818608E-02  0.1034967E+00
         -2   -1    0    0    0  501 -0.00000000000E+00  0.00000000000E+00  0.16566056036E+03  0.16566056036E+03  0.00000000000E+00 0. -1.
          2   -1    0    0  501    0  0.00000000000E+00 -0.00000000000E+00 -0.17795661888E+04  0.17795661888E+04  0.00000000000E+00 0.  1.
         23    2    1    2    0    0 -0.30219661156E+03 -0.21370710772E+03 -0.55687434973E+03  0.67455005406E+03  0.88967489061E+02 0.  0.
    5000000    2    1    2    0    0  0.30219661156E+03  0.21370710772E+03 -0.10570312787E+04  0.12706766951E+04  0.60025879366E+03 0.  0.
         23    2    4    4    0    0  0.55094642046E+01  0.14988413031E+03 -0.79319061548E+01  0.17476338986E+03  0.89351668054E+02 0.  0.
         23    2    4    4    0    0  0.29668714736E+03  0.63822977404E+02 -0.10490993725E+04  0.10959133052E+04  0.91213174819E+02 0.  0.
          4    1    3    3  502    0 -0.30719037499E+02 -0.59433329825E+01 -0.17180222649E+02  0.35695133030E+02  0.00000000000E+00 0. -1.
         -4    1    3    3    0  502 -0.27147757407E+03 -0.20776377474E+03 -0.53969412708E+03  0.63885492103E+03  0.00000000000E+00 0.  1.
         11    1    5    5    0    0 -0.17070490627E+02  0.14734950921E-01 -0.15439169487E+02  0.23016729173E+02  0.00000000000E+00 0.  1.
        -11    1    5    5    0    0  0.22579954832E+02  0.14986939536E+03  0.75072633323E+01  0.15174666069E+03  0.00000000000E+00 0. -1.
          4    1    6    6  503    0  0.30062199207E+03  0.63799723216E+02 -0.98811294751E+03  0.10348000695E+04  0.00000000000E+00 0. -1.
         -4    1    6    6    0  503 -0.39348447075E+01  0.23254187915E-01 -0.60986425006E+02  0.61113235707E+02  0.00000000000E+00 0.  1.
<mgrwt>
<rscale>  0 0.42651442E+03</rscale>
<asrwt>0</asrwt>
<pdfrwt beam="1">  1        2 0.27377942E+00 0.42651442E+03</pdfrwt>
<pdfrwt beam="2">  1       -2 0.25486239E-01 0.42651442E+03</pdfrwt>
<totfact> 0.13026263E+02</totfact>
</mgrwt>
</event>
<event>
12    1  0.1444206E-007  0.1078187E+04  0.7818608E-02  0.9226717E-01
          1   -1    0    0  501    0  0.00000000000E+00  0.00000000000E+00  0.20957127447E+04  0.20957127447E+04  0.00000000000E+00 0. -1.
         -1   -1    0    0    0  501 -0.00000000000E+00 -0.00000000000E+00 -0.60027259476E+03  0.60027259476E+03  0.00000000000E+00 0.  1.
         23    2    1    2    0    0 -0.78739817967E+03  0.63870607698E+03  0.96797063278E+03  0.14051603986E+04  0.97812339475E+02 0.  0.
    5000000    2    1    2    0    0  0.78739817967E+03 -0.63870607698E+03  0.52746951718E+03  0.12908249409E+04  0.60005298959E+03 0.  0.
         23    2    4    4    0    0  0.75761677941E+03 -0.32586508702E+03  0.26315520071E+03  0.87042078281E+03  0.90611478889E+02 0.  0.
         23    2    4    4    0    0  0.29781400258E+02 -0.31284098996E+03  0.26431431647E+03  0.42040415807E+03  0.90117597743E+02 0.  0.
          3    1    3    3  502    0 -0.54467429015E+03  0.45891388857E+03  0.73703081665E+03  0.10249324193E+04  0.00000000000E+00 0. -1.
         -3    1    3    3    0  502 -0.24272388952E+03  0.17979218841E+03  0.23093981613E+03  0.38022797928E+03  0.00000000000E+00 0.  1.
         13    1    5    5    0    0  0.57265615874E+03 -0.21564478792E+03  0.16485227484E+03  0.63373024483E+03  0.00000000000E+00 0. -1.
        -13    1    5    5    0    0  0.18496062067E+03 -0.11022029910E+03  0.98302925874E+02  0.23669053798E+03  0.00000000000E+00 0.  1.
          3    1    6    6  503    0 -0.18999509171E+01 -0.61548934578E+02  0.11696665600E+02  0.62679288025E+02  0.00000000000E+00 0. -1.
         -3    1    6    6    0  503  0.31681351175E+02 -0.25129205539E+03  0.25261765087E+03  0.35772487004E+03  0.00000000000E+00 0.  1.
<mgrwt>
<rscale>  0 0.10781871E+04</rscale>
<asrwt>0</asrwt>
<pdfrwt beam="1">  1        1 0.32241734E+00 0.10781871E+04</pdfrwt>
<pdfrwt beam="2">  1       -1 0.92349631E-01 0.10781871E+04</pdfrwt>
<totfact> 0.29328097E+00</totfact>
</mgrwt>
</event>
<event>
12    1  0.1444206E-007  0.1721873E+04  0.7818608E-02  0.8748987E-01
         -2   -1    0    0    0  501 -0.00000000000E+00  0.00000000000E+00  0.12186907196E+04  0.12186907196E+04  0.00000000000E+00 0.  1.
          2   -1    0    0  501    0  0.00000000000E+00 -0.00000000000E+00 -0.26394442802E+04  0.26394442802E+04  0.00000000000E+00 0. -1.
         23    2    1    2    0    0  0.10948096989E+04  0.13173052920E+04 -0.34937066972E+03  0.17505788197E+04  0.92546366684E+02 0.  0.
    5000000    2    1    2    0    0 -0.10948096989E+04 -0.13173052920E+04 -0.10713828909E+04  0.21075561801E+04  0.60002520293E+03 0.  0.
         23    2    4    4    0    0 -0.18982442371E+03 -0.21470839445E+03  0.31092518838E+02  0.30234838478E+03  0.91185495373E+02 0.  0.
         23    2    4    4    0    0 -0.90498527521E+03 -0.11025968975E+04 -0.11024754098E+04  0.18052077953E+04  0.92762537317E+02 0.  0.
          4    1    3    3  502    0  0.75188708474E+03  0.96828338619E+03 -0.25954452082E+03  0.12531042504E+04  0.00000000000E+00 0. -1.
         -4    1    3    3    0  502  0.34292261418E+03  0.34902190579E+03 -0.89826148898E+02  0.49747456926E+03  0.00000000000E+00 0.  1.
         11    1    5    5    0    0 -0.11230809795E+03 -0.18640715407E+03  0.31036539777E+02  0.21982721114E+03  0.00000000000E+00 0.  1.
        -11    1    5    5    0    0 -0.77516325755E+02 -0.28301240381E+02  0.55979061538E-01  0.82521173643E+02  0.00000000000E+00 0. -1.
          3    1    6    6  503    0 -0.63725215178E+03 -0.72149137078E+03 -0.77555976749E+03  0.12361767899E+04  0.00000000000E+00 0. -1.
         -3    1    6    6    0  503 -0.26773312343E+03 -0.38110552676E+03 -0.32691564229E+03  0.56903100537E+03  0.00000000000E+00 0.  1.
<mgrwt>
<rscale>  0 0.17218729E+04</rscale>
<asrwt>0</asrwt>
<pdfrwt beam="1">  1        2 0.40606835E+00 0.17218729E+04</pdfrwt>
<pdfrwt beam="2">  1       -2 0.18749088E+00 0.17218729E+04</pdfrwt>
<totfact> 0.42753220E-01</totfact>
</mgrwt>
</event>
<event>
12    1  0.1773596E-007  0.7158345E+03  0.7818608E-02  0.9690530E-01
          1   -1    0    0  501    0  0.00000000000E+00  0.00000000000E+00  0.12014099729E+04  0.12014099729E+04  0.00000000000E+00 0. -1.
         -1   -1    0    0    0  501 -0.00000000000E+00 -0.00000000000E+00 -0.59695118812E+03  0.59695118812E+03  0.00000000000E+00 0.  1.
         23    2    1    2    0    0  0.61449779817E+03 -0.19371373763E+03 -0.11527891344E+03  0.66112598517E+03  0.93090194345E+02 0.  0.
    5000000    2    1    2    0    0 -0.61449779817E+03  0.19371373763E+03  0.71973769822E+03  0.11372351759E+04  0.60012409956E+03 0.  0.
         23    2    4    4    0    0 -0.64678270653E+03  0.12194728520E+03  0.35813234503E+03  0.75475827295E+03  0.90566352453E+02 0.  0.
         23    2    4    4    0    0  0.32284908358E+02  0.71766452432E+02  0.36160535319E+03  0.38247690291E+03  0.96630278902E+02 0.  0.
          4    1    3    3  502    0  0.40156401322E+03 -0.13092603984E+03 -0.11997703694E+03  0.43907832332E+03  0.00000000000E+00 0. -1.
         -4    1    3    3    0  502  0.21293378496E+03 -0.62787697795E+02  0.46981235013E+01  0.22204766185E+03  0.00000000000E+00 0.  1.
         11    1    5    5    0    0 -0.18491919301E+03 -0.20874116550E+01  0.12067953765E+03  0.22082349521E+03  0.00000000000E+00 0. -1.
        -11    1    5    5    0    0 -0.46186351352E+03  0.12403469685E+03  0.23745280738E+03  0.53393477774E+03  0.00000000000E+00 0.  1.
          3    1    6    6  503    0 -0.36430451729E+01 -0.22743907975E+02  0.80994407199E+02  0.84206004095E+02  0.00000000000E+00 0. -1.
         -3    1    6    6    0  503  0.35927953531E+02  0.94510360408E+02  0.28061094599E+03  0.29827089881E+03  0.00000000000E+00 0.  1.
<mgrwt>
<rscale>  0 0.71583445E+03</rscale>
<asrwt>0</asrwt>
<pdfrwt beam="1">  1        1 0.18483230E+00 0.71583445E+03</pdfrwt>
<pdfrwt beam="2">  1       -1 0.91838644E-01 0.71583445E+03</pdfrwt>
<totfact> 0.12784968E+01</totfact>
</mgrwt>
</event>
<event>
12    1  0.1444206E-007  0.6195020E+03  0.7818608E-02  0.9865752E-01
          2   -1    0    0  501    0  0.00000000000E+00  0.00000000000E+00  0.38179323245E+04  0.38179323245E+04  0.00000000000E+00 0. -1.
         -2   -1    0    0    0  501 -0.00000000000E+00 -0.00000000000E+00 -0.50341662841E+03  0.50341662841E+03  0.00000000000E+00 0.  1.
         23    2    1    2    0    0  0.29189460212E+03  0.37680059575E+03 -0.33829025675E+03  0.58903598188E+03  0.73088593017E+02 0.  0.
    5000000    2    1    2    0    0 -0.29189460212E+03 -0.37680059575E+03  0.36528059528E+04  0.37323129710E+04  0.59998969733E+03 0.  0.
         23    2    4    4    0    0 -0.23310736488E+03  0.10539994923E+03  0.11647599027E+04  0.11958466053E+04  0.89080185907E+02 0.  0.
         23    2    4    4    0    0 -0.58787237236E+02 -0.48220054498E+03  0.24880460501E+04  0.25364663657E+04  0.85528780011E+02 0.  0.
          1    1    3    3  502    0  0.19573685201E+03  0.30010732994E+03 -0.23572273951E+03  0.42888522315E+03  0.00000000000E+00 0. -1.
         -1    1    3    3    0  502  0.96157750112E+02  0.76693265815E+02 -0.10256751723E+03  0.16015075872E+03  0.00000000000E+00 0.  1.
         11    1    5    5    0    0 -0.33030056910E+02  0.50327587023E+02  0.19275675743E+03  0.20193815442E+03  0.00000000000E+00 0. -1.
        -11    1    5    5    0    0 -0.20007730797E+03  0.55072362202E+02  0.97200314532E+03  0.99390845089E+03  0.00000000000E+00 0.  1.
          1    1    6    6  503    0  0.11341916253E+02 -0.15224038740E+03  0.91611394693E+03  0.92874675686E+03  0.00000000000E+00 0. -1.
         -1    1    6    6    0  503 -0.70129153489E+02 -0.32996015758E+03  0.15719321032E+04  0.16077196089E+04  0.00000000000E+00 0.  1.
<mgrwt>
<rscale>  0 0.61950199E+03</rscale>
<asrwt>0</asrwt>
<pdfrwt beam="1">  1        2 0.58737419E+00 0.61950199E+03</pdfrwt>
<pdfrwt beam="2">  1       -2 0.77448715E-01 0.61950199E+03</pdfrwt>
<totfact> 0.80964275E-01</totfact>
</mgrwt>
</event>
<event>
12    1  0.1444206E-007  0.1432386E+04  0.7818608E-02  0.8930704E-01
          1   -1    0    0  501    0  0.00000000000E+00  0.00000000000E+00  0.12688746425E+04  0.12688746425E+04  0.00000000000E+00 0. -1.
         -1   -1    0    0    0  501 -0.00000000000E+00 -0.00000000000E+00 -0.16469000275E+04  0.16469000275E+04  0.00000000000E+00 0.  1.
         23    2    1    2    0    0 -0.39146171472E+03  0.13203371185E+04 -0.67422132549E+02  0.13816391987E+04  0.88593175966E+02 0.  0.
    5000000    2    1    2    0    0  0.39146171472E+03 -0.13203371185E+04 -0.31060325237E+03  0.15341354713E+04  0.60047055164E+03 0.  0.
         23    2    4    4    0    0  0.59472390351E+02 -0.10378762032E+04 -0.31378935953E+03  0.10897013015E+04  0.90891066599E+02 0.  0.
         23    2    4    4    0    0  0.33198932437E+03 -0.28246091526E+03  0.31861071613E+01  0.44443416976E+03  0.86663139971E+02 0.  0.
          1    1    3    3  502    0 -0.19631669836E+03  0.81261763716E+03 -0.34172182985E+02  0.83669313872E+03  0.00000000000E+00 0. -1.
         -1    1    3    3    0  502 -0.19514501636E+03  0.50771948132E+03 -0.33249949564E+02  0.54494605996E+03  0.00000000000E+00 0.  1.
         11    1    5    5    0    0  0.39440141076E+02 -0.34229082174E+03 -0.14384502335E+03  0.37337638131E+03  0.00000000000E+00 0.  1.
        -11    1    5    5    0    0  0.20032249275E+02 -0.69558538149E+03 -0.16994433619E+03  0.71632492023E+03  0.00000000000E+00 0. -1.
          2    1    6    6  503    0  0.10199953332E+02  0.63603236647E+01  0.47495739369E+00  0.12029893999E+02  0.00000000000E+00 0. -1.
         -2    1    6    6    0  503  0.32178937103E+03 -0.28882123892E+03  0.27111497676E+01  0.43240427576E+03  0.00000000000E+00 0.  1.
<mgrwt>
<rscale>  0 0.14323857E+04</rscale>
<asrwt>0</asrwt>
<pdfrwt beam="1">  1        1 0.19521148E+00 0.14323857E+04</pdfrwt>
<pdfrwt beam="2">  1       -1 0.25336923E+00 0.14323857E+04</pdfrwt>
<totfact> 0.60257917E-01</totfact>
</mgrwt>
</event>
<event>
12    1  0.1545979E-007  0.1447042E+04  0.7818608E-02  0.8920454E-01
         -2   -1    0    0    0  501 -0.00000000000E+00  0.00000000000E+00  0.20922205548E+04  0.20922205548E+04  0.00000000000E+00 0.  1.
          2   -1    0    0  501    0  0.00000000000E+00 -0.00000000000E+00 -0.12722896649E+04  0.12722896649E+04  0.00000000000E+00 0. -1.
         23    2    1    2    0    0  0.34437927428E+03  0.13525245914E+04  0.11489890916E+04  0.18101580817E+04  0.92609358436E+02 0.  0.
    5000000    2    1    2    0    0 -0.34437927428E+03 -0.13525245914E+04 -0.32905820168E+03  0.15543521381E+04  0.59984282462E+03 0.  0.
         23    2    4    4    0    0 -0.11976451976E+03 -0.62334271251E+01 -0.23911611213E+02  0.15279142517E+03  0.91602721842E+02 0.  0.
         23    2    4    4    0    0 -0.22461475452E+03 -0.13462911643E+04 -0.30514659047E+03  0.14015607129E+04  0.91138923695E+02 0.  0.
          1    1    3    3  502    0  0.15776807735E+03  0.79382526460E+03  0.68513549058E+03  0.10604055627E+04  0.00000000000E+00 0. -1.
         -1    1    3    3    0  502  0.18661119692E+03  0.55869932678E+03  0.46385360099E+03  0.74975251898E+03  0.00000000000E+00 0.  1.
         13    1    5    5    0    0 -0.39880434680E+02  0.22189570926E+02  0.27836701234E+02  0.53457535144E+02  0.00000000000E+00 0. -1.
        -13    1    5    5    0    0 -0.79884085079E+02 -0.28422998051E+02 -0.51748312447E+02  0.99333890029E+02  0.00000000000E+00 0.  1.
          2    1    6    6  503    0 -0.15782863997E+03 -0.10275998909E+04 -0.19469042278E+03  0.10577219749E+04  0.00000000000E+00 0. -1.
         -2    1    6    6    0  503 -0.66786114546E+02 -0.31869127335E+03 -0.11045616768E+03  0.34383873805E+03  0.00000000000E+00 0.  1.
<mgrwt>
<rscale>  0 0.14470416E+04</rscale>
<asrwt>0</asrwt>
<pdfrwt beam="1">  1        2 0.19573687E+00 0.14470416E+04</pdfrwt>
<pdfrwt beam="2">  1       -2 0.32188009E+00 0.14470416E+04</pdfrwt>
<totfact> 0.37984873E-01</totfact>
</mgrwt>
</event>
<event>
12    1  0.1444206E-007  0.1076461E+04  0.7818608E-02  0.9228443E-01
          1   -1    0    0  501    0  0.00000000000E+00  0.00000000000E+00  0.22255156837E+04  0.22255156837E+04  0.00000000000E+00 0. -1.
         -1   -1    0    0    0  501 -0.00000000000E+00 -0.00000000000E+00 -0.69491163039E+03  0.69491163039E+03  0.00000000000E+00 0.  1.
         23    2    1    2    0    0 -0.60778672601E+02 -0.10718565397E+04  0.12665447438E+04  0.16625625956E+04  0.86071525316E+02 0.  0.
    5000000    2    1    2    0    0  0.60778672601E+02  0.10718565397E+04  0.26405930948E+03  0.12578647185E+04  0.59993819872E+03 0.  0.
         23    2    4    4    0    0  0.12441198782E+02  0.88504342446E+03  0.42900528073E+03  0.98784987898E+03  0.91352098507E+02 0.  0.
         23    2    4    4    0    0  0.48337473818E+02  0.18681311524E+03 -0.16494597126E+03  0.27001483948E+03  0.92006460124E+02 0.  0.
          2    1    3    3  502    0 -0.24303240140E+02 -0.46378591356E+03  0.48268008336E+03  0.66982690598E+03  0.00000000000E+00 0. -1.
         -2    1    3    3    0  502 -0.36475432461E+02 -0.60807062614E+03  0.78386466043E+03  0.99273568961E+03  0.00000000000E+00 0.  1.
         13    1    5    5    0    0  0.14311028239E+02  0.80527522867E+03  0.35934786446E+03  0.88193190618E+03  0.00000000000E+00 0.  1.
        -13    1    5    5    0    0 -0.18698294563E+01  0.79768195793E+02  0.69657416271E+02  0.10591797281E+03  0.00000000000E+00 0. -1.
          1    1    6    6  503    0  0.62264251065E+01  0.65904218791E+01 -0.52883462912E+02  0.53655034058E+02  0.00000000000E+00 0. -1.
         -1    1    6    6    0  503  0.42111048712E+02  0.18022269336E+03 -0.11206250834E+03  0.21635980542E+03  0.00000000000E+00 0.  1.
<mgrwt>
<rscale>  0 0.10764610E+04</rscale>
<asrwt>0</asrwt>
<pdfrwt beam="1">  1        1 0.34238702E+00 0.10764610E+04</pdfrwt>
<pdfrwt beam="2">  1       -1 0.10690948E+00 0.10764610E+04</pdfrwt>
<totfact> 0.17136121E+00</totfact>
</mgrwt>
</event>
<event>
12    1  0.1444206E-007  0.5132120E+03  0.7818608E-02  0.1010387E+00
          2   -1    0    0  501    0  0.00000000000E+00  0.00000000000E+00  0.21021926486E+04  0.21021926486E+04  0.00000000000E+00 0.  1.
         -2   -1    0    0    0  501 -0.00000000000E+00 -0.00000000000E+00 -0.18238791335E+03  0.18238791335E+03  0.00000000000E+00 0. -1.
         23    2    1    2    0    0 -0.29849234262E+03 -0.25271876842E+03  0.26355813392E+03  0.48015186031E+03  0.90102522106E+02 0.  0.
    5000000    2    1    2    0    0  0.29849234262E+03  0.25271876842E+03  0.16562466013E+04  0.18044287016E+04  0.59987138652E+03 0.  0.
         23    2    4    4    0    0  0.30343536118E+03 -0.52923515674E+02  0.12326595972E+04  0.12740118311E+04  0.93715239771E+02 0.  0.
         23    2    4    4    0    0 -0.49430185650E+01  0.30564228409E+03  0.42358700406E+03  0.53041687052E+03  0.92056869744E+02 0.  0.
          2    1    3    3  502    0 -0.15590786641E+03 -0.76996065881E+02  0.96431411126E+02  0.19883328198E+03  0.00000000000E+00 0. -1.
         -2    1    3    3    0  502 -0.14258447620E+03 -0.17572270254E+03  0.16712672279E+03  0.28131857833E+03  0.00000000000E+00 0.  1.
         13    1    5    5    0    0  0.21359268145E+03 -0.22395336641E+02  0.67514894742E+03  0.70848393480E+03  0.00000000000E+00 0.  1.
        -13    1    5    5    0    0  0.89842679729E+02 -0.30528179033E+02  0.55751064981E+03  0.56552789627E+03  0.00000000000E+00 0. -1.
          1    1    6    6  503    0 -0.34663085691E+02  0.61054161924E+02  0.12430842680E+03  0.14276457954E+03  0.00000000000E+00 0. -1.
         -1    1    6    6    0  503  0.29720067126E+02  0.24458812217E+03  0.29927857726E+03  0.38765229098E+03  0.00000000000E+00 0.  1.
<mgrwt>
<rscale>  0 0.51321195E+03</rscale>
<asrwt>0</asrwt>
<pdfrwt beam="1">  1        2 0.32341424E+00 0.51321195E+03</pdfrwt>
<pdfrwt beam="2">  1       -2 0.28059680E-01 0.51321195E+03</pdfrwt>
<totfact> 0.72392697E+01</totfact>
</mgrwt>
</event>
<event>
12    1  0.1444206E-007  0.1697558E+04  0.7818608E-02  0.8762758E-01
         -1   -1    0    0    0  501 -0.00000000000E+00  0.00000000000E+00  0.16278748639E+04  0.16278748639E+04  0.00000000000E+00 0.  1.
          1   -1    0    0  501    0  0.00000000000E+00 -0.00000000000E+00 -0.18439895872E+04  0.18439895872E+04  0.00000000000E+00 0. -1.
         23    2    1    2    0    0  0.13912389913E+04  0.88702259621E+03 -0.41840707366E+03  0.17046228276E+04  0.91211227793E+02 0.  0.
    5000000    2    1    2    0    0 -0.13912389913E+04 -0.88702259621E+03  0.20229235030E+03  0.17672416235E+04  0.59988810916E+03 0.  0.
         23    2    4    4    0    0 -0.11850320762E+04 -0.48212571634E+03  0.65650233182E+02  0.12842630927E+04  0.90969830682E+02 0.  0.
         23    2    4    4    0    0 -0.20620691508E+03 -0.40489687987E+03  0.13664211712E+03  0.48297853075E+03  0.90191007506E+02 0.  0.
          3    1    3    3  502    0  0.95857651123E+03  0.61422799207E+03 -0.33190667688E+03  0.11858781541E+04  0.00000000000E+00 0. -1.
         -3    1    3    3    0  502  0.43266248010E+03  0.27279460413E+03 -0.86500396784E+02  0.51874467358E+03  0.00000000000E+00 0.  1.
         11    1    5    5    0    0 -0.51728090757E+03 -0.25393262464E+03  0.88530892320E+01  0.57631561872E+03  0.00000000000E+00 0.  1.
        -11    1    5    5    0    0 -0.66775116868E+03 -0.22819309170E+03  0.56797143950E+02  0.70794747399E+03  0.00000000000E+00 0. -1.
          1    1    6    6  503    0 -0.53112084003E+02 -0.20315603380E+03  0.60459924935E+02  0.21851469072E+03  0.00000000000E+00 0. -1.
         -1    1    6    6    0  503 -0.15309483108E+03 -0.20174084607E+03  0.76182192182E+02  0.26446384002E+03  0.00000000000E+00 0.  1.
<mgrwt>
<rscale>  0 0.16975581E+04</rscale>
<asrwt>0</asrwt>
<pdfrwt beam="1">  1        1 0.28369071E+00 0.16975581E+04</pdfrwt>
<pdfrwt beam="2">  1       -1 0.25044229E+00 0.16975581E+04</pdfrwt>
<totfact> 0.24328573E-01</totfact>
</mgrwt>
</event>
<event>
12    1  0.1444206E-007  0.1277922E+04  0.7818608E-02  0.9047259E-01
         -1   -1    0    0    0  501 -0.00000000000E+00  0.00000000000E+00  0.72278725266E+03  0.72278725266E+03  0.00000000000E+00 0.  1.
          1   -1    0    0  501    0  0.00000000000E+00 -0.00000000000E+00 -0.25845003335E+04  0.25845003335E+04  0.00000000000E+00 0. -1.
         23    2    1    2    0    0  0.10124317445E+03  0.12647374765E+04 -0.12259339783E+04  0.17665321363E+04  0.88941581139E+02 0.  0.
    5000000    2    1    2    0    0 -0.10124317445E+03 -0.12647374765E+04 -0.63577910258E+03  0.15407554498E+04  0.59991768118E+03 0.  0.
         23    2    4    4    0    0 -0.12623256358E+03 -0.62805634831E+03 -0.62111784950E+03  0.89683533273E+03  0.90204181239E+02 0.  0.
         23    2    4    4    0    0  0.24989389129E+02 -0.63668112815E+03 -0.14661253088E+02  0.64392011711E+03  0.91819585933E+02 0.  0.
          3    1    3    3  502    0  0.68827671977E+01  0.20922243966E+03 -0.16020831120E+03  0.26360596488E+03  0.00000000000E+00 0. -1.
         -3    1    3    3    0  502  0.94360407253E+02  0.10555150368E+04 -0.10657256671E+04  0.15029261715E+04  0.00000000000E+00 0.  1.
         11    1    5    5    0    0 -0.10264040501E+03 -0.29018145376E+03 -0.31224007561E+03  0.43844520030E+03  0.00000000000E+00 0. -1.
        -11    1    5    5    0    0 -0.23592158575E+02 -0.33787489455E+03 -0.30887777388E+03  0.45839013243E+03  0.00000000000E+00 0.  1.
          1    1    6    6  503    0  0.42583989302E+02 -0.55981368495E+03  0.92889330258E+01  0.56150782922E+03  0.00000000000E+00 0. -1.
         -1    1    6    6    0  503 -0.17594600172E+02 -0.76867443204E+02 -0.23950186113E+02  0.82412287887E+02  0.00000000000E+00 0.  1.
<mgrwt>
<rscale>  0 0.12779216E+04</rscale>
<asrwt>0</asrwt>
<pdfrwt beam="1">  1        1 0.39761545E+00 0.12779216E+04</pdfrwt>
<pdfrwt beam="2">  1       -1 0.11119803E+00 0.12779216E+04</pdfrwt>
<totfact> 0.86244074E-01</totfact>
</mgrwt>
</event>
<event>
12    1  0.1444206E-007  0.3638119E+03  0.7818608E-02  0.1057085E+00
         -4   -1    0    0    0  501 -0.00000000000E+00  0.00000000000E+00  0.46134584133E+03  0.46134584133E+03  0.00000000000E+00 0.  1.
          4   -1    0    0  501    0  0.00000000000E+00 -0.00000000000E+00 -0.36540595311E+03  0.36540595311E+03  0.00000000000E+00 0. -1.
         23    2    1    2    0    0  0.77558106973E+02  0.10612379633E+03 -0.92433464946E+02  0.18449892279E+03  0.90655319564E+02 0.  0.
    5000000    2    1    2    0    0 -0.77558106973E+02 -0.10612379633E+03  0.18837335317E+03  0.64225287164E+03  0.59977221579E+03 0.  0.
         23    2    4    4    0    0 -0.59559778287E+02  0.21577638437E+03 -0.28715027017E+02  0.24326759211E+03  0.90817142381E+02 0.  0.
         23    2    4    4    0    0 -0.17998328686E+02 -0.32190018070E+03  0.21708838018E+03  0.39898527953E+03  0.90101178124E+02 0.  0.
          1    1    3    3  502    0  0.77666135306E+02  0.41625648147E+02 -0.79577209253E+02  0.11873186341E+03  0.00000000000E+00 0. -1.
         -1    1    3    3    0  502 -0.10802833330E+00  0.64498148183E+02 -0.12856255694E+02  0.65767059381E+02  0.00000000000E+00 0.  1.
         11    1    5    5    0    0  0.14731976927E+02  0.11122123921E+03 -0.25041654463E+02  0.11495338035E+03  0.00000000000E+00 0.  1.
        -11    1    5    5    0    0 -0.74291755214E+02  0.10455514516E+03 -0.36733725535E+01  0.12831421176E+03  0.00000000000E+00 0. -1.
          4    1    6    6  503    0 -0.46253116362E+02 -0.92496521231E+02  0.73575548173E+02  0.12691855066E+03  0.00000000000E+00 0. -1.
         -4    1    6    6    0  503  0.28254787677E+02 -0.22940365947E+03  0.14351283201E+03  0.27206672887E+03  0.00000000000E+00 0.  1.
<mgrwt>
<rscale>  0 0.36381187E+03</rscale>
<asrwt>0</asrwt>
<pdfrwt beam="1">  1        4 0.56216300E-01 0.36381187E+03</pdfrwt>
<pdfrwt beam="2">  1       -4 0.70976283E-01 0.36381187E+03</pdfrwt>
<totfact> 0.10447909E+01</totfact>
</mgrwt>
</event>
<event>
12    1  0.1444206E-007  0.3588886E+04  0.7818608E-02  0.8093042E-01
         -2   -1    0    0    0  501 -0.00000000000E+00  0.00000000000E+00  0.29685566170E+04  0.29685566170E+04  0.00000000000E+00 0.  1.
          2   -1    0    0  501    0  0.00000000000E+00 -0.00000000000E+00 -0.43921695564E+04  0.43921695564E+04  0.00000000000E+00 0. -1.
         23    2    1    2    0    0  0.21276247278E+04  0.28659736519E+04 -0.36354273535E+03  0.35891959666E+04  0.97838697094E+02 0.  0.
    5000000    2    1    2    0    0 -0.21276247278E+04 -0.28659736519E+04 -0.10600702040E+04  0.37715302067E+04  0.60008275005E+03 0.  0.
         23    2    4    4    0    0 -0.18245798692E+04 -0.26774769853E+04 -0.87072972370E+03  0.33563411746E+04  0.94239706515E+02 0.  0.
         23    2    4    4    0    0 -0.30304485856E+03 -0.18849666658E+03 -0.18934048033E+03  0.41518903213E+03  0.95733668570E+02 0.  0.
          1    1    3    3  502    0  0.12773351387E+04  0.16398402362E+04 -0.20834513199E+03  0.20890353637E+04  0.00000000000E+00 0. -1.
         -1    1    3    3    0  502  0.85028958910E+03  0.12261334157E+04 -0.15519760336E+03  0.15001606029E+04  0.00000000000E+00 0.  1.
         11    1    5    5    0    0 -0.71921420994E+03 -0.10520208757E+04 -0.29492402430E+03  0.13080509099E+04  0.00000000000E+00 0. -1.
        -11    1    5    5    0    0 -0.11053656593E+04 -0.16254561096E+04 -0.57580569940E+03  0.20482902647E+04  0.00000000000E+00 0.  1.
          1    1    6    6  503    0 -0.14255286382E+03 -0.39343337479E+02 -0.52793675628E+02  0.15702353128E+03  0.00000000000E+00 0. -1.
         -1    1    6    6    0  503 -0.16049199474E+03 -0.14915332910E+03 -0.13654680470E+03  0.25816550085E+03  0.00000000000E+00 0.  1.
<mgrwt>
<rscale>  0 0.35888864E+04</rscale>
<asrwt>0</asrwt>
<pdfrwt beam="1">  1        2 0.67571838E+00 0.35888864E+04</pdfrwt>
<pdfrwt beam="2">  1       -2 0.45670102E+00 0.35888864E+04</pdfrwt>
<totfact> 0.36299873E-04</totfact>
</mgrwt>
</event>
<event>
12    1  0.1444206E-007  0.8033008E+03  0.7818608E-02  0.9555252E-01
          2   -1    0    0  501    0  0.00000000000E+00  0.00000000000E+00  0.16706973437E+04  0.16706973437E+04  0.00000000000E+00 0. -1.
         -2   -1    0    0    0  501 -0.00000000000E+00 -0.00000000000E+00 -0.48739812854E+03  0.48739812854E+03  0.00000000000E+00 0.  1.
         23    2    1    2    0    0  0.51086271262E+03 -0.60313122706E+03  0.67230525439E+03  0.10420232434E+04  0.95237053707E+02 0.  0.
    5000000    2    1    2    0    0 -0.51086271262E+03  0.60313122706E+03  0.51099396078E+03  0.11160722289E+04  0.59979530172E+03 0.  0.
         23    2    4    4    0    0 -0.25374524063E+03  0.18094883382E+03  0.52052994934E+03  0.61360687330E+03  0.91830491656E+02 0.  0.
         23    2    4    4    0    0 -0.25711747199E+03  0.42218239325E+03 -0.95359885600E+01  0.50246535560E+03  0.89627735298E+02 0.  0.
          3    1    3    3  502    0  0.16473249425E+03 -0.17002248914E+03  0.14958967959E+03  0.28003841471E+03  0.00000000000E+00 0. -1.
         -3    1    3    3    0  502  0.34613021837E+03 -0.43310873792E+03  0.52271557480E+03  0.76198482864E+03  0.00000000000E+00 0.  1.
         11    1    5    5    0    0 -0.20096550542E+03  0.15790562156E+03  0.34835968890E+03  0.43205994091E+03  0.00000000000E+00 0. -1.
        -11    1    5    5    0    0 -0.52779735210E+02  0.23043212258E+02  0.17217026044E+03  0.18154693239E+03  0.00000000000E+00 0.  1.
          3    1    6    6  503    0 -0.75952292284E+02  0.20972772423E+03  0.95338999866E+00  0.22305913558E+03  0.00000000000E+00 0. -1.
         -3    1    6    6    0  503 -0.18116517970E+03  0.21245466901E+03 -0.10489378559E+02  0.27940622002E+03  0.00000000000E+00 0.  1.
<mgrwt>
<rscale>  0 0.80330075E+03</rscale>
<asrwt>0</asrwt>
<pdfrwt beam="1">  1        2 0.25703036E+00 0.80330075E+03</pdfrwt>
<pdfrwt beam="2">  1       -2 0.74984328E-01 0.80330075E+03</pdfrwt>
<totfact> 0.16601233E+01</totfact>
</mgrwt>
</event>
<event>
12    1  0.1469776E-007  0.7654766E+03  0.7818608E-02  0.9611378E-01
         -1   -1    0    0    0  501 -0.00000000000E+00  0.00000000000E+00  0.67731861844E+03  0.67731861844E+03  0.00000000000E+00 0. -1.
          1   -1    0    0  501    0  0.00000000000E+00 -0.00000000000E+00 -0.10568981116E+04  0.10568981116E+04  0.00000000000E+00 0.  1.
         23    2    1    2    0    0 -0.69153053535E+03 -0.15470050749E+03 -0.37200060904E+03  0.80558519047E+03  0.91849429210E+02 0.  0.
    5000000    2    1    2    0    0  0.69153053535E+03  0.15470050749E+03 -0.75788841374E+01  0.92863153959E+03  0.60012696031E+03 0.  0.
         23    2    4    4    0    0  0.46753743665E+03 -0.98777745080E+02 -0.20454887663E+03  0.52755262930E+03  0.90128997328E+02 0.  0.
         23    2    4    4    0    0  0.22399309870E+03  0.25347825257E+03  0.19696999250E+03  0.40107891028E+03  0.87424147347E+02 0.  0.
          4    1    3    3  502    0 -0.38544338742E+03 -0.13277446017E+03 -0.21417858130E+03  0.46050855244E+03  0.00000000000E+00 0. -1.
         -4    1    3    3    0  502 -0.30608714793E+03 -0.21926047316E+02 -0.15782202774E+03  0.34507663804E+03  0.00000000000E+00 0.  1.
         13    1    5    5    0    0  0.29473918385E+03 -0.54113669620E+02 -0.80789670092E+02  0.31036502144E+03  0.00000000000E+00 0.  1.
        -13    1    5    5    0    0  0.17279825280E+03 -0.44664075460E+02 -0.12375920654E+03  0.21718760787E+03  0.00000000000E+00 0. -1.
          2    1    6    6  503    0  0.10841147379E+03  0.12346783261E+03  0.14600863083E+03  0.21980872052E+03  0.00000000000E+00 0. -1.
         -2    1    6    6    0  503  0.11558162491E+03  0.13001041996E+03  0.50961361665E+02  0.18127018976E+03  0.00000000000E+00 0.  1.
<mgrwt>
<rscale>  0 0.76547663E+03</rscale>
<asrwt>0</asrwt>
<pdfrwt beam="1">  1        1 0.16259971E+00 0.76547663E+03</pdfrwt>
<pdfrwt beam="2">  1       -1 0.10420286E+00 0.76547663E+03</pdfrwt>
<totfact> 0.12203709E+01</totfact>
</mgrwt>
</event>
<event>
12    1  0.1444206E-007  0.5520836E+03  0.7818608E-02  0.1001013E+00
          2   -1    0    0  501    0  0.00000000000E+00  0.00000000000E+00  0.10523598973E+04  0.10523598973E+04  0.00000000000E+00 0. -1.
         -2   -1    0    0    0  501 -0.00000000000E+00 -0.00000000000E+00 -0.46153576553E+03  0.46153576553E+03  0.00000000000E+00 0.  1.
         23    2    1    2    0    0 -0.36810532638E+03 -0.37979852723E+03  0.27437046299E+02  0.53551763811E+03  0.79233178788E+02 0.  0.
    5000000    2    1    2    0    0  0.36810532638E+03  0.37979852723E+03  0.56338708547E+03  0.97837802472E+03  0.60005841265E+03 0.  0.
         23    2    4    4    0    0  0.24559661039E+03  0.30394830192E+03  0.13228290445E+02  0.40218413733E+03  0.94206302214E+02 0.  0.
         23    2    4    4    0    0  0.12250871599E+03  0.75850225311E+02  0.55015879502E+03  0.57619388739E+03  0.92536770800E+02 0.  0.
          1    1    3    3  502    0 -0.17921664014E+03 -0.23001796116E+03  0.38908940768E+02  0.29417813011E+03  0.00000000000E+00 0. -1.
         -1    1    3    3    0  502 -0.18888868624E+03 -0.14978056607E+03 -0.11471894469E+02  0.24133950800E+03  0.00000000000E+00 0.  1.
         11    1    5    5    0    0  0.21361018257E+03  0.20311130613E+03 -0.51812959506E+01  0.29480562851E+03  0.00000000000E+00 0.  1.
        -11    1    5    5    0    0  0.31986427824E+02  0.10083699579E+03  0.18409586395E+02  0.10737850882E+03  0.00000000000E+00 0. -1.
          2    1    6    6  503    0 -0.80326908851E+01  0.32391886186E+02  0.12117222480E+03  0.12568399451E+03  0.00000000000E+00 0. -1.
         -2    1    6    6    0  503  0.13054140687E+03  0.43458339126E+02  0.42898657022E+03  0.45050989288E+03  0.00000000000E+00 0.  1.
<mgrwt>
<rscale>  0 0.55208365E+03</rscale>
<asrwt>0</asrwt>
<pdfrwt beam="1">  1        2 0.16190152E+00 0.55208365E+03</pdfrwt>
<pdfrwt beam="2">  1       -2 0.71005502E-01 0.55208365E+03</pdfrwt>
<totfact> 0.43629222E+01</totfact>
</mgrwt>
</event>
<event>
12    1  0.1444206E-007  0.3911136E+03  0.7818608E-02  0.1046901E+00
         -2   -1    0    0    0  501 -0.00000000000E+00  0.00000000000E+00  0.37070754913E+03  0.37070754913E+03  0.00000000000E+00 0.  1.
          2   -1    0    0  501    0  0.00000000000E+00 -0.00000000000E+00 -0.53517758997E+03  0.53517758997E+03  0.00000000000E+00 0. -1.
         23    2    1    2    0    0  0.21648262277E+03 -0.75348118903E+02 -0.70941375086E+01  0.24460145643E+03  0.85073384312E+02 0.  0.
    5000000    2    1    2    0    0 -0.21648262277E+03  0.75348118903E+02 -0.15737590332E+03  0.66128368267E+03  0.59998905743E+03 0.  0.
         23    2    4    4    0    0  0.26308188564E+02 -0.17754125660E+03  0.92213495724E+02  0.22204633697E+03  0.92672694942E+02 0.  0.
         23    2    4    4    0    0 -0.24279081133E+03  0.25288937551E+03 -0.24958939905E+03  0.43923734570E+03  0.87944092613E+02 0.  0.
          4    1    3    3  502    0  0.16742597391E+03 -0.30061622349E+02 -0.32475583527E+02  0.17317569519E+03  0.00000000000E+00 0. -1.
         -4    1    3    3    0  502  0.49056648858E+02 -0.45286496553E+02  0.25381446019E+02  0.71425761243E+02  0.00000000000E+00 0.  1.
         11    1    5    5    0    0 -0.12442548976E+02 -0.54311757570E+02  0.72397922898E+02  0.91356681613E+02  0.00000000000E+00 0. -1.
        -11    1    5    5    0    0  0.38750737540E+02 -0.12322949903E+03  0.19815572826E+02  0.13068965536E+03  0.00000000000E+00 0.  1.
          1    1    6    6  503    0 -0.13865054335E+03  0.84193175965E+02 -0.12839589670E+03  0.20687670323E+03  0.00000000000E+00 0. -1.
         -1    1    6    6    0  503 -0.10414026798E+03  0.16869619954E+03 -0.12119350235E+03  0.23236064246E+03  0.00000000000E+00 0.  1.
<mgrwt>
<rscale>  0 0.39111365E+03</rscale>
<asrwt>0</asrwt>
<pdfrwt beam="1">  1        2 0.82335013E-01 0.39111365E+03</pdfrwt>
<pdfrwt beam="2">  1       -2 0.57031931E-01 0.39111365E+03</pdfrwt>
<totfact> 0.16906692E+02</totfact>
</mgrwt>
</event>
<event>
12    1  0.1444206E-007  0.6614308E+03  0.7818608E-02  0.9785563E-01
          1   -1    0    0  501    0  0.00000000000E+00  0.00000000000E+00  0.74150203125E+03  0.74150203125E+03  0.00000000000E+00 0. -1.
         -1   -1    0    0    0  501 -0.00000000000E+00 -0.00000000000E+00 -0.85333210108E+03  0.85333210108E+03  0.00000000000E+00 0.  1.
         23    2    1    2    0    0  0.54132749248E+03 -0.11897312361E+00 -0.45890885877E+03  0.71535708532E+03  0.90016390682E+02 0.  0.
    5000000    2    1    2    0    0 -0.54132749248E+03  0.11897312361E+00  0.34707878894E+03  0.87947704701E+03  0.59998393497E+03 0.  0.
         23    2    4    4    0    0  0.10144075977E+03 -0.46971417130E+02  0.11698455918E+03  0.18891163363E+03  0.97497058744E+02 0.  0.
         23    2    4    4    0    0 -0.64276825225E+03  0.47090390253E+02  0.23009422975E+03  0.69056541338E+03  0.92567297853E+02 0.  0.
          3    1    3    3  502    0  0.16285881793E+03  0.29917530728E+01 -0.86712639298E+02  0.18452920359E+03  0.00000000000E+00 0. -1.
         -3    1    3    3    0  502  0.37846867455E+03 -0.31107261964E+01 -0.37219621947E+03  0.53082788173E+03  0.00000000000E+00 0.  1.
         11    1    5    5    0    0  0.51020478418E+02  0.18361009652E+02  0.84121296503E+02  0.10008300764E+03  0.00000000000E+00 0.  1.
        -11    1    5    5    0    0  0.50420281356E+02 -0.65332426782E+02  0.32863262680E+02  0.88828625990E+02  0.00000000000E+00 0. -1.
          1    1    6    6  503    0 -0.21458440124E+03  0.24271743987E+02  0.32307472291E+02  0.21835602941E+03  0.00000000000E+00 0. -1.
         -1    1    6    6    0  503 -0.42818385101E+03  0.22818646266E+02  0.19778675746E+03  0.47220938397E+03  0.00000000000E+00 0.  1.
<mgrwt>
<rscale>  0 0.66143081E+03</rscale>
<asrwt>0</asrwt>
<pdfrwt beam="1">  1        1 0.11407724E+00 0.66143081E+03</pdfrwt>
<pdfrwt beam="2">  1       -1 0.13128186E+00 0.66143081E+03</pdfrwt>
<totfact> 0.12848803E+01</totfact>
</mgrwt>
</event>
<event>
12    1  0.1444206E-007  0.1323526E+04  0.7818608E-02  0.9011114E-01
         -2   -1    0    0    0  501 -0.00000000000E+00  0.00000000000E+00  0.77759902786E+03  0.77759902786E+03  0.00000000000E+00 0. -1.
          2   -1    0    0  501    0  0.00000000000E+00 -0.00000000000E+00 -0.26255825425E+04  0.26255825425E+04  0.00000000000E+00 0.  1.
         23    2    1    2    0    0 -0.11017304583E+04 -0.66367382530E+03 -0.14262978850E+04  0.19227195364E+04  0.90839472663E+02 0.  0.
    5000000    2    1    2    0    0  0.11017304583E+04  0.66367382530E+03 -0.42168562963E+03  0.14804620339E+04  0.59973003465E+03 0.  0.
         23    2    4    4    0    0  0.11183242596E+04  0.64174678332E+03 -0.46772268329E+03  0.13746061564E+04  0.91046653282E+02 0.  0.
         23    2    4    4    0    0 -0.16593801287E+02  0.21927041988E+02  0.46037053663E+02  0.10585587758E+03  0.91268324713E+02 0.  0.
          3    1    3    3  502    0 -0.82273208451E+03 -0.51052423334E+03 -0.11271514830E+04  0.14859318764E+04  0.00000000000E+00 0. -1.
         -3    1    3    3    0  502 -0.27899837382E+03 -0.15314959197E+03 -0.29914640203E+03  0.43678766004E+03  0.00000000000E+00 0.  1.
         11    1    5    5    0    0  0.89228209920E+03  0.54873370630E+03 -0.36207159543E+03  0.11083193877E+04  0.00000000000E+00 0. -1.
        -11    1    5    5    0    0  0.22604216041E+03  0.93013077016E+02 -0.10565108786E+03  0.26628676863E+03  0.00000000000E+00 0.  1.
          4    1    6    6  503    0  0.22364904638E+02  0.19293538204E+02  0.57939966803E+02  0.65034370367E+02  0.00000000000E+00 0.  1.
         -4    1    6    6    0  503 -0.38958705926E+02  0.26335037845E+01 -0.11902913140E+02  0.40821507209E+02  0.00000000000E+00 0. -1.
<mgrwt>
<rscale>  0 0.13235256E+04</rscale>
<asrwt>0</asrwt>
<pdfrwt beam="1">  1        2 0.40393578E+00 0.13235256E+04</pdfrwt>
<pdfrwt beam="2">  1       -2 0.11963062E+00 0.13235256E+04</pdfrwt>
<totfact> 0.15227193E+00</totfact>
</mgrwt>
</event>
<event>
12    1  0.1444206E-007  0.3392739E+03  0.7818608E-02  0.1067106E+00
         -1   -1    0    0    0  501 -0.00000000000E+00  0.00000000000E+00  0.66043008921E+03  0.66043008921E+03  0.00000000000E+00 0.  1.
          1   -1    0    0  501    0  0.00000000000E+00 -0.00000000000E+00 -0.38975037522E+03  0.38975037522E+03  0.00000000000E+00 0. -1.
         23    2    1    2    0    0 -0.12478104898E+03  0.27132365680E+03  0.21214504337E+03  0.37756624462E+03  0.91454429784E+02 0.  0.
    5000000    2    1    2    0    0  0.12478104898E+03 -0.27132365680E+03  0.58534670624E+02  0.67261421982E+03  0.59983059618E+03 0.  0.
         23    2    4    4    0    0  0.12026010572E+03 -0.84696351967E+02 -0.24769617303E+03  0.30228223557E+03  0.91570687114E+02 0.  0.
         23    2    4    4    0    0  0.45209432598E+01 -0.18662730483E+03  0.30623084366E+03  0.37033198425E+03  0.92294415411E+02 0.  0.
          1    1    3    3  502    0 -0.77915488607E+02  0.19281645593E+03  0.94124949727E+02  0.22827289634E+03  0.00000000000E+00 0. -1.
         -1    1    3    3    0  502 -0.46865560373E+02  0.78507200867E+02  0.11802009364E+03  0.14929334828E+03  0.00000000000E+00 0.  1.
         13    1    5    5    0    0  0.53001775624E+02 -0.89059530584E+02 -0.12578813615E+03  0.16298295433E+03  0.00000000000E+00 0. -1.
        -13    1    5    5    0    0  0.67258330097E+02  0.43631786168E+01 -0.12190803688E+03  0.13929928123E+03  0.00000000000E+00 0.  1.
          3    1    6    6  503    0 -0.29049999552E+02 -0.16640894115E+03  0.24320286479E+03  0.29611395038E+03  0.00000000000E+00 0. -1.
         -3    1    6    6    0  503  0.33570942812E+02 -0.20218363677E+02  0.63027978870E+02  0.74218033870E+02  0.00000000000E+00 0.  1.
<mgrwt>
<rscale>  0 0.33927394E+03</rscale>
<asrwt>0</asrwt>
<pdfrwt beam="1">  1        1 0.59961596E-01 0.33927394E+03</pdfrwt>
<pdfrwt beam="2">  1       -1 0.10160463E+00 0.33927394E+03</pdfrwt>
<totfact> 0.60918216E+01</totfact>
</mgrwt>
</event>
<event>
12    1  0.1444206E-007  0.6596706E+03  0.7818608E-02  0.9788800E-01
          1   -1    0    0  501    0  0.00000000000E+00  0.00000000000E+00  0.17915236063E+04  0.17915236063E+04  0.00000000000E+00 0. -1.
         -1   -1    0    0    0  501 -0.00000000000E+00 -0.00000000000E+00 -0.37228663605E+03  0.37228663605E+03  0.00000000000E+00 0.  1.
         23    2    1    2    0    0  0.54138357801E+03 -0.28171183954E+03  0.15606987143E+03  0.63801755056E+03  0.10124648624E+03 0.  0.
    5000000    2    1    2    0    0 -0.54138357801E+03  0.28171183954E+03  0.12631670988E+04  0.15257926918E+04  0.59999539976E+03 0.  0.
         23    2    4    4    0    0 -0.32221637672E+03 -0.21340051452E+02  0.10129104545E+04  0.10669537220E+04  0.90132484820E+02 0.  0.
         23    2    4    4    0    0 -0.21916720129E+03  0.30305189099E+03  0.25025664436E+03  0.45883896984E+03  0.89610833308E+02 0.  0.
          3    1    3    3  502    0  0.40783724335E+03 -0.23487535748E+03  0.80127337162E+02  0.47740762538E+03  0.00000000000E+00 0. -1.
         -3    1    3    3    0  502  0.13354633466E+03 -0.46836482056E+02  0.75942534271E+02  0.16060992517E+03  0.00000000000E+00 0.  1.
         11    1    5    5    0    0 -0.69399154479E+02 -0.18596759676E+02  0.12973839828E+03  0.14830419449E+03  0.00000000000E+00 0. -1.
        -11    1    5    5    0    0 -0.25281722224E+03 -0.27432917765E+01  0.88317205618E+03  0.91864952748E+03  0.00000000000E+00 0.  1.
          3    1    6    6  503    0 -0.16464771246E+03  0.16071204829E+03  0.12692496939E+03  0.26276830010E+03  0.00000000000E+00 0. -1.
         -3    1    6    6    0  503 -0.54519488833E+02  0.14233984269E+03  0.12333167497E+03  0.19607066974E+03  0.00000000000E+00 0.  1.
<mgrwt>
<rscale>  0 0.65967055E+03</rscale>
<asrwt>0</asrwt>
<pdfrwt beam="1">  1        1 0.27561901E+00 0.65967055E+03</pdfrwt>
<pdfrwt beam="2">  1       -1 0.57274868E-01 0.65967055E+03</pdfrwt>
<totfact> 0.13457182E+01</totfact>
</mgrwt>
</event>
<event>
12    1  0.1444206E-007  0.3862639E+03  0.7818608E-02  0.1048643E+00
          2   -1    0    0  501    0  0.00000000000E+00  0.00000000000E+00  0.88868005192E+03  0.88868005192E+03  0.00000000000E+00 0. -1.
         -2   -1    0    0    0  501 -0.00000000000E+00 -0.00000000000E+00 -0.36109515784E+03  0.36109515784E+03  0.00000000000E+00 0.  1.
         23    2    1    2    0    0  0.32779426492E+03 -0.18822132415E+03  0.34131557035E+03  0.51786748240E+03  0.93883245508E+02 0.  0.
    5000000    2    1    2    0    0 -0.32779426492E+03  0.18822132415E+03  0.18626932374E+03  0.73190772735E+03  0.59842820239E+03 0.  0.
         23    2    4    4    0    0 -0.10886670380E+03  0.92005336760E+02 -0.20399860465E+03  0.26513470954E+03  0.91455138276E+02 0.  0.
         23    2    4    4    0    0 -0.21892756113E+03  0.96215987390E+02  0.39026792839E+03  0.46677301781E+03  0.91548899384E+02 0.  0.
          4    1    3    3  502    0  0.14459267857E+03 -0.85422314263E+02  0.90751527263E+02  0.19089225801E+03  0.00000000000E+00 0. -1.
         -4    1    3    3    0  502  0.18320158636E+03 -0.10279900989E+03  0.25056404308E+03  0.32697522439E+03  0.00000000000E+00 0.  1.
         11    1    5    5    0    0 -0.65108219462E+02  0.80769088157E+02 -0.73785332200E+02  0.12730672053E+03  0.00000000000E+00 0.  1.
        -11    1    5    5    0    0 -0.43758484333E+02  0.11236248603E+02 -0.13021327245E+03  0.13782798902E+03  0.00000000000E+00 0. -1.
          1    1    6    6  503    0 -0.16811528818E+03  0.98287464743E+02  0.24566014180E+03  0.31348378126E+03  0.00000000000E+00 0. -1.
         -1    1    6    6    0  503 -0.50812272952E+02 -0.20714773524E+01  0.14460778658E+03  0.15328923655E+03  0.00000000000E+00 0.  1.
<mgrwt>
<rscale>  0 0.38626393E+03</rscale>
<asrwt>0</asrwt>
<pdfrwt beam="1">  1        2 0.13672001E+00 0.38626393E+03</pdfrwt>
<pdfrwt beam="2">  1       -2 0.55553101E-01 0.38626393E+03</pdfrwt>
<totfact> 0.95330324E+01</totfact>
</mgrwt>
</event>
<event>
12    1  0.1444206E-007  0.9642922E+03  0.7818608E-02  0.9348599E-01
         -2   -1    0    0    0  501 -0.00000000000E+00  0.00000000000E+00  0.42767353814E+03  0.42767353814E+03  0.00000000000E+00 0.  1.
          2   -1    0    0  501    0  0.00000000000E+00 -0.00000000000E+00 -0.25084122888E+04  0.25084122888E+04  0.00000000000E+00 0. -1.
         23    2    1    2    0    0  0.69772928478E+03  0.60652863683E+03 -0.12417221659E+04  0.15508569821E+04  0.92629906946E+02 0.  0.
    5000000    2    1    2    0    0 -0.69772928478E+03 -0.60652863683E+03 -0.83901658484E+03  0.13852288449E+04  0.60017245925E+03 0.  0.
         23    2    4    4    0    0 -0.25014453448E+03 -0.45185724597E+03 -0.15239670300E+03  0.54603882543E+03  0.90478643465E+02 0.  0.
         23    2    4    4    0    0 -0.44758475030E+03 -0.15467139086E+03 -0.68661988184E+03  0.83919001942E+03  0.92399560116E+02 0.  0.
          1    1    3    3  502    0  0.60859305596E+03  0.56582807573E+03 -0.11020205902E+04  0.13802160339E+04  0.00000000000E+00 0. -1.
         -1    1    3    3    0  502  0.89136228819E+02  0.40700561103E+02 -0.13970157569E+03  0.17064094823E+03  0.00000000000E+00 0.  1.
         11    1    5    5    0    0 -0.11879423273E+03 -0.30448699786E+03 -0.90084300621E+02  0.33902740717E+03  0.00000000000E+00 0. -1.
        -11    1    5    5    0    0 -0.13135030175E+03 -0.14737024811E+03 -0.62312402377E+02  0.20701141826E+03  0.00000000000E+00 0.  1.
          2    1    6    6  503    0 -0.13713545126E+03 -0.27492764736E+02 -0.14046360224E+03  0.19822211698E+03  0.00000000000E+00 0.  1.
         -2    1    6    6    0  503 -0.31044929904E+03 -0.12717862613E+03 -0.54615627960E+03  0.64096790244E+03  0.00000000000E+00 0. -1.
<mgrwt>
<rscale>  0 0.96429221E+03</rscale>
<asrwt>0</asrwt>
<pdfrwt beam="1">  1        2 0.38590957E+00 0.96429221E+03</pdfrwt>
<pdfrwt beam="2">  1       -2 0.65795931E-01 0.96429221E+03</pdfrwt>
<totfact> 0.74392535E+00</totfact>
</mgrwt>
</event>
<event>
12    1  0.1444206E-007  0.5332208E+03  0.7818608E-02  0.1005454E+00
          2   -1    0    0  501    0  0.00000000000E+00  0.00000000000E+00  0.16616208509E+04  0.16616208509E+04  0.00000000000E+00 0. -1.
         -2   -1    0    0    0  501 -0.00000000000E+00 -0.00000000000E+00 -0.20453730021E+03  0.20453730021E+03  0.00000000000E+00 0.  1.
         23    2    1    2    0    0 -0.26883408766E+03  0.25742456339E+03  0.22289447115E+03  0.44375625429E+03  0.93265724840E+02 0.  0.
    5000000    2    1    2    0    0  0.26883408766E+03 -0.25742456339E+03  0.12341890796E+04  0.14224018969E+04  0.60121984290E+03 0.  0.
         23    2    4    4    0    0  0.23426562276E+02  0.17229534256E+03  0.25937953324E+03  0.32459335638E+03  0.88592414188E+02 0.  0.
         23    2    4    4    0    0  0.24540752538E+03 -0.42971990596E+03  0.97480954635E+03  0.10978085405E+04  0.10022918144E+03 0.  0.
          1    1    3    3  502    0 -0.12113067280E+03  0.81196502318E+02  0.13135634361E+03  0.19626512907E+03  0.00000000000E+00 0. -1.
         -1    1    3    3    0  502 -0.14770341486E+03  0.17622806108E+03  0.91538127536E+02  0.24749112522E+03  0.00000000000E+00 0.  1.
         11    1    5    5    0    0  0.55679543970E+02  0.11018485740E+03  0.14429823050E+03  0.18990232685E+03  0.00000000000E+00 0. -1.
        -11    1    5    5    0    0 -0.32252981694E+02  0.62110485163E+02  0.11508130274E+03  0.13469102953E+03  0.00000000000E+00 0.  1.
          3    1    6    6  503    0  0.23797236320E+03 -0.39035590881E+03  0.83023163749E+03  0.94778328382E+03  0.00000000000E+00 0. -1.
         -3    1    6    6    0  503  0.74351621846E+01 -0.39363997145E+02  0.14457790886E+03  0.15002525666E+03  0.00000000000E+00 0.  1.
<mgrwt>
<rscale>  0 0.53322083E+03</rscale>
<asrwt>0</asrwt>
<pdfrwt beam="1">  1        2 0.25563397E+00 0.53322083E+03</pdfrwt>
<pdfrwt beam="2">  1       -2 0.31467278E-01 0.53322083E+03</pdfrwt>
<totfact> 0.10099667E+02</totfact>
</mgrwt>
</event>
<event>
12    1  0.1444206E-007  0.7331550E+03  0.7818608E-02  0.9662154E-01
         -1   -1    0    0    0  501 -0.00000000000E+00  0.00000000000E+00  0.30037822357E+03  0.30037822357E+03  0.00000000000E+00 0.  1.
          1   -1    0    0  501    0  0.00000000000E+00 -0.00000000000E+00 -0.18534824481E+04  0.18534824481E+04  0.00000000000E+00 0. -1.
         23    2    1    2    0    0  0.58442464332E+03 -0.19477721597E+03 -0.77686717488E+03  0.99592780045E+03  0.94123582180E+02 0.  0.
    5000000    2    1    2    0    0 -0.58442464332E+03  0.19477721597E+03 -0.77623704964E+03  0.11579328712E+04  0.59897767023E+03 0.  0.
         23    2    4    4    0    0 -0.14488605000E+03  0.34501749169E+03 -0.32646791337E+03  0.50487318487E+03  0.91030749136E+02 0.  0.
         23    2    4    4    0    0 -0.43953859332E+03 -0.15024027572E+03 -0.44976913627E+03  0.65305968635E+03  0.91806113759E+02 0.  0.
          4    1    3    3  502    0  0.40231414864E+03 -0.90894656875E+02 -0.48709034440E+03  0.63825975625E+03  0.00000000000E+00 0. -1.
         -4    1    3    3    0  502  0.18211049468E+03 -0.10388255909E+03 -0.28977683048E+03  0.35766804419E+03  0.00000000000E+00 0.  1.
         11    1    5    5    0    0 -0.98116209112E+02  0.29166802428E+03 -0.22565699981E+03  0.38159940833E+03  0.00000000000E+00 0. -1.
        -11    1    5    5    0    0 -0.46769840885E+02  0.53349467409E+02 -0.10081091356E+03  0.12327377654E+03  0.00000000000E+00 0.  1.
          1    1    6    6  503    0 -0.93147109806E+02 -0.18759401503E+02 -0.47724789485E+02  0.10632946319E+03  0.00000000000E+00 0. -1.
         -1    1    6    6    0  503 -0.34639148352E+03 -0.13148087422E+03 -0.40204434678E+03  0.54673022316E+03  0.00000000000E+00 0.  1.
<mgrwt>
<rscale>  0 0.73315503E+03</rscale>
<asrwt>0</asrwt>
<pdfrwt beam="1">  1        1 0.28515116E+00 0.73315503E+03</pdfrwt>
<pdfrwt beam="2">  1       -1 0.46212033E-01 0.73315503E+03</pdfrwt>
<totfact> 0.18194697E+01</totfact>
</mgrwt>
</event>
<event>
12    1  0.1444206E-007  0.2588621E+03  0.7818608E-02  0.1107829E+00
          1   -1    0    0  501    0  0.00000000000E+00  0.00000000000E+00  0.18493237278E+03  0.18493237278E+03  0.00000000000E+00 0. -1.
         -1   -1    0    0    0  501 -0.00000000000E+00 -0.00000000000E+00 -0.11361746426E+04  0.11361746426E+04  0.00000000000E+00 0.  1.
         23    2    1    2    0    0  0.12500669984E+03 -0.16370863002E+03 -0.70974806597E+02  0.23621290162E+03  0.91279357850E+02 0.  0.
    5000000    2    1    2    0    0 -0.12500669984E+03  0.16370863002E+03 -0.88026746322E+03  0.10848941138E+04  0.59974764753E+03 0.  0.
         23    2    4    4    0    0 -0.19529229392E+01  0.15193663947E+03  0.13972521739E+02  0.17781888723E+03  0.91300432486E+02 0.  0.
         23    2    4    4    0    0 -0.12305377690E+03  0.11771990552E+02 -0.89423998496E+03  0.90707522652E+03  0.88540974155E+02 0.  0.
          1    1    3    3  502    0 -0.28518391992E+01  0.42160358997E+01  0.91376836881E+01  0.10459694484E+02  0.00000000000E+00 0. -1.
         -1    1    3    3    0  502  0.12785853904E+03 -0.16792466592E+03 -0.80112490285E+02  0.22575320713E+03  0.00000000000E+00 0.  1.
         11    1    5    5    0    0  0.35700734634E+01  0.67189626527E+02  0.51735380606E+02  0.84874854603E+02  0.00000000000E+00 0. -1.
        -11    1    5    5    0    0 -0.55229964026E+01  0.84747012943E+02 -0.37762858867E+02  0.92944032632E+02  0.00000000000E+00 0.  1.
          3    1    6    6  503    0 -0.55997743130E+02  0.47457044995E+02 -0.35479348691E+03  0.36230696475E+03  0.00000000000E+00 0.  1.
         -3    1    6    6    0  503 -0.67056033772E+02 -0.35685054443E+02 -0.53944649805E+03  0.54476826177E+03  0.00000000000E+00 0. -1.
<mgrwt>
<rscale>  0 0.25886206E+03</rscale>
<asrwt>0</asrwt>
<pdfrwt beam="1">  1        1 0.28451134E-01 0.25886206E+03</pdfrwt>
<pdfrwt beam="2">  1       -1 0.17479610E+00 0.25886206E+03</pdfrwt>
<totfact> 0.40766088E+01</totfact>
</mgrwt>
</event>
<event>
12    1  0.1444206E-007  0.1432449E+04  0.7818608E-02  0.8930660E-01
         -1   -1    0    0    0  501 -0.00000000000E+00  0.00000000000E+00  0.10181449230E+04  0.10181449230E+04  0.00000000000E+00 0.  1.
          1   -1    0    0  501    0  0.00000000000E+00 -0.00000000000E+00 -0.26481423718E+04  0.26481423718E+04  0.00000000000E+00 0. -1.
         23    2    1    2    0    0 -0.28704283702E+02 -0.14119378398E+04  0.17033692654E+02  0.14152874739E+04  0.91411638782E+02 0.  0.
    5000000    2    1    2    0    0  0.28704283702E+02  0.14119378398E+04 -0.16470311414E+04  0.22509998209E+04  0.59991350497E+03 0.  0.
         23    2    4    4    0    0  0.17974677107E+03  0.64016804114E+03 -0.42535700212E+03  0.79463259178E+03  0.91587958002E+02 0.  0.
         23    2    4    4    0    0 -0.15104248737E+03  0.77176979869E+03 -0.12216741393E+04  0.14563672291E+04  0.10037603437E+03 0.  0.
          1    1    3    3  502    0 -0.44709986286E+02 -0.11550932605E+04 -0.14280761041E+02  0.11560464365E+04  0.00000000000E+00 0. -1.
         -1    1    3    3    0  502  0.16005702583E+02 -0.25684457934E+03  0.31314453695E+02  0.25924103737E+03  0.00000000000E+00 0.  1.
         11    1    5    5    0    0  0.39176009981E+02  0.13692683755E+03 -0.48692946800E+02  0.15051485531E+03  0.00000000000E+00 0. -1.
        -11    1    5    5    0    0  0.14057076109E+03  0.50324120359E+03 -0.37666405532E+03  0.64411773647E+03  0.00000000000E+00 0.  1.
          1    1    6    6  503    0 -0.10704217460E+03  0.49669570390E+03 -0.87276602102E+03  0.10098936463E+04  0.00000000000E+00 0. -1.
         -1    1    6    6    0  503 -0.44000312766E+02  0.27507409479E+03 -0.34890811829E+03  0.44647358282E+03  0.00000000000E+00 0.  1.
<mgrwt>
<rscale>  0 0.14324487E+04</rscale>
<asrwt>0</asrwt>
<pdfrwt beam="1">  1        1 0.40740651E+00 0.14324487E+04</pdfrwt>
<pdfrwt beam="2">  1       -1 0.15663768E+00 0.14324487E+04</pdfrwt>
<totfact> 0.31686296E-01</totfact>
</mgrwt>
</event>
<event>
12    1  0.1444206E-007  0.4068420E+03  0.7818608E-02  0.1041436E+00
          2   -1    0    0  501    0  0.00000000000E+00  0.00000000000E+00  0.14209882503E+04  0.14209882503E+04  0.00000000000E+00 0. -1.
         -2   -1    0    0    0  501 -0.00000000000E+00 -0.00000000000E+00 -0.19431498340E+03  0.19431498340E+03  0.00000000000E+00 0.  1.
         23    2    1    2    0    0 -0.21372170363E+03  0.25110656901E+03  0.57553559558E+03  0.66957519591E+03  0.91423441164E+02 0.  0.
    5000000    2    1    2    0    0  0.21372170363E+03 -0.25110656901E+03  0.65113767133E+03  0.94572803781E+03  0.60140650052E+03 0.  0.
         23    2    4    4    0    0  0.25983191948E+03 -0.72379064579E+02  0.67638515602E+03  0.73383084239E+03  0.90881629588E+02 0.  0.
         23    2    4    4    0    0 -0.46110215855E+02 -0.17872750443E+03 -0.25247484684E+02  0.21189719541E+03  0.10096193885E+03 0.  0.
          3    1    3    3  502    0 -0.74080018314E+02  0.78699363267E+02  0.27918580051E+03  0.29937626843E+03  0.00000000000E+00 0. -1.
         -3    1    3    3    0  502 -0.13964168531E+03  0.17240720574E+03  0.29634979508E+03  0.37019892749E+03  0.00000000000E+00 0.  1.
         13    1    5    5    0    0  0.57760471172E+02  0.29925359158E+01  0.24247516638E+03  0.24927782415E+03  0.00000000000E+00 0. -1.
        -13    1    5    5    0    0  0.20207144831E+03 -0.75371600495E+02  0.43390998963E+03  0.48455301824E+03  0.00000000000E+00 0.  1.
          4    1    6    6  503    0  0.15769237878E+02 -0.13135757451E+03 -0.11921952723E+02  0.13283679536E+03  0.00000000000E+00 0.  1.
         -4    1    6    6    0  503 -0.61879453733E+02 -0.47369929919E+02 -0.13325531962E+02  0.79060400055E+02  0.00000000000E+00 0. -1.
<mgrwt>
<rscale>  0 0.40684203E+03</rscale>
<asrwt>0</asrwt>
<pdfrwt beam="1">  1        2 0.21861357E+00 0.40684203E+03</pdfrwt>
<pdfrwt beam="2">  1       -2 0.29894614E-01 0.40684203E+03</pdfrwt>
<totfact> 0.15290253E+02</totfact>
</mgrwt>
</event>
<event>
12    1  0.1444206E-007  0.4700259E+03  0.7818608E-02  0.1021913E+00
          2   -1    0    0  501    0  0.00000000000E+00  0.00000000000E+00  0.24379682621E+03  0.24379682621E+03  0.00000000000E+00 0. -1.
         -2   -1    0    0    0  501 -0.00000000000E+00 -0.00000000000E+00 -0.11606437587E+04  0.11606437587E+04  0.00000000000E+00 0.  1.
         23    2    1    2    0    0  0.29857585472E+03 -0.17009668946E+03 -0.42906953321E+03  0.55824704085E+03  0.97255691366E+02 0.  0.
    5000000    2    1    2    0    0 -0.29857585472E+03  0.17009668946E+03 -0.48777739928E+03  0.84619354406E+03  0.60003024755E+03 0.  0.
         23    2    4    4    0    0 -0.27114002030E+03 -0.11807839700E+03 -0.43985019336E+03  0.53812503501E+03  0.93010441660E+02 0.  0.
         23    2    4    4    0    0 -0.27435834425E+02  0.28817508647E+03 -0.47927205915E+02  0.30806850905E+03  0.93870036380E+02 0.  0.
          1    1    3    3  502    0  0.20003910541E+03 -0.14325435495E+03 -0.24197273811E+03  0.34509166883E+03  0.00000000000E+00 0. -1.
         -1    1    3    3    0  502  0.98536749309E+02 -0.26842334514E+02 -0.18709679510E+03  0.21315537203E+03  0.00000000000E+00 0.  1.
         11    1    5    5    0    0 -0.12659943241E+02  0.63263970748E+01 -0.14679412439E+01  0.14228573868E+02  0.00000000000E+00 0. -1.
        -11    1    5    5    0    0 -0.25848007705E+03 -0.12440479408E+03 -0.43838225212E+03  0.52389646114E+03  0.00000000000E+00 0.  1.
          2    1    6    6  503    0 -0.30053672031E+02  0.16814047492E+03 -0.72434760109E+02  0.18552961214E+03  0.00000000000E+00 0. -1.
         -2    1    6    6    0  503  0.26178376061E+01  0.12003461154E+03  0.24507554195E+02  0.12253889691E+03  0.00000000000E+00 0.  1.
<mgrwt>
<rscale>  0 0.47002589E+03</rscale>
<asrwt>0</asrwt>
<pdfrwt beam="1">  1        2 0.37507203E-01 0.47002589E+03</pdfrwt>
<pdfrwt beam="2">  1       -2 0.17856058E+00 0.47002589E+03</pdfrwt>
<totfact> 0.26707189E+01</totfact>
</mgrwt>
</event>
<event>
12    1  0.1444206E-007  0.9206210E+03  0.7818608E-02  0.9400165E-01
          2   -1    0    0  501    0  0.00000000000E+00  0.00000000000E+00  0.12115684847E+04  0.12115684847E+04  0.00000000000E+00 0.  1.
         -2   -1    0    0    0  501 -0.00000000000E+00 -0.00000000000E+00 -0.15611692766E+04  0.15611692766E+04  0.00000000000E+00 0. -1.
         23    2    1    2    0    0  0.71998684837E+03  0.54778433180E+03 -0.11191066151E+04  0.14420505221E+04  0.93066407444E+02 0.  0.
    5000000    2    1    2    0    0 -0.71998684837E+03 -0.54778433180E+03  0.76950582327E+03  0.13306872392E+04  0.60011713908E+03 0.  0.
         23    2    4    4    0    0 -0.17683782574E+03 -0.74439596677E+02 -0.66707599715E+02  0.22324889279E+03  0.92613682071E+02 0.  0.
         23    2    4    4    0    0 -0.54314902263E+03 -0.47334473512E+03  0.83621342299E+03  0.11074383464E+04  0.90003907328E+02 0.  0.
          2    1    3    3  502    0  0.49478258650E+03  0.40624749155E+03 -0.73323728991E+03  0.97338777247E+03  0.00000000000E+00 0. -1.
         -2    1    3    3    0  502  0.22520426187E+03  0.14153684024E+03 -0.38586932523E+03  0.46866274960E+03  0.00000000000E+00 0.  1.
         13    1    5    5    0    0 -0.13227435235E+03 -0.94540557439E+02 -0.62482725607E+02  0.17417954039E+03  0.00000000000E+00 0. -1.
        -13    1    5    5    0    0 -0.44563473385E+02  0.20100960762E+02 -0.42248741084E+01  0.49069352400E+02  0.00000000000E+00 0.  1.
          2    1    6    6  503    0 -0.75356017678E+02 -0.99200771701E+02  0.18041315250E+03  0.21924467634E+03  0.00000000000E+00 0.  1.
         -2    1    6    6    0  503 -0.46779300495E+03 -0.37414396342E+03  0.65580027048E+03  0.88819367010E+03  0.00000000000E+00 0. -1.
<mgrwt>
<rscale>  0 0.92062103E+03</rscale>
<asrwt>0</asrwt>
<pdfrwt beam="1">  1        2 0.18639515E+00 0.92062103E+03</pdfrwt>
<pdfrwt beam="2">  1       -2 0.24017989E+00 0.92062103E+03</pdfrwt>
<totfact> 0.13867631E+00</totfact>
</mgrwt>
</event>
<event>
12    1  0.1444206E-007  0.1121867E+04  0.7818608E-02  0.9184137E-01
         -2   -1    0    0    0  501 -0.00000000000E+00  0.00000000000E+00  0.21132774951E+04  0.21132774951E+04  0.00000000000E+00 0.  1.
          2   -1    0    0  501    0  0.00000000000E+00 -0.00000000000E+00 -0.75861653172E+03  0.75861653172E+03  0.00000000000E+00 0. -1.
         23    2    1    2    0    0  0.88385184394E+03  0.63306674014E+03  0.82718999276E+02  0.10941121988E+04  0.90947739284E+02 0.  0.
    5000000    2    1    2    0    0 -0.88385184394E+03 -0.63306674014E+03  0.12719419641E+04  0.17777818280E+04  0.60058662022E+03 0.  0.
         23    2    4    4    0    0 -0.21932599037E+03 -0.36582218921E+03  0.81237548086E+03  0.92194128552E+03  0.89955810690E+02 0.  0.
         23    2    4    4    0    0 -0.66452585357E+03 -0.26724455093E+03  0.45956648326E+03  0.85584054248E+03  0.90815315662E+02 0.  0.
          3    1    3    3  502    0  0.35449675010E+03  0.26095884875E+03  0.77950788109E+02  0.44703891546E+03  0.00000000000E+00 0. -1.
         -3    1    3    3    0  502  0.52935509384E+03  0.37210789139E+03  0.47682111679E+01  0.64707328336E+03  0.00000000000E+00 0.  1.
         11    1    5    5    0    0 -0.24260652447E+02 -0.11770220484E+03  0.23385594903E+03  0.26292773375E+03  0.00000000000E+00 0.  1.
        -11    1    5    5    0    0 -0.19506533792E+03 -0.24811998438E+03  0.57851953183E+03  0.65901355177E+03  0.00000000000E+00 0. -1.
          4    1    6    6  503    0 -0.20665292554E+03 -0.43948581961E+02  0.15835101163E+03  0.26403021110E+03  0.00000000000E+00 0. -1.
         -4    1    6    6    0  503 -0.45787292803E+03 -0.22329596897E+03  0.30121547163E+03  0.59181033138E+03  0.00000000000E+00 0.  1.
<mgrwt>
<rscale>  0 0.11218669E+04</rscale>
<asrwt>0</asrwt>
<pdfrwt beam="1">  1        2 0.11671024E+00 0.11218669E+04</pdfrwt>
<pdfrwt beam="2">  1       -2 0.32511961E+00 0.11218669E+04</pdfrwt>
<totfact> 0.81641500E-01</totfact>
</mgrwt>
</event>
<event>
12    1  0.1444206E-007  0.5589711E+03  0.7818608E-02  0.9994385E-01
          1   -1    0    0  501    0  0.00000000000E+00  0.00000000000E+00  0.82797219032E+03  0.82797219032E+03  0.00000000000E+00 0. -1.
         -1   -1    0    0    0  501 -0.00000000000E+00 -0.00000000000E+00 -0.60123561041E+03  0.60123561041E+03  0.00000000000E+00 0.  1.
         23    2    1    2    0    0  0.26757309082E+03  0.48019647512E+03 -0.73074682028E+02  0.56199587168E+03  0.91189017902E+02 0.  0.
    5000000    2    1    2    0    0 -0.26757309082E+03 -0.48019647512E+03  0.29981126194E+03  0.86721192904E+03  0.59998810274E+03 0.  0.
         23    2    4    4    0    0 -0.62703866483E+02 -0.21356897632E+03 -0.16005587786E+03  0.28999067168E+03  0.94515729404E+02 0.  0.
         23    2    4    4    0    0 -0.20486922434E+03 -0.26662749880E+03  0.45986713980E+03  0.57722125736E+03  0.92978338773E+02 0.  0.
          1    1    3    3  502    0  0.18653511160E+03  0.30411710029E+03 -0.57793940336E+01  0.35681362074E+03  0.00000000000E+00 0. -1.
         -1    1    3    3    0  502  0.81037979223E+02  0.17607937483E+03 -0.67295287995E+02  0.20518225095E+03  0.00000000000E+00 0.  1.
         13    1    5    5    0    0 -0.33946799241E+02 -0.64709825884E+02 -0.51765689554E+01  0.73256696696E+02  0.00000000000E+00 0. -1.
        -13    1    5    5    0    0 -0.28757067242E+02 -0.14885915044E+03 -0.15487930891E+03  0.21673397499E+03  0.00000000000E+00 0.  1.
          1    1    6    6  503    0 -0.12023892859E+03 -0.10251355504E+03  0.15864492092E+03  0.22390765920E+03  0.00000000000E+00 0. -1.
         -1    1    6    6    0  503 -0.84630295746E+02 -0.16411394376E+03  0.30122221888E+03  0.35331359815E+03  0.00000000000E+00 0.  1.
<mgrwt>
<rscale>  0 0.55897113E+03</rscale>
<asrwt>0</asrwt>
<pdfrwt beam="1">  1        1 0.12738034E+00 0.55897113E+03</pdfrwt>
<pdfrwt beam="2">  1       -1 0.92497786E-01 0.55897113E+03</pdfrwt>
<totfact> 0.25015293E+01</totfact>
</mgrwt>
</event>
<event>
12    1  0.1444206E-007  0.8636955E+03  0.7818608E-02  0.9472137E-01
         -1   -1    0    0    0  501 -0.00000000000E+00  0.00000000000E+00  0.88750680325E+03  0.88750680325E+03  0.00000000000E+00 0. -1.
          1   -1    0    0  501    0  0.00000000000E+00 -0.00000000000E+00 -0.10672472644E+04  0.10672472644E+04  0.00000000000E+00 0.  1.
         23    2    1    2    0    0 -0.52739292273E+03 -0.56257814932E+03 -0.50356141425E+03  0.92547390811E+03  0.91051565780E+02 0.  0.
    5000000    2    1    2    0    0  0.52739292273E+03  0.56257814932E+03  0.32382095310E+03  0.10292801595E+04  0.59993346974E+03 0.  0.
         23    2    4    4    0    0  0.18901123867E+03  0.57202937780E+03  0.11125337034E+03  0.61939406845E+03  0.91262490715E+02 0.  0.
         23    2    4    4    0    0  0.33838168405E+03 -0.94512284802E+01  0.21256758276E+03  0.40988609109E+03  0.90720122371E+02 0.  0.
          4    1    3    3  502    0 -0.24725458488E+03 -0.32757377379E+03 -0.25119745114E+03  0.48118558424E+03  0.00000000000E+00 0. -1.
         -4    1    3    3    0  502 -0.28013833784E+03 -0.23500437553E+03 -0.25236396311E+03  0.44428832387E+03  0.00000000000E+00 0.  1.
         11    1    5    5    0    0  0.92378440799E+02  0.40163474469E+03  0.94306078242E+02  0.42277403049E+03  0.00000000000E+00 0.  1.
        -11    1    5    5    0    0  0.96632797875E+02  0.17039463311E+03  0.16947292102E+02  0.19662003796E+03  0.00000000000E+00 0. -1.
          1    1    6    6  503    0  0.10780760405E+03 -0.29772687552E+02  0.10945319201E+03  0.15648927648E+03  0.00000000000E+00 0. -1.
         -1    1    6    6    0  503  0.23057408001E+03  0.20321459072E+02  0.10311439075E+03  0.25339681460E+03  0.00000000000E+00 0.  1.
<mgrwt>
<rscale>  0 0.86369549E+03</rscale>
<asrwt>0</asrwt>
<pdfrwt beam="1">  1        1 0.16419189E+00 0.86369549E+03</pdfrwt>
<pdfrwt beam="2">  1       -1 0.13653951E+00 0.86369549E+03</pdfrwt>
<totfact> 0.61221794E+00</totfact>
</mgrwt>
</event>
<event>
12    1  0.1444206E-007  0.6747902E+03  0.7818608E-02  0.9761343E-01
         -2   -1    0    0    0  501 -0.00000000000E+00  0.00000000000E+00  0.13309831446E+03  0.13309831446E+03  0.00000000000E+00 0.  1.
          2   -1    0    0  501    0  0.00000000000E+00 -0.00000000000E+00 -0.40588569669E+04  0.40588569669E+04  0.00000000000E+00 0. -1.
         23    2    1    2    0    0 -0.59376441638E+03  0.18918106581E+02 -0.12676948948E+04  0.14029965631E+04  0.91841889273E+02 0.  0.
    5000000    2    1    2    0    0  0.59376441638E+03 -0.18918106581E+02 -0.26580637576E+04  0.27889587183E+04  0.60006142685E+03 0.  0.
         23    2    4    4    0    0  0.37105257748E+03 -0.22689082198E+03 -0.21096830442E+04  0.21559705339E+04  0.91032608095E+02 0.  0.
         23    2    4    4    0    0  0.22271183890E+03  0.20797271540E+03 -0.54838071337E+03  0.63298818436E+03  0.84258063193E+02 0.  0.
          3    1    3    3  502    0 -0.27762105602E+03 -0.35034384714E+02 -0.55987210637E+03  0.62590545161E+03  0.00000000000E+00 0. -1.
         -3    1    3    3    0  502 -0.31614336036E+03  0.53952491295E+02 -0.70782278848E+03  0.77709111145E+03  0.00000000000E+00 0.  1.
         11    1    5    5    0    0  0.14616930134E+03 -0.39816917682E+02 -0.75981766454E+03  0.77477334424E+03  0.00000000000E+00 0. -1.
        -11    1    5    5    0    0  0.22488327614E+03 -0.18707390430E+03 -0.13498653796E+04  0.13811971897E+04  0.00000000000E+00 0.  1.
          1    1    6    6  503    0  0.58887696642E+02  0.46910351875E+02 -0.21757404162E+03  0.23023206882E+03  0.00000000000E+00 0. -1.
         -1    1    6    6    0  503  0.16382414225E+03  0.16106236352E+03 -0.33080667175E+03  0.40275611554E+03  0.00000000000E+00 0.  1.
<mgrwt>
<rscale>  0 0.67479025E+03</rscale>
<asrwt>0</asrwt>
<pdfrwt beam="1">  1        2 0.62443957E+00 0.67479025E+03</pdfrwt>
<pdfrwt beam="2">  1       -2 0.20476663E-01 0.67479025E+03</pdfrwt>
<totfact> 0.70504355E+00</totfact>
</mgrwt>
</event>
<event>
12    1  0.1444206E-007  0.8230790E+03  0.7818608E-02  0.9527199E-01
         -2   -1    0    0    0  501 -0.00000000000E+00  0.00000000000E+00  0.38195215262E+03  0.38195215262E+03  0.00000000000E+00 0.  1.
          2   -1    0    0  501    0  0.00000000000E+00 -0.00000000000E+00 -0.22665307813E+04  0.22665307813E+04  0.00000000000E+00 0. -1.
         23    2    1    2    0    0  0.24010853260E+03  0.75767067303E+03 -0.11910512129E+04  0.14348106520E+04  0.91442108743E+02 0.  0.
    5000000    2    1    2    0    0 -0.24010853260E+03 -0.75767067303E+03 -0.69352741584E+03  0.12136722819E+04  0.60025259285E+03 0.  0.
         23    2    4    4    0    0  0.22902334391E+02 -0.22965839285E+02 -0.33961612121E+03  0.35168437073E+03  0.85386416563E+02 0.  0.
         23    2    4    4    0    0 -0.26301086699E+03 -0.73470483375E+03 -0.35391129463E+03  0.86198791121E+03  0.93829876479E+02 0.  0.
          3    1    3    3  502    0  0.13191551373E+03  0.26992231386E+03 -0.45115336973E+03  0.54203239876E+03  0.00000000000E+00 0. -1.
         -3    1    3    3    0  502  0.10819301887E+03  0.48774835917E+03 -0.73989784313E+03  0.89277825325E+03  0.00000000000E+00 0.  1.
         11    1    5    5    0    0  0.39245745259E+02 -0.13512776023E+02 -0.69802060496E+02  0.81210536794E+02  0.00000000000E+00 0. -1.
        -11    1    5    5    0    0 -0.16343410868E+02 -0.94530632615E+01 -0.26981406071E+03  0.27047383393E+03  0.00000000000E+00 0.  1.
          3    1    6    6  503    0 -0.10355375872E+03 -0.42446721412E+03 -0.20756895625E+03  0.48371548291E+03  0.00000000000E+00 0. -1.
         -3    1    6    6    0  503 -0.15945710827E+03 -0.31023761963E+03 -0.14634233838E+03  0.37827242830E+03  0.00000000000E+00 0.  1.
<mgrwt>
<rscale>  0 0.82307904E+03</rscale>
<asrwt>0</asrwt>
<pdfrwt beam="1">  1        2 0.34869704E+00 0.82307904E+03</pdfrwt>
<pdfrwt beam="2">  1       -2 0.58761870E-01 0.82307904E+03</pdfrwt>
<totfact> 0.13208111E+01</totfact>
</mgrwt>
</event>
<event>
12    1  0.1444206E-007  0.6347753E+03  0.7818608E-02  0.9835774E-01
         -2   -1    0    0    0  501 -0.00000000000E+00  0.00000000000E+00  0.78652181849E+03  0.78652181849E+03  0.00000000000E+00 0.  1.
          2   -1    0    0  501    0  0.00000000000E+00 -0.00000000000E+00 -0.79532065011E+03  0.79532065011E+03  0.00000000000E+00 0. -1.
         23    2    1    2    0    0  0.52934400601E+03 -0.14625665749E+03 -0.39437141043E+03  0.68169570615E+03  0.87086967220E+02 0.  0.
    5000000    2    1    2    0    0 -0.52934400601E+03  0.14625665749E+03  0.38557257881E+03  0.90014676245E+03  0.60000157822E+03 0.  0.
         23    2    4    4    0    0 -0.60896917111E+03  0.10245584536E+03  0.16731223604E+03  0.64632765470E+03  0.91680975622E+02 0.  0.
         23    2    4    4    0    0  0.79625165099E+02  0.43800812127E+02  0.21826034277E+03  0.25381910775E+03  0.92346543927E+02 0.  0.
          4    1    3    3  502    0  0.15577689798E+03 -0.82943373789E+02 -0.14098866654E+03  0.22588459286E+03  0.00000000000E+00 0. -1.
         -4    1    3    3    0  502  0.37356710803E+03 -0.63313283702E+02 -0.25338274389E+03  0.45581111329E+03  0.00000000000E+00 0.  1.
         13    1    5    5    0    0 -0.30232016322E+02  0.23358348462E+02  0.23193833584E+02  0.44693860541E+02  0.00000000000E+00 0. -1.
        -13    1    5    5    0    0 -0.57873715479E+03  0.79097496901E+02  0.14411840246E+03  0.60163379416E+03  0.00000000000E+00 0.  1.
          4    1    6    6  503    0  0.75833398277E+02  0.37746788049E+02  0.22714082307E+03  0.24242210668E+03  0.00000000000E+00 0.  1.
         -4    1    6    6    0  503  0.37917668213E+01  0.60540240788E+01 -0.88804802991E+01  0.11397001076E+02  0.00000000000E+00 0. -1.
<mgrwt>
<rscale>  0 0.63477532E+03</rscale>
<asrwt>0</asrwt>
<pdfrwt beam="1">  1        2 0.12235702E+00 0.63477532E+03</pdfrwt>
<pdfrwt beam="2">  1       -2 0.12100336E+00 0.63477532E+03</pdfrwt>
<totfact> 0.18549417E+01</totfact>
</mgrwt>
</event>
<event>
12    1  0.1444206E-007  0.5593985E+03  0.7818608E-02  0.9993417E-01
          2   -1    0    0  501    0  0.00000000000E+00  0.00000000000E+00  0.46715680949E+03  0.46715680949E+03  0.00000000000E+00 0. -1.
         -2   -1    0    0    0  501 -0.00000000000E+00 -0.00000000000E+00 -0.87538546307E+03  0.87538546307E+03  0.00000000000E+00 0.  1.
         23    2    1    2    0    0 -0.32733714641E+03  0.31402136493E+03 -0.36465594907E+03  0.58910603382E+03  0.91175286353E+02 0.  0.
    5000000    2    1    2    0    0  0.32733714641E+03 -0.31402136493E+03 -0.43572704507E+02  0.75343623874E+03  0.60000713347E+03 0.  0.
         23    2    4    4    0    0  0.11090046173E+03 -0.40801532719E+03 -0.17453766821E+03  0.46896927520E+03  0.10340872220E+03 0.  0.
         23    2    4    4    0    0  0.21643668468E+03  0.93993962252E+02  0.13096496371E+03  0.28446696353E+03  0.89944028210E+02 0.  0.
          4    1    3    3  502    0 -0.18888229395E+03  0.20633706423E+03 -0.27437836701E+03  0.39183541612E+03  0.00000000000E+00 0. -1.
         -4    1    3    3    0  502 -0.13845485245E+03  0.10768430070E+03 -0.90277582065E+02  0.19727061770E+03  0.00000000000E+00 0.  1.
         13    1    5    5    0    0  0.82060931092E+02 -0.35191066474E+03 -0.18346372186E+03  0.40525800375E+03  0.00000000000E+00 0. -1.
        -13    1    5    5    0    0  0.28839530638E+02 -0.56104662448E+02  0.89260536459E+01  0.63711271448E+02  0.00000000000E+00 0.  1.
          3    1    6    6  503    0  0.94892555246E+02  0.20149828671E+02  0.95615134141E+01  0.97478383118E+02  0.00000000000E+00 0. -1.
         -3    1    6    6    0  503  0.12154412943E+03  0.73844133581E+02  0.12140345029E+03  0.18698858042E+03  0.00000000000E+00 0.  1.
<mgrwt>
<rscale>  0 0.55939850E+03</rscale>
<asrwt>0</asrwt>
<pdfrwt beam="1">  1        2 0.71870278E-01 0.55939850E+03</pdfrwt>
<pdfrwt beam="2">  1       -2 0.13467469E+00 0.55939850E+03</pdfrwt>
<totfact> 0.27242974E+01</totfact>
</mgrwt>
</event>
<event>
12    1  0.1444206E-007  0.1165499E+04  0.7818608E-02  0.9143603E-01
          2   -1    0    0  501    0  0.00000000000E+00  0.00000000000E+00  0.22317118223E+04  0.22317118223E+04  0.00000000000E+00 0. -1.
         -2   -1    0    0    0  501 -0.00000000000E+00 -0.00000000000E+00 -0.71055686617E+03  0.71055686617E+03  0.00000000000E+00 0.  1.
         23    2    1    2    0    0  0.99029171073E+03  0.47580099374E+03  0.19354086024E+03  0.11175495530E+04  0.66292389317E+02 0.  0.
    5000000    2    1    2    0    0 -0.99029171073E+03 -0.47580099374E+03  0.13276140959E+04  0.18247191354E+04  0.59998039774E+03 0.  0.
         23    2    4    4    0    0 -0.20511626443E+03  0.11234899042E+03  0.39551548750E+03  0.46841490544E+03  0.91022223682E+02 0.  0.
         23    2    4    4    0    0 -0.78517544630E+03 -0.58814998416E+03  0.93209860837E+03  0.13563042300E+04  0.91282326979E+02 0.  0.
          3    1    3    3  502    0  0.50751031446E+03  0.20914939368E+03  0.85378577519E+02  0.55551749717E+03  0.00000000000E+00 0. -1.
         -3    1    3    3    0  502  0.48278139627E+03  0.26665160006E+03  0.10816228272E+03  0.56203205585E+03  0.00000000000E+00 0.  1.
         13    1    5    5    0    0 -0.13105522237E+03  0.22813342958E+02  0.23836225853E+03  0.27296975331E+03  0.00000000000E+00 0.  1.
        -13    1    5    5    0    0 -0.74061042056E+02  0.89535647465E+02  0.15715322897E+03  0.19544515214E+03  0.00000000000E+00 0. -1.
          3    1    6    6  503    0 -0.12890213111E+03 -0.85501552844E+02  0.10517357358E+03  0.18705014174E+03  0.00000000000E+00 0. -1.
         -3    1    6    6    0  503 -0.65627331519E+03 -0.50264843132E+03  0.82692503479E+03  0.11692540883E+04  0.00000000000E+00 0.  1.
<mgrwt>
<rscale>  0 0.11654986E+04</rscale>
<asrwt>0</asrwt>
<pdfrwt beam="1">  1        2 0.34334028E+00 0.11654986E+04</pdfrwt>
<pdfrwt beam="2">  1       -2 0.10931644E+00 0.11654986E+04</pdfrwt>
<totfact> 0.32497251E+00</totfact>
</mgrwt>
</event>
<event>
12    1  0.1444206E-007  0.3244618E+03  0.7818608E-02  0.1073614E+00
         -1   -1    0    0    0  501 -0.00000000000E+00  0.00000000000E+00  0.11444880001E+04  0.11444880001E+04  0.00000000000E+00 0. -1.
          1   -1    0    0  501    0  0.00000000000E+00 -0.00000000000E+00 -0.22161335265E+03  0.22161335265E+03  0.00000000000E+00 0.  1.
         23    2    1    2    0    0 -0.18100428415E+03 -0.23139160356E+03  0.46278157881E+03  0.55486137156E+03  0.86021665188E+02 0.  0.
    5000000    2    1    2    0    0  0.18100428415E+03  0.23139160356E+03  0.46009306863E+03  0.81123998117E+03  0.60010003347E+03 0.  0.
         23    2    4    4    0    0  0.25817408417E+02  0.80969175290E+02 -0.12693179972E+03  0.17939636827E+03  0.94068215916E+02 0.  0.
         23    2    4    4    0    0  0.15518687573E+03  0.15042242827E+03  0.58702486835E+03  0.63184361290E+03  0.88984727761E+02 0.  0.
          1    1    3    3  502    0 -0.37127500559E+02 -0.48705551434E+02  0.17171904090E+03  0.18231322236E+03  0.00000000000E+00 0. -1.
         -1    1    3    3    0  502 -0.14387678359E+03 -0.18268605213E+03  0.29106253791E+03  0.37254814920E+03  0.00000000000E+00 0.  1.
         13    1    5    5    0    0 -0.21603691986E+02  0.73918360529E+02 -0.92549790771E+02  0.12039978116E+03  0.00000000000E+00 0.  1.
        -13    1    5    5    0    0  0.47421100403E+02  0.70508147607E+01 -0.34382008946E+02  0.58996587116E+02  0.00000000000E+00 0. -1.
          2    1    6    6  503    0  0.67331460765E+02  0.15353006199E+02  0.22998192774E+03  0.24012689873E+03  0.00000000000E+00 0. -1.
         -2    1    6    6    0  503  0.87855414969E+02  0.13506942208E+03  0.35704294060E+03  0.39171671416E+03  0.00000000000E+00 0.  1.
<mgrwt>
<rscale>  0 0.32446179E+03</rscale>
<asrwt>0</asrwt>
<pdfrwt beam="1">  1        1 0.34094363E-01 0.32446179E+03</pdfrwt>
<pdfrwt beam="2">  1       -1 0.17607507E+00 0.32446179E+03</pdfrwt>
<totfact> 0.31282728E+01</totfact>
</mgrwt>
</event>
<event>
12    1  0.1444206E-007  0.3839228E+03  0.7818608E-02  0.1049493E+00
         -2   -1    0    0    0  501 -0.00000000000E+00  0.00000000000E+00  0.73450968189E+03  0.73450968189E+03  0.00000000000E+00 0.  1.
          2   -1    0    0  501    0  0.00000000000E+00 -0.00000000000E+00 -0.63341808260E+03  0.63341808260E+03  0.00000000000E+00 0. -1.
         23    2    1    2    0    0  0.16315737127E+03 -0.51762978107E+02 -0.47862447935E+03  0.51624604480E+03  0.90160151095E+02 0.  0.
    5000000    2    1    2    0    0 -0.16315737127E+03  0.51762978107E+02  0.57971607864E+03  0.85168171968E+03  0.59999273838E+03 0.  0.
         23    2    4    4    0    0  0.69376242861E+02 -0.21707589866E+03  0.31572981763E+03  0.39995298548E+03  0.91334900259E+02 0.  0.
         23    2    4    4    0    0 -0.23253361413E+03  0.26883887677E+03  0.26398626101E+03  0.45172873420E+03  0.89576112539E+02 0.  0.
          3    1    3    3  502    0  0.97030281103E+02 -0.42824621136E+02 -0.39644478876E+03  0.41038676168E+03  0.00000000000E+00 0. -1.
         -3    1    3    3    0  502  0.66127090163E+02 -0.89383569715E+01 -0.82179690583E+02  0.10585928312E+03  0.00000000000E+00 0.  1.
         13    1    5    5    0    0  0.23606031788E+02 -0.23997912785E+02  0.10606148115E+03  0.11127525483E+03  0.00000000000E+00 0.  1.
        -13    1    5    5    0    0  0.45770211073E+02 -0.19307798587E+03  0.20966833648E+03  0.28867773065E+03  0.00000000000E+00 0. -1.
          2    1    6    6  503    0 -0.20481481877E+03  0.18991217240E+03  0.22845614595E+03  0.36084339239E+03  0.00000000000E+00 0. -1.
         -2    1    6    6    0  503 -0.27718795362E+02  0.78926704370E+02  0.35530115060E+02  0.90885341806E+02  0.00000000000E+00 0.  1.
<mgrwt>
<rscale>  0 0.38392280E+03</rscale>
<asrwt>0</asrwt>
<pdfrwt beam="1">  1        2 0.97448936E-01 0.38392280E+03</pdfrwt>
<pdfrwt beam="2">  1       -2 0.11300149E+00 0.38392280E+03</pdfrwt>
<totfact> 0.30170737E+01</totfact>
</mgrwt>
</event>
<event>
12    1  0.1444206E-007  0.5316202E+03  0.7818608E-02  0.1005840E+00
         -1   -1    0    0    0  501 -0.00000000000E+00  0.00000000000E+00  0.39536512315E+03  0.39536512315E+03  0.00000000000E+00 0.  1.
          1   -1    0    0  501    0  0.00000000000E+00 -0.00000000000E+00 -0.14265112773E+04  0.14265112773E+04  0.00000000000E+00 0. -1.
         23    2    1    2    0    0 -0.35022891308E+03  0.38442677651E+03 -0.68022760425E+01  0.52579510752E+03  0.77265685033E+02 0.  0.
    5000000    2    1    2    0    0  0.35022891308E+03 -0.38442677651E+03 -0.10243438781E+04  0.12960812929E+04  0.60008507663E+03 0.  0.
         23    2    4    4    0    0  0.14512800650E+03 -0.11904151746E+03 -0.90441656920E+03  0.92803782247E+03  0.89732090942E+02 0.  0.
         23    2    4    4    0    0  0.20510090658E+03 -0.26538525904E+03 -0.11992730891E+03  0.36804347045E+03  0.92615976612E+02 0.  0.
          1    1    3    3  502    0 -0.24785794439E+03  0.31642530331E+03  0.78953040450E+01  0.40202098079E+03  0.00000000000E+00 0. -1.
         -1    1    3    3    0  502 -0.10237096869E+03  0.68001473197E+02 -0.14697580087E+02  0.12377412673E+03  0.00000000000E+00 0.  1.
         11    1    5    5    0    0  0.13232694186E+03 -0.93687947488E+02 -0.57567216328E+03  0.59806880091E+03  0.00000000000E+00 0.  1.
        -11    1    5    5    0    0  0.12801064634E+02 -0.25353569976E+02 -0.32874440592E+03  0.32996902156E+03  0.00000000000E+00 0. -1.
          4    1    6    6  503    0  0.41953082444E+02 -0.12758453211E+03 -0.42129133962E+02  0.14075772764E+03  0.00000000000E+00 0. -1.
         -4    1    6    6    0  503  0.16314782414E+03 -0.13780072693E+03 -0.77798174947E+02  0.22728574282E+03  0.00000000000E+00 0.  1.
<mgrwt>
<rscale>  0 0.53162022E+03</rscale>
<asrwt>0</asrwt>
<pdfrwt beam="1">  1        1 0.21946328E+00 0.53162022E+03</pdfrwt>
<pdfrwt beam="2">  1       -1 0.60825403E-01 0.53162022E+03</pdfrwt>
<totfact> 0.21565688E+01</totfact>
</mgrwt>
</event>
<event>
12    1  0.1444206E-007  0.1253078E+04  0.7818608E-02  0.9067625E-01
         -2   -1    0    0    0  501 -0.00000000000E+00  0.00000000000E+00  0.13742969322E+04  0.13742969322E+04  0.00000000000E+00 0. -1.
          2   -1    0    0  501    0  0.00000000000E+00 -0.00000000000E+00 -0.20818445847E+04  0.20818445847E+04  0.00000000000E+00 0.  1.
         23    2    1    2    0    0  0.94548830309E+03  0.80787664014E+03  0.74451902382E+03  0.14523867234E+04  0.92227005501E+02 0.  0.
    5000000    2    1    2    0    0 -0.94548830309E+03 -0.80787664014E+03 -0.14520666763E+04  0.20037547935E+04  0.59993569907E+03 0.  0.
         23    2    4    4    0    0 -0.18102395090E+03 -0.25256957549E+03 -0.76882674664E+03  0.83417036262E+03  0.90468592663E+02 0.  0.
         23    2    4    4    0    0 -0.76446435218E+03 -0.55530706465E+03 -0.68323992966E+03  0.11695844309E+04  0.91319535836E+02 0.  0.
          1    1    3    3  502    0  0.32833726526E+03  0.31843955591E+03  0.31327041233E+03  0.55438926917E+03  0.00000000000E+00 0. -1.
         -1    1    3    3    0  502  0.61715103783E+03  0.48943708423E+03  0.43124861149E+03  0.89799745424E+03  0.00000000000E+00 0.  1.
         13    1    5    5    0    0 -0.11658770593E+03 -0.18349866481E+03 -0.42198174346E+03  0.47469257944E+03  0.00000000000E+00 0. -1.
        -13    1    5    5    0    0 -0.64436244974E+02 -0.69070910677E+02 -0.34684500318E+03  0.35947778318E+03  0.00000000000E+00 0.  1.
          2    1    6    6  503    0 -0.29760608085E+03 -0.27170216747E+03 -0.29543728749E+03  0.49967453208E+03  0.00000000000E+00 0. -1.
         -2    1    6    6    0  503 -0.46685827133E+03 -0.28360489717E+03 -0.38780264217E+03  0.66990989878E+03  0.00000000000E+00 0.  1.
<mgrwt>
<rscale>  0 0.12530780E+04</rscale>
<asrwt>0</asrwt>
<pdfrwt beam="1">  1        2 0.32028378E+00 0.12530780E+04</pdfrwt>
<pdfrwt beam="2">  1       -2 0.21143030E+00 0.12530780E+04</pdfrwt>
<totfact> 0.65091284E-01</totfact>
</mgrwt>
</event>
<event>
12    1  0.1444206E-007  0.1151756E+04  0.7818608E-02  0.9156165E-01
          2   -1    0    0  501    0  0.00000000000E+00  0.00000000000E+00  0.13383716202E+04  0.13383716202E+04  0.00000000000E+00 0. -1.
         -2   -1    0    0    0  501 -0.00000000000E+00 -0.00000000000E+00 -0.11171687452E+04  0.11171687452E+04  0.00000000000E+00 0.  1.
         23    2    1    2    0    0  0.78914304594E+03  0.78493300913E+03  0.38321428670E+03  0.11807681204E+04  0.92160668542E+02 0.  0.
    5000000    2    1    2    0    0 -0.78914304594E+03 -0.78493300913E+03 -0.16201141173E+03  0.12747722450E+04  0.59994166667E+03 0.  0.
         23    2    4    4    0    0 -0.46280605858E+03 -0.71434984868E+03 -0.28904121160E+03  0.90350039513E+03  0.91010921523E+02 0.  0.
         23    2    4    4    0    0 -0.32633698736E+03 -0.70583160455E+02  0.12702979988E+03  0.37127184991E+03  0.10113557543E+03 0.  0.
          4    1    3    3  502    0  0.59606700367E+03  0.54012271273E+03  0.25749456780E+03  0.84458976439E+03  0.00000000000E+00 0. -1.
         -4    1    3    3    0  502  0.19307604227E+03  0.24481029640E+03  0.12571971890E+03  0.33617835600E+03  0.00000000000E+00 0.  1.
         13    1    5    5    0    0 -0.22121126188E+03 -0.28905613612E+03 -0.86676868895E+02  0.37416674333E+03  0.00000000000E+00 0.  1.
        -13    1    5    5    0    0 -0.24159479670E+03 -0.42529371255E+03 -0.20236434271E+03  0.52933365180E+03  0.00000000000E+00 0. -1.
          3    1    6    6  503    0 -0.17704716650E+03 -0.30496464220E+02  0.12094891157E+03  0.21657417368E+03  0.00000000000E+00 0. -1.
         -3    1    6    6    0  503 -0.14928982087E+03 -0.40086696235E+02  0.60808883113E+01  0.15469767623E+03  0.00000000000E+00 0.  1.
<mgrwt>
<rscale>  0 0.11517563E+04</rscale>
<asrwt>0</asrwt>
<pdfrwt beam="1">  1        2 0.20590332E+00 0.11517563E+04</pdfrwt>
<pdfrwt beam="2">  1       -2 0.17187212E+00 0.11517563E+04</pdfrwt>
<totfact> 0.31671005E+00</totfact>
</mgrwt>
</event>
<event>
12    1  0.1444206E-007  0.5654118E+03  0.7818608E-02  0.9979883E-01
          2   -1    0    0  501    0  0.00000000000E+00  0.00000000000E+00  0.21164291385E+04  0.21164291385E+04  0.00000000000E+00 0. -1.
         -2   -1    0    0    0  501 -0.00000000000E+00 -0.00000000000E+00 -0.52410188322E+03  0.52410188322E+03  0.00000000000E+00 0.  1.
         23    2    1    2    0    0 -0.45677189576E+03  0.23863440652E+03 -0.28969385950E+03  0.59877145550E+03  0.94961986960E+02 0.  0.
    5000000    2    1    2    0    0  0.45677189576E+03 -0.23863440652E+03  0.18820211147E+04  0.20417595662E+04  0.60099226701E+03 0.  0.
         23    2    4    4    0    0  0.45460865118E+03 -0.11963660539E+03  0.18161570954E+04  0.18780159051E+04  0.86805539803E+02 0.  0.
         23    2    4    4    0    0  0.21632445787E+01 -0.11899780113E+03  0.65864019360E+02  0.16374366104E+03  0.91152406353E+02 0.  0.
          1    1    3    3  502    0 -0.38225434041E+03  0.19476904027E+03 -0.19724210909E+03  0.47218408424E+03  0.00000000000E+00 0. -1.
         -1    1    3    3    0  502 -0.74517555347E+02  0.43865366256E+02 -0.92451750400E+02  0.12658737127E+03  0.00000000000E+00 0.  1.
         11    1    5    5    0    0  0.20314848812E+03 -0.91429415476E+02  0.76059810210E+03  0.79255165079E+03  0.00000000000E+00 0. -1.
        -11    1    5    5    0    0  0.25146016305E+03 -0.28207189912E+02  0.10555589933E+04  0.10854642544E+04  0.00000000000E+00 0.  1.
          1    1    6    6  503    0  0.30351416275E+02 -0.19410574188E+02 -0.76018741933E+01  0.36820746210E+02  0.00000000000E+00 0. -1.
         -1    1    6    6    0  503 -0.28188171696E+02 -0.99587226947E+02  0.73465893553E+02  0.12692291483E+03  0.00000000000E+00 0.  1.
<mgrwt>
<rscale>  0 0.56541179E+03</rscale>
<asrwt>0</asrwt>
<pdfrwt beam="1">  1        2 0.32560448E+00 0.56541179E+03</pdfrwt>
<pdfrwt beam="2">  1       -2 0.80631060E-01 0.56541179E+03</pdfrwt>
<totfact> 0.83942157E+00</totfact>
</mgrwt>
</event>
<event>
12    1  0.1444206E-007  0.5294140E+03  0.7818608E-02  0.1006374E+00
          2   -1    0    0  501    0  0.00000000000E+00  0.00000000000E+00  0.99432954421E+03  0.99432954421E+03  0.00000000000E+00 0.  1.
         -2   -1    0    0    0  501 -0.00000000000E+00 -0.00000000000E+00 -0.42939069410E+03  0.42939069410E+03  0.00000000000E+00 0. -1.
         23    2    1    2    0    0  0.24527680487E+03  0.44717566224E+03  0.25375016329E+03  0.57699274580E+03  0.91677147806E+02 0.  0.
    5000000    2    1    2    0    0 -0.24527680487E+03 -0.44717566224E+03  0.31118868682E+03  0.84672749250E+03  0.59998521969E+03 0.  0.
         23    2    4    4    0    0 -0.48651680445E+02 -0.17425830240E+03  0.43302006594E+03  0.47780521931E+03  0.89769193640E+02 0.  0.
         23    2    4    4    0    0 -0.19662512443E+03 -0.27291735984E+03 -0.12183137912E+03  0.36892227319E+03  0.90085702863E+02 0.  0.
          3    1    3    3  502    0  0.12031633555E+02  0.89192531695E+02  0.57600867801E+02  0.10685470456E+03  0.00000000000E+00 0. -1.
         -3    1    3    3    0  502  0.23324517132E+03  0.35798313055E+03  0.19614929549E+03  0.47013804124E+03  0.00000000000E+00 0.  1.
         11    1    5    5    0    0 -0.71334070354E+02 -0.10926802452E+03  0.31842195101E+03  0.34412292812E+03  0.00000000000E+00 0. -1.
        -11    1    5    5    0    0  0.22682389909E+02 -0.64990277882E+02  0.11459811493E+03  0.13368229119E+03  0.00000000000E+00 0.  1.
          2    1    6    6  503    0 -0.82144366997E+01 -0.48608490672E+02  0.53090225662E+01  0.49582739500E+02  0.00000000000E+00 0. -1.
         -2    1    6    6    0  503 -0.18841068773E+03 -0.22430886917E+03 -0.12714040169E+03  0.31933953369E+03  0.00000000000E+00 0.  1.
<mgrwt>
<rscale>  0 0.52941395E+03</rscale>
<asrwt>0</asrwt>
<pdfrwt beam="1">  1        2 0.15297378E+00 0.52941395E+03</pdfrwt>
<pdfrwt beam="2">  1       -2 0.66060107E-01 0.52941395E+03</pdfrwt>
<totfact> 0.55591497E+01</totfact>
</mgrwt>
</event>
<event>
12    1  0.1444206E-007  0.9370256E+03  0.7818608E-02  0.9380446E-01
         -2   -1    0    0    0  501 -0.00000000000E+00  0.00000000000E+00  0.12529859232E+04  0.12529859232E+04  0.00000000000E+00 0.  1.
          2   -1    0    0  501    0  0.00000000000E+00 -0.00000000000E+00 -0.12892299787E+04  0.12892299787E+04  0.00000000000E+00 0. -1.
         23    2    1    2    0    0 -0.87886272919E+03 -0.10859082516E+02 -0.83188543508E+03  0.12134145129E+04  0.88452170586E+02 0.  0.
    5000000    2    1    2    0    0  0.87886272919E+03  0.10859082516E+02  0.79564137959E+03  0.13288013890E+04  0.60012524531E+03 0.  0.
         23    2    4    4    0    0  0.33711376137E+03  0.21467191736E+03  0.56838955592E+03  0.70057506653E+03  0.89493107932E+02 0.  0.
         23    2    4    4    0    0  0.54174896782E+03 -0.20381283484E+03  0.22725182368E+03  0.62822632246E+03  0.89405285623E+02 0.  0.
          2    1    3    3  502    0 -0.55112598730E+03 -0.39831457803E+02 -0.55834706210E+03  0.78554302280E+03  0.00000000000E+00 0. -1.
         -2    1    3    3    0  502 -0.32773674189E+03  0.28972375288E+02 -0.27353837298E+03  0.42787149006E+03  0.00000000000E+00 0.  1.
         13    1    5    5    0    0  0.10817481009E+03  0.23144591730E+02  0.16851460933E+03  0.20158034434E+03  0.00000000000E+00 0. -1.
        -13    1    5    5    0    0  0.22893895128E+03  0.19152732563E+03  0.39987494658E+03  0.49899472220E+03  0.00000000000E+00 0.  1.
          2    1    6    6  503    0  0.20781992247E+03 -0.11632596345E+03  0.12041799432E+03  0.26687327199E+03  0.00000000000E+00 0. -1.
         -2    1    6    6    0  503  0.33392904534E+03 -0.87486871396E+02  0.10683382936E+03  0.36135305047E+03  0.00000000000E+00 0.  1.
<mgrwt>
<rscale>  0 0.93702561E+03</rscale>
<asrwt>0</asrwt>
<pdfrwt beam="1">  1        2 0.19834307E+00 0.93702561E+03</pdfrwt>
<pdfrwt beam="2">  1       -2 0.19276707E+00 0.93702561E+03</pdfrwt>
<totfact> 0.24911404E+00</totfact>
</mgrwt>
</event>
<event>
12    1  0.1444206E-007  0.8785270E+03  0.7818608E-02  0.9452829E-01
          2   -1    0    0  501    0  0.00000000000E+00  0.00000000000E+00  0.95006002128E+03  0.95006002128E+03  0.00000000000E+00 0. -1.
         -2   -1    0    0    0  501 -0.00000000000E+00 -0.00000000000E+00 -0.96226419982E+03  0.96226419982E+03  0.00000000000E+00 0.  1.
         23    2    1    2    0    0  0.41606335676E+03  0.70035733365E+03  0.26215211032E+03  0.86403790100E+03  0.11928392084E+03 0.  0.
    5000000    2    1    2    0    0 -0.41606335676E+03 -0.70035733365E+03 -0.27435628886E+03  0.10482863201E+04  0.60001976970E+03 0.  0.
         23    2    4    4    0    0 -0.47630527202E+03 -0.66823984272E+03 -0.88925486646E+02  0.83031834694E+03  0.90053403842E+02 0.  0.
         23    2    4    4    0    0  0.60241915251E+02 -0.32117490930E+02 -0.18543080221E+03  0.21796797316E+03  0.92004528892E+02 0.  0.
          4    1    3    3  502    0  0.37514031113E+03  0.58475620974E+03  0.18427252238E+03  0.71876730614E+03  0.00000000000E+00 0. -1.
         -4    1    3    3    0  502  0.40923045630E+02  0.11560112391E+03  0.77879587935E+02  0.14527059485E+03  0.00000000000E+00 0.  1.
         13    1    5    5    0    0 -0.19566524814E+03 -0.35204947306E+03 -0.44264752884E+02  0.40519512479E+03  0.00000000000E+00 0.  1.
        -13    1    5    5    0    0 -0.28064002387E+03 -0.31619036967E+03 -0.44660733762E+02  0.42512322215E+03  0.00000000000E+00 0. -1.
          3    1    6    6  503    0 -0.23131510748E+02  0.36468969045E+01 -0.30830812614E+02  0.38715702924E+02  0.00000000000E+00 0. -1.
         -3    1    6    6    0  503  0.83373425998E+02 -0.35764387834E+02 -0.15459998960E+03  0.17925227023E+03  0.00000000000E+00 0.  1.
<mgrwt>
<rscale>  0 0.87852705E+03</rscale>
<asrwt>0</asrwt>
<pdfrwt beam="1">  1        2 0.14616308E+00 0.87852705E+03</pdfrwt>
<pdfrwt beam="2">  1       -2 0.14804065E+00 0.87852705E+03</pdfrwt>
<totfact> 0.84484996E+00</totfact>
</mgrwt>
</event>
<event>
12    1  0.1444206E-007  0.1040882E+04  0.7818608E-02  0.9264809E-01
          1   -1    0    0  501    0  0.00000000000E+00  0.00000000000E+00  0.22244486173E+04  0.22244486173E+04  0.00000000000E+00 0. -1.
         -1   -1    0    0    0  501 -0.00000000000E+00 -0.00000000000E+00 -0.82849743055E+03  0.82849743055E+03  0.00000000000E+00 0.  1.
         23    2    1    2    0    0  0.67770934759E+03 -0.69483119707E+03 -0.29003440868E+03  0.10171451897E+04  0.91564329285E+02 0.  0.
    5000000    2    1    2    0    0 -0.67770934759E+03  0.69483119707E+03  0.16859855955E+04  0.20358008582E+04  0.59988111653E+03 0.  0.
         23    2    4    4    0    0 -0.55775975790E+01  0.33459527590E+03  0.33818465326E+03  0.48459391965E+03  0.92072248876E+02 0.  0.
         23    2    4    4    0    0 -0.67213175002E+03  0.36023592117E+03  0.13478009422E+04  0.15512069386E+04  0.90247316657E+02 0.  0.
          3    1    3    3  502    0  0.17785994519E+03 -0.22627070774E+03 -0.56418835023E+02  0.29328429591E+03  0.00000000000E+00 0.  1.
         -3    1    3    3    0  502  0.49984940240E+03 -0.46856048934E+03 -0.23361557365E+03  0.72386089375E+03  0.00000000000E+00 0. -1.
         13    1    5    5    0    0 -0.40675197702E+02  0.16484914109E+03  0.20382168236E+03  0.26527907800E+03  0.00000000000E+00 0. -1.
        -13    1    5    5    0    0  0.35097600123E+02  0.16974613482E+03  0.13436297089E+03  0.21931484165E+03  0.00000000000E+00 0.  1.
          2    1    6    6  503    0 -0.36780232271E+02  0.39535074229E+02  0.12866403727E+03  0.13953580927E+03  0.00000000000E+00 0. -1.
         -2    1    6    6    0  503 -0.63535151774E+03  0.32070084694E+03  0.12191369049E+04  0.14116711293E+04  0.00000000000E+00 0.  1.
<mgrwt>
<rscale>  0 0.10408818E+04</rscale>
<asrwt>0</asrwt>
<pdfrwt beam="1">  1        1 0.34222286E+00 0.10408818E+04</pdfrwt>
<pdfrwt beam="2">  1       -1 0.12746114E+00 0.10408818E+04</pdfrwt>
<totfact> 0.11259233E+00</totfact>
</mgrwt>
</event>
<event>
12    1  0.1444206E-007  0.5815904E+03  0.7818608E-02  0.9944354E-01
         -2   -1    0    0    0  501 -0.00000000000E+00  0.00000000000E+00  0.54387824141E+03  0.54387824141E+03  0.00000000000E+00 0. -1.
          2   -1    0    0  501    0  0.00000000000E+00 -0.00000000000E+00 -0.72356960968E+03  0.72356960968E+03  0.00000000000E+00 0.  1.
         23    2    1    2    0    0 -0.73929550410E+02  0.47142361904E+03 -0.11634966697E+03  0.49804947703E+03  0.82524114986E+02 0.  0.
    5000000    2    1    2    0    0  0.73929550410E+02 -0.47142361904E+03 -0.63341701302E+02  0.76939837406E+03  0.60021319535E+03 0.  0.
         23    2    4    4    0    0 -0.12402892332E+03 -0.44940256127E+03 -0.19467337253E+03  0.51431158264E+03  0.96295618638E+02 0.  0.
         23    2    4    4    0    0  0.19795847373E+03 -0.22021057768E+02  0.13133167123E+03  0.25508679142E+03  0.90270587578E+02 0.  0.
          1    1    3    3  502    0 -0.53319681724E+02  0.22902377708E+03 -0.18640504545E+02  0.23588630172E+03  0.00000000000E+00 0. -1.
         -1    1    3    3    0  502 -0.20609868685E+02  0.24239984196E+03 -0.97709162429E+02  0.26216317532E+03  0.00000000000E+00 0.  1.
         13    1    5    5    0    0 -0.62535629500E+02 -0.19756925828E+03 -0.13794711305E+03  0.24894522043E+03  0.00000000000E+00 0. -1.
        -13    1    5    5    0    0 -0.61493293823E+02 -0.25183330299E+03 -0.56726259479E+02  0.26536636222E+03  0.00000000000E+00 0.  1.
          4    1    6    6  503    0  0.87150384814E+02  0.34710780505E+02  0.63965832261E+02  0.11354142660E+03  0.00000000000E+00 0. -1.
         -4    1    6    6    0  503  0.11080808892E+03 -0.56731838273E+02  0.67365838964E+02  0.14154536482E+03  0.00000000000E+00 0.  1.
<mgrwt>
<rscale>  0 0.58159036E+03</rscale>
<asrwt>0</asrwt>
<pdfrwt beam="1">  1        2 0.11131840E+00 0.58159036E+03</pdfrwt>
<pdfrwt beam="2">  1       -2 0.83673577E-01 0.58159036E+03</pdfrwt>
<totfact> 0.50418241E+01</totfact>
</mgrwt>
</event>
<event>
12    1  0.1444206E-007  0.3830190E+03  0.7818608E-02  0.1049824E+00
         -2   -1    0    0    0  501 -0.00000000000E+00  0.00000000000E+00  0.22370336671E+03  0.22370336671E+03  0.00000000000E+00 0.  1.
          2   -1    0    0  501    0  0.00000000000E+00 -0.00000000000E+00 -0.11516996673E+04  0.11516996673E+04  0.00000000000E+00 0. -1.
         23    2    1    2    0    0 -0.26702148781E+03  0.15795645483E+03 -0.42577807209E+03  0.53372920462E+03  0.85610633786E+02 0.  0.
    5000000    2    1    2    0    0  0.26702148781E+03 -0.15795645483E+03 -0.50221822848E+03  0.84167382937E+03  0.59995080587E+03 0.  0.
         23    2    4    4    0    0  0.13209245540E+03  0.67340235073E+02 -0.53390801628E+03  0.56119545227E+03  0.88878803803E+02 0.  0.
         23    2    4    4    0    0  0.13492903241E+03 -0.22529668991E+03  0.31689787805E+02  0.28047837710E+03  0.93270762299E+02 0.  0.
          1    1    3    3  502    0 -0.71913782564E+02  0.87851189287E+02 -0.17101001860E+03  0.20526531622E+03  0.00000000000E+00 0. -1.
         -1    1    3    3    0  502 -0.19510770525E+03  0.70105265547E+02 -0.25476805349E+03  0.32846388840E+03  0.00000000000E+00 0.  1.
         11    1    5    5    0    0  0.58546734007E+02 -0.16584430661E+02 -0.16998294330E+03  0.18054629439E+03  0.00000000000E+00 0.  1.
        -11    1    5    5    0    0  0.73545721390E+02  0.83924665734E+02 -0.36392507298E+03  0.38064915789E+03  0.00000000000E+00 0. -1.
          1    1    6    6  503    0  0.58132991040E+02 -0.16550621756E+03  0.47829065490E+02  0.18182236442E+03  0.00000000000E+00 0. -1.
         -1    1    6    6    0  503  0.76796041375E+02 -0.59790472352E+02 -0.16139277684E+02  0.98656012686E+02  0.00000000000E+00 0.  1.
<mgrwt>
<rscale>  0 0.38301904E+03</rscale>
<asrwt>0</asrwt>
<pdfrwt beam="1">  1        2 0.17718456E+00 0.38301904E+03</pdfrwt>
<pdfrwt beam="2">  1       -2 0.34415903E-01 0.38301904E+03</pdfrwt>
<totfact> 0.16781605E+02</totfact>
</mgrwt>
</event>
<event>
12    1  0.1444206E-007  0.1004455E+04  0.7818608E-02  0.9303672E-01
          2   -1    0    0  501    0  0.00000000000E+00  0.00000000000E+00  0.13512981802E+04  0.13512981802E+04  0.00000000000E+00 0. -1.
         -2   -1    0    0    0  501 -0.00000000000E+00 -0.00000000000E+00 -0.13235300690E+04  0.13235300690E+04  0.00000000000E+00 0.  1.
         23    2    1    2    0    0  0.75944632612E+03  0.63093647498E+03 -0.78312148654E+03  0.12633107337E+04  0.88516606140E+02 0.  0.
    5000000    2    1    2    0    0 -0.75944632612E+03 -0.63093647498E+03  0.81088959777E+03  0.14115175155E+04  0.60000016581E+03 0.  0.
         23    2    4    4    0    0 -0.71913249240E+03 -0.55939072687E+03  0.42636679415E+03  0.10096326058E+04  0.86601551323E+02 0.  0.
         23    2    4    4    0    0 -0.40313833720E+02 -0.71545748113E+02  0.38452280362E+03  0.40188490963E+03  0.83124574091E+02 0.  0.
          1    1    3    3  502    0  0.68573799803E+03  0.59121247444E+03 -0.73871590404E+03  0.11685332596E+04  0.00000000000E+00 0. -1.
         -1    1    3    3    0  502  0.73708328082E+02  0.39724000542E+02 -0.44405582505E+02  0.94777474145E+02  0.00000000000E+00 0.  1.
         13    1    5    5    0    0 -0.69741194753E+02 -0.77929049145E+02  0.27236114203E+02  0.10806746441E+03  0.00000000000E+00 0. -1.
        -13    1    5    5    0    0 -0.64939129764E+03 -0.48146167773E+03  0.39913067995E+03  0.90156514143E+03  0.00000000000E+00 0.  1.
          3    1    6    6  503    0  0.19418700118E+02 -0.20178546527E+02  0.42435588251E+02  0.50843276885E+02  0.00000000000E+00 0. -1.
         -3    1    6    6    0  503 -0.59732533837E+02 -0.51367201586E+02  0.34208721537E+03  0.35104163274E+03  0.00000000000E+00 0.  1.
<mgrwt>
<rscale>  0 0.10044549E+04</rscale>
<asrwt>0</asrwt>
<pdfrwt beam="1">  1        2 0.20789203E+00 0.10044549E+04</pdfrwt>
<pdfrwt beam="2">  1       -2 0.20362001E+00 0.10044549E+04</pdfrwt>
<totfact> 0.19291747E+00</totfact>
</mgrwt>
</event>
<event>
12    1  0.1444206E-007  0.4529562E+03  0.7818608E-02  0.1026844E+00
         -2   -1    0    0    0  501 -0.00000000000E+00  0.00000000000E+00  0.76651863249E+02  0.76651863249E+02  0.00000000000E+00 0.  1.
          2   -1    0    0  501    0  0.00000000000E+00 -0.00000000000E+00 -0.30830025956E+04  0.30830025956E+04  0.00000000000E+00 0. -1.
         23    2    1    2    0    0 -0.20260972530E+03  0.15653258511E+03 -0.13951899205E+04  0.14214020643E+04  0.90971222119E+02 0.  0.
    5000000    2    1    2    0    0  0.20260972530E+03 -0.15653258511E+03 -0.16111608119E+04  0.17382523946E+04  0.60010755237E+03 0.  0.
         23    2    4    4    0    0 -0.16845700097E+03 -0.18292945142E+03 -0.56619016699E+03  0.62520747944E+03  0.92044238195E+02 0.  0.
         23    2    4    4    0    0  0.37106672626E+03  0.26396866317E+02 -0.10449706449E+04  0.11130449151E+04  0.92293144115E+02 0.  0.
          2    1    3    3  502    0 -0.16551442927E+03  0.82762113284E+02 -0.10705137598E+04  0.10863904932E+04  0.00000000000E+00 0. -1.
         -2    1    3    3    0  502 -0.37095296032E+02  0.73770471823E+02 -0.32467616062E+03  0.33501157111E+03  0.00000000000E+00 0.  1.
         13    1    5    5    0    0 -0.13972258913E+03 -0.18403733573E+03 -0.45437155337E+03  0.50975057760E+03  0.00000000000E+00 0.  1.
        -13    1    5    5    0    0 -0.28734411838E+02  0.11078843015E+01 -0.11181861362E+03  0.11545690184E+03  0.00000000000E+00 0. -1.
          1    1    6    6  503    0  0.24882356464E+03 -0.15331020722E+02 -0.60065025075E+03  0.65032986264E+03  0.00000000000E+00 0. -1.
         -1    1    6    6    0  503  0.12224316163E+03  0.41727887039E+02 -0.44432039419E+03  0.46271505250E+03  0.00000000000E+00 0.  1.
<mgrwt>
<rscale>  0 0.45295624E+03</rscale>
<asrwt>0</asrwt>
<pdfrwt beam="1">  1        2 0.47430815E+00 0.45295624E+03</pdfrwt>
<pdfrwt beam="2">  1       -2 0.11792593E-01 0.45295624E+03</pdfrwt>
<totfact> 0.89994843E+01</totfact>
</mgrwt>
</event>
<event>
12    1  0.1444206E-007  0.7397177E+03  0.7818608E-02  0.9651621E-01
          2   -1    0    0  501    0  0.00000000000E+00  0.00000000000E+00  0.12675986971E+04  0.12675986971E+04  0.00000000000E+00 0. -1.
         -2   -1    0    0    0  501 -0.00000000000E+00 -0.00000000000E+00 -0.11971646494E+04  0.11971646494E+04  0.00000000000E+00 0.  1.
         23    2    1    2    0    0  0.72980667444E+03  0.52533572020E+02  0.92940716022E+03  0.11868190769E+04  0.96769279710E+02 0.  0.
    5000000    2    1    2    0    0 -0.72980667444E+03 -0.52533572020E+02 -0.85897311253E+03  0.12779442696E+04  0.59994098868E+03 0.  0.
         23    2    4    4    0    0 -0.16773949716E+03  0.41864104257E+02  0.49831615456E+02  0.20137975222E+03  0.90451492923E+02 0.  0.
         23    2    4    4    0    0 -0.56206717728E+03 -0.94397676277E+02 -0.90880472799E+03  0.10765645174E+04  0.90745211468E+02 0.  0.
          3    1    3    3  502    0  0.55018542370E+03  0.64132928335E+02  0.75304755555E+03  0.93482493220E+03  0.00000000000E+00 0. -1.
         -3    1    3    3    0  502  0.17962125074E+03 -0.11599356315E+02  0.17635960467E+03  0.25199414467E+03  0.00000000000E+00 0.  1.
         13    1    5    5    0    0 -0.69720233107E+02  0.42424135492E+01 -0.23069871868E+02  0.73560369529E+02  0.00000000000E+00 0. -1.
        -13    1    5    5    0    0 -0.98019264056E+02  0.37621690708E+02  0.72901487324E+02  0.12781938269E+03  0.00000000000E+00 0.  1.
          4    1    6    6  503    0 -0.48702548117E+03 -0.71598448232E+02 -0.72076357549E+03  0.87282317158E+03  0.00000000000E+00 0. -1.
         -4    1    6    6    0  503 -0.75041696111E+02 -0.22799228045E+02 -0.18804115249E+03  0.20374134579E+03  0.00000000000E+00 0.  1.
<mgrwt>
<rscale>  0 0.73971774E+03</rscale>
<asrwt>0</asrwt>
<pdfrwt beam="1">  1        2 0.19501518E+00 0.73971774E+03</pdfrwt>
<pdfrwt beam="2">  1       -2 0.18417918E+00 0.73971774E+03</pdfrwt>
<totfact> 0.30119006E+00</totfact>
</mgrwt>
</event>
<event>
12    1  0.1444206E-007  0.8505895E+03  0.7818608E-02  0.9489546E-01
         -1   -1    0    0    0  501 -0.00000000000E+00  0.00000000000E+00  0.61736869782E+03  0.61736869782E+03  0.00000000000E+00 0.  1.
          1   -1    0    0  501    0  0.00000000000E+00 -0.00000000000E+00 -0.12950922760E+04  0.12950922760E+04  0.00000000000E+00 0. -1.
         23    2    1    2    0    0 -0.18141187042E+03 -0.76892848561E+03 -0.26992869754E+03  0.83985490584E+03  0.91287887466E+02 0.  0.
    5000000    2    1    2    0    0  0.18141187042E+03  0.76892848561E+03 -0.40779488065E+03  0.10726060680E+04  0.60002152435E+03 0.  0.
         23    2    4    4    0    0  0.29168688350E+03  0.30459704542E+03 -0.39677714352E+03  0.58634813783E+03  0.92257460614E+02 0.  0.
         23    2    4    4    0    0 -0.11027501308E+03  0.46433144019E+03 -0.11017737129E+02  0.48625793015E+03  0.92526316492E+02 0.  0.
          4    1    3    3  502    0 -0.21691435874E+02 -0.11752673492E+03 -0.78424534848E+01  0.11976876006E+03  0.00000000000E+00 0. -1.
         -4    1    3    3    0  502 -0.15972043454E+03 -0.65140175069E+03 -0.26208624406E+03  0.72008614578E+03  0.00000000000E+00 0.  1.
         11    1    5    5    0    0  0.19517189692E+03  0.13884156827E+03 -0.23255995637E+03  0.33384604796E+03  0.00000000000E+00 0.  1.
        -11    1    5    5    0    0  0.96514986574E+02  0.16575547714E+03 -0.16421718715E+03  0.25250208987E+03  0.00000000000E+00 0. -1.
          1    1    6    6  503    0 -0.16687959808E+02  0.16941104701E+03 -0.41886944606E+02  0.17530860498E+03  0.00000000000E+00 0. -1.
         -1    1    6    6    0  503 -0.93587053270E+02  0.29492039319E+03  0.30869207477E+02  0.31094932518E+03  0.00000000000E+00 0.  1.
<mgrwt>
<rscale>  0 0.85058945E+03</rscale>
<asrwt>0</asrwt>
<pdfrwt beam="1">  1        1 0.19924496E+00 0.85058945E+03</pdfrwt>
<pdfrwt beam="2">  1       -1 0.94979801E-01 0.85058945E+03</pdfrwt>
<totfact> 0.99809114E+00</totfact>
</mgrwt>
</event>
<event>
12    1  0.1444206E-007  0.1598162E+04  0.7818608E-02  0.8821678E-01
          1   -1    0    0  501    0  0.00000000000E+00  0.00000000000E+00  0.12941642561E+04  0.12941642561E+04  0.00000000000E+00 0. -1.
         -1   -1    0    0    0  501 -0.00000000000E+00 -0.00000000000E+00 -0.20213750326E+04  0.20213750326E+04  0.00000000000E+00 0.  1.
         23    2    1    2    0    0 -0.29311536734E+03 -0.15321973388E+04 -0.39136421898E+03  0.16108958427E+04  0.90962411923E+02 0.  0.
    5000000    2    1    2    0    0  0.29311536734E+03  0.15321973388E+04 -0.33584655754E+03  0.17046434461E+04  0.59955905819E+03 0.  0.
         23    2    4    4    0    0  0.17376930716E+03  0.11670421196E+03 -0.13745220059E+03  0.26707191015E+03  0.92836698248E+02 0.  0.
         23    2    4    4    0    0  0.11934606018E+03  0.14154931269E+04 -0.19839435695E+03  0.14375715359E+04  0.96888212262E+02 0.  0.
          2    1    3    3  502    0 -0.46736992313E+02 -0.26633889234E+03 -0.10354716811E+03  0.28955615698E+03  0.00000000000E+00 0. -1.
         -2    1    3    3    0  502 -0.24637837503E+03 -0.12658584465E+04 -0.28781705087E+03  0.13213396857E+04  0.00000000000E+00 0.  1.
         11    1    5    5    0    0  0.65587450814E+02  0.20085597954E+02 -0.92620755342E+02  0.11525514856E+03  0.00000000000E+00 0.  1.
        -11    1    5    5    0    0  0.10818185635E+03  0.96618614009E+02 -0.44831445246E+02  0.15181676159E+03  0.00000000000E+00 0. -1.
          4    1    6    6  503    0  0.44414281164E+02  0.20043762750E+03 -0.49082711425E+02  0.21108525162E+03  0.00000000000E+00 0. -1.
         -4    1    6    6    0  503  0.74931779011E+02  0.12150554994E+04 -0.14931164553E+03  0.12264862843E+04  0.00000000000E+00 0.  1.
<mgrwt>
<rscale>  0 0.15981623E+04</rscale>
<asrwt>0</asrwt>
<pdfrwt beam="1">  1        1 0.19910219E+00 0.15981623E+04</pdfrwt>
<pdfrwt beam="2">  1       -1 0.31098077E+00 0.15981623E+04</pdfrwt>
<totfact> 0.23995165E-01</totfact>
</mgrwt>
</event>
<event>
12    1  0.1722178E-007  0.1585032E+04  0.7818608E-02  0.8829797E-01
         -2   -1    0    0    0  501 -0.00000000000E+00  0.00000000000E+00  0.10817913863E+04  0.10817913863E+04  0.00000000000E+00 0.  1.
          2   -1    0    0  501    0  0.00000000000E+00 -0.00000000000E+00 -0.27426548637E+04  0.27426548637E+04  0.00000000000E+00 0. -1.
         23    2    1    2    0    0 -0.10651910196E+04  0.11528197774E+04 -0.14354952137E+04  0.21290153471E+04  0.91839492615E+02 0.  0.
    5000000    2    1    2    0    0  0.10651910196E+04 -0.11528197774E+04 -0.22536826378E+03  0.16954309029E+04  0.60005811769E+03 0.  0.
         23    2    4    4    0    0  0.98380511167E+03 -0.97119725587E+03 -0.36891986615E+03  0.14337537321E+04  0.91930892465E+02 0.  0.
         23    2    4    4    0    0  0.81385907918E+02 -0.18162252155E+03  0.14355160237E+03  0.26167717079E+03  0.90870637892E+02 0.  0.
          1    1    3    3  502    0 -0.45228366488E+03  0.52994256812E+03 -0.68631413178E+03  0.97797071864E+03  0.00000000000E+00 0. -1.
         -1    1    3    3    0  502 -0.61290735471E+03  0.62287720929E+03 -0.74918108192E+03  0.11510446285E+04  0.00000000000E+00 0.  1.
         13    1    5    5    0    0  0.68831297338E+03 -0.69900854086E+03 -0.30217820788E+03  0.10264985917E+04  0.00000000000E+00 0. -1.
        -13    1    5    5    0    0  0.29549213828E+03 -0.27218871501E+03 -0.66741658277E+02  0.40725514032E+03  0.00000000000E+00 0.  1.
          1    1    6    6  503    0  0.87686063763E+02 -0.92744942582E+02  0.10189911088E+03  0.16332145894E+03  0.00000000000E+00 0. -1.
         -1    1    6    6    0  503 -0.63001558453E+01 -0.88877578965E+02  0.41652491485E+02  0.98355711849E+02  0.00000000000E+00 0.  1.
<mgrwt>
<rscale>  0 0.15850319E+04</rscale>
<asrwt>0</asrwt>
<pdfrwt beam="1">  1        2 0.42194690E+00 0.15850319E+04</pdfrwt>
<pdfrwt beam="2">  1       -2 0.16642944E+00 0.15850319E+04</pdfrwt>
<totfact> 0.52945231E-01</totfact>
</mgrwt>
</event>
<event>
12    1  0.1444206E-007  0.8398888E+03  0.7818608E-02  0.9504009E-01
         -1   -1    0    0    0  501 -0.00000000000E+00  0.00000000000E+00  0.31462300395E+03  0.31462300395E+03  0.00000000000E+00 0.  1.
          1   -1    0    0  501    0  0.00000000000E+00 -0.00000000000E+00 -0.23439886092E+04  0.23439886092E+04  0.00000000000E+00 0. -1.
         23    2    1    2    0    0 -0.66586821545E+03  0.34661570044E+03 -0.86288585375E+03  0.11472245412E+04  0.89605954484E+02 0.  0.
    5000000    2    1    2    0    0  0.66586821545E+03 -0.34661570044E+03 -0.11664797515E+04  0.15113870720E+04  0.60007745051E+03 0.  0.
         23    2    4    4    0    0  0.61870778979E+03 -0.46838052484E+03 -0.83246991259E+03  0.11415332125E+04  0.88950967938E+02 0.  0.
         23    2    4    4    0    0  0.47160425662E+02  0.12176482440E+03 -0.33400983895E+03  0.36985385952E+03  0.90435207058E+02 0.  0.
          1    1    3    3  502    0 -0.23892985403E+03  0.16199012590E+03 -0.28853857682E+03  0.40814554554E+03  0.00000000000E+00 0. -1.
         -1    1    3    3    0  502 -0.42693836143E+03  0.18462557454E+03 -0.57434727694E+03  0.73907899561E+03  0.00000000000E+00 0.  1.
         11    1    5    5    0    0  0.59288079557E+02 -0.20876469891E+02 -0.47345918539E+02  0.78692689463E+02  0.00000000000E+00 0.  1.
        -11    1    5    5    0    0  0.55941971023E+03 -0.44750405495E+03 -0.78512399405E+03  0.10628405230E+04  0.00000000000E+00 0. -1.
          3    1    6    6  503    0 -0.15264659054E+02  0.46469330667E+02 -0.52113695004E+02  0.71471992526E+02  0.00000000000E+00 0. -1.
         -3    1    6    6    0  503  0.62425084716E+02  0.75295493736E+02 -0.28189614395E+03  0.29838186700E+03  0.00000000000E+00 0.  1.
<mgrwt>
<rscale>  0 0.83988881E+03</rscale>
<asrwt>0</asrwt>
<pdfrwt beam="1">  1        1 0.36061362E+00 0.83988881E+03</pdfrwt>
<pdfrwt beam="2">  1       -1 0.48403541E-01 0.83988881E+03</pdfrwt>
<totfact> 0.76947104E+00</totfact>
</mgrwt>
</event>
<event>
12    1  0.1444206E-007  0.6139200E+03  0.7818608E-02  0.9876940E-01
          2   -1    0    0  501    0  0.00000000000E+00  0.00000000000E+00  0.11262472851E+04  0.11262472851E+04  0.00000000000E+00 0.  1.
         -2   -1    0    0    0  501 -0.00000000000E+00 -0.00000000000E+00 -0.99174119025E+03  0.99174119025E+03  0.00000000000E+00 0. -1.
         23    2    1    2    0    0  0.20073003882E+03  0.56715038207E+03 -0.69955928727E+03  0.92705827225E+03  0.90009662701E+02 0.  0.
    5000000    2    1    2    0    0 -0.20073003882E+03 -0.56715038207E+03  0.83406538213E+03  0.11909302031E+04  0.60058103754E+03 0.  0.
         23    2    4    4    0    0 -0.65506441174E+02 -0.38366883657E+03  0.85578018003E+03  0.94439254133E+03  0.89580609475E+02 0.  0.
         23    2    4    4    0    0 -0.13522359765E+03 -0.18348154550E+03 -0.21714797906E+02  0.24653766178E+03  0.91424216319E+02 0.  0.
          2    1    3    3  502    0  0.63322431689E+02  0.85579743353E+02 -0.10251129652E+03  0.14779103066E+03  0.00000000000E+00 0. -1.
         -2    1    3    3    0  502  0.13740760713E+03  0.48157063871E+03 -0.59704799075E+03  0.77926724159E+03  0.00000000000E+00 0.  1.
         11    1    5    5    0    0 -0.19174754299E+02 -0.43830080448E+02  0.18404200294E+03  0.19015837084E+03  0.00000000000E+00 0. -1.
        -11    1    5    5    0    0 -0.46331686875E+02 -0.33983875612E+03  0.67173817709E+03  0.75423417049E+03  0.00000000000E+00 0.  1.
          4    1    6    6  503    0 -0.48397754516E+02 -0.43664832839E+02 -0.46540019685E+02  0.80093281250E+02  0.00000000000E+00 0. -1.
         -4    1    6    6    0  503 -0.86825843130E+02 -0.13981671266E+03  0.24825221780E+02  0.16644438053E+03  0.00000000000E+00 0.  1.
<mgrwt>
<rscale>  0 0.61392002E+03</rscale>
<asrwt>0</asrwt>
<pdfrwt beam="1">  1        2 0.17326881E+00 0.61392002E+03</pdfrwt>
<pdfrwt beam="2">  1       -2 0.15257557E+00 0.61392002E+03</pdfrwt>
<totfact> 0.62592986E+00</totfact>
</mgrwt>
</event>
<event>
12    1  0.1444206E-007  0.4667773E+03  0.7818608E-02  0.1022834E+00
         -1   -1    0    0    0  501 -0.00000000000E+00  0.00000000000E+00  0.49374653304E+03  0.49374653304E+03  0.00000000000E+00 0.  1.
          1   -1    0    0  501    0  0.00000000000E+00 -0.00000000000E+00 -0.60756583297E+03  0.60756583297E+03  0.00000000000E+00 0. -1.
         23    2    1    2    0    0 -0.16413001272E+02  0.36268965877E+03  0.55936639646E+02  0.37809450657E+03  0.89517445542E+02 0.  0.
    5000000    2    1    2    0    0  0.16413001272E+02 -0.36268965877E+03 -0.16975593958E+03  0.72321785943E+03  0.60200815442E+03 0.  0.
         23    2    4    4    0    0  0.20542314364E+03 -0.19508299404E+03 -0.30151090493E+03  0.42417077831E+03  0.93573398313E+02 0.  0.
         23    2    4    4    0    0 -0.18901014237E+03 -0.16760666473E+03  0.13175496535E+03  0.29904708112E+03  0.90845791618E+02 0.  0.
          3    1    3    3  502    0  0.31215067139E+02  0.10650524921E+03 -0.26432519263E+01  0.11101682443E+03  0.00000000000E+00 0. -1.
         -3    1    3    3    0  502 -0.47628068411E+02  0.25618440956E+03  0.58579891572E+02  0.26707768214E+03  0.00000000000E+00 0.  1.
         13    1    5    5    0    0  0.62238285277E+02 -0.12283352575E+03 -0.14825004575E+03  0.20233574886E+03  0.00000000000E+00 0.  1.
        -13    1    5    5    0    0  0.14318485836E+03 -0.72249468288E+02 -0.15326085918E+03  0.22183502945E+03  0.00000000000E+00 0. -1.
          2    1    6    6  503    0 -0.17648258724E+03 -0.11691401388E+03  0.82310444035E+02  0.22713432026E+03  0.00000000000E+00 0.  1.
         -2    1    6    6    0  503 -0.12527555127E+02 -0.50692650846E+02  0.49444521319E+02  0.71912760869E+02  0.00000000000E+00 0. -1.
<mgrwt>
<rscale>  0 0.46677727E+03</rscale>
<asrwt>0</asrwt>
<pdfrwt beam="1">  1        1 0.93471666E-01 0.46677727E+03</pdfrwt>
<pdfrwt beam="2">  1       -1 0.75961005E-01 0.46677727E+03</pdfrwt>
<totfact> 0.61555854E+01</totfact>
</mgrwt>
</event>
<event>
12    1  0.1444206E-007  0.6118295E+03  0.7818608E-02  0.9881163E-01
         -2   -1    0    0    0  501 -0.00000000000E+00  0.00000000000E+00  0.19616382390E+03  0.19616382390E+03  0.00000000000E+00 0.  1.
          2   -1    0    0  501    0  0.00000000000E+00 -0.00000000000E+00 -0.20876064818E+04  0.20876064818E+04  0.00000000000E+00 0. -1.
         23    2    1    2    0    0 -0.26449812978E+03  0.40810696501E+03 -0.58702141034E+03  0.76779319236E+03  0.91660757611E+02 0.  0.
    5000000    2    1    2    0    0  0.26449812978E+03 -0.40810696501E+03 -0.13044212476E+04  0.15159771134E+04  0.60013436958E+03 0.  0.
         23    2    4    4    0    0  0.39833646765E+03 -0.43065132174E+03 -0.11417616799E+04  0.12872550223E+04  0.96297748748E+02 0.  0.
         23    2    4    4    0    0 -0.13383833787E+03  0.22544356732E+02 -0.16265956772E+03  0.22872209108E+03  0.86224771800E+02 0.  0.
          3    1    3    3  502    0 -0.79480833134E+02  0.85132681325E+02 -0.19560740351E+03  0.22765551295E+03  0.00000000000E+00 0. -1.
         -3    1    3    3    0  502 -0.18501729664E+03  0.32297428369E+03 -0.39141400682E+03  0.54013767941E+03  0.00000000000E+00 0.  1.
         11    1    5    5    0    0  0.25089929960E+03 -0.33543746036E+03 -0.81423416584E+03  0.91566698377E+03  0.00000000000E+00 0. -1.
        -11    1    5    5    0    0  0.14743716805E+03 -0.95213861385E+02 -0.32752751403E+03  0.37158803852E+03  0.00000000000E+00 0.  1.
          2    1    6    6  503    0 -0.98772067923E+01  0.12892560447E+02  0.75708027947E+01  0.17919106670E+02  0.00000000000E+00 0. -1.
         -2    1    6    6    0  503 -0.12396113108E+03  0.96517962851E+01 -0.17023037052E+03  0.21080298441E+03  0.00000000000E+00 0.  1.
<mgrwt>
<rscale>  0 0.61182952E+03</rscale>
<asrwt>0</asrwt>
<pdfrwt beam="1">  1        2 0.32117022E+00 0.61182952E+03</pdfrwt>
<pdfrwt beam="2">  1       -2 0.30179051E-01 0.61182952E+03</pdfrwt>
<totfact> 0.63497158E+01</totfact>
</mgrwt>
</event>
<event>
12    1  0.1444206E-007  0.1874470E+04  0.7818608E-02  0.8667670E-01
         -1   -1    0    0    0  501 -0.00000000000E+00  0.00000000000E+00  0.10492221491E+04  0.10492221491E+04  0.00000000000E+00 0.  1.
          1   -1    0    0  501    0  0.00000000000E+00 -0.00000000000E+00 -0.36332115579E+04  0.36332115579E+04  0.00000000000E+00 0. -1.
         23    2    1    2    0    0 -0.16424266356E+04 -0.85663170821E+03 -0.17962088226E+04  0.25819802715E+04  0.94195812689E+02 0.  0.
    5000000    2    1    2    0    0  0.16424266356E+04  0.85663170821E+03 -0.78778058624E+03  0.21004534356E+04  0.59993603504E+03 0.  0.
         23    2    4    4    0    0  0.99932370007E+03  0.72542628426E+03 -0.72437150561E+03  0.14344983756E+04  0.90445342723E+02 0.  0.
         23    2    4    4    0    0  0.64310293552E+03  0.13120542394E+03 -0.63409080622E+02  0.66595505997E+03  0.93162124554E+02 0.  0.
          2    1    3    3  502    0 -0.42613068761E+03 -0.26733293132E+03 -0.50466107751E+03  0.71255670809E+03  0.00000000000E+00 0. -1.
         -2    1    3    3    0  502 -0.12162959480E+04 -0.58929877689E+03 -0.12915477451E+04  0.18694235634E+04  0.00000000000E+00 0.  1.
         11    1    5    5    0    0  0.44674771682E+03  0.37532764239E+03 -0.32037379172E+03  0.66565285852E+03  0.00000000000E+00 0. -1.
        -11    1    5    5    0    0  0.55257598324E+03  0.35009864187E+03 -0.40399771389E+03  0.76884551708E+03  0.00000000000E+00 0.  1.
          4    1    6    6  503    0  0.19194610472E+03  0.49572080921E+02  0.22419798209E+02  0.19950775843E+03  0.00000000000E+00 0. -1.
         -4    1    6    6    0  503  0.45115683080E+03  0.81633343021E+02 -0.85828878831E+02  0.46644730154E+03  0.00000000000E+00 0.  1.
<mgrwt>
<rscale>  0 0.18744700E+04</rscale>
<asrwt>0</asrwt>
<pdfrwt beam="1">  1        1 0.55895564E+00 0.18744700E+04</pdfrwt>
<pdfrwt beam="2">  1       -1 0.16141879E+00 0.18744700E+04</pdfrwt>
<totfact> 0.50892936E-02</totfact>
</mgrwt>
</event>
<event>
12    1  0.1444206E-007  0.9264905E+03  0.7818608E-02  0.9393060E-01
         -2   -1    0    0    0  501 -0.00000000000E+00  0.00000000000E+00  0.49468469007E+03  0.49468469007E+03  0.00000000000E+00 0.  1.
          2   -1    0    0  501    0  0.00000000000E+00 -0.00000000000E+00 -0.20602333214E+04  0.20602333214E+04  0.00000000000E+00 0. -1.
         23    2    1    2    0    0 -0.73098944163E+03  0.42344229861E+03 -0.11696943155E+04  0.14457898380E+04  0.92057155501E+02 0.  0.
    5000000    2    1    2    0    0  0.73098944163E+03 -0.42344229861E+03 -0.39585431583E+03  0.11091281735E+04  0.59984641523E+03 0.  0.
         23    2    4    4    0    0 -0.82670197730E+02 -0.85232749149E+02 -0.47685244879E+02  0.15746517851E+03  0.91773725786E+02 0.  0.
         23    2    4    4    0    0  0.81365963936E+03 -0.33820954946E+03 -0.34816907095E+03  0.95166299499E+03  0.89515618698E+02 0.  0.
          4    1    3    3  502    0 -0.45888682490E+03  0.27099514747E+03 -0.81131529583E+03  0.97069459526E+03  0.00000000000E+00 0. -1.
         -4    1    3    3    0  502 -0.27210261673E+03  0.15244715114E+03 -0.35837901971E+03  0.47509524276E+03  0.00000000000E+00 0.  1.
         13    1    5    5    0    0 -0.79681393759E+02 -0.55764512762E+02 -0.70463822086E+02  0.12009977360E+03  0.00000000000E+00 0. -1.
        -13    1    5    5    0    0 -0.29888039709E+01 -0.29468236387E+02  0.22778577208E+02  0.37365404916E+02  0.00000000000E+00 0.  1.
          4    1    6    6  503    0  0.43571185927E+03 -0.17307641457E+03 -0.13778331461E+03  0.48865582098E+03  0.00000000000E+00 0. -1.
         -4    1    6    6    0  503  0.37794778009E+03 -0.16513313489E+03 -0.21038575634E+03  0.46300717401E+03  0.00000000000E+00 0.  1.
<mgrwt>
<rscale>  0 0.92649049E+03</rscale>
<asrwt>0</asrwt>
<pdfrwt beam="1">  1        2 0.31695898E+00 0.92649049E+03</pdfrwt>
<pdfrwt beam="2">  1       -2 0.76105336E-01 0.92649049E+03</pdfrwt>
<totfact> 0.96744207E+00</totfact>
</mgrwt>
</event>
<event>
12    1  0.1444206E-007  0.6539277E+03  0.7818608E-02  0.9799437E-01
          1   -1    0    0  501    0  0.00000000000E+00  0.00000000000E+00  0.84419266956E+03  0.84419266956E+03  0.00000000000E+00 0. -1.
         -1   -1    0    0    0  501 -0.00000000000E+00 -0.00000000000E+00 -0.67746643822E+03  0.67746643822E+03  0.00000000000E+00 0.  1.
         23    2    1    2    0    0  0.51448802615E+03  0.18288699093E+03 -0.25609608880E+03  0.60677962226E+03  0.66713737685E+02 0.  0.
    5000000    2    1    2    0    0 -0.51448802615E+03 -0.18288699093E+03  0.42282232013E+03  0.91487948552E+03  0.60006681138E+03 0.  0.
         23    2    4    4    0    0 -0.10003545054E+03  0.17588381683E+03  0.89409968058E+01  0.22220449048E+03  0.91393029168E+02 0.  0.
         23    2    4    4    0    0 -0.41445257561E+03 -0.35877080775E+03  0.41388132332E+03  0.69267499504E+03  0.89517981573E+02 0.  0.
          3    1    3    3  502    0  0.37053256368E+03  0.99679349242E+02 -0.18418735498E+03  0.42562346640E+03  0.00000000000E+00 0. -1.
         -3    1    3    3    0  502  0.14395546247E+03  0.83207641683E+02 -0.71908733813E+02  0.18115615586E+03  0.00000000000E+00 0.  1.
         11    1    5    5    0    0 -0.62647082371E+02  0.76445366149E+02 -0.38224233605E+02  0.10597000977E+03  0.00000000000E+00 0. -1.
        -11    1    5    5    0    0 -0.37388368165E+02  0.99438450679E+02  0.47165230410E+02  0.11623448072E+03  0.00000000000E+00 0.  1.
          3    1    6    6  503    0 -0.17727240525E+03 -0.20068849922E+03  0.23414413655E+03  0.35570332591E+03  0.00000000000E+00 0. -1.
         -3    1    6    6    0  503 -0.23718017036E+03 -0.15808230853E+03  0.17973718677E+03  0.33697166912E+03  0.00000000000E+00 0.  1.
<mgrwt>
<rscale>  0 0.65392767E+03</rscale>
<asrwt>0</asrwt>
<pdfrwt beam="1">  1        1 0.12987580E+00 0.65392767E+03</pdfrwt>
<pdfrwt beam="2">  1       -1 0.10422561E+00 0.65392767E+03</pdfrwt>
<totfact> 0.18266090E+01</totfact>
</mgrwt>
</event>
<event>
12    1  0.1444206E-007  0.5712263E+03  0.7818608E-02  0.9966969E-01
          2   -1    0    0  501    0  0.00000000000E+00  0.00000000000E+00  0.24758042282E+04  0.24758042282E+04  0.00000000000E+00 0. -1.
         -2   -1    0    0    0  501 -0.00000000000E+00 -0.00000000000E+00 -0.18449831488E+03  0.18449831488E+03  0.00000000000E+00 0.  1.
         23    2    1    2    0    0 -0.47260581546E+03  0.21505052278E+03  0.64570925211E+03  0.83338164568E+03  0.89339492665E+02 0.  0.
    5000000    2    1    2    0    0  0.47260581546E+03 -0.21505052278E+03  0.16455966612E+04  0.18269208974E+04  0.60004050681E+03 0.  0.
         23    2    4    4    0    0  0.37932122502E+03 -0.37286373000E+01  0.14718033044E+04  0.15226549580E+04  0.91513166287E+02 0.  0.
         23    2    4    4    0    0  0.93284590443E+02 -0.21132188548E+03  0.17379335678E+03  0.30426593943E+03  0.94945652572E+02 0.  0.
          2    1    3    3  502    0 -0.24064005474E+03  0.12305213513E+03  0.26753715673E+03  0.38029671854E+03  0.00000000000E+00 0. -1.
         -2    1    3    3    0  502 -0.23196576073E+03  0.91998387641E+02  0.37817209538E+03  0.45308492714E+03  0.00000000000E+00 0.  1.
         13    1    5    5    0    0  0.23681695055E+03 -0.13457581937E+02  0.74151806962E+03  0.77853222294E+03  0.00000000000E+00 0. -1.
        -13    1    5    5    0    0  0.14250427447E+03  0.97289446371E+01  0.73028523480E+03  0.74412273502E+03  0.00000000000E+00 0.  1.
          2    1    6    6  503    0  0.14290527807E+02  0.26283083515E+01 -0.40169577017E+01  0.15075249218E+02  0.00000000000E+00 0. -1.
         -2    1    6    6    0  503  0.78994062635E+02 -0.21395019383E+03  0.17781031448E+03  0.28919069021E+03  0.00000000000E+00 0.  1.
<mgrwt>
<rscale>  0 0.57122625E+03</rscale>
<asrwt>0</asrwt>
<pdfrwt beam="1">  1        2 0.38089293E+00 0.57122625E+03</pdfrwt>
<pdfrwt beam="2">  1       -2 0.28384358E-01 0.57122625E+03</pdfrwt>
<totfact> 0.43726258E+01</totfact>
</mgrwt>
</event>
<event>
12    1  0.1444206E-007  0.6130816E+03  0.7818608E-02  0.9878632E-01
          2   -1    0    0  501    0  0.00000000000E+00  0.00000000000E+00  0.13603683850E+04  0.13603683850E+04  0.00000000000E+00 0. -1.
         -2   -1    0    0    0  501 -0.00000000000E+00 -0.00000000000E+00 -0.36714010033E+03  0.36714010033E+03  0.00000000000E+00 0.  1.
         23    2    1    2    0    0  0.44377114110E+03  0.35008874442E+03  0.53849630834E+03  0.78610104004E+03  0.92095691646E+02 0.  0.
    5000000    2    1    2    0    0 -0.44377114110E+03 -0.35008874442E+03  0.45473197634E+03  0.94140744530E+03  0.59997654381E+03 0.  0.
         23    2    4    4    0    0 -0.24093013077E+03 -0.36618556120E+03  0.54102638927E+03  0.70206530214E+03  0.89704745937E+02 0.  0.
         23    2    4    4    0    0 -0.20284101033E+03  0.16096816773E+02 -0.86294412936E+02  0.23934214316E+03  0.91838732602E+02 0.  0.
          3    1    3    3  502    0  0.15321765914E+03  0.17570175361E+03  0.20050600688E+03  0.30748888775E+03  0.00000000000E+00 0. -1.
         -3    1    3    3    0  502  0.29055348196E+03  0.17438699081E+03  0.33799030146E+03  0.47861215230E+03  0.00000000000E+00 0.  1.
         13    1    5    5    0    0 -0.12295761927E+02 -0.73823687216E+02  0.70889546653E+02  0.10308467578E+03  0.00000000000E+00 0. -1.
        -13    1    5    5    0    0 -0.22863436884E+03 -0.29236187398E+03  0.47013684262E+03  0.59898062637E+03  0.00000000000E+00 0.  1.
          1    1    6    6  503    0 -0.33068347003E+02 -0.13740211568E+02 -0.52714817108E+02  0.63727238527E+02  0.00000000000E+00 0. -1.
         -1    1    6    6    0  503 -0.16977266332E+03  0.29837028341E+02 -0.33579595828E+02  0.17561490463E+03  0.00000000000E+00 0.  1.
<mgrwt>
<rscale>  0 0.61308157E+03</rscale>
<asrwt>0</asrwt>
<pdfrwt beam="1">  1        2 0.20928744E+00 0.61308157E+03</pdfrwt>
<pdfrwt beam="2">  1       -2 0.56483093E-01 0.61308157E+03</pdfrwt>
<totfact> 0.46458652E+01</totfact>
</mgrwt>
</event>
<event>
12    1  0.1444206E-007  0.9736037E+03  0.7818608E-02  0.9337979E-01
          2   -1    0    0  501    0  0.00000000000E+00  0.00000000000E+00  0.12598538689E+04  0.12598538689E+04  0.00000000000E+00 0. -1.
         -2   -1    0    0    0  501 -0.00000000000E+00 -0.00000000000E+00 -0.82950443517E+03  0.82950443517E+03  0.00000000000E+00 0.  1.
         23    2    1    2    0    0 -0.58178797894E+03 -0.72137161635E+03  0.29850983464E+03  0.97746515440E+03  0.86462392885E+02 0.  0.
    5000000    2    1    2    0    0  0.58178797894E+03  0.72137161635E+03  0.13183959906E+03  0.11118931496E+04  0.60005869299E+03 0.  0.
         23    2    4    4    0    0  0.15239429402E+03  0.50865755303E+03 -0.13508829249E+03  0.55514889770E+03  0.89358406096E+02 0.  0.
         23    2    4    4    0    0  0.42939368493E+03  0.21271406331E+03  0.26692789155E+03  0.55674425194E+03  0.95328135401E+02 0.  0.
          3    1    3    3  502    0 -0.36452599327E+03 -0.38660258275E+03  0.15775864797E+03  0.55428201104E+03  0.00000000000E+00 0. -1.
         -3    1    3    3    0  502 -0.21726198567E+03 -0.33476903360E+03  0.14075118667E+03  0.42318314336E+03  0.00000000000E+00 0.  1.
         13    1    5    5    0    0  0.15056774863E+03  0.45419391752E+03 -0.14451062091E+03  0.49984605750E+03  0.00000000000E+00 0.  1.
        -13    1    5    5    0    0  0.18265453829E+01  0.54463635514E+02  0.94223284167E+01  0.55302840201E+02  0.00000000000E+00 0. -1.
          3    1    6    6  503    0  0.15206000898E+03  0.11141948216E+03  0.14265042781E+03  0.23640154799E+03  0.00000000000E+00 0. -1.
         -3    1    6    6    0  503  0.27733367595E+03  0.10129458115E+03  0.12427746374E+03  0.32034270396E+03  0.00000000000E+00 0.  1.
<mgrwt>
<rscale>  0 0.97360367E+03</rscale>
<asrwt>0</asrwt>
<pdfrwt beam="1">  1        2 0.19382367E+00 0.97360367E+03</pdfrwt>
<pdfrwt beam="2">  1       -2 0.12761607E+00 0.97360367E+03</pdfrwt>
<totfact> 0.79034011E+00</totfact>
</mgrwt>
</event>
<event>
12    1  0.1444206E-007  0.8670568E+03  0.7818608E-02  0.9467726E-01
         -1   -1    0    0    0  501 -0.00000000000E+00  0.00000000000E+00  0.59147338257E+03  0.59147338257E+03  0.00000000000E+00 0.  1.
          1   -1    0    0  501    0  0.00000000000E+00 -0.00000000000E+00 -0.13545295393E+04  0.13545295393E+04  0.00000000000E+00 0. -1.
         23    2    1    2    0    0 -0.47949968107E+03 -0.61912894926E+03 -0.21517468901E+03  0.81746556869E+03  0.93323144181E+02 0.  0.
    5000000    2    1    2    0    0  0.47949968107E+03  0.61912894926E+03 -0.54788146771E+03  0.11285373532E+04  0.60015152660E+03 0.  0.
         23    2    4    4    0    0  0.34084708137E+02 -0.77665951323E+02 -0.18327198065E+03  0.22060461702E+03  0.88791952548E+02 0.  0.
         23    2    4    4    0    0  0.44541497294E+03  0.69679490059E+03 -0.36460948706E+03  0.90793273615E+03  0.86510945651E+02 0.  0.
          3    1    3    3  502    0 -0.21678700006E+03 -0.31670764561E+03 -0.14765190225E+03  0.41121943099E+03  0.00000000000E+00 0. -1.
         -3    1    3    3    0  502 -0.26271268101E+03 -0.30242130365E+03 -0.67522786762E+02  0.40624613770E+03  0.00000000000E+00 0.  1.
         11    1    5    5    0    0 -0.21903642887E+02  0.51847628097E+01 -0.39803273703E+02  0.45726927894E+02  0.00000000000E+00 0.  1.
        -11    1    5    5    0    0  0.55988351023E+02 -0.82850714133E+02 -0.14346870695E+03  0.17487768913E+03  0.00000000000E+00 0. -1.
          2    1    6    6  503    0  0.13879302884E+03  0.20081224652E+03 -0.66318545165E+02  0.25295693831E+03  0.00000000000E+00 0.  1.
         -2    1    6    6    0  503  0.30662194410E+03  0.49598265407E+03 -0.29829094190E+03  0.65497579784E+03  0.00000000000E+00 0. -1.
<mgrwt>
<rscale>  0 0.86705681E+03</rscale>
<asrwt>0</asrwt>
<pdfrwt beam="1">  1        1 0.20838916E+00 0.86705681E+03</pdfrwt>
<pdfrwt beam="2">  1       -1 0.90995905E-01 0.86705681E+03</pdfrwt>
<totfact> 0.99481945E+00</totfact>
</mgrwt>
</event>
<event>
12    1  0.1444206E-007  0.8636122E+03  0.7818608E-02  0.9472247E-01
         -2   -1    0    0    0  501 -0.00000000000E+00  0.00000000000E+00  0.50469666401E+03  0.50469666401E+03  0.00000000000E+00 0.  1.
          2   -1    0    0  501    0  0.00000000000E+00 -0.00000000000E+00 -0.16496056260E+04  0.16496056260E+04  0.00000000000E+00 0. -1.
         23    2    1    2    0    0 -0.44251736905E+03 -0.67695326712E+03 -0.58271237085E+03  0.10008677299E+04  0.89973095637E+02 0.  0.
    5000000    2    1    2    0    0  0.44251736905E+03  0.67695326712E+03 -0.56219659109E+03  0.11534345600E+04  0.60021573575E+03 0.  0.
         23    2    4    4    0    0  0.51111618196E+03  0.64491655994E+03 -0.32520958806E+03  0.88939522896E+03  0.90030419172E+02 0.  0.
         23    2    4    4    0    0 -0.68598812908E+02  0.32036707178E+02 -0.23698700303E+03  0.26403933106E+03  0.88440833354E+02 0.  0.
          4    1    3    3  502    0 -0.28959190934E+03 -0.37760568882E+03 -0.37341747300E+03  0.60488853463E+03  0.00000000000E+00 0. -1.
         -4    1    3    3    0  502 -0.15292545972E+03 -0.29934757830E+03 -0.20929489785E+03  0.39597919532E+03  0.00000000000E+00 0.  1.
         13    1    5    5    0    0  0.38448650739E+03  0.46337760670E+03 -0.19660230587E+03  0.63340441064E+03  0.00000000000E+00 0. -1.
        -13    1    5    5    0    0  0.12662967457E+03  0.18153895324E+03 -0.12860728219E+03  0.25599081831E+03  0.00000000000E+00 0.  1.
          4    1    6    6  503    0 -0.60998416576E+02  0.45629148174E+02 -0.97714914245E+02  0.12389927544E+03  0.00000000000E+00 0.  1.
         -4    1    6    6    0  503 -0.76003963318E+01 -0.13592440997E+02 -0.13927208878E+03  0.14014005563E+03  0.00000000000E+00 0. -1.
<mgrwt>
<rscale>  0 0.86361217E+03</rscale>
<asrwt>0</asrwt>
<pdfrwt beam="1">  1        2 0.25378548E+00 0.86361217E+03</pdfrwt>
<pdfrwt beam="2">  1       -2 0.77645641E-01 0.86361217E+03</pdfrwt>
<totfact> 0.15663699E+01</totfact>
</mgrwt>
</event>
<event>
12    1  0.1444206E-007  0.4345433E+03  0.7818608E-02  0.1032434E+00
         -2   -1    0    0    0  501 -0.00000000000E+00  0.00000000000E+00  0.67894127116E+03  0.67894127116E+03  0.00000000000E+00 0.  1.
          2   -1    0    0  501    0  0.00000000000E+00 -0.00000000000E+00 -0.58764615639E+03  0.58764615639E+03  0.00000000000E+00 0. -1.
         23    2    1    2    0    0  0.66784772903E+02 -0.38273755640E+03 -0.25374962638E+03  0.47289999255E+03  0.91089445583E+02 0.  0.
    5000000    2    1    2    0    0 -0.66784772903E+02  0.38273755640E+03  0.34504474115E+03  0.79368743501E+03  0.59994635438E+03 0.  0.
         23    2    4    4    0    0 -0.15651632221E+03  0.27097335062E+03 -0.81150827340E+02  0.33476615841E+03  0.86942556783E+02 0.  0.
         23    2    4    4    0    0  0.89731549305E+02  0.11176420578E+03  0.42619556849E+03  0.45892127659E+03  0.91777376730E+02 0.  0.
          4    1    3    3  502    0  0.12997644834E+02 -0.12615814300E+03 -0.35270925453E+02  0.13163910513E+03  0.00000000000E+00 0. -1.
         -4    1    3    3    0  502  0.53787128069E+02 -0.25657941340E+03 -0.21847870093E+03  0.34126088742E+03  0.00000000000E+00 0.  1.
         11    1    5    5    0    0 -0.34479175733E+02  0.25494059936E+02 -0.37910791193E+02  0.57236253722E+02  0.00000000000E+00 0. -1.
        -11    1    5    5    0    0 -0.12203714647E+03  0.24547929068E+03 -0.43240036147E+02  0.27752990469E+03  0.00000000000E+00 0.  1.
          1    1    6    6  503    0  0.67096840549E+02  0.22156732074E+02  0.25208790616E+03  0.26180378000E+03  0.00000000000E+00 0. -1.
         -1    1    6    6    0  503  0.22634708756E+02  0.89607473707E+02  0.17410766232E+03  0.19711749660E+03  0.00000000000E+00 0.  1.
<mgrwt>
<rscale>  0 0.43454325E+03</rscale>
<asrwt>0</asrwt>
<pdfrwt beam="1">  1        2 0.90407101E-01 0.43454325E+03</pdfrwt>
<pdfrwt beam="2">  1       -2 0.10445250E+00 0.43454325E+03</pdfrwt>
<totfact> 0.39529079E+01</totfact>
</mgrwt>
</event>
<event>
12    1  0.1444206E-007  0.7368142E+03  0.7818608E-02  0.9656267E-01
          2   -1    0    0  501    0  0.00000000000E+00  0.00000000000E+00  0.23637019567E+04  0.23637019567E+04  0.00000000000E+00 0. -1.
         -2   -1    0    0    0  501 -0.00000000000E+00 -0.00000000000E+00 -0.25063154337E+03  0.25063154337E+03  0.00000000000E+00 0.  1.
         23    2    1    2    0    0  0.59768022211E+03  0.17174862254E+03  0.12166540646E+04  0.13693338714E+04  0.90049437989E+02 0.  0.
    5000000    2    1    2    0    0 -0.59768022211E+03 -0.17174862254E+03  0.89641634868E+03  0.12449996286E+04  0.59978543477E+03 0.  0.
         23    2    4    4    0    0 -0.32538138246E+03 -0.37483766059E+03  0.44694547577E+03  0.67420981226E+03  0.91773072267E+02 0.  0.
         23    2    4    4    0    0 -0.27229883964E+03  0.20308903804E+03  0.44947087291E+03  0.57078981632E+03  0.91570373923E+02 0.  0.
          3    1    3    3  502    0  0.27263772291E+03  0.11395877634E+03  0.63844458847E+03  0.70351220544E+03  0.00000000000E+00 0. -1.
         -3    1    3    3    0  502  0.32504249919E+03  0.57789846200E+02  0.57820947616E+03  0.66582166600E+03  0.00000000000E+00 0.  1.
         11    1    5    5    0    0 -0.12390997123E+03 -0.20477034192E+03  0.18449900831E+03  0.30219936791E+03  0.00000000000E+00 0.  1.
        -11    1    5    5    0    0 -0.20147141123E+03 -0.17006731867E+03  0.26244646746E+03  0.37201044435E+03  0.00000000000E+00 0. -1.
          4    1    6    6  503    0 -0.24683008075E+03  0.15757103414E+03  0.41629280071E+03  0.50897290251E+03  0.00000000000E+00 0. -1.
         -4    1    6    6    0  503 -0.25468758895E+02  0.45518003903E+02  0.33178072196E+02  0.61816913815E+02  0.00000000000E+00 0.  1.
<mgrwt>
<rscale>  0 0.73681421E+03</rscale>
<asrwt>0</asrwt>
<pdfrwt beam="1">  1        2 0.36364644E+00 0.73681421E+03</pdfrwt>
<pdfrwt beam="2">  1       -2 0.38558701E-01 0.73681421E+03</pdfrwt>
<totfact> 0.27629582E+01</totfact>
</mgrwt>
</event>
<event>
12    1  0.1444206E-007  0.7368713E+03  0.7818608E-02  0.9656175E-01
         -1   -1    0    0    0  501 -0.00000000000E+00  0.00000000000E+00  0.13160787270E+04  0.13160787270E+04  0.00000000000E+00 0.  1.
          1   -1    0    0  501    0  0.00000000000E+00 -0.00000000000E+00 -0.71997083798E+03  0.71997083798E+03  0.00000000000E+00 0. -1.
         23    2    1    2    0    0 -0.61623939508E+02  0.64115922539E+03 -0.35425018432E+03  0.74066663414E+03  0.90615713950E+02 0.  0.
    5000000    2    1    2    0    0  0.61623939508E+02 -0.64115922539E+03  0.95035807335E+03  0.12953829309E+04  0.59996150522E+03 0.  0.
         23    2    4    4    0    0  0.27552231097E+03 -0.27664016333E+03  0.25056983069E+03  0.47276612638E+03  0.90995859205E+02 0.  0.
         23    2    4    4    0    0 -0.21389837146E+03 -0.36451906205E+03  0.69978824266E+03  0.82261680448E+03  0.91477661331E+02 0.  0.
          2    1    3    3  502    0 -0.76169864757E+02  0.44073426770E+03 -0.27236834703E+03  0.52367266445E+03  0.00000000000E+00 0. -1.
         -2    1    3    3    0  502  0.14545925248E+02  0.20042495768E+03 -0.81881837285E+02  0.21699396969E+03  0.00000000000E+00 0.  1.
         13    1    5    5    0    0  0.22739246023E+03 -0.17231042486E+03  0.16578768023E+03  0.32997540575E+03  0.00000000000E+00 0. -1.
        -13    1    5    5    0    0  0.48129850741E+02 -0.10432973847E+03  0.84782150464E+02  0.14279072063E+03  0.00000000000E+00 0.  1.
          1    1    6    6  503    0 -0.85162945606E+02 -0.10155110134E+03  0.29133062235E+03  0.32006075205E+03  0.00000000000E+00 0. -1.
         -1    1    6    6    0  503 -0.12873542585E+03 -0.26296796072E+03  0.40845762032E+03  0.50255605242E+03  0.00000000000E+00 0.  1.
<mgrwt>
<rscale>  0 0.73687133E+03</rscale>
<asrwt>0</asrwt>
<pdfrwt beam="1">  1        1 0.11076474E+00 0.73687133E+03</pdfrwt>
<pdfrwt beam="2">  1       -1 0.20247365E+00 0.73687133E+03</pdfrwt>
<totfact> 0.39283451E+00</totfact>
</mgrwt>
</event>
<event>
12    1  0.1444206E-007  0.5197784E+03  0.7818608E-02  0.1008742E+00
          3   -1    0    0  501    0  0.00000000000E+00  0.00000000000E+00  0.83706956577E+03  0.83706956577E+03  0.00000000000E+00 0. -1.
         -3   -1    0    0    0  501 -0.00000000000E+00 -0.00000000000E+00 -0.56540285944E+03  0.56540285944E+03  0.00000000000E+00 0.  1.
         23    2    1    2    0    0 -0.14694500821E+03  0.45752325499E+03 -0.16760551555E+03  0.51716957050E+03  0.91936888763E+02 0.  0.
    5000000    2    1    2    0    0  0.14694500821E+03 -0.45752325499E+03  0.43927222188E+03  0.88530285472E+03  0.59990057123E+03 0.  0.
         23    2    4    4    0    0 -0.66045293503E+02 -0.18547266916E+03 -0.10215319786E+03  0.23705475029E+03  0.83651581003E+02 0.  0.
         23    2    4    4    0    0  0.21299030171E+03 -0.27205058583E+03  0.54142541974E+03  0.64824810442E+03  0.87793677861E+02 0.  0.
          1    1    3    3  502    0 -0.78213662845E+02  0.35347708889E+03 -0.14722090306E+03  0.39081635550E+03  0.00000000000E+00 0. -1.
         -1    1    3    3    0  502 -0.68731345362E+02  0.10404616609E+03 -0.20384612491E+02  0.12635321500E+03  0.00000000000E+00 0.  1.
         13    1    5    5    0    0 -0.41932727971E+02 -0.10688461133E+03 -0.10387723993E+03  0.15483266706E+03  0.00000000000E+00 0.  1.
        -13    1    5    5    0    0 -0.24112565532E+02 -0.78588057828E+02  0.17240420669E+01  0.82222083230E+02  0.00000000000E+00 0. -1.
          4    1    6    6  503    0  0.10583782998E+03 -0.69357586093E+02  0.17373268490E+03  0.21493060928E+03  0.00000000000E+00 0.  1.
         -4    1    6    6    0  503  0.10715247173E+03 -0.20269299973E+03  0.36769273485E+03  0.43331749514E+03  0.00000000000E+00 0. -1.
<mgrwt>
<rscale>  0 0.51977836E+03</rscale>
<asrwt>0</asrwt>
<pdfrwt beam="1">  1        3 0.12877993E+00 0.51977836E+03</pdfrwt>
<pdfrwt beam="2">  1       -3 0.86985055E-01 0.51977836E+03</pdfrwt>
<totfact> 0.15025829E+00</totfact>
</mgrwt>
</event>
<event>
12    1  0.1444206E-007  0.3374321E+03  0.7818608E-02  0.1067895E+00
          2   -1    0    0  501    0  0.00000000000E+00  0.00000000000E+00  0.16421525568E+04  0.16421525568E+04  0.00000000000E+00 0. -1.
         -2   -1    0    0    0  501 -0.00000000000E+00 -0.00000000000E+00 -0.11581083122E+03  0.11581083122E+03  0.00000000000E+00 0.  1.
         23    2    1    2    0    0 -0.19311833631E+02 -0.18518778908E+03  0.18868980088E+03  0.28016902032E+03  0.90682825521E+02 0.  0.
    5000000    2    1    2    0    0  0.19311833631E+02  0.18518778908E+03  0.13376519247E+04  0.14777943677E+04  0.59991337494E+03 0.  0.
         23    2    4    4    0    0 -0.14240878265E+03 -0.57937917200E+02  0.10532995624E+03  0.20798223697E+03  0.92331725803E+02 0.  0.
         23    2    4    4    0    0  0.16172061628E+03  0.24312570628E+03  0.12323219685E+04  0.12698121307E+04  0.92421570198E+02 0.  0.
          4    1    3    3  502    0 -0.43802374762E+02 -0.72183441165E+02  0.44818289516E+02  0.95591716631E+02  0.00000000000E+00 0. -1.
         -4    1    3    3    0  502  0.24490541131E+02 -0.11300434792E+03  0.14387151137E+03  0.18457730369E+03  0.00000000000E+00 0.  1.
         11    1    5    5    0    0 -0.71058106889E+01  0.20451340639E+02  0.50898045050E+01  0.22240863053E+02  0.00000000000E+00 0. -1.
        -11    1    5    5    0    0 -0.13530297196E+03 -0.78389257839E+02  0.10024015174E+03  0.18574137392E+03  0.00000000000E+00 0.  1.
          4    1    6    6  503    0  0.85070354135E+02  0.81072411655E+02  0.64942635593E+03  0.65997294859E+03  0.00000000000E+00 0.  1.
         -4    1    6    6    0  503  0.76650262142E+02  0.16205329463E+03  0.58289561253E+03  0.60983918216E+03  0.00000000000E+00 0. -1.
<mgrwt>
<rscale>  0 0.33743214E+03</rscale>
<asrwt>0</asrwt>
<pdfrwt beam="1">  1        2 0.25263884E+00 0.33743214E+03</pdfrwt>
<pdfrwt beam="2">  1       -2 0.17817052E-01 0.33743214E+03</pdfrwt>
<totfact> 0.29214143E+02</totfact>
</mgrwt>
</event>
<event>
12    1  0.1444206E-007  0.3965491E+03  0.7818608E-02  0.1044981E+00
         -2   -1    0    0    0  501 -0.00000000000E+00  0.00000000000E+00  0.64400020796E+02  0.64400020796E+02  0.00000000000E+00 0.  1.
          2   -1    0    0  501    0  0.00000000000E+00 -0.00000000000E+00 -0.27235510712E+04  0.27235510712E+04  0.00000000000E+00 0. -1.
         23    2    1    2    0    0  0.82828821917E+02 -0.16710846443E+03 -0.74401909635E+03  0.77244794375E+03  0.91244492654E+02 0.  0.
    5000000    2    1    2    0    0 -0.82828821917E+02  0.16710846443E+03 -0.19151319540E+04  0.20155031482E+04  0.59978053197E+03 0.  0.
         23    2    4    4    0    0 -0.31095990432E+03  0.17325155609E+03 -0.91810224324E+03  0.98852874477E+03  0.86978080008E+02 0.  0.
         23    2    4    4    0    0  0.22813108241E+03 -0.61430916590E+01 -0.99702971076E+03  0.10269744034E+04  0.92339876699E+02 0.  0.
          3    1    3    3  502    0  0.65295624376E+02 -0.13439404319E+03 -0.41008286308E+03  0.43645530355E+03  0.00000000000E+00 0. -1.
         -3    1    3    3    0  502  0.17533197541E+02 -0.32714421238E+02 -0.33393623327E+03  0.33599264019E+03  0.00000000000E+00 0.  1.
         11    1    5    5    0    0 -0.11955634246E+03  0.99084433236E+02 -0.30999742439E+03  0.34671291735E+03  0.00000000000E+00 0. -1.
        -11    1    5    5    0    0 -0.19140356186E+03  0.74167122853E+02 -0.60810481886E+03  0.64181582742E+03  0.00000000000E+00 0.  1.
          2    1    6    6  503    0  0.27565378366E+02  0.31595887156E+02 -0.18481392451E+03  0.18951078298E+03  0.00000000000E+00 0.  1.
         -2    1    6    6    0  503  0.20056570404E+03 -0.37738978815E+02 -0.81221578624E+03  0.83746362045E+03  0.00000000000E+00 0. -1.
<mgrwt>
<rscale>  0 0.39654907E+03</rscale>
<asrwt>0</asrwt>
<pdfrwt beam="1">  1        2 0.41900784E+00 0.39654907E+03</pdfrwt>
<pdfrwt beam="2">  1       -2 0.99076960E-02 0.39654907E+03</pdfrwt>
<totfact> 0.19712667E+02</totfact>
</mgrwt>
</event>
<event>
12    1  0.1444206E-007  0.1201084E+04  0.7818608E-02  0.9111908E-01
         -2   -1    0    0    0  501 -0.00000000000E+00  0.00000000000E+00  0.90927085076E+03  0.90927085076E+03  0.00000000000E+00 0.  1.
          2   -1    0    0  501    0  0.00000000000E+00 -0.00000000000E+00 -0.18327040885E+04  0.18327040885E+04  0.00000000000E+00 0. -1.
         23    2    1    2    0    0  0.91953945705E+03  0.69555440119E+03 -0.85897700218E+03  0.14406567598E+04  0.91113506685E+02 0.  0.
    5000000    2    1    2    0    0 -0.91953945705E+03 -0.69555440119E+03 -0.64456235570E+02  0.13013181795E+04  0.59993804675E+03 0.  0.
         23    2    4    4    0    0 -0.35498905374E+03 -0.17627881575E+02  0.13802089854E+03  0.39138194378E+03  0.88329423199E+02 0.  0.
         23    2    4    4    0    0 -0.56455040331E+03 -0.67792651962E+03 -0.20247713410E+03  0.90993623573E+03  0.93195704755E+02 0.  0.
          1    1    3    3  502    0  0.17859341400E+03  0.13871102405E+03 -0.12507619512E+03  0.25841905948E+03  0.00000000000E+00 0. -1.
         -1    1    3    3    0  502  0.74094604305E+03  0.55684337714E+03 -0.73390080706E+03  0.11822377003E+04  0.00000000000E+00 0.  1.
         11    1    5    5    0    0 -0.22800869557E+03 -0.49333308630E+02  0.68229125488E+02  0.24305751204E+03  0.00000000000E+00 0. -1.
        -11    1    5    5    0    0 -0.12698035817E+03  0.31705427054E+02  0.69791773048E+02  0.14832443174E+03  0.00000000000E+00 0.  1.
          2    1    6    6  503    0 -0.15671215375E+03 -0.14144149416E+03 -0.75335094421E+02  0.22414230269E+03  0.00000000000E+00 0. -1.
         -2    1    6    6    0  503 -0.40783824956E+03 -0.53648502545E+03 -0.12714203968E+03  0.68579393304E+03  0.00000000000E+00 0.  1.
<mgrwt>
<rscale>  0 0.12010841E+04</rscale>
<asrwt>0</asrwt>
<pdfrwt beam="1">  1        2 0.28195447E+00 0.12010841E+04</pdfrwt>
<pdfrwt beam="2">  1       -2 0.13988782E+00 0.12010841E+04</pdfrwt>
<totfact> 0.28988690E+00</totfact>
</mgrwt>
</event>
<event>
12    1  0.1444206E-007  0.5649705E+03  0.7818608E-02  0.9980870E-01
         -2   -1    0    0    0  501 -0.00000000000E+00  0.00000000000E+00  0.51134656979E+03  0.51134656979E+03  0.00000000000E+00 0. -1.
          2   -1    0    0  501    0  0.00000000000E+00 -0.00000000000E+00 -0.68068001376E+03  0.68068001376E+03  0.00000000000E+00 0.  1.
         23    2    1    2    0    0  0.34394449581E+03  0.23043928938E+03  0.59950022227E+02  0.42788101641E+03  0.89933735337E+02 0.  0.
    5000000    2    1    2    0    0 -0.34394449581E+03 -0.23043928938E+03 -0.22928346620E+03  0.76414556715E+03  0.59995621309E+03 0.  0.
         23    2    4    4    0    0 -0.79982726822E+02 -0.38932790857E+03 -0.13100628000E+03  0.42825605876E+03  0.90923866439E+02 0.  0.
         23    2    4    4    0    0 -0.26396176899E+03  0.15888861919E+03 -0.98277186200E+02  0.33588950838E+03  0.90785173462E+02 0.  0.
          4    1    3    3  502    0  0.10441741463E+03  0.68343256401E+02  0.60439220233E+02  0.13866036390E+03  0.00000000000E+00 0. -1.
         -4    1    3    3    0  502  0.23952708118E+03  0.16209603297E+03 -0.48919800617E+00  0.28922065251E+03  0.00000000000E+00 0.  1.
         13    1    5    5    0    0  0.17367283247E+02 -0.60930655622E+02 -0.60229387293E+01  0.63643091635E+02  0.00000000000E+00 0.  1.
        -13    1    5    5    0    0 -0.97350010070E+02 -0.32839725294E+03 -0.12498334127E+03  0.36461296713E+03  0.00000000000E+00 0. -1.
          1    1    6    6  503    0 -0.18776284569E+03  0.13081618656E+03 -0.10989078615E+03  0.25385772741E+03  0.00000000000E+00 0. -1.
         -1    1    6    6    0  503 -0.76198923299E+02  0.28072432631E+02  0.11613599948E+02  0.82031780972E+02  0.00000000000E+00 0.  1.
<mgrwt>
<rscale>  0 0.56497047E+03</rscale>
<asrwt>0</asrwt>
<pdfrwt beam="1">  1        2 0.10472000E+00 0.56497047E+03</pdfrwt>
<pdfrwt beam="2">  1       -2 0.78668703E-01 0.56497047E+03</pdfrwt>
<totfact> 0.62618630E+01</totfact>
</mgrwt>
</event>
<event>
12    1  0.1444206E-007  0.5049623E+03  0.7818608E-02  0.1012492E+00
          1   -1    0    0  501    0  0.00000000000E+00  0.00000000000E+00  0.65428577836E+03  0.65428577836E+03  0.00000000000E+00 0. -1.
         -1   -1    0    0    0  501 -0.00000000000E+00 -0.00000000000E+00 -0.43038625936E+03  0.43038625936E+03  0.00000000000E+00 0.  1.
         23    2    1    2    0    0 -0.14663268832E+02  0.32192456906E+03  0.22449348191E+03  0.40352314486E+03  0.92645374397E+02 0.  0.
    5000000    2    1    2    0    0  0.14663268832E+02 -0.32192456906E+03 -0.59396291376E+00  0.68114889286E+03  0.60009417748E+03 0.  0.
         23    2    4    4    0    0 -0.88780655675E+02 -0.46327815163E+03  0.26354569834E+02  0.48114993801E+03  0.91115579860E+02 0.  0.
         23    2    4    4    0    0  0.10344392451E+03  0.14135358258E+03 -0.26948532748E+02  0.19999895486E+03  0.92692382112E+02 0.  0.
          1    1    3    3  502    0  0.34182624144E+02  0.69648890995E+02  0.63847563447E+02  0.10047851098E+03  0.00000000000E+00 0. -1.
         -1    1    3    3    0  502 -0.48845892975E+02  0.25227567806E+03  0.16064591847E+03  0.30304463388E+03  0.00000000000E+00 0.  1.
         11    1    5    5    0    0 -0.62065597538E+01 -0.26743683542E+03  0.51674802908E+01  0.26755875089E+03  0.00000000000E+00 0. -1.
        -11    1    5    5    0    0 -0.82574095922E+02 -0.19584131621E+03  0.21187089544E+02  0.21359118712E+03  0.00000000000E+00 0.  1.
          3    1    6    6  503    0  0.18852447600E+02 -0.10446680876E+02  0.75338825979E+01  0.22832155151E+02  0.00000000000E+00 0. -1.
         -3    1    6    6    0  503  0.84591476907E+02  0.15180026345E+03 -0.34482415346E+02  0.17716679970E+03  0.00000000000E+00 0.  1.
<mgrwt>
<rscale>  0 0.50496229E+03</rscale>
<asrwt>0</asrwt>
<pdfrwt beam="1">  1        1 0.10065935E+00 0.50496229E+03</pdfrwt>
<pdfrwt beam="2">  1       -1 0.66213270E-01 0.50496229E+03</pdfrwt>
<totfact> 0.72826115E+01</totfact>
</mgrwt>
</event>
<event>
12    1  0.1444206E-007  0.5795751E+03  0.7818608E-02  0.9948711E-01
         -2   -1    0    0    0  501 -0.00000000000E+00  0.00000000000E+00  0.10413178890E+04  0.10413178890E+04  0.00000000000E+00 0.  1.
          2   -1    0    0  501    0  0.00000000000E+00 -0.00000000000E+00 -0.97245791770E+03  0.97245791770E+03  0.00000000000E+00 0. -1.
         23    2    1    2    0    0 -0.85501509680E+02 -0.43475106577E+03  0.83181613779E+03  0.94682734317E+03  0.90801615291E+02 0.  0.
    5000000    2    1    2    0    0  0.85501509680E+02  0.43475106577E+03 -0.76295616645E+03  0.10669484636E+04  0.59996492785E+03 0.  0.
         23    2    4    4    0    0  0.15185610699E+03 -0.86493037176E+02 -0.30159768473E+03  0.36192822834E+03  0.97414353788E+02 0.  0.
         23    2    4    4    0    0 -0.66354597310E+02  0.52124410294E+03 -0.46135848172E+03  0.70502023524E+03  0.90019642291E+02 0.  0.
          1    1    3    3  502    0 -0.74729929633E+02 -0.16253510924E+03  0.29980958056E+03  0.34912463207E+03  0.00000000000E+00 0. -1.
         -1    1    3    3    0  502 -0.10771580046E+02 -0.27221595653E+03  0.53200655723E+03  0.59770271110E+03  0.00000000000E+00 0.  1.
         11    1    5    5    0    0  0.35076315486E+01  0.56556234013E+01 -0.77659596384E+02  0.77944226635E+02  0.00000000000E+00 0.  1.
        -11    1    5    5    0    0  0.14834847544E+03 -0.92148660577E+02 -0.22393808835E+03  0.28398400170E+03  0.00000000000E+00 0. -1.
          2    1    6    6  503    0 -0.25251278362E+02  0.94451527694E+02 -0.45969389710E+02  0.10803658146E+03  0.00000000000E+00 0. -1.
         -2    1    6    6    0  503 -0.41103318948E+02  0.42679257525E+03 -0.41538909201E+03  0.59698365378E+03  0.00000000000E+00 0.  1.
<mgrwt>
<rscale>  0 0.57957514E+03</rscale>
<asrwt>0</asrwt>
<pdfrwt beam="1">  1        2 0.14960891E+00 0.57957514E+03</pdfrwt>
<pdfrwt beam="2">  1       -2 0.16020275E+00 0.57957514E+03</pdfrwt>
<totfact> 0.68821016E+00</totfact>
</mgrwt>
</event>
<event>
12    1  0.1444206E-007  0.6941675E+03  0.7818608E-02  0.9727259E-01
         -1   -1    0    0    0  501 -0.00000000000E+00  0.00000000000E+00  0.48487398667E+03  0.48487398667E+03  0.00000000000E+00 0.  1.
          1   -1    0    0  501    0  0.00000000000E+00 -0.00000000000E+00 -0.11219657273E+04  0.11219657273E+04  0.00000000000E+00 0. -1.
         23    2    1    2    0    0  0.24477594514E+03 -0.53306919444E+03 -0.45480846106E+03  0.74809270072E+03  0.93348397096E+02 0.  0.
    5000000    2    1    2    0    0 -0.24477594514E+03  0.53306919444E+03 -0.18228327952E+03  0.85874701320E+03  0.60011766288E+03 0.  0.
         23    2    4    4    0    0 -0.37452017921E+03  0.17775481876E+03  0.11755326950E+02  0.42436396244E+03  0.89913540053E+02 0.  0.
         23    2    4    4    0    0  0.12974423407E+03  0.35531437568E+03 -0.19403860647E+03  0.43438305075E+03  0.89195191235E+02 0.  0.
          3    1    3    3  502    0  0.87453886496E+02 -0.29196519528E+03 -0.20922778291E+03  0.36968651945E+03  0.00000000000E+00 0. -1.
         -3    1    3    3    0  502  0.15732205864E+03 -0.24110399916E+03 -0.24558067815E+03  0.37840618128E+03  0.00000000000E+00 0.  1.
         13    1    5    5    0    0 -0.10011721987E+03  0.69930704704E+02  0.39207823153E+02  0.12826150854E+03  0.00000000000E+00 0. -1.
        -13    1    5    5    0    0 -0.27440295933E+03  0.10782411405E+03 -0.27452496203E+02  0.29610245391E+03  0.00000000000E+00 0.  1.
          1    1    6    6  503    0  0.10353704330E+03  0.25987277472E+03 -0.97824386765E+02  0.29635011223E+03  0.00000000000E+00 0. -1.
         -1    1    6    6    0  503  0.26207190771E+02  0.95441600966E+02 -0.96214219708E+02  0.13803293852E+03  0.00000000000E+00 0.  1.
<mgrwt>
<rscale>  0 0.69416750E+03</rscale>
<asrwt>0</asrwt>
<pdfrwt beam="1">  1        1 0.17261011E+00 0.69416750E+03</pdfrwt>
<pdfrwt beam="2">  1       -1 0.74595999E-01 0.69416750E+03</pdfrwt>
<totfact> 0.22885252E+01</totfact>
</mgrwt>
</event>
<event>
12    1  0.1444206E-007  0.7259492E+03  0.7818608E-02  0.9673857E-01
         -2   -1    0    0    0  501 -0.00000000000E+00  0.00000000000E+00  0.46960458818E+03  0.46960458818E+03  0.00000000000E+00 0.  1.
          2   -1    0    0  501    0  0.00000000000E+00 -0.00000000000E+00 -0.15337289255E+04  0.15337289255E+04  0.00000000000E+00 0. -1.
         23    2    1    2    0    0 -0.62531438754E+03  0.10045100185E+03 -0.91749924460E+03  0.11187287474E+04  0.92955147333E+02 0.  0.
    5000000    2    1    2    0    0  0.62531438754E+03 -0.10045100185E+03 -0.14662509267E+03  0.88460476623E+03  0.59993181911E+03 0.  0.
         23    2    4    4    0    0 -0.31297866636E+02 -0.14746370522E+03 -0.13454390856E+03  0.21975083978E+03  0.86390204530E+02 0.  0.
         23    2    4    4    0    0  0.65661225418E+03  0.47012703364E+02 -0.12081184110E+02  0.66485392645E+03  0.92384749209E+02 0.  0.
          1    1    3    3  502    0 -0.36637307003E+03  0.57797543438E+02 -0.61569813027E+03  0.71878645653E+03  0.00000000000E+00 0. -1.
         -1    1    3    3    0  502 -0.25894131752E+03  0.42653458416E+02 -0.30180111432E+03  0.39994229089E+03  0.00000000000E+00 0.  1.
         11    1    5    5    0    0 -0.87206735436E+01 -0.10810822862E+03 -0.41304523443E+02  0.11605818756E+03  0.00000000000E+00 0. -1.
        -11    1    5    5    0    0 -0.22577193093E+02 -0.39355476595E+02 -0.93239385122E+02  0.10369265222E+03  0.00000000000E+00 0.  1.
          3    1    6    6  503    0  0.23275228747E+03 -0.27506111751E+02 -0.23907688219E+01  0.23438414895E+03  0.00000000000E+00 0. -1.
         -3    1    6    6    0  503  0.42385996671E+03  0.74518815115E+02 -0.96904152882E+01  0.43046977750E+03  0.00000000000E+00 0.  1.
<mgrwt>
<rscale>  0 0.72594923E+03</rscale>
<asrwt>0</asrwt>
<pdfrwt beam="1">  1        2 0.23595830E+00 0.72594923E+03</pdfrwt>
<pdfrwt beam="2">  1       -2 0.72246859E-01 0.72594923E+03</pdfrwt>
<totfact> 0.21652300E+01</totfact>
</mgrwt>
</event>
<event>
12    1  0.1444206E-007  0.7361136E+03  0.7818608E-02  0.9657391E-01
          2   -1    0    0  501    0  0.00000000000E+00  0.00000000000E+00  0.17373394578E+04  0.17373394578E+04  0.00000000000E+00 0. -1.
         -2   -1    0    0    0  501 -0.00000000000E+00 -0.00000000000E+00 -0.35627499781E+03  0.35627499781E+03  0.00000000000E+00 0.  1.
         23    2    1    2    0    0 -0.44808974609E+03  0.43724072431E+03  0.90600391417E+03  0.11049951349E+04  0.90594062510E+02 0.  0.
    5000000    2    1    2    0    0  0.44808974609E+03 -0.43724072431E+03  0.47506054579E+03  0.98861932066E+03  0.59976809473E+03 0.  0.
         23    2    4    4    0    0  0.50635141753E+03 -0.13032829979E+03  0.22141515719E+03  0.57559526049E+03  0.94382245714E+02 0.  0.
         23    2    4    4    0    0 -0.58261671437E+02 -0.30691242452E+03  0.25364538860E+03  0.41302406016E+03  0.93076486997E+02 0.  0.
          2    1    3    3  502    0 -0.17548345784E+03  0.11218182106E+03  0.30644851645E+03  0.37052651483E+03  0.00000000000E+00 0. -1.
         -2    1    3    3    0  502 -0.27260628825E+03  0.32505890325E+03  0.59955539771E+03  0.73446862009E+03  0.00000000000E+00 0.  1.
         13    1    5    5    0    0  0.32985672602E+03 -0.10893342852E+03  0.10429272550E+03  0.36269673853E+03  0.00000000000E+00 0.  1.
        -13    1    5    5    0    0  0.17649469151E+03 -0.21394871273E+02  0.11712243169E+03  0.21289852197E+03  0.00000000000E+00 0. -1.
          4    1    6    6  503    0 -0.38007836612E+02 -0.10583959166E+03  0.41082083196E+02  0.11972615573E+03  0.00000000000E+00 0.  1.
         -4    1    6    6    0  503 -0.20253834825E+02 -0.20107283286E+03  0.21256330540E+03  0.29329790443E+03  0.00000000000E+00 0. -1.
<mgrwt>
<rscale>  0 0.73611359E+03</rscale>
<asrwt>0</asrwt>
<pdfrwt beam="1">  1        2 0.26728299E+00 0.73611359E+03</pdfrwt>
<pdfrwt beam="2">  1       -2 0.54811539E-01 0.73611359E+03</pdfrwt>
<totfact> 0.30128459E+01</totfact>
</mgrwt>
</event>
<event>
12    1  0.1444206E-007  0.6017773E+03  0.7818608E-02  0.9901726E-01
         -1   -1    0    0    0  501 -0.00000000000E+00  0.00000000000E+00  0.10566728063E+04  0.10566728063E+04  0.00000000000E+00 0.  1.
          1   -1    0    0  501    0  0.00000000000E+00 -0.00000000000E+00 -0.52802672325E+03  0.52802672325E+03  0.00000000000E+00 0. -1.
         23    2    1    2    0    0 -0.53266238178E+03  0.19878784820E+02  0.56366525303E+03  0.78129214188E+03  0.92598674073E+02 0.  0.
    5000000    2    1    2    0    0  0.53266238178E+03 -0.19878784820E+02 -0.35019170034E+02  0.80340738763E+03  0.60009391697E+03 0.  0.
         23    2    4    4    0    0  0.29064900927E+03 -0.19542072063E+03  0.19905025338E+03  0.41280764218E+03  0.90127917075E+02 0.  0.
         23    2    4    4    0    0  0.24201337251E+03  0.17554193581E+03 -0.23406942341E+03  0.39059974545E+03  0.91619989444E+02 0.  0.
          2    1    3    3  502    0 -0.22259300177E+03  0.23302402441E+02  0.29983359303E+03  0.37415348442E+03  0.00000000000E+00 0. -1.
         -2    1    3    3    0  502 -0.31006938001E+03 -0.34236176210E+01  0.26383166000E+03  0.40713865746E+03  0.00000000000E+00 0.  1.
         11    1    5    5    0    0  0.11548108596E+03 -0.37973861470E+02  0.37563023592E+02  0.12723551434E+03  0.00000000000E+00 0. -1.
        -11    1    5    5    0    0  0.17516792331E+03 -0.15744685916E+03  0.16148722979E+03  0.28557212784E+03  0.00000000000E+00 0.  1.
          3    1    6    6  503    0  0.12020300034E+03  0.32169220237E+02 -0.87636411147E+02  0.15219645390E+03  0.00000000000E+00 0. -1.
         -3    1    6    6    0  503  0.12181037217E+03  0.14337271557E+03 -0.14643301226E+03  0.23840329154E+03  0.00000000000E+00 0.  1.
<mgrwt>
<rscale>  0 0.60177729E+03</rscale>
<asrwt>0</asrwt>
<pdfrwt beam="1">  1        1 0.81234881E-01 0.60177729E+03</pdfrwt>
<pdfrwt beam="2">  1       -1 0.16256505E+00 0.60177729E+03</pdfrwt>
<totfact> 0.12059138E+01</totfact>
</mgrwt>
</event>
<event>
12    1  0.1444206E-007  0.4955961E+03  0.7818608E-02  0.1014935E+00
         -2   -1    0    0    0  501 -0.00000000000E+00  0.00000000000E+00  0.18541596991E+03  0.18541596991E+03  0.00000000000E+00 0.  1.
          2   -1    0    0  501    0  0.00000000000E+00 -0.00000000000E+00 -0.17534819926E+04  0.17534819926E+04  0.00000000000E+00 0. -1.
         23    2    1    2    0    0  0.30906320809E+03 -0.24023234326E+03 -0.36211460368E+03  0.53616343225E+03  0.55790631335E+02 0.  0.
    5000000    2    1    2    0    0 -0.30906320809E+03  0.24023234326E+03 -0.12059514190E+04  0.14027345302E+04  0.60009473587E+03 0.  0.
         23    2    4    4    0    0  0.75648776158E+02  0.16358370498E+03 -0.99704017694E+02  0.22546603934E+03  0.91715199853E+02 0.  0.
         23    2    4    4    0    0 -0.38471198424E+03  0.76648638277E+02 -0.11062474013E+04  0.11772684909E+04  0.91101384224E+02 0.  0.
          4    1    3    3  502    0  0.27983831917E+03 -0.23061166851E+03 -0.31752557412E+03  0.48198933261E+03  0.00000000000E+00 0. -1.
         -4    1    3    3    0  502  0.29224888916E+02 -0.96206747477E+01 -0.44589029564E+02  0.54174099644E+02  0.00000000000E+00 0.  1.
         13    1    5    5    0    0  0.23910684731E+02  0.13285731130E+03 -0.95078578887E+02  0.16511427005E+03  0.00000000000E+00 0. -1.
        -13    1    5    5    0    0  0.51738091427E+02  0.30726393680E+02 -0.46254388067E+01  0.60351769297E+02  0.00000000000E+00 0.  1.
          2    1    6    6  503    0 -0.15947694309E+03  0.77712185238E+02 -0.47640259794E+03  0.50836159811E+03  0.00000000000E+00 0. -1.
         -2    1    6    6    0  503 -0.22523504116E+03 -0.10635469616E+01 -0.62984480336E+03  0.66890689279E+03  0.00000000000E+00 0.  1.
<mgrwt>
<rscale>  0 0.49559611E+03</rscale>
<asrwt>0</asrwt>
<pdfrwt beam="1">  1        2 0.26976645E+00 0.49559611E+03</pdfrwt>
<pdfrwt beam="2">  1       -2 0.28525535E-01 0.49559611E+03</pdfrwt>
<totfact> 0.10854009E+02</totfact>
</mgrwt>
</event>
<event>
12    1  0.1444206E-007  0.4991811E+03  0.7818608E-02  0.1013993E+00
          2   -1    0    0  501    0  0.00000000000E+00  0.00000000000E+00  0.11729256653E+04  0.11729256653E+04  0.00000000000E+00 0. -1.
         -2   -1    0    0    0  501 -0.00000000000E+00 -0.00000000000E+00 -0.24401615501E+03  0.24401615501E+03  0.00000000000E+00 0.  1.
         23    2    1    2    0    0 -0.25364192147E+03 -0.21994805062E+03  0.48686175435E+03  0.59951345627E+03  0.98339448350E+02 0.  0.
    5000000    2    1    2    0    0  0.25364192147E+03  0.21994805062E+03  0.44204775595E+03  0.81742836406E+03  0.60005961581E+03 0.  0.
         23    2    4    4    0    0 -0.22014145229E+02 -0.16997447937E+03  0.67363220357E+02  0.20376651610E+03  0.87218366191E+02 0.  0.
         23    2    4    4    0    0  0.27565606670E+03  0.38992252999E+03  0.37468453559E+03  0.61366184795E+03  0.90368777337E+02 0.  0.
          1    1    3    3  502    0 -0.10369234861E+03 -0.46286590614E+02  0.22000696853E+03  0.24758355727E+03  0.00000000000E+00 0. -1.
         -1    1    3    3    0  502 -0.14994957286E+03 -0.17366146001E+03  0.26685478583E+03  0.35192989900E+03  0.00000000000E+00 0.  1.
         11    1    5    5    0    0 -0.22357868659E+01 -0.11143811736E+03  0.84242600013E+02  0.13971495410E+03  0.00000000000E+00 0. -1.
        -11    1    5    5    0    0 -0.19778358363E+02 -0.58536362012E+02 -0.16879379656E+02  0.64051562001E+02  0.00000000000E+00 0.  1.
          2    1    6    6  503    0  0.22100073192E+03  0.26041816441E+03  0.29941925864E+03  0.45421452675E+03  0.00000000000E+00 0. -1.
         -2    1    6    6    0  503  0.54655334779E+02  0.12950436559E+03  0.75265276952E+02  0.15944732121E+03  0.00000000000E+00 0.  1.
<mgrwt>
<rscale>  0 0.49918107E+03</rscale>
<asrwt>0</asrwt>
<pdfrwt beam="1">  1        2 0.18045010E+00 0.49918107E+03</pdfrwt>
<pdfrwt beam="2">  1       -2 0.37540947E-01 0.49918107E+03</pdfrwt>
<totfact> 0.13638396E+02</totfact>
</mgrwt>
</event>
<event>
12    1  0.1444206E-007  0.5469919E+03  0.7818608E-02  0.1002193E+00
         -1   -1    0    0    0  501 -0.00000000000E+00  0.00000000000E+00  0.70957437716E+03  0.70957437716E+03  0.00000000000E+00 0.  1.
          1   -1    0    0  501    0  0.00000000000E+00 -0.00000000000E+00 -0.79520051180E+03  0.79520051180E+03  0.00000000000E+00 0. -1.
         23    2    1    2    0    0  0.22229734936E+03 -0.47438111124E+03  0.31137950598E+03  0.61431575761E+03  0.77285852960E+02 0.  0.
    5000000    2    1    2    0    0 -0.22229734936E+03  0.47438111124E+03 -0.39700564062E+03  0.89045913134E+03  0.60070827834E+03 0.  0.
         23    2    4    4    0    0 -0.18593253496E+03  0.15833813417E+03 -0.48219191342E+03  0.54829123495E+03  0.92045448943E+02 0.  0.
         23    2    4    4    0    0 -0.36364814392E+02  0.31604297708E+03  0.85186272794E+02  0.34216789639E+03  0.92825670813E+02 0.  0.
          1    1    3    3  502    0  0.14728003630E+03 -0.37873471454E+03  0.21884017030E+03  0.46154351174E+03  0.00000000000E+00 0. -1.
         -1    1    3    3    0  502  0.75017313052E+02 -0.95646396701E+02  0.92539335685E+02  0.15277224587E+03  0.00000000000E+00 0.  1.
         13    1    5    5    0    0 -0.18422686027E+03  0.15963428119E+03 -0.41670126603E+03  0.48276555893E+03  0.00000000000E+00 0. -1.
        -13    1    5    5    0    0 -0.17056746941E+01 -0.12961470227E+01 -0.65490647389E+02  0.65525676026E+02  0.00000000000E+00 0.  1.
          3    1    6    6  503    0 -0.35071309770E+02  0.14771134706E+03 -0.35823532927E+01  0.15186004107E+03  0.00000000000E+00 0. -1.
         -3    1    6    6    0  503 -0.12935046217E+01  0.16833163002E+03  0.88768626086E+02  0.19030785532E+03  0.00000000000E+00 0.  1.
<mgrwt>
<rscale>  0 0.54699187E+03</rscale>
<asrwt>0</asrwt>
<pdfrwt beam="1">  1        1 0.12233854E+00 0.54699187E+03</pdfrwt>
<pdfrwt beam="2">  1       -1 0.10916529E+00 0.54699187E+03</pdfrwt>
<totfact> 0.18343738E+01</totfact>
</mgrwt>
</event>
<event>
12    1  0.1444206E-007  0.4636835E+03  0.7818608E-02  0.1023718E+00
         -1   -1    0    0    0  501 -0.00000000000E+00  0.00000000000E+00  0.14835339113E+03  0.14835339113E+03  0.00000000000E+00 0.  1.
          1   -1    0    0  501    0  0.00000000000E+00 -0.00000000000E+00 -0.24493397368E+04  0.24493397368E+04  0.00000000000E+00 0. -1.
         23    2    1    2    0    0  0.44777415424E+03  0.43039597717E+01 -0.84185271613E+03  0.95778374677E+03  0.90074927998E+02 0.  0.
    5000000    2    1    2    0    0 -0.44777415424E+03 -0.43039597717E+01 -0.14591336295E+04  0.16399093811E+04  0.59975962874E+03 0.  0.
         23    2    4    4    0    0 -0.30396048924E+03 -0.67388942556E+02 -0.23168289756E+03  0.39922675361E+03  0.93657819649E+02 0.  0.
         23    2    4    4    0    0 -0.14381366500E+03  0.63084982784E+02 -0.12274507319E+04  0.12406826275E+04  0.89420342025E+02 0.  0.
          2    1    3    3  502    0  0.41286237584E+03  0.53434497716E+01 -0.81536164903E+03  0.91394666833E+03  0.00000000000E+00 0. -1.
         -2    1    3    3    0  502  0.34911778402E+02 -0.10394899999E+01 -0.26491067100E+02  0.43837078447E+02  0.00000000000E+00 0.  1.
         13    1    5    5    0    0 -0.28508977607E+03 -0.83982165233E+02 -0.19765706702E+03  0.35692786476E+03  0.00000000000E+00 0. -1.
        -13    1    5    5    0    0 -0.18870713164E+02  0.16593222678E+02 -0.34025830544E+02  0.42298888855E+02  0.00000000000E+00 0.  1.
          3    1    6    6  503    0 -0.12657680941E+03  0.52862872924E+02 -0.72681753950E+03  0.73964850283E+03  0.00000000000E+00 0. -1.
         -3    1    6    6    0  503 -0.17236855599E+02  0.10222109860E+02 -0.50063319243E+03  0.50103412467E+03  0.00000000000E+00 0.  1.
<mgrwt>
<rscale>  0 0.46368347E+03</rscale>
<asrwt>0</asrwt>
<pdfrwt beam="1">  1        1 0.37682155E+00 0.46368347E+03</pdfrwt>
<pdfrwt beam="2">  1       -1 0.22823596E-01 0.46368347E+03</pdfrwt>
<totfact> 0.26438341E+01</totfact>
</mgrwt>
</event>
<event>
12    1  0.1444206E-007  0.1246110E+04  0.7818608E-02  0.9073427E-01
         -2   -1    0    0    0  501 -0.00000000000E+00  0.00000000000E+00  0.56280095607E+03  0.56280095607E+03  0.00000000000E+00 0.  1.
          2   -1    0    0  501    0  0.00000000000E+00 -0.00000000000E+00 -0.33537023422E+04  0.33537023422E+04  0.00000000000E+00 0. -1.
         23    2    1    2    0    0 -0.91353925596E+03 -0.81962278600E+03 -0.69130046308E+03  0.14116100962E+04  0.91712866794E+02 0.  0.
    5000000    2    1    2    0    0  0.91353925596E+03  0.81962278600E+03 -0.20996009231E+04  0.25048932021E+04  0.59985867856E+03 0.  0.
         23    2    4    4    0    0  0.68705652271E+03  0.74036290451E+03 -0.12093028051E+04  0.15783028272E+04  0.91883862010E+02 0.  0.
         23    2    4    4    0    0  0.22648273325E+03  0.79259881487E+02 -0.89029811798E+03  0.92659037492E+03  0.91446305239E+02 0.  0.
          4    1    3    3  502    0 -0.31867507098E+03 -0.23490048838E+03 -0.19990349532E+03  0.44350135033E+03  0.00000000000E+00 0. -1.
         -4    1    3    3    0  502 -0.59486418498E+03 -0.58472229762E+03 -0.49139696776E+03  0.96810874587E+03  0.00000000000E+00 0.  1.
         11    1    5    5    0    0  0.52969074228E+03  0.62041777023E+03 -0.99381712453E+03  0.12857538524E+04  0.00000000000E+00 0.  1.
        -11    1    5    5    0    0  0.15736578043E+03  0.11994513428E+03 -0.21548568056E+03  0.29254897473E+03  0.00000000000E+00 0. -1.
          1    1    6    6  503    0  0.20840460682E+02 -0.11474626631E+02 -0.35500831204E+02  0.42735241592E+02  0.00000000000E+00 0. -1.
         -1    1    6    6    0  503  0.20564227256E+03  0.90734508118E+02 -0.85479728678E+03  0.88385513333E+03  0.00000000000E+00 0.  1.
<mgrwt>
<rscale>  0 0.12461103E+04</rscale>
<asrwt>0</asrwt>
<pdfrwt beam="1">  1        2 0.51595421E+00 0.12461103E+04</pdfrwt>
<pdfrwt beam="2">  1       -2 0.86584761E-01 0.12461103E+04</pdfrwt>
<totfact> 0.11757031E+00</totfact>
</mgrwt>
</event>
<event>
12    1  0.1444206E-007  0.6319293E+03  0.7818608E-02  0.9841291E-01
         -1   -1    0    0    0  501 -0.00000000000E+00  0.00000000000E+00  0.32671287940E+03  0.32671287940E+03  0.00000000000E+00 0.  1.
          1   -1    0    0  501    0  0.00000000000E+00 -0.00000000000E+00 -0.15155800267E+04  0.15155800267E+04  0.00000000000E+00 0. -1.
         23    2    1    2    0    0  0.46146294760E+03 -0.20063500134E+03 -0.13363888700E+03  0.52819365051E+03  0.89032154565E+02 0.  0.
    5000000    2    1    2    0    0 -0.46146294760E+03  0.20063500134E+03 -0.10552282603E+04  0.13140992556E+04  0.60012308442E+03 0.  0.
         23    2    4    4    0    0 -0.46747543424E+03  0.36085734645E+03 -0.84011598889E+03  0.10308868329E+04  0.90451541430E+02 0.  0.
         23    2    4    4    0    0  0.60124866352E+01 -0.16022234511E+03 -0.21511227146E+03  0.28321242275E+03  0.90711836027E+02 0.  0.
          3    1    3    3  502    0  0.89154254001E+02 -0.65471994070E+01 -0.70894429272E+01  0.89675007820E+02  0.00000000000E+00 0. -1.
         -3    1    3    3    0  502  0.37230869360E+03 -0.19408780193E+03 -0.12654944407E+03  0.43851864269E+03  0.00000000000E+00 0.  1.
         13    1    5    5    0    0 -0.22258997094E+03  0.13189388321E+03 -0.31166702519E+03  0.40506619975E+03  0.00000000000E+00 0.  1.
        -13    1    5    5    0    0 -0.24488546330E+03  0.22896346324E+03 -0.52844896369E+03  0.62582063314E+03  0.00000000000E+00 0. -1.
          4    1    6    6  503    0 -0.25080958598E+01 -0.52961531137E+02 -0.14600083807E+03  0.15533016140E+03  0.00000000000E+00 0. -1.
         -4    1    6    6    0  503  0.85205824950E+01 -0.10726081397E+03 -0.69111433397E+02  0.12788226134E+03  0.00000000000E+00 0.  1.
<mgrwt>
<rscale>  0 0.63192930E+03</rscale>
<asrwt>0</asrwt>
<pdfrwt beam="1">  1        1 0.23316616E+00 0.63192930E+03</pdfrwt>
<pdfrwt beam="2">  1       -1 0.50263520E-01 0.63192930E+03</pdfrwt>
<totfact> 0.26621104E+01</totfact>
</mgrwt>
</event>
<event>
12    1  0.1444206E-007  0.1047711E+04  0.7818608E-02  0.9257710E-01
         -1   -1    0    0    0  501 -0.00000000000E+00  0.00000000000E+00  0.83807670711E+03  0.83807670711E+03  0.00000000000E+00 0.  1.
          1   -1    0    0  501    0  0.00000000000E+00 -0.00000000000E+00 -0.17770885060E+04  0.17770885060E+04  0.00000000000E+00 0. -1.
         23    2    1    2    0    0  0.44089011085E+03  0.93167298141E+03  0.91633656274E+02  0.10389830870E+04  0.93222818487E+02 0.  0.
    5000000    2    1    2    0    0 -0.44089011085E+03 -0.93167298141E+03 -0.10306454552E+04  0.15761821262E+04  0.59976779381E+03 0.  0.
         23    2    4    4    0    0 -0.29680236867E+03 -0.34105548601E+03 -0.78959176931E+03  0.91441580618E+03  0.91052808064E+02 0.  0.
         23    2    4    4    0    0 -0.14408774218E+03 -0.59061749540E+03 -0.24105368589E+03  0.66176632001E+03  0.10118043044E+03 0.  0.
          4    1    3    3  502    0  0.28193566503E+03  0.56513499393E+03  0.12388803799E+02  0.63167931978E+03  0.00000000000E+00 0. -1.
         -4    1    3    3    0  502  0.15895444582E+03  0.36653798748E+03  0.79244852475E+02  0.40730376718E+03  0.00000000000E+00 0.  1.
         11    1    5    5    0    0 -0.22581557595E+03 -0.29573639302E+03 -0.69045731354E+03  0.78433665624E+03  0.00000000000E+00 0. -1.
        -11    1    5    5    0    0 -0.70986792724E+02 -0.45319092988E+02 -0.99134455765E+02  0.13007914994E+03  0.00000000000E+00 0.  1.
          2    1    6    6  503    0 -0.14407947231E+03 -0.58729344627E+03 -0.22474498601E+03  0.64512231020E+03  0.00000000000E+00 0. -1.
         -2    1    6    6    0  503 -0.82698655613E-02 -0.33240491269E+01 -0.16308699881E+02  0.16644009817E+02  0.00000000000E+00 0.  1.
<mgrwt>
<rscale>  0 0.10477114E+04</rscale>
<asrwt>0</asrwt>
<pdfrwt beam="1">  1        1 0.27339822E+00 0.10477114E+04</pdfrwt>
<pdfrwt beam="2">  1       -1 0.12893488E+00 0.10477114E+04</pdfrwt>
<totfact> 0.21900526E+00</totfact>
</mgrwt>
</event>
<event>
12    1  0.1444206E-007  0.9455161E+03  0.7818608E-02  0.9370407E-01
         -1   -1    0    0    0  501 -0.00000000000E+00  0.00000000000E+00  0.13537035947E+04  0.13537035947E+04  0.00000000000E+00 0.  1.
          1   -1    0    0  501    0  0.00000000000E+00 -0.00000000000E+00 -0.89182458804E+03  0.89182458804E+03  0.00000000000E+00 0. -1.
         23    2    1    2    0    0  0.12095578055E+03 -0.91646883150E+03 -0.21272848873E+03  0.95346229118E+03  0.96392483248E+02 0.  0.
    5000000    2    1    2    0    0 -0.12095578055E+03  0.91646883150E+03  0.67460749541E+03  0.12920658916E+04  0.59982795479E+03 0.  0.
         23    2    4    4    0    0  0.89932375496E+02  0.26800816663E+03 -0.40516197358E+02  0.29970060205E+03  0.90899279854E+02 0.  0.
         23    2    4    4    0    0 -0.21088815604E+03  0.64846066488E+03  0.71512369277E+03  0.99236528953E+03  0.91716539687E+02 0.  0.
          2    1    3    3  502    0  0.51882859447E+01 -0.88828330709E+02  0.73169999979E+01  0.89280060129E+02  0.00000000000E+00 0.  1.
         -2    1    3    3    0  502  0.11576749460E+03 -0.82764050079E+03 -0.22004548873E+03  0.86418223106E+03  0.00000000000E+00 0. -1.
         11    1    5    5    0    0  0.71644586896E+02  0.17627709381E+03  0.15100570649E+02  0.19087846360E+03  0.00000000000E+00 0. -1.
        -11    1    5    5    0    0  0.18287788599E+02  0.91731072819E+02 -0.55616768007E+02  0.10882213845E+03  0.00000000000E+00 0.  1.
          2    1    6    6  503    0 -0.19193408375E+03  0.61278140948E+03  0.63743898958E+03  0.90480285905E+03  0.00000000000E+00 0. -1.
         -2    1    6    6    0  503 -0.18954072295E+02  0.35679255403E+02  0.77684703188E+02  0.87562430483E+02  0.00000000000E+00 0.  1.
<mgrwt>
<rscale>  0 0.94551612E+03</rscale>
<asrwt>0</asrwt>
<pdfrwt beam="1">  1        1 0.13720378E+00 0.94551612E+03</pdfrwt>
<pdfrwt beam="2">  1       -1 0.20826209E+00 0.94551612E+03</pdfrwt>
<totfact> 0.24699930E+00</totfact>
</mgrwt>
</event>
<event>
12    1  0.1444206E-007  0.6778626E+03  0.7818608E-02  0.9755857E-01
          2   -1    0    0  501    0  0.00000000000E+00  0.00000000000E+00  0.15181120027E+04  0.15181120027E+04  0.00000000000E+00 0. -1.
         -2   -1    0    0    0  501 -0.00000000000E+00 -0.00000000000E+00 -0.40345802927E+03  0.40345802927E+03  0.00000000000E+00 0.  1.
         23    2    1    2    0    0  0.37133672006E+03 -0.52057905337E+03  0.25761719225E+03  0.69528671922E+03  0.90352054279E+02 0.  0.
    5000000    2    1    2    0    0 -0.37133672006E+03  0.52057905337E+03  0.85703678120E+03  0.12262833128E+04  0.60030426317E+03 0.  0.
         23    2    4    4    0    0 -0.17799170341E+03  0.47355759736E+03  0.86645838727E+03  0.10076180286E+04  0.92769122809E+02 0.  0.
         23    2    4    4    0    0 -0.19334501665E+03  0.47021456007E+02 -0.94216060644E+01  0.21866528420E+03  0.90179970401E+02 0.  0.
          4    1    3    3  502    0  0.10094326161E+03 -0.85060822303E+02  0.69902954613E+02  0.14936970449E+03  0.00000000000E+00 0. -1.
         -4    1    3    3    0  502  0.27039345845E+03 -0.43551823106E+03  0.18771423763E+03  0.54591701473E+03  0.00000000000E+00 0.  1.
         13    1    5    5    0    0 -0.18302432800E+03  0.47193289035E+03  0.84070600376E+03  0.98132825415E+03  0.00000000000E+00 0. -1.
        -13    1    5    5    0    0  0.50326245912E+01  0.16247070108E+01  0.25752383505E+02  0.26289774426E+02  0.00000000000E+00 0.  1.
          2    1    6    6  503    0 -0.18276341742E+03  0.48101472023E+02  0.17424410441E+02  0.18978890494E+03  0.00000000000E+00 0. -1.
         -2    1    6    6    0  503 -0.10581599235E+02 -0.10800160159E+01 -0.26846016505E+02  0.28876379260E+02  0.00000000000E+00 0.  1.
<mgrwt>
<rscale>  0 0.67786264E+03</rscale>
<asrwt>0</asrwt>
<pdfrwt beam="1">  1        2 0.23355569E+00 0.67786264E+03</pdfrwt>
<pdfrwt beam="2">  1       -2 0.62070467E-01 0.67786264E+03</pdfrwt>
<totfact> 0.30848878E+01</totfact>
</mgrwt>
</event>
<event>
12    1  0.1444206E-007  0.9168712E+03  0.7818608E-02  0.9404734E-01
         -2   -1    0    0    0  501 -0.00000000000E+00  0.00000000000E+00  0.32060939677E+03  0.32060939677E+03  0.00000000000E+00 0.  1.
          2   -1    0    0  501    0  0.00000000000E+00 -0.00000000000E+00 -0.29860193073E+04  0.29860193073E+04  0.00000000000E+00 0. -1.
         23    2    1    2    0    0 -0.66231511760E+03  0.53254959842E+03 -0.16213413349E+04  0.18327304872E+04  0.88785834595E+02 0.  0.
    5000000    2    1    2    0    0  0.66231511760E+03 -0.53254959842E+03 -0.10440685756E+04  0.14738982169E+04  0.60002197750E+03 0.  0.
         23    2    4    4    0    0  0.71951910607E+03 -0.41741898103E+03 -0.10140533221E+04  0.13145919670E+04  0.88890663123E+02 0.  0.
         23    2    4    4    0    0 -0.57203988468E+02 -0.11513061739E+03 -0.30015253528E+02  0.15930624990E+03  0.89163952677E+02 0.  0.
          3    1    3    3  502    0 -0.28419020684E+03  0.26112395718E+03 -0.65794656553E+03  0.76278665285E+03  0.00000000000E+00 0. -1.
         -3    1    3    3    0  502 -0.37812491076E+03  0.27142564124E+03 -0.96339476941E+03  0.10699438343E+04  0.00000000000E+00 0.  1.
         11    1    5    5    0    0  0.29487897381E+03 -0.21405611458E+03 -0.47982605403E+03  0.60250034980E+03  0.00000000000E+00 0.  1.
        -11    1    5    5    0    0  0.42464013226E+03 -0.20336286645E+03 -0.53422726807E+03  0.71209161722E+03  0.00000000000E+00 0. -1.
          1    1    6    6  503    0 -0.54903189555E+02 -0.31144175630E+02  0.13707213211E+02  0.64592628008E+02  0.00000000000E+00 0. -1.
         -1    1    6    6    0  503 -0.23007989135E+01 -0.83986441758E+02 -0.43722466738E+02  0.94713621895E+02  0.00000000000E+00 0.  1.
<mgrwt>
<rscale>  0 0.91687116E+03</rscale>
<asrwt>0</asrwt>
<pdfrwt beam="1">  1        2 0.45938757E+00 0.91687116E+03</pdfrwt>
<pdfrwt beam="2">  1       -2 0.49324525E-01 0.91687116E+03</pdfrwt>
<totfact> 0.71547737E+00</totfact>
</mgrwt>
</event>
<event>
12    1  0.1444206E-007  0.5912915E+03  0.7818608E-02  0.9923640E-01
         -1   -1    0    0    0  501 -0.00000000000E+00  0.00000000000E+00  0.78999440446E+03  0.78999440446E+03  0.00000000000E+00 0.  1.
          1   -1    0    0  501    0  0.00000000000E+00 -0.00000000000E+00 -0.63809299771E+03  0.63809299771E+03  0.00000000000E+00 0. -1.
         23    2    1    2    0    0 -0.29833966543E+03 -0.34975320795E+03 -0.29079406160E+03  0.55200627082E+03  0.93892887537E+02 0.  0.
    5000000    2    1    2    0    0  0.29833966543E+03  0.34975320795E+03  0.44269546835E+03  0.87608113134E+03  0.60017081615E+03 0.  0.
         23    2    4    4    0    0 -0.14121535951E+03  0.31288844212E+01  0.19547163558E+03  0.25759959257E+03  0.90536302642E+02 0.  0.
         23    2    4    4    0    0  0.43955502494E+03  0.34662432353E+03  0.24722383277E+03  0.61848153878E+03  0.89681373259E+02 0.  0.
          3    1    3    3  502    0 -0.20135188757E+03 -0.16622823333E+03 -0.14903121855E+03  0.30064050340E+03  0.00000000000E+00 0. -1.
         -3    1    3    3    0  502 -0.96987777860E+02 -0.18352497461E+03 -0.14176284305E+03  0.25136576742E+03  0.00000000000E+00 0.  1.
         13    1    5    5    0    0 -0.19167433349E+02 -0.14455212780E+02  0.96625920799E+02  0.99563609055E+02  0.00000000000E+00 0.  1.
        -13    1    5    5    0    0 -0.12204792616E+03  0.17584097202E+02  0.98845714779E+02  0.15803598351E+03  0.00000000000E+00 0. -1.
          4    1    6    6  503    0  0.28441947310E+03  0.16935216564E+03  0.15484945684E+03  0.36544896630E+03  0.00000000000E+00 0. -1.
         -4    1    6    6    0  503  0.15513555183E+03  0.17727215789E+03  0.92374375935E+02  0.25303257247E+03  0.00000000000E+00 0.  1.
<mgrwt>
<rscale>  0 0.59129155E+03</rscale>
<asrwt>0</asrwt>
<pdfrwt beam="1">  1        1 0.98168153E-01 0.59129155E+03</pdfrwt>
<pdfrwt beam="2">  1       -1 0.12153760E+00 0.59129155E+03</pdfrwt>
<totfact> 0.19672662E+01</totfact>
</mgrwt>
</event>
<event>
12    1  0.2036631E-007  0.8453873E+03  0.7818608E-02  0.9496549E-01
          2   -1    0    0  501    0  0.00000000000E+00  0.00000000000E+00  0.15318224292E+04  0.15318224292E+04  0.00000000000E+00 0. -1.
         -2   -1    0    0    0  501 -0.00000000000E+00 -0.00000000000E+00 -0.49566413411E+03  0.49566413411E+03  0.00000000000E+00 0.  1.
         23    2    1    2    0    0 -0.81177025952E+02  0.76068388047E+03  0.47024927902E+03  0.90257302051E+03  0.90961515963E+02 0.  0.
    5000000    2    1    2    0    0  0.81177025952E+02 -0.76068388047E+03  0.56590901610E+03  0.11249135428E+04  0.59995648908E+03 0.  0.
         23    2    4    4    0    0 -0.18912479182E+03 -0.48311601263E+03  0.49012847101E+03  0.71967311299E+03  0.92380749720E+02 0.  0.
         23    2    4    4    0    0  0.27030181778E+03 -0.27756786784E+03  0.75780545087E+02  0.40524042984E+03  0.91488365468E+02 0.  0.
          4    1    3    3  502    0  0.48530385926E+01  0.37421545456E+03  0.23921394431E+03  0.44416671370E+03  0.00000000000E+00 0. -1.
         -4    1    3    3    0  502 -0.86030064545E+02  0.38646842591E+03  0.23103533471E+03  0.45840630680E+03  0.00000000000E+00 0.  1.
         11    1    5    5    0    0 -0.93682361022E+02 -0.15277526747E+03  0.12749266137E+03  0.21993418520E+03  0.00000000000E+00 0. -1.
        -11    1    5    5    0    0 -0.95442430803E+02 -0.33034074516E+03  0.36263580964E+03  0.49973892779E+03  0.00000000000E+00 0.  1.
          2    1    6    6  503    0  0.15565129405E+03 -0.21931471567E+03  0.41214523119E+02  0.27207518587E+03  0.00000000000E+00 0. -1.
         -2    1    6    6    0  503  0.11465052372E+03 -0.58253152164E+02  0.34566021968E+02  0.13316524397E+03  0.00000000000E+00 0.  1.
<mgrwt>
<rscale>  0 0.84538728E+03</rscale>
<asrwt>0</asrwt>
<pdfrwt beam="1">  1        2 0.23566499E+00 0.84538728E+03</pdfrwt>
<pdfrwt beam="2">  1       -2 0.76256021E-01 0.84538728E+03</pdfrwt>
<totfact> 0.18991942E+01</totfact>
</mgrwt>
</event>
<event>
12    1  0.1444206E-007  0.7566565E+03  0.7818608E-02  0.9624965E-01
         -2   -1    0    0    0  501 -0.00000000000E+00  0.00000000000E+00  0.43623718146E+03  0.43623718146E+03  0.00000000000E+00 0.  1.
          2   -1    0    0  501    0  0.00000000000E+00 -0.00000000000E+00 -0.19030237963E+04  0.19030237963E+04  0.00000000000E+00 0. -1.
         23    2    1    2    0    0  0.11018595026E+03  0.69352065247E+03 -0.11731847658E+04  0.13701191711E+04  0.88046631993E+02 0.  0.
    5000000    2    1    2    0    0 -0.11018595026E+03 -0.69352065247E+03 -0.29360184905E+03  0.96914180662E+03  0.59993496026E+03 0.  0.
         23    2    4    4    0    0  0.85932561414E+02 -0.54943262872E+03 -0.39740601974E+03  0.68874047389E+03  0.84683394158E+02 0.  0.
         23    2    4    4    0    0 -0.19611851167E+03 -0.14408802376E+03  0.10380417069E+03  0.28040133273E+03  0.92875036118E+02 0.  0.
          4    1    3    3  502    0  0.83837656240E+00  0.10592743147E+03 -0.12837814286E+03  0.16643999272E+03  0.00000000000E+00 0. -1.
         -4    1    3    3    0  502  0.10934757369E+03  0.58759322100E+03 -0.10448066229E+04  0.12036791784E+04  0.00000000000E+00 0.  1.
         11    1    5    5    0    0  0.95102654851E+02 -0.36561522899E+03 -0.25098539064E+03  0.45355559410E+03  0.00000000000E+00 0.  1.
        -11    1    5    5    0    0 -0.91700934372E+01 -0.18381739973E+03 -0.14642062910E+03  0.23518487980E+03  0.00000000000E+00 0. -1.
          1    1    6    6  503    0 -0.12201324916E+02  0.27758385560E+01  0.31956145823E+02  0.34318695564E+02  0.00000000000E+00 0. -1.
         -1    1    6    6    0  503 -0.18391718675E+03 -0.14686386231E+03  0.71848024868E+02  0.24608263716E+03  0.00000000000E+00 0.  1.
<mgrwt>
<rscale>  0 0.75665652E+03</rscale>
<asrwt>0</asrwt>
<pdfrwt beam="1">  1        2 0.29277289E+00 0.75665652E+03</pdfrwt>
<pdfrwt beam="2">  1       -2 0.67113413E-01 0.75665652E+03</pdfrwt>
<totfact> 0.15896214E+01</totfact>
</mgrwt>
</event>
<event>
12    1  0.1444206E-007  0.4798875E+03  0.7818608E-02  0.1019166E+00
         -1   -1    0    0    0  501 -0.00000000000E+00  0.00000000000E+00  0.25380712887E+03  0.25380712887E+03  0.00000000000E+00 0.  1.
          1   -1    0    0  501    0  0.00000000000E+00 -0.00000000000E+00 -0.13980795828E+04  0.13980795828E+04  0.00000000000E+00 0. -1.
         23    2    1    2    0    0  0.43070556154E+03 -0.60535019110E+02 -0.49848882471E+03  0.66886281573E+03  0.98562612774E+02 0.  0.
    5000000    2    1    2    0    0 -0.43070556154E+03  0.60535019110E+02 -0.64578362918E+03  0.98302389589E+03  0.60010641964E+03 0.  0.
         23    2    4    4    0    0 -0.19240514272E+03 -0.10875328453E+03 -0.63556413455E+03  0.67870927527E+03  0.88642514520E+02 0.  0.
         23    2    4    4    0    0 -0.23830041882E+03  0.16928830364E+03 -0.10219494627E+02  0.30431462061E+03  0.84007921589E+02 0.  0.
          1    1    3    3  502    0  0.25800269636E+03 -0.25200624455E+02 -0.36525353798E+03  0.44789575774E+03  0.00000000000E+00 0. -1.
         -1    1    3    3    0  502  0.17270286518E+03 -0.35334394655E+02 -0.13323528673E+03  0.22096705799E+03  0.00000000000E+00 0.  1.
         13    1    5    5    0    0 -0.12638143277E+02 -0.77024336814E+01 -0.55568883148E+01  0.15809147917E+02  0.00000000000E+00 0. -1.
        -13    1    5    5    0    0 -0.17976699944E+03 -0.10105085085E+03 -0.63000724623E+03  0.66290012736E+03  0.00000000000E+00 0.  1.
          2    1    6    6  503    0 -0.13932505389E+03  0.49507002395E+02 -0.16684520342E+02  0.14879780625E+03  0.00000000000E+00 0. -1.
         -2    1    6    6    0  503 -0.98975364934E+02  0.11978130124E+03  0.64650257147E+01  0.15551681436E+03  0.00000000000E+00 0.  1.
<mgrwt>
<rscale>  0 0.47988749E+03</rscale>
<asrwt>0</asrwt>
<pdfrwt beam="1">  1        1 0.21508916E+00 0.47988749E+03</pdfrwt>
<pdfrwt beam="2">  1       -1 0.39047251E-01 0.47988749E+03</pdfrwt>
<totfact> 0.52227453E+01</totfact>
</mgrwt>
</event>
<event>
12    1  0.1444206E-007  0.5384843E+03  0.7818608E-02  0.1004195E+00
         -2   -1    0    0    0  501 -0.00000000000E+00  0.00000000000E+00  0.15387216218E+03  0.15387216218E+03  0.00000000000E+00 0.  1.
          2   -1    0    0  501    0  0.00000000000E+00 -0.00000000000E+00 -0.22977488548E+04  0.22977488548E+04  0.00000000000E+00 0. -1.
         23    2    1    2    0    0 -0.17520057988E+03 -0.33511882815E+03 -0.12586725426E+04  0.13174158590E+04  0.91258444457E+02 0.  0.
    5000000    2    1    2    0    0  0.17520057988E+03  0.33511882815E+03 -0.88520414994E+03  0.11342051580E+04  0.59986255189E+03 0.  0.
         23    2    4    4    0    0 -0.20813216401E+03  0.99242011031E+02 -0.30135797562E+03  0.39111033120E+03  0.94777039677E+02 0.  0.
         23    2    4    4    0    0  0.38333274389E+03  0.23587681712E+03 -0.58384617432E+03  0.74309482679E+03  0.93443570932E+02 0.  0.
          1    1    3    3  502    0 -0.25036370582E+02 -0.91752364381E+02 -0.44221242105E+03  0.45232415539E+03  0.00000000000E+00 0. -1.
         -1    1    3    3    0  502 -0.15016420930E+03 -0.24336646376E+03 -0.81646012159E+03  0.86509170357E+03  0.00000000000E+00 0.  1.
         13    1    5    5    0    0 -0.58216583651E+02  0.35805724629E+00 -0.29437619733E+02  0.65237046780E+02  0.00000000000E+00 0. -1.
        -13    1    5    5    0    0 -0.14991558035E+03  0.98883953784E+02 -0.27192035589E+03  0.32587328442E+03  0.00000000000E+00 0.  1.
          3    1    6    6  503    0  0.28633478033E+03  0.12990080708E+03 -0.37121981382E+03  0.48648327441E+03  0.00000000000E+00 0. -1.
         -3    1    6    6    0  503  0.96997963555E+02  0.10597601003E+03 -0.21262636050E+03  0.25661155238E+03  0.00000000000E+00 0.  1.
<mgrwt>
<rscale>  0 0.53848427E+03</rscale>
<asrwt>0</asrwt>
<pdfrwt beam="1">  1        2 0.35349978E+00 0.53848427E+03</pdfrwt>
<pdfrwt beam="2">  1       -2 0.23672643E-01 0.53848427E+03</pdfrwt>
<totfact> 0.76614585E+01</totfact>
</mgrwt>
</event>
<event>
12    1  0.1444206E-007  0.9088327E+03  0.7818608E-02  0.9414607E-01
          1   -1    0    0  501    0  0.00000000000E+00  0.00000000000E+00  0.10419487256E+04  0.10419487256E+04  0.00000000000E+00 0. -1.
         -1   -1    0    0    0  501 -0.00000000000E+00 -0.00000000000E+00 -0.10882051878E+04  0.10882051878E+04  0.00000000000E+00 0.  1.
         23    2    1    2    0    0  0.70186716009E+03 -0.42112076007E+03  0.51413290954E+03  0.97087776125E+03  0.91163444706E+02 0.  0.
    5000000    2    1    2    0    0 -0.70186716009E+03  0.42112076007E+03 -0.56038937174E+03  0.11592761521E+04  0.59993728337E+03 0.  0.
         23    2    4    4    0    0 -0.58057062036E+03  0.55146776250E+03 -0.38609396134E+03  0.89358210540E+03  0.90782673492E+02 0.  0.
         23    2    4    4    0    0 -0.12129653973E+03 -0.13034700244E+03 -0.17429541040E+03  0.26569404674E+03  0.92256407840E+02 0.  0.
          2    1    3    3  502    0  0.53210827585E+03 -0.33905821941E+03  0.35382932319E+03  0.72339123808E+03  0.00000000000E+00 0. -1.
         -2    1    3    3    0  502  0.16975888425E+03 -0.82062540656E+02  0.16030358634E+03  0.24748652317E+03  0.00000000000E+00 0.  1.
         11    1    5    5    0    0 -0.57717992047E+03  0.55158709163E+03 -0.38989796956E+03  0.88848489402E+03  0.00000000000E+00 0.  1.
        -11    1    5    5    0    0 -0.33906998913E+01 -0.11932912581E+00  0.38040082275E+01  0.50972113737E+01  0.00000000000E+00 0. -1.
          4    1    6    6  503    0 -0.10731658098E+02 -0.69259204914E+02 -0.88964439175E+02  0.11325492214E+03  0.00000000000E+00 0.  1.
         -4    1    6    6    0  503 -0.11056488164E+03 -0.61087797523E+02 -0.85330971228E+02  0.15243912460E+03  0.00000000000E+00 0. -1.
<mgrwt>
<rscale>  0 0.90883272E+03</rscale>
<asrwt>0</asrwt>
<pdfrwt beam="1">  1        1 0.16029980E+00 0.90883272E+03</pdfrwt>
<pdfrwt beam="2">  1       -1 0.16741618E+00 0.90883272E+03</pdfrwt>
<totfact> 0.36627052E+00</totfact>
</mgrwt>
</event>
<event>
12    1  0.1444206E-007  0.5340058E+03  0.7818608E-02  0.1005265E+00
          1   -1    0    0  501    0  0.00000000000E+00  0.00000000000E+00  0.18602827665E+04  0.18602827665E+04  0.00000000000E+00 0.  1.
         -1   -1    0    0    0  501 -0.00000000000E+00 -0.00000000000E+00 -0.17082631073E+03  0.17082631073E+03  0.00000000000E+00 0. -1.
         23    2    1    2    0    0  0.13685102281E+03  0.33708834718E+03  0.32179643171E+03  0.49388802370E+03  0.89530331435E+02 0.  0.
    5000000    2    1    2    0    0 -0.13685102281E+03 -0.33708834718E+03  0.13676600241E+04  0.15372210536E+04  0.60016486882E+03 0.  0.
         23    2    4    4    0    0  0.15429526241E+03 -0.35079063599E+03  0.70687640059E+03  0.80968429907E+03  0.95148936609E+02 0.  0.
         23    2    4    4    0    0 -0.29114628522E+03  0.13702288807E+02  0.66078362350E+03  0.72753675450E+03  0.87868196445E+02 0.  0.
          3    1    3    3  502    0 -0.95794238637E+01  0.63558105721E+02  0.60168064848E+02  0.88043138245E+02  0.00000000000E+00 0. -1.
         -3    1    3    3    0  502  0.14643044667E+03  0.27353024146E+03  0.26162836686E+03  0.40584488546E+03  0.00000000000E+00 0.  1.
         11    1    5    5    0    0  0.90796691524E+02 -0.28055517551E+03  0.58718175969E+03  0.65706747340E+03  0.00000000000E+00 0.  1.
        -11    1    5    5    0    0  0.63498570884E+02 -0.70235460483E+02  0.11969464091E+03  0.15261682566E+03  0.00000000000E+00 0. -1.
          4    1    6    6  503    0 -0.16168198942E+03  0.50383274388E+02  0.34708351604E+03  0.38619490823E+03  0.00000000000E+00 0. -1.
         -4    1    6    6    0  503 -0.12946429579E+03 -0.36680985581E+02  0.31370010747E+03  0.34134184627E+03  0.00000000000E+00 0.  1.
<mgrwt>
<rscale>  0 0.53400581E+03</rscale>
<asrwt>0</asrwt>
<pdfrwt beam="1">  1        1 0.28619734E+00 0.53400581E+03</pdfrwt>
<pdfrwt beam="2">  1       -1 0.26280972E-01 0.53400581E+03</pdfrwt>
<totfact> 0.50633471E+01</totfact>
</mgrwt>
</event>
<event>
12    1  0.1444206E-007  0.5005836E+03  0.7818608E-02  0.1013627E+00
         -2   -1    0    0    0  501 -0.00000000000E+00  0.00000000000E+00  0.90314710419E+03  0.90314710419E+03  0.00000000000E+00 0.  1.
          2   -1    0    0  501    0  0.00000000000E+00 -0.00000000000E+00 -0.53371200265E+03  0.53371200265E+03  0.00000000000E+00 0. -1.
         23    2    1    2    0    0  0.10074993519E+03 -0.37022812771E+03 -0.27115636506E+03  0.47898622321E+03  0.93180532990E+02 0.  0.
    5000000    2    1    2    0    0 -0.10074993519E+03  0.37022812771E+03  0.64059146659E+03  0.95787288363E+03  0.59995301327E+03 0.  0.
         23    2    4    4    0    0 -0.30160656222E+02 -0.11228953649E+03  0.27301335536E+01  0.14977284982E+03  0.94370799109E+02 0.  0.
         23    2    4    4    0    0 -0.70589278965E+02  0.48251766419E+03  0.63786133304E+03  0.80810003381E+03  0.91391694917E+02 0.  0.
          1    1    3    3  502    0  0.86724207619E+02 -0.22026040504E+03 -0.11922974450E+03  0.26504993150E+03  0.00000000000E+00 0. -1.
         -1    1    3    3    0  502  0.14025727568E+02 -0.14996772267E+03 -0.15192662056E+03  0.21393629171E+03  0.00000000000E+00 0.  1.
         13    1    5    5    0    0  0.60069826067E+01 -0.58069539959E+02  0.43581404334E+02  0.72852550503E+02  0.00000000000E+00 0. -1.
        -13    1    5    5    0    0 -0.36167638828E+02 -0.54219996528E+02 -0.40851270781E+02  0.76920299313E+02  0.00000000000E+00 0.  1.
          4    1    6    6  503    0 -0.68142513922E+02  0.29619589078E+03  0.45384551494E+03  0.54621530493E+03  0.00000000000E+00 0. -1.
         -4    1    6    6    0  503 -0.24467650434E+01  0.18632177342E+03  0.18401581810E+03  0.26188472888E+03  0.00000000000E+00 0.  1.
<mgrwt>
<rscale>  0 0.50058365E+03</rscale>
<asrwt>0</asrwt>
<pdfrwt beam="1">  1        2 0.82109539E-01 0.50058365E+03</pdfrwt>
<pdfrwt beam="2">  1       -2 0.13894571E+00 0.50058365E+03</pdfrwt>
<totfact> 0.21732451E+01</totfact>
</mgrwt>
</event>
<event>
12    1  0.1444206E-007  0.7580847E+03  0.7818608E-02  0.9622751E-01
         -2   -1    0    0    0  501 -0.00000000000E+00  0.00000000000E+00  0.21311673787E+03  0.21311673787E+03  0.00000000000E+00 0.  1.
          2   -1    0    0  501    0  0.00000000000E+00 -0.00000000000E+00 -0.30976067830E+04  0.30976067830E+04  0.00000000000E+00 0. -1.
         23    2    1    2    0    0 -0.67405338464E+03  0.76601855376E+02 -0.15872466938E+04  0.17286200010E+04  0.92516113370E+02 0.  0.
    5000000    2    1    2    0    0  0.67405338464E+03 -0.76601855376E+02 -0.12972433513E+04  0.15821035199E+04  0.59999618788E+03 0.  0.
         23    2    4    4    0    0  0.70753990377E+03 -0.15268500807E+03 -0.85734109976E+03  0.11254816606E+04  0.88032834743E+02 0.  0.
         23    2    4    4    0    0 -0.33486519129E+02  0.76083152693E+02 -0.43990225153E+03  0.45662185921E+03  0.89886252104E+02 0.  0.
          1    1    3    3  502    0 -0.55759036453E+03  0.97683675864E+02 -0.12953432790E+04  0.14136347922E+04  0.00000000000E+00 0. -1.
         -1    1    3    3    0  502 -0.11646302011E+03 -0.21081820487E+02 -0.29190341478E+03  0.31498520881E+03  0.00000000000E+00 0.  1.
         11    1    5    5    0    0  0.35796611635E+03 -0.11485728603E+03 -0.48023378862E+03  0.60988230695E+03  0.00000000000E+00 0. -1.
        -11    1    5    5    0    0  0.34957378742E+03 -0.37827722042E+02 -0.37710731115E+03  0.51559935369E+03  0.00000000000E+00 0.  1.
          3    1    6    6  503    0 -0.39170640282E+02  0.13645034042E+02 -0.30564612038E+03  0.30844785121E+03  0.00000000000E+00 0. -1.
         -3    1    6    6    0  503  0.56841211529E+01  0.62438118651E+02 -0.13425613116E+03  0.14817400800E+03  0.00000000000E+00 0.  1.
<mgrwt>
<rscale>  0 0.75808472E+03</rscale>
<asrwt>0</asrwt>
<pdfrwt beam="1">  1        2 0.47655489E+00 0.75808472E+03</pdfrwt>
<pdfrwt beam="2">  1       -2 0.32787190E-01 0.75808472E+03</pdfrwt>
<totfact> 0.13923338E+01</totfact>
</mgrwt>
</event>
<event>
12    1  0.1444206E-007  0.7429287E+03  0.7818608E-02  0.9646510E-01
          2   -1    0    0  501    0  0.00000000000E+00  0.00000000000E+00  0.25329085949E+04  0.25329085949E+04  0.00000000000E+00 0. -1.
         -2   -1    0    0    0  501 -0.00000000000E+00 -0.00000000000E+00 -0.40294980626E+03  0.40294980626E+03  0.00000000000E+00 0.  1.
         23    2    1    2    0    0  0.54083229344E+03  0.35053740551E+03  0.19246919291E+04  0.20318050536E+04  0.91742636522E+02 0.  0.
    5000000    2    1    2    0    0 -0.54083229344E+03 -0.35053740551E+03  0.20526685954E+03  0.90405334763E+03  0.59983491849E+03 0.  0.
         23    2    4    4    0    0 -0.58051102294E+02  0.13009157124E+03 -0.40327449429E+02  0.17413136274E+03  0.91660683652E+02 0.  0.
         23    2    4    4    0    0 -0.48278119115E+03 -0.48062897675E+03  0.24559430897E+03  0.72992198489E+03  0.91584101231E+02 0.  0.
          2    1    3    3  502    0  0.28078111004E+03  0.18394618634E+03  0.11445736947E+04  0.11927795998E+04  0.00000000000E+00 0. -1.
         -2    1    3    3    0  502  0.26005118341E+03  0.16659121917E+03  0.78011823445E+03  0.83902545373E+03  0.00000000000E+00 0.  1.
         11    1    5    5    0    0 -0.91034200512E+01  0.91478171667E+02 -0.58777018560E+02  0.10911400487E+03  0.00000000000E+00 0. -1.
        -11    1    5    5    0    0 -0.48947682243E+02  0.38613399576E+02  0.18449569130E+02  0.65017357874E+02  0.00000000000E+00 0.  1.
          2    1    6    6  503    0 -0.18603379405E+03 -0.24797780352E+03  0.12130810050E+03  0.33289220300E+03  0.00000000000E+00 0. -1.
         -2    1    6    6    0  503 -0.29674739710E+03 -0.23265117323E+03  0.12428620847E+03  0.39702978189E+03  0.00000000000E+00 0.  1.
<mgrwt>
<rscale>  0 0.74292874E+03</rscale>
<asrwt>0</asrwt>
<pdfrwt beam="1">  1        2 0.38967823E+00 0.74292874E+03</pdfrwt>
<pdfrwt beam="2">  1       -2 0.61992280E-01 0.74292874E+03</pdfrwt>
<totfact> 0.84610096E+00</totfact>
</mgrwt>
</event>
<event>
12    1  0.1444206E-007  0.8434160E+03  0.7818608E-02  0.9499217E-01
         -1   -1    0    0    0  501 -0.00000000000E+00  0.00000000000E+00  0.12398345395E+04  0.12398345395E+04  0.00000000000E+00 0.  1.
          1   -1    0    0  501    0  0.00000000000E+00 -0.00000000000E+00 -0.60169244113E+03  0.60169244113E+03  0.00000000000E+00 0. -1.
         23    2    1    2    0    0  0.61365104460E+03  0.43593506562E+03  0.36013789038E+03  0.83954820582E+03  0.92384543251E+02 0.  0.
    5000000    2    1    2    0    0 -0.61365104460E+03 -0.43593506562E+03  0.27800420799E+03  0.10019787748E+04  0.60005678024E+03 0.  0.
         23    2    4    4    0    0 -0.55290887344E+03 -0.55886768826E+03  0.27521441109E+03  0.83772855032E+03  0.89469752659E+02 0.  0.
         23    2    4    4    0    0 -0.60742171167E+02  0.12293262264E+03  0.27897968963E+01  0.16425022448E+03  0.90378715466E+02 0.  0.
          4    1    3    3  502    0  0.21826588908E+03  0.13582981892E+03  0.16892868205E+03  0.30761443019E+03  0.00000000000E+00 0. -1.
         -4    1    3    3    0  502  0.39538515552E+03  0.30010524670E+03  0.19120920833E+03  0.53193377563E+03  0.00000000000E+00 0.  1.
         11    1    5    5    0    0 -0.12062075807E+03 -0.16630657022E+03  0.97103832492E+02  0.22723643383E+03  0.00000000000E+00 0.  1.
        -11    1    5    5    0    0 -0.43228811537E+03 -0.39256111804E+03  0.17811057860E+03  0.61049211649E+03  0.00000000000E+00 0. -1.
          3    1    6    6  503    0 -0.38671038160E+02  0.31321363180E+02 -0.36948818809E+02  0.61981385877E+02  0.00000000000E+00 0. -1.
         -3    1    6    6    0  503 -0.22071133007E+02  0.91611259458E+02  0.39738615706E+02  0.10226883861E+03  0.00000000000E+00 0.  1.
<mgrwt>
<rscale>  0 0.84341599E+03</rscale>
<asrwt>0</asrwt>
<pdfrwt beam="1">  1        1 0.92568068E-01 0.84341599E+03</pdfrwt>
<pdfrwt beam="2">  1       -1 0.19074377E+00 0.84341599E+03</pdfrwt>
<totfact> 0.60844451E+00</totfact>
</mgrwt>
</event>
<event>
12    1  0.1444206E-007  0.3988976E+03  0.7818608E-02  0.1044162E+00
          2   -1    0    0  501    0  0.00000000000E+00  0.00000000000E+00  0.45723361321E+03  0.45723361321E+03  0.00000000000E+00 0. -1.
         -2   -1    0    0    0  501 -0.00000000000E+00 -0.00000000000E+00 -0.39177483851E+03  0.39177483851E+03  0.00000000000E+00 0.  1.
         23    2    1    2    0    0 -0.17081891530E+03  0.18604058967E+02  0.10875840645E+03  0.22326211877E+03  0.92154055080E+02 0.  0.
    5000000    2    1    2    0    0  0.17081891530E+03 -0.18604058967E+02 -0.43299631740E+02  0.62574633295E+03  0.60013198737E+03 0.  0.
         23    2    4    4    0    0 -0.77024143855E+02 -0.24731686838E+03 -0.28201184441E+02  0.27613055982E+03  0.91402555413E+02 0.  0.
         23    2    4    4    0    0  0.24784305916E+03  0.22871280942E+03 -0.15098447299E+02  0.34961577314E+03  0.90925763958E+02 0.  0.
          4    1    3    3  502    0 -0.19121704952E+02  0.32412105524E+02  0.43578294903E+02  0.57578224802E+02  0.00000000000E+00 0. -1.
         -4    1    3    3    0  502 -0.15169721035E+03 -0.13808046557E+02  0.65180111543E+02  0.16568389396E+03  0.00000000000E+00 0.  1.
         11    1    5    5    0    0 -0.39662888700E+02 -0.99215609624E+02  0.32630914644E+02  0.11172134319E+03  0.00000000000E+00 0.  1.
        -11    1    5    5    0    0 -0.37361255155E+02 -0.14810125876E+03 -0.60832099085E+02  0.16440921663E+03  0.00000000000E+00 0. -1.
          3    1    6    6  503    0  0.12847160888E+03  0.60554179144E+02 -0.19427596234E+02  0.14334990197E+03  0.00000000000E+00 0. -1.
         -3    1    6    6    0  503  0.11937145028E+03  0.16815863027E+03  0.43291489345E+01  0.20626587116E+03  0.00000000000E+00 0.  1.
<mgrwt>
<rscale>  0 0.39889763E+03</rscale>
<asrwt>0</asrwt>
<pdfrwt beam="1">  1        2 0.70343633E-01 0.39889763E+03</pdfrwt>
<pdfrwt beam="2">  1       -2 0.60273052E-01 0.39889763E+03</pdfrwt>
<totfact> 0.18014532E+02</totfact>
</mgrwt>
</event>
<event>
12    1  0.1444206E-007  0.3869604E+03  0.7818608E-02  0.1048391E+00
          1   -1    0    0  501    0  0.00000000000E+00  0.00000000000E+00  0.17165821870E+04  0.17165821870E+04  0.00000000000E+00 0. -1.
         -1   -1    0    0    0  501 -0.00000000000E+00 -0.00000000000E+00 -0.16434244254E+03  0.16434244254E+03  0.00000000000E+00 0.  1.
         23    2    1    2    0    0 -0.27214023462E+03 -0.78656730806E+02  0.91054183429E+03  0.95787282054E+03  0.90480493642E+02 0.  0.
    5000000    2    1    2    0    0  0.27214023462E+03  0.78656730806E+02  0.64169791020E+03  0.92305180904E+03  0.60000103801E+03 0.  0.
         23    2    4    4    0    0  0.17915669098E+03 -0.13973519222E+03  0.62061234587E+03  0.66698849310E+03  0.89949553710E+02 0.  0.
         23    2    4    4    0    0  0.92983543642E+02  0.21839192303E+03  0.21085564326E+02  0.25606331594E+03  0.93716857150E+02 0.  0.
          2    1    3    3  502    0 -0.21299045611E+03 -0.37954130506E+02  0.77317095323E+03  0.80286908854E+03  0.00000000000E+00 0. -1.
         -2    1    3    3    0  502 -0.59149778513E+02 -0.40702600300E+02  0.13737088106E+03  0.15500373199E+03  0.00000000000E+00 0.  1.
         11    1    5    5    0    0 -0.42573104031E+01 -0.29383061635E+02  0.61176685611E+02  0.68000557831E+02  0.00000000000E+00 0.  1.
        -11    1    5    5    0    0  0.18341400138E+03 -0.11035213059E+03  0.55943566026E+03  0.59898793527E+03  0.00000000000E+00 0. -1.
          3    1    6    6  503    0  0.97344999624E+02  0.19184326562E+03  0.45324434751E+02  0.21985038526E+03  0.00000000000E+00 0. -1.
         -3    1    6    6    0  503 -0.43614559828E+01  0.26548657410E+02 -0.24238870425E+02  0.36212930675E+02  0.00000000000E+00 0.  1.
<mgrwt>
<rscale>  0 0.38696043E+03</rscale>
<asrwt>0</asrwt>
<pdfrwt beam="1">  1        1 0.26408955E+00 0.38696043E+03</pdfrwt>
<pdfrwt beam="2">  1       -1 0.25283454E-01 0.38696043E+03</pdfrwt>
<totfact> 0.69134867E+01</totfact>
</mgrwt>
</event>
<event>
12    1  0.1444206E-007  0.1231187E+04  0.7818608E-02  0.9085988E-01
         -1   -1    0    0    0  501 -0.00000000000E+00  0.00000000000E+00  0.12933639088E+04  0.12933639088E+04  0.00000000000E+00 0.  1.
          1   -1    0    0  501    0  0.00000000000E+00 -0.00000000000E+00 -0.13102018679E+04  0.13102018679E+04  0.00000000000E+00 0. -1.
         23    2    1    2    0    0  0.35344463273E+01  0.12191174954E+04 -0.17843619993E+03  0.12352543913E+04  0.88056650732E+02 0.  0.
    5000000    2    1    2    0    0 -0.35344463273E+01 -0.12191174954E+04  0.16159824083E+03  0.13683113855E+04  0.59991840815E+03 0.  0.
         23    2    4    4    0    0  0.10288815529E+03 -0.74938328915E+03 -0.16683945137E+03  0.77973574836E+03  0.89393222217E+02 0.  0.
         23    2    4    4    0    0 -0.10642260162E+03 -0.46973420625E+03  0.32843769220E+03  0.58857563718E+03  0.81080012093E+02 0.  0.
          1    1    3    3  502    0  0.12973657189E+02  0.10206198874E+04 -0.18040532676E+03  0.10365227215E+04  0.00000000000E+00 0. -1.
         -1    1    3    3    0  502 -0.94392108614E+01  0.19849760804E+03  0.19691268345E+01  0.19873166975E+03  0.00000000000E+00 0.  1.
         11    1    5    5    0    0  0.38164663379E+02 -0.81937970827E+02 -0.30848977671E+02  0.95509329478E+02  0.00000000000E+00 0. -1.
        -11    1    5    5    0    0  0.64723491914E+02 -0.66744531833E+03 -0.13599047370E+03  0.68422641888E+03  0.00000000000E+00 0.  1.
          2    1    6    6  503    0 -0.44711494751E+02 -0.23863662725E+03  0.21301054728E+03  0.32298614658E+03  0.00000000000E+00 0. -1.
         -2    1    6    6    0  503 -0.61711106870E+02 -0.23109757901E+03  0.11542714492E+03  0.26558949060E+03  0.00000000000E+00 0.  1.
<mgrwt>
<rscale>  0 0.12311874E+04</rscale>
<asrwt>0</asrwt>
<pdfrwt beam="1">  1        1 0.20156952E+00 0.12311874E+04</pdfrwt>
<pdfrwt beam="2">  1       -1 0.19897906E+00 0.12311874E+04</pdfrwt>
<totfact> 0.13284584E+00</totfact>
</mgrwt>
</event>
<event>
12    1  0.1444206E-007  0.1795073E+04  0.7818608E-02  0.8708924E-01
         -2   -1    0    0    0  501 -0.00000000000E+00  0.00000000000E+00  0.78733913651E+03  0.78733913651E+03  0.00000000000E+00 0.  1.
          2   -1    0    0  501    0  0.00000000000E+00 -0.00000000000E+00 -0.43505913268E+04  0.43505913268E+04  0.00000000000E+00 0. -1.
         23    2    1    2    0    0 -0.17899968107E+04  0.92623652715E+01 -0.20111075792E+04  0.26938946125E+04  0.91324226215E+02 0.  0.
    5000000    2    1    2    0    0  0.17899968107E+04 -0.92623652715E+01 -0.15521446111E+04  0.24440358508E+04  0.59998664379E+03 0.  0.
         23    2    4    4    0    0  0.18075215341E+02  0.17689097886E+02 -0.12106002005E+02  0.94437609507E+02  0.90179206091E+02 0.  0.
         23    2    4    4    0    0  0.17719215953E+04 -0.26951463158E+02 -0.15400386091E+04  0.23495982413E+04  0.91980741083E+02 0.  0.
          4    1    3    3  502    0 -0.91645752559E+03  0.50302295561E+02 -0.10341539317E+04  0.13827143854E+04  0.00000000000E+00 0. -1.
         -4    1    3    3    0  502 -0.87353928510E+03 -0.41039930290E+02 -0.97695364751E+03  0.13111802271E+04  0.00000000000E+00 0.  1.
         11    1    5    5    0    0  0.11222997718E+02  0.95822411035E+01  0.39283181110E+02  0.41963595419E+02  0.00000000000E+00 0. -1.
        -11    1    5    5    0    0  0.68522176230E+01  0.81068567826E+01 -0.51389183116E+02  0.52474014088E+02  0.00000000000E+00 0.  1.
          2    1    6    6  503    0  0.13417023251E+04 -0.34563718450E+02 -0.11164835026E+04  0.17458222107E+04  0.00000000000E+00 0. -1.
         -2    1    6    6    0  503  0.43021927028E+03  0.76122552921E+01 -0.42355510647E+03  0.60377603064E+03  0.00000000000E+00 0.  1.
<mgrwt>
<rscale>  0 0.17950729E+04</rscale>
<asrwt>0</asrwt>
<pdfrwt beam="1">  1        2 0.66932176E+00 0.17950729E+04</pdfrwt>
<pdfrwt beam="2">  1       -2 0.12112909E+00 0.17950729E+04</pdfrwt>
<totfact> 0.82810873E-02</totfact>
</mgrwt>
</event>
<event>
12    1  0.1444206E-007  0.6750395E+03  0.7818608E-02  0.9760897E-01
          2   -1    0    0  501    0  0.00000000000E+00  0.00000000000E+00  0.16644054973E+04  0.16644054973E+04  0.00000000000E+00 0. -1.
         -2   -1    0    0    0  501 -0.00000000000E+00 -0.00000000000E+00 -0.34358769823E+03  0.34358769823E+03  0.00000000000E+00 0.  1.
         23    2    1    2    0    0  0.43604322877E+03 -0.43932413874E+03  0.74323870347E+03  0.97014690210E+03  0.75112216613E+02 0.  0.
    5000000    2    1    2    0    0 -0.43604322877E+03  0.43932413874E+03  0.57757909559E+03  0.10378462934E+04  0.60032318034E+03 0.  0.
         23    2    4    4    0    0 -0.49474637307E+03  0.34424513762E+03  0.63751621103E+03  0.88212477473E+03  0.91861365248E+02 0.  0.
         23    2    4    4    0    0  0.58703144305E+02  0.95079001113E+02 -0.59937115440E+02  0.15572151868E+03  0.90391691925E+02 0.  0.
          3    1    3    3  502    0  0.25264416004E+03 -0.25782096622E+03  0.37500850640E+03  0.52051138518E+03  0.00000000000E+00 0. -1.
         -3    1    3    3    0  502  0.18339906873E+03 -0.18150317251E+03  0.36823019707E+03  0.44963551692E+03  0.00000000000E+00 0.  1.
         13    1    5    5    0    0 -0.40040289770E+03  0.30338563988E+03  0.56657358345E+03  0.75721262036E+03  0.00000000000E+00 0.  1.
        -13    1    5    5    0    0 -0.94343475374E+02  0.40859497738E+02  0.70942627576E+02  0.12491215437E+03  0.00000000000E+00 0. -1.
          4    1    6    6  503    0  0.63747606215E+02  0.51263965166E+02 -0.73088376718E+02  0.10969805027E+03  0.00000000000E+00 0. -1.
         -4    1    6    6    0  503 -0.50444619095E+01  0.43815035947E+02  0.13151261278E+02  0.46023468407E+02  0.00000000000E+00 0.  1.
<mgrwt>
<rscale>  0 0.67503951E+03</rscale>
<asrwt>0</asrwt>
<pdfrwt beam="1">  1        2 0.25606238E+00 0.67503951E+03</pdfrwt>
<pdfrwt beam="2">  1       -2 0.52859647E-01 0.67503951E+03</pdfrwt>
<totfact> 0.35867936E+01</totfact>
</mgrwt>
</event>
<event>
12    1  0.1444206E-007  0.7112929E+03  0.7818608E-02  0.9698112E-01
         -2   -1    0    0    0  501 -0.00000000000E+00  0.00000000000E+00  0.45181766566E+03  0.45181766566E+03  0.00000000000E+00 0.  1.
          2   -1    0    0  501    0  0.00000000000E+00 -0.00000000000E+00 -0.18394581332E+04  0.18394581332E+04  0.00000000000E+00 0. -1.
         23    2    1    2    0    0 -0.23491763314E+03 -0.54171566952E+03 -0.13176115406E+04  0.14467139322E+04  0.90768215190E+02 0.  0.
    5000000    2    1    2    0    0  0.23491763314E+03  0.54171566952E+03 -0.70028926974E+02  0.84456186664E+03  0.59978207293E+03 0.  0.
         23    2    4    4    0    0  0.99608549206E+02  0.63058795232E+03 -0.10903856872E+03  0.65390265358E+03  0.90201120872E+02 0.  0.
         23    2    4    4    0    0  0.13530908393E+03 -0.88872282800E+02  0.39009641747E+02  0.19065921306E+03  0.92856623510E+02 0.  0.
          3    1    3    3  502    0 -0.38158102286E+02 -0.18483328600E+03 -0.37648768081E+03  0.42114410620E+03  0.00000000000E+00 0. -1.
         -3    1    3    3    0  502 -0.19675953085E+03 -0.35688238352E+03 -0.94112385976E+03  0.10255698260E+04  0.00000000000E+00 0.  1.
         13    1    5    5    0    0 -0.74204835908E+01  0.18310536681E+03 -0.50521278589E+02  0.19009218427E+03  0.00000000000E+00 0. -1.
        -13    1    5    5    0    0  0.10702903280E+03  0.44748258551E+03 -0.58517290132E+02  0.46381046931E+03  0.00000000000E+00 0.  1.
          1    1    6    6  503    0  0.14531761472E+00 -0.38839690168E+02  0.24226700696E+02  0.45776365913E+02  0.00000000000E+00 0. -1.
         -1    1    6    6    0  503  0.13516376632E+03 -0.50032592632E+02  0.14782941051E+02  0.14488284714E+03  0.00000000000E+00 0.  1.
<mgrwt>
<rscale>  0 0.71129293E+03</rscale>
<asrwt>0</asrwt>
<pdfrwt beam="1">  1        2 0.28299356E+00 0.71129293E+03</pdfrwt>
<pdfrwt beam="2">  1       -2 0.69510410E-01 0.71129293E+03</pdfrwt>
<totfact> 0.16054976E+01</totfact>
</mgrwt>
</event>
<event>
12    1  0.1444206E-007  0.4091793E+03  0.7818608E-02  0.1040647E+00
         -2   -1    0    0    0  501 -0.00000000000E+00  0.00000000000E+00  0.11521841710E+04  0.11521841710E+04  0.00000000000E+00 0.  1.
          2   -1    0    0  501    0  0.00000000000E+00 -0.00000000000E+00 -0.22672429245E+03  0.22672429245E+03  0.00000000000E+00 0. -1.
         23    2    1    2    0    0 -0.29168511708E+03  0.14675891458E+03  0.30440776202E+03  0.45572350701E+03  0.91659384267E+02 0.  0.
    5000000    2    1    2    0    0  0.29168511708E+03 -0.14675891458E+03  0.62105211657E+03  0.92318495648E+03  0.59995528653E+03 0.  0.
         23    2    4    4    0    0  0.23610395261E+03 -0.24036931780E+03  0.69044605677E+02  0.35316997945E+03  0.80245818806E+02 0.  0.
         23    2    4    4    0    0  0.55581164476E+02  0.93610403220E+02  0.55200751089E+03  0.57001497703E+03  0.91392606492E+02 0.  0.
          4    1    3    3  502    0 -0.28000647797E+03  0.11098717423E+03  0.27656242280E+03  0.40891142593E+03  0.00000000000E+00 0.  1.
         -4    1    3    3    0  502 -0.11678639114E+02  0.35771740341E+02  0.27845339224E+02  0.46812081081E+02  0.00000000000E+00 0. -1.
         11    1    5    5    0    0  0.10216654354E+03 -0.11672430381E+03  0.71646597245E+02  0.17086778695E+03  0.00000000000E+00 0.  1.
        -11    1    5    5    0    0  0.13393740907E+03 -0.12364501399E+03 -0.26019915682E+01  0.18230219250E+03  0.00000000000E+00 0. -1.
          2    1    6    6  503    0  0.80922068990E+02  0.77797709942E+02  0.43986219811E+03  0.45395993023E+03  0.00000000000E+00 0. -1.
         -2    1    6    6    0  503 -0.25340904515E+02  0.15812693278E+02  0.11214531278E+03  0.11605504680E+03  0.00000000000E+00 0.  1.
<mgrwt>
<rscale>  0 0.40917927E+03</rscale>
<asrwt>0</asrwt>
<pdfrwt beam="1">  1        2 0.34880661E-01 0.40917927E+03</pdfrwt>
<pdfrwt beam="2">  1       -2 0.17725910E+00 0.40917927E+03</pdfrwt>
<totfact> 0.29751272E+01</totfact>
</mgrwt>
</event>
<event>
12    1  0.1444206E-007  0.8015423E+03  0.7818608E-02  0.9557787E-01
         -1   -1    0    0    0  501 -0.00000000000E+00  0.00000000000E+00  0.15109061388E+04  0.15109061388E+04  0.00000000000E+00 0.  1.
          1   -1    0    0  501    0  0.00000000000E+00 -0.00000000000E+00 -0.58669942326E+03  0.58669942326E+03  0.00000000000E+00 0. -1.
         23    2    1    2    0    0 -0.69154654247E+03  0.16298016605E+03  0.92189726291E+03  0.11677446203E+04  0.94518674688E+02 0.  0.
    5000000    2    1    2    0    0  0.69154654247E+03 -0.16298016605E+03  0.23094526492E+01  0.92986094182E+03  0.59986405345E+03 0.  0.
         23    2    4    4    0    0  0.79649980561E+02 -0.25414108024E+03 -0.93899145285E+02  0.29680651396E+03  0.91352335364E+02 0.  0.
         23    2    4    4    0    0  0.61189656190E+03  0.91160914192E+02  0.96208597934E+02  0.63305442786E+03  0.93670163676E+02 0.  0.
          4    1    3    3  502    0 -0.82840134393E+02  0.36783340124E+01  0.69030643044E+02  0.10789461380E+03  0.00000000000E+00 0. -1.
         -4    1    3    3    0  502 -0.60870640807E+03  0.15930183204E+03  0.85286661987E+03  0.10598500065E+04  0.00000000000E+00 0.  1.
         13    1    5    5    0    0  0.59302826480E+02 -0.10421710828E+03 -0.22800374191E+01  0.11993010238E+03  0.00000000000E+00 0.  1.
        -13    1    5    5    0    0  0.20347154081E+02 -0.14992397196E+03 -0.91619107866E+02  0.17687641158E+03  0.00000000000E+00 0. -1.
          3    1    6    6  503    0  0.14781105173E+03  0.38086570548E+02  0.61810141111E+02  0.16467904364E+03  0.00000000000E+00 0. -1.
         -3    1    6    6    0  503  0.46408551018E+03  0.53074343644E+02  0.34398456823E+02  0.46837538422E+03  0.00000000000E+00 0.  1.
<mgrwt>
<rscale>  0 0.80154225E+03</rscale>
<asrwt>0</asrwt>
<pdfrwt beam="1">  1        1 0.90261450E-01 0.80154225E+03</pdfrwt>
<pdfrwt beam="2">  1       -1 0.23244710E+00 0.80154225E+03</pdfrwt>
<totfact> 0.33224048E+00</totfact>
</mgrwt>
</event>
<event>
12    1  0.1444206E-007  0.5967925E+03  0.7818608E-02  0.9912083E-01
         -1   -1    0    0    0  501 -0.00000000000E+00  0.00000000000E+00  0.14686131299E+03  0.14686131299E+03  0.00000000000E+00 0.  1.
          1   -1    0    0  501    0  0.00000000000E+00 -0.00000000000E+00 -0.33592246023E+04  0.33592246023E+04  0.00000000000E+00 0. -1.
         23    2    1    2    0    0 -0.22587531947E+03 -0.51078286035E+03 -0.10361376490E+04  0.11806157687E+04  0.91397896126E+02 0.  0.
    5000000    2    1    2    0    0  0.22587531947E+03  0.51078286035E+03 -0.21762256403E+04  0.23254701465E+04  0.59994547618E+03 0.  0.
         23    2    4    4    0    0  0.18414111662E+03  0.12402297798E+03 -0.16369176735E+04  0.16542883837E+04  0.88774639933E+02 0.  0.
         23    2    4    4    0    0  0.41734202844E+02  0.38675988237E+03 -0.53930796681E+03  0.67118176282E+03  0.91142335834E+02 0.  0.
          3    1    3    3  502    0 -0.10783695506E+03 -0.26184766249E+03 -0.43089970375E+03  0.51562346913E+03  0.00000000000E+00 0. -1.
         -3    1    3    3    0  502 -0.11803836441E+03 -0.24893519786E+03 -0.60523794523E+03  0.66499229962E+03  0.00000000000E+00 0.  1.
         11    1    5    5    0    0  0.16416048561E+03  0.64911883889E+02 -0.12369447310E+04  0.12494776850E+04  0.00000000000E+00 0.  1.
        -11    1    5    5    0    0  0.19980631015E+02  0.59111094093E+02 -0.39997294246E+03  0.40481069868E+03  0.00000000000E+00 0. -1.
          4    1    6    6  503    0 -0.10230294700E+02  0.24118814250E+03 -0.28407042683E+03  0.37279000310E+03  0.00000000000E+00 0. -1.
         -4    1    6    6    0  503  0.51964497544E+02  0.14557173986E+03 -0.25523753998E+03  0.29839175972E+03  0.00000000000E+00 0.  1.
<mgrwt>
<rscale>  0 0.59679249E+03</rscale>
<asrwt>0</asrwt>
<pdfrwt beam="1">  1        1 0.51680384E+00 0.59679249E+03</pdfrwt>
<pdfrwt beam="2">  1       -1 0.22594046E-01 0.59679249E+03</pdfrwt>
<totfact> 0.59360389E+00</totfact>
</mgrwt>
</event>
<event>
12    1  0.1444206E-007  0.3187334E+03  0.7818608E-02  0.1076234E+00
         -2   -1    0    0    0  501 -0.00000000000E+00  0.00000000000E+00  0.33257998844E+03  0.33257998844E+03  0.00000000000E+00 0.  1.
          2   -1    0    0  501    0  0.00000000000E+00 -0.00000000000E+00 -0.12234451498E+04  0.12234451498E+04  0.00000000000E+00 0. -1.
         23    2    1    2    0    0  0.25425499690E+03  0.49892455513E+02  0.15926432146E+03  0.31933226916E+03  0.97329920728E+02 0.  0.
    5000000    2    1    2    0    0 -0.25425499690E+03 -0.49892455513E+02 -0.10501294828E+04  0.12366928691E+04  0.59958524094E+03 0.  0.
         23    2    4    4    0    0 -0.85939646910E+02  0.88718894921E+02 -0.97876777988E+03  0.98970430785E+03  0.79193338299E+02 0.  0.
         23    2    4    4    0    0 -0.16831534999E+03 -0.13861135043E+03 -0.71361702925E+02  0.24698856120E+03  0.91475096101E+02 0.  0.
          3    1    3    3  502    0  0.17361775254E+03 -0.10124247053E+02  0.12057997977E+03  0.21162503608E+03  0.00000000000E+00 0. -1.
         -3    1    3    3    0  502  0.80637244367E+02  0.60016702566E+02  0.38684341696E+02  0.10770723308E+03  0.00000000000E+00 0.  1.
         11    1    5    5    0    0  0.11760023791E+02  0.41077373811E+01 -0.35475835221E+02  0.37599289230E+02  0.00000000000E+00 0.  1.
        -11    1    5    5    0    0 -0.97699670701E+02  0.84611157540E+02 -0.94329194465E+03  0.95210501862E+03  0.00000000000E+00 0. -1.
          3    1    6    6  503    0 -0.90980081361E+02 -0.50351762469E+02  0.95932248678E+01  0.10442559625E+03  0.00000000000E+00 0. -1.
         -3    1    6    6    0  503 -0.77335268634E+02 -0.88259587965E+02 -0.80954927793E+02  0.14256296495E+03  0.00000000000E+00 0.  1.
<mgrwt>
<rscale>  0 0.31873339E+03</rscale>
<asrwt>0</asrwt>
<pdfrwt beam="1">  1        2 0.18822233E+00 0.31873339E+03</pdfrwt>
<pdfrwt beam="2">  1       -2 0.51166152E-01 0.31873339E+03</pdfrwt>
<totfact> 0.71296277E+01</totfact>
</mgrwt>
</event>
<event>
12    1  0.1444206E-007  0.1079632E+04  0.7818608E-02  0.9225274E-01
          1   -1    0    0  501    0  0.00000000000E+00  0.00000000000E+00  0.11753486648E+04  0.11753486648E+04  0.00000000000E+00 0. -1.
         -1   -1    0    0    0  501 -0.00000000000E+00 -0.00000000000E+00 -0.10173062216E+04  0.10173062216E+04  0.00000000000E+00 0.  1.
         23    2    1    2    0    0 -0.99543039296E+03  0.12343978022E+03 -0.35640858480E+02  0.10078682497E+04  0.91701097925E+02 0.  0.
    5000000    2    1    2    0    0  0.99543039296E+03 -0.12343978022E+03  0.19368330161E+03  0.11847866367E+04  0.60007258449E+03 0.  0.
         23    2    4    4    0    0  0.11659509404E+03  0.17751390935E+03 -0.21640063061E+01  0.23115731384E+03  0.91232761944E+02 0.  0.
         23    2    4    4    0    0  0.87883529892E+03 -0.30095368957E+03  0.19584730791E+03  0.95362932288E+03  0.90156039965E+02 0.  0.
          4    1    3    3  502    0 -0.58151529647E+03  0.26711051095E+02 -0.16042565683E+02  0.58234945196E+03  0.00000000000E+00 0. -1.
         -4    1    3    3    0  502 -0.41391509649E+03  0.96728729126E+02 -0.19598292797E+02  0.42551879773E+03  0.00000000000E+00 0.  1.
         11    1    5    5    0    0  0.69833212879E+02  0.14993835653E+03  0.29935444580E+02  0.16809021156E+03  0.00000000000E+00 0.  1.
        -11    1    5    5    0    0  0.46761881159E+02  0.27575552819E+02 -0.32099450886E+02  0.63067102280E+02  0.00000000000E+00 0. -1.
          2    1    6    6  503    0  0.59859638241E+03 -0.24396940725E+03  0.11613966699E+03  0.65675499462E+03  0.00000000000E+00 0. -1.
         -2    1    6    6    0  503  0.28023891651E+03 -0.56984282324E+02  0.79707640923E+02  0.29687432826E+03  0.00000000000E+00 0.  1.
<mgrwt>
<rscale>  0 0.10796321E+04</rscale>
<asrwt>0</asrwt>
<pdfrwt beam="1">  1        1 0.18082287E+00 0.10796321E+04</pdfrwt>
<pdfrwt beam="2">  1       -1 0.15650865E+00 0.10796321E+04</pdfrwt>
<totfact> 0.34405980E+00</totfact>
</mgrwt>
</event>
<event>
12    1  0.1444206E-007  0.6941088E+03  0.7818608E-02  0.9727360E-01
         -2   -1    0    0    0  501 -0.00000000000E+00  0.00000000000E+00  0.39817446193E+03  0.39817446193E+03  0.00000000000E+00 0.  1.
          2   -1    0    0  501    0  0.00000000000E+00 -0.00000000000E+00 -0.26483026686E+04  0.26483026686E+04  0.00000000000E+00 0. -1.
         23    2    1    2    0    0 -0.24707051245E+03  0.61248957138E+03 -0.46091553978E+02  0.66832170156E+03  0.91335383386E+02 0.  0.
    5000000    2    1    2    0    0  0.24707051245E+03 -0.61248957138E+03 -0.22040366527E+04  0.23781554290E+04  0.60138038273E+03 0.  0.
         23    2    4    4    0    0  0.15769605967E+02 -0.10785268646E+02 -0.14293087108E+02  0.93689349415E+02  0.90600217233E+02 0.  0.
         23    2    4    4    0    0  0.23130090649E+03 -0.60170430274E+03 -0.21897435656E+04  0.22844660795E+04  0.90885688239E+02 0.  0.
          3    1    3    3  502    0 -0.66149509323E+02  0.19542295131E+03  0.26272315931E+02  0.20798106180E+03  0.00000000000E+00 0. -1.
         -3    1    3    3    0  502 -0.18092100313E+03  0.41706662007E+03 -0.72363869910E+02  0.46034063977E+03  0.00000000000E+00 0.  1.
         13    1    5    5    0    0  0.45817826056E+02 -0.92633200891E+01  0.17503551295E+02  0.49914492800E+02  0.00000000000E+00 0. -1.
        -13    1    5    5    0    0 -0.30048220089E+02 -0.15219485567E+01 -0.31796638403E+02  0.43774856615E+02  0.00000000000E+00 0.  1.
          2    1    6    6  503    0  0.12493610099E+03 -0.20803013014E+03 -0.77190393610E+03  0.80914847275E+03  0.00000000000E+00 0. -1.
         -2    1    6    6    0  503  0.10636480549E+03 -0.39367417259E+03 -0.14178396295E+04  0.14753176068E+04  0.00000000000E+00 0.  1.
<mgrwt>
<rscale>  0 0.69410884E+03</rscale>
<asrwt>0</asrwt>
<pdfrwt beam="1">  1        2 0.40743117E+00 0.69410884E+03</pdfrwt>
<pdfrwt beam="2">  1       -2 0.61257611E-01 0.69410884E+03</pdfrwt>
<totfact> 0.75193211E+00</totfact>
</mgrwt>
</event>
<event>
12    1  0.1444206E-007  0.8898515E+03  0.7818608E-02  0.9438357E-01
         -2   -1    0    0    0  501 -0.00000000000E+00  0.00000000000E+00  0.18409060822E+04  0.18409060822E+04  0.00000000000E+00 0.  1.
          2   -1    0    0  501    0  0.00000000000E+00 -0.00000000000E+00 -0.66861949339E+03  0.66861949339E+03  0.00000000000E+00 0. -1.
         23    2    1    2    0    0  0.14199537517E+03  0.87051979268E+03  0.11380230821E+04  0.14422814797E+04  0.84332291004E+02 0.  0.
    5000000    2    1    2    0    0 -0.14199537517E+03 -0.87051979268E+03  0.34263506681E+02  0.10672440959E+04  0.59989047018E+03 0.  0.
         23    2    4    4    0    0 -0.52539891460E+02 -0.36262452633E+03  0.29810608353E+03  0.48095793476E+03  0.90533478201E+02 0.  0.
         23    2    4    4    0    0 -0.89455483710E+02 -0.50789526635E+03 -0.26384257685E+03  0.58628616109E+03  0.90325368418E+02 0.  0.
          1    1    3    3  502    0  0.54866960670E+02  0.21822507779E+03  0.34304875035E+03  0.41026212726E+03  0.00000000000E+00 0. -1.
         -1    1    3    3    0  502  0.87128414500E+02  0.65229471489E+03  0.79497433179E+03  0.10320193525E+04  0.00000000000E+00 0.  1.
         11    1    5    5    0    0 -0.27644515632E+02 -0.34355212424E+03  0.26075616793E+03  0.43218752924E+03  0.00000000000E+00 0. -1.
        -11    1    5    5    0    0 -0.24895375828E+02 -0.19072402094E+02  0.37349915605E+02  0.48770405523E+02  0.00000000000E+00 0.  1.
          1    1    6    6  503    0 -0.96189312225E+02 -0.36317025138E+03 -0.16167076198E+03  0.40900177329E+03  0.00000000000E+00 0. -1.
         -1    1    6    6    0  503  0.67338285155E+01 -0.14472501498E+03 -0.10217181487E+03  0.17728438781E+03  0.00000000000E+00 0.  1.
<mgrwt>
<rscale>  0 0.88985151E+03</rscale>
<asrwt>0</asrwt>
<pdfrwt beam="1">  1        2 0.10286454E+00 0.88985151E+03</pdfrwt>
<pdfrwt beam="2">  1       -2 0.28321632E+00 0.88985151E+03</pdfrwt>
<totfact> 0.17772940E+00</totfact>
</mgrwt>
</event>
<event>
12    1  0.1444206E-007  0.4609380E+03  0.7818608E-02  0.1024510E+00
         -1   -1    0    0    0  501 -0.00000000000E+00  0.00000000000E+00  0.33811834129E+03  0.33811834129E+03  0.00000000000E+00 0.  1.
          1   -1    0    0  501    0  0.00000000000E+00 -0.00000000000E+00 -0.11903686470E+04  0.11903686470E+04  0.00000000000E+00 0. -1.
         23    2    1    2    0    0 -0.33886096130E+02  0.36833284246E+03  0.49592477963E+02  0.38386929473E+03  0.89882541231E+02 0.  0.
    5000000    2    1    2    0    0  0.33886096130E+02 -0.36833284246E+03 -0.90184278365E+03  0.11446176935E+04  0.60000992293E+03 0.  0.
         23    2    4    4    0    0 -0.16491864804E+03 -0.29094686013E+03 -0.83392954897E+03  0.90308669985E+03  0.90988234997E+02 0.  0.
         23    2    4    4    0    0  0.19880474417E+03 -0.77385982336E+02 -0.67913234679E+02  0.24153099370E+03  0.90626138094E+02 0.  0.
          2    1    3    3  502    0 -0.19445306319E+02  0.58338564703E+02 -0.22136695133E+02  0.65357029774E+02  0.00000000000E+00 0.  1.
         -2    1    3    3    0  502 -0.14440789811E+02  0.30999427776E+03  0.71729173096E+02  0.31851226496E+03  0.00000000000E+00 0. -1.
         11    1    5    5    0    0 -0.12348600233E+03 -0.20695539015E+03 -0.48175225861E+03  0.53866925377E+03  0.00000000000E+00 0.  1.
        -11    1    5    5    0    0 -0.41432645712E+02 -0.83991469978E+02 -0.35217729036E+03  0.36441744608E+03  0.00000000000E+00 0. -1.
          3    1    6    6  503    0  0.47596324914E+02 -0.53084669710E+01 -0.55874289299E+02  0.73590258673E+02  0.00000000000E+00 0. -1.
         -3    1    6    6    0  503  0.15120841925E+03 -0.72077515365E+02 -0.12038945380E+02  0.16794073502E+03  0.00000000000E+00 0.  1.
<mgrwt>
<rscale>  0 0.46093795E+03</rscale>
<asrwt>0</asrwt>
<pdfrwt beam="1">  1        1 0.18313363E+00 0.46093795E+03</pdfrwt>
<pdfrwt beam="2">  1       -1 0.52018207E-01 0.46093795E+03</pdfrwt>
<totfact> 0.43160934E+01</totfact>
</mgrwt>
</event>
<event>
12    1  0.1444206E-007  0.1075125E+04  0.7818608E-02  0.9229782E-01
          2   -1    0    0  501    0  0.00000000000E+00  0.00000000000E+00  0.30142114395E+04  0.30142114395E+04  0.00000000000E+00 0.  1.
         -2   -1    0    0    0  501 -0.00000000000E+00 -0.00000000000E+00 -0.51991254266E+03  0.51991254266E+03  0.00000000000E+00 0. -1.
         23    2    1    2    0    0 -0.92734490177E+03  0.47478833576E+03  0.40106840018E+03  0.11201061942E+04  0.91594181931E+02 0.  0.
    5000000    2    1    2    0    0  0.92734490177E+03 -0.47478833576E+03  0.20932304966E+04  0.24140177879E+04  0.60039606725E+03 0.  0.
         23    2    4    4    0    0  0.62670350107E+03 -0.13359546951E+03  0.73766987550E+03  0.98128894690E+03  0.90366610880E+02 0.  0.
         23    2    4    4    0    0  0.30064140069E+03 -0.34119286625E+03  0.13555606211E+04  0.14327288410E+04  0.91485028394E+02 0.  0.
          3    1    3    3  502    0 -0.29878944818E+03  0.12945464833E+03  0.16523777081E+03  0.36515361318E+03  0.00000000000E+00 0. -1.
         -3    1    3    3    0  502 -0.62855545359E+03  0.34533368743E+03  0.23583062936E+03  0.75495258106E+03  0.00000000000E+00 0.  1.
         13    1    5    5    0    0  0.16084923176E+03 -0.61527791165E+02  0.15396208243E+03  0.23100317589E+03  0.00000000000E+00 0. -1.
        -13    1    5    5    0    0  0.46585426931E+03 -0.72067678344E+02  0.58370779306E+03  0.75028577101E+03  0.00000000000E+00 0.  1.
          3    1    6    6  503    0  0.37195781369E+02 -0.99859279953E+02  0.30526943576E+03  0.32333393010E+03  0.00000000000E+00 0. -1.
         -3    1    6    6    0  503  0.26344561933E+03 -0.24133358629E+03  0.10502911854E+04  0.11093949109E+04  0.00000000000E+00 0.  1.
<mgrwt>
<rscale>  0 0.10751246E+04</rscale>
<asrwt>0</asrwt>
<pdfrwt beam="1">  1        2 0.46372482E+00 0.10751246E+04</pdfrwt>
<pdfrwt beam="2">  1       -2 0.79986547E-01 0.10751246E+04</pdfrwt>
<totfact> 0.23831538E+00</totfact>
</mgrwt>
</event>
<event>
12    1  0.1444206E-007  0.5740813E+03  0.7818608E-02  0.9960688E-01
         -1   -1    0    0    0  501 -0.00000000000E+00  0.00000000000E+00  0.70025107322E+03  0.70025107322E+03  0.00000000000E+00 0.  1.
          1   -1    0    0  501    0  0.00000000000E+00 -0.00000000000E+00 -0.66255260339E+03  0.66255260339E+03  0.00000000000E+00 0. -1.
         23    2    1    2    0    0  0.24771994123E+03 -0.48047054074E+03 -0.50134637322E+02  0.55044775900E+03  0.90896335113E+02 0.  0.
    5000000    2    1    2    0    0 -0.24771994123E+03  0.48047054074E+03  0.87833107143E+02  0.81235591761E+03  0.59999197691E+03 0.  0.
         23    2    4    4    0    0 -0.16515640043E+03  0.48421634543E+03  0.27545200516E+03  0.58838986102E+03  0.92664532649E+02 0.  0.
         23    2    4    4    0    0 -0.82563540795E+02 -0.37458046961E+01 -0.18761889802E+03  0.22396605659E+03  0.90161933697E+02 0.  0.
          4    1    3    3  502    0  0.10542607505E+03 -0.12341946469E+03  0.35483218868E+01  0.16235643551E+03  0.00000000000E+00 0. -1.
         -4    1    3    3    0  502  0.14229386617E+03 -0.35705107605E+03 -0.53682959208E+02  0.38809132349E+03  0.00000000000E+00 0.  1.
         13    1    5    5    0    0 -0.99961320733E+02  0.17555540456E+03  0.13560155048E+03  0.24330997967E+03  0.00000000000E+00 0. -1.
        -13    1    5    5    0    0 -0.65195079701E+02  0.30866094087E+03  0.13985045468E+03  0.34507988135E+03  0.00000000000E+00 0.  1.
          1    1    6    6  503    0 -0.63416523669E+02 -0.92111239070E+01 -0.41164800271E+02  0.76164565641E+02  0.00000000000E+00 0. -1.
         -1    1    6    6    0  503 -0.19147017126E+02  0.54653192109E+01 -0.14645409775E+03  0.14780149095E+03  0.00000000000E+00 0.  1.
<mgrwt>
<rscale>  0 0.57408134E+03</rscale>
<asrwt>0</asrwt>
<pdfrwt beam="1">  1        1 0.10193117E+00 0.57408134E+03</pdfrwt>
<pdfrwt beam="2">  1       -1 0.10773093E+00 0.57408134E+03</pdfrwt>
<totfact> 0.24868825E+01</totfact>
</mgrwt>
</event>
<event>
12    1  0.1444206E-007  0.8725625E+03  0.7818608E-02  0.9460545E-01
         -2   -1    0    0    0  501 -0.00000000000E+00  0.00000000000E+00  0.51083252814E+03  0.51083252814E+03  0.00000000000E+00 0.  1.
          2   -1    0    0  501    0  0.00000000000E+00 -0.00000000000E+00 -0.26885324427E+04  0.26885324427E+04  0.00000000000E+00 0. -1.
         23    2    1    2    0    0  0.41599552741E+03 -0.75886899572E+03 -0.10759111594E+03  0.87678183625E+03  0.90753009134E+02 0.  0.
    5000000    2    1    2    0    0 -0.41599552741E+03  0.75886899572E+03 -0.20701087986E+04  0.23225831346E+04  0.60008961619E+03 0.  0.
         23    2    4    4    0    0 -0.25290284018E+03  0.47566853113E+03 -0.18219683251E+04  0.19021204697E+04  0.90957713138E+02 0.  0.
         23    2    4    4    0    0 -0.16309268723E+03  0.28320046458E+03 -0.24814047347E+03  0.42046266482E+03  0.91724752205E+02 0.  0.
          3    1    3    3  502    0  0.10589031495E+03 -0.13428294355E+03 -0.43842207531E+02  0.17654123283E+03  0.00000000000E+00 0. -1.
         -3    1    3    3    0  502  0.31010521246E+03 -0.62458605216E+03 -0.63748908412E+02  0.70024060342E+03  0.00000000000E+00 0.  1.
         11    1    5    5    0    0 -0.32568888960E+02  0.81503618172E+02 -0.42545213329E+03  0.43441119923E+03  0.00000000000E+00 0. -1.
        -11    1    5    5    0    0 -0.22033395122E+03  0.39416491296E+03 -0.13965161918E+04  0.14677092705E+04  0.00000000000E+00 0.  1.
          3    1    6    6  503    0 -0.51903662274E+02  0.17408794079E+03 -0.11081242746E+03  0.21279096637E+03  0.00000000000E+00 0. -1.
         -3    1    6    6    0  503 -0.11118902496E+03  0.10911252379E+03 -0.13732804602E+03  0.20767169846E+03  0.00000000000E+00 0.  1.
<mgrwt>
<rscale>  0 0.87256255E+03</rscale>
<asrwt>0</asrwt>
<pdfrwt beam="1">  1        2 0.41362038E+00 0.87256255E+03</pdfrwt>
<pdfrwt beam="2">  1       -2 0.78589619E-01 0.87256255E+03</pdfrwt>
<totfact> 0.40114593E+00</totfact>
</mgrwt>
</event>
<event>
12    1  0.1444206E-007  0.7612603E+03  0.7818608E-02  0.9617848E-01
         -1   -1    0    0    0  501 -0.00000000000E+00  0.00000000000E+00  0.16303007857E+04  0.16303007857E+04  0.00000000000E+00 0.  1.
          1   -1    0    0  501    0  0.00000000000E+00 -0.00000000000E+00 -0.99599288132E+03  0.99599288132E+03  0.00000000000E+00 0. -1.
         23    2    1    2    0    0 -0.28138494198E+02  0.65053720307E+03  0.13409131064E+04  0.14932486274E+04  0.88051558187E+02 0.  0.
    5000000    2    1    2    0    0  0.28138494198E+02 -0.65053720307E+03 -0.70660520209E+03  0.11330450395E+04  0.60042461856E+03 0.  0.
         23    2    4    4    0    0  0.24665940178E+03 -0.11885846921E+03 -0.33669026681E+03  0.44333786992E+03  0.90663856893E+02 0.  0.
         23    2    4    4    0    0 -0.21852090758E+03 -0.53167873386E+03 -0.36991493528E+03  0.68970716962E+03  0.91789200872E+02 0.  0.
          1    1    3    3  502    0  0.28833153282E+02  0.13979448646E+03  0.31411003959E+03  0.34502024020E+03  0.00000000000E+00 0. -1.
         -1    1    3    3    0  502 -0.56971647480E+02  0.51074271661E+03  0.10268030669E+04  0.11482283873E+04  0.00000000000E+00 0.  1.
         13    1    5    5    0    0  0.37510890768E+01  0.11751001519E+02 -0.10663791959E+02  0.16305617587E+02  0.00000000000E+00 0. -1.
        -13    1    5    5    0    0  0.24290831270E+03 -0.13060947073E+03 -0.32602647486E+03  0.42703225233E+03  0.00000000000E+00 0.  1.
          3    1    6    6  503    0 -0.61561141540E+02 -0.22447366319E+03 -0.10816768301E+03  0.25666797085E+03  0.00000000000E+00 0. -1.
         -3    1    6    6    0  503 -0.15695976604E+03 -0.30720507067E+03 -0.26174725227E+03  0.43303919877E+03  0.00000000000E+00 0.  1.
<mgrwt>
<rscale>  0 0.76126029E+03</rscale>
<asrwt>0</asrwt>
<pdfrwt beam="1">  1        1 0.15322967E+00 0.76126029E+03</pdfrwt>
<pdfrwt beam="2">  1       -1 0.25081551E+00 0.76126029E+03</pdfrwt>
<totfact> 0.11012467E+00</totfact>
</mgrwt>
</event>
<event>
12    1  0.1444206E-007  0.7108808E+03  0.7818608E-02  0.9698803E-01
         -2   -1    0    0    0  501 -0.00000000000E+00  0.00000000000E+00  0.39717260435E+03  0.39717260435E+03  0.00000000000E+00 0.  1.
          2   -1    0    0  501    0  0.00000000000E+00 -0.00000000000E+00 -0.13904465059E+04  0.13904465059E+04  0.00000000000E+00 0. -1.
         23    2    1    2    0    0 -0.49324721233E+03 -0.33491173824E+03 -0.61306047235E+03  0.86008434251E+03  0.91887151387E+02 0.  0.
    5000000    2    1    2    0    0  0.49324721233E+03  0.33491173824E+03 -0.38021342922E+03  0.92753476776E+03  0.60024978865E+03 0.  0.
         23    2    4    4    0    0  0.51789152838E+03  0.34967918758E+02 -0.18998258108E+03  0.56021887113E+03  0.91199846198E+02 0.  0.
         23    2    4    4    0    0 -0.24644316053E+02  0.29994381948E+03 -0.19023084814E+03  0.36731589663E+03  0.90330256153E+02 0.  0.
          2    1    3    3  502    0 -0.41981966046E+03 -0.25035084682E+03 -0.52747290401E+03  0.71913264303E+03  0.00000000000E+00 0. -1.
         -2    1    3    3    0  502 -0.73427551870E+02 -0.84560891413E+02 -0.85587568344E+02  0.14095169948E+03  0.00000000000E+00 0.  1.
         13    1    5    5    0    0  0.22354251305E+03  0.18992766597E+02 -0.34627184090E+02  0.22700445415E+03  0.00000000000E+00 0.  1.
        -13    1    5    5    0    0  0.29434901533E+03  0.15975152161E+02 -0.15535539699E+03  0.33321441698E+03  0.00000000000E+00 0. -1.
          3    1    6    6  503    0 -0.21337512635E+02  0.12101666498E+03 -0.12902981783E+03  0.17818253713E+03  0.00000000000E+00 0. -1.
         -3    1    6    6    0  503 -0.33068034177E+01  0.17892715450E+03 -0.61201030310E+02  0.18913335950E+03  0.00000000000E+00 0.  1.
<mgrwt>
<rscale>  0 0.71088077E+03</rscale>
<asrwt>0</asrwt>
<pdfrwt beam="1">  1        2 0.21391484E+00 0.71088077E+03</pdfrwt>
<pdfrwt beam="2">  1       -2 0.61103478E-01 0.71088077E+03</pdfrwt>
<totfact> 0.37442148E+01</totfact>
</mgrwt>
</event>
<event>
12    1  0.1444206E-007  0.4867380E+03  0.7818608E-02  0.1017300E+00
          1   -1    0    0  501    0  0.00000000000E+00  0.00000000000E+00  0.69260509047E+03  0.69260509047E+03  0.00000000000E+00 0. -1.
         -1   -1    0    0    0  501 -0.00000000000E+00 -0.00000000000E+00 -0.69727634119E+03  0.69727634119E+03  0.00000000000E+00 0.  1.
         23    2    1    2    0    0 -0.65014933496E+02 -0.43262629690E+03  0.34952724524E+03  0.56736201444E+03  0.91312134552E+02 0.  0.
    5000000    2    1    2    0    0  0.65014933496E+02  0.43262629690E+03 -0.35419849596E+03  0.82251941722E+03  0.59974091307E+03 0.  0.
         23    2    4    4    0    0 -0.64682302989E+02  0.33434102458E+03  0.70280159892E+02  0.35885620914E+03  0.88717286540E+02 0.  0.
         23    2    4    4    0    0  0.12969723649E+03  0.98285272327E+02 -0.42447865585E+03  0.46366320808E+03  0.91214436027E+02 0.  0.
          3    1    3    3  502    0 -0.64267198015E+02 -0.32387116144E+03  0.30613277589E+03  0.45026667479E+03  0.00000000000E+00 0. -1.
         -3    1    3    3    0  502 -0.74773548142E+00 -0.10875513546E+03  0.43394469350E+02  0.11709533965E+03  0.00000000000E+00 0.  1.
         13    1    5    5    0    0  0.17148538314E+02  0.13387034185E+03  0.35466395690E+02  0.13954642961E+03  0.00000000000E+00 0.  1.
        -13    1    5    5    0    0 -0.81830841303E+02  0.20047068273E+03  0.34813764202E+02  0.21930977953E+03  0.00000000000E+00 0. -1.
          4    1    6    6  503    0  0.77351911202E+02  0.10483771089E+03 -0.25806171927E+03  0.28908496112E+03  0.00000000000E+00 0. -1.
         -4    1    6    6    0  503  0.52345325284E+02 -0.65524385588E+01 -0.16641693658E+03  0.17457824696E+03  0.00000000000E+00 0.  1.
<mgrwt>
<rscale>  0 0.48673802E+03</rscale>
<asrwt>0</asrwt>
<pdfrwt beam="1">  1        1 0.10655463E+00 0.48673802E+03</pdfrwt>
<pdfrwt beam="2">  1       -1 0.10727328E+00 0.48673802E+03</pdfrwt>
<totfact> 0.23839363E+01</totfact>
</mgrwt>
</event>
<event>
12    1  0.1444206E-007  0.2915258E+03  0.7818608E-02  0.1089555E+00
          1   -1    0    0  501    0  0.00000000000E+00  0.00000000000E+00  0.90661361203E+03  0.90661361203E+03  0.00000000000E+00 0. -1.
         -1   -1    0    0    0  501 -0.00000000000E+00 -0.00000000000E+00 -0.35313316988E+03  0.35313316988E+03  0.00000000000E+00 0.  1.
         23    2    1    2    0    0  0.10871022715E+03 -0.24255145782E+03 -0.13190664719E+03  0.31077758079E+03  0.92380831163E+02 0.  0.
    5000000    2    1    2    0    0 -0.10871022715E+03  0.24255145782E+03  0.68538708933E+03  0.94896920112E+03  0.60011495505E+03 0.  0.
         23    2    4    4    0    0 -0.15649304473E+02  0.16400179422E+03  0.75547827603E+03  0.77871484993E+03  0.92238293075E+02 0.  0.
         23    2    4    4    0    0 -0.93060922682E+02  0.78549663603E+02 -0.70091186694E+02  0.17025435119E+03  0.96142522672E+02 0.  0.
          3    1    3    3  502    0  0.19918086917E+02 -0.10530283512E+03 -0.11566476839E+02  0.10779239610E+03  0.00000000000E+00 0. -1.
         -3    1    3    3    0  502  0.88792140237E+02 -0.13724862271E+03 -0.12034017035E+03  0.20298518469E+03  0.00000000000E+00 0.  1.
         11    1    5    5    0    0 -0.23179328199E+02 -0.13769785720E+01  0.98327247548E+02  0.10103180161E+03  0.00000000000E+00 0.  1.
        -11    1    5    5    0    0  0.75300237265E+01  0.16537877279E+03  0.65715102848E+03  0.67768304832E+03  0.00000000000E+00 0. -1.
          3    1    6    6  503    0 -0.68705057176E+02  0.44785998893E+02  0.73398188625E+01  0.82341019664E+02  0.00000000000E+00 0. -1.
         -3    1    6    6    0  503 -0.24355865506E+02  0.33763664710E+02 -0.77431005556E+02  0.87913331530E+02  0.00000000000E+00 0.  1.
<mgrwt>
<rscale>  0 0.29152575E+03</rscale>
<asrwt>0</asrwt>
<pdfrwt beam="1">  1        1 0.13947902E+00 0.29152575E+03</pdfrwt>
<pdfrwt beam="2">  1       -1 0.54328180E-01 0.29152575E+03</pdfrwt>
<totfact> 0.66993616E+01</totfact>
</mgrwt>
</event>
<event>
12    1  0.1444206E-007  0.1255261E+04  0.7818608E-02  0.9065816E-01
         -1   -1    0    0    0  501 -0.00000000000E+00  0.00000000000E+00  0.13507937455E+04  0.13507937455E+04  0.00000000000E+00 0.  1.
          1   -1    0    0  501    0  0.00000000000E+00 -0.00000000000E+00 -0.12197269088E+04  0.12197269088E+04  0.00000000000E+00 0. -1.
         23    2    1    2    0    0 -0.11909248145E+04  0.20816838172E+03  0.14221114403E+03  0.12208132149E+04  0.92330425181E+02 0.  0.
    5000000    2    1    2    0    0  0.11909248145E+04 -0.20816838172E+03 -0.11144307271E+02  0.13497074393E+04  0.59995832132E+03 0.  0.
         23    2    4    4    0    0  0.10159950412E+03 -0.17106567010E+03  0.11774730858E+03  0.24840910147E+03  0.90866552111E+02 0.  0.
         23    2    4    4    0    0  0.10893253104E+04 -0.37102711623E+02 -0.12889161585E+03  0.11012983379E+04  0.90767490604E+02 0.  0.
          4    1    3    3  502    0 -0.43847354817E+03  0.38095524219E+02  0.74861472819E+02  0.44644659425E+03  0.00000000000E+00 0. -1.
         -4    1    3    3    0  502 -0.75245126631E+03  0.17007285750E+03  0.67349671212E+02  0.77436662069E+03  0.00000000000E+00 0.  1.
         13    1    5    5    0    0  0.54151522518E+01 -0.65256071633E+02  0.74135791202E+02  0.98913064335E+02  0.00000000000E+00 0. -1.
        -13    1    5    5    0    0  0.96184351871E+02 -0.10580959846E+03  0.43611517379E+02  0.14949603714E+03  0.00000000000E+00 0.  1.
          3    1    6    6  503    0  0.78701471990E+03 -0.11500548454E+02 -0.13083925629E+03  0.79789933133E+03  0.00000000000E+00 0. -1.
         -3    1    6    6    0  503  0.30231059045E+03 -0.25602163169E+02  0.19476404347E+01  0.30339900653E+03  0.00000000000E+00 0.  1.
<mgrwt>
<rscale>  0 0.12552614E+04</rscale>
<asrwt>0</asrwt>
<pdfrwt beam="1">  1        1 0.18765029E+00 0.12552614E+04</pdfrwt>
<pdfrwt beam="2">  1       -1 0.20781442E+00 0.12552614E+04</pdfrwt>
<totfact> 0.13393052E+00</totfact>
</mgrwt>
</event>
<event>
12    1  0.1444206E-007  0.1953672E+04  0.7818608E-02  0.8628592E-01
         -1   -1    0    0    0  501 -0.00000000000E+00  0.00000000000E+00  0.15492513294E+04  0.15492513294E+04  0.00000000000E+00 0.  1.
          1   -1    0    0  501    0  0.00000000000E+00 -0.00000000000E+00 -0.29266824762E+04  0.29266824762E+04  0.00000000000E+00 0. -1.
         23    2    1    2    0    0 -0.14982632274E+04  0.12174375803E+04 -0.15057191927E+04  0.24502090389E+04  0.96886976469E+02 0.  0.
    5000000    2    1    2    0    0  0.14982632274E+04 -0.12174375803E+04  0.12828804592E+03  0.20257247667E+04  0.60013002506E+03 0.  0.
         23    2    4    4    0    0  0.12942065971E+04 -0.11702277703E+04  0.25382796958E+03  0.17655488231E+04  0.91270247535E+02 0.  0.
         23    2    4    4    0    0  0.20405663028E+03 -0.47209810001E+02 -0.12553992366E+03  0.26017594358E+03  0.89796295377E+02 0.  0.
          3    1    3    3  502    0 -0.36074574975E+03  0.24110333049E+03 -0.33981436809E+03  0.55112804020E+03  0.00000000000E+00 0. -1.
         -3    1    3    3    0  502 -0.11375174777E+04  0.97633424985E+03 -0.11659048246E+04  0.18990809987E+04  0.00000000000E+00 0.  1.
         13    1    5    5    0    0  0.12082736133E+04 -0.10612648544E+04  0.24198563332E+03  0.16262734280E+04  0.00000000000E+00 0.  1.
        -13    1    5    5    0    0  0.85932983814E+02 -0.10896291597E+03  0.11842336262E+02  0.13927539514E+03  0.00000000000E+00 0. -1.
          4    1    6    6  503    0  0.63223021367E+02  0.26426565495E+02 -0.30519375212E+02  0.75012972598E+02  0.00000000000E+00 0. -1.
         -4    1    6    6    0  503  0.14083360892E+03 -0.73636375496E+02 -0.95020548445E+02  0.18516297098E+03  0.00000000000E+00 0.  1.
<mgrwt>
<rscale>  0 0.19536718E+04</rscale>
<asrwt>0</asrwt>
<pdfrwt beam="1">  1        1 0.45025884E+00 0.19536718E+04</pdfrwt>
<pdfrwt beam="2">  1       -1 0.23834636E+00 0.19536718E+04</pdfrwt>
<totfact> 0.50280604E-02</totfact>
</mgrwt>
</event>
<event>
12    1  0.1444206E-007  0.7939143E+03  0.7818608E-02  0.9568868E-01
         -1   -1    0    0    0  501 -0.00000000000E+00  0.00000000000E+00  0.80364363853E+03  0.80364363853E+03  0.00000000000E+00 0.  1.
          1   -1    0    0  501    0  0.00000000000E+00 -0.00000000000E+00 -0.88908671919E+03  0.88908671919E+03  0.00000000000E+00 0. -1.
         23    2    1    2    0    0  0.32300324136E+03 -0.61377779183E+03  0.20720505440E+03  0.73007370762E+03  0.94970586566E+02 0.  0.
    5000000    2    1    2    0    0 -0.32300324136E+03  0.61377779183E+03 -0.29264813506E+03  0.96265665011E+03  0.60000885274E+03 0.  0.
         23    2    4    4    0    0 -0.45890840841E+03  0.58530609754E+03 -0.26156119956E+03  0.79362649156E+03  0.90821758756E+02 0.  0.
         23    2    4    4    0    0  0.13590516706E+03  0.28471694290E+02 -0.31086935502E+02  0.16903015855E+03  0.91235657124E+02 0.  0.
          3    1    3    3  502    0  0.19129966132E+03 -0.34168334392E+03  0.68742398637E+02  0.39757840146E+03  0.00000000000E+00 0. -1.
         -3    1    3    3    0  502  0.13170358004E+03 -0.27209444791E+03  0.13846265576E+03  0.33249530616E+03  0.00000000000E+00 0.  1.
         11    1    5    5    0    0 -0.13685915715E+03  0.16259079934E+03 -0.32703537540E+02  0.21502492482E+03  0.00000000000E+00 0. -1.
        -11    1    5    5    0    0 -0.32204925126E+03  0.42271529820E+03 -0.22885766202E+03  0.57860156674E+03  0.00000000000E+00 0.  1.
          2    1    6    6  503    0  0.50887525696E+02  0.39304887948E+02 -0.49771717928E+02  0.81311981857E+02  0.00000000000E+00 0. -1.
         -2    1    6    6    0  503  0.85017641360E+02 -0.10833193658E+02  0.18684782426E+02  0.87718176689E+02  0.00000000000E+00 0.  1.
<mgrwt>
<rscale>  0 0.79391425E+03</rscale>
<asrwt>0</asrwt>
<pdfrwt beam="1">  1        1 0.13678257E+00 0.79391425E+03</pdfrwt>
<pdfrwt beam="2">  1       -1 0.12363748E+00 0.79391425E+03</pdfrwt>
<totfact> 0.10954932E+01</totfact>
</mgrwt>
</event>
<event>
12    1  0.1444206E-007  0.8057537E+03  0.7818608E-02  0.9551726E-01
          2   -1    0    0  501    0  0.00000000000E+00  0.00000000000E+00  0.92305347981E+03  0.92305347981E+03  0.00000000000E+00 0. -1.
         -2   -1    0    0    0  501 -0.00000000000E+00 -0.00000000000E+00 -0.87608068552E+03  0.87608068552E+03  0.00000000000E+00 0.  1.
         23    2    1    2    0    0 -0.12668863034E+03 -0.70482037480E+03 -0.32725155652E+03  0.79268656962E+03  0.91851220008E+02 0.  0.
    5000000    2    1    2    0    0  0.12668863034E+03  0.70482037480E+03  0.37422435081E+03  0.10064475957E+04  0.60005927073E+03 0.  0.
         23    2    4    4    0    0  0.17048056124E+03  0.12350857378E+02  0.21355755348E+03  0.28976122179E+03  0.95595876316E+02 0.  0.
         23    2    4    4    0    0 -0.43791930903E+02  0.69246951742E+03  0.16066679733E+03  0.71668637392E+03  0.79961071964E+02 0.  0.
          3    1    3    3  502    0 -0.10850170387E+03 -0.36562250209E+03 -0.15315007136E+03  0.41098342806E+03  0.00000000000E+00 0. -1.
         -3    1    3    3    0  502 -0.18186926471E+02 -0.33919787271E+03 -0.17410148515E+03  0.38170314156E+03  0.00000000000E+00 0.  1.
         13    1    5    5    0    0  0.37113753767E+02  0.44132961395E+02  0.49829875540E+02  0.76211321315E+02  0.00000000000E+00 0. -1.
        -13    1    5    5    0    0  0.13336680748E+03 -0.31782104016E+02  0.16372767794E+03  0.21354990048E+03  0.00000000000E+00 0.  1.
          1    1    6    6  503    0  0.10871465183E+02  0.17169873580E+03  0.67607010265E+02  0.18484954008E+03  0.00000000000E+00 0. -1.
         -1    1    6    6    0  503 -0.54663396086E+02  0.52077078162E+03  0.93059787068E+02  0.53183683384E+03  0.00000000000E+00 0.  1.
<mgrwt>
<rscale>  0 0.80575365E+03</rscale>
<asrwt>0</asrwt>
<pdfrwt beam="1">  1        2 0.14200823E+00 0.80575365E+03</pdfrwt>
<pdfrwt beam="2">  1       -2 0.13478164E+00 0.80575365E+03</pdfrwt>
<totfact> 0.11324269E+01</totfact>
</mgrwt>
</event>
<event>
12    1  0.1444206E-007  0.8919597E+03  0.7818608E-02  0.9435688E-01
         -2   -1    0    0    0  501 -0.00000000000E+00  0.00000000000E+00  0.65901166588E+03  0.65901166588E+03  0.00000000000E+00 0.  1.
          2   -1    0    0  501    0  0.00000000000E+00 -0.00000000000E+00 -0.14243410363E+04  0.14243410363E+04  0.00000000000E+00 0. -1.
         23    2    1    2    0    0 -0.54821451914E+03 -0.65747726753E+03 -0.16244791578E+03  0.87656452231E+03  0.95710606129E+02 0.  0.
    5000000    2    1    2    0    0  0.54821451914E+03  0.65747726753E+03 -0.60288145462E+03  0.12067881798E+04  0.60004678681E+03 0.  0.
         23    2    4    4    0    0  0.47334514757E+03  0.33768658245E+03 -0.98120732404E+02  0.59653341373E+03  0.90202987083E+02 0.  0.
         23    2    4    4    0    0  0.74869371569E+02  0.31979068508E+03 -0.50476072222E+03  0.61025476610E+03  0.98772404033E+02 0.  0.
          3    1    3    3  502    0 -0.36467453207E+03 -0.36614185486E+03 -0.10850239364E+03  0.52803422393E+03  0.00000000000E+00 0. -1.
         -3    1    3    3    0  502 -0.18353998706E+03 -0.29133541267E+03 -0.53945522139E+02  0.34853029838E+03  0.00000000000E+00 0.  1.
         13    1    5    5    0    0  0.35986123806E+03  0.21087323599E+03 -0.86431163090E+02  0.42595537121E+03  0.00000000000E+00 0. -1.
        -13    1    5    5    0    0  0.11348390951E+03  0.12681334647E+03 -0.11689569314E+02  0.17057804252E+03  0.00000000000E+00 0.  1.
          1    1    6    6  503    0  0.84723865204E+02  0.22798319851E+03 -0.30433142476E+03  0.38957937348E+03  0.00000000000E+00 0. -1.
         -1    1    6    6    0  503 -0.98544936344E+01  0.91807486565E+02 -0.20042929745E+03  0.22067539263E+03  0.00000000000E+00 0.  1.
<mgrwt>
<rscale>  0 0.89195975E+03</rscale>
<asrwt>0</asrwt>
<pdfrwt beam="1">  1        2 0.21912939E+00 0.89195975E+03</pdfrwt>
<pdfrwt beam="2">  1       -2 0.10138641E+00 0.89195975E+03</pdfrwt>
<totfact> 0.11269785E+01</totfact>
</mgrwt>
</event>
<event>
12    1  0.1444206E-007  0.8599848E+03  0.7818608E-02  0.9477033E-01
          1   -1    0    0  501    0  0.00000000000E+00  0.00000000000E+00  0.32427053177E+04  0.32427053177E+04  0.00000000000E+00 0. -1.
         -1   -1    0    0    0  501 -0.00000000000E+00 -0.00000000000E+00 -0.23285756433E+03  0.23285756433E+03  0.00000000000E+00 0.  1.
         23    2    1    2    0    0  0.14235103085E+03 -0.74997227079E+03  0.13306364121E+04  0.15358565364E+04  0.74429941375E+02 0.  0.
    5000000    2    1    2    0    0 -0.14235103085E+03  0.74997227079E+03  0.16792113412E+04  0.19397063456E+04  0.59998979641E+03 0.  0.
         23    2    4    4    0    0  0.21700077491E+03  0.27696486637E+03  0.74060461068E+03  0.82514759049E+03  0.92598505501E+02 0.  0.
         23    2    4    4    0    0 -0.35935180577E+03  0.47300740442E+03  0.93860673056E+03  0.11145587551E+04  0.91590933289E+02 0.  0.
          4    1    3    3  502    0  0.71955637506E+02 -0.50138637634E+03  0.82629036864E+03  0.96918609434E+03  0.00000000000E+00 0. -1.
         -4    1    3    3    0  502  0.70395393348E+02 -0.24858589445E+03  0.50434604344E+03  0.56667044202E+03  0.00000000000E+00 0.  1.
         11    1    5    5    0    0  0.41673120052E+02  0.19730387023E+02  0.52322760104E+02  0.69739575076E+02  0.00000000000E+00 0. -1.
        -11    1    5    5    0    0  0.17532765486E+03  0.25723447935E+03  0.68828185058E+03  0.75540801542E+03  0.00000000000E+00 0.  1.
          1    1    6    6  503    0 -0.21433009650E+03  0.33357216920E+03  0.56519065772E+03  0.69039717692E+03  0.00000000000E+00 0. -1.
         -1    1    6    6    0  503 -0.14502170926E+03  0.13943523523E+03  0.37341607284E+03  0.42416157822E+03  0.00000000000E+00 0.  1.
<mgrwt>
<rscale>  0 0.85998481E+03</rscale>
<asrwt>0</asrwt>
<pdfrwt beam="1">  1        1 0.49887771E+00 0.85998481E+03</pdfrwt>
<pdfrwt beam="2">  1       -1 0.35824243E-01 0.85998481E+03</pdfrwt>
<totfact> 0.30983830E+00</totfact>
</mgrwt>
</event>
<event>
12    1  0.1444206E-007  0.6141493E+03  0.7818608E-02  0.9876478E-01
         -2   -1    0    0    0  501 -0.00000000000E+00  0.00000000000E+00  0.51549700573E+03  0.51549700573E+03  0.00000000000E+00 0.  1.
          2   -1    0    0  501    0  0.00000000000E+00 -0.00000000000E+00 -0.10289651357E+04  0.10289651357E+04  0.00000000000E+00 0. -1.
         23    2    1    2    0    0 -0.59646325235E+03 -0.13351967257E+01 -0.13912652647E+03  0.61938961191E+03  0.92288172723E+02 0.  0.
    5000000    2    1    2    0    0  0.59646325235E+03  0.13351967257E+01 -0.37434160346E+03  0.92507252947E+03  0.59988111701E+03 0.  0.
         23    2    4    4    0    0  0.43040549411E+03 -0.10711415926E+02  0.65504325234E+02  0.44496627929E+03  0.91326607779E+02 0.  0.
         23    2    4    4    0    0  0.16605775824E+03  0.12046612652E+02 -0.43984592869E+03  0.48010625018E+03  0.96526009585E+02 0.  0.
          3    1    3    3  502    0 -0.24217935382E+03 -0.45003084603E+02 -0.47677981149E+02  0.25089700462E+03  0.00000000000E+00 0. -1.
         -3    1    3    3    0  502 -0.35428389852E+03  0.43667887877E+02 -0.91448545317E+02  0.36849260729E+03  0.00000000000E+00 0.  1.
         11    1    5    5    0    0  0.14514345201E+03 -0.31940328635E+02 -0.10510919737E+02  0.14898753535E+03  0.00000000000E+00 0.  1.
        -11    1    5    5    0    0  0.28526204210E+03  0.21228912709E+02  0.76015244971E+02  0.29597874394E+03  0.00000000000E+00 0. -1.
          3    1    6    6  503    0  0.53208982781E+02 -0.39509093654E+02 -0.18841754683E+03  0.19973316270E+03  0.00000000000E+00 0. -1.
         -3    1    6    6    0  503  0.11284877546E+03  0.51555706306E+02 -0.25142838186E+03  0.28037308748E+03  0.00000000000E+00 0.  1.
<mgrwt>
<rscale>  0 0.61414931E+03</rscale>
<asrwt>0</asrwt>
<pdfrwt beam="1">  1        2 0.15830233E+00 0.61414931E+03</pdfrwt>
<pdfrwt beam="2">  1       -2 0.79307233E-01 0.61414931E+03</pdfrwt>
<totfact> 0.35074705E+01</totfact>
</mgrwt>
</event>
<event>
12    1  0.1444206E-007  0.4205609E+03  0.7818608E-02  0.1036884E+00
          2   -1    0    0  501    0  0.00000000000E+00  0.00000000000E+00  0.13008522844E+04  0.13008522844E+04  0.00000000000E+00 0.  1.
         -2   -1    0    0    0  501 -0.00000000000E+00 -0.00000000000E+00 -0.81610060305E+03  0.81610060305E+03  0.00000000000E+00 0. -1.
         23    2    1    2    0    0  0.77274213757E+02  0.37653944135E+03 -0.65983762175E+03  0.76872479568E+03  0.88311207715E+02 0.  0.
    5000000    2    1    2    0    0 -0.77274213757E+02 -0.37653944135E+03  0.11445893031E+04  0.13482280918E+04  0.59990087486E+03 0.  0.
         23    2    4    4    0    0 -0.10965790753E+03 -0.93531970648E+02  0.10602382553E+02  0.17561668826E+03  0.99778376730E+02 0.  0.
         23    2    4    4    0    0  0.32383693771E+02 -0.28300747070E+03  0.11339869206E+04  0.11726114035E+04  0.89158485616E+02 0.  0.
          4    1    3    3  502    0  0.41283032298E+02  0.16422170363E+03 -0.20813526177E+03  0.26831575409E+03  0.00000000000E+00 0. -1.
         -4    1    3    3    0  502  0.35991181460E+02  0.21231773772E+03 -0.45170235998E+03  0.50040904159E+03  0.00000000000E+00 0.  1.
         13    1    5    5    0    0  0.65792530961E+01 -0.24891500855E+02 -0.25128762536E+02  0.35976771571E+02  0.00000000000E+00 0. -1.
        -13    1    5    5    0    0 -0.11623716062E+03 -0.68640469793E+02  0.35731145089E+02  0.13963991669E+03  0.00000000000E+00 0.  1.
          1    1    6    6  503    0  0.52032513773E+02 -0.11111229713E+03  0.55090958638E+03  0.56440650016E+03  0.00000000000E+00 0. -1.
         -1    1    6    6    0  503 -0.19648820002E+02 -0.17189517358E+03  0.58307733421E+03  0.60820490338E+03  0.00000000000E+00 0.  1.
<mgrwt>
<rscale>  0 0.42056090E+03</rscale>
<asrwt>0</asrwt>
<pdfrwt beam="1">  1        2 0.20013112E+00 0.42056090E+03</pdfrwt>
<pdfrwt beam="2">  1       -2 0.12555394E+00 0.42056090E+03</pdfrwt>
<totfact> 0.84835251E+00</totfact>
</mgrwt>
</event>
<event>
12    1  0.1444206E-007  0.1249284E+04  0.7818608E-02  0.9070780E-01
          1   -1    0    0  501    0  0.00000000000E+00  0.00000000000E+00  0.12467738455E+04  0.12467738455E+04  0.00000000000E+00 0. -1.
         -1   -1    0    0    0  501 -0.00000000000E+00 -0.00000000000E+00 -0.12744919758E+04  0.12744919758E+04  0.00000000000E+00 0.  1.
         23    2    1    2    0    0  0.87809212392E+03  0.79105238279E+03 -0.12666591170E+03  0.11921273620E+04  0.91179732460E+02 0.  0.
    5000000    2    1    2    0    0 -0.87809212392E+03 -0.79105238279E+03  0.98947781399E+02  0.13291384593E+04  0.60000727514E+03 0.  0.
         23    2    4    4    0    0 -0.73959424651E+03 -0.29454048459E+03  0.44032196279E+02  0.80259736557E+03  0.92032333360E+02 0.  0.
         23    2    4    4    0    0 -0.13849787741E+03 -0.49651189820E+03  0.54915585120E+02  0.52654109376E+03  0.92325916314E+02 0.  0.
          3    1    3    3  502    0  0.32142320601E+03  0.33124265308E+03 -0.17337307694E+02  0.46188218716E+03  0.00000000000E+00 0. -1.
         -3    1    3    3    0  502  0.55666891791E+03  0.45980972971E+03 -0.10932860401E+03  0.73024517483E+03  0.00000000000E+00 0.  1.
         11    1    5    5    0    0 -0.22294050398E+03 -0.53100080037E+02 -0.12499712999E+02  0.22951760203E+03  0.00000000000E+00 0.  1.
        -11    1    5    5    0    0 -0.51665374253E+03 -0.24144040455E+03  0.56531909279E+02  0.57307976355E+03  0.00000000000E+00 0. -1.
          3    1    6    6  503    0 -0.11635762937E+03 -0.40512908829E+03  0.80433528971E+02  0.42911330517E+03  0.00000000000E+00 0. -1.
         -3    1    6    6    0  503 -0.22140248043E+02 -0.91382809913E+02 -0.25517943851E+02  0.97427788589E+02  0.00000000000E+00 0.  1.
<mgrwt>
<rscale>  0 0.12492836E+04</rscale>
<asrwt>0</asrwt>
<pdfrwt beam="1">  1        1 0.19181136E+00 0.12492836E+04</pdfrwt>
<pdfrwt beam="2">  1       -1 0.19607569E+00 0.12492836E+04</pdfrwt>
<totfact> 0.15427965E+00</totfact>
</mgrwt>
</event>
<event>
12    1  0.1444206E-007  0.1654530E+04  0.7818608E-02  0.8787731E-01
          2   -1    0    0  501    0  0.00000000000E+00  0.00000000000E+00  0.24754175960E+04  0.24754175960E+04  0.00000000000E+00 0. -1.
         -2   -1    0    0    0  501 -0.00000000000E+00 -0.00000000000E+00 -0.11145660005E+04  0.11145660005E+04  0.00000000000E+00 0.  1.
         23    2    1    2    0    0 -0.89380830689E+03  0.13316781642E+04  0.73282083438E+03  0.17660193692E+04  0.97662759616E+02 0.  0.
    5000000    2    1    2    0    0  0.89380830689E+03 -0.13316781642E+04  0.62803076107E+03  0.18239642273E+04  0.60013568721E+03 0.  0.
         23    2    4    4    0    0  0.35455071737E+03 -0.10039526616E+04  0.32408058493E+03  0.11165929277E+04  0.90135358339E+02 0.  0.
         23    2    4    4    0    0  0.53925758952E+03 -0.32772550268E+03  0.30395017614E+03  0.70737129961E+03  0.98922661571E+02 0.  0.
          4    1    3    3  502    0 -0.34710713638E+03  0.55748290130E+03  0.25349109822E+03  0.70393770054E+03  0.00000000000E+00 0. -1.
         -4    1    3    3    0  502 -0.54670117051E+03  0.77419526294E+03  0.47932973616E+03  0.10620816687E+04  0.00000000000E+00 0.  1.
         13    1    5    5    0    0  0.27223408017E+03 -0.70219885562E+03  0.19302325388E+03  0.77746550005E+03  0.00000000000E+00 0.  1.
        -13    1    5    5    0    0  0.82316637203E+02 -0.30175380594E+03  0.13105733105E+03  0.33912742765E+03  0.00000000000E+00 0. -1.
          4    1    6    6  503    0  0.43703431053E+03 -0.21686501591E+03  0.22803762333E+03  0.53854487405E+03  0.00000000000E+00 0. -1.
         -4    1    6    6    0  503  0.10222327899E+03 -0.11086048677E+03  0.75912552810E+02  0.16882642556E+03  0.00000000000E+00 0.  1.
<mgrwt>
<rscale>  0 0.16545303E+04</rscale>
<asrwt>0</asrwt>
<pdfrwt beam="1">  1        2 0.38083348E+00 0.16545303E+04</pdfrwt>
<pdfrwt beam="2">  1       -2 0.17147169E+00 0.16545303E+04</pdfrwt>
<totfact> 0.69436813E-01</totfact>
</mgrwt>
</event>
<event>
12    1  0.1444206E-007  0.8968948E+03  0.7818608E-02  0.9429471E-01
         -1   -1    0    0    0  501 -0.00000000000E+00  0.00000000000E+00  0.21499658796E+04  0.21499658796E+04  0.00000000000E+00 0. -1.
          1   -1    0    0  501    0  0.00000000000E+00 -0.00000000000E+00 -0.60214147952E+03  0.60214147952E+03  0.00000000000E+00 0.  1.
         23    2    1    2    0    0 -0.14541492086E+03  0.78916317397E+03 -0.10991097869E+03  0.81505688639E+03  0.91177247484E+02 0.  0.
    5000000    2    1    2    0    0  0.14541492086E+03 -0.78916317397E+03  0.16577353787E+04  0.19370504727E+04  0.60012826420E+03 0.  0.
         23    2    4    4    0    0 -0.13416425234E+03 -0.64744782978E+03  0.12137597411E+04  0.13852382217E+04  0.92105824959E+02 0.  0.
         23    2    4    4    0    0  0.27957917320E+03 -0.14171534419E+03  0.44397563767E+03  0.55181225097E+03  0.95575313827E+02 0.  0.
          4    1    3    3  502    0 -0.34012034363E+02  0.38278420179E+03 -0.80694374558E+02  0.39267307739E+03  0.00000000000E+00 0. -1.
         -4    1    3    3    0  502 -0.11140288650E+03  0.40637897219E+03 -0.29216604136E+02  0.42238380901E+03  0.00000000000E+00 0.  1.
         13    1    5    5    0    0 -0.12271774356E+03 -0.56921140463E+03  0.99804955244E+03  0.11554930449E+04  0.00000000000E+00 0. -1.
        -13    1    5    5    0    0 -0.11446508779E+02 -0.78236425146E+02  0.21571018862E+03  0.22974517679E+03  0.00000000000E+00 0.  1.
          3    1    6    6  503    0  0.13841959439E+03 -0.12147381648E+03  0.27062636217E+03  0.32734461979E+03  0.00000000000E+00 0. -1.
         -3    1    6    6    0  503  0.14115957881E+03 -0.20241527708E+02  0.17334927549E+03  0.22446763118E+03  0.00000000000E+00 0.  1.
<mgrwt>
<rscale>  0 0.89689476E+03</rscale>
<asrwt>0</asrwt>
<pdfrwt beam="1">  1        1 0.92637152E-01 0.89689476E+03</pdfrwt>
<pdfrwt beam="2">  1       -1 0.33076398E+00 0.89689476E+03</pdfrwt>
<totfact> 0.73345992E-01</totfact>
</mgrwt>
</event>
<event>
12    1  0.1503136E-007  0.1322386E+04  0.7818608E-02  0.9011998E-01
         -1   -1    0    0    0  501 -0.00000000000E+00  0.00000000000E+00  0.11035792403E+04  0.11035792403E+04  0.00000000000E+00 0.  1.
          1   -1    0    0  501    0  0.00000000000E+00 -0.00000000000E+00 -0.16454279922E+04  0.16454279922E+04  0.00000000000E+00 0. -1.
         23    2    1    2    0    0  0.12568459068E+04 -0.11930066929E+03 -0.46710889210E+03  0.13492148941E+04  0.91081448368E+02 0.  0.
    5000000    2    1    2    0    0 -0.12568459068E+04  0.11930066929E+03 -0.74739859852E+02  0.13997923384E+04  0.59994854852E+03 0.  0.
         23    2    4    4    0    0 -0.10336586223E+02  0.10744330224E+03  0.35513485232E+02  0.14509322164E+03  0.90221544666E+02 0.  0.
         23    2    4    4    0    0 -0.12465093206E+04  0.11857367056E+02 -0.11025334508E+03  0.12546991168E+04  0.90487513338E+02 0.  0.
          3    1    3    3  502    0  0.40628345268E+03 -0.18073249284E+02 -0.11089168993E+03  0.42153274268E+03  0.00000000000E+00 0. -1.
         -3    1    3    3    0  502  0.85056245412E+03 -0.10122742001E+03 -0.35621720218E+03  0.92768215141E+03  0.00000000000E+00 0.  1.
         13    1    5    5    0    0  0.28709187751E+02  0.13153565351E+02 -0.10315144459E+02  0.33221016661E+02  0.00000000000E+00 0.  1.
        -13    1    5    5    0    0 -0.39045773974E+02  0.94289736887E+02  0.45828629691E+02  0.11187220498E+03  0.00000000000E+00 0. -1.
          1    1    6    6  503    0 -0.84660641817E+03  0.34875284648E+02 -0.42031591970E+02  0.84836629323E+03  0.00000000000E+00 0. -1.
         -1    1    6    6    0  503 -0.39990290241E+03 -0.23017917592E+02 -0.68221753114E+02  0.40633282354E+03  0.00000000000E+00 0.  1.
<mgrwt>
<rscale>  0 0.13223865E+04</rscale>
<asrwt>0</asrwt>
<pdfrwt beam="1">  1        1 0.25314277E+00 0.13223865E+04</pdfrwt>
<pdfrwt beam="2">  1       -1 0.16978142E+00 0.13223865E+04</pdfrwt>
<totfact> 0.12400439E+00</totfact>
</mgrwt>
</event>
<event>
12    1  0.1444206E-007  0.7119157E+03  0.7818608E-02  0.9697069E-01
         -2   -1    0    0    0  501 -0.00000000000E+00  0.00000000000E+00  0.15289128160E+04  0.15289128160E+04  0.00000000000E+00 0.  1.
          2   -1    0    0  501    0  0.00000000000E+00 -0.00000000000E+00 -0.15838218110E+04  0.15838218110E+04  0.00000000000E+00 0. -1.
         23    2    1    2    0    0  0.59761578417E+03  0.11379616600E+03 -0.13943205240E+04  0.15240189252E+04  0.91704785989E+02 0.  0.
    5000000    2    1    2    0    0 -0.59761578417E+03 -0.11379616600E+03  0.13394115290E+04  0.15887157018E+04  0.59991678125E+03 0.  0.
         23    2    4    4    0    0 -0.30211471774E+03 -0.31092662227E+03  0.97764103543E+03  0.10733067830E+04  0.90866876156E+02 0.  0.
         23    2    4    4    0    0 -0.29550106643E+03  0.19713045628E+03  0.36177049353E+03  0.51540891882E+03  0.92666965818E+02 0.  0.
          3    1    3    3  502    0  0.47914385792E+03  0.12750676926E+03 -0.11106924887E+04  0.12163365559E+04  0.00000000000E+00 0. -1.
         -3    1    3    3    0  502  0.11847192626E+03 -0.13710603259E+02 -0.28362803532E+03  0.30768236929E+03  0.00000000000E+00 0.  1.
         11    1    5    5    0    0 -0.17766194554E+03 -0.24274491483E+03  0.68028401773E+03  0.74382471413E+03  0.00000000000E+00 0.  1.
        -11    1    5    5    0    0 -0.12445277220E+03 -0.68181707440E+02  0.29735701770E+03  0.32948206888E+03  0.00000000000E+00 0. -1.
          3    1    6    6  503    0 -0.28830388701E+03  0.16308862592E+03  0.31487936115E+03  0.45701864650E+03  0.00000000000E+00 0. -1.
         -3    1    6    6    0  503 -0.71971794215E+01  0.34041830353E+02  0.46891132383E+02  0.58390272320E+02  0.00000000000E+00 0.  1.
<mgrwt>
<rscale>  0 0.71191566E+03</rscale>
<asrwt>0</asrwt>
<pdfrwt beam="1">  1        2 0.24366490E+00 0.71191566E+03</pdfrwt>
<pdfrwt beam="2">  1       -2 0.23521735E+00 0.71191566E+03</pdfrwt>
<totfact> 0.94735104E-01</totfact>
</mgrwt>
</event>
<event>
12    1  0.1444206E-007  0.5379569E+03  0.7818608E-02  0.1004321E+00
         -1   -1    0    0    0  501 -0.00000000000E+00  0.00000000000E+00  0.38885828407E+03  0.38885828407E+03  0.00000000000E+00 0.  1.
          1   -1    0    0  501    0  0.00000000000E+00 -0.00000000000E+00 -0.13151737786E+04  0.13151737786E+04  0.00000000000E+00 0. -1.
         23    2    1    2    0    0  0.36379038059E+03  0.14360447982E+03 -0.90203997309E+03  0.98748677621E+03  0.92132147043E+02 0.  0.
    5000000    2    1    2    0    0 -0.36379038059E+03 -0.14360447982E+03 -0.24275521455E+02  0.71654528648E+03  0.59990179113E+03 0.  0.
         23    2    4    4    0    0 -0.15014020990E+03 -0.34922346088E+03 -0.84367150683E+02  0.39982681264E+03  0.90799535986E+02 0.  0.
         23    2    4    4    0    0 -0.21365017069E+03  0.20561898106E+03  0.60091629228E+02  0.31671847384E+03  0.93669776100E+02 0.  0.
          3    1    3    3  502    0  0.18161906281E+03  0.52256216612E+02 -0.33073346357E+03  0.38092101553E+03  0.00000000000E+00 0.  1.
         -3    1    3    3    0  502  0.18217131778E+03  0.91348263204E+02 -0.57130650952E+03  0.60656576068E+03  0.00000000000E+00 0. -1.
         13    1    5    5    0    0 -0.88408428658E+02 -0.15847371539E+03 -0.82471731272E+02  0.19932775819E+03  0.00000000000E+00 0. -1.
        -13    1    5    5    0    0 -0.61731781237E+02 -0.19074974549E+03 -0.18954194112E+01  0.20049905445E+03  0.00000000000E+00 0.  1.
          2    1    6    6  503    0 -0.33682640842E+02  0.94919923268E+01 -0.17949904262E+02  0.39329597957E+02  0.00000000000E+00 0.  1.
         -2    1    6    6    0  503 -0.17996752985E+03  0.19612698874E+03  0.78041533490E+02  0.27738887588E+03  0.00000000000E+00 0. -1.
<mgrwt>
<rscale>  0 0.53795687E+03</rscale>
<asrwt>0</asrwt>
<pdfrwt beam="1">  1        1 0.20233442E+00 0.53795687E+03</pdfrwt>
<pdfrwt beam="2">  1       -1 0.59824352E-01 0.53795687E+03</pdfrwt>
<totfact> 0.26566791E+01</totfact>
</mgrwt>
</event>
<event>
12    1  0.1444206E-007  0.7077423E+03  0.7818608E-02  0.9704083E-01
         -2   -1    0    0    0  501 -0.00000000000E+00  0.00000000000E+00  0.30955172713E+03  0.30955172713E+03  0.00000000000E+00 0.  1.
          2   -1    0    0  501    0  0.00000000000E+00 -0.00000000000E+00 -0.33788576876E+04  0.33788576876E+04  0.00000000000E+00 0. -1.
         23    2    1    2    0    0 -0.21501078520E+03  0.56959873899E+03 -0.26787485900E+04  0.27486268700E+04  0.92646106291E+02 0.  0.
    5000000    2    1    2    0    0  0.21501078520E+03 -0.56959873899E+03 -0.39055737046E+03  0.93978254469E+03  0.59998650858E+03 0.  0.
         23    2    4    4    0    0  0.37456256240E+03 -0.48300296892E+03 -0.17122802137E+03  0.64174521764E+03  0.94492898850E+02 0.  0.
         23    2    4    4    0    0 -0.15955177720E+03 -0.86595770070E+02 -0.21932934909E+03  0.29803732704E+03  0.88120871166E+02 0.  0.
          4    1    3    3  502    0 -0.85108872197E+02  0.12749316689E+03 -0.76224231765E+03  0.77750329810E+03  0.00000000000E+00 0. -1.
         -4    1    3    3    0  502 -0.12990191300E+03  0.44210557210E+03 -0.19165062723E+04  0.19711235719E+04  0.00000000000E+00 0.  1.
         13    1    5    5    0    0  0.13569259614E+03 -0.13251418882E+03 -0.89813163350E+02  0.20985446194E+03  0.00000000000E+00 0.  1.
        -13    1    5    5    0    0  0.23886996626E+03 -0.35048878010E+03 -0.81414858017E+02  0.43189075570E+03  0.00000000000E+00 0. -1.
          2    1    6    6  503    0 -0.14011792165E+03 -0.55066865975E+02 -0.12159937281E+03  0.19352467327E+03  0.00000000000E+00 0. -1.
         -2    1    6    6    0  503 -0.19433855555E+02 -0.31528904095E+02 -0.97729976282E+02  0.10451265378E+03  0.00000000000E+00 0.  1.
<mgrwt>
<rscale>  0 0.70774234E+03</rscale>
<asrwt>0</asrwt>
<pdfrwt beam="1">  1        2 0.51982425E+00 0.70774234E+03</pdfrwt>
<pdfrwt beam="2">  1       -2 0.47623344E-01 0.70774234E+03</pdfrwt>
<totfact> 0.44869142E+00</totfact>
</mgrwt>
</event>
<event>
12    1  0.1444206E-007  0.3749716E+03  0.7818608E-02  0.1052808E+00
          1   -1    0    0  501    0  0.00000000000E+00  0.00000000000E+00  0.56126501525E+03  0.56126501525E+03  0.00000000000E+00 0. -1.
         -1   -1    0    0    0  501 -0.00000000000E+00 -0.00000000000E+00 -0.32844619118E+03  0.32844619118E+03  0.00000000000E+00 0.  1.
         23    2    1    2    0    0  0.13570251170E+03 -0.47584426994E+02 -0.93699349705E+02  0.19166791847E+03  0.85308695116E+02 0.  0.
    5000000    2    1    2    0    0 -0.13570251170E+03  0.47584426994E+02  0.32651817377E+03  0.69804328795E+03  0.59997572008E+03 0.  0.
         23    2    4    4    0    0 -0.33315035550E+03  0.13930892483E+03  0.25439931797E+03  0.45154136575E+03  0.93672066757E+02 0.  0.
         23    2    4    4    0    0  0.19744784380E+03 -0.91724497840E+02  0.72118855796E+02  0.24650192220E+03  0.90349508932E+02 0.  0.
          3    1    3    3  502    0  0.14221859877E+03 -0.53515744475E+02 -0.71802027555E+02  0.16806426123E+03  0.00000000000E+00 0. -1.
         -3    1    3    3    0  502 -0.65160870698E+01  0.59313174808E+01 -0.21897322149E+02  0.23603657239E+02  0.00000000000E+00 0.  1.
         13    1    5    5    0    0 -0.15043555887E+03  0.51884143610E+02  0.57904103700E+02  0.16933902963E+03  0.00000000000E+00 0.  1.
        -13    1    5    5    0    0 -0.18271479663E+03  0.87424781225E+02  0.19649521427E+03  0.28220233612E+03  0.00000000000E+00 0. -1.
          3    1    6    6  503    0  0.12353053591E+03 -0.21214272812E+02  0.71596574852E+02  0.14434648664E+03  0.00000000000E+00 0. -1.
         -3    1    6    6    0  503  0.73917307887E+02 -0.70510225029E+02  0.52228094455E+00  0.10215543557E+03  0.00000000000E+00 0.  1.
<mgrwt>
<rscale>  0 0.37497157E+03</rscale>
<asrwt>0</asrwt>
<pdfrwt beam="1">  1        1 0.86348464E-01 0.37497157E+03</pdfrwt>
<pdfrwt beam="2">  1       -1 0.50530183E-01 0.37497157E+03</pdfrwt>
<totfact> 0.15509038E+02</totfact>
</mgrwt>
</event>
<event>
12    1  0.1444206E-007  0.1241583E+04  0.7818608E-02  0.9077218E-01
          1   -1    0    0  501    0  0.00000000000E+00  0.00000000000E+00  0.16004058138E+04  0.16004058138E+04  0.00000000000E+00 0. -1.
         -1   -1    0    0    0  501 -0.00000000000E+00 -0.00000000000E+00 -0.12340958012E+04  0.12340958012E+04  0.00000000000E+00 0.  1.
         23    2    1    2    0    0 -0.12086738287E+04  0.91604312494E+02 -0.40047885942E+03  0.12797514423E+04  0.89981459142E+02 0.  0.
    5000000    2    1    2    0    0  0.12086738287E+04 -0.91604312494E+02  0.76678887202E+03  0.15547501728E+04  0.59999929270E+03 0.  0.
         23    2    4    4    0    0  0.76639841810E+03  0.11658163189E+03  0.20900099116E+03  0.80822400841E+03  0.92665102964E+02 0.  0.
         23    2    4    4    0    0  0.44227541057E+03 -0.20818594438E+03  0.55778788086E+03  0.74652616434E+03  0.85000398701E+02 0.  0.
          2    1    3    3  502    0 -0.19518320369E+03  0.22193303057E+01 -0.97382466791E+02  0.21813929785E+03  0.00000000000E+00 0.  1.
         -2    1    3    3    0  502 -0.10134906250E+04  0.89384982189E+02 -0.30309639263E+03  0.10616121444E+04  0.00000000000E+00 0. -1.
         11    1    5    5    0    0  0.42240000840E+03  0.10673167994E+03  0.13619600427E+03  0.45646770990E+03  0.00000000000E+00 0. -1.
        -11    1    5    5    0    0  0.34399840970E+03  0.98499519483E+01  0.72804986893E+02  0.35175629851E+03  0.00000000000E+00 0.  1.
          3    1    6    6  503    0  0.10583721410E+03 -0.70724278695E+02  0.19604104146E+03  0.23374244249E+03  0.00000000000E+00 0. -1.
         -3    1    6    6    0  503  0.33643819647E+03 -0.13746166569E+03  0.36174683940E+03  0.51278372185E+03  0.00000000000E+00 0.  1.
<mgrwt>
<rscale>  0 0.12415827E+04</rscale>
<asrwt>0</asrwt>
<pdfrwt beam="1">  1        1 0.24621628E+00 0.12415827E+04</pdfrwt>
<pdfrwt beam="2">  1       -1 0.18986089E+00 0.12415827E+04</pdfrwt>
<totfact> 0.96290653E-01</totfact>
</mgrwt>
</event>
<event>
12    1  0.1444206E-007  0.1186323E+04  0.7818608E-02  0.9124913E-01
         -1   -1    0    0    0  501 -0.00000000000E+00  0.00000000000E+00  0.11266174553E+04  0.11266174553E+04  0.00000000000E+00 0.  1.
          1   -1    0    0  501    0  0.00000000000E+00 -0.00000000000E+00 -0.15030964621E+04  0.15030964621E+04  0.00000000000E+00 0. -1.
         23    2    1    2    0    0  0.96767020332E+03  0.60764592579E+03 -0.63875107906E+03  0.13122244405E+04  0.91163850966E+02 0.  0.
    5000000    2    1    2    0    0 -0.96767020332E+03 -0.60764592579E+03  0.26227207235E+03  0.13174894769E+04  0.60114281856E+03 0.  0.
         23    2    4    4    0    0 -0.98916626931E+03 -0.61645753582E+03  0.15834814313E+03  0.11800820576E+04  0.95130050131E+02 0.  0.
         23    2    4    4    0    0  0.21496065996E+02  0.88116100328E+01  0.10392392922E+03  0.13740741930E+03  0.86838300818E+02 0.  0.
          4    1    3    3  502    0  0.58214927695E+03  0.38000364760E+03 -0.43711601267E+03  0.82120092631E+03  0.00000000000E+00 0. -1.
         -4    1    3    3    0  502  0.38552092637E+03  0.22764227818E+03 -0.20163506640E+03  0.49102351419E+03  0.00000000000E+00 0.  1.
         11    1    5    5    0    0 -0.34754248941E+02 -0.15782185643E+02 -0.11027059981E+02  0.39730734387E+02  0.00000000000E+00 0. -1.
        -11    1    5    5    0    0 -0.95441202037E+03 -0.60067535018E+03  0.16937520312E+03  0.11403513232E+04  0.00000000000E+00 0.  1.
          3    1    6    6  503    0 -0.38890850092E+01  0.30333254335E+02  0.25238461037E+01  0.30685519385E+02  0.00000000000E+00 0. -1.
         -3    1    6    6    0  503  0.25385151005E+02 -0.21521644302E+02  0.10140008312E+03  0.10672189991E+03  0.00000000000E+00 0.  1.
<mgrwt>
<rscale>  0 0.11863231E+04</rscale>
<asrwt>0</asrwt>
<pdfrwt beam="1">  1        1 0.23124561E+00 0.11863231E+04</pdfrwt>
<pdfrwt beam="2">  1       -1 0.17332576E+00 0.11863231E+04</pdfrwt>
<totfact> 0.14868016E+00</totfact>
</mgrwt>
</event>
<event>
12    1  0.1444206E-007  0.4506822E+03  0.7818608E-02  0.1027519E+00
         -1   -1    0    0    0  501 -0.00000000000E+00  0.00000000000E+00  0.12399953256E+04  0.12399953256E+04  0.00000000000E+00 0.  1.
          1   -1    0    0  501    0  0.00000000000E+00 -0.00000000000E+00 -0.28510405003E+03  0.28510405003E+03  0.00000000000E+00 0. -1.
         23    2    1    2    0    0  0.25521734886E+03 -0.21362185529E+03  0.72291939476E+03  0.80119796880E+03  0.92387995312E+02 0.  0.
    5000000    2    1    2    0    0 -0.25521734886E+03  0.21362185529E+03  0.23197188084E+03  0.72390140686E+03  0.59954324376E+03 0.  0.
         23    2    4    4    0    0 -0.25694860519E+03 -0.62479497700E+02 -0.87395966353E+02  0.29303053232E+03  0.91118409722E+02 0.  0.
         23    2    4    4    0    0  0.17312563316E+01  0.27610135299E+03  0.31936784719E+03  0.43087087454E+03  0.86133235960E+02 0.  0.
          1    1    3    3  502    0  0.13695914927E+03 -0.16566285064E+03  0.40243673096E+03  0.45624260112E+03  0.00000000000E+00 0. -1.
         -1    1    3    3    0  502  0.11825819959E+03 -0.47959004652E+02  0.32048266380E+03  0.34495536769E+03  0.00000000000E+00 0.  1.
         11    1    5    5    0    0 -0.42426640638E+02 -0.33170149385E+02 -0.49652235758E+02  0.73250414073E+02  0.00000000000E+00 0. -1.
        -11    1    5    5    0    0 -0.21452196456E+03 -0.29309348315E+02 -0.37743730595E+02  0.21978011824E+03  0.00000000000E+00 0.  1.
          2    1    6    6  503    0  0.28388332028E+02  0.31572986244E+02  0.36295578102E+02  0.55858032954E+02  0.00000000000E+00 0. -1.
         -2    1    6    6    0  503 -0.26657075696E+02  0.24452836675E+03  0.28307226909E+03  0.37501284159E+03  0.00000000000E+00 0.  1.
<mgrwt>
<rscale>  0 0.45068224E+03</rscale>
<asrwt>0</asrwt>
<pdfrwt beam="1">  1        1 0.43862162E-01 0.45068224E+03</pdfrwt>
<pdfrwt beam="2">  1       -1 0.19076851E+00 0.45068224E+03</pdfrwt>
<totfact> 0.17496563E+01</totfact>
</mgrwt>
</event>
<event>
12    1  0.1444206E-007  0.4401343E+03  0.7818608E-02  0.1030706E+00
          1   -1    0    0  501    0  0.00000000000E+00  0.00000000000E+00  0.16716381745E+04  0.16716381745E+04  0.00000000000E+00 0. -1.
         -1   -1    0    0    0  501 -0.00000000000E+00 -0.00000000000E+00 -0.18731045444E+03  0.18731045444E+03  0.00000000000E+00 0.  1.
         23    2    1    2    0    0  0.19109444935E+03 -0.34153580166E+03  0.56664872006E+03  0.69477069449E+03  0.91933419387E+02 0.  0.
    5000000    2    1    2    0    0 -0.19109444935E+03  0.34153580166E+03  0.91767900004E+03  0.11641779345E+04  0.60000976963E+03 0.  0.
         23    2    4    4    0    0 -0.23887336802E+03  0.22120570803E+03  0.13113601579E+03  0.36209926839E+03  0.89032434084E+02 0.  0.
         23    2    4    4    0    0  0.47778918677E+02  0.12033009363E+03  0.78654298425E+03  0.80207866610E+03  0.88984066188E+02 0.  0.
          3    1    3    3  502    0  0.29925753156E+02 -0.19671876286E+02  0.22357847770E+02  0.42218559609E+02  0.00000000000E+00 0. -1.
         -3    1    3    3    0  502  0.16116869619E+03 -0.32186392537E+03  0.54429087229E+03  0.65255213489E+03  0.00000000000E+00 0.  1.
         13    1    5    5    0    0 -0.61345319894E+02  0.10974197152E+03  0.29496037486E+02  0.12913777454E+03  0.00000000000E+00 0. -1.
        -13    1    5    5    0    0 -0.17752804813E+03  0.11146373651E+03  0.10163997831E+03  0.23296149386E+03  0.00000000000E+00 0.  1.
          3    1    6    6  503    0 -0.15811713618E+02  0.57966998528E+02  0.44817275345E+03  0.45218248544E+03  0.00000000000E+00 0. -1.
         -3    1    6    6    0  503  0.63590632295E+02  0.62363095102E+02  0.33837023080E+03  0.34989618065E+03  0.00000000000E+00 0.  1.
<mgrwt>
<rscale>  0 0.44013433E+03</rscale>
<asrwt>0</asrwt>
<pdfrwt beam="1">  1        1 0.25717509E+00 0.44013433E+03</pdfrwt>
<pdfrwt beam="2">  1       -1 0.28816994E-01 0.44013433E+03</pdfrwt>
<totfact> 0.58649915E+01</totfact>
</mgrwt>
</event>
<event>
12    1  0.1444206E-007  0.8579429E+03  0.7818608E-02  0.9479738E-01
          1   -1    0    0  501    0  0.00000000000E+00  0.00000000000E+00  0.75039201185E+03  0.75039201185E+03  0.00000000000E+00 0. -1.
         -1   -1    0    0    0  501 -0.00000000000E+00 -0.00000000000E+00 -0.11892426070E+04  0.11892426070E+04  0.00000000000E+00 0.  1.
         23    2    1    2    0    0  0.24722509873E+03  0.71274238696E+03 -0.59356236597E+03  0.96330498145E+03  0.80735651227E+02 0.  0.
    5000000    2    1    2    0    0 -0.24722509873E+03 -0.71274238696E+03  0.15471177079E+03  0.97632963743E+03  0.60013487593E+03 0.  0.
         23    2    4    4    0    0  0.17279926728E+03 -0.11283331673E+03  0.43681712443E+02  0.23003674237E+03  0.91748932970E+02 0.  0.
         23    2    4    4    0    0 -0.42002436601E+03 -0.59990907023E+03  0.11103005834E+03  0.74629289506E+03  0.91181416898E+02 0.  0.
          1    1    3    3  502    0  0.10600241773E+03  0.40774092684E+03 -0.30198382324E+03  0.51834680040E+03  0.00000000000E+00 0. -1.
         -1    1    3    3    0  502  0.14122268100E+03  0.30500146012E+03 -0.29157854273E+03  0.44495818105E+03  0.00000000000E+00 0.  1.
         13    1    5    5    0    0  0.84741354678E+02 -0.10432221687E+03  0.79914759577E+01  0.13464058011E+03  0.00000000000E+00 0. -1.
        -13    1    5    5    0    0  0.88057912601E+02 -0.85110998582E+01  0.35690236485E+02  0.95396162254E+02  0.00000000000E+00 0.  1.
          2    1    6    6  503    0 -0.18609835808E+03 -0.32625030874E+03  0.86604714008E+02  0.38545069636E+03  0.00000000000E+00 0. -1.
         -2    1    6    6    0  503 -0.23392600792E+03 -0.27365876149E+03  0.24425344336E+02  0.36084219871E+03  0.00000000000E+00 0.  1.
<mgrwt>
<rscale>  0 0.85794287E+03</rscale>
<asrwt>0</asrwt>
<pdfrwt beam="1">  1        1 0.11544493E+00 0.85794287E+03</pdfrwt>
<pdfrwt beam="2">  1       -1 0.18296040E+00 0.85794287E+03</pdfrwt>
<totfact> 0.49490161E+00</totfact>
</mgrwt>
</event>
<event>
12    1  0.1944900E-007  0.1208048E+04  0.7818608E-02  0.9105841E-01
         -2   -1    0    0    0  501 -0.00000000000E+00  0.00000000000E+00  0.80906876338E+03  0.80906876338E+03  0.00000000000E+00 0. -1.
          2   -1    0    0  501    0  0.00000000000E+00 -0.00000000000E+00 -0.20084613722E+04  0.20084613722E+04  0.00000000000E+00 0.  1.
         23    2    1    2    0    0  0.65046221912E+03  0.93611753217E+03 -0.14465457108E+03  0.11526338155E+04  0.90678746895E+02 0.  0.
    5000000    2    1    2    0    0 -0.65046221912E+03 -0.93611753217E+03 -0.10547380378E+04  0.16648963201E+04  0.59999191319E+03 0.  0.
         23    2    4    4    0    0 -0.67970454309E+03 -0.96853056181E+03 -0.97676833678E+03  0.15367404427E+04  0.86284932424E+02 0.  0.
         23    2    4    4    0    0  0.29242323965E+02  0.32413029638E+02 -0.77969701005E+02  0.12815587739E+03  0.91863685070E+02 0.  0.
          1    1    3    3  502    0  0.17479997532E+03  0.29115405783E+03 -0.78237651696E+02  0.34849224798E+03  0.00000000000E+00 0. -1.
         -1    1    3    3    0  502  0.47566224380E+03  0.64496347434E+03 -0.66416919381E+02  0.80414156750E+03  0.00000000000E+00 0.  1.
         11    1    5    5    0    0 -0.42836076369E+03 -0.57188413084E+03 -0.54245325062E+03  0.89710642183E+03  0.00000000000E+00 0. -1.
        -11    1    5    5    0    0 -0.25134377940E+03 -0.39664643097E+03 -0.43431508616E+03  0.63963402091E+03  0.00000000000E+00 0.  1.
          4    1    6    6  503    0 -0.13406470495E+02  0.44663446736E+02 -0.11153546588E+02  0.47947455897E+02  0.00000000000E+00 0. -1.
         -4    1    6    6    0  503  0.42648794460E+02 -0.12250417098E+02 -0.66816154417E+02  0.80208421497E+02  0.00000000000E+00 0.  1.
<mgrwt>
<rscale>  0 0.12080482E+04</rscale>
<asrwt>0</asrwt>
<pdfrwt beam="1">  1        2 0.30899405E+00 0.12080482E+04</pdfrwt>
<pdfrwt beam="2">  1       -2 0.12447212E+00 0.12080482E+04</pdfrwt>
<totfact> 0.31227995E+00</totfact>
</mgrwt>
</event>
<event>
12    1  0.1444206E-007  0.5785268E+03  0.7818608E-02  0.9950986E-01
         -2   -1    0    0    0  501 -0.00000000000E+00  0.00000000000E+00  0.64656222243E+03  0.64656222243E+03  0.00000000000E+00 0.  1.
          2   -1    0    0  501    0  0.00000000000E+00 -0.00000000000E+00 -0.57693835370E+03  0.57693835370E+03  0.00000000000E+00 0. -1.
         23    2    1    2    0    0 -0.19969236569E+03  0.39717447448E+03 -0.82243638351E+02  0.46150361117E+03  0.92719809020E+02 0.  0.
    5000000    2    1    2    0    0  0.19969236569E+03 -0.39717447448E+03  0.15186750708E+03  0.76199696496E+03  0.59995919096E+03 0.  0.
         23    2    4    4    0    0 -0.18819540155E+03 -0.11649128835E+03  0.12832126823E+03  0.27392671081E+03  0.97886493394E+02 0.  0.
         23    2    4    4    0    0  0.38788776724E+03 -0.28068318613E+03  0.23546238846E+02  0.48807025415E+03  0.91750622191E+02 0.  0.
          3    1    3    3  502    0 -0.41213627965E+02  0.40736599967E+02  0.14228700532E+02  0.59669838493E+02  0.00000000000E+00 0. -1.
         -3    1    3    3    0  502 -0.15847873773E+03  0.35643787451E+03 -0.96472338883E+02  0.40183377268E+03  0.00000000000E+00 0.  1.
         13    1    5    5    0    0 -0.17841604999E+03 -0.10488934106E+03  0.77680965482E+02  0.22106196679E+03  0.00000000000E+00 0. -1.
        -13    1    5    5    0    0 -0.97793515601E+01 -0.11601947288E+02  0.50640302752E+02  0.52864744023E+02  0.00000000000E+00 0.  1.
          3    1    6    6  503    0  0.31017832926E+03 -0.26420378229E+03  0.10612273671E+02  0.40758662254E+03  0.00000000000E+00 0. -1.
         -3    1    6    6    0  503  0.77709437979E+02 -0.16479403833E+02  0.12933965175E+02  0.80483631608E+02  0.00000000000E+00 0.  1.
<mgrwt>
<rscale>  0 0.57852676E+03</rscale>
<asrwt>0</asrwt>
<pdfrwt beam="1">  1        2 0.88759747E-01 0.57852676E+03</pdfrwt>
<pdfrwt beam="2">  1       -2 0.99471111E-01 0.57852676E+03</pdfrwt>
<totfact> 0.44650143E+01</totfact>
</mgrwt>
</event>
<event>
12    1  0.1444206E-007  0.4509155E+03  0.7818608E-02  0.1027449E+00
          2   -1    0    0  501    0  0.00000000000E+00  0.00000000000E+00  0.56305367568E+03  0.56305367568E+03  0.00000000000E+00 0. -1.
         -2   -1    0    0    0  501 -0.00000000000E+00 -0.00000000000E+00 -0.65095455886E+03  0.65095455886E+03  0.00000000000E+00 0.  1.
         23    2    1    2    0    0  0.37736378564E+03 -0.22787553494E+03  0.59026162492E+02  0.45503875055E+03  0.96153473683E+02 0.  0.
    5000000    2    1    2    0    0 -0.37736378564E+03  0.22787553494E+03 -0.14692704567E+03  0.75896948399E+03  0.60009702111E+03 0.  0.
         23    2    4    4    0    0 -0.17760059940E+03  0.15867888341E+03 -0.36232757545E+03  0.44351426527E+03  0.93288105498E+02 0.  0.
         23    2    4    4    0    0 -0.19976318624E+03  0.69196651534E+02  0.21540052978E+03  0.31545521872E+03  0.91766549590E+02 0.  0.
          3    1    3    3  502    0  0.98818841187E+02 -0.47960704788E+02 -0.25656985049E+02  0.11279926178E+03  0.00000000000E+00 0. -1.
         -3    1    3    3    0  502  0.27854494446E+03 -0.17991483015E+03  0.84683147541E+02  0.34223948876E+03  0.00000000000E+00 0.  1.
         13    1    5    5    0    0 -0.69935646367E+02  0.11034490597E+03 -0.24176250075E+03  0.27480192808E+03  0.00000000000E+00 0. -1.
        -13    1    5    5    0    0 -0.10766495303E+03  0.48333977439E+02 -0.12056507470E+03  0.16871233720E+03  0.00000000000E+00 0.  1.
          4    1    6    6  503    0 -0.14368819126E+03  0.44136345255E+02  0.20333303346E+03  0.25286090203E+03  0.00000000000E+00 0. -1.
         -4    1    6    6    0  503 -0.56074994989E+02  0.25060306279E+02  0.12067496316E+02  0.62594316685E+02  0.00000000000E+00 0.  1.
<mgrwt>
<rscale>  0 0.45091554E+03</rscale>
<asrwt>0</asrwt>
<pdfrwt beam="1">  1        2 0.86623642E-01 0.45091554E+03</pdfrwt>
<pdfrwt beam="2">  1       -2 0.10014686E+00 0.45091554E+03</pdfrwt>
<totfact> 0.45829918E+01</totfact>
</mgrwt>
</event>
<event>
12    1  0.1444206E-007  0.6879427E+03  0.7818608E-02  0.9738077E-01
         -2   -1    0    0    0  501 -0.00000000000E+00  0.00000000000E+00  0.19363091457E+04  0.19363091457E+04  0.00000000000E+00 0.  1.
          2   -1    0    0  501    0  0.00000000000E+00 -0.00000000000E+00 -0.60908387161E+03  0.60908387161E+03  0.00000000000E+00 0. -1.
         23    2    1    2    0    0 -0.56208748638E+03 -0.73272701689E+02  0.15808368764E+04  0.16818566792E+04  0.91024329504E+02 0.  0.
    5000000    2    1    2    0    0  0.56208748638E+03  0.73272701689E+02 -0.25361160229E+03  0.86353633809E+03  0.60005410692E+03 0.  0.
         23    2    4    4    0    0  0.11702573298E+02 -0.18551348456E+03 -0.38366262525E+02  0.21072462437E+03  0.91546130650E+02 0.  0.
         23    2    4    4    0    0  0.55038491308E+03  0.25878618625E+03 -0.21524533977E+03  0.65281171373E+03  0.99693202072E+02 0.  0.
          2    1    3    3  502    0 -0.26654000928E+03 -0.44161283704E+02  0.62361725464E+03  0.67962657086E+03  0.00000000000E+00 0.  1.
         -2    1    3    3    0  502 -0.29554747711E+03 -0.29111417984E+02  0.95721962172E+03  0.10022301084E+04  0.00000000000E+00 0. -1.
         11    1    5    5    0    0  0.45931077744E+01 -0.19037064342E+03 -0.49399579072E+02  0.19672924777E+03  0.00000000000E+00 0.  1.
        -11    1    5    5    0    0  0.71094655241E+01  0.48571588525E+01  0.11033316547E+02  0.13995376600E+02  0.00000000000E+00 0. -1.
          4    1    6    6  503    0  0.19442191418E+03  0.69009770187E+02 -0.28409347720E+02  0.20825301950E+03  0.00000000000E+00 0. -1.
         -4    1    6    6    0  503  0.35596299891E+03  0.18977641607E+03 -0.18683599205E+03  0.44455869422E+03  0.00000000000E+00 0.  1.
<mgrwt>
<rscale>  0 0.68794270E+03</rscale>
<asrwt>0</asrwt>
<pdfrwt beam="1">  1        2 0.93705212E-01 0.68794270E+03</pdfrwt>
<pdfrwt beam="2">  1       -2 0.29789371E+00 0.68794270E+03</pdfrwt>
<totfact> 0.16790635E+00</totfact>
</mgrwt>
</event>
<event>
12    1  0.1444206E-007  0.4978162E+03  0.7818608E-02  0.1014350E+00
          1   -1    0    0  501    0  0.00000000000E+00  0.00000000000E+00  0.14309130941E+04  0.14309130941E+04  0.00000000000E+00 0. -1.
         -1   -1    0    0    0  501 -0.00000000000E+00 -0.00000000000E+00 -0.26808737214E+03  0.26808737214E+03  0.00000000000E+00 0.  1.
         23    2    1    2    0    0  0.17905998298E+02  0.46843578051E+03  0.45004027763E+03  0.65608014168E+03  0.90289509814E+02 0.  0.
    5000000    2    1    2    0    0 -0.17905998298E+02 -0.46843578051E+03  0.71278544436E+03  0.10429203246E+04  0.59988916351E+03 0.  0.
         23    2    4    4    0    0 -0.77675280625E+01  0.64234412788E+01 -0.73134155598E+02  0.12033313110E+03  0.95025589374E+02 0.  0.
         23    2    4    4    0    0 -0.10138470235E+02 -0.47485922179E+03  0.78591959995E+03  0.92258719348E+03  0.88901309769E+02 0.  0.
          3    1    3    3  502    0  0.14331001340E+02  0.39957647109E+03  0.42287235271E+03  0.58196886561E+03  0.00000000000E+00 0. -1.
         -3    1    3    3    0  502  0.35749969574E+01  0.68859309414E+02  0.27167924915E+02  0.74111276068E+02  0.00000000000E+00 0.  1.
         11    1    5    5    0    0 -0.20966768243E+02 -0.96587082623E+01  0.16462053091E+02  0.28353045830E+02  0.00000000000E+00 0.  1.
        -11    1    5    5    0    0  0.13199240180E+02  0.16082149541E+02 -0.89596208690E+02  0.91980085273E+02  0.00000000000E+00 0. -1.
          1    1    6    6  503    0  0.36486564478E+02 -0.29099475501E+03  0.49189075331E+03  0.57268292276E+03  0.00000000000E+00 0. -1.
         -1    1    6    6    0  503 -0.46625034713E+02 -0.18386446678E+03  0.29402884665E+03  0.34990427072E+03  0.00000000000E+00 0.  1.
<mgrwt>
<rscale>  0 0.49781624E+03</rscale>
<asrwt>0</asrwt>
<pdfrwt beam="1">  1        1 0.22014047E+00 0.49781624E+03</pdfrwt>
<pdfrwt beam="2">  1       -1 0.41244212E-01 0.49781624E+03</pdfrwt>
<totfact> 0.44791290E+01</totfact>
</mgrwt>
</event>
<event>
12    1  0.1444206E-007  0.5091038E+03  0.7818608E-02  0.1011430E+00
          2   -1    0    0  501    0  0.00000000000E+00  0.00000000000E+00  0.21613489036E+04  0.21613489036E+04  0.00000000000E+00 0. -1.
         -2   -1    0    0    0  501 -0.00000000000E+00 -0.00000000000E+00 -0.21281663304E+03  0.21281663304E+03  0.00000000000E+00 0.  1.
         23    2    1    2    0    0  0.28612217418E+03  0.22692150163E+03  0.14852377146E+04  0.15323878231E+04  0.94456894514E+02 0.  0.
    5000000    2    1    2    0    0 -0.28612217418E+03 -0.22692150163E+03  0.46329455595E+03  0.84177771357E+03  0.60049030553E+03 0.  0.
         23    2    4    4    0    0 -0.18529825022E+03 -0.39545697213E+03  0.44115701781E+03  0.62674351594E+03  0.86407534853E+02 0.  0.
         23    2    4    4    0    0 -0.10082392396E+03  0.16853547050E+03  0.22137538145E+02  0.21503419763E+03  0.84734686500E+02 0.  0.
          3    1    3    3  502    0  0.50919942803E+02  0.75777014169E+02  0.49923520168E+03  0.50751431808E+03  0.00000000000E+00 0. -1.
         -3    1    3    3    0  502  0.23520223138E+03  0.15114448746E+03  0.98600251293E+03  0.10248735050E+04  0.00000000000E+00 0.  1.
         13    1    5    5    0    0 -0.11416342597E+03 -0.26111985539E+03  0.22815706991E+03  0.36506508359E+03  0.00000000000E+00 0. -1.
        -13    1    5    5    0    0 -0.71134824255E+02 -0.13433711673E+03  0.21299994789E+03  0.26167843235E+03  0.00000000000E+00 0.  1.
          4    1    6    6  503    0 -0.10672751036E+03  0.11661219627E+03 -0.50870018477E+00  0.15808043700E+03  0.00000000000E+00 0. -1.
         -4    1    6    6    0  503  0.59035864035E+01  0.51923274230E+02  0.22646238330E+02  0.56953760628E+02  0.00000000000E+00 0.  1.
<mgrwt>
<rscale>  0 0.50910379E+03</rscale>
<asrwt>0</asrwt>
<pdfrwt beam="1">  1        2 0.33251520E+00 0.50910379E+03</pdfrwt>
<pdfrwt beam="2">  1       -2 0.32741022E-01 0.50910379E+03</pdfrwt>
<totfact> 0.50598529E+01</totfact>
</mgrwt>
</event>
<event>
12    1  0.1444206E-007  0.1453397E+04  0.7818608E-02  0.8916049E-01
         -2   -1    0    0    0  501 -0.00000000000E+00  0.00000000000E+00  0.21997856722E+04  0.21997856722E+04  0.00000000000E+00 0.  1.
          2   -1    0    0  501    0  0.00000000000E+00 -0.00000000000E+00 -0.13271699877E+04  0.13271699877E+04  0.00000000000E+00 0. -1.
         23    2    1    2    0    0 -0.13043910394E+04  0.63355666769E+03  0.12455547598E+04  0.19138247555E+04  0.92133057048E+02 0.  0.
    5000000    2    1    2    0    0  0.13043910394E+04 -0.63355666769E+03 -0.37293907527E+03  0.16131309044E+04  0.60023139376E+03 0.  0.
         23    2    4    4    0    0  0.87771904913E+03 -0.42816843608E+03  0.35208822578E+02  0.98147531360E+03  0.91297268022E+02 0.  0.
         23    2    4    4    0    0  0.42667199032E+03 -0.20538823160E+03 -0.40814789785E+03  0.63165559085E+03  0.90392289123E+02 0.  0.
          4    1    3    3  502    0 -0.66506697376E+03  0.27182407138E+03  0.61661202692E+03  0.94679078846E+03  0.00000000000E+00 0. -1.
         -4    1    3    3    0  502 -0.63932406569E+03  0.36173259631E+03  0.62894273284E+03  0.96703396703E+03  0.00000000000E+00 0.  1.
         13    1    5    5    0    0  0.35620374794E+03 -0.12807283579E+03  0.30606779812E+02  0.37976379012E+03  0.00000000000E+00 0.  1.
        -13    1    5    5    0    0  0.52151530119E+03 -0.30009560029E+03  0.46020427657E+01  0.60171152348E+03  0.00000000000E+00 0. -1.
          4    1    6    6  503    0  0.37396053549E+03 -0.17947350914E+03 -0.31221034596E+03  0.51916521716E+03  0.00000000000E+00 0. -1.
         -4    1    6    6    0  503  0.52711454825E+02 -0.25914722468E+02 -0.95937551885E+02  0.11249037369E+03  0.00000000000E+00 0.  1.
<mgrwt>
<rscale>  0 0.14533974E+04</rscale>
<asrwt>0</asrwt>
<pdfrwt beam="1">  1        2 0.20418000E+00 0.14533974E+04</pdfrwt>
<pdfrwt beam="2">  1       -2 0.33842856E+00 0.14533974E+04</pdfrwt>
<totfact> 0.27816819E-01</totfact>
</mgrwt>
</event>
<event>
12    1  0.1444206E-007  0.1196950E+04  0.7818608E-02  0.9115530E-01
         -1   -1    0    0    0  501 -0.00000000000E+00  0.00000000000E+00  0.61547323720E+03  0.61547323720E+03  0.00000000000E+00 0.  1.
          1   -1    0    0  501    0  0.00000000000E+00 -0.00000000000E+00 -0.31935475868E+04  0.31935475868E+04  0.00000000000E+00 0. -1.
         23    2    1    2    0    0  0.43878673827E+02 -0.11917534523E+04 -0.41274449378E+03  0.12652394659E+04  0.90946467117E+02 0.  0.
    5000000    2    1    2    0    0 -0.43878673827E+02  0.11917534523E+04 -0.21653298558E+04  0.25437813581E+04  0.59997381969E+03 0.  0.
         23    2    4    4    0    0 -0.19992640932E+02  0.10953024460E+04 -0.21418242388E+04  0.24074390893E+04  0.90910643245E+02 0.  0.
         23    2    4    4    0    0 -0.23886032895E+02  0.96451006301E+02 -0.23505617011E+02  0.13634226877E+03  0.90351320074E+02 0.  0.
          2    1    3    3  502    0  0.67585695675E+02 -0.87601194507E+03 -0.32342131046E+03  0.93625108717E+03  0.00000000000E+00 0. -1.
         -2    1    3    3    0  502 -0.23707021848E+02 -0.31574150721E+03 -0.89323183318E+02  0.32898837873E+03  0.00000000000E+00 0.  1.
         11    1    5    5    0    0 -0.53710552419E+02  0.60138270894E+03 -0.12092850535E+04  0.13516346868E+04  0.00000000000E+00 0. -1.
        -11    1    5    5    0    0  0.33717911487E+02  0.49391973704E+03 -0.93253918531E+03  0.10558044025E+04  0.00000000000E+00 0.  1.
          3    1    6    6  503    0 -0.15456830606E+00  0.14257388355E+02  0.31539407531E+02  0.34612587905E+02  0.00000000000E+00 0. -1.
         -3    1    6    6    0  503 -0.23731464589E+02  0.82193617946E+02 -0.55045024542E+02  0.10172968087E+03  0.00000000000E+00 0.  1.
<mgrwt>
<rscale>  0 0.11969502E+04</rscale>
<asrwt>0</asrwt>
<pdfrwt beam="1">  1        1 0.49131502E+00 0.11969502E+04</pdfrwt>
<pdfrwt beam="2">  1       -1 0.94688189E-01 0.11969502E+04</pdfrwt>
<totfact> 0.46363599E-01</totfact>
</mgrwt>
</event>
<event>
12    1  0.1444206E-007  0.5246354E+03  0.7818608E-02  0.1007542E+00
          2   -1    0    0  501    0  0.00000000000E+00  0.00000000000E+00  0.25940312522E+04  0.25940312522E+04  0.00000000000E+00 0. -1.
         -2   -1    0    0    0  501 -0.00000000000E+00 -0.00000000000E+00 -0.24300704329E+03  0.24300704329E+03  0.00000000000E+00 0.  1.
         23    2    1    2    0    0  0.48569261850E+03 -0.28104993649E+02  0.18527451365E+04  0.19178415891E+04  0.93619495330E+02 0.  0.
    5000000    2    1    2    0    0 -0.48569261850E+03  0.28104993649E+02  0.49827907246E+03  0.91919670638E+03  0.59996111594E+03 0.  0.
         23    2    4    4    0    0 -0.44330843066E+03  0.30120698296E+02  0.61466438210E+03  0.76395859729E+03  0.91601389724E+02 0.  0.
         23    2    4    4    0    0 -0.42384187850E+02 -0.20157046469E+01 -0.11638530964E+03  0.15523810909E+03  0.93556655399E+02 0.  0.
          1    1    3    3  502    0  0.13424819092E+03 -0.46104506775E+02  0.60437875440E+03  0.62082355068E+03  0.00000000000E+00 0. -1.
         -1    1    3    3    0  502  0.35144442758E+03  0.17999513126E+02  0.12483663821E+04  0.12970180384E+04  0.00000000000E+00 0.  1.
         11    1    5    5    0    0 -0.63726306926E+02  0.36356445757E+02  0.11551351179E+03  0.13684372382E+03  0.00000000000E+00 0. -1.
        -11    1    5    5    0    0 -0.37958212373E+03 -0.62357474603E+01  0.49915087031E+03  0.62711487347E+03  0.00000000000E+00 0.  1.
          3    1    6    6  503    0 -0.59373421456E+02  0.29740085790E+02 -0.69607427924E+02  0.96202234383E+02  0.00000000000E+00 0. -1.
         -3    1    6    6    0  503  0.16989233606E+02 -0.31755790437E+02 -0.46777881714E+02  0.59035874707E+02  0.00000000000E+00 0.  1.
<mgrwt>
<rscale>  0 0.52463536E+03</rscale>
<asrwt>0</asrwt>
<pdfrwt beam="1">  1        2 0.39908171E+00 0.52463536E+03</pdfrwt>
<pdfrwt beam="2">  1       -2 0.37385701E-01 0.52463536E+03</pdfrwt>
<totfact> 0.22603242E+01</totfact>
</mgrwt>
</event>
<event>
12    1  0.1444206E-007  0.5916237E+03  0.7818608E-02  0.9922938E-01
          1   -1    0    0  501    0  0.00000000000E+00  0.00000000000E+00  0.65497110362E+03  0.65497110362E+03  0.00000000000E+00 0.  1.
         -1   -1    0    0    0  501 -0.00000000000E+00 -0.00000000000E+00 -0.61327806768E+03  0.61327806768E+03  0.00000000000E+00 0. -1.
         23    2    1    2    0    0  0.32372003691E+03 -0.36330844102E+03  0.27520014883E+02  0.49563975753E+03  0.90076258876E+02 0.  0.
    5000000    2    1    2    0    0 -0.32372003691E+03  0.36330844102E+03  0.14173021054E+02  0.77260941378E+03  0.59994728612E+03 0.  0.
         23    2    4    4    0    0  0.35056234577E+02 -0.88241992710E+02  0.12148751772E+03  0.17927834717E+03  0.91465402988E+02 0.  0.
         23    2    4    4    0    0 -0.35877627148E+03  0.45155043373E+03 -0.10731449666E+03  0.59333106660E+03  0.88922135751E+02 0.  0.
          4    1    3    3  502    0  0.60593437929E+02 -0.12395627376E+03 -0.77544200258E+01  0.13819136570E+03  0.00000000000E+00 0. -1.
         -4    1    3    3    0  502  0.26312659898E+03 -0.23935216726E+03  0.35274434909E+02  0.35744839182E+03  0.00000000000E+00 0.  1.
         11    1    5    5    0    0  0.39983270558E+02 -0.27117640739E+02  0.62154900509E+01  0.48709964898E+02  0.00000000000E+00 0. -1.
        -11    1    5    5    0    0 -0.49270359817E+01 -0.61124351971E+02  0.11527202767E+03  0.13056838228E+03  0.00000000000E+00 0.  1.
          1    1    6    6  503    0 -0.30112883836E+03  0.33864963431E+03 -0.11079489054E+03  0.46651651619E+03  0.00000000000E+00 0. -1.
         -1    1    6    6    0  503 -0.57647433121E+02  0.11290079942E+03  0.34803938768E+01  0.12681455041E+03  0.00000000000E+00 0.  1.
<mgrwt>
<rscale>  0 0.59162372E+03</rscale>
<asrwt>0</asrwt>
<pdfrwt beam="1">  1        1 0.10076478E+00 0.59162372E+03</pdfrwt>
<pdfrwt beam="2">  1       -1 0.94350472E-01 0.59162372E+03</pdfrwt>
<totfact> 0.34127990E+01</totfact>
</mgrwt>
</event>
<event>
12    1  0.1444206E-007  0.1094062E+04  0.7818608E-02  0.9210999E-01
         -2   -1    0    0    0  501 -0.00000000000E+00  0.00000000000E+00  0.34322825666E+03  0.34322825666E+03  0.00000000000E+00 0.  1.
          2   -1    0    0  501    0  0.00000000000E+00 -0.00000000000E+00 -0.35886002155E+04  0.35886002155E+04  0.00000000000E+00 0. -1.
         23    2    1    2    0    0 -0.97062417228E+03 -0.30685132784E+03 -0.12728428200E+04  0.16324160379E+04  0.91565578246E+02 0.  0.
    5000000    2    1    2    0    0  0.97062417228E+03  0.30685132784E+03 -0.19725291388E+04  0.22994124342E+04  0.60013108411E+03 0.  0.
         23    2    4    4    0    0  0.47984904890E+03 -0.13499207986E+03 -0.72606997542E+03  0.88590265351E+03  0.95749313014E+02 0.  0.
         23    2    4    4    0    0  0.49077512339E+03  0.44184340770E+03 -0.12464591634E+04  0.14135097807E+04  0.90904541047E+02 0.  0.
          1    1    3    3  502    0 -0.69957475602E+03 -0.20980794695E+03 -0.97450011342E+03  0.12178155381E+04  0.00000000000E+00 0. -1.
         -1    1    3    3    0  502 -0.27104941626E+03 -0.97043380886E+02 -0.29834270660E+03  0.41460049977E+03  0.00000000000E+00 0.  1.
         13    1    5    5    0    0  0.31813244939E+03 -0.49516862600E+02 -0.41799610494E+03  0.52761815623E+03  0.00000000000E+00 0. -1.
        -13    1    5    5    0    0  0.16171659950E+03 -0.85475217262E+02 -0.30807387048E+03  0.35828449728E+03  0.00000000000E+00 0.  1.
          1    1    6    6  503    0  0.43277866935E+03  0.35106299984E+03 -0.10062961048E+04  0.11502932048E+04  0.00000000000E+00 0. -1.
         -1    1    6    6    0  503  0.57996454040E+02  0.90780407855E+02 -0.24016305858E+03  0.26321657592E+03  0.00000000000E+00 0.  1.
<mgrwt>
<rscale>  0 0.10940622E+04</rscale>
<asrwt>0</asrwt>
<pdfrwt beam="1">  1        2 0.55209237E+00 0.10940622E+04</pdfrwt>
<pdfrwt beam="2">  1       -2 0.52804345E-01 0.10940622E+04</pdfrwt>
<totfact> 0.24391138E+00</totfact>
</mgrwt>
</event>
<event>
12    1  0.1444206E-007  0.7707499E+03  0.7818608E-02  0.9603348E-01
         -1   -1    0    0    0  501 -0.00000000000E+00  0.00000000000E+00  0.28985052987E+03  0.28985052987E+03  0.00000000000E+00 0.  1.
          1   -1    0    0  501    0  0.00000000000E+00 -0.00000000000E+00 -0.26847562454E+04  0.26847562454E+04  0.00000000000E+00 0. -1.
         23    2    1    2    0    0 -0.65740636375E+03  0.30077024268E+03 -0.58038587675E+03  0.93148071972E+03  0.90347657942E+02 0.  0.
    5000000    2    1    2    0    0  0.65740636375E+03 -0.30077024268E+03 -0.18145198388E+04  0.20431260556E+04  0.59936296812E+03 0.  0.
         23    2    4    4    0    0  0.39392202163E+02 -0.15704918885E+03 -0.94083704940E+03  0.95912067296E+03  0.92314237642E+02 0.  0.
         23    2    4    4    0    0  0.61801416159E+03 -0.14372105383E+03 -0.87368278941E+03  0.10840053826E+04  0.95649400338E+02 0.  0.
          1    1    3    3  502    0 -0.11601146956E+03  0.80182070877E+02 -0.14734006071E+03  0.20395322760E+03  0.00000000000E+00 0.  1.
         -1    1    3    3    0  502 -0.54139489419E+03  0.22058817180E+03 -0.43304581604E+03  0.72752749212E+03  0.00000000000E+00 0. -1.
         13    1    5    5    0    0  0.54599918358E+02 -0.86346254177E+02 -0.37448484390E+03  0.38816971160E+03  0.00000000000E+00 0.  1.
        -13    1    5    5    0    0 -0.15207716195E+02 -0.70702934678E+02 -0.56635220550E+03  0.57095096136E+03  0.00000000000E+00 0. -1.
          2    1    6    6  503    0  0.57912584053E+03 -0.10908598049E+03 -0.81130288388E+03  0.10027456605E+04  0.00000000000E+00 0. -1.
         -2    1    6    6    0  503  0.38888321057E+02 -0.34635073338E+02 -0.62379905531E+02  0.81259722088E+02  0.00000000000E+00 0.  1.
<mgrwt>
<rscale>  0 0.77074993E+03</rscale>
<asrwt>0</asrwt>
<pdfrwt beam="1">  1        1 0.41303941E+00 0.77074993E+03</pdfrwt>
<pdfrwt beam="2">  1       -1 0.44592390E-01 0.77074993E+03</pdfrwt>
<totfact> 0.53002786E+00</totfact>
</mgrwt>
</event>
<event>
12    1  0.1444206E-007  0.5095180E+03  0.7818608E-02  0.1011324E+00
          1   -1    0    0  501    0  0.00000000000E+00  0.00000000000E+00  0.10595219880E+04  0.10595219880E+04  0.00000000000E+00 0. -1.
         -1   -1    0    0    0  501 -0.00000000000E+00 -0.00000000000E+00 -0.48131152157E+03  0.48131152157E+03  0.00000000000E+00 0.  1.
         23    2    1    2    0    0  0.48908565411E+03  0.82169569598E+02 -0.93202749448E+02  0.51266964509E+03  0.90480922150E+02 0.  0.
    5000000    2    1    2    0    0 -0.48908565411E+03 -0.82169569598E+02  0.67141321590E+03  0.10281638645E+04  0.60030709686E+03 0.  0.
         23    2    4    4    0    0 -0.29619292855E+03 -0.36205681867E+02 -0.80330802299E+01  0.31461537416E+03  0.99384108174E+02 0.  0.
         23    2    4    4    0    0 -0.19289272556E+03 -0.45963887731E+02  0.67944629613E+03  0.71354849033E+03  0.90464889224E+02 0.  0.
          4    1    3    3  502    0  0.11783097415E+03  0.54553895770E+02 -0.44274265910E+02  0.13718774229E+03  0.00000000000E+00 0. -1.
         -4    1    3    3    0  502  0.37125467995E+03  0.27615673828E+02 -0.48928483539E+02  0.37548190280E+03  0.00000000000E+00 0.  1.
         11    1    5    5    0    0 -0.15580864962E+03  0.66906301297E+01  0.38482208658E+02  0.16062994805E+03  0.00000000000E+00 0.  1.
        -11    1    5    5    0    0 -0.14038427894E+03 -0.42896311997E+02 -0.46515288888E+02  0.15398542611E+03  0.00000000000E+00 0. -1.
          2    1    6    6  503    0 -0.95753042652E+02  0.18576912129E+02  0.24449855443E+03  0.26323618664E+03  0.00000000000E+00 0.  1.
         -2    1    6    6    0  503 -0.97139682904E+02 -0.64540799859E+02  0.43494774170E+03  0.45031230369E+03  0.00000000000E+00 0. -1.
<mgrwt>
<rscale>  0 0.50951799E+03</rscale>
<asrwt>0</asrwt>
<pdfrwt beam="1">  1        1 0.16300338E+00 0.50951799E+03</pdfrwt>
<pdfrwt beam="2">  1       -1 0.74047927E-01 0.50951799E+03</pdfrwt>
<totfact> 0.26584991E+01</totfact>
</mgrwt>
</event>
<event>
12    1  0.1444206E-007  0.9371531E+03  0.7818608E-02  0.9380294E-01
          1   -1    0    0  501    0  0.00000000000E+00  0.00000000000E+00  0.12094429947E+04  0.12094429947E+04  0.00000000000E+00 0. -1.
         -1   -1    0    0    0  501 -0.00000000000E+00 -0.00000000000E+00 -0.10340906267E+04  0.10340906267E+04  0.00000000000E+00 0.  1.
         23    2    1    2    0    0 -0.91797879190E+03 -0.16492940014E+02 -0.39966975578E+03  0.10051146305E+04  0.86962217822E+02 0.  0.
    5000000    2    1    2    0    0  0.91797879190E+03  0.16492940014E+02  0.57502212384E+03  0.12384189909E+04  0.60006172578E+03 0.  0.
         23    2    4    4    0    0  0.21580639969E+03 -0.90925093302E+02 -0.81686140290E+02  0.26654870698E+03  0.97651487143E+02 0.  0.
         23    2    4    4    0    0  0.70217239221E+03  0.10741803332E+03  0.65670826413E+03  0.97187028395E+03  0.93174043486E+02 0.  0.
          1    1    3    3  502    0 -0.54685368985E+03  0.28935406329E+02 -0.21791808193E+03  0.58938485413E+03  0.00000000000E+00 0. -1.
         -1    1    3    3    0  502 -0.37112510205E+03 -0.45428346343E+02 -0.18175167385E+03  0.41572977638E+03  0.00000000000E+00 0.  1.
         11    1    5    5    0    0  0.10396176195E+03 -0.74091032014E+02 -0.85043158155E+02  0.15339448400E+03  0.00000000000E+00 0. -1.
        -11    1    5    5    0    0  0.11184463774E+03 -0.16834061287E+02  0.33570178647E+01  0.11315422298E+03  0.00000000000E+00 0.  1.
          2    1    6    6  503    0  0.39720760512E+03  0.36183200390E+02  0.31399552701E+03  0.50761825867E+03  0.00000000000E+00 0.  1.
         -2    1    6    6    0  503  0.30496478709E+03  0.71234832925E+02  0.34271273712E+03  0.46425202528E+03  0.00000000000E+00 0. -1.
<mgrwt>
<rscale>  0 0.93715310E+03</rscale>
<asrwt>0</asrwt>
<pdfrwt beam="1">  1        1 0.18606815E+00 0.93715310E+03</pdfrwt>
<pdfrwt beam="2">  1       -1 0.15909087E+00 0.93715310E+03</pdfrwt>
<totfact> 0.31599476E+00</totfact>
</mgrwt>
</event>
<event>
12    1  0.1444206E-007  0.8480979E+03  0.7818608E-02  0.9492893E-01
          2   -1    0    0  501    0  0.00000000000E+00  0.00000000000E+00  0.67627071860E+03  0.67627071860E+03  0.00000000000E+00 0. -1.
         -2   -1    0    0    0  501 -0.00000000000E+00 -0.00000000000E+00 -0.11918581766E+04  0.11918581766E+04  0.00000000000E+00 0.  1.
         23    2    1    2    0    0  0.71606617412E+03 -0.23593065001E+03  0.31244879269E+02  0.76032308112E+03  0.93278657119E+02 0.  0.
    5000000    2    1    2    0    0 -0.71606617412E+03  0.23593065001E+03 -0.54683233726E+03  0.11078058141E+04  0.59982837484E+03 0.  0.
         23    2    4    4    0    0 -0.65564708276E+02  0.27326253310E+03 -0.92038752123E+02  0.30908883692E+03  0.89964627747E+02 0.  0.
         23    2    4    4    0    0 -0.65050146585E+03 -0.37331883094E+02 -0.45479358514E+03  0.79871697715E+03  0.81029488076E+02 0.  0.
          3    1    3    3  502    0  0.57696396387E+03 -0.20863873849E+03  0.57283480522E+02  0.61619715672E+03  0.00000000000E+00 0. -1.
         -3    1    3    3    0  502  0.13910221025E+03 -0.27291911517E+02 -0.26038601254E+02  0.14412592441E+03  0.00000000000E+00 0.  1.
         11    1    5    5    0    0  0.48821999485E+01  0.10902994239E+03 -0.68465727230E+02  0.12883679606E+03  0.00000000000E+00 0. -1.
        -11    1    5    5    0    0 -0.70446908224E+02  0.16423259072E+03 -0.23573024893E+02  0.18025204086E+03  0.00000000000E+00 0.  1.
          2    1    6    6  503    0 -0.38658600306E+03 -0.43913274875E+02 -0.31102963065E+03  0.49811298378E+03  0.00000000000E+00 0. -1.
         -2    1    6    6    0  503 -0.26391546279E+03  0.65813917806E+01 -0.14376395448E+03  0.30060399336E+03  0.00000000000E+00 0.  1.
<mgrwt>
<rscale>  0 0.84809792E+03</rscale>
<asrwt>0</asrwt>
<pdfrwt beam="1">  1        2 0.10404165E+00 0.84809792E+03</pdfrwt>
<pdfrwt beam="2">  1       -2 0.18336280E+00 0.84809792E+03</pdfrwt>
<totfact> 0.74118684E+00</totfact>
</mgrwt>
</event>
<event>
12    1  0.1444206E-007  0.4979666E+03  0.7818608E-02  0.1014311E+00
          2   -1    0    0  501    0  0.00000000000E+00  0.00000000000E+00  0.69961039223E+03  0.69961039223E+03  0.00000000000E+00 0. -1.
         -2   -1    0    0    0  501 -0.00000000000E+00 -0.00000000000E+00 -0.61310307388E+03  0.61310307388E+03  0.00000000000E+00 0.  1.
         23    2    1    2    0    0 -0.25142591042E+03  0.25409436373E+03 -0.33320076185E+03  0.49780373290E+03  0.94904555656E+02 0.  0.
    5000000    2    1    2    0    0  0.25142591042E+03 -0.25409436373E+03  0.41970808019E+03  0.81490973321E+03  0.60012004349E+03 0.  0.
         23    2    4    4    0    0 -0.11630671000E+03 -0.22821350285E+03  0.33952891557E+02  0.27350326496E+03  0.89680451743E+02 0.  0.
         23    2    4    4    0    0  0.36773262042E+03 -0.25880860878E+02  0.38575518863E+03  0.54140646825E+03  0.91743115411E+02 0.  0.
          3    1    3    3  502    0 -0.67130367654E+02  0.54328763439E+02 -0.31988020247E+02  0.92094159628E+02  0.00000000000E+00 0. -1.
         -3    1    3    3    0  502 -0.18429554276E+03  0.19976560029E+03 -0.30121274160E+03  0.40570957327E+03  0.00000000000E+00 0.  1.
         11    1    5    5    0    0 -0.66625228836E+02 -0.16680446696E+03  0.61489736514E+02  0.18985162368E+03  0.00000000000E+00 0.  1.
        -11    1    5    5    0    0 -0.49681481166E+02 -0.61409035890E+02 -0.27536844957E+02  0.83651641287E+02  0.00000000000E+00 0. -1.
          1    1    6    6  503    0  0.22701351376E+03  0.27492018073E+02  0.24872232796E+03  0.33786645722E+03  0.00000000000E+00 0. -1.
         -1    1    6    6    0  503  0.14071910666E+03 -0.53372878950E+02  0.13703286067E+03  0.20354001103E+03  0.00000000000E+00 0.  1.
<mgrwt>
<rscale>  0 0.49796663E+03</rscale>
<asrwt>0</asrwt>
<pdfrwt beam="1">  1        2 0.10763237E+00 0.49796663E+03</pdfrwt>
<pdfrwt beam="2">  1       -2 0.94323550E-01 0.49796663E+03</pdfrwt>
<totfact> 0.40341533E+01</totfact>
</mgrwt>
</event>
<event>
12    1  0.1444206E-007  0.1940421E+04  0.7818608E-02  0.8634994E-01
          2   -1    0    0  501    0  0.00000000000E+00  0.00000000000E+00  0.33931778949E+04  0.33931778949E+04  0.00000000000E+00 0. -1.
         -2   -1    0    0    0  501 -0.00000000000E+00 -0.00000000000E+00 -0.11220807555E+04  0.11220807555E+04  0.00000000000E+00 0.  1.
         23    2    1    2    0    0  0.18879022027E+04 -0.15604355307E+03  0.88791870397E+03  0.20941464152E+04  0.92332368430E+02 0.  0.
    5000000    2    1    2    0    0 -0.18879022027E+04  0.15604355307E+03  0.13831784354E+04  0.24211122351E+04  0.60006462458E+03 0.  0.
         23    2    4    4    0    0 -0.63752339170E+02  0.11149794316E+03  0.14011002138E+03  0.21129113015E+03  0.92287439603E+02 0.  0.
         23    2    4    4    0    0 -0.18241498635E+04  0.44545609911E+02  0.12430684140E+04  0.22098211050E+04  0.92645551737E+02 0.  0.
          1    1    3    3  502    0  0.11839483893E+04 -0.13990065340E+03  0.54128371310E+03  0.13093105206E+04  0.00000000000E+00 0. -1.
         -1    1    3    3    0  502  0.70395381340E+03 -0.16142899673E+02  0.34663499087E+03  0.78483589463E+03  0.00000000000E+00 0.  1.
         11    1    5    5    0    0  0.22659991299E+02  0.38777200084E+02  0.45880213940E+02  0.64203897726E+02  0.00000000000E+00 0. -1.
        -11    1    5    5    0    0 -0.86412330469E+02  0.72720743079E+02  0.94229807442E+02  0.14708723242E+03  0.00000000000E+00 0.  1.
          1    1    6    6  503    0 -0.30677718631E+03  0.39301237689E+02  0.19378177035E+03  0.36497699084E+03  0.00000000000E+00 0. -1.
         -1    1    6    6    0  503 -0.15173726772E+04  0.52443722217E+01  0.10492866437E+04  0.18448441141E+04  0.00000000000E+00 0.  1.
<mgrwt>
<rscale>  0 0.19404214E+04</rscale>
<asrwt>0</asrwt>
<pdfrwt beam="1">  1        2 0.52202736E+00 0.19404214E+04</pdfrwt>
<pdfrwt beam="2">  1       -2 0.17262781E+00 0.19404214E+04</pdfrwt>
<totfact> 0.17777536E-01</totfact>
</mgrwt>
</event>
<event>
12    1  0.1444206E-007  0.5181343E+03  0.7818608E-02  0.1009151E+00
          1   -1    0    0  501    0  0.00000000000E+00  0.00000000000E+00  0.17146470020E+04  0.17146470020E+04  0.00000000000E+00 0. -1.
         -1   -1    0    0    0  501 -0.00000000000E+00 -0.00000000000E+00 -0.28786565815E+03  0.28786565815E+03  0.00000000000E+00 0.  1.
         23    2    1    2    0    0 -0.10513685825E+03  0.49116784278E+03  0.97109114772E+03  0.10971114900E+04  0.91301673868E+02 0.  0.
    5000000    2    1    2    0    0  0.10513685825E+03 -0.49116784278E+03  0.45569019618E+03  0.90540117016E+03  0.59983173914E+03 0.  0.
         23    2    4    4    0    0  0.73963656154E+02 -0.24265300208E+03 -0.10005097154E+03  0.28753649525E+03  0.91191761387E+02 0.  0.
         23    2    4    4    0    0  0.31173202099E+02 -0.24851484070E+03  0.55574116771E+03  0.61786467491E+03  0.10088169520E+03 0.  0.
          3    1    3    3  502    0 -0.77325421420E+02  0.41037989846E+03  0.72576409549E+03  0.83733171692E+03  0.00000000000E+00 0. -1.
         -3    1    3    3    0  502 -0.27811436834E+02  0.80787944322E+02  0.24532705223E+03  0.25977977312E+03  0.00000000000E+00 0.  1.
         13    1    5    5    0    0  0.30051345435E+02 -0.18220585498E+02 -0.35407782367E+02  0.49887715427E+02  0.00000000000E+00 0.  1.
        -13    1    5    5    0    0  0.43912310719E+02 -0.22443241658E+03 -0.64643189170E+02  0.23764877982E+03  0.00000000000E+00 0. -1.
          4    1    6    6  503    0 -0.26215807848E+02 -0.17893864606E+02  0.52908163499E+02  0.61698725566E+02  0.00000000000E+00 0. -1.
         -4    1    6    6    0  503  0.57389009947E+02 -0.23062097610E+03  0.50283300421E+03  0.55616594934E+03  0.00000000000E+00 0.  1.
<mgrwt>
<rscale>  0 0.51813435E+03</rscale>
<asrwt>0</asrwt>
<pdfrwt beam="1">  1        1 0.26379184E+00 0.51813435E+03</pdfrwt>
<pdfrwt beam="2">  1       -1 0.44287025E-01 0.51813435E+03</pdfrwt>
<totfact> 0.25249668E+01</totfact>
</mgrwt>
</event>
<event>
12    1  0.1444206E-007  0.1478944E+04  0.7818608E-02  0.8898577E-01
         -2   -1    0    0    0  501 -0.00000000000E+00  0.00000000000E+00  0.13853380419E+04  0.13853380419E+04  0.00000000000E+00 0.  1.
          2   -1    0    0  501    0  0.00000000000E+00 -0.00000000000E+00 -0.24498266743E+04  0.24498266743E+04  0.00000000000E+00 0. -1.
         23    2    1    2    0    0  0.13503238132E+04 -0.53534441389E+03  0.57423518952E+03  0.15646431204E+04  0.91618771628E+02 0.  0.
    5000000    2    1    2    0    0 -0.13503238132E+04  0.53534441389E+03 -0.16387238219E+04  0.22705215957E+04  0.59990375076E+03 0.  0.
         23    2    4    4    0    0 -0.50939569850E+03  0.29863826764E+02 -0.27405122901E+03  0.58721441328E+03  0.96648151777E+02 0.  0.
         23    2    4    4    0    0 -0.84092811471E+03  0.50548058713E+03 -0.13646725929E+04  0.16833071825E+04  0.92309623517E+02 0.  0.
          4    1    3    3  502    0  0.10553047255E+04 -0.43944955305E+03  0.41674303075E+03  0.12167410271E+04  0.00000000000E+00 0. -1.
         -4    1    3    3    0  502  0.29501908767E+03 -0.95894860843E+02  0.15749215877E+03  0.34790209327E+03  0.00000000000E+00 0.  1.
         13    1    5    5    0    0 -0.14355692766E+03 -0.34532952484E+02 -0.70162515954E+02  0.16347444733E+03  0.00000000000E+00 0.  1.
        -13    1    5    5    0    0 -0.36583877084E+03  0.64396779248E+02 -0.20388871305E+03  0.42373996594E+03  0.00000000000E+00 0. -1.
          2    1    6    6  503    0 -0.40207404997E+03  0.29504853152E+03 -0.70121222731E+03  0.86047415146E+03  0.00000000000E+00 0.  1.
         -2    1    6    6    0  503 -0.43885406474E+03  0.21043205561E+03 -0.66346036562E+03  0.82283303100E+03  0.00000000000E+00 0. -1.
<mgrwt>
<rscale>  0 0.14789439E+04</rscale>
<asrwt>0</asrwt>
<pdfrwt beam="1">  1        2 0.37689641E+00 0.14789439E+04</pdfrwt>
<pdfrwt beam="2">  1       -2 0.21312893E+00 0.14789439E+04</pdfrwt>
<totfact> 0.38287362E-01</totfact>
</mgrwt>
</event>
<event>
12    1  0.1911481E-007  0.7274904E+03  0.7818608E-02  0.9671341E-01
         -1   -1    0    0    0  501 -0.00000000000E+00  0.00000000000E+00  0.34586731943E+03  0.34586731943E+03  0.00000000000E+00 0.  1.
          1   -1    0    0  501    0  0.00000000000E+00 -0.00000000000E+00 -0.16621694558E+04  0.16621694558E+04  0.00000000000E+00 0. -1.
         23    2    1    2    0    0  0.42534122844E+02  0.63248386133E+03 -0.53640338908E+03  0.83732842615E+03  0.10744910876E+03 0.  0.
    5000000    2    1    2    0    0 -0.42534122844E+02 -0.63248386133E+03 -0.77989874729E+03  0.11707083491E+04  0.60039236849E+03 0.  0.
         23    2    4    4    0    0  0.18874701177E+02 -0.71106885706E+03 -0.54977357829E+03  0.90362008130E+03  0.91121293492E+02 0.  0.
         23    2    4    4    0    0 -0.61408824020E+02  0.78584995726E+02 -0.23012516900E+03  0.26708826778E+03  0.91825400405E+02 0.  0.
          1    1    3    3  502    0  0.78756292778E+02  0.44211333784E+03 -0.38128891217E+03  0.58910779293E+03  0.00000000000E+00 0. -1.
         -1    1    3    3    0  502 -0.36222169934E+02  0.19037052349E+03 -0.15511447691E+03  0.24822063322E+03  0.00000000000E+00 0.  1.
         11    1    5    5    0    0 -0.10261444290E+02 -0.34660828980E+03 -0.21581475477E+03  0.40843434255E+03  0.00000000000E+00 0. -1.
        -11    1    5    5    0    0  0.29136145467E+02 -0.36446056725E+03 -0.33395882352E+03  0.49518573875E+03  0.00000000000E+00 0.  1.
          3    1    6    6  503    0 -0.53688470894E+02  0.69254146918E+02 -0.87101118875E+02  0.12355239246E+03  0.00000000000E+00 0. -1.
         -3    1    6    6    0  503 -0.77203531260E+01  0.93308488072E+01 -0.14302405012E+03  0.14353587532E+03  0.00000000000E+00 0.  1.
<mgrwt>
<rscale>  0 0.72749043E+03</rscale>
<asrwt>0</asrwt>
<pdfrwt beam="1">  1        1 0.25571838E+00 0.72749043E+03</pdfrwt>
<pdfrwt beam="2">  1       -1 0.53210357E-01 0.72749043E+03</pdfrwt>
<totfact> 0.18744127E+01</totfact>
</mgrwt>
</event>
<event>
12    1  0.1444206E-007  0.3930494E+03  0.7818608E-02  0.1046213E+00
         -1   -1    0    0    0  501 -0.00000000000E+00  0.00000000000E+00  0.21461631643E+03  0.21461631643E+03  0.00000000000E+00 0.  1.
          1   -1    0    0  501    0  0.00000000000E+00 -0.00000000000E+00 -0.12894126822E+04  0.12894126822E+04  0.00000000000E+00 0. -1.
         23    2    1    2    0    0  0.15419410031E+03 -0.29416615967E+03 -0.22153047688E+03  0.40937771946E+03  0.90580433524E+02 0.  0.
    5000000    2    1    2    0    0 -0.15419410031E+03  0.29416615967E+03 -0.85326588889E+03  0.10946512792E+04  0.59990765604E+03 0.  0.
         23    2    4    4    0    0 -0.12012593970E+02  0.27753372992E+03 -0.87239824436E+03  0.91982783274E+03  0.88517068804E+02 0.  0.
         23    2    4    4    0    0 -0.14218150634E+03  0.16632429746E+02  0.19132355466E+02  0.17482344643E+03  0.98513815934E+02 0.  0.
          4    1    3    3  502    0  0.15052609208E+03 -0.25605227160E+03 -0.22243495937E+03  0.37107705580E+03  0.00000000000E+00 0. -1.
         -4    1    3    3    0  502  0.36680082330E+01 -0.38113888069E+02  0.90448249752E+00  0.38300663659E+02  0.00000000000E+00 0.  1.
         13    1    5    5    0    0  0.59334414521E+01  0.12082527795E+03 -0.24965798721E+03  0.27742217665E+03  0.00000000000E+00 0.  1.
        -13    1    5    5    0    0 -0.17946035422E+02  0.15670845197E+03 -0.62274025715E+03  0.64240565609E+03  0.00000000000E+00 0. -1.
          3    1    6    6  503    0 -0.12697235523E+03 -0.23534724933E+02  0.37101563192E+01  0.12918834131E+03  0.00000000000E+00 0. -1.
         -3    1    6    6    0  503 -0.15209151112E+02  0.40167154679E+02  0.15422199147E+02  0.45635105117E+02  0.00000000000E+00 0.  1.
<mgrwt>
<rscale>  0 0.39304938E+03</rscale>
<asrwt>0</asrwt>
<pdfrwt beam="1">  1        1 0.19837118E+00 0.39304938E+03</pdfrwt>
<pdfrwt beam="2">  1       -1 0.33017895E-01 0.39304938E+03</pdfrwt>
<totfact> 0.84776330E+01</totfact>
</mgrwt>
</event>
<event>
12    1  0.1444206E-007  0.1181120E+04  0.7818608E-02  0.9129544E-01
          2   -1    0    0  501    0  0.00000000000E+00  0.00000000000E+00  0.14199240825E+04  0.14199240825E+04  0.00000000000E+00 0. -1.
         -2   -1    0    0    0  501 -0.00000000000E+00 -0.00000000000E+00 -0.10174712557E+04  0.10174712557E+04  0.00000000000E+00 0.  1.
         23    2    1    2    0    0 -0.80265662261E+02 -0.11062374509E+04 -0.29249413551E+01  0.11128126104E+04  0.90219046407E+02 0.  0.
    5000000    2    1    2    0    0  0.80265662261E+02  0.11062374509E+04  0.40537776818E+03  0.13245827278E+04  0.59998699442E+03 0.  0.
         23    2    4    4    0    0  0.21071820847E+03  0.12460850747E+03  0.13156073622E+03  0.29307416234E+03  0.93031144262E+02 0.  0.
         23    2    4    4    0    0 -0.13045254621E+03  0.98162894340E+03  0.27381703196E+03  0.10315085654E+04  0.91765484785E+02 0.  0.
          1    1    3    3  502    0 -0.74402893054E+02 -0.76178985862E+03 -0.39153484627E+02  0.76641540600E+03  0.00000000000E+00 0. -1.
         -1    1    3    3    0  502 -0.58627692070E+01 -0.34444759226E+03  0.36228543272E+02  0.34639720441E+03  0.00000000000E+00 0.  1.
         11    1    5    5    0    0  0.54336877336E+02 -0.61520542848E+01  0.48012137392E+02  0.72770250428E+02  0.00000000000E+00 0.  1.
        -11    1    5    5    0    0  0.15638133113E+03  0.13076056176E+03  0.83548598831E+02  0.22030391191E+03  0.00000000000E+00 0. -1.
          3    1    6    6  503    0 -0.21179383941E+02  0.47716773662E+03  0.15099526733E+03  0.50093630925E+03  0.00000000000E+00 0. -1.
         -3    1    6    6    0  503 -0.10927316227E+03  0.50446120679E+03  0.12282176463E+03  0.53057225617E+03  0.00000000000E+00 0.  1.
<mgrwt>
<rscale>  0 0.11811204E+04</rscale>
<asrwt>0</asrwt>
<pdfrwt beam="1">  1        2 0.21844986E+00 0.11811204E+04</pdfrwt>
<pdfrwt beam="2">  1       -2 0.15653404E+00 0.11811204E+04</pdfrwt>
<totfact> 0.36680737E+00</totfact>
</mgrwt>
</event>
<event>
12    1  0.1444206E-007  0.9545543E+03  0.7818608E-02  0.9359843E-01
         -1   -1    0    0    0  501 -0.00000000000E+00  0.00000000000E+00  0.34748125736E+03  0.34748125736E+03  0.00000000000E+00 0.  1.
          1   -1    0    0  501    0  0.00000000000E+00 -0.00000000000E+00 -0.29807528309E+04  0.29807528309E+04  0.00000000000E+00 0. -1.
         23    2    1    2    0    0  0.28262571497E+03  0.81658724906E+03 -0.65808875590E+03  0.10903505868E+04  0.95349679108E+02 0.  0.
    5000000    2    1    2    0    0 -0.28262571497E+03 -0.81658724906E+03 -0.19751828176E+04  0.22378835015E+04  0.60006947358E+03 0.  0.
         23    2    4    4    0    0 -0.45229571156E+03 -0.56418932680E+03 -0.14788367935E+04  0.16487319071E+04  0.92074060931E+02 0.  0.
         23    2    4    4    0    0  0.16966999659E+03 -0.25239792226E+03 -0.49634602415E+03  0.58915159436E+03  0.90816334112E+02 0.  0.
          3    1    3    3  502    0  0.10886653360E+03  0.19141396310E+03 -0.15482148249E+03  0.26918565869E+03  0.00000000000E+00 0. -1.
         -3    1    3    3    0  502  0.17375918138E+03  0.62517328597E+03 -0.50326727341E+03  0.82116492807E+03  0.00000000000E+00 0.  1.
         13    1    5    5    0    0 -0.53021124998E+02 -0.77414102970E+02 -0.13134887692E+03  0.16142091099E+03  0.00000000000E+00 0. -1.
        -13    1    5    5    0    0 -0.39927458656E+03 -0.48677522383E+03 -0.13474879165E+04  0.14873109961E+04  0.00000000000E+00 0.  1.
          4    1    6    6  503    0  0.83684220460E+02 -0.19777611848E+03 -0.31698224989E+03  0.38287881705E+03  0.00000000000E+00 0. -1.
         -4    1    6    6    0  503  0.85985776128E+02 -0.54621803782E+02 -0.17936377425E+03  0.20627277731E+03  0.00000000000E+00 0.  1.
<mgrwt>
<rscale>  0 0.95455432E+03</rscale>
<asrwt>0</asrwt>
<pdfrwt beam="1">  1        1 0.45857737E+00 0.95455432E+03</pdfrwt>
<pdfrwt beam="2">  1       -1 0.53458654E-01 0.95455432E+03</pdfrwt>
<totfact> 0.22553463E+00</totfact>
</mgrwt>
</event>
<event>
12    1  0.1444206E-007  0.6153411E+03  0.7818608E-02  0.9874080E-01
          1   -1    0    0  501    0  0.00000000000E+00  0.00000000000E+00  0.12190770116E+04  0.12190770116E+04  0.00000000000E+00 0. -1.
         -1   -1    0    0    0  501 -0.00000000000E+00 -0.00000000000E+00 -0.48821689122E+03  0.48821689122E+03  0.00000000000E+00 0.  1.
         23    2    1    2    0    0 -0.46766987587E+03 -0.16133607644E+03  0.78131540856E+03  0.92794771131E+03  0.76738158193E+02 0.  0.
    5000000    2    1    2    0    0  0.46766987587E+03  0.16133607644E+03 -0.50455288223E+02  0.77934619146E+03  0.60007525168E+03 0.  0.
         23    2    4    4    0    0  0.15119438885E+03 -0.18778161276E+03  0.98984167715E+02  0.27642035332E+03  0.92133972880E+02 0.  0.
         23    2    4    4    0    0  0.31647548702E+03  0.34911768920E+03 -0.14943945594E+03  0.50292583814E+03  0.92532982673E+02 0.  0.
          3    1    3    3  502    0 -0.33930324447E+03 -0.14664801682E+03  0.61199172999E+03  0.71495888701E+03  0.00000000000E+00 0. -1.
         -3    1    3    3    0  502 -0.12836663140E+03 -0.14688059626E+02  0.16932367857E+03  0.21298882431E+03  0.00000000000E+00 0.  1.
         11    1    5    5    0    0  0.83943753758E+02 -0.48402216691E+02  0.68565497243E+02  0.11870364690E+03  0.00000000000E+00 0. -1.
        -11    1    5    5    0    0  0.67250635094E+02 -0.13937939607E+03  0.30418670472E+02  0.15771670642E+03  0.00000000000E+00 0.  1.
          4    1    6    6  503    0  0.57581926183E+02  0.12553435240E+03 -0.45301491074E+02  0.14535053130E+03  0.00000000000E+00 0.  1.
         -4    1    6    6    0  503  0.25889356084E+03  0.22358333680E+03 -0.10413796486E+03  0.35757530684E+03  0.00000000000E+00 0. -1.
<mgrwt>
<rscale>  0 0.61534107E+03</rscale>
<asrwt>0</asrwt>
<pdfrwt beam="1">  1        1 0.18755031E+00 0.61534107E+03</pdfrwt>
<pdfrwt beam="2">  1       -1 0.75110291E-01 0.61534107E+03</pdfrwt>
<totfact> 0.19391930E+01</totfact>
</mgrwt>
</event>
<event>
12    1  0.1444206E-007  0.6284168E+03  0.7818608E-02  0.9848143E-01
         -1   -1    0    0    0  501 -0.00000000000E+00  0.00000000000E+00  0.12438653982E+04  0.12438653982E+04  0.00000000000E+00 0.  1.
          1   -1    0    0  501    0  0.00000000000E+00 -0.00000000000E+00 -0.98878918810E+03  0.98878918810E+03  0.00000000000E+00 0. -1.
         23    2    1    2    0    0  0.45603219903E+03 -0.22940637707E+03 -0.77710393307E+03  0.93430815321E+03  0.91915994097E+02 0.  0.
    5000000    2    1    2    0    0 -0.45603219903E+03  0.22940637707E+03  0.10321801432E+04  0.12983464331E+04  0.59976241961E+03 0.  0.
         23    2    4    4    0    0 -0.34870844209E+01 -0.14495765224E+03  0.12145159236E+03  0.21088910918E+03  0.93267606281E+02 0.  0.
         23    2    4    4    0    0 -0.45254511461E+03  0.37436402930E+03  0.91072855084E+03  0.10874573239E+04  0.90506524039E+02 0.  0.
          2    1    3    3  502    0  0.18296601064E+03 -0.14303605978E+03 -0.35448803883E+03  0.42378962366E+03  0.00000000000E+00 0. -1.
         -2    1    3    3    0  502  0.27306618839E+03 -0.86370317281E+02 -0.42261589424E+03  0.51051852955E+03  0.00000000000E+00 0.  1.
         13    1    5    5    0    0 -0.98132556718E+01 -0.88877729448E+02  0.12573837197E+03  0.15429092314E+03  0.00000000000E+00 0. -1.
        -13    1    5    5    0    0  0.63261712509E+01 -0.56079922789E+02 -0.42867796065E+01  0.56598186032E+02  0.00000000000E+00 0.  1.
          2    1    6    6  503    0 -0.30770293351E+03  0.20623859654E+03  0.61102254938E+03  0.71453761961E+03  0.00000000000E+00 0. -1.
         -2    1    6    6    0  503 -0.14484218110E+03  0.16812543276E+03  0.29970600146E+03  0.37291970433E+03  0.00000000000E+00 0.  1.
<mgrwt>
<rscale>  0 0.62841680E+03</rscale>
<asrwt>0</asrwt>
<pdfrwt beam="1">  1        1 0.15212141E+00 0.62841680E+03</pdfrwt>
<pdfrwt beam="2">  1       -1 0.19136391E+00 0.62841680E+03</pdfrwt>
<totfact> 0.28425676E+00</totfact>
</mgrwt>
</event>
<event>
12    1  0.1444206E-007  0.4245458E+03  0.7818608E-02  0.1035597E+00
          2   -1    0    0  501    0  0.00000000000E+00  0.00000000000E+00  0.71088726642E+03  0.71088726642E+03  0.00000000000E+00 0. -1.
         -2   -1    0    0    0  501 -0.00000000000E+00 -0.00000000000E+00 -0.29262618379E+03  0.29262618379E+03  0.00000000000E+00 0.  1.
         23    2    1    2    0    0 -0.21137101917E+03 -0.76124329878E+02  0.22974565652E+03  0.33569487006E+03  0.97135769678E+02 0.  0.
    5000000    2    1    2    0    0  0.21137101917E+03  0.76124329878E+02  0.18851542611E+03  0.66781858015E+03  0.59997580682E+03 0.  0.
         23    2    4    4    0    0 -0.98474252710E+02 -0.18231586007E+03  0.40149065433E+02  0.22932527757E+03  0.89676553220E+02 0.  0.
         23    2    4    4    0    0  0.30984527188E+03  0.25844018995E+03  0.14836636068E+03  0.43849330258E+03  0.86419761287E+02 0.  0.
          2    1    3    3  502    0 -0.48777095277E+02 -0.25261320997E+02  0.12285090485E+03  0.13457222665E+03  0.00000000000E+00 0. -1.
         -2    1    3    3    0  502 -0.16259392389E+03 -0.50863008881E+02  0.10689475167E+03  0.20112264341E+03  0.00000000000E+00 0.  1.
         11    1    5    5    0    0 -0.87313994428E+02 -0.99602201589E+02  0.56964735515E+02  0.14418499671E+03  0.00000000000E+00 0. -1.
        -11    1    5    5    0    0 -0.11160258282E+02 -0.82713658484E+02 -0.16815670082E+02  0.85140280860E+02  0.00000000000E+00 0.  1.
          4    1    6    6  503    0  0.10318725971E+03  0.12409606342E+03  0.91522615236E+02  0.18553660723E+03  0.00000000000E+00 0. -1.
         -4    1    6    6    0  503  0.20665801217E+03  0.13434412653E+03  0.56843745444E+02  0.25295669535E+03  0.00000000000E+00 0.  1.
<mgrwt>
<rscale>  0 0.42454580E+03</rscale>
<asrwt>0</asrwt>
<pdfrwt beam="1">  1        2 0.10936727E+00 0.42454580E+03</pdfrwt>
<pdfrwt beam="2">  1       -2 0.45019413E-01 0.42454580E+03</pdfrwt>
<totfact> 0.19376018E+02</totfact>
</mgrwt>
</event>
<event>
12    1  0.1444206E-007  0.9454485E+03  0.7818608E-02  0.9370486E-01
          1   -1    0    0  501    0  0.00000000000E+00  0.00000000000E+00  0.16823908762E+04  0.16823908762E+04  0.00000000000E+00 0. -1.
         -1   -1    0    0    0  501 -0.00000000000E+00 -0.00000000000E+00 -0.60406796619E+03  0.60406796619E+03  0.00000000000E+00 0.  1.
         23    2    1    2    0    0 -0.46289059927E+03 -0.72267810325E+03  0.13148397294E+03  0.87458166777E+03  0.10523169990E+03 0.  0.
    5000000    2    1    2    0    0  0.46289059927E+03  0.72267810325E+03  0.94683893711E+03  0.14118771747E+04  0.60030145401E+03 0.  0.
         23    2    4    4    0    0  0.37604931980E+03  0.94091424784E+02  0.45225585884E+03  0.60225088828E+03  0.88907161873E+02 0.  0.
         23    2    4    4    0    0  0.86841279465E+02  0.62858667846E+03  0.49458307827E+03  0.80962628638E+03  0.90662462609E+02 0.  0.
          4    1    3    3  502    0 -0.51586684323E+02 -0.12130942066E+03 -0.10739286425E+02  0.13225919179E+03  0.00000000000E+00 0.  1.
         -4    1    3    3    0  502 -0.41130391494E+03 -0.60136868259E+03  0.14222325936E+03  0.74232247598E+03  0.00000000000E+00 0. -1.
         11    1    5    5    0    0  0.35565398766E+03  0.76719852125E+02  0.38432096196E+03  0.52922424023E+03  0.00000000000E+00 0. -1.
        -11    1    5    5    0    0  0.20395332137E+02  0.17371572659E+02  0.67934896884E+02  0.73026648042E+02  0.00000000000E+00 0.  1.
          4    1    6    6  503    0  0.21929985913E+02  0.43785349119E+03  0.36078658316E+03  0.56777069545E+03  0.00000000000E+00 0.  1.
         -4    1    6    6    0  503  0.64911293552E+02  0.19073318728E+03  0.13379649511E+03  0.24185559093E+03  0.00000000000E+00 0. -1.
<mgrwt>
<rscale>  0 0.94544848E+03</rscale>
<asrwt>0</asrwt>
<pdfrwt beam="1">  1        1 0.25882936E+00 0.94544848E+03</pdfrwt>
<pdfrwt beam="2">  1       -1 0.92933534E-01 0.94544848E+03</pdfrwt>
<totfact> 0.55912451E+00</totfact>
</mgrwt>
</event>
<event>
12    1  0.1444206E-007  0.6504608E+03  0.7818608E-02  0.9805915E-01
         -2   -1    0    0    0  501 -0.00000000000E+00  0.00000000000E+00  0.10250979037E+04  0.10250979037E+04  0.00000000000E+00 0.  1.
          2   -1    0    0  501    0  0.00000000000E+00 -0.00000000000E+00 -0.61242053961E+03  0.61242053961E+03  0.00000000000E+00 0. -1.
         23    2    1    2    0    0  0.20392604986E+03 -0.59886750851E+03  0.42131779338E+03  0.76561726331E+03  0.91831281699E+02 0.  0.
    5000000    2    1    2    0    0 -0.20392604986E+03  0.59886750851E+03 -0.86404292962E+01  0.87190117999E+03  0.59992406527E+03 0.  0.
         23    2    4    4    0    0 -0.12483186146E+03  0.47138396291E+03 -0.26385390430E+03  0.56185688499E+03  0.90985945512E+02 0.  0.
         23    2    4    4    0    0 -0.79094188399E+02  0.12748354560E+03  0.25521347500E+03  0.31004429499E+03  0.92117327347E+02 0.  0.
          3    1    3    3  502    0  0.87290691038E+02 -0.29572417126E+03  0.25811257077E+03  0.40211260786E+03  0.00000000000E+00 0. -1.
         -3    1    3    3    0  502  0.11663535882E+03 -0.30314333725E+03  0.16320522260E+03  0.36350465544E+03  0.00000000000E+00 0.  1.
         13    1    5    5    0    0  0.51789589247E+01  0.70657715826E+02 -0.14537398013E+02  0.72323373554E+02  0.00000000000E+00 0.  1.
        -13    1    5    5    0    0 -0.13001082038E+03  0.40072624708E+03 -0.24931650628E+03  0.48953351144E+03  0.00000000000E+00 0. -1.
          4    1    6    6  503    0 -0.99848617181E+02  0.10936810893E+03  0.22248147854E+03  0.26726230167E+03  0.00000000000E+00 0. -1.
         -4    1    6    6    0  503  0.20754428781E+02  0.18115436672E+02  0.32731996465E+02  0.42781993320E+02  0.00000000000E+00 0.  1.
<mgrwt>
<rscale>  0 0.65046079E+03</rscale>
<asrwt>0</asrwt>
<pdfrwt beam="1">  1        2 0.94218545E-01 0.65046079E+03</pdfrwt>
<pdfrwt beam="2">  1       -2 0.15770737E+00 0.65046079E+03</pdfrwt>
<totfact> 0.13005030E+01</totfact>
</mgrwt>
</event>
<event>
12    1  0.1444206E-007  0.1913109E+04  0.7818608E-02  0.8648358E-01
          1   -1    0    0  501    0  0.00000000000E+00  0.00000000000E+00  0.18816284823E+04  0.18816284823E+04  0.00000000000E+00 0. -1.
         -1   -1    0    0    0  501 -0.00000000000E+00 -0.00000000000E+00 -0.20242666963E+04  0.20242666963E+04  0.00000000000E+00 0.  1.
         23    2    1    2    0    0  0.36625380996E+02 -0.18785091791E+04 -0.38098711314E+03  0.19192049501E+04  0.89768065740E+02 0.  0.
    5000000    2    1    2    0    0 -0.36625380996E+02  0.18785091791E+04  0.23834889916E+03  0.19866902284E+04  0.59999142625E+03 0.  0.
         23    2    4    4    0    0  0.21924843950E+03  0.54676793003E+03 -0.46282777370E+02  0.59803081381E+03  0.92052763379E+02 0.  0.
         23    2    4    4    0    0 -0.25587382050E+03  0.13317412491E+04  0.28463167653E+03  0.13886594146E+04  0.91398096779E+02 0.  0.
          1    1    3    3  502    0 -0.42398819935E+01 -0.13509817922E+04 -0.24679464048E+03  0.13733453222E+04  0.00000000000E+00 0. -1.
         -1    1    3    3    0  502  0.40865262990E+02 -0.52752738685E+03 -0.13419247266E+03  0.54585962785E+03  0.00000000000E+00 0.  1.
         13    1    5    5    0    0  0.26121633962E+02  0.93676479694E+02 -0.40810842312E+02  0.10546633330E+03  0.00000000000E+00 0.  1.
        -13    1    5    5    0    0  0.19312680554E+03  0.45309145034E+03 -0.54719350583E+01  0.49256448051E+03  0.00000000000E+00 0. -1.
          3    1    6    6  503    0 -0.23845343274E+03  0.12696991729E+04  0.28983207577E+03  0.13240085579E+04  0.00000000000E+00 0. -1.
         -3    1    6    6    0  503 -0.17420387755E+02  0.62042076141E+02 -0.52003992372E+01  0.64650856712E+02  0.00000000000E+00 0.  1.
<mgrwt>
<rscale>  0 0.19131092E+04</rscale>
<asrwt>0</asrwt>
<pdfrwt beam="1">  1        1 0.28948131E+00 0.19131092E+04</pdfrwt>
<pdfrwt beam="2">  1       -1 0.31142565E+00 0.19131092E+04</pdfrwt>
<totfact> 0.89886274E-02</totfact>
</mgrwt>
</event>
<event>
12    1  0.1444206E-007  0.4422949E+03  0.7818608E-02  0.1030045E+00
         -2   -1    0    0    0  501 -0.00000000000E+00  0.00000000000E+00  0.42543531209E+03  0.42543531209E+03  0.00000000000E+00 0.  1.
          2   -1    0    0  501    0  0.00000000000E+00 -0.00000000000E+00 -0.69368892191E+03  0.69368892191E+03  0.00000000000E+00 0. -1.
         23    2    1    2    0    0  0.30089060616E+03 -0.59324126608E+02  0.12012747900E+03  0.34134766264E+03  0.89627600126E+02 0.  0.
    5000000    2    1    2    0    0 -0.30089060616E+03  0.59324126608E+02 -0.38838108883E+03  0.77777657136E+03  0.60003501225E+03 0.  0.
         23    2    4    4    0    0 -0.35353179850E+03 -0.10403625188E+03 -0.43225915164E+02  0.38208887452E+03  0.91187466455E+02 0.  0.
         23    2    4    4    0    0  0.52641192335E+02  0.16336037849E+03 -0.34515517366E+03  0.39568769684E+03  0.89324974851E+02 0.  0.
          1    1    3    3  502    0  0.53881139953E+02 -0.47061250690E+02  0.36231577316E+02  0.80191431923E+02  0.00000000000E+00 0. -1.
         -1    1    3    3    0  502  0.24700946621E+03 -0.12262875919E+02  0.83895901687E+02  0.26115623072E+03  0.00000000000E+00 0.  1.
         13    1    5    5    0    0 -0.12442099516E+03 -0.64642987867E+02  0.18844522351E+02  0.14147231510E+03  0.00000000000E+00 0. -1.
        -13    1    5    5    0    0 -0.22911080334E+03 -0.39393264016E+02 -0.62070437515E+02  0.24061655943E+03  0.00000000000E+00 0.  1.
          4    1    6    6  503    0  0.26023941911E+02 -0.14899169707E+01 -0.56239988994E+02  0.61987109685E+02  0.00000000000E+00 0.  1.
         -4    1    6    6    0  503  0.26617250424E+02  0.16485029546E+03 -0.28891518467E+03  0.33370058715E+03  0.00000000000E+00 0. -1.
<mgrwt>
<rscale>  0 0.44229486E+03</rscale>
<asrwt>0</asrwt>
<pdfrwt beam="1">  1        2 0.10672137E+00 0.44229486E+03</pdfrwt>
<pdfrwt beam="2">  1       -2 0.65451587E-01 0.44229486E+03</pdfrwt>
<totfact> 0.92485346E+01</totfact>
</mgrwt>
</event>
<event>
12    1  0.1444206E-007  0.6219878E+03  0.7818608E-02  0.9860810E-01
          2   -1    0    0  501    0  0.00000000000E+00  0.00000000000E+00  0.22154831971E+04  0.22154831971E+04  0.00000000000E+00 0. -1.
         -2   -1    0    0    0  501 -0.00000000000E+00 -0.00000000000E+00 -0.20348159198E+03  0.20348159198E+03  0.00000000000E+00 0.  1.
         23    2    1    2    0    0  0.52310761558E+03  0.35005370833E+02  0.97996964849E+03  0.11150751729E+04  0.90471960913E+02 0.  0.
    5000000    2    1    2    0    0 -0.52310761558E+03 -0.35005370833E+02  0.10320319567E+04  0.13038896163E+04  0.60014266497E+03 0.  0.
         23    2    4    4    0    0 -0.50277024521E+03 -0.20566925085E+03  0.52412047786E+03  0.76003493968E+03  0.88730344385E+02 0.  0.
         23    2    4    4    0    0 -0.20337370378E+02  0.17066388002E+03  0.50791147882E+03  0.54385467658E+03  0.90906932327E+02 0.  0.
          2    1    3    3  502    0  0.10384815659E+03 -0.22329581551E+01  0.12834093230E+03  0.16510851169E+03  0.00000000000E+00 0. -1.
         -2    1    3    3    0  502  0.41925945899E+03  0.37238328988E+02  0.85162871619E+03  0.94996666118E+03  0.00000000000E+00 0.  1.
         13    1    5    5    0    0 -0.34988483840E+03 -0.13095804169E+03  0.41249248316E+03  0.55652444465E+03  0.00000000000E+00 0. -1.
        -13    1    5    5    0    0 -0.15288540680E+03 -0.74711209159E+02  0.11162799469E+03  0.20351049503E+03  0.00000000000E+00 0.  1.
          4    1    6    6  503    0  0.10158997806E+02  0.42033859325E+02  0.25335409289E+03  0.25701818408E+03  0.00000000000E+00 0. -1.
         -4    1    6    6    0  503 -0.30496368185E+02  0.12863002069E+03  0.25455738593E+03  0.28683649250E+03  0.00000000000E+00 0.  1.
<mgrwt>
<rscale>  0 0.62198780E+03</rscale>
<asrwt>0</asrwt>
<pdfrwt beam="1">  1        2 0.34084355E+00 0.62198780E+03</pdfrwt>
<pdfrwt beam="2">  1       -2 0.31304862E-01 0.62198780E+03</pdfrwt>
<totfact> 0.50433849E+01</totfact>
</mgrwt>
</event>
<event>
12    1  0.1444206E-007  0.3349578E+04  0.7818608E-02  0.8150394E-01
         -2   -1    0    0    0  501 -0.00000000000E+00  0.00000000000E+00  0.40181559640E+04  0.40181559640E+04  0.00000000000E+00 0.  1.
          2   -1    0    0  501    0  0.00000000000E+00 -0.00000000000E+00 -0.28144355785E+04  0.28144355785E+04  0.00000000000E+00 0. -1.
         23    2    1    2    0    0  0.15822837589E+04 -0.29289463442E+04  0.80792966427E+03  0.34269035890E+04  0.92570433853E+02 0.  0.
    5000000    2    1    2    0    0 -0.15822837589E+04  0.29289463442E+04  0.39579072114E+03  0.34056879535E+04  0.59975958549E+03 0.  0.
         23    2    4    4    0    0 -0.70513949255E+03  0.80387727308E+03  0.12402798436E+02  0.10731445504E+04  0.89694049877E+02 0.  0.
         23    2    4    4    0    0 -0.87714426634E+03  0.21250690711E+04  0.38338792270E+03  0.23325434030E+04  0.92042417484E+02 0.  0.
          4    1    3    3  502    0  0.62788808250E+03 -0.12565826078E+04  0.33154780153E+03  0.14433181351E+04  0.00000000000E+00 0. -1.
         -4    1    3    3    0  502  0.95439567639E+03 -0.16723637365E+04  0.47638186274E+03  0.19835854540E+04  0.00000000000E+00 0.  1.
         13    1    5    5    0    0 -0.66900817034E+03  0.76835951637E+03  0.30744705279E+02  0.10192612596E+04  0.00000000000E+00 0. -1.
        -13    1    5    5    0    0 -0.36131322217E+02  0.35517756713E+02 -0.18341906843E+02  0.53883290858E+02  0.00000000000E+00 0.  1.
          3    1    6    6  503    0 -0.22149803525E+03  0.48563361010E+03  0.12322706310E+03  0.54780132526E+03  0.00000000000E+00 0. -1.
         -3    1    6    6    0  503 -0.65564623110E+03  0.16394354610E+04  0.26016085960E+03  0.17847420778E+04  0.00000000000E+00 0.  1.
<mgrwt>
<rscale>  0 0.33495781E+04</rscale>
<asrwt>0</asrwt>
<pdfrwt beam="1">  1        2 0.43299009E+00 0.33495781E+04</pdfrwt>
<pdfrwt beam="2">  1       -2 0.61817784E+00 0.33495781E+04</pdfrwt>
<totfact> 0.74516792E-04</totfact>
</mgrwt>
</event>
<event>
12    1  0.1444206E-007  0.8173697E+03  0.7818608E-02  0.9535210E-01
         -1   -1    0    0    0  501 -0.00000000000E+00  0.00000000000E+00  0.11177139169E+04  0.11177139169E+04  0.00000000000E+00 0.  1.
          1   -1    0    0  501    0  0.00000000000E+00 -0.00000000000E+00 -0.72487275797E+03  0.72487275797E+03  0.00000000000E+00 0. -1.
         23    2    1    2    0    0  0.73053603694E+03 -0.62083969444E+02  0.49255326380E+03  0.88995458794E+03  0.10896389486E+03 0.  0.
    5000000    2    1    2    0    0 -0.73053603694E+03  0.62083969444E+02 -0.99712104885E+02  0.95263208692E+03  0.60002339007E+03 0.  0.
         23    2    4    4    0    0  0.34181692003E+02 -0.70665576128E+02 -0.12363018298E+03  0.17017412761E+03  0.86676408836E+02 0.  0.
         23    2    4    4    0    0 -0.76471772895E+03  0.13274954557E+03  0.23918078093E+02  0.78245795930E+03  0.96191147203E+02 0.  0.
          1    1    3    3  502    0  0.42543825355E+03 -0.68198370930E+02  0.23593094834E+03  0.49123531812E+03  0.00000000000E+00 0. -1.
         -1    1    3    3    0  502  0.30509778339E+03  0.61144014860E+01  0.25662231546E+03  0.39871926982E+03  0.00000000000E+00 0.  1.
         11    1    5    5    0    0  0.58130184191E+02 -0.21397520291E+02 -0.60436971965E+02  0.86542473786E+02  0.00000000000E+00 0. -1.
        -11    1    5    5    0    0 -0.23948492188E+02 -0.49268055836E+02 -0.63193211013E+02  0.83631653829E+02  0.00000000000E+00 0.  1.
          3    1    6    6  503    0 -0.14497721139E+03  0.63896702759E+02 -0.31194017013E+00  0.15843382768E+03  0.00000000000E+00 0. -1.
         -3    1    6    6    0  503 -0.61974051755E+03  0.68852842813E+02  0.24230018263E+02  0.62402413162E+03  0.00000000000E+00 0.  1.
<mgrwt>
<rscale>  0 0.81736968E+03</rscale>
<asrwt>0</asrwt>
<pdfrwt beam="1">  1        1 0.11151889E+00 0.81736968E+03</pdfrwt>
<pdfrwt beam="2">  1       -1 0.17195599E+00 0.81736968E+03</pdfrwt>
<totfact> 0.62983547E+00</totfact>
</mgrwt>
</event>
<event>
12    1  0.1444206E-007  0.3620907E+03  0.7818608E-02  0.1057759E+00
          1   -1    0    0  501    0  0.00000000000E+00  0.00000000000E+00  0.34817376045E+03  0.34817376045E+03  0.00000000000E+00 0. -1.
         -1   -1    0    0    0  501 -0.00000000000E+00 -0.00000000000E+00 -0.68807376902E+03  0.68807376902E+03  0.00000000000E+00 0.  1.
         23    2    1    2    0    0  0.17261602534E+03  0.19297260764E+03  0.44108229974E+02  0.27804949503E+03  0.91275770247E+02 0.  0.
    5000000    2    1    2    0    0 -0.17261602534E+03 -0.19297260764E+03 -0.38400823854E+03  0.75819803444E+03  0.60030593255E+03 0.  0.
         23    2    4    4    0    0  0.11562138101E+03 -0.86609854140E+02  0.87856598721E+02  0.18758518946E+03  0.81239465681E+02 0.  0.
         23    2    4    4    0    0 -0.28823740635E+03 -0.10636275350E+03 -0.47186483726E+03  0.57061284498E+03  0.92459485507E+02 0.  0.
          1    1    3    3  502    0  0.75293821444E+02  0.33226560247E+02  0.38623892720E+02  0.90911874595E+02  0.00000000000E+00 0. -1.
         -1    1    3    3    0  502  0.97322203894E+02  0.15974604739E+03  0.54843372548E+01  0.18713762044E+03  0.00000000000E+00 0.  1.
         13    1    5    5    0    0  0.65219269788E+02 -0.43051733502E+02  0.92157573637E+02  0.12083055610E+03  0.00000000000E+00 0.  1.
        -13    1    5    5    0    0  0.50402111224E+02 -0.43558120637E+02 -0.43009749165E+01  0.66754633356E+02  0.00000000000E+00 0. -1.
          2    1    6    6  503    0 -0.12930415022E+03 -0.25710506905E+02 -0.27554659188E+03  0.30546115583E+03  0.00000000000E+00 0. -1.
         -2    1    6    6    0  503 -0.15893325613E+03 -0.80652246595E+02 -0.19631824538E+03  0.26515168915E+03  0.00000000000E+00 0.  1.
<mgrwt>
<rscale>  0 0.36209069E+03</rscale>
<asrwt>0</asrwt>
<pdfrwt beam="1">  1        1 0.53565195E-01 0.36209069E+03</pdfrwt>
<pdfrwt beam="2">  1       -1 0.10585750E+00 0.36209069E+03</pdfrwt>
<totfact> 0.63937687E+01</totfact>
</mgrwt>
</event>
<event>
12    1  0.1444206E-007  0.8929957E+03  0.7818608E-02  0.9434380E-01
          2   -1    0    0  501    0  0.00000000000E+00  0.00000000000E+00  0.63554418105E+03  0.63554418105E+03  0.00000000000E+00 0. -1.
         -2   -1    0    0    0  501 -0.00000000000E+00 -0.00000000000E+00 -0.20836967725E+04  0.20836967725E+04  0.00000000000E+00 0.  1.
         23    2    1    2    0    0 -0.78180818596E+03  0.40185792059E+03 -0.13980316500E+04  0.16538326392E+04  0.89196838626E+02 0.  0.
    5000000    2    1    2    0    0  0.78180818596E+03 -0.40185792059E+03 -0.50120941491E+02  0.10654083144E+04  0.59989077313E+03 0.  0.
         23    2    4    4    0    0  0.66216148682E+03 -0.27927898129E+03 -0.26848604734E+03  0.77349123223E+03  0.98738769965E+02 0.  0.
         23    2    4    4    0    0  0.11964669913E+03 -0.12257893931E+03  0.21836510585E+03  0.29191708220E+03  0.90505991238E+02 0.  0.
          3    1    3    3  502    0 -0.74913528392E+02  0.39881980169E+02 -0.90988276729E+02  0.12442457788E+03  0.00000000000E+00 0. -1.
         -3    1    3    3    0  502 -0.70689465756E+03  0.36197594043E+03 -0.13070433733E+04  0.15294080613E+04  0.00000000000E+00 0.  1.
         13    1    5    5    0    0  0.20326410362E+03 -0.13292875462E+03 -0.72337079668E+02  0.25341468529E+03  0.00000000000E+00 0. -1.
        -13    1    5    5    0    0  0.45889738320E+03 -0.14635022667E+03 -0.19614896767E+03  0.52007654694E+03  0.00000000000E+00 0.  1.
          3    1    6    6  503    0 -0.26080910218E+01 -0.27242145476E+02  0.44446348090E+01  0.27725284625E+02  0.00000000000E+00 0. -1.
         -3    1    6    6    0  503  0.12225479015E+03 -0.95336793830E+02  0.21392047104E+03  0.26419179757E+03  0.00000000000E+00 0.  1.
<mgrwt>
<rscale>  0 0.89299574E+03</rscale>
<asrwt>0</asrwt>
<pdfrwt beam="1">  1        2 0.97776029E-01 0.89299574E+03</pdfrwt>
<pdfrwt beam="2">  1       -2 0.32056873E+00 0.89299574E+03</pdfrwt>
<totfact> 0.11243010E+00</totfact>
</mgrwt>
</event>
<event>
12    1  0.1444206E-007  0.6795579E+03  0.7818608E-02  0.9752844E-01
          2   -1    0    0  501    0  0.00000000000E+00  0.00000000000E+00  0.14894382732E+04  0.14894382732E+04  0.00000000000E+00 0. -1.
         -2   -1    0    0    0  501 -0.00000000000E+00 -0.00000000000E+00 -0.59495151414E+03  0.59495151414E+03  0.00000000000E+00 0.  1.
         23    2    1    2    0    0 -0.49639613844E+03 -0.33404818848E+03  0.10603717686E+04  0.12208816027E+04  0.90367481463E+02 0.  0.
    5000000    2    1    2    0    0  0.49639613844E+03  0.33404818848E+03 -0.16588500949E+03  0.86350818468E+03  0.60010934850E+03 0.  0.
         23    2    4    4    0    0  0.22146804813E+03 -0.88148891470E+02 -0.23527778586E+03  0.34710674588E+03  0.91154446441E+02 0.  0.
         23    2    4    4    0    0  0.27492809031E+03  0.42219707995E+03  0.69392776372E+02  0.51640143880E+03  0.89550317827E+02 0.  0.
          3    1    3    3  502    0 -0.29262313022E+03 -0.18685243221E+03  0.52480836188E+03  0.62925824942E+03  0.00000000000E+00 0. -1.
         -3    1    3    3    0  502 -0.20377300822E+03 -0.14719575628E+03  0.53556340669E+03  0.59162335327E+03  0.00000000000E+00 0.  1.
         13    1    5    5    0    0  0.78765829675E+02  0.13548648937E+02 -0.76770628208E+02  0.11082125774E+03  0.00000000000E+00 0. -1.
        -13    1    5    5    0    0  0.14270221846E+03 -0.10169754041E+03 -0.15850715765E+03  0.23628548814E+03  0.00000000000E+00 0.  1.
          1    1    6    6  503    0  0.20611357335E+03  0.34584872412E+03  0.21978632050E+02  0.40320863751E+03  0.00000000000E+00 0. -1.
         -1    1    6    6    0  503  0.68814516966E+02  0.76348355828E+02  0.47414144322E+02  0.11319280129E+03  0.00000000000E+00 0.  1.
<mgrwt>
<rscale>  0 0.67955789E+03</rscale>
<asrwt>0</asrwt>
<pdfrwt beam="1">  1        2 0.22914435E+00 0.67955789E+03</pdfrwt>
<pdfrwt beam="2">  1       -2 0.91531003E-01 0.67955789E+03</pdfrwt>
<totfact> 0.13526164E+01</totfact>
</mgrwt>
</event>
<event>
12    1  0.1444206E-007  0.7644289E+03  0.7818608E-02  0.9612982E-01
          2   -1    0    0  501    0  0.00000000000E+00  0.00000000000E+00  0.70916444473E+03  0.70916444473E+03  0.00000000000E+00 0. -1.
         -2   -1    0    0    0  501 -0.00000000000E+00 -0.00000000000E+00 -0.10604522820E+04  0.10604522820E+04  0.00000000000E+00 0.  1.
         23    2    1    2    0    0  0.65819809583E+03 -0.37078168238E+03 -0.69179062945E+02  0.76446902644E+03  0.94463539449E+02 0.  0.
    5000000    2    1    2    0    0 -0.65819809583E+03  0.37078168238E+03 -0.28210877431E+03  0.10051477003E+04  0.60002729062E+03 0.  0.
         23    2    4    4    0    0 -0.10321100820E+03  0.77474873968E+02  0.16730504603E+03  0.22786835591E+03  0.85312020762E+02 0.  0.
         23    2    4    4    0    0 -0.55498708763E+03  0.29330680841E+03 -0.44941382033E+03  0.77727934437E+03  0.90282035763E+02 0.  0.
          4    1    3    3  502    0  0.12138658326E+03 -0.10891959796E+03  0.93358183498E+00  0.16309216103E+03  0.00000000000E+00 0. -1.
         -4    1    3    3    0  502  0.53681151257E+03 -0.26186208443E+03 -0.70112644780E+02  0.60137686541E+03  0.00000000000E+00 0.  1.
         13    1    5    5    0    0 -0.25858260755E+02  0.88450204062E-01  0.90664332996E+02  0.94279789723E+02  0.00000000000E+00 0. -1.
        -13    1    5    5    0    0 -0.77352747448E+02  0.77386423764E+02  0.76640713032E+02  0.13358856618E+03  0.00000000000E+00 0.  1.
          1    1    6    6  503    0 -0.45208464877E+03  0.20014353751E+03 -0.36828234475E+03  0.61649805411E+03  0.00000000000E+00 0. -1.
         -1    1    6    6    0  503 -0.10290243886E+03  0.93163270910E+02 -0.81131475580E+02  0.16078129027E+03  0.00000000000E+00 0.  1.
<mgrwt>
<rscale>  0 0.76442890E+03</rscale>
<asrwt>0</asrwt>
<pdfrwt beam="1">  1        2 0.10910222E+00 0.76442890E+03</pdfrwt>
<pdfrwt beam="2">  1       -2 0.16314650E+00 0.76442890E+03</pdfrwt>
<totfact> 0.97674713E+00</totfact>
</mgrwt>
</event>
<event>
12    1  0.1444206E-007  0.3796871E+03  0.7818608E-02  0.1051049E+00
          2   -1    0    0  501    0  0.00000000000E+00  0.00000000000E+00  0.35278273893E+04  0.35278273893E+04  0.00000000000E+00 0. -1.
         -2   -1    0    0    0  501 -0.00000000000E+00 -0.00000000000E+00 -0.59165844488E+02  0.59165844488E+02  0.00000000000E+00 0.  1.
         23    2    1    2    0    0 -0.20709692935E+03 -0.12197595927E+03  0.75953559383E+03  0.80181436773E+03  0.90800271040E+02 0.  0.
    5000000    2    1    2    0    0  0.20709692935E+03  0.12197595927E+03  0.27091259510E+04  0.27851788661E+04  0.60007551596E+03 0.  0.
         23    2    4    4    0    0  0.14087395769E+03  0.27909431847E+03  0.76668520316E+03  0.83310664961E+03  0.92311312048E+02 0.  0.
         23    2    4    4    0    0  0.66222971660E+02 -0.15711835919E+03  0.19424407478E+04  0.19520722164E+04  0.91859777021E+02 0.  0.
          2    1    3    3  502    0 -0.12279642174E+03 -0.28019585331E+02  0.30267899681E+03  0.32783934094E+03  0.00000000000E+00 0.  1.
         -2    1    3    3    0  502 -0.84300507606E+02 -0.93956373943E+02  0.45685659701E+03  0.47397502679E+03  0.00000000000E+00 0. -1.
         13    1    5    5    0    0  0.95651517206E+02  0.15892253283E+03  0.55864274642E+03  0.58863172045E+03  0.00000000000E+00 0.  1.
        -13    1    5    5    0    0  0.45222440480E+02  0.12017178564E+03  0.20804245674E+03  0.24447492917E+03  0.00000000000E+00 0. -1.
          2    1    6    6  503    0  0.50203794564E+02 -0.18102542468E+02  0.48391448801E+03  0.48684838989E+03  0.00000000000E+00 0. -1.
         -2    1    6    6    0  503  0.16019177096E+02 -0.13901581673E+03  0.14585262598E+04  0.14652238266E+04  0.00000000000E+00 0.  1.
<mgrwt>
<rscale>  0 0.37968705E+03</rscale>
<asrwt>0</asrwt>
<pdfrwt beam="1">  1        2 0.54274251E+00 0.37968705E+03</pdfrwt>
<pdfrwt beam="2">  1       -2 0.91024404E-02 0.37968705E+03</pdfrwt>
<totfact> 0.72257133E+01</totfact>
</mgrwt>
</event>
<event>
12    1  0.1444206E-007  0.9703172E+03  0.7818608E-02  0.9341713E-01
          1   -1    0    0  501    0  0.00000000000E+00  0.00000000000E+00  0.75563499969E+03  0.75563499969E+03  0.00000000000E+00 0. -1.
         -1   -1    0    0    0  501 -0.00000000000E+00 -0.00000000000E+00 -0.13713658810E+04  0.13713658810E+04  0.00000000000E+00 0.  1.
         23    2    1    2    0    0  0.51338425694E+02 -0.92407037373E+03 -0.22408096005E+03  0.95654015802E+03  0.90637231258E+02 0.  0.
    5000000    2    1    2    0    0 -0.51338425694E+02  0.92407037373E+03 -0.39164992122E+03  0.11704607226E+04  0.60003912610E+03 0.  0.
         23    2    4    4    0    0  0.16065735282E+03  0.20797762573E+03 -0.30641070859E+03  0.41319968194E+03  0.88209846408E+02 0.  0.
         23    2    4    4    0    0 -0.21199577851E+03  0.71609274801E+03 -0.85239212629E+02  0.75726104068E+03  0.91910426541E+02 0.  0.
          4    1    3    3  502    0 -0.11714107258E+01 -0.12938890534E+03 -0.71755117001E+00  0.12939619743E+03  0.00000000000E+00 0. -1.
         -4    1    3    3    0  502  0.52509836420E+02 -0.79468146839E+03 -0.22336340888E+03  0.82714396060E+03  0.00000000000E+00 0.  1.
         13    1    5    5    0    0  0.68360783140E+02  0.81820897195E+02 -0.19154378276E+03  0.21921878706E+03  0.00000000000E+00 0.  1.
        -13    1    5    5    0    0  0.92296569678E+02  0.12615672853E+03 -0.11486692583E+03  0.19398089488E+03  0.00000000000E+00 0. -1.
          2    1    6    6  503    0 -0.12858537856E+03  0.56354678075E+03 -0.77783633754E+02  0.58324048844E+03  0.00000000000E+00 0. -1.
         -2    1    6    6    0  503 -0.83410399950E+02  0.15254596726E+03 -0.74555788755E+01  0.17402055224E+03  0.00000000000E+00 0.  1.
<mgrwt>
<rscale>  0 0.97031716E+03</rscale>
<asrwt>0</asrwt>
<pdfrwt beam="1">  1        1 0.11625154E+00 0.97031716E+03</pdfrwt>
<pdfrwt beam="2">  1       -1 0.21097936E+00 0.97031716E+03</pdfrwt>
<totfact> 0.30903418E+00</totfact>
</mgrwt>
</event>
<event>
12    1  0.1444206E-007  0.4122494E+03  0.7818608E-02  0.1039619E+00
          1   -1    0    0  501    0  0.00000000000E+00  0.00000000000E+00  0.11783990185E+04  0.11783990185E+04  0.00000000000E+00 0. -1.
         -1   -1    0    0    0  501 -0.00000000000E+00 -0.00000000000E+00 -0.58063525870E+03  0.58063525870E+03  0.00000000000E+00 0.  1.
         23    2    1    2    0    0  0.15259382772E+03 -0.11188252307E+03  0.99192367652E+03  0.10166143921E+04  0.11742941223E+03 0.  0.
    5000000    2    1    2    0    0 -0.15259382772E+03  0.11188252307E+03 -0.39415991674E+03  0.74241988514E+03  0.60001889192E+03 0.  0.
         23    2    4    4    0    0  0.17411214680E+03 -0.99031595544E+02 -0.75005880064E+02  0.23226065465E+03  0.90536363284E+02 0.  0.
         23    2    4    4    0    0 -0.32670597452E+03  0.21091411861E+03 -0.31915403668E+03  0.51015923048E+03  0.84744215741E+02 0.  0.
          3    1    3    3  502    0  0.98895172098E+02 -0.35317423967E+00  0.43489234627E+03  0.44599521594E+03  0.00000000000E+00 0. -1.
         -3    1    3    3    0  502  0.53698655623E+02 -0.11152934883E+03  0.55703133025E+03  0.57061917612E+03  0.00000000000E+00 0.  1.
         13    1    5    5    0    0  0.79806473967E+02 -0.85482888903E+02 -0.71190145829E+02  0.13691031534E+03  0.00000000000E+00 0. -1.
        -13    1    5    5    0    0  0.94305672834E+02 -0.13548706640E+02 -0.38157342349E+01  0.95350339318E+02  0.00000000000E+00 0.  1.
          1    1    6    6  503    0 -0.13757549146E+03  0.74929935811E+02 -0.18079792323E+03  0.23922667112E+03  0.00000000000E+00 0. -1.
         -1    1    6    6    0  503 -0.18913048306E+03  0.13598418280E+03 -0.13835611345E+03  0.27093255936E+03  0.00000000000E+00 0.  1.
<mgrwt>
<rscale>  0 0.41224939E+03</rscale>
<asrwt>0</asrwt>
<pdfrwt beam="1">  1        1 0.18129216E+00 0.41224939E+03</pdfrwt>
<pdfrwt beam="2">  1       -1 0.89328502E-01 0.41224939E+03</pdfrwt>
<totfact> 0.14939408E+01</totfact>
</mgrwt>
</event>
<event>
12    1  0.1444206E-007  0.4050380E+03  0.7818608E-02  0.1042049E+00
         -1   -1    0    0    0  501 -0.00000000000E+00  0.00000000000E+00  0.13608104979E+03  0.13608104979E+03  0.00000000000E+00 0.  1.
          1   -1    0    0  501    0  0.00000000000E+00 -0.00000000000E+00 -0.14846369026E+04  0.14846369026E+04  0.00000000000E+00 0. -1.
         23    2    1    2    0    0 -0.20220524708E+03 -0.75339242048E+02 -0.20794507191E+03  0.31392555643E+03  0.93515446360E+02 0.  0.
    5000000    2    1    2    0    0  0.20220524708E+03  0.75339242048E+02 -0.11406107809E+04  0.13067923960E+04  0.60012536132E+03 0.  0.
         23    2    4    4    0    0  0.31649144195E+03  0.22394316929E+03 -0.53078543869E+03  0.66327943657E+03  0.88820342019E+02 0.  0.
         23    2    4    4    0    0 -0.11428619487E+03 -0.14860392724E+03 -0.60982534224E+03  0.64351295942E+03  0.84127993971E+02 0.  0.
          1    1    3    3  502    0 -0.55284704812E+02 -0.34862822687E+02 -0.13263998699E+02  0.66691443629E+02  0.00000000000E+00 0. -1.
         -1    1    3    3    0  502 -0.14692054227E+03 -0.40476419360E+02 -0.19468107321E+03  0.24723411280E+03  0.00000000000E+00 0.  1.
         13    1    5    5    0    0  0.98175200627E+02  0.22636338981E+02 -0.13851042911E+03  0.17127729807E+03  0.00000000000E+00 0.  1.
        -13    1    5    5    0    0  0.21831624132E+03  0.20130683031E+03 -0.39227500957E+03  0.49200213850E+03  0.00000000000E+00 0. -1.
          1    1    6    6  503    0 -0.10542088195E+03 -0.10034313200E+03 -0.34932024254E+03  0.37842692602E+03  0.00000000000E+00 0. -1.
         -1    1    6    6    0  503 -0.88653129178E+01 -0.48260795241E+02 -0.26050509971E+03  0.26508603340E+03  0.00000000000E+00 0.  1.
<mgrwt>
<rscale>  0 0.40503803E+03</rscale>
<asrwt>0</asrwt>
<pdfrwt beam="1">  1        1 0.22840566E+00 0.40503803E+03</pdfrwt>
<pdfrwt beam="2">  1       -1 0.20935548E-01 0.40503803E+03</pdfrwt>
<totfact> 0.13473842E+02</totfact>
</mgrwt>
</event>
<event>
12    1  0.1444206E-007  0.5557035E+03  0.7818608E-02  0.1000182E+00
          1   -1    0    0  501    0  0.00000000000E+00  0.00000000000E+00  0.13780109055E+04  0.13780109055E+04  0.00000000000E+00 0. -1.
         -1   -1    0    0    0  501 -0.00000000000E+00 -0.00000000000E+00 -0.46603858810E+03  0.46603858810E+03  0.00000000000E+00 0.  1.
         23    2    1    2    0    0 -0.39378458892E+03  0.87284288700E+02 -0.24432191595E+03  0.48028599771E+03  0.91085627067E+02 0.  0.
    5000000    2    1    2    0    0  0.39378458892E+03 -0.87284288700E+02  0.11562942334E+04  0.13637634959E+04  0.60012471133E+03 0.  0.
         23    2    4    4    0    0  0.15145937197E+03  0.24009206871E+03  0.39045350642E+03  0.49140797824E+03  0.91889703356E+02 0.  0.
         23    2    4    4    0    0  0.24232521695E+03 -0.32737635741E+03  0.76584072698E+03  0.87235551770E+03  0.92711056540E+02 0.  0.
          4    1    3    3  502    0 -0.20525622624E+03  0.90496966146E+02 -0.11958858600E+03  0.25420709902E+03  0.00000000000E+00 0.  1.
         -4    1    3    3    0  502 -0.18852836269E+03 -0.32126774466E+01 -0.12473332995E+03  0.22607889869E+03  0.00000000000E+00 0. -1.
         13    1    5    5    0    0  0.14396606976E+03  0.18525329292E+03  0.26291087248E+03  0.35237357825E+03  0.00000000000E+00 0. -1.
        -13    1    5    5    0    0  0.74933022161E+01  0.54838775794E+02  0.12754263393E+03  0.13903439998E+03  0.00000000000E+00 0.  1.
          2    1    6    6  503    0  0.16660607274E+03 -0.24890906237E+03  0.47286549624E+03  0.55974555142E+03  0.00000000000E+00 0. -1.
         -2    1    6    6    0  503  0.75719144207E+02 -0.78467295047E+02  0.29297523074E+03  0.31260996628E+03  0.00000000000E+00 0.  1.
<mgrwt>
<rscale>  0 0.55570350E+03</rscale>
<asrwt>0</asrwt>
<pdfrwt beam="1">  1        1 0.21200168E+00 0.55570350E+03</pdfrwt>
<pdfrwt beam="2">  1       -1 0.71698245E-01 0.55570350E+03</pdfrwt>
<totfact> 0.16672243E+01</totfact>
</mgrwt>
</event>
<event>
12    1  0.1444206E-007  0.7273976E+03  0.7818608E-02  0.9671493E-01
         -2   -1    0    0    0  501 -0.00000000000E+00  0.00000000000E+00  0.28773549471E+03  0.28773549471E+03  0.00000000000E+00 0.  1.
          2   -1    0    0  501    0  0.00000000000E+00 -0.00000000000E+00 -0.21823651329E+04  0.21823651329E+04  0.00000000000E+00 0. -1.
         23    2    1    2    0    0 -0.59843514483E+03 -0.19670037744E+03 -0.11971927511E+04  0.13550686762E+04  0.78262206817E+02 0.  0.
    5000000    2    1    2    0    0  0.59843514483E+03  0.19670037744E+03 -0.69743688709E+03  0.11150319514E+04  0.60005198112E+03 0.  0.
         23    2    4    4    0    0  0.40427136555E+03 -0.12916978602E+03 -0.19035328901E+03  0.47513942652E+03  0.96968703061E+02 0.  0.
         23    2    4    4    0    0  0.19416377928E+03  0.32587016345E+03 -0.50708359808E+03  0.63989252485E+03  0.91857124410E+02 0.  0.
          4    1    3    3  502    0 -0.38588454331E+03 -0.89953652130E+02 -0.71707805189E+03  0.81926764418E+03  0.00000000000E+00 0.  1.
         -4    1    3    3    0  502 -0.21255060152E+03 -0.10674672531E+03 -0.48011469919E+03  0.53580103205E+03  0.00000000000E+00 0. -1.
         13    1    5    5    0    0  0.52640047335E+02  0.15322503175E+02 -0.30495139553E+02  0.62735215177E+02  0.00000000000E+00 0.  1.
        -13    1    5    5    0    0  0.35163131821E+03 -0.14449228919E+03 -0.15985814946E+03  0.41240421134E+03  0.00000000000E+00 0. -1.
          3    1    6    6  503    0  0.13603760519E+03  0.28134821280E+03 -0.44571534050E+03  0.54435761373E+03  0.00000000000E+00 0. -1.
         -3    1    6    6    0  503  0.58126174087E+02  0.44521950656E+02 -0.61368257584E+02  0.95534911122E+02  0.00000000000E+00 0.  1.
<mgrwt>
<rscale>  0 0.72739760E+03</rscale>
<asrwt>0</asrwt>
<pdfrwt beam="1">  1        2 0.33574850E+00 0.72739760E+03</pdfrwt>
<pdfrwt beam="2">  1       -2 0.44266997E-01 0.72739760E+03</pdfrwt>
<totfact> 0.26595546E+01</totfact>
</mgrwt>
</event>
<event>
12    1  0.1444206E-007  0.7718031E+03  0.7818608E-02  0.9601752E-01
          2   -1    0    0  501    0  0.00000000000E+00  0.00000000000E+00  0.85598300128E+03  0.85598300128E+03  0.00000000000E+00 0. -1.
         -2   -1    0    0    0  501 -0.00000000000E+00 -0.00000000000E+00 -0.86404914657E+03  0.86404914657E+03  0.00000000000E+00 0.  1.
         23    2    1    2    0    0 -0.12944453775E+03 -0.73993289095E+03 -0.44205825651E+02  0.75793495620E+03  0.90855221944E+02 0.  0.
    5000000    2    1    2    0    0  0.12944453775E+03  0.73993289095E+03  0.36139680359E+02  0.96209719165E+03  0.60005696248E+03 0.  0.
         23    2    4    4    0    0 -0.47738832555E+02  0.33041579658E+03 -0.24728337750E+03  0.42567682517E+03  0.92725918355E+02 0.  0.
         23    2    4    4    0    0  0.17718337031E+03  0.40951709436E+03  0.28342305786E+03  0.53642036647E+03  0.91213938351E+02 0.  0.
          2    1    3    3  502    0 -0.50843585486E+02 -0.16248323091E+03 -0.41139499475E+02  0.17515230209E+03  0.00000000000E+00 0.  1.
         -2    1    3    3    0  502 -0.78600952269E+02 -0.57744966004E+03 -0.30663261768E+01  0.58278265411E+03  0.00000000000E+00 0. -1.
         13    1    5    5    0    0 -0.26710354391E+02  0.70452437920E+02 -0.10299521037E+03  0.12761270470E+03  0.00000000000E+00 0. -1.
        -13    1    5    5    0    0 -0.21028478164E+02  0.25996335866E+03 -0.14428816713E+03  0.29806412048E+03  0.00000000000E+00 0.  1.
          2    1    6    6  503    0  0.10509809344E+03  0.33346379350E+03  0.20266934797E+03  0.40412692984E+03  0.00000000000E+00 0. -1.
         -2    1    6    6    0  503  0.72085276867E+02  0.76053300866E+02  0.80753709896E+02  0.13229343663E+03  0.00000000000E+00 0.  1.
<mgrwt>
<rscale>  0 0.77180314E+03</rscale>
<asrwt>0</asrwt>
<pdfrwt beam="1">  1        2 0.13168969E+00 0.77180314E+03</pdfrwt>
<pdfrwt beam="2">  1       -2 0.13293064E+00 0.77180314E+03</pdfrwt>
<totfact> 0.13073163E+01</totfact>
</mgrwt>
</event>
<event>
12    1  0.1444206E-007  0.6810775E+03  0.7818608E-02  0.9750151E-01
         -1   -1    0    0    0  501 -0.00000000000E+00  0.00000000000E+00  0.89193941578E+03  0.89193941578E+03  0.00000000000E+00 0.  1.
          1   -1    0    0  501    0  0.00000000000E+00 -0.00000000000E+00 -0.60369766789E+03  0.60369766789E+03  0.00000000000E+00 0. -1.
         23    2    1    2    0    0 -0.25825911727E+03 -0.49215554836E+03  0.36938113500E+03  0.67373129647E+03  0.92501791926E+02 0.  0.
    5000000    2    1    2    0    0  0.25825911727E+03  0.49215554836E+03 -0.81139387109E+02  0.82190578720E+03  0.60002555567E+03 0.  0.
         23    2    4    4    0    0 -0.13481251496E+02  0.51365746506E+03 -0.10985692585E+03  0.53318531877E+03  0.90511349769E+02 0.  0.
         23    2    4    4    0    0  0.27174036877E+03 -0.21501916697E+02  0.28717538742E+02  0.28872046843E+03  0.90717426232E+02 0.  0.
          1    1    3    3  502    0 -0.91401924101E+02 -0.27164699123E+03  0.17681679680E+03  0.33676487229E+03  0.00000000000E+00 0. -1.
         -1    1    3    3    0  502 -0.16685719317E+03 -0.22050855713E+03  0.19256433820E+03  0.33696642418E+03  0.00000000000E+00 0.  1.
         11    1    5    5    0    0 -0.50144178667E+02  0.36651537219E+03 -0.71637872747E+02  0.37680225785E+03  0.00000000000E+00 0. -1.
        -11    1    5    5    0    0  0.36662927171E+02  0.14714209287E+03 -0.38219053104E+02  0.15638306092E+03  0.00000000000E+00 0.  1.
          3    1    6    6  503    0  0.16448151558E+03  0.12430338317E+02 -0.19938124401E+02  0.16615116937E+03  0.00000000000E+00 0. -1.
         -3    1    6    6    0  503  0.10725885319E+03 -0.33932255014E+02  0.48655663143E+02  0.12256929906E+03  0.00000000000E+00 0.  1.
<mgrwt>
<rscale>  0 0.68107750E+03</rscale>
<asrwt>0</asrwt>
<pdfrwt beam="1">  1        1 0.92876564E-01 0.68107750E+03</pdfrwt>
<pdfrwt beam="2">  1       -1 0.13722145E+00 0.68107750E+03</pdfrwt>
<totfact> 0.15539768E+01</totfact>
</mgrwt>
</event>
<event>
12    1  0.1444206E-007  0.5475274E+03  0.7818608E-02  0.1002068E+00
         -2   -1    0    0    0  501 -0.00000000000E+00  0.00000000000E+00  0.89895324449E+03  0.89895324449E+03  0.00000000000E+00 0.  1.
          2   -1    0    0  501    0  0.00000000000E+00 -0.00000000000E+00 -0.13557084979E+04  0.13557084979E+04  0.00000000000E+00 0. -1.
         23    2    1    2    0    0  0.37514060642E+03  0.20681527784E+03  0.73421936972E+03  0.85409635712E+03  0.83063052195E+02 0.  0.
    5000000    2    1    2    0    0 -0.37514060642E+03 -0.20681527784E+03 -0.11909746231E+04  0.14005653853E+04  0.59971644282E+03 0.  0.
         23    2    4    4    0    0  0.72771284978E+02 -0.18857582547E+03 -0.67644955280E+03  0.71203978869E+03  0.92521139872E+02 0.  0.
         23    2    4    4    0    0 -0.44791189140E+03 -0.18239452372E+02 -0.51452507034E+03  0.68852559661E+03  0.91507972848E+02 0.  0.
          3    1    3    3  502    0  0.22349054877E+03  0.86919341509E+02  0.35432788484E+03  0.42784488696E+03  0.00000000000E+00 0. -1.
         -3    1    3    3    0  502  0.15165005765E+03  0.11989593633E+03  0.37989148488E+03  0.42625147016E+03  0.00000000000E+00 0.  1.
         13    1    5    5    0    0  0.24557475535E+02 -0.28387797010E+02 -0.26868378836E+03  0.27129304221E+03  0.00000000000E+00 0.  1.
        -13    1    5    5    0    0  0.48213809443E+02 -0.16018802846E+03 -0.40776576444E+03  0.44074674648E+03  0.00000000000E+00 0. -1.
          2    1    6    6  503    0 -0.36079237056E+03 -0.50301956126E+02 -0.42153422537E+03  0.55712882227E+03  0.00000000000E+00 0. -1.
         -2    1    6    6    0  503 -0.87119520835E+02  0.32062503754E+02 -0.92990844970E+02  0.13139677434E+03  0.00000000000E+00 0.  1.
<mgrwt>
<rscale>  0 0.54752739E+03</rscale>
<asrwt>0</asrwt>
<pdfrwt beam="1">  1        2 0.20857054E+00 0.54752739E+03</pdfrwt>
<pdfrwt beam="2">  1       -2 0.13830050E+00 0.54752739E+03</pdfrwt>
<totfact> 0.60216903E+00</totfact>
</mgrwt>
</event>
<event>
12    1  0.1444206E-007  0.5796668E+03  0.7818608E-02  0.9948513E-01
         -2   -1    0    0    0  501 -0.00000000000E+00  0.00000000000E+00  0.40755607706E+03  0.40755607706E+03  0.00000000000E+00 0.  1.
          2   -1    0    0  501    0  0.00000000000E+00 -0.00000000000E+00 -0.10143926867E+04  0.10143926867E+04  0.00000000000E+00 0. -1.
         23    2    1    2    0    0 -0.36777544061E+03  0.23713866876E+03 -0.50197916404E+03  0.67195426141E+03  0.89699082268E+02 0.  0.
    5000000    2    1    2    0    0  0.36777544061E+03 -0.23713866876E+03 -0.10485744565E+03  0.74999450239E+03  0.60000262231E+03 0.  0.
         23    2    4    4    0    0 -0.83015273533E+02  0.10806573959E+03 -0.54455777269E+02  0.17275755540E+03  0.91159209937E+02 0.  0.
         23    2    4    4    0    0  0.45079071414E+03 -0.34520440835E+03 -0.50401668378E+02  0.57723694700E+03  0.91015456388E+02 0.  0.
          1    1    3    3  502    0 -0.58792575510E+02  0.38120238899E+01 -0.78576339591E+02  0.98210689870E+02  0.00000000000E+00 0.  1.
         -1    1    3    3    0  502 -0.30898286510E+03  0.23332664487E+03 -0.42340282445E+03  0.57374357154E+03  0.00000000000E+00 0. -1.
         13    1    5    5    0    0 -0.39674195572E+02  0.89037885655E+02 -0.73143793326E+02  0.12186796699E+03  0.00000000000E+00 0.  1.
        -13    1    5    5    0    0 -0.43341077961E+02  0.19027853932E+02  0.18688016056E+02  0.50889588407E+02  0.00000000000E+00 0. -1.
          4    1    6    6  503    0  0.29328730381E+03 -0.20824171854E+03  0.10364436842E+02  0.35984646374E+03  0.00000000000E+00 0. -1.
         -4    1    6    6    0  503  0.15750341034E+03 -0.13696268981E+03 -0.60766105220E+02  0.21739048326E+03  0.00000000000E+00 0.  1.
<mgrwt>
<rscale>  0 0.57966682E+03</rscale>
<asrwt>0</asrwt>
<pdfrwt beam="1">  1        2 0.15606041E+00 0.57966682E+03</pdfrwt>
<pdfrwt beam="2">  1       -2 0.62700935E-01 0.57966682E+03</pdfrwt>
<totfact> 0.60011641E+01</totfact>
</mgrwt>
</event>
<event>
12    1  0.1444206E-007  0.9738159E+03  0.7818608E-02  0.9337739E-01
          2   -1    0    0  501    0  0.00000000000E+00  0.00000000000E+00  0.32438562793E+04  0.32438562793E+04  0.00000000000E+00 0.  1.
         -2   -1    0    0    0  501 -0.00000000000E+00 -0.00000000000E+00 -0.33898067336E+03  0.33898067336E+03  0.00000000000E+00 0. -1.
         23    2    1    2    0    0  0.90174859965E+03  0.32316590536E+03  0.14562414616E+04  0.17454216397E+04  0.90943755329E+02 0.  0.
    5000000    2    1    2    0    0 -0.90174859965E+03 -0.32316590536E+03  0.14486341444E+04  0.18374153130E+04  0.59997283995E+03 0.  0.
         23    2    4    4    0    0 -0.81176374448E+03 -0.23058833990E+03  0.78643491794E+03  0.11571773154E+04  0.91913545562E+02 0.  0.
         23    2    4    4    0    0 -0.89984855167E+02 -0.92577565460E+02  0.66219922647E+03  0.68023799754E+03  0.86879445098E+02 0.  0.
          2    1    3    3  502    0  0.86324396505E+02  0.54427327520E+02  0.18767134148E+03  0.21362295716E+03  0.00000000000E+00 0. -1.
         -2    1    3    3    0  502  0.81542420314E+03  0.26873857784E+03  0.12685701201E+04  0.15317986826E+04  0.00000000000E+00 0.  1.
         11    1    5    5    0    0 -0.33903144067E+03 -0.93971648310E+02  0.26691384311E+03  0.44160614590E+03  0.00000000000E+00 0.  1.
        -11    1    5    5    0    0 -0.47273230380E+03 -0.13661669159E+03  0.51952107483E+03  0.71557116954E+03  0.00000000000E+00 0. -1.
          3    1    6    6  503    0 -0.10260462475E+02  0.92395853816E+01  0.19452593304E+03  0.19501534723E+03  0.00000000000E+00 0. -1.
         -3    1    6    6    0  503 -0.79724392693E+02 -0.10181715084E+03  0.46767329342E+03  0.48522265031E+03  0.00000000000E+00 0.  1.
<mgrwt>
<rscale>  0 0.97381594E+03</rscale>
<asrwt>0</asrwt>
<pdfrwt beam="1">  1        2 0.49905479E+00 0.97381594E+03</pdfrwt>
<pdfrwt beam="2">  1       -2 0.52150875E-01 0.97381594E+03</pdfrwt>
<totfact> 0.43540469E+00</totfact>
</mgrwt>
</event>
<event>
12    1  0.1444206E-007  0.7048296E+03  0.7818608E-02  0.9709008E-01
         -2   -1    0    0    0  501 -0.00000000000E+00  0.00000000000E+00  0.32823793962E+03  0.32823793962E+03  0.00000000000E+00 0.  1.
          2   -1    0    0  501    0  0.00000000000E+00 -0.00000000000E+00 -0.16832022173E+04  0.16832022173E+04  0.00000000000E+00 0. -1.
         23    2    1    2    0    0  0.59985514530E+03 -0.85707463099E+02 -0.39883769802E+03  0.73023136320E+03  0.83632349412E+02 0.  0.
    5000000    2    1    2    0    0 -0.59985514530E+03  0.85707463099E+02 -0.95612657970E+03  0.12812087938E+04  0.60012163119E+03 0.  0.
         23    2    4    4    0    0 -0.74400143966E+02  0.24060210675E+03 -0.48174557809E+03  0.55089947672E+03  0.89368206012E+02 0.  0.
         23    2    4    4    0    0 -0.52545500133E+03 -0.15489464365E+03 -0.47438100161E+03  0.73030931704E+03  0.90659002913E+02 0.  0.
          1    1    3    3  502    0  0.37495859089E+03 -0.65990637105E+02 -0.29551295995E+03  0.48195084663E+03  0.00000000000E+00 0. -1.
         -1    1    3    3    0  502  0.22489655441E+03 -0.19716825994E+02 -0.10332473807E+03  0.24828051657E+03  0.00000000000E+00 0.  1.
         11    1    5    5    0    0 -0.59342417201E+02  0.22138179392E+03 -0.36028447129E+03  0.42700857300E+03  0.00000000000E+00 0. -1.
        -11    1    5    5    0    0 -0.15057726764E+02  0.19220312829E+02 -0.12146110680E+03  0.12389090372E+03  0.00000000000E+00 0.  1.
          1    1    6    6  503    0 -0.31827678271E+03 -0.11606802179E+03 -0.24054304312E+03  0.41549109700E+03  0.00000000000E+00 0. -1.
         -1    1    6    6    0  503 -0.20717821862E+03 -0.38826621863E+02 -0.23383795849E+03  0.31481822004E+03  0.00000000000E+00 0.  1.
<mgrwt>
<rscale>  0 0.70482958E+03</rscale>
<asrwt>0</asrwt>
<pdfrwt beam="1">  1        2 0.25895419E+00 0.70482958E+03</pdfrwt>
<pdfrwt beam="2">  1       -2 0.50498145E-01 0.70482958E+03</pdfrwt>
<totfact> 0.38318099E+01</totfact>
</mgrwt>
</event>
<event>
12    1  0.1444206E-007  0.3650314E+03  0.7818608E-02  0.1056609E+00
         -1   -1    0    0    0  501 -0.00000000000E+00  0.00000000000E+00  0.12492308068E+03  0.12492308068E+03  0.00000000000E+00 0.  1.
          1   -1    0    0  501    0  0.00000000000E+00 -0.00000000000E+00 -0.21193655904E+04  0.21193655904E+04  0.00000000000E+00 0. -1.
         23    2    1    2    0    0 -0.87951999541E+02  0.31936618406E+03 -0.64868516419E+03  0.73405258460E+03  0.91161620052E+02 0.  0.
    5000000    2    1    2    0    0  0.87951999541E+02 -0.31936618406E+03 -0.13457573455E+04  0.15102360865E+04  0.60001657490E+03 0.  0.
         23    2    4    4    0    0  0.14889684821E+03 -0.16009077581E+03 -0.11215796493E+03  0.26140013767E+03  0.89170034034E+02 0.  0.
         23    2    4    4    0    0 -0.60944848665E+02 -0.15927540825E+03 -0.12335993806E+04  0.12488359488E+04  0.93492593388E+02 0.  0.
          1    1    3    3  502    0 -0.52558762830E+02  0.69610436245E+02 -0.21996480111E+03  0.23662745004E+03  0.00000000000E+00 0. -1.
         -1    1    3    3    0  502 -0.35393236711E+02  0.24975574782E+03 -0.42872036308E+03  0.49742513456E+03  0.00000000000E+00 0.  1.
         11    1    5    5    0    0  0.54918494816E+02 -0.49872034327E+02  0.60669028241E+01  0.74431634341E+02  0.00000000000E+00 0.  1.
        -11    1    5    5    0    0  0.93978353391E+02 -0.11021874148E+03 -0.11822486776E+03  0.18696850333E+03  0.00000000000E+00 0. -1.
          1    1    6    6  503    0 -0.31943196348E+02 -0.10827699572E+03 -0.10509439598E+04  0.10569898212E+04  0.00000000000E+00 0. -1.
         -1    1    6    6    0  503 -0.29001652317E+02 -0.50998412536E+02 -0.18265542082E+03  0.19184612759E+03  0.00000000000E+00 0.  1.
<mgrwt>
<rscale>  0 0.36503138E+03</rscale>
<asrwt>0</asrwt>
<pdfrwt beam="1">  1        1 0.32605627E+00 0.36503138E+03</pdfrwt>
<pdfrwt beam="2">  1       -1 0.19218934E-01 0.36503138E+03</pdfrwt>
<totfact> 0.59571273E+01</totfact>
</mgrwt>
</event>
<event>
12    1  0.1444206E-007  0.6714661E+03  0.7818608E-02  0.9767313E-01
          1   -1    0    0  501    0  0.00000000000E+00  0.00000000000E+00  0.80441282176E+03  0.80441282176E+03  0.00000000000E+00 0. -1.
         -1   -1    0    0    0  501 -0.00000000000E+00 -0.00000000000E+00 -0.70174607902E+03  0.70174607902E+03  0.00000000000E+00 0.  1.
         23    2    1    2    0    0  0.46789274006E+02 -0.62101836673E+03  0.12458472891E+03  0.64103915542E+03  0.86929834514E+02 0.  0.
    5000000    2    1    2    0    0 -0.46789274006E+02  0.62101836673E+03 -0.21917986175E+02  0.86511974536E+03  0.60008226746E+03 0.  0.
         23    2    4    4    0    0 -0.18861913802E+03  0.26866314853E+03 -0.24134589210E+03  0.41731012843E+03  0.90237669828E+02 0.  0.
         23    2    4    4    0    0  0.14182986401E+03  0.35235521820E+03  0.21942790592E+03  0.44780961692E+03  0.90082945070E+02 0.  0.
          1    1    3    3  502    0 -0.52412502793E+00 -0.28186249634E+03  0.94488390924E+02  0.29727898945E+03  0.00000000000E+00 0. -1.
         -1    1    3    3    0  502  0.47313399034E+02 -0.33915587039E+03  0.30096337991E+02  0.34376016597E+03  0.00000000000E+00 0.  1.
         11    1    5    5    0    0 -0.17068925458E+03  0.24283074525E+03 -0.17673001537E+03  0.34544911463E+03  0.00000000000E+00 0.  1.
        -11    1    5    5    0    0 -0.17929883441E+02  0.25832403283E+02 -0.64615876731E+02  0.71861013806E+02  0.00000000000E+00 0. -1.
          4    1    6    6  503    0  0.22915795848E+02  0.53251949145E+01  0.13104948647E+02  0.26930114728E+02  0.00000000000E+00 0. -1.
         -4    1    6    6    0  503  0.11891406817E+03  0.34703002328E+03  0.20632295728E+03  0.42087950219E+03  0.00000000000E+00 0.  1.
<mgrwt>
<rscale>  0 0.67146606E+03</rscale>
<asrwt>0</asrwt>
<pdfrwt beam="1">  1        1 0.12375582E+00 0.67146606E+03</pdfrwt>
<pdfrwt beam="2">  1       -1 0.10796094E+00 0.67146606E+03</pdfrwt>
<totfact> 0.18149091E+01</totfact>
</mgrwt>
</event>
<event>
12    1  0.1444206E-007  0.1323657E+04  0.7818608E-02  0.9011012E-01
          1   -1    0    0  501    0  0.00000000000E+00  0.00000000000E+00  0.16203627216E+04  0.16203627216E+04  0.00000000000E+00 0. -1.
         -1   -1    0    0    0  501 -0.00000000000E+00 -0.00000000000E+00 -0.11817214550E+04  0.11817214550E+04  0.00000000000E+00 0.  1.
         23    2    1    2    0    0  0.13134950332E+04  0.72902648003E+02  0.14390012826E+03  0.13263674579E+04  0.89215403992E+02 0.  0.
    5000000    2    1    2    0    0 -0.13134950332E+04 -0.72902648003E+02  0.29474113832E+03  0.14757167187E+04  0.60023620106E+03 0.  0.
         23    2    4    4    0    0 -0.33865666044E+03 -0.85219986563E+02  0.33878932601E+03  0.49553077070E+03  0.93924211579E+02 0.  0.
         23    2    4    4    0    0 -0.97483837271E+03  0.12317338560E+02 -0.44048187697E+02  0.98018594801E+03  0.91447690475E+02 0.  0.
          2    1    3    3  502    0  0.44107621439E+03  0.30747841097E+01  0.84808123952E+02  0.44916600393E+03  0.00000000000E+00 0. -1.
         -2    1    3    3    0  502  0.87241881876E+03  0.69827863893E+02  0.59092004310E+02  0.87720145398E+03  0.00000000000E+00 0.  1.
         11    1    5    5    0    0 -0.12418073416E+03 -0.53119659311E+02  0.18761400158E+03  0.23117432065E+03  0.00000000000E+00 0.  1.
        -11    1    5    5    0    0 -0.21447592628E+03 -0.32100327251E+02  0.15117532444E+03  0.26435645005E+03  0.00000000000E+00 0. -1.
          1    1    6    6  503    0 -0.89895704196E+02  0.27526648400E+02  0.29361215270E-01  0.94015716065E+02  0.00000000000E+00 0. -1.
         -1    1    6    6    0  503 -0.88494266852E+03 -0.15209309840E+02 -0.44077548912E+02  0.88617023195E+03  0.00000000000E+00 0.  1.
<mgrwt>
<rscale>  0 0.13236573E+04</rscale>
<asrwt>0</asrwt>
<pdfrwt beam="1">  1        1 0.24928657E+00 0.13236573E+04</pdfrwt>
<pdfrwt beam="2">  1       -1 0.18180330E+00 0.13236573E+04</pdfrwt>
<totfact> 0.10543786E+00</totfact>
</mgrwt>
</event>
<event>
12    1  0.1444206E-007  0.9573608E+03  0.7818608E-02  0.9356588E-01
          1   -1    0    0  501    0  0.00000000000E+00  0.00000000000E+00  0.30788342721E+04  0.30788342721E+04  0.00000000000E+00 0. -1.
         -1   -1    0    0    0  501 -0.00000000000E+00 -0.00000000000E+00 -0.40027547591E+03  0.40027547591E+03  0.00000000000E+00 0.  1.
         23    2    1    2    0    0  0.89464689551E+03 -0.25638527823E+03  0.19240438920E+04  0.21391571160E+04  0.89004438450E+02 0.  0.
    5000000    2    1    2    0    0 -0.89464689551E+03  0.25638527823E+03  0.75451490410E+03  0.13399526319E+04  0.60004486227E+03 0.  0.
         23    2    4    4    0    0 -0.83564688234E+03  0.27509008759E+03  0.82418480303E+03  0.12089033854E+04  0.90479485677E+02 0.  0.
         23    2    4    4    0    0 -0.59000013172E+02 -0.18704809361E+02 -0.69669898936E+02  0.13104924656E+03  0.92136522390E+02 0.  0.
          1    1    3    3  502    0  0.36399019061E+03 -0.62550754501E+02  0.79924749251E+03  0.88045329804E+03  0.00000000000E+00 0. -1.
         -1    1    3    3    0  502  0.53065670490E+03 -0.19383452373E+03  0.11247963995E+04  0.12587038180E+04  0.00000000000E+00 0.  1.
         11    1    5    5    0    0 -0.23761356315E+03  0.38364006419E+02  0.24327922390E+03  0.34222329430E+03  0.00000000000E+00 0. -1.
        -11    1    5    5    0    0 -0.59803331919E+03  0.23672608117E+03  0.58090557913E+03  0.86668009106E+03  0.00000000000E+00 0.  1.
          1    1    6    6  503    0 -0.52130201047E+02 -0.45326175750E+02 -0.76137438662E+02  0.10280529965E+03  0.00000000000E+00 0. -1.
         -1    1    6    6    0  503 -0.68698121249E+01  0.26621366389E+02  0.64675397256E+01  0.28243946912E+02  0.00000000000E+00 0.  1.
<mgrwt>
<rscale>  0 0.95736076E+03</rscale>
<asrwt>0</asrwt>
<pdfrwt beam="1">  1        1 0.47366680E+00 0.95736076E+03</pdfrwt>
<pdfrwt beam="2">  1       -1 0.61580844E-01 0.95736076E+03</pdfrwt>
<totfact> 0.14510420E+00</totfact>
</mgrwt>
</event>
<event>
12    1  0.1444206E-007  0.1097061E+04  0.7818608E-02  0.9208061E-01
         -2   -1    0    0    0  501 -0.00000000000E+00  0.00000000000E+00  0.68871612939E+03  0.68871612939E+03  0.00000000000E+00 0. -1.
          2   -1    0    0  501    0  0.00000000000E+00 -0.00000000000E+00 -0.20986954355E+04  0.20986954355E+04  0.00000000000E+00 0.  1.
         23    2    1    2    0    0  0.67761665910E+03 -0.81627477504E+03 -0.22562386607E+03  0.10882966580E+04  0.89524531834E+02 0.  0.
    5000000    2    1    2    0    0 -0.67761665910E+03  0.81627477504E+03 -0.11843554401E+04  0.16991149069E+04  0.59901987732E+03 0.  0.
         23    2    4    4    0    0 -0.61304431104E+03  0.45875366747E+03 -0.49632801048E+03  0.91607128436E+03  0.81036098901E+02 0.  0.
         23    2    4    4    0    0 -0.64572348060E+02  0.35752110757E+03 -0.68802742959E+03  0.78304362256E+03  0.88230609583E+02 0.  0.
          3    1    3    3  502    0  0.14671866284E+03 -0.23671247374E+03 -0.50018926079E+02  0.28295062152E+03  0.00000000000E+00 0. -1.
         -3    1    3    3    0  502  0.53089799626E+03 -0.57956230130E+03 -0.17560493999E+03  0.80534603648E+03  0.00000000000E+00 0.  1.
         13    1    5    5    0    0 -0.52164728947E+03  0.37957007746E+03 -0.45002412449E+03  0.78658187809E+03  0.00000000000E+00 0. -1.
        -13    1    5    5    0    0 -0.91397021574E+02  0.79183590006E+02 -0.46303885991E+02  0.12948940627E+03  0.00000000000E+00 0.  1.
          2    1    6    6  503    0 -0.33925398746E+02  0.14694981436E+03 -0.19871585485E+03  0.24946577238E+03  0.00000000000E+00 0. -1.
         -2    1    6    6    0  503 -0.30646949313E+02  0.21057129322E+03 -0.48931157474E+03  0.53357785018E+03  0.00000000000E+00 0.  1.
<mgrwt>
<rscale>  0 0.10970609E+04</rscale>
<asrwt>0</asrwt>
<pdfrwt beam="1">  1        2 0.32287621E+00 0.10970609E+04</pdfrwt>
<pdfrwt beam="2">  1       -2 0.10595633E+00 0.10970609E+04</pdfrwt>
<totfact> 0.41900658E+00</totfact>
</mgrwt>
</event>
<event>
12    1  0.1444206E-007  0.1209130E+04  0.7818608E-02  0.9104902E-01
         -1   -1    0    0    0  501 -0.00000000000E+00  0.00000000000E+00  0.11906478027E+04  0.11906478027E+04  0.00000000000E+00 0.  1.
          1   -1    0    0  501    0  0.00000000000E+00 -0.00000000000E+00 -0.16669137954E+04  0.16669137954E+04  0.00000000000E+00 0. -1.
         23    2    1    2    0    0 -0.11173592229E+04  0.30611360847E+03 -0.91720002455E+03  0.14804250048E+04  0.90582201892E+02 0.  0.
    5000000    2    1    2    0    0  0.11173592229E+04 -0.30611360847E+03  0.44093403190E+03  0.13771365934E+04  0.59990432732E+03 0.  0.
         23    2    4    4    0    0  0.12952414439E+03  0.10219919871E+03 -0.54218542005E+02  0.19561447589E+03  0.90023289666E+02 0.  0.
         23    2    4    4    0    0  0.98783507855E+03 -0.40831280718E+03  0.49515257390E+03  0.11815221175E+04  0.90999734818E+02 0.  0.
          2    1    3    3  502    0 -0.76464289497E+03  0.25056282666E+03 -0.61830213407E+03  0.10147699325E+04  0.00000000000E+00 0. -1.
         -2    1    3    3    0  502 -0.35271632798E+03  0.55550781806E+02 -0.29889789048E+03  0.46565507225E+03  0.00000000000E+00 0.  1.
         11    1    5    5    0    0 -0.11806848909E+02 -0.62279785472E+00  0.20581857590E+01  0.12001070242E+02  0.00000000000E+00 0.  1.
        -11    1    5    5    0    0  0.14133099330E+03  0.10282199657E+03 -0.56276727763E+02  0.18361340565E+03  0.00000000000E+00 0. -1.
          3    1    6    6  503    0  0.95582522588E+03 -0.38548390981E+03  0.45940935076E+03  0.11283867505E+04  0.00000000000E+00 0. -1.
         -3    1    6    6    0  503  0.32009852672E+02 -0.22828897374E+02  0.35743223145E+02  0.53135366981E+02  0.00000000000E+00 0.  1.
<mgrwt>
<rscale>  0 0.12091301E+04</rscale>
<asrwt>0</asrwt>
<pdfrwt beam="1">  1        1 0.25644827E+00 0.12091301E+04</pdfrwt>
<pdfrwt beam="2">  1       -1 0.18317659E+00 0.12091301E+04</pdfrwt>
<totfact> 0.97090873E-01</totfact>
</mgrwt>
</event>
<event>
12    1  0.1444206E-007  0.8645191E+03  0.7818608E-02  0.9471054E-01
          2   -1    0    0  501    0  0.00000000000E+00  0.00000000000E+00  0.11129804534E+04  0.11129804534E+04  0.00000000000E+00 0. -1.
         -2   -1    0    0    0  501 -0.00000000000E+00 -0.00000000000E+00 -0.90843404978E+03  0.90843404978E+03  0.00000000000E+00 0.  1.
         23    2    1    2    0    0 -0.75437305715E+03  0.22561279905E+03 -0.37318282347E+03  0.87512926297E+03  0.81277073853E+02 0.  0.
    5000000    2    1    2    0    0  0.75437305715E+03 -0.22561279905E+03  0.57772922710E+03  0.11462852402E+04  0.60018242864E+03 0.  0.
         23    2    4    4    0    0  0.63460027973E+03  0.48570686726E+02  0.23863104666E+03  0.68587421006E+03  0.91662582087E+02 0.  0.
         23    2    4    4    0    0  0.11977277742E+03 -0.27418348577E+03  0.33909818044E+03  0.46041103016E+03  0.86421285754E+02 0.  0.
          4    1    3    3  502    0 -0.53515793660E+03  0.18172620931E+03 -0.30020781621E+03  0.63995559625E+03  0.00000000000E+00 0. -1.
         -4    1    3    3    0  502 -0.21921512055E+03  0.43886589739E+02 -0.72975007253E+02  0.23517366672E+03  0.00000000000E+00 0.  1.
         13    1    5    5    0    0  0.31022381948E+01  0.28824248558E+00 -0.61354022408E+01  0.68811427978E+01  0.00000000000E+00 0.  1.
        -13    1    5    5    0    0  0.63149804154E+03  0.48282444240E+02  0.24476644890E+03  0.67899306726E+03  0.00000000000E+00 0. -1.
          1    1    6    6  503    0  0.91935990951E+02 -0.14494458500E+03  0.24059783842E+03  0.29554776095E+03  0.00000000000E+00 0. -1.
         -1    1    6    6    0  503  0.27836786469E+02 -0.12923890078E+03  0.98500342021E+02  0.16486326921E+03  0.00000000000E+00 0.  1.
<mgrwt>
<rscale>  0 0.86451909E+03</rscale>
<asrwt>0</asrwt>
<pdfrwt beam="1">  1        2 0.17122776E+00 0.86451909E+03</pdfrwt>
<pdfrwt beam="2">  1       -2 0.13975908E+00 0.86451909E+03</pdfrwt>
<totfact> 0.77584840E+00</totfact>
</mgrwt>
</event>
<event>
12    1  0.1444206E-007  0.5656570E+03  0.7818608E-02  0.9979335E-01
         -1   -1    0    0    0  501 -0.00000000000E+00  0.00000000000E+00  0.27234827668E+03  0.27234827668E+03  0.00000000000E+00 0.  1.
          1   -1    0    0  501    0  0.00000000000E+00 -0.00000000000E+00 -0.15205676970E+04  0.15205676970E+04  0.00000000000E+00 0. -1.
         23    2    1    2    0    0 -0.40200918497E+03  0.26286042236E+03 -0.67674117000E+03  0.83507593345E+03  0.93092518524E+02 0.  0.
    5000000    2    1    2    0    0  0.40200918497E+03 -0.26286042236E+03 -0.57147825031E+03  0.95784004023E+03  0.60013595595E+03 0.  0.
         23    2    4    4    0    0  0.96176817821E+02  0.11567445109E+03  0.30381307847E+02  0.17826936840E+03  0.90699420736E+02 0.  0.
         23    2    4    4    0    0  0.30583236715E+03 -0.37853487346E+03 -0.60185955816E+03  0.77957067183E+03  0.93131183819E+02 0.  0.
          3    1    3    3  502    0 -0.11397709237E+03  0.12462538143E+03 -0.25830476101E+03  0.30861563934E+03  0.00000000000E+00 0. -1.
         -3    1    3    3    0  502 -0.28803209260E+03  0.13823504093E+03 -0.41843640899E+03  0.52646029411E+03  0.00000000000E+00 0.  1.
         13    1    5    5    0    0  0.95327671700E+01  0.39168735130E+02 -0.27698684461E+02  0.48910945426E+02  0.00000000000E+00 0.  1.
        -13    1    5    5    0    0  0.86644050651E+02  0.76505715962E+02  0.58079992308E+02  0.12935842297E+03  0.00000000000E+00 0. -1.
          3    1    6    6  503    0  0.23066264744E+03 -0.27158592080E+03 -0.37186637205E+03  0.51502307517E+03  0.00000000000E+00 0. -1.
         -3    1    6    6    0  503  0.75169719710E+02 -0.10694895266E+03 -0.22999318611E+03  0.26454759665E+03  0.00000000000E+00 0.  1.
<mgrwt>
<rscale>  0 0.56565700E+03</rscale>
<asrwt>0</asrwt>
<pdfrwt beam="1">  1        1 0.23393349E+00 0.56565700E+03</pdfrwt>
<pdfrwt beam="2">  1       -1 0.41899735E-01 0.56565700E+03</pdfrwt>
<totfact> 0.37407902E+01</totfact>
</mgrwt>
</event>
<event>
12    1  0.1444206E-007  0.6512067E+03  0.7818608E-02  0.9804518E-01
         -2   -1    0    0    0  501 -0.00000000000E+00  0.00000000000E+00  0.18492128050E+03  0.18492128050E+03  0.00000000000E+00 0.  1.
          2   -1    0    0  501    0  0.00000000000E+00 -0.00000000000E+00 -0.35184180171E+04  0.35184180171E+04  0.00000000000E+00 0. -1.
         23    2    1    2    0    0  0.57417487633E+03 -0.54340295745E+02 -0.56448602968E+03  0.81198136679E+03  0.89663849783E+02 0.  0.
    5000000    2    1    2    0    0 -0.57417487633E+03  0.54340295745E+02 -0.27690107070E+04  0.28913579308E+04  0.59991727153E+03 0.  0.
         23    2    4    4    0    0  0.20227959561E+02  0.11411885509E+03 -0.18211763316E+03  0.23480396339E+03  0.92378490368E+02 0.  0.
         23    2    4    4    0    0 -0.59440283589E+03 -0.59778559342E+02 -0.25868930738E+04  0.26565539675E+04  0.91515022066E+02 0.  0.
          2    1    3    3  502    0  0.25960890648E+03 -0.25328403780E+02 -0.19385230907E+03  0.32498773837E+03  0.00000000000E+00 0.  1.
         -2    1    3    3    0  502  0.31456596985E+03 -0.29011891965E+02 -0.37063372061E+03  0.48699362842E+03  0.00000000000E+00 0. -1.
         11    1    5    5    0    0  0.15103739175E+02  0.11290131304E+02  0.64755523481E+01  0.19937973321E+02  0.00000000000E+00 0.  1.
        -11    1    5    5    0    0  0.51242203862E+01  0.10282872378E+03 -0.18859318551E+03  0.21486599007E+03  0.00000000000E+00 0. -1.
          4    1    6    6  503    0 -0.51548625731E+03 -0.81776093480E+02 -0.21968356918E+04  0.22579859317E+04  0.00000000000E+00 0.  1.
         -4    1    6    6    0  503 -0.78916578588E+02  0.21997534138E+02 -0.39005738199E+03  0.39856803576E+03  0.00000000000E+00 0. -1.
<mgrwt>
<rscale>  0 0.65120671E+03</rscale>
<asrwt>0</asrwt>
<pdfrwt beam="1">  1        2 0.54129508E+00 0.65120671E+03</pdfrwt>
<pdfrwt beam="2">  1       -2 0.28449428E-01 0.65120671E+03</pdfrwt>
<totfact> 0.98488589E+00</totfact>
</mgrwt>
</event>
<event>
12    1  0.1444206E-007  0.5885659E+03  0.7818608E-02  0.9929416E-01
          1   -1    0    0  501    0  0.00000000000E+00  0.00000000000E+00  0.12905887720E+04  0.12905887720E+04  0.00000000000E+00 0. -1.
         -1   -1    0    0    0  501 -0.00000000000E+00 -0.00000000000E+00 -0.39339262319E+03  0.39339262319E+03  0.00000000000E+00 0.  1.
         23    2    1    2    0    0  0.50922587587E+03 -0.26724396742E+03  0.26293717349E+03  0.63856468109E+03  0.88873865398E+02 0.  0.
    5000000    2    1    2    0    0 -0.50922587587E+03  0.26724396742E+03  0.63425897537E+03  0.10454167142E+04  0.59990109820E+03 0.  0.
         23    2    4    4    0    0 -0.41325519221E+03  0.15880619069E+03  0.72297320697E+03  0.85262144799E+03  0.90960516037E+02 0.  0.
         23    2    4    4    0    0 -0.95970683658E+02  0.10843777673E+03 -0.88714231600E+02  0.19279526617E+03  0.91272538171E+02 0.  0.
          4    1    3    3  502    0  0.30315286637E+03 -0.12041497699E+03  0.17836809966E+03  0.37177494005E+03  0.00000000000E+00 0. -1.
         -4    1    3    3    0  502  0.20607300950E+03 -0.14682899043E+03  0.84569073827E+02  0.26678974104E+03  0.00000000000E+00 0.  1.
         13    1    5    5    0    0 -0.27919644478E+03  0.11766185068E+03  0.56704701416E+03  0.64291312178E+03  0.00000000000E+00 0. -1.
        -13    1    5    5    0    0 -0.13405874743E+03  0.41144340005E+02  0.15592619281E+03  0.20970832621E+03  0.00000000000E+00 0.  1.
          4    1    6    6  503    0 -0.34676616573E+02  0.79876853766E+02 -0.89905643836E+02  0.12516311077E+03  0.00000000000E+00 0. -1.
         -4    1    6    6    0  503 -0.61294067085E+02  0.28560922966E+02  0.11914122359E+01  0.67632155396E+02  0.00000000000E+00 0.  1.
<mgrwt>
<rscale>  0 0.58856591E+03</rscale>
<asrwt>0</asrwt>
<pdfrwt beam="1">  1        1 0.19855212E+00 0.58856591E+03</pdfrwt>
<pdfrwt beam="2">  1       -1 0.60521943E-01 0.58856591E+03</pdfrwt>
<totfact> 0.26796947E+01</totfact>
</mgrwt>
</event>
<event>
12    1  0.1444206E-007  0.7601685E+03  0.7818608E-02  0.9619531E-01
         -2   -1    0    0    0  501 -0.00000000000E+00  0.00000000000E+00  0.47427181942E+03  0.47427181942E+03  0.00000000000E+00 0.  1.
          2   -1    0    0  501    0  0.00000000000E+00 -0.00000000000E+00 -0.15126184898E+04  0.15126184898E+04  0.00000000000E+00 0. -1.
         23    2    1    2    0    0 -0.20922041666E+03 -0.70099224839E+03 -0.34624099717E+03  0.81466980773E+03  0.92955647812E+02 0.  0.
    5000000    2    1    2    0    0  0.20922041666E+03  0.70099224839E+03 -0.69210567325E+03  0.11722205015E+04  0.59993943545E+03 0.  0.
         23    2    4    4    0    0 -0.63069672102E+02  0.21590598285E+03  0.42139177290E+02  0.24642494980E+03  0.91413175463E+02 0.  0.
         23    2    4    4    0    0  0.27229008877E+03  0.48508626553E+03 -0.73424485054E+03  0.92579555174E+03  0.92365175334E+02 0.  0.
          1    1    3    3  502    0 -0.39816499188E+02 -0.19899905087E+03 -0.13794853881E+03  0.24538902831E+03  0.00000000000E+00 0. -1.
         -1    1    3    3    0  502 -0.16940391748E+03 -0.50199319752E+03 -0.20829245836E+03  0.56928077942E+03  0.00000000000E+00 0.  1.
         13    1    5    5    0    0  0.16829162521E+01  0.62041066525E+02  0.49412217538E+02  0.79331540920E+02  0.00000000000E+00 0.  1.
        -13    1    5    5    0    0 -0.64752588354E+02  0.15386491633E+03 -0.72730402483E+01  0.16709340888E+03  0.00000000000E+00 0. -1.
          1    1    6    6  503    0  0.12321612004E+03  0.27118307825E+03 -0.45431397206E+03  0.54325285032E+03  0.00000000000E+00 0. -1.
         -1    1    6    6    0  503  0.14907396872E+03  0.21390318729E+03 -0.27993087848E+03  0.38254270142E+03  0.00000000000E+00 0.  1.
<mgrwt>
<rscale>  0 0.76016851E+03</rscale>
<asrwt>0</asrwt>
<pdfrwt beam="1">  1        2 0.23271054E+00 0.76016851E+03</pdfrwt>
<pdfrwt beam="2">  1       -2 0.72964896E-01 0.76016851E+03</pdfrwt>
<totfact> 0.21675060E+01</totfact>
</mgrwt>
</event>
<event>
12    1  0.1444206E-007  0.7691827E+03  0.7818608E-02  0.9605727E-01
          1   -1    0    0  501    0  0.00000000000E+00  0.00000000000E+00  0.58247548685E+03  0.58247548685E+03  0.00000000000E+00 0. -1.
         -1   -1    0    0    0  501 -0.00000000000E+00 -0.00000000000E+00 -0.12198688785E+04  0.12198688785E+04  0.00000000000E+00 0.  1.
         23    2    1    2    0    0  0.20150036307E+03 -0.67369454098E+03 -0.58404118675E+02  0.71152932419E+03  0.91630820433E+02 0.  0.
    5000000    2    1    2    0    0 -0.20150036307E+03  0.67369454098E+03 -0.57898927298E+03  0.10908150412E+04  0.60015176826E+03 0.  0.
         23    2    4    4    0    0  0.48278828364E+02  0.53128901925E+03 -0.57643939772E+03  0.79059262262E+03  0.90307521626E+02 0.  0.
         23    2    4    4    0    0 -0.24977919143E+03  0.14240552173E+03 -0.25498752624E+01  0.30022241854E+03  0.86359838126E+02 0.  0.
          3    1    3    3  502    0 -0.34596856966E+01 -0.83945515503E+02  0.37019300880E+01  0.84098295373E+02  0.00000000000E+00 0. -1.
         -3    1    3    3    0  502  0.20496004876E+03 -0.58974902547E+03 -0.62106048763E+02  0.62743102882E+03  0.00000000000E+00 0.  1.
         13    1    5    5    0    0  0.51462259608E+02  0.49512977060E+03 -0.56390433878E+03  0.75219010708E+03  0.00000000000E+00 0. -1.
        -13    1    5    5    0    0 -0.31834312442E+01  0.36159248645E+02 -0.12535058938E+02  0.38402515538E+02  0.00000000000E+00 0.  1.
          2    1    6    6  503    0 -0.19919753815E+03  0.77799488529E+02 -0.24594967253E+02  0.21526107878E+03  0.00000000000E+00 0. -1.
         -2    1    6    6    0  503 -0.50581653275E+02  0.64606033198E+02  0.22045091990E+02  0.84961339764E+02  0.00000000000E+00 0.  1.
<mgrwt>
<rscale>  0 0.76918272E+03</rscale>
<asrwt>0</asrwt>
<pdfrwt beam="1">  1        1 0.89611613E-01 0.76918272E+03</pdfrwt>
<pdfrwt beam="2">  1       -1 0.18767214E+00 0.76918272E+03</pdfrwt>
<totfact> 0.67621376E+00</totfact>
</mgrwt>
</event>
<event>
12    1  0.1444206E-007  0.3891752E+03  0.7818608E-02  0.1047594E+00
          2   -1    0    0  501    0  0.00000000000E+00  0.00000000000E+00  0.10651232337E+04  0.10651232337E+04  0.00000000000E+00 0. -1.
         -2   -1    0    0    0  501 -0.00000000000E+00 -0.00000000000E+00 -0.21742220840E+03  0.21742220840E+03  0.00000000000E+00 0.  1.
         23    2    1    2    0    0  0.26353626468E+03  0.90192327043E+02  0.18760132112E+03  0.34801929501E+03  0.91308024577E+02 0.  0.
    5000000    2    1    2    0    0 -0.26353626468E+03 -0.90192327043E+02  0.66009970418E+03  0.93452614708E+03  0.60001790095E+03 0.  0.
         23    2    4    4    0    0 -0.20664432366E+03 -0.23660186283E+03  0.95377513470E+02  0.34089893179E+03  0.91830788003E+02 0.  0.
         23    2    4    4    0    0 -0.56891941027E+02  0.14640953579E+03  0.56472219071E+03  0.59362721529E+03  0.93859857933E+02 0.  0.
          3    1    3    3  502    0  0.18789048805E+03  0.30098855251E+02  0.15695465139E+03  0.24666483166E+03  0.00000000000E+00 0. -1.
         -3    1    3    3    0  502  0.75645776633E+02  0.60093471792E+02  0.30646669731E+02  0.10135446335E+03  0.00000000000E+00 0.  1.
         13    1    5    5    0    0 -0.15783748507E+03 -0.11293383478E+03  0.63194273884E+02  0.20410840008E+03  0.00000000000E+00 0.  1.
        -13    1    5    5    0    0 -0.48806838586E+02 -0.12366802806E+03  0.32183239586E+02  0.13679053171E+03  0.00000000000E+00 0. -1.
          4    1    6    6  503    0  0.88678011862E+01  0.21633276993E+02  0.21894845223E+03  0.22019323629E+03  0.00000000000E+00 0. -1.
         -4    1    6    6    0  503 -0.65759742213E+02  0.12477625880E+03  0.34577373848E+03  0.37343397900E+03  0.00000000000E+00 0.  1.
<mgrwt>
<rscale>  0 0.38917521E+03</rscale>
<asrwt>0</asrwt>
<pdfrwt beam="1">  1        2 0.16386511E+00 0.38917521E+03</pdfrwt>
<pdfrwt beam="2">  1       -2 0.33449571E-01 0.38917521E+03</pdfrwt>
<totfact> 0.19918813E+02</totfact>
</mgrwt>
</event>
<event>
12    1  0.1444206E-007  0.5937085E+03  0.7818608E-02  0.9918546E-01
         -1   -1    0    0    0  501 -0.00000000000E+00  0.00000000000E+00  0.93726282362E+03  0.93726282362E+03  0.00000000000E+00 0.  1.
          1   -1    0    0  501    0  0.00000000000E+00 -0.00000000000E+00 -0.11520821508E+04  0.11520821508E+04  0.00000000000E+00 0. -1.
         23    2    1    2    0    0 -0.47325204322E+03  0.28479721083E+03 -0.87593565164E+03  0.10394625957E+04  0.90234551519E+02 0.  0.
    5000000    2    1    2    0    0  0.47325204322E+03 -0.28479721083E+03  0.66111632443E+03  0.10498823788E+04  0.60008438337E+03 0.  0.
         23    2    4    4    0    0  0.35359069086E+03 -0.56225964601E+02  0.41287217953E+02  0.37225781665E+03  0.93185363293E+02 0.  0.
         23    2    4    4    0    0  0.11966135235E+03 -0.22857124623E+03  0.61982910647E+03  0.67762456213E+03  0.91778385959E+02 0.  0.
          4    1    3    3  502    0 -0.17013995702E+03  0.15068685407E+03 -0.32716111242E+03  0.39835728492E+03  0.00000000000E+00 0. -1.
         -4    1    3    3    0  502 -0.30311208619E+03  0.13411035675E+03 -0.54877453922E+03  0.64110531076E+03  0.00000000000E+00 0.  1.
         13    1    5    5    0    0  0.33288572150E+03 -0.38200169654E+02  0.58094297380E+02  0.34006926343E+03  0.00000000000E+00 0. -1.
        -13    1    5    5    0    0  0.20704969363E+02 -0.18025794947E+02 -0.16807079427E+02  0.32188553224E+02  0.00000000000E+00 0.  1.
          3    1    6    6  503    0  0.12796148460E+03 -0.21186874905E+03  0.60540312012E+03  0.65404544660E+03  0.00000000000E+00 0. -1.
         -3    1    6    6    0  503 -0.83001322460E+01 -0.16702497174E+02  0.14425986348E+02  0.23579115532E+02  0.00000000000E+00 0.  1.
<mgrwt>
<rscale>  0 0.59370851E+03</rscale>
<asrwt>0</asrwt>
<pdfrwt beam="1">  1        1 0.17724341E+00 0.59370851E+03</pdfrwt>
<pdfrwt beam="2">  1       -1 0.14419428E+00 0.59370851E+03</pdfrwt>
<totfact> 0.48007022E+00</totfact>
</mgrwt>
</event>
<event>
12    1  0.1444206E-007  0.4727309E+03  0.7818608E-02  0.1021152E+00
         -1   -1    0    0    0  501 -0.00000000000E+00  0.00000000000E+00  0.82151428952E+03  0.82151428952E+03  0.00000000000E+00 0.  1.
          1   -1    0    0  501    0  0.00000000000E+00 -0.00000000000E+00 -0.28556801087E+03  0.28556801087E+03  0.00000000000E+00 0. -1.
         23    2    1    2    0    0 -0.27818023308E+03 -0.47728950813E+02  0.24033753397E+03  0.38103667089E+03  0.88116510967E+02 0.  0.
    5000000    2    1    2    0    0  0.27818023308E+03  0.47728950813E+02  0.29560874468E+03  0.72604562950E+03  0.60007952087E+03 0.  0.
         23    2    4    4    0    0  0.40592041687E+03 -0.12066914870E+03  0.19679970108E+03  0.47568075375E+03  0.90607002271E+02 0.  0.
         23    2    4    4    0    0 -0.12774018379E+03  0.16839809951E+03  0.98809043598E+02  0.25036487576E+03  0.90795756745E+02 0.  0.
          3    1    3    3  502    0 -0.84893305165E+02 -0.30062239547E+02  0.12884915308E+03  0.15720278547E+03  0.00000000000E+00 0. -1.
         -3    1    3    3    0  502 -0.19328692792E+03 -0.17666711266E+02  0.11148838088E+03  0.22383388542E+03  0.00000000000E+00 0.  1.
         13    1    5    5    0    0  0.66050345468E+02  0.11452492937E+02  0.17220137259E+02  0.69212288346E+02  0.00000000000E+00 0.  1.
        -13    1    5    5    0    0  0.33987007140E+03 -0.13212164163E+03  0.17957956382E+03  0.40646846540E+03  0.00000000000E+00 0. -1.
          1    1    6    6  503    0 -0.39305207572E+02  0.12516220715E+03  0.63865664755E+02  0.14590853496E+03  0.00000000000E+00 0.  1.
         -1    1    6    6    0  503 -0.88434976217E+02  0.43235892359E+02  0.34943378843E+02  0.10445634079E+03  0.00000000000E+00 0. -1.
<mgrwt>
<rscale>  0 0.47273094E+03</rscale>
<asrwt>0</asrwt>
<pdfrwt beam="1">  1        1 0.43933540E-01 0.47273094E+03</pdfrwt>
<pdfrwt beam="2">  1       -1 0.12638681E+00 0.47273094E+03</pdfrwt>
<totfact> 0.53301219E+01</totfact>
</mgrwt>
</event>
<event>
12    1  0.1444206E-007  0.7068001E+03  0.7818608E-02  0.9705673E-01
         -2   -1    0    0    0  501 -0.00000000000E+00  0.00000000000E+00  0.24664833299E+03  0.24664833299E+03  0.00000000000E+00 0.  1.
          2   -1    0    0  501    0  0.00000000000E+00 -0.00000000000E+00 -0.26838660672E+04  0.26838660672E+04  0.00000000000E+00 0. -1.
         23    2    1    2    0    0  0.61804857162E+03  0.29849485307E+03 -0.81233945108E+03  0.10673753185E+04  0.91167278006E+02 0.  0.
    5000000    2    1    2    0    0 -0.61804857162E+03 -0.29849485307E+03 -0.16248782831E+04  0.18631390817E+04  0.59997882337E+03 0.  0.
         23    2    4    4    0    0 -0.27616196014E+03 -0.36850765101E+02 -0.16024927872E+03  0.33408583770E+03  0.91159796545E+02 0.  0.
         23    2    4    4    0    0 -0.34188661149E+03 -0.26164408796E+03 -0.14646290044E+04  0.15290532440E+04  0.86727264926E+02 0.  0.
          4    1    3    3  502    0  0.13255165911E+03  0.62026535911E+02 -0.23497574159E+03  0.27682274586E+03  0.00000000000E+00 0. -1.
         -4    1    3    3    0  502  0.48549691252E+03  0.23646831716E+03 -0.57736370949E+03  0.79055257265E+03  0.00000000000E+00 0.  1.
         13    1    5    5    0    0 -0.24596152003E+03 -0.62150761226E+02 -0.13648950745E+03  0.28807841311E+03  0.00000000000E+00 0. -1.
        -13    1    5    5    0    0 -0.30200440107E+02  0.25299996124E+02 -0.23759771268E+02  0.46007424589E+02  0.00000000000E+00 0.  1.
          4    1    6    6  503    0 -0.13749758632E+03 -0.71473631416E+02 -0.63815321114E+03  0.65669900801E+03  0.00000000000E+00 0.  1.
         -4    1    6    6    0  503 -0.20438902517E+03 -0.19017045655E+03 -0.82647579325E+03  0.87235423595E+03  0.00000000000E+00 0. -1.
<mgrwt>
<rscale>  0 0.70680011E+03</rscale>
<asrwt>0</asrwt>
<pdfrwt beam="1">  1        2 0.41290248E+00 0.70680011E+03</pdfrwt>
<pdfrwt beam="2">  1       -2 0.37945897E-01 0.70680011E+03</pdfrwt>
<totfact> 0.18832591E+01</totfact>
</mgrwt>
</event>
<event>
12    1  0.1444206E-007  0.1733071E+04  0.7818608E-02  0.8742724E-01
          2   -1    0    0  501    0  0.00000000000E+00  0.00000000000E+00  0.18416931248E+04  0.18416931248E+04  0.00000000000E+00 0. -1.
         -2   -1    0    0    0  501 -0.00000000000E+00 -0.00000000000E+00 -0.17274127959E+04  0.17274127959E+04  0.00000000000E+00 0.  1.
         23    2    1    2    0    0  0.12115567249E+04 -0.12124817211E+04  0.30484284014E+03  0.17431243834E+04  0.87016303487E+02 0.  0.
    5000000    2    1    2    0    0 -0.12115567249E+04  0.12124817211E+04 -0.19056251132E+03  0.18259815373E+04  0.59992739748E+03 0.  0.
         23    2    4    4    0    0 -0.41578106458E+03  0.20887382423E+03 -0.26114939178E+03  0.54001409916E+03  0.83150792831E+02 0.  0.
         23    2    4    4    0    0 -0.79577566030E+03  0.10036078969E+04  0.70586880455E+02  0.12859674382E+04  0.90785638142E+02 0.  0.
          4    1    3    3  502    0  0.58301043017E+03 -0.55137709887E+03  0.18028995379E+03  0.82244898582E+03  0.00000000000E+00 0.  1.
         -4    1    3    3    0  502  0.62854629472E+03 -0.66110462227E+03  0.12455288635E+03  0.92067539757E+03  0.00000000000E+00 0. -1.
         13    1    5    5    0    0 -0.11073663785E+03  0.25150933849E+02 -0.37871268036E+02  0.11970549435E+03  0.00000000000E+00 0. -1.
        -13    1    5    5    0    0 -0.30504442674E+03  0.18372289038E+03 -0.22327812374E+03  0.42030860481E+03  0.00000000000E+00 0.  1.
          4    1    6    6  503    0 -0.62199526430E+03  0.74939470070E+03  0.85728168495E+02  0.97766039355E+03  0.00000000000E+00 0. -1.
         -4    1    6    6    0  503 -0.17378039600E+03  0.25421319621E+03 -0.15141288040E+02  0.30830704462E+03  0.00000000000E+00 0.  1.
<mgrwt>
<rscale>  0 0.17330707E+04</rscale>
<asrwt>0</asrwt>
<pdfrwt beam="1">  1        2 0.28333740E+00 0.17330707E+04</pdfrwt>
<pdfrwt beam="2">  1       -2 0.26575582E+00 0.17330707E+04</pdfrwt>
<totfact> 0.38567331E-01</totfact>
</mgrwt>
</event>
<event>
12    1  0.1444206E-007  0.5395186E+03  0.7818608E-02  0.1003949E+00
         -2   -1    0    0    0  501 -0.00000000000E+00  0.00000000000E+00  0.89637601604E+03  0.89637601604E+03  0.00000000000E+00 0. -1.
          2   -1    0    0  501    0  0.00000000000E+00 -0.00000000000E+00 -0.41415831974E+03  0.41415831974E+03  0.00000000000E+00 0.  1.
         23    2    1    2    0    0  0.37971248014E+03  0.30671714398E+01  0.45644898691E+03  0.60068229314E+03  0.91008595850E+02 0.  0.
    5000000    2    1    2    0    0 -0.37971248014E+03 -0.30671714398E+01  0.25768709379E+02  0.70985204264E+03  0.59919522774E+03 0.  0.
         23    2    4    4    0    0  0.13490771277E+03  0.55624760080E+02  0.59590289895E+02  0.18382029893E+03  0.94576396357E+02 0.  0.
         23    2    4    4    0    0 -0.51462019292E+03 -0.58691931520E+02 -0.33821580516E+02  0.52603174372E+03  0.85362815710E+02 0.  0.
          1    1    3    3  502    0  0.12473090141E+03 -0.37052374381E+02  0.12347757473E+03  0.17938056660E+03  0.00000000000E+00 0. -1.
         -1    1    3    3    0  502  0.25498157873E+03  0.40119545820E+02  0.33297141218E+03  0.42130172653E+03  0.00000000000E+00 0.  1.
         11    1    5    5    0    0  0.12325171467E+03  0.14822944052E+02  0.19914396635E+02  0.12572703779E+03  0.00000000000E+00 0. -1.
        -11    1    5    5    0    0  0.11655998106E+02  0.40801816028E+02  0.39675893260E+02  0.58093261133E+02  0.00000000000E+00 0.  1.
          2    1    6    6  503    0 -0.10251295906E+03 -0.44829413676E+02 -0.18509912477E+02  0.11340723066E+03  0.00000000000E+00 0. -1.
         -2    1    6    6    0  503 -0.41210723386E+03 -0.13862517844E+02 -0.15311668039E+02  0.41262451306E+03  0.00000000000E+00 0.  1.
<mgrwt>
<rscale>  0 0.53951860E+03</rscale>
<asrwt>0</asrwt>
<pdfrwt beam="1">  1        2 0.63716665E-01 0.53951860E+03</pdfrwt>
<pdfrwt beam="2">  1       -2 0.13790400E+00 0.53951860E+03</pdfrwt>
<totfact> 0.29441751E+01</totfact>
</mgrwt>
</event>
<event>
12    1  0.1444206E-007  0.6496490E+03  0.7818608E-02  0.9807438E-01
         -2   -1    0    0    0  501 -0.00000000000E+00  0.00000000000E+00  0.87989285192E+03  0.87989285192E+03  0.00000000000E+00 0. -1.
          2   -1    0    0  501    0  0.00000000000E+00 -0.00000000000E+00 -0.23898851903E+04  0.23898851903E+04  0.00000000000E+00 0.  1.
         23    2    1    2    0    0 -0.49089213532E+03  0.26603220646E+03  0.70731375451E+03  0.90583588288E+03  0.92182840037E+02 0.  0.
    5000000    2    1    2    0    0  0.49089213532E+03 -0.26603220646E+03 -0.22173060929E+04  0.23639421593E+04  0.60002333266E+03 0.  0.
         23    2    4    4    0    0  0.79632749927E+02 -0.29202018500E+03 -0.47057540214E+03  0.56697372215E+03  0.91656037396E+02 0.  0.
         23    2    4    4    0    0  0.41125938539E+03  0.25987978546E+02 -0.17467306908E+04  0.17969684372E+04  0.90652088582E+02 0.  0.
          3    1    3    3  502    0 -0.16969106505E+03  0.14250327064E+03  0.26605202139E+03  0.34624545887E+03  0.00000000000E+00 0. -1.
         -3    1    3    3    0  502 -0.32120107027E+03  0.12352893582E+03  0.44126173312E+03  0.55959042401E+03  0.00000000000E+00 0.  1.
         13    1    5    5    0    0  0.73125880114E+02 -0.11335237375E+03 -0.16713299454E+03  0.21477800828E+03  0.00000000000E+00 0. -1.
        -13    1    5    5    0    0  0.65068698136E+01 -0.17866781125E+03 -0.30344240760E+03  0.35219571386E+03  0.00000000000E+00 0.  1.
          2    1    6    6  503    0  0.34832649086E+03 -0.78991297715E+01 -0.15104192082E+04  0.15500838445E+04  0.00000000000E+00 0.  1.
         -2    1    6    6    0  503  0.62932894535E+02  0.33887108318E+02 -0.23631148257E+03  0.24688459271E+03  0.00000000000E+00 0. -1.
<mgrwt>
<rscale>  0 0.64964903E+03</rscale>
<asrwt>0</asrwt>
<pdfrwt beam="1">  1        2 0.36767465E+00 0.64964903E+03</pdfrwt>
<pdfrwt beam="2">  1       -2 0.13536813E+00 0.64964903E+03</pdfrwt>
<totfact> 0.16904056E+00</totfact>
</mgrwt>
</event>
<event>
12    1  0.1444206E-007  0.5492297E+03  0.7818608E-02  0.1001672E+00
          2   -1    0    0  501    0  0.00000000000E+00  0.00000000000E+00  0.11376577873E+04  0.11376577873E+04  0.00000000000E+00 0. -1.
         -2   -1    0    0    0  501 -0.00000000000E+00 -0.00000000000E+00 -0.51063024721E+03  0.51063024721E+03  0.00000000000E+00 0.  1.
         23    2    1    2    0    0 -0.14393553299E+03 -0.50751668226E+03  0.65903182279E+03  0.84905522504E+03  0.91001160905E+02 0.  0.
    5000000    2    1    2    0    0  0.14393553299E+03  0.50751668226E+03 -0.32004282734E+02  0.79923280944E+03  0.59954832095E+03 0.  0.
         23    2    4    4    0    0 -0.26854884226E+02  0.15428174444E+03 -0.27351006277E+03  0.32773937632E+03  0.89896067109E+02 0.  0.
         23    2    4    4    0    0  0.17079041722E+03  0.35323493781E+03  0.24150578003E+03  0.47149343312E+03  0.10018347062E+03 0.  0.
          1    1    3    3  502    0 -0.54143503451E+02 -0.18224840523E+03  0.30943248298E+03  0.36317277114E+03  0.00000000000E+00 0. -1.
         -1    1    3    3    0  502 -0.89792029541E+02 -0.32526827702E+03  0.34959933981E+03  0.48588245390E+03  0.00000000000E+00 0.  1.
         13    1    5    5    0    0  0.67445787325E+01 -0.66321905013E+01 -0.46552786494E+02  0.47504075862E+02  0.00000000000E+00 0.  1.
        -13    1    5    5    0    0 -0.33599462958E+02  0.16091393495E+03 -0.22695727627E+03  0.28023530046E+03  0.00000000000E+00 0. -1.
          1    1    6    6  503    0  0.10024280092E+03  0.26966755726E+03  0.13132984619E+03  0.31625423171E+03  0.00000000000E+00 0. -1.
         -1    1    6    6    0  503  0.70547616299E+02  0.83567380557E+02  0.11017593384E+03  0.15523920142E+03  0.00000000000E+00 0.  1.
<mgrwt>
<rscale>  0 0.54922969E+03</rscale>
<asrwt>0</asrwt>
<pdfrwt beam="1">  1        2 0.17502427E+00 0.54922969E+03</pdfrwt>
<pdfrwt beam="2">  1       -2 0.78558500E-01 0.54922969E+03</pdfrwt>
<totfact> 0.31003405E+01</totfact>
</mgrwt>
</event>
<event>
12    1  0.1444206E-007  0.6448177E+03  0.7818608E-02  0.9816552E-01
         -1   -1    0    0    0  501 -0.00000000000E+00  0.00000000000E+00  0.34653641572E+03  0.34653641572E+03  0.00000000000E+00 0.  1.
          1   -1    0    0  501    0  0.00000000000E+00 -0.00000000000E+00 -0.43011586955E+04  0.43011586955E+04  0.00000000000E+00 0. -1.
         23    2    1    2    0    0 -0.42220846696E+03  0.34897460465E+03  0.53670499386E+02  0.55792034070E+03  0.91385555759E+02 0.  0.
    5000000    2    1    2    0    0  0.42220846696E+03 -0.34897460465E+03 -0.40082927791E+04  0.40897747705E+04  0.59983614914E+03 0.  0.
         23    2    4    4    0    0  0.50594675941E+03 -0.18174984209E+03 -0.34706491830E+04  0.35131854679E+04  0.89728770268E+02 0.  0.
         23    2    4    4    0    0 -0.83738292451E+02 -0.16722476256E+03 -0.53764359616E+03  0.57658930258E+03  0.91751645874E+02 0.  0.
          3    1    3    3  502    0 -0.30263152986E+03  0.20006869903E+03  0.15168788367E+02  0.36310249150E+03  0.00000000000E+00 0. -1.
         -3    1    3    3    0  502 -0.11957693710E+03  0.14890590562E+03  0.38501711019E+02  0.19481784920E+03  0.00000000000E+00 0.  1.
         13    1    5    5    0    0  0.18797388687E+03 -0.11278989734E+03 -0.13271038677E+04  0.13450875134E+04  0.00000000000E+00 0.  1.
        -13    1    5    5    0    0  0.31797287254E+03 -0.68959944749E+02 -0.21435453153E+04  0.21680979545E+04  0.00000000000E+00 0. -1.
          3    1    6    6  503    0 -0.72117674686E+00 -0.36042878376E+02 -0.33969391090E+02  0.49533107197E+02  0.00000000000E+00 0. -1.
         -3    1    6    6    0  503 -0.83017115704E+02 -0.13118188418E+03 -0.50367420507E+03  0.52705619539E+03  0.00000000000E+00 0.  1.
<mgrwt>
<rscale>  0 0.64481771E+03</rscale>
<asrwt>0</asrwt>
<pdfrwt beam="1">  1        1 0.66171672E+00 0.64481771E+03</pdfrwt>
<pdfrwt beam="2">  1       -1 0.53313295E-01 0.64481771E+03</pdfrwt>
<totfact> 0.20969299E-01</totfact>
</mgrwt>
</event>
<event>
12    1  0.1444206E-007  0.7700907E+03  0.7818608E-02  0.9604348E-01
          2   -1    0    0  501    0  0.00000000000E+00  0.00000000000E+00  0.16205361783E+04  0.16205361783E+04  0.00000000000E+00 0. -1.
         -2   -1    0    0    0  501 -0.00000000000E+00 -0.00000000000E+00 -0.40247939599E+03  0.40247939599E+03  0.00000000000E+00 0.  1.
         23    2    1    2    0    0 -0.13060954462E+02  0.67384303476E+03  0.31682512832E+03  0.74774979475E+03  0.67205428281E+02 0.  0.
    5000000    2    1    2    0    0  0.13060954462E+02 -0.67384303476E+03  0.90123165396E+03  0.12752657795E+04  0.59987439541E+03 0.  0.
         23    2    4    4    0    0  0.27661070972E+03 -0.29398732511E+03  0.30101137426E+03  0.51202219115E+03  0.92826961269E+02 0.  0.
         23    2    4    4    0    0 -0.26354975526E+03 -0.37985570964E+03  0.60022027970E+03  0.76324358836E+03  0.92344774390E+02 0.  0.
          2    1    3    3  502    0 -0.11368858534E+02  0.37275501585E+03  0.13852880992E+03  0.39782632387E+03  0.00000000000E+00 0. -1.
         -2    1    3    3    0  502 -0.16920959283E+01  0.30108801891E+03  0.17829631839E+03  0.34992347088E+03  0.00000000000E+00 0.  1.
         13    1    5    5    0    0  0.24582302694E+03 -0.25571373801E+03  0.22034311081E+03  0.41757581690E+03  0.00000000000E+00 0. -1.
        -13    1    5    5    0    0  0.30787682781E+02 -0.38273587107E+02  0.80668263450E+02  0.94446374250E+02  0.00000000000E+00 0.  1.
          2    1    6    6  503    0 -0.16898172493E+03 -0.24247091352E+03  0.30858528022E+03  0.42728426420E+03  0.00000000000E+00 0. -1.
         -2    1    6    6    0  503 -0.94568030326E+02 -0.13738479613E+03  0.29163499948E+03  0.33595932416E+03  0.00000000000E+00 0.  1.
<mgrwt>
<rscale>  0 0.77009072E+03</rscale>
<asrwt>0</asrwt>
<pdfrwt beam="1">  1        2 0.24931326E+00 0.77009072E+03</pdfrwt>
<pdfrwt beam="2">  1       -2 0.61919908E-01 0.77009072E+03</pdfrwt>
<totfact> 0.26917957E+01</totfact>
</mgrwt>
</event>
<event>
12    1  0.1444206E-007  0.1808452E+04  0.7818608E-02  0.8701817E-01
          2   -1    0    0  501    0  0.00000000000E+00  0.00000000000E+00  0.23978463036E+04  0.23978463036E+04  0.00000000000E+00 0. -1.
         -2   -1    0    0    0  501 -0.00000000000E+00 -0.00000000000E+00 -0.14314922320E+04  0.14314922320E+04  0.00000000000E+00 0.  1.
         23    2    1    2    0    0 -0.13439970037E+04 -0.11516153954E+04  0.11578876393E+03  0.17760656375E+04  0.91957306681E+02 0.  0.
    5000000    2    1    2    0    0  0.13439970037E+04  0.11516153954E+04  0.85056530766E+03  0.20532728981E+04  0.59993523547E+03 0.  0.
         23    2    4    4    0    0  0.12208398642E+04  0.77329628132E+03  0.75813280285E+03  0.16351218134E+04  0.10208273737E+03 0.  0.
         23    2    4    4    0    0  0.12315713948E+03  0.37831911404E+03  0.92432504810E+02  0.41815108467E+03  0.89518314421E+02 0.  0.
          3    1    3    3  502    0 -0.65577061405E+03 -0.50377796798E+03  0.66567621573E+02  0.82961351695E+03  0.00000000000E+00 0. -1.
         -3    1    3    3    0  502 -0.68822638964E+03 -0.64783742737E+03  0.49221142356E+02  0.94645212059E+03  0.00000000000E+00 0.  1.
         11    1    5    5    0    0  0.75288649873E+03  0.51260212854E+03  0.52107545034E+03  0.10493420067E+04  0.00000000000E+00 0. -1.
        -11    1    5    5    0    0  0.46795336548E+03  0.26069415277E+03  0.23705735251E+03  0.58577980670E+03  0.00000000000E+00 0.  1.
          2    1    6    6  503    0  0.43729051063E+02  0.10684944909E+03  0.68608295027E+02  0.13429867023E+03  0.00000000000E+00 0. -1.
         -2    1    6    6    0  503  0.79428088417E+02  0.27146966495E+03  0.23824209782E+02  0.28385241445E+03  0.00000000000E+00 0.  1.
<mgrwt>
<rscale>  0 0.18084525E+04</rscale>
<asrwt>0</asrwt>
<pdfrwt beam="1">  1        2 0.36889943E+00 0.18084525E+04</pdfrwt>
<pdfrwt beam="2">  1       -2 0.22022957E+00 0.18084525E+04</pdfrwt>
<totfact> 0.35700426E-01</totfact>
</mgrwt>
</event>
<event>
12    1  0.1444206E-007  0.9414727E+03  0.7818608E-02  0.9375174E-01
         -2   -1    0    0    0  501 -0.00000000000E+00  0.00000000000E+00  0.70024650900E+03  0.70024650900E+03  0.00000000000E+00 0.  1.
          2   -1    0    0  501    0  0.00000000000E+00 -0.00000000000E+00 -0.16842446663E+04  0.16842446663E+04  0.00000000000E+00 0. -1.
         23    2    1    2    0    0 -0.13156359404E+03 -0.88055991160E+03  0.47055316325E+02  0.89590077711E+03  0.87916223981E+02 0.  0.
    5000000    2    1    2    0    0  0.13156359404E+03  0.88055991160E+03 -0.10310534736E+04  0.14885903981E+04  0.60011279845E+03 0.  0.
         23    2    4    4    0    0 -0.40056071741E+01 -0.11869892788E+02 -0.33023731828E+03  0.34202915299E+03  0.88149395161E+02 0.  0.
         23    2    4    4    0    0  0.13556920122E+03  0.89242980439E+03 -0.70081615531E+03  0.11465612452E+04  0.93002372415E+02 0.  0.
          4    1    3    3  502    0 -0.71727540333E+01 -0.17583182241E+03  0.38930093119E+02  0.18023271158E+03  0.00000000000E+00 0. -1.
         -4    1    3    3    0  502 -0.12439084001E+03 -0.70472808919E+03  0.81252232063E+01  0.71566806553E+03  0.00000000000E+00 0.  1.
         13    1    5    5    0    0 -0.31239097419E+02  0.26907547947E+02 -0.17031209854E+03  0.17523158464E+03  0.00000000000E+00 0. -1.
        -13    1    5    5    0    0  0.27233490245E+02 -0.38777440735E+02 -0.15992521973E+03  0.16679756835E+03  0.00000000000E+00 0.  1.
          3    1    6    6  503    0  0.46630682318E+02  0.34125560761E+03 -0.32497615921E+03  0.47353913704E+03  0.00000000000E+00 0. -1.
         -3    1    6    6    0  503  0.88938518900E+02  0.55117419678E+03 -0.37583999609E+03  0.67302210811E+03  0.00000000000E+00 0.  1.
<mgrwt>
<rscale>  0 0.94147274E+03</rscale>
<asrwt>0</asrwt>
<pdfrwt beam="1">  1        2 0.25911457E+00 0.94147274E+03</pdfrwt>
<pdfrwt beam="2">  1       -2 0.10773023E+00 0.94147274E+03</pdfrwt>
<totfact> 0.69358694E+00</totfact>
</mgrwt>
</event>
<event>
12    1  0.1444206E-007  0.9065795E+03  0.7818608E-02  0.9417394E-01
         -2   -1    0    0    0  501 -0.00000000000E+00  0.00000000000E+00  0.11054285310E+04  0.11054285310E+04  0.00000000000E+00 0.  1.
          2   -1    0    0  501    0  0.00000000000E+00 -0.00000000000E+00 -0.10776814722E+04  0.10776814722E+04  0.00000000000E+00 0. -1.
         23    2    1    2    0    0  0.80996755114E+03  0.12961325936E+03 -0.57091100509E+03  0.10035383192E+04  0.91119434666E+02 0.  0.
    5000000    2    1    2    0    0 -0.80996755114E+03 -0.12961325936E+03  0.59865806395E+03  0.11795716841E+04  0.60012569466E+03 0.  0.
         23    2    4    4    0    0  0.60076270847E+02 -0.32958831273E+02  0.16100703785E+03  0.19592169730E+03  0.88128328908E+02 0.  0.
         23    2    4    4    0    0 -0.87004382199E+03 -0.96654428091E+02  0.43765102609E+03  0.98364998675E+03  0.98542098409E+02 0.  0.
          3    1    3    3  502    0  0.32122320890E+03  0.68743050214E+01 -0.21465401102E+03  0.38640386961E+03  0.00000000000E+00 0. -1.
         -3    1    3    3    0  502  0.48874434224E+03  0.12273895434E+03 -0.35625699407E+03  0.61713444954E+03  0.00000000000E+00 0.  1.
         11    1    5    5    0    0  0.53602924702E+01 -0.50932650408E+02  0.97890860256E+02  0.11047845100E+03  0.00000000000E+00 0. -1.
        -11    1    5    5    0    0  0.54715978377E+02  0.17973819136E+02  0.63116177599E+02  0.85443246303E+02  0.00000000000E+00 0.  1.
          1    1    6    6  503    0 -0.21827988239E+03 -0.59834373964E+02  0.14052131424E+03  0.26640664241E+03  0.00000000000E+00 0. -1.
         -1    1    6    6    0  503 -0.65176393959E+03 -0.36820054126E+02  0.29712971185E+03  0.71724334434E+03  0.00000000000E+00 0.  1.
<mgrwt>
<rscale>  0 0.90657952E+03</rscale>
<asrwt>0</asrwt>
<pdfrwt beam="1">  1        2 0.16579715E+00 0.90657952E+03</pdfrwt>
<pdfrwt beam="2">  1       -2 0.17006593E+00 0.90657952E+03</pdfrwt>
<totfact> 0.47946969E+00</totfact>
</mgrwt>
</event>
<event>
12    1  0.1444206E-007  0.4955357E+03  0.7818608E-02  0.1014951E+00
          2   -1    0    0  501    0  0.00000000000E+00  0.00000000000E+00  0.15488659397E+04  0.15488659397E+04  0.00000000000E+00 0. -1.
         -2   -1    0    0    0  501 -0.00000000000E+00 -0.00000000000E+00 -0.24718760861E+03  0.24718760861E+03  0.00000000000E+00 0.  1.
         23    2    1    2    0    0  0.19609777391E+02 -0.44338808455E+03  0.70724805039E+03  0.84182722643E+03  0.10721817701E+03 0.  0.
    5000000    2    1    2    0    0 -0.19609777391E+02  0.44338808455E+03  0.59443028068E+03  0.95422632186E+03  0.60018578610E+03 0.  0.
         23    2    4    4    0    0 -0.14853359437E+03  0.19054691908E+03  0.60305497274E+03  0.65641345480E+03  0.93983862787E+02 0.  0.
         23    2    4    4    0    0  0.12892381698E+03  0.25284116547E+03 -0.86246920605E+01  0.29781286706E+03  0.89822674926E+02 0.  0.
          4    1    3    3  502    0 -0.17576632074E+02 -0.21179616170E+03  0.42225699638E+03  0.47272351655E+03  0.00000000000E+00 0. -1.
         -4    1    3    3    0  502  0.37186409465E+02 -0.23159192286E+03  0.28499105400E+03  0.36910370987E+03  0.00000000000E+00 0.  1.
         13    1    5    5    0    0 -0.64916151090E+02  0.13317974808E+03  0.44124238970E+03  0.46545225151E+03  0.00000000000E+00 0. -1.
        -13    1    5    5    0    0 -0.83617443282E+02  0.57367171006E+02  0.16181258305E+03  0.19096120329E+03  0.00000000000E+00 0.  1.
          2    1    6    6  503    0 -0.27650411838E+01  0.64793997786E+02  0.16359455057E+02  0.66884522661E+02  0.00000000000E+00 0.  1.
         -2    1    6    6    0  503  0.13168885816E+03  0.18804716768E+03 -0.24984147117E+02  0.23092834440E+03  0.00000000000E+00 0. -1.
<mgrwt>
<rscale>  0 0.49553574E+03</rscale>
<asrwt>0</asrwt>
<pdfrwt beam="1">  1        2 0.23828706E+00 0.49553574E+03</pdfrwt>
<pdfrwt beam="2">  1       -2 0.38028864E-01 0.49553574E+03</pdfrwt>
<totfact> 0.81754723E+01</totfact>
</mgrwt>
</event>
<event>
12    1  0.1444206E-007  0.4851695E+03  0.7818608E-02  0.1017724E+00
         -1   -1    0    0    0  501 -0.00000000000E+00  0.00000000000E+00  0.26434467685E+03  0.26434467685E+03  0.00000000000E+00 0.  1.
          1   -1    0    0  501    0  0.00000000000E+00 -0.00000000000E+00 -0.16010287654E+04  0.16010287654E+04  0.00000000000E+00 0. -1.
         23    2    1    2    0    0  0.35909625842E+02  0.32545187259E+03  0.24619719404E+02  0.34209569470E+03  0.95994328728E+02 0.  0.
    5000000    2    1    2    0    0 -0.35909625842E+02 -0.32545187259E+03 -0.13613038080E+04  0.15232777476E+04  0.60001551316E+03 0.  0.
         23    2    4    4    0    0 -0.14634203069E+03 -0.42989094425E+03 -0.11902696678E+04  0.12769148208E+04  0.86875564074E+02 0.  0.
         23    2    4    4    0    0  0.11043240485E+03  0.10443907167E+03 -0.17103414016E+03  0.24636292674E+03  0.91319104473E+02 0.  0.
          3    1    3    3  502    0 -0.17485416761E+02  0.44862412211E+02  0.29428327667E+02  0.56430508575E+02  0.00000000000E+00 0. -1.
         -3    1    3    3    0  502  0.53395042603E+02  0.28058946038E+03 -0.48086082630E+01  0.28566518612E+03  0.00000000000E+00 0.  1.
         11    1    5    5    0    0 -0.10732121849E+03 -0.38642747768E+03 -0.10812707806E+04  0.11532521582E+04  0.00000000000E+00 0. -1.
        -11    1    5    5    0    0 -0.39020812193E+02 -0.43463466575E+02 -0.10899888721E+03  0.12366266261E+03  0.00000000000E+00 0.  1.
          1    1    6    6  503    0  0.11217605252E+03  0.50305169232E+02 -0.12427008415E+03  0.17480597995E+03  0.00000000000E+00 0. -1.
         -1    1    6    6    0  503 -0.17436476751E+01  0.54133902434E+02 -0.46764056005E+02  0.71556946790E+02  0.00000000000E+00 0.  1.
<mgrwt>
<rscale>  0 0.48516946E+03</rscale>
<asrwt>0</asrwt>
<pdfrwt beam="1">  1        1 0.24631212E+00 0.48516946E+03</pdfrwt>
<pdfrwt beam="2">  1       -1 0.40668412E-01 0.48516946E+03</pdfrwt>
<totfact> 0.35344431E+01</totfact>
</mgrwt>
</event>
<event>
12    1  0.1444206E-007  0.6827287E+03  0.7818608E-02  0.9747233E-01
         -1   -1    0    0    0  501 -0.00000000000E+00  0.00000000000E+00  0.12290648644E+04  0.12290648644E+04  0.00000000000E+00 0.  1.
          1   -1    0    0  501    0  0.00000000000E+00 -0.00000000000E+00 -0.79788442005E+03  0.79788442005E+03  0.00000000000E+00 0. -1.
         23    2    1    2    0    0  0.21370651311E+03  0.58987152271E+03  0.85450418314E+03  0.10621422655E+04  0.65953817909E+02 0.  0.
    5000000    2    1    2    0    0 -0.21370651311E+03 -0.58987152271E+03 -0.42332373880E+03  0.96480701894E+03  0.59835667367E+03 0.  0.
         23    2    4    4    0    0  0.35595620501E+02 -0.42030207268E+03 -0.47899690697E+03  0.64470641018E+03  0.91035366397E+02 0.  0.
         23    2    4    4    0    0 -0.24930213361E+03 -0.16956945003E+03  0.55673168175E+02  0.32010060877E+03  0.91975789600E+02 0.  0.
          2    1    3    3  502    0  0.11886711001E+03  0.40642418234E+03  0.54756505794E+03  0.69219758633E+03  0.00000000000E+00 0. -1.
         -2    1    3    3    0  502  0.94839403106E+02  0.18344734037E+03  0.30693912520E+03  0.36994467917E+03  0.00000000000E+00 0.  1.
         11    1    5    5    0    0  0.29678034389E+02 -0.31623709772E+03 -0.29633549034E+03  0.43439775613E+03  0.00000000000E+00 0.  1.
        -11    1    5    5    0    0  0.59175861122E+01 -0.10406497496E+03 -0.18266141663E+03  0.21030865405E+03  0.00000000000E+00 0. -1.
          2    1    6    6  503    0 -0.22229109298E+03 -0.10955418842E+03  0.30732342278E+02  0.24971969702E+03  0.00000000000E+00 0. -1.
         -2    1    6    6    0  503 -0.27011040637E+02 -0.60015261612E+02  0.24940825897E+02  0.70380911752E+02  0.00000000000E+00 0.  1.
<mgrwt>
<rscale>  0 0.68272871E+03</rscale>
<asrwt>0</asrwt>
<pdfrwt beam="1">  1        1 0.12275145E+00 0.68272871E+03</pdfrwt>
<pdfrwt beam="2">  1       -1 0.18908690E+00 0.68272871E+03</pdfrwt>
<totfact> 0.41766651E+00</totfact>
</mgrwt>
</event>
<event>
12    1  0.1444206E-007  0.8337125E+03  0.7818608E-02  0.9512462E-01
         -1   -1    0    0    0  501 -0.00000000000E+00  0.00000000000E+00  0.21140894582E+03  0.21140894582E+03  0.00000000000E+00 0.  1.
          1   -1    0    0  501    0  0.00000000000E+00 -0.00000000000E+00 -0.39260854265E+04  0.39260854265E+04  0.00000000000E+00 0. -1.
         23    2    1    2    0    0  0.30929269191E+03  0.67369159851E+03 -0.23986766920E+04  0.25122911486E+04  0.91840098186E+02 0.  0.
    5000000    2    1    2    0    0 -0.30929269191E+03 -0.67369159851E+03 -0.13159997886E+04  0.16252032237E+04  0.59992310781E+03 0.  0.
         23    2    4    4    0    0 -0.36267436038E+03 -0.15801250600E+03 -0.74528574837E+03  0.84865813432E+03  0.90934803537E+02 0.  0.
         23    2    4    4    0    0  0.53381668473E+02 -0.51567909251E+03 -0.57071404027E+03  0.77654508933E+03  0.92375489266E+02 0.  0.
          4    1    3    3  502    0  0.93467981159E+02  0.27059324384E+03 -0.10433919959E+04  0.10819537071E+04  0.00000000000E+00 0.  1.
         -4    1    3    3    0  502  0.21582471075E+03  0.40309835467E+03 -0.13552846961E+04  0.14303374415E+04  0.00000000000E+00 0. -1.
         13    1    5    5    0    0 -0.33802363559E+03 -0.13325168073E+03 -0.62029085031E+03  0.71887184366E+03  0.00000000000E+00 0.  1.
        -13    1    5    5    0    0 -0.24650724788E+02 -0.24760825270E+02 -0.12499489807E+03  0.12978629066E+03  0.00000000000E+00 0. -1.
          4    1    6    6  503    0 -0.23973100939E+02 -0.10247135940E+03 -0.95970081395E+02  0.14242663230E+03  0.00000000000E+00 0.  1.
         -4    1    6    6    0  503  0.77354769411E+02 -0.41320773311E+03 -0.47474395887E+03  0.63411845702E+03  0.00000000000E+00 0. -1.
<mgrwt>
<rscale>  0 0.83371254E+03</rscale>
<asrwt>0</asrwt>
<pdfrwt beam="1">  1        1 0.60401311E+00 0.83371254E+03</pdfrwt>
<pdfrwt beam="2">  1       -1 0.32524455E-01 0.83371254E+03</pdfrwt>
<totfact> 0.10660502E+00</totfact>
</mgrwt>
</event>
<event>
12    1  0.1444206E-007  0.1644341E+04  0.7818608E-02  0.8793761E-01
         -2   -1    0    0    0  501 -0.00000000000E+00  0.00000000000E+00  0.17737432895E+04  0.17737432895E+04  0.00000000000E+00 0. -1.
          2   -1    0    0  501    0  0.00000000000E+00 -0.00000000000E+00 -0.15364825682E+04  0.15364825682E+04  0.00000000000E+00 0.  1.
         23    2    1    2    0    0 -0.25492019132E+03  0.15744390911E+04  0.10363474759E+03  0.16008925473E+04  0.90961703319E+02 0.  0.
    5000000    2    1    2    0    0  0.25492019132E+03 -0.15744390911E+04  0.13362597367E+03  0.17093333104E+04  0.60010141618E+03 0.  0.
         23    2    4    4    0    0  0.16620213603E+03 -0.82915146671E+02  0.19124699149E+02  0.20787183523E+03  0.91361229173E+02 0.  0.
         23    2    4    4    0    0  0.88718055286E+02 -0.14915239445E+04  0.11450127452E+03  0.15014614752E+04  0.93602614375E+02 0.  0.
          1    1    3    3  502    0 -0.15936813817E+03  0.12089965526E+04  0.64843966275E+02  0.12211779590E+04  0.00000000000E+00 0. -1.
         -1    1    3    3    0  502 -0.95552053146E+02  0.36544253852E+03  0.38790781318E+02  0.37971458825E+03  0.00000000000E+00 0.  1.
         13    1    5    5    0    0  0.81930564793E+02 -0.83315397579E+01 -0.26392638699E+02  0.86478918700E+02  0.00000000000E+00 0. -1.
        -13    1    5    5    0    0  0.84271571238E+02 -0.74583606913E+02  0.45517337848E+02  0.12139291653E+03  0.00000000000E+00 0.  1.
          2    1    6    6  503    0  0.10599795002E+03 -0.12817957094E+04  0.85164085817E+02  0.12889874815E+04  0.00000000000E+00 0. -1.
         -2    1    6    6    0  503 -0.17279894731E+02 -0.20972823505E+03  0.29337188701E+02  0.21247399365E+03  0.00000000000E+00 0.  1.
<mgrwt>
<rscale>  0 0.16443412E+04</rscale>
<asrwt>0</asrwt>
<pdfrwt beam="1">  1        2 0.23638193E+00 0.16443412E+04</pdfrwt>
<pdfrwt beam="2">  1       -2 0.27288359E+00 0.16443412E+04</pdfrwt>
<totfact> 0.52231539E-01</totfact>
</mgrwt>
</event>
<event>
12    1  0.1444206E-007  0.1038243E+04  0.7818608E-02  0.9267568E-01
          2   -1    0    0  501    0  0.00000000000E+00  0.00000000000E+00  0.44131638995E+04  0.44131638995E+04  0.00000000000E+00 0. -1.
         -2   -1    0    0    0  501 -0.00000000000E+00 -0.00000000000E+00 -0.26569300614E+03  0.26569300614E+03  0.00000000000E+00 0.  1.
         23    2    1    2    0    0 -0.23235226841E+03  0.96842588396E+03  0.17770136335E+04  0.20386060282E+04  0.79377674226E+02 0.  0.
    5000000    2    1    2    0    0  0.23235226841E+03 -0.96842588396E+03  0.23704572599E+04  0.26402508775E+04  0.60001733784E+03 0.  0.
         23    2    4    4    0    0  0.32065338722E+03 -0.79848616961E+03  0.13957212729E+04  0.16422762182E+04  0.92922265087E+02 0.  0.
         23    2    4    4    0    0 -0.88301118816E+02 -0.16993971434E+03  0.97473598699E+03  0.99797465931E+03  0.95742269592E+02 0.  0.
          3    1    3    3  502    0 -0.10634011501E+03  0.29254646995E+03  0.57584526210E+03  0.65459103494E+03  0.00000000000E+00 0. -1.
         -3    1    3    3    0  502 -0.12601215340E+03  0.67587941401E+03  0.12011683714E+04  0.13840149932E+04  0.00000000000E+00 0.  1.
         11    1    5    5    0    0  0.13776779562E+03 -0.23618360222E+03  0.41012617173E+03  0.49291595247E+03  0.00000000000E+00 0. -1.
        -11    1    5    5    0    0  0.18288559161E+03 -0.56230256740E+03  0.98559510117E+03  0.11493602657E+04  0.00000000000E+00 0.  1.
          3    1    6    6  503    0  0.11476129755E+02 -0.72828427903E+02  0.28990552301E+03  0.29913357173E+03  0.00000000000E+00 0. -1.
         -3    1    6    6    0  503 -0.99777248571E+02 -0.97111286441E+02  0.68483046398E+03  0.69884108758E+03  0.00000000000E+00 0.  1.
<mgrwt>
<rscale>  0 0.10382426E+04</rscale>
<asrwt>0</asrwt>
<pdfrwt beam="1">  1        2 0.67894824E+00 0.10382426E+04</pdfrwt>
<pdfrwt beam="2">  1       -2 0.40875850E-01 0.10382426E+04</pdfrwt>
<totfact> 0.89984702E-01</totfact>
</mgrwt>
</event>
<event>
12    1  0.1444206E-007  0.7827489E+03  0.7818608E-02  0.9585329E-01
         -1   -1    0    0    0  501 -0.00000000000E+00  0.00000000000E+00  0.78758425759E+03  0.78758425759E+03  0.00000000000E+00 0.  1.
          1   -1    0    0  501    0  0.00000000000E+00 -0.00000000000E+00 -0.12742740323E+04  0.12742740323E+04  0.00000000000E+00 0. -1.
         23    2    1    2    0    0  0.62454653728E+03  0.25539311856E+03  0.40556438854E+03  0.79246075316E+03  0.90705842253E+02 0.  0.
    5000000    2    1    2    0    0 -0.62454653728E+03 -0.25539311856E+03 -0.89225416328E+03  0.12693975368E+04  0.59997382626E+03 0.  0.
         23    2    4    4    0    0 -0.71447762403E+03 -0.24415186949E+03 -0.67372675139E+03  0.10155779952E+04  0.86037887898E+02 0.  0.
         23    2    4    4    0    0  0.89931086751E+02 -0.11241249072E+02 -0.21852741188E+03  0.25381954157E+03  0.91957402596E+02 0.  0.
          4    1    3    3  502    0  0.40844668191E+03  0.19940746284E+03  0.30664777584E+03  0.54829270160E+03  0.00000000000E+00 0. -1.
         -4    1    3    3    0  502  0.21609985537E+03  0.55985655723E+02  0.98916612697E+02  0.24416805156E+03  0.00000000000E+00 0.  1.
         11    1    5    5    0    0 -0.57969056534E+03 -0.16330198234E+03 -0.54894722819E+03  0.81489370369E+03  0.00000000000E+00 0. -1.
        -11    1    5    5    0    0 -0.13478705869E+03 -0.80849887152E+02 -0.12477952321E+03  0.20068429150E+03  0.00000000000E+00 0.  1.
          1    1    6    6  503    0  0.83791903896E+01  0.34022707878E+02 -0.72897095168E+02  0.80881035892E+02  0.00000000000E+00 0. -1.
         -1    1    6    6    0  503  0.81551896361E+02 -0.45263956950E+02 -0.14563031671E+03  0.17293850568E+03  0.00000000000E+00 0.  1.
<mgrwt>
<rscale>  0 0.78274889E+03</rscale>
<asrwt>0</asrwt>
<pdfrwt beam="1">  1        1 0.19604216E+00 0.78274889E+03</pdfrwt>
<pdfrwt beam="2">  1       -1 0.12116681E+00 0.78274889E+03</pdfrwt>
<totfact> 0.58937399E+00</totfact>
</mgrwt>
</event>
<event>
12    1  0.1444206E-007  0.4883733E+03  0.7818608E-02  0.1016859E+00
         -2   -1    0    0    0  501 -0.00000000000E+00  0.00000000000E+00  0.41315497215E+03  0.41315497215E+03  0.00000000000E+00 0. -1.
          2   -1    0    0  501    0  0.00000000000E+00 -0.00000000000E+00 -0.71618978562E+03  0.71618978562E+03  0.00000000000E+00 0.  1.
         23    2    1    2    0    0  0.33951245627E+03  0.14078052774E+03 -0.16068348331E+03  0.41146033273E+03  0.91610909016E+02 0.  0.
    5000000    2    1    2    0    0 -0.33951245627E+03 -0.14078052774E+03 -0.14235133016E+03  0.71788442504E+03  0.60000523461E+03 0.  0.
         23    2    4    4    0    0 -0.42394180454E+03 -0.25067921691E+01  0.65765032806E+02  0.43844954948E+03  0.90443519707E+02 0.  0.
         23    2    4    4    0    0  0.84429348265E+02 -0.13827373557E+03 -0.20811636297E+03  0.27943487556E+03  0.92322740150E+02 0.  0.
          3    1    3    3  502    0  0.18719984154E+03  0.43757371544E+02 -0.46463465625E+02  0.19778104528E+03  0.00000000000E+00 0. -1.
         -3    1    3    3    0  502  0.15231261473E+03  0.97023156193E+02 -0.11422001768E+03  0.21367928745E+03  0.00000000000E+00 0.  1.
         13    1    5    5    0    0 -0.21516972531E+03  0.41460386155E+02  0.48274306321E+02  0.22438222514E+03  0.00000000000E+00 0. -1.
        -13    1    5    5    0    0 -0.20877207923E+03 -0.43967178324E+02  0.17490726485E+02  0.21406732433E+03  0.00000000000E+00 0.  1.
          1    1    6    6  503    0 -0.85337797381E+00 -0.45147661052E+02 -0.12943810366E+02  0.46974267203E+02  0.00000000000E+00 0. -1.
         -1    1    6    6    0  503  0.85282726239E+02 -0.93126074515E+02 -0.19517255260E+03  0.23246060836E+03  0.00000000000E+00 0.  1.
<mgrwt>
<rscale>  0 0.48837327E+03</rscale>
<asrwt>0</asrwt>
<pdfrwt beam="1">  1        2 0.11018304E+00 0.48837327E+03</pdfrwt>
<pdfrwt beam="2">  1       -2 0.63562303E-01 0.48837327E+03</pdfrwt>
<totfact> 0.94163049E+01</totfact>
</mgrwt>
</event>
<event>
12    1  0.1444206E-007  0.6457896E+03  0.7818608E-02  0.9814712E-01
         -1   -1    0    0    0  501 -0.00000000000E+00  0.00000000000E+00  0.45553041114E+03  0.45553041114E+03  0.00000000000E+00 0.  1.
          1   -1    0    0  501    0  0.00000000000E+00 -0.00000000000E+00 -0.11299009559E+04  0.11299009559E+04  0.00000000000E+00 0. -1.
         23    2    1    2    0    0  0.43451707510E+03 -0.25799633626E+03  0.54765790276E+02  0.51449023647E+03  0.79584631451E+02 0.  0.
    5000000    2    1    2    0    0 -0.43451707510E+03  0.25799633626E+03 -0.72913633508E+03  0.10709411306E+04  0.59992325510E+03 0.  0.
         23    2    4    4    0    0 -0.12549074256E+03  0.40282544427E+03 -0.41561536568E+03  0.59829996379E+03  0.84914365481E+02 0.  0.
         23    2    4    4    0    0 -0.30902633254E+03 -0.14482910801E+03 -0.31352096940E+03  0.47264116681E+03  0.92852192119E+02 0.  0.
          1    1    3    3  502    0  0.16444810589E+03 -0.14231963025E+03  0.31806037508E+02  0.21979463303E+03  0.00000000000E+00 0. -1.
         -1    1    3    3    0  502  0.27006896921E+03 -0.11567670601E+03  0.22959752768E+02  0.29469560345E+03  0.00000000000E+00 0.  1.
         11    1    5    5    0    0 -0.13377617713E+03  0.32565352442E+03 -0.35328296789E+03  0.49875358539E+03  0.00000000000E+00 0. -1.
        -11    1    5    5    0    0  0.82854345733E+01  0.77171919843E+02 -0.62332397785E+02  0.99546378397E+02  0.00000000000E+00 0.  1.
          2    1    6    6  503    0 -0.18617203832E+03 -0.43048163193E+02 -0.20153622996E+03  0.27772292702E+03  0.00000000000E+00 0. -1.
         -2    1    6    6    0  503 -0.12285429422E+03 -0.10178094481E+03 -0.11198473944E+03  0.19491823979E+03  0.00000000000E+00 0.  1.
<mgrwt>
<rscale>  0 0.64578960E+03</rscale>
<asrwt>0</asrwt>
<pdfrwt beam="1">  1        1 0.17383091E+00 0.64578960E+03</pdfrwt>
<pdfrwt beam="2">  1       -1 0.70081603E-01 0.64578960E+03</pdfrwt>
<totfact> 0.25844394E+01</totfact>
</mgrwt>
</event>
<event>
12    1  0.1444206E-007  0.8201490E+03  0.7818608E-02  0.9531302E-01
         -2   -1    0    0    0  501 -0.00000000000E+00  0.00000000000E+00  0.13330361120E+04  0.13330361120E+04  0.00000000000E+00 0.  1.
          2   -1    0    0  501    0  0.00000000000E+00 -0.00000000000E+00 -0.52738914911E+03  0.52738914911E+03  0.00000000000E+00 0. -1.
         23    2    1    2    0    0 -0.61926971657E+03  0.37718385569E+03  0.27787225028E+03  0.78137920646E+03  0.87050755052E+02 0.  0.
    5000000    2    1    2    0    0  0.61926971657E+03 -0.37718385569E+03  0.52777471265E+03  0.10790460547E+04  0.60002633107E+03 0.  0.
         23    2    4    4    0    0 -0.31885997069E+02 -0.22175805527E+03  0.39547391800E+02  0.24549724404E+03  0.92258055171E+02 0.  0.
         23    2    4    4    0    0  0.65115571364E+03 -0.15542580042E+03  0.48822732085E+03  0.83354881066E+03  0.90976700769E+02 0.  0.
          4    1    3    3  502    0 -0.46756980340E+03  0.31951915977E+03  0.23778471893E+03  0.61421135374E+03  0.00000000000E+00 0. -1.
         -4    1    3    3    0  502 -0.15169991317E+03  0.57664695926E+02  0.40087531348E+02  0.16716785272E+03  0.00000000000E+00 0.  1.
         13    1    5    5    0    0 -0.26019597709E+02 -0.13067918970E+02 -0.10249223951E+02  0.30868050841E+02  0.00000000000E+00 0.  1.
        -13    1    5    5    0    0 -0.58663993601E+01 -0.20869013630E+03  0.49796615751E+02  0.21462919320E+03  0.00000000000E+00 0. -1.
          1    1    6    6  503    0  0.46772075173E+03 -0.14659074862E+03  0.38165862030E+03  0.62122045332E+03  0.00000000000E+00 0. -1.
         -1    1    6    6    0  503  0.18343496191E+03 -0.88350518029E+01  0.10656870055E+03  0.21232835733E+03  0.00000000000E+00 0.  1.
<mgrwt>
<rscale>  0 0.82014896E+03</rscale>
<asrwt>0</asrwt>
<pdfrwt beam="1">  1        2 0.81136792E-01 0.82014896E+03</pdfrwt>
<pdfrwt beam="2">  1       -2 0.20508248E+00 0.82014896E+03</pdfrwt>
<totfact> 0.72173246E+00</totfact>
</mgrwt>
</event>
<event>
12    1  0.1444206E-007  0.5634171E+03  0.7818608E-02  0.9984352E-01
          2   -1    0    0  501    0  0.00000000000E+00  0.00000000000E+00  0.12756736212E+04  0.12756736212E+04  0.00000000000E+00 0. -1.
         -2   -1    0    0    0  501 -0.00000000000E+00 -0.00000000000E+00 -0.41500008613E+03  0.41500008613E+03  0.00000000000E+00 0.  1.
         23    2    1    2    0    0 -0.29442600070E+02 -0.49312089328E+03  0.75414589689E+03  0.90618213829E+03  0.91623969947E+02 0.  0.
    5000000    2    1    2    0    0  0.29442600070E+02  0.49312089328E+03  0.10652763815E+03  0.78449156901E+03  0.60003650061E+03 0.  0.
         23    2    4    4    0    0 -0.70104965370E+02  0.48839239591E+03 -0.12293800911E+03  0.51701246729E+03  0.93521648275E+02 0.  0.
         23    2    4    4    0    0  0.99547565440E+02  0.47284973686E+01  0.22946564726E+03  0.26747910172E+03  0.94649406286E+02 0.  0.
          2    1    3    3  502    0  0.43851491816E+01 -0.39236690921E+03  0.63562744348E+03  0.74698946973E+03  0.00000000000E+00 0.  1.
         -2    1    3    3    0  502 -0.33827749251E+02 -0.10075398407E+03  0.11851845341E+03  0.15919266856E+03  0.00000000000E+00 0. -1.
         13    1    5    5    0    0 -0.24536015730E+02  0.68454439978E+02 -0.50272854746E+02  0.88404673773E+02  0.00000000000E+00 0. -1.
        -13    1    5    5    0    0 -0.45568949640E+02  0.41993795593E+03 -0.72665154361E+02  0.42860779352E+03  0.00000000000E+00 0.  1.
          3    1    6    6  503    0 -0.70445261999E+00  0.29712902337E+02  0.83626082462E+02  0.88750630909E+02  0.00000000000E+00 0. -1.
         -3    1    6    6    0  503  0.10025201806E+03 -0.24984404969E+02  0.14583956480E+03  0.17872847081E+03  0.00000000000E+00 0.  1.
<mgrwt>
<rscale>  0 0.56341708E+03</rscale>
<asrwt>0</asrwt>
<pdfrwt beam="1">  1        2 0.19625748E+00 0.56341708E+03</pdfrwt>
<pdfrwt beam="2">  1       -2 0.63846168E-01 0.56341708E+03</pdfrwt>
<totfact> 0.40374190E+01</totfact>
</mgrwt>
</event>
<event>
12    1  0.1444206E-007  0.8648416E+03  0.7818608E-02  0.9470631E-01
          2   -1    0    0  501    0  0.00000000000E+00  0.00000000000E+00  0.19819401433E+04  0.19819401433E+04  0.00000000000E+00 0.  1.
         -2   -1    0    0    0  501 -0.00000000000E+00 -0.00000000000E+00 -0.51738341206E+03  0.51738341206E+03  0.00000000000E+00 0. -1.
         23    2    1    2    0    0 -0.73990872565E+03 -0.17175186622E+03  0.13129536083E+04  0.15196422196E+04  0.92204513877E+02 0.  0.
    5000000    2    1    2    0    0  0.73990872565E+03  0.17175186622E+03  0.15160312299E+03  0.97968133574E+03  0.59985697200E+03 0.  0.
         23    2    4    4    0    0  0.43652429880E+01  0.20487867142E+03  0.30024079026E+02  0.22790768711E+03  0.95111214770E+02 0.  0.
         23    2    4    4    0    0  0.73554348266E+03 -0.33126805192E+02  0.12157904396E+03  0.75177364863E+03  0.90887593988E+02 0.  0.
          4    1    3    3  502    0 -0.50910293902E+03 -0.73796971112E+02  0.88134180938E+03  0.10204877169E+04  0.00000000000E+00 0. -1.
         -4    1    3    3    0  502 -0.23080578663E+03 -0.97954895112E+02  0.43161179889E+03  0.49915450269E+03  0.00000000000E+00 0.  1.
         13    1    5    5    0    0  0.47350904665E+02  0.84633769229E+02  0.11473786375E+01  0.96986079126E+02  0.00000000000E+00 0.  1.
        -13    1    5    5    0    0 -0.42985661677E+02  0.12024490219E+03  0.28876700389E+02  0.13092160798E+03  0.00000000000E+00 0. -1.
          2    1    6    6  503    0  0.41485206484E+03 -0.54659886520E+02  0.41192911269E+02  0.42046021790E+03  0.00000000000E+00 0. -1.
         -2    1    6    6    0  503  0.32069141782E+03  0.21533081328E+02  0.80386132696E+02  0.33131343073E+03  0.00000000000E+00 0.  1.
<mgrwt>
<rscale>  0 0.86484163E+03</rscale>
<asrwt>0</asrwt>
<pdfrwt beam="1">  1        2 0.30491386E+00 0.86484163E+03</pdfrwt>
<pdfrwt beam="2">  1       -2 0.79597449E-01 0.86484163E+03</pdfrwt>
<totfact> 0.97353169E+00</totfact>
</mgrwt>
</event>
<event>
12    1  0.1444206E-007  0.4007567E+03  0.7818608E-02  0.1043518E+00
          2   -1    0    0  501    0  0.00000000000E+00  0.00000000000E+00  0.17511093424E+04  0.17511093424E+04  0.00000000000E+00 0. -1.
         -2   -1    0    0    0  501 -0.00000000000E+00 -0.00000000000E+00 -0.23403509644E+03  0.23403509644E+03  0.00000000000E+00 0.  1.
         23    2    1    2    0    0 -0.37834493848E+03 -0.46550712385E+02  0.10839915902E+04  0.11528574550E+04  0.93438121113E+02 0.  0.
    5000000    2    1    2    0    0  0.37834493848E+03  0.46550712385E+02  0.43308265575E+03  0.83228698390E+03  0.59985762941E+03 0.  0.
         23    2    4    4    0    0  0.18408356123E+03  0.32082797916E+02  0.54967394602E+03  0.58613148882E+03  0.80576744882E+02 0.  0.
         23    2    4    4    0    0  0.19426137724E+03  0.14467914469E+02 -0.11659129027E+03  0.24615549508E+03  0.95143026818E+02 0.  0.
          3    1    3    3  502    0 -0.94145241481E+02  0.28588065418E+02  0.25925955528E+03  0.27730149834E+03  0.00000000000E+00 0. -1.
         -3    1    3    3    0  502 -0.28419969700E+03 -0.75138777804E+02  0.82473203496E+03  0.87555595663E+03  0.00000000000E+00 0.  1.
         13    1    5    5    0    0  0.77592753519E+02 -0.26306070406E+02  0.21192567583E+03  0.22721165642E+03  0.00000000000E+00 0. -1.
        -13    1    5    5    0    0  0.10649080772E+03  0.58388868322E+02  0.33774827019E+03  0.35891983240E+03  0.00000000000E+00 0.  1.
          1    1    6    6  503    0  0.46786737799E+02 -0.25093461441E+02 -0.67273564643E+02  0.85699551578E+02  0.00000000000E+00 0.  1.
         -1    1    6    6    0  503  0.14747463945E+03  0.39561375910E+02 -0.49317725630E+02  0.16045594350E+03  0.00000000000E+00 0. -1.
<mgrwt>
<rscale>  0 0.40075669E+03</rscale>
<asrwt>0</asrwt>
<pdfrwt beam="1">  1        2 0.26940143E+00 0.40075669E+03</pdfrwt>
<pdfrwt beam="2">  1       -2 0.36005401E-01 0.40075669E+03</pdfrwt>
<totfact> 0.71739885E+01</totfact>
</mgrwt>
</event>
<event>
12    1  0.1444206E-007  0.6376093E+03  0.7818608E-02  0.9830311E-01
          2   -1    0    0  501    0  0.00000000000E+00  0.00000000000E+00  0.57055531789E+03  0.57055531789E+03  0.00000000000E+00 0. -1.
         -2   -1    0    0    0  501 -0.00000000000E+00 -0.00000000000E+00 -0.79876905068E+03  0.79876905068E+03  0.00000000000E+00 0.  1.
         23    2    1    2    0    0 -0.17270510768E+03 -0.48106986602E+03 -0.25984173650E+03  0.58046893973E+03  0.90394644472E+02 0.  0.
    5000000    2    1    2    0    0  0.17270510768E+03  0.48106986602E+03  0.31628003719E+02  0.78885542885E+03  0.60003107153E+03 0.  0.
         23    2    4    4    0    0 -0.18686173603E+03  0.50517782406E+02 -0.40519310005E+02  0.21573651799E+03  0.86203688896E+02 0.  0.
         23    2    4    4    0    0  0.35956684371E+03  0.43055208361E+03  0.72147313724E+02  0.57311891086E+03  0.92718063538E+02 0.  0.
          2    1    3    3  502    0 -0.12005153906E+03 -0.21251620869E+03 -0.10191847948E+03  0.26450498567E+03  0.00000000000E+00 0. -1.
         -2    1    3    3    0  502 -0.52653568624E+02 -0.26855365733E+03 -0.15792325702E+03  0.31596395405E+03  0.00000000000E+00 0.  1.
         13    1    5    5    0    0 -0.56159441954E+02  0.58611450716E+01  0.26315193441E+02  0.62295468117E+02  0.00000000000E+00 0. -1.
        -13    1    5    5    0    0 -0.13070229408E+03  0.44656637334E+02 -0.66834503446E+02  0.15344104987E+03  0.00000000000E+00 0.  1.
          2    1    6    6  503    0  0.20438380470E+03  0.28012855064E+03  0.49781216520E+01  0.34679897088E+03  0.00000000000E+00 0.  1.
         -2    1    6    6    0  503  0.15518303901E+03  0.15042353297E+03  0.67169192072E+02  0.22631993998E+03  0.00000000000E+00 0. -1.
<mgrwt>
<rscale>  0 0.63760933E+03</rscale>
<asrwt>0</asrwt>
<pdfrwt beam="1">  1        2 0.87777741E-01 0.63760933E+03</pdfrwt>
<pdfrwt beam="2">  1       -2 0.12288755E+00 0.63760933E+03</pdfrwt>
<totfact> 0.26976912E+01</totfact>
</mgrwt>
</event>
<event>
12    1  0.1444206E-007  0.6543991E+03  0.7818608E-02  0.9798559E-01
         -1   -1    0    0    0  501 -0.00000000000E+00  0.00000000000E+00  0.46376238733E+03  0.46376238733E+03  0.00000000000E+00 0.  1.
          1   -1    0    0  501    0  0.00000000000E+00 -0.00000000000E+00 -0.11548632236E+04  0.11548632236E+04  0.00000000000E+00 0. -1.
         23    2    1    2    0    0 -0.57965346560E+03 -0.10444910081E+02 -0.47919854181E+03  0.75771237850E+03  0.91594594432E+02 0.  0.
    5000000    2    1    2    0    0  0.57965346560E+03  0.10444910081E+02 -0.21190229443E+03  0.86091323240E+03  0.60013479736E+03 0.  0.
         23    2    4    4    0    0  0.42520838383E+03 -0.19094425567E+03  0.58703390398E+02  0.47853613818E+03  0.91043226274E+02 0.  0.
         23    2    4    4    0    0  0.15444508177E+03  0.20138916575E+03 -0.27060568483E+03  0.38237709421E+03  0.92595497470E+02 0.  0.
          4    1    3    3  502    0 -0.40757858510E+03  0.16314244419E+02 -0.28946328049E+03  0.50017541758E+03  0.00000000000E+00 0. -1.
         -4    1    3    3    0  502 -0.17207488050E+03 -0.26759154500E+02 -0.18973526133E+03  0.25753696092E+03  0.00000000000E+00 0.  1.
         11    1    5    5    0    0  0.29257711909E+03 -0.10160882472E+03  0.47094931850E+01  0.30975458544E+03  0.00000000000E+00 0. -1.
        -11    1    5    5    0    0  0.13263126474E+03 -0.89335430951E+02  0.53993897213E+02  0.16878155274E+03  0.00000000000E+00 0.  1.
          4    1    6    6  503    0  0.89855350031E+02  0.83334223650E+02 -0.18819268105E+03  0.22457751883E+03  0.00000000000E+00 0. -1.
         -4    1    6    6    0  503  0.64589731741E+02  0.11805494210E+03 -0.82413003777E+02  0.15779957539E+03  0.00000000000E+00 0.  1.
<mgrwt>
<rscale>  0 0.65439908E+03</rscale>
<asrwt>0</asrwt>
<pdfrwt beam="1">  1        1 0.17767126E+00 0.65439908E+03</pdfrwt>
<pdfrwt beam="2">  1       -1 0.71348060E-01 0.65439908E+03</pdfrwt>
<totfact> 0.23858035E+01</totfact>
</mgrwt>
</event>
<event>
12    1  0.1444206E-007  0.6873356E+03  0.7818608E-02  0.9739138E-01
          2   -1    0    0  501    0  0.00000000000E+00  0.00000000000E+00  0.31812232989E+04  0.31812232989E+04  0.00000000000E+00 0. -1.
         -2   -1    0    0    0  501 -0.00000000000E+00 -0.00000000000E+00 -0.55527641052E+03  0.55527641052E+03  0.00000000000E+00 0.  1.
         23    2    1    2    0    0 -0.56736437831E+03 -0.23149401816E+03 -0.29977015301E+03  0.68767517699E+03  0.86851518041E+02 0.  0.
    5000000    2    1    2    0    0  0.56736437831E+03  0.23149401816E+03  0.29257170414E+04  0.30488245324E+04  0.60001583730E+03 0.  0.
         23    2    4    4    0    0  0.60504867827E+03  0.25165559212E+03  0.17892857116E+04  0.19077410326E+04  0.92293280669E+02 0.  0.
         23    2    4    4    0    0 -0.37684299952E+02 -0.20161573954E+02  0.11364313298E+04  0.11410834998E+04  0.93641821283E+02 0.  0.
          2    1    3    3  502    0 -0.12844841314E+03 -0.91188085316E+02 -0.89444130462E+02  0.18114776901E+03  0.00000000000E+00 0. -1.
         -2    1    3    3    0  502 -0.43891596517E+03 -0.14030593285E+03 -0.21032602255E+03  0.50652740798E+03  0.00000000000E+00 0.  1.
         13    1    5    5    0    0  0.12474356955E+03  0.37977167387E+02  0.46481281246E+03  0.48275684771E+03  0.00000000000E+00 0.  1.
        -13    1    5    5    0    0  0.48030510871E+03  0.21367842473E+03  0.13244728991E+04  0.14249841849E+04  0.00000000000E+00 0. -1.
          1    1    6    6  503    0 -0.51514335371E+02  0.21906551795E+02  0.75941781681E+03  0.76147819683E+03  0.00000000000E+00 0. -1.
         -1    1    6    6    0  503  0.13830035419E+02 -0.42068125748E+02  0.37701351295E+03  0.37960530296E+03  0.00000000000E+00 0.  1.
<mgrwt>
<rscale>  0 0.68733561E+03</rscale>
<asrwt>0</asrwt>
<pdfrwt beam="1">  1        2 0.48941896E+00 0.68733561E+03</pdfrwt>
<pdfrwt beam="2">  1       -2 0.85427142E-01 0.68733561E+03</pdfrwt>
<totfact> 0.17321209E+00</totfact>
</mgrwt>
</event>
<event>
12    1  0.1444206E-007  0.7323315E+03  0.7818608E-02  0.9663485E-01
          1   -1    0    0  501    0  0.00000000000E+00  0.00000000000E+00  0.41401790893E+03  0.41401790893E+03  0.00000000000E+00 0. -1.
         -1   -1    0    0    0  501 -0.00000000000E+00 -0.00000000000E+00 -0.15348895089E+04  0.15348895089E+04  0.00000000000E+00 0.  1.
         23    2    1    2    0    0  0.27876657556E+02 -0.61440983737E+03 -0.83989912051E+03  0.10449666185E+04  0.90819297929E+02 0.  0.
    5000000    2    1    2    0    0 -0.27876657556E+02  0.61440983737E+03 -0.28097247950E+03  0.90394079937E+03  0.59990572445E+03 0.  0.
         23    2    4    4    0    0 -0.28566972886E+03  0.42850229850E+03 -0.22395951302E+03  0.56914259881E+03  0.92433870996E+02 0.  0.
         23    2    4    4    0    0  0.25779307130E+03  0.18590753887E+03 -0.57012966482E+02  0.33479820055E+03  0.88433455916E+02 0.  0.
          4    1    3    3  502    0 -0.28222812100E+02 -0.23366154899E+03 -0.28409104153E+03  0.36892000011E+03  0.00000000000E+00 0.  1.
         -4    1    3    3    0  502  0.56099469656E+02 -0.38074828838E+03 -0.55580807898E+03  0.67604661841E+03  0.00000000000E+00 0. -1.
         11    1    5    5    0    0 -0.10943604369E+03  0.24466602419E+03 -0.12770665612E+03  0.29689510112E+03  0.00000000000E+00 0.  1.
        -11    1    5    5    0    0 -0.17623368517E+03  0.18383627431E+03 -0.96252856901E+02  0.27224749770E+03  0.00000000000E+00 0. -1.
          3    1    6    6  503    0  0.16775953346E+03  0.90663781778E+02 -0.69910305452E+02  0.20310251895E+03  0.00000000000E+00 0. -1.
         -3    1    6    6    0  503  0.90033537840E+02  0.95243757094E+02  0.12897338969E+02  0.13169568161E+03  0.00000000000E+00 0.  1.
<mgrwt>
<rscale>  0 0.73233148E+03</rscale>
<asrwt>0</asrwt>
<pdfrwt beam="1">  1        1 0.63695062E-01 0.73233148E+03</pdfrwt>
<pdfrwt beam="2">  1       -1 0.23613685E+00 0.73233148E+03</pdfrwt>
<totfact> 0.51267401E+00</totfact>
</mgrwt>
</event>
<event>
12    1  0.1444206E-007  0.9881644E+03  0.7818608E-02  0.9321622E-01
         -1   -1    0    0    0  501 -0.00000000000E+00  0.00000000000E+00  0.23789704502E+04  0.23789704502E+04  0.00000000000E+00 0.  1.
          1   -1    0    0  501    0  0.00000000000E+00 -0.00000000000E+00 -0.41867336917E+03  0.41867336917E+03  0.00000000000E+00 0. -1.
         23    2    1    2    0    0  0.89902980507E+03  0.43916732954E+02  0.75813624392E+03  0.11803211801E+04  0.90577337722E+02 0.  0.
    5000000    2    1    2    0    0 -0.89902980507E+03 -0.43916732954E+02  0.12021608371E+04  0.16173226392E+04  0.60029873500E+03 0.  0.
         23    2    4    4    0    0 -0.19485422044E+03 -0.26180093771E+03  0.39667932330E+03  0.52151758429E+03  0.90101093129E+02 0.  0.
         23    2    4    4    0    0 -0.70417558463E+03  0.21788420475E+03  0.80548151381E+03  0.10958050549E+04  0.93013271441E+02 0.  0.
          1    1    3    3  502    0  0.41651175853E+03  0.32193154787E+02  0.29511904650E+03  0.51148186264E+03  0.00000000000E+00 0. -1.
         -1    1    3    3    0  502  0.48251804654E+03  0.11723578168E+02  0.46301719742E+03  0.66883931750E+03  0.00000000000E+00 0.  1.
         13    1    5    5    0    0 -0.20255301218E+03 -0.23316911656E+03  0.35924364607E+03  0.47376318653E+03  0.00000000000E+00 0. -1.
        -13    1    5    5    0    0  0.76987917456E+01 -0.28631821144E+02  0.37435677222E+02  0.47754397760E+02  0.00000000000E+00 0.  1.
          2    1    6    6  503    0 -0.47442563756E+03  0.13661407825E+03  0.60022521653E+03  0.77718299165E+03  0.00000000000E+00 0. -1.
         -2    1    6    6    0  503 -0.22974994707E+03  0.81270126501E+02  0.20525629728E+03  0.31862206329E+03  0.00000000000E+00 0.  1.
<mgrwt>
<rscale>  0 0.98816442E+03</rscale>
<asrwt>0</asrwt>
<pdfrwt beam="1">  1        1 0.64411289E-01 0.98816442E+03</pdfrwt>
<pdfrwt beam="2">  1       -1 0.36599545E+00 0.98816442E+03</pdfrwt>
<totfact> 0.70304232E-01</totfact>
</mgrwt>
</event>
<event>
12    1  0.1444206E-007  0.6427998E+03  0.7818608E-02  0.9820384E-01
          2   -1    0    0  501    0  0.00000000000E+00  0.00000000000E+00  0.12326780560E+04  0.12326780560E+04  0.00000000000E+00 0. -1.
         -2   -1    0    0    0  501 -0.00000000000E+00 -0.00000000000E+00 -0.39260912919E+03  0.39260912919E+03  0.00000000000E+00 0.  1.
         23    2    1    2    0    0 -0.49248786202E+03 -0.13244692402E+03  0.67411600849E+02  0.52235149785E+03  0.90665767836E+02 0.  0.
    5000000    2    1    2    0    0  0.49248786202E+03  0.13244692402E+03  0.77265732593E+03  0.11029356873E+04  0.59948419924E+03 0.  0.
         23    2    4    4    0    0  0.25599978026E+03 -0.22110569655E+03  0.31169759324E+03  0.46938014784E+03  0.93481105114E+02 0.  0.
         23    2    4    4    0    0  0.23648808175E+03  0.35355262057E+03  0.46095973269E+03  0.63355553948E+03  0.89345834364E+02 0.  0.
          2    1    3    3  502    0 -0.24665906042E+03 -0.89016448202E+02  0.74525170510E+02  0.27261441851E+03  0.00000000000E+00 0. -1.
         -2    1    3    3    0  502 -0.24582880160E+03 -0.43430475816E+02 -0.71135696606E+01  0.24973707934E+03  0.00000000000E+00 0.  1.
         13    1    5    5    0    0  0.18692160189E+03 -0.18425016576E+03  0.28304186614E+03  0.38600583782E+03  0.00000000000E+00 0. -1.
        -13    1    5    5    0    0  0.69078178370E+02 -0.36855530793E+02  0.28655727094E+02  0.83374310026E+02  0.00000000000E+00 0.  1.
          4    1    6    6  503    0  0.21338345697E+03  0.34953755221E+03  0.44713850255E+03  0.60633475950E+03  0.00000000000E+00 0. -1.
         -4    1    6    6    0  503  0.23104624778E+02  0.40150683664E+01  0.13821230135E+02  0.27220779977E+02  0.00000000000E+00 0.  1.
<mgrwt>
<rscale>  0 0.64279981E+03</rscale>
<asrwt>0</asrwt>
<pdfrwt beam="1">  1        2 0.18964278E+00 0.64279981E+03</pdfrwt>
<pdfrwt beam="2">  1       -2 0.60401405E-01 0.64279981E+03</pdfrwt>
<totfact> 0.47621137E+01</totfact>
</mgrwt>
</event>
<event>
12    1  0.1444206E-007  0.8896998E+03  0.7818608E-02  0.9438550E-01
         -2   -1    0    0    0  501 -0.00000000000E+00  0.00000000000E+00  0.29078308454E+03  0.29078308454E+03  0.00000000000E+00 0.  1.
          2   -1    0    0  501    0  0.00000000000E+00 -0.00000000000E+00 -0.32874468207E+04  0.32874468207E+04  0.00000000000E+00 0. -1.
         23    2    1    2    0    0  0.61730933439E+03 -0.61597184158E+03 -0.11034767736E+04  0.14092196768E+04  0.88016950098E+02 0.  0.
    5000000    2    1    2    0    0 -0.61730933439E+03  0.61597184158E+03 -0.18931869626E+04  0.21690102285E+04  0.59996364241E+03 0.  0.
         23    2    4    4    0    0 -0.19886991967E+03  0.33958319515E+03 -0.32239005326E+03  0.51729367002E+03  0.93762483046E+02 0.  0.
         23    2    4    4    0    0 -0.41843941473E+03  0.27638864643E+03 -0.15707969093E+04  0.16517165585E+04  0.96345376759E+02 0.  0.
          1    1    3    3  502    0  0.29779096972E+03 -0.34463202938E+03 -0.62010323299E+03  0.76940153163E+03  0.00000000000E+00 0. -1.
         -1    1    3    3    0  502  0.31951836468E+03 -0.27133981220E+03 -0.48337354062E+03  0.63981814512E+03  0.00000000000E+00 0.  1.
         11    1    5    5    0    0 -0.20175941334E+03  0.33377044216E+03 -0.32730277661E+03  0.50915290091E+03  0.00000000000E+00 0. -1.
        -11    1    5    5    0    0  0.28894936754E+01  0.58127529950E+01  0.49127233468E+01  0.81407691138E+01  0.00000000000E+00 0.  1.
          2    1    6    6  503    0 -0.86228684679E+02  0.10022362088E+03 -0.48257490983E+03  0.50035857526E+03  0.00000000000E+00 0. -1.
         -2    1    6    6    0  503 -0.33221073005E+03  0.17616502555E+03 -0.10882219995E+04  0.11513579832E+04  0.00000000000E+00 0.  1.
<mgrwt>
<rscale>  0 0.88969976E+03</rscale>
<asrwt>0</asrwt>
<pdfrwt beam="1">  1        2 0.50576107E+00 0.88969976E+03</pdfrwt>
<pdfrwt beam="2">  1       -2 0.44735858E-01 0.88969976E+03</pdfrwt>
<totfact> 0.56422893E+00</totfact>
</mgrwt>
</event>
<event>
12    1  0.1444206E-007  0.5326926E+03  0.7818608E-02  0.1005581E+00
         -2   -1    0    0    0  501 -0.00000000000E+00  0.00000000000E+00  0.14431608202E+04  0.14431608202E+04  0.00000000000E+00 0.  1.
          2   -1    0    0  501    0  0.00000000000E+00 -0.00000000000E+00 -0.64869009987E+03  0.64869009987E+03  0.00000000000E+00 0. -1.
         23    2    1    2    0    0  0.23488130482E+02  0.40623182075E+03  0.11934983145E+04  0.12643051886E+04  0.91942366544E+02 0.  0.
    5000000    2    1    2    0    0 -0.23488130482E+02 -0.40623182075E+03 -0.39902759415E+03  0.82754573148E+03  0.60002744299E+03 0.  0.
         23    2    4    4    0    0 -0.14705646209E+03 -0.47076856224E+03 -0.42637117605E+03  0.65851414445E+03  0.92735410908E+02 0.  0.
         23    2    4    4    0    0  0.12356833161E+03  0.64536741493E+02  0.27343581898E+02  0.16903158704E+03  0.91596301048E+02 0.  0.
          4    1    3    3  502    0 -0.35649367366E+02  0.16038306692E+03  0.46586155931E+03  0.49398441067E+03  0.00000000000E+00 0. -1.
         -4    1    3    3    0  502  0.59137497849E+02  0.24584875383E+03  0.72763675520E+03  0.77032077794E+03  0.00000000000E+00 0.  1.
         11    1    5    5    0    0 -0.63953371644E+02 -0.21757284180E+03 -0.13616233276E+03  0.26451494493E+03  0.00000000000E+00 0.  1.
        -11    1    5    5    0    0 -0.83103090449E+02 -0.25319572044E+03 -0.29020884329E+03  0.39399919951E+03  0.00000000000E+00 0. -1.
          2    1    6    6  503    0  0.36024880579E+02  0.56559726396E+02 -0.18945263192E+02  0.69682979759E+02  0.00000000000E+00 0. -1.
         -2    1    6    6    0  503  0.87543451031E+02  0.79770150975E+01  0.46288845090E+02  0.99348607278E+02  0.00000000000E+00 0.  1.
<mgrwt>
<rscale>  0 0.53269259E+03</rscale>
<asrwt>0</asrwt>
<pdfrwt beam="1">  1        2 0.99798478E-01 0.53269259E+03</pdfrwt>
<pdfrwt beam="2">  1       -2 0.22202474E+00 0.53269259E+03</pdfrwt>
<totfact> 0.45858875E+00</totfact>
</mgrwt>
</event>
<event>
12    1  0.1444206E-007  0.1163380E+04  0.7818608E-02  0.9145528E-01
         -1   -1    0    0    0  501 -0.00000000000E+00  0.00000000000E+00  0.15953315839E+04  0.15953315839E+04  0.00000000000E+00 0.  1.
          1   -1    0    0  501    0  0.00000000000E+00 -0.00000000000E+00 -0.14108645204E+04  0.14108645204E+04  0.00000000000E+00 0. -1.
         23    2    1    2    0    0  0.10667124460E+04 -0.36935961420E+03  0.98244519763E+03  0.14991817144E+04  0.89695482246E+02 0.  0.
    5000000    2    1    2    0    0 -0.10667124460E+04  0.36935961420E+03 -0.79797813417E+03  0.15070143898E+04  0.60001775094E+03 0.  0.
         23    2    4    4    0    0 -0.86347946354E+02  0.14406384089E+03  0.38000923308E+02  0.19582610972E+03  0.93238602438E+02 0.  0.
         23    2    4    4    0    0 -0.98036449963E+03  0.22529577331E+03 -0.83597905748E+03  0.13111882801E+04  0.92092256347E+02 0.  0.
          4    1    3    3  502    0  0.30354603763E+02 -0.16319568255E+02  0.51972518295E+02  0.62360828535E+02  0.00000000000E+00 0.  1.
         -4    1    3    3    0  502  0.10363578422E+04 -0.35304004594E+03  0.93047267934E+03  0.14368208859E+04  0.00000000000E+00 0. -1.
         11    1    5    5    0    0  0.12082581337E+02  0.49926717875E+02 -0.81693921230E+01  0.52013506873E+02  0.00000000000E+00 0.  1.
        -11    1    5    5    0    0 -0.98430527690E+02  0.94137123015E+02  0.46170315431E+02  0.14381260285E+03  0.00000000000E+00 0. -1.
          1    1    6    6  503    0 -0.40805869611E+03  0.48693972568E+02 -0.32624940534E+03  0.52471104136E+03  0.00000000000E+00 0. -1.
         -1    1    6    6    0  503 -0.57230580352E+03  0.17660180074E+03 -0.50972965214E+03  0.78647723872E+03  0.00000000000E+00 0.  1.
<mgrwt>
<rscale>  0 0.11633796E+04</rscale>
<asrwt>0</asrwt>
<pdfrwt beam="1">  1        1 0.21705608E+00 0.11633796E+04</pdfrwt>
<pdfrwt beam="2">  1       -1 0.24543563E+00 0.11633796E+04</pdfrwt>
<totfact> 0.55571333E-01</totfact>
</mgrwt>
</event>
<event>
12    1  0.1444206E-007  0.1025781E+04  0.7818608E-02  0.9280712E-01
         -2   -1    0    0    0  501 -0.00000000000E+00  0.00000000000E+00  0.90251674921E+03  0.90251674921E+03  0.00000000000E+00 0.  1.
          2   -1    0    0  501    0  0.00000000000E+00 -0.00000000000E+00 -0.22961156583E+04  0.22961156583E+04  0.00000000000E+00 0. -1.
         23    2    1    2    0    0 -0.75164532336E+03  0.56465884198E+03 -0.17827288076E+04  0.20174294328E+04  0.89940064488E+02 0.  0.
    5000000    2    1    2    0    0  0.75164532336E+03 -0.56465884198E+03  0.38912989847E+03  0.11812029747E+04  0.60000674126E+03 0.  0.
         23    2    4    4    0    0  0.15423752950E+03 -0.46693435677E+03  0.22250135214E+03  0.54677872739E+03  0.87425488164E+02 0.  0.
         23    2    4    4    0    0  0.59740779386E+03 -0.97724485219E+02  0.16662854632E+03  0.63442424730E+03  0.91010471560E+02 0.  0.
          1    1    3    3  502    0 -0.14712901133E+03  0.85613964093E+02 -0.26519245774E+03  0.31512495374E+03  0.00000000000E+00 0.  1.
         -1    1    3    3    0  502 -0.60451631203E+03  0.47904487789E+03 -0.15175363498E+04  0.17023044791E+04  0.00000000000E+00 0. -1.
         11    1    5    5    0    0  0.11901362979E+03 -0.22707898072E+03  0.10036273063E+03  0.27532124012E+03  0.00000000000E+00 0. -1.
        -11    1    5    5    0    0  0.35223899714E+02 -0.23985537604E+03  0.12213862151E+03  0.27145748727E+03  0.00000000000E+00 0.  1.
          3    1    6    6  503    0  0.13428032714E+03 -0.58384883093E+02  0.25105991095E+02  0.14856080109E+03  0.00000000000E+00 0. -1.
         -3    1    6    6    0  503  0.46312746672E+03 -0.39339602126E+02  0.14152255523E+03  0.48586344621E+03  0.00000000000E+00 0.  1.
<mgrwt>
<rscale>  0 0.10257814E+04</rscale>
<asrwt>0</asrwt>
<pdfrwt beam="1">  1        2 0.35324856E+00 0.10257814E+04</pdfrwt>
<pdfrwt beam="2">  1       -2 0.13884873E+00 0.10257814E+04</pdfrwt>
<totfact> 0.16700312E+00</totfact>
</mgrwt>
</event>
<event>
12    1  0.1444206E-007  0.1183900E+04  0.7818608E-02  0.9127066E-01
         -1   -1    0    0    0  501 -0.00000000000E+00  0.00000000000E+00  0.16557980865E+04  0.16557980865E+04  0.00000000000E+00 0.  1.
          1   -1    0    0  501    0  0.00000000000E+00 -0.00000000000E+00 -0.10089723962E+04  0.10089723962E+04  0.00000000000E+00 0. -1.
         23    2    1    2    0    0 -0.42795228184E+03 -0.10918415648E+04 -0.44440824174E+02  0.11771347794E+04  0.91706836458E+02 0.  0.
    5000000    2    1    2    0    0  0.42795228184E+03  0.10918415648E+04  0.69126651457E+03  0.14876357033E+04  0.59995785953E+03 0.  0.
         23    2    4    4    0    0  0.22499271891E+03  0.80361715012E+03  0.17756175197E+03  0.85785723054E+03  0.89267041493E+02 0.  0.
         23    2    4    4    0    0  0.20295956292E+03  0.28822441473E+03  0.51370476260E+03  0.62977847273E+03  0.91991544023E+02 0.  0.
          3    1    3    3  502    0 -0.23164552298E+03 -0.69464166596E+03 -0.43281035560E+01  0.73226048978E+03  0.00000000000E+00 0. -1.
         -3    1    3    3    0  502 -0.19630675885E+03 -0.39719989888E+03 -0.40112720618E+02  0.44487428966E+03  0.00000000000E+00 0.  1.
         11    1    5    5    0    0  0.10354327317E+03  0.43901153979E+03  0.54521874566E+02  0.45434015483E+03  0.00000000000E+00 0.  1.
        -11    1    5    5    0    0  0.12144944575E+03  0.36460561033E+03  0.12303987741E+03  0.40351707571E+03  0.00000000000E+00 0. -1.
          3    1    6    6  503    0  0.88691497866E+02  0.17541288510E+03  0.21979418340E+03  0.29486496080E+03  0.00000000000E+00 0. -1.
         -3    1    6    6    0  503  0.11426806506E+03  0.11281152964E+03  0.29391057919E+03  0.33491351193E+03  0.00000000000E+00 0.  1.
<mgrwt>
<rscale>  0 0.11839003E+04</rscale>
<asrwt>0</asrwt>
<pdfrwt beam="1">  1        1 0.15522652E+00 0.11839003E+04</pdfrwt>
<pdfrwt beam="2">  1       -1 0.25473817E+00 0.11839003E+04</pdfrwt>
<totfact> 0.95152768E-01</totfact>
</mgrwt>
</event>
<event>
12    1  0.1444206E-007  0.7979982E+03  0.7818608E-02  0.9562919E-01
         -1   -1    0    0    0  501 -0.00000000000E+00  0.00000000000E+00  0.42427694800E+03  0.42427694800E+03  0.00000000000E+00 0.  1.
          1   -1    0    0  501    0  0.00000000000E+00 -0.00000000000E+00 -0.17385438456E+04  0.17385438456E+04  0.00000000000E+00 0. -1.
         23    2    1    2    0    0  0.53236681644E+03 -0.50272012869E+03 -0.37006282215E+03  0.82584175510E+03  0.94478341875E+02 0.  0.
    5000000    2    1    2    0    0 -0.53236681644E+03  0.50272012869E+03 -0.94420407542E+03  0.13369790385E+04  0.59987470212E+03 0.  0.
         23    2    4    4    0    0 -0.39492546193E+03  0.57244941566E+03 -0.50960999931E+03  0.86694160878E+03  0.90669441740E+02 0.  0.
         23    2    4    4    0    0 -0.13744135451E+03 -0.69729286971E+02 -0.43459407611E+03  0.47003742970E+03  0.91164000216E+02 0.  0.
          4    1    3    3  502    0  0.28637020546E+02 -0.64665223893E+02 -0.34538918278E+02  0.78705825723E+02  0.00000000000E+00 0. -1.
         -4    1    3    3    0  502  0.50372979590E+03 -0.43805490479E+03 -0.33552390387E+03  0.74713592937E+03  0.00000000000E+00 0.  1.
         13    1    5    5    0    0 -0.72459951077E+01  0.14969943763E+02  0.20001308741E+01  0.16751244279E+02  0.00000000000E+00 0. -1.
        -13    1    5    5    0    0 -0.38767946683E+03  0.55747947189E+03 -0.51161013019E+03  0.85019036450E+03  0.00000000000E+00 0.  1.
          1    1    6    6  503    0 -0.11995843308E+03 -0.38008994265E+02 -0.22917369199E+03  0.26144844695E+03  0.00000000000E+00 0. -1.
         -1    1    6    6    0  503 -0.17482921428E+02 -0.31720292706E+02 -0.20542038412E+03  0.20858898275E+03  0.00000000000E+00 0.  1.
<mgrwt>
<rscale>  0 0.79799825E+03</rscale>
<asrwt>0</asrwt>
<pdfrwt beam="1">  1        1 0.26746828E+00 0.79799825E+03</pdfrwt>
<pdfrwt beam="2">  1       -1 0.65273376E-01 0.79799825E+03</pdfrwt>
<totfact> 0.11037512E+01</totfact>
</mgrwt>
</event>
<event>
12    1  0.1444206E-007  0.7448478E+03  0.7818608E-02  0.9643468E-01
          2   -1    0    0  501    0  0.00000000000E+00  0.00000000000E+00  0.10137301207E+04  0.10137301207E+04  0.00000000000E+00 0. -1.
         -2   -1    0    0    0  501 -0.00000000000E+00 -0.00000000000E+00 -0.82504326100E+03  0.82504326100E+03  0.00000000000E+00 0.  1.
         23    2    1    2    0    0  0.71646639061E+03 -0.13277258578E+03  0.44825175701E+03  0.85982626813E+03  0.86133183480E+02 0.  0.
    5000000    2    1    2    0    0 -0.71646639061E+03  0.13277258578E+03 -0.25956489735E+03  0.97894711353E+03  0.60000905555E+03 0.  0.
         23    2    4    4    0    0 -0.43573278388E+03  0.13762147241E+03  0.13622142809E+03  0.48512857692E+03  0.89390883534E+02 0.  0.
         23    2    4    4    0    0 -0.28073360673E+03 -0.48488866300E+01 -0.39578632544E+03  0.49381853661E+03  0.91515365088E+02 0.  0.
          4    1    3    3  502    0  0.59344841295E+03 -0.94214227380E+02  0.33345625349E+03  0.68720478204E+03  0.00000000000E+00 0. -1.
         -4    1    3    3    0  502  0.12301797766E+03 -0.38558358401E+02  0.11479550352E+03  0.17262148609E+03  0.00000000000E+00 0.  1.
         11    1    5    5    0    0 -0.20668066020E+03  0.20199183276E+02  0.72554571150E+02  0.21997515337E+03  0.00000000000E+00 0.  1.
        -11    1    5    5    0    0 -0.22905212368E+03  0.11742228914E+03  0.63666856935E+02  0.26515342355E+03  0.00000000000E+00 0. -1.
          2    1    6    6  503    0 -0.57210417611E+02 -0.38264096727E+02 -0.80833883899E+02  0.10616633067E+03  0.00000000000E+00 0.  1.
         -2    1    6    6    0  503 -0.22352318912E+03  0.33415210097E+02 -0.31495244154E+03  0.38765220594E+03  0.00000000000E+00 0. -1.
<mgrwt>
<rscale>  0 0.74484779E+03</rscale>
<asrwt>0</asrwt>
<pdfrwt beam="1">  1        2 0.15595848E+00 0.74484779E+03</pdfrwt>
<pdfrwt beam="2">  1       -2 0.12692973E+00 0.74484779E+03</pdfrwt>
<totfact> 0.11592089E+01</totfact>
</mgrwt>
</event>
<event>
12    1  0.1444206E-007  0.3752093E+03  0.7818608E-02  0.1052719E+00
         -2   -1    0    0    0  501 -0.00000000000E+00  0.00000000000E+00  0.10976132514E+03  0.10976132514E+03  0.00000000000E+00 0.  1.
          2   -1    0    0  501    0  0.00000000000E+00 -0.00000000000E+00 -0.25911548311E+04  0.25911548311E+04  0.00000000000E+00 0. -1.
         23    2    1    2    0    0  0.27759404492E+03 -0.13833093078E+03 -0.13046286235E+04  0.13440709929E+04  0.90978506953E+02 0.  0.
    5000000    2    1    2    0    0 -0.27759404492E+03  0.13833093078E+03 -0.11767648825E+04  0.13568451633E+04  0.60004942156E+03 0.  0.
         23    2    4    4    0    0  0.22355689302E+02 -0.15664715214E+02 -0.91272308447E+03  0.91779164215E+03  0.92373748068E+02 0.  0.
         23    2    4    4    0    0 -0.29994973422E+03  0.15399564599E+03 -0.26404179806E+03  0.43905352118E+03  0.96775106788E+02 0.  0.
          1    1    3    3  502    0  0.85668871222E+02 -0.81582684003E+02 -0.37818688360E+03  0.39625775545E+03  0.00000000000E+00 0. -1.
         -1    1    3    3    0  502  0.19192517370E+03 -0.56748246774E+02 -0.92644173985E+03  0.94781323748E+03  0.00000000000E+00 0.  1.
         13    1    5    5    0    0 -0.61090387273E+01  0.35569920325E+02 -0.43297643050E+03  0.43447799594E+03  0.00000000000E+00 0. -1.
        -13    1    5    5    0    0  0.28464728029E+02 -0.51234635539E+02 -0.47974665398E+03  0.48331364622E+03  0.00000000000E+00 0.  1.
          4    1    6    6  503    0 -0.11243655027E+03  0.62358119005E+02 -0.16175709032E+03  0.20662978757E+03  0.00000000000E+00 0. -1.
         -4    1    6    6    0  503 -0.18751318395E+03  0.91637526986E+02 -0.10228470774E+03  0.23242373361E+03  0.00000000000E+00 0.  1.
<mgrwt>
<rscale>  0 0.37520933E+03</rscale>
<asrwt>0</asrwt>
<pdfrwt beam="1">  1        2 0.39863914E+00 0.37520933E+03</pdfrwt>
<pdfrwt beam="2">  1       -2 0.16886361E-01 0.37520933E+03</pdfrwt>
<totfact> 0.97826646E+01</totfact>
</mgrwt>
</event>
<event>
12    1  0.1444206E-007  0.8660178E+03  0.7818608E-02  0.9469087E-01
         -2   -1    0    0    0  501 -0.00000000000E+00  0.00000000000E+00  0.80390572845E+03  0.80390572845E+03  0.00000000000E+00 0. -1.
          2   -1    0    0  501    0  0.00000000000E+00 -0.00000000000E+00 -0.25960981703E+04  0.25960981703E+04  0.00000000000E+00 0.  1.
         23    2    1    2    0    0  0.24374438690E+03  0.75034108802E+03  0.47519075511E+03  0.92547300187E+03  0.90944757619E+02 0.  0.
    5000000    2    1    2    0    0 -0.24374438690E+03 -0.75034108802E+03 -0.22673831970E+04  0.24745308969E+04  0.59987792357E+03 0.  0.
         23    2    4    4    0    0  0.35972325757E+02 -0.63215195298E+03 -0.17943823505E+04  0.19049972231E+04  0.91084029422E+02 0.  0.
         23    2    4    4    0    0 -0.27971671266E+03 -0.11818913503E+03 -0.47300084651E+03  0.56953367380E+03  0.91807918012E+02 0.  0.
          3    1    3    3  502    0  0.24261376760E+02  0.13179683381E+03  0.11623160223E+03  0.17739449023E+03  0.00000000000E+00 0. -1.
         -3    1    3    3    0  502  0.21948301014E+03  0.61854425421E+03  0.35895915288E+03  0.74807851165E+03  0.00000000000E+00 0.  1.
         11    1    5    5    0    0  0.52939949913E+02 -0.29284255622E+03 -0.75656880855E+03  0.81299185918E+03  0.00000000000E+00 0.  1.
        -11    1    5    5    0    0 -0.16967624156E+02 -0.33930939676E+03 -0.10378135419E+04  0.10920053639E+04  0.00000000000E+00 0. -1.
          1    1    6    6  503    0 -0.94841829094E+02 -0.29502103517E+02 -0.85195960461E+02  0.13085754979E+03  0.00000000000E+00 0.  1.
         -1    1    6    6    0  503 -0.18487488357E+03 -0.88687031518E+02 -0.38780488605E+03  0.43867612401E+03  0.00000000000E+00 0. -1.
<mgrwt>
<rscale>  0 0.86601778E+03</rscale>
<asrwt>0</asrwt>
<pdfrwt beam="1">  1        2 0.39939972E+00 0.86601778E+03</pdfrwt>
<pdfrwt beam="2">  1       -2 0.12367780E+00 0.86601778E+03</pdfrwt>
<totfact> 0.15532906E+00</totfact>
</mgrwt>
</event>
<event>
12    1  0.1444206E-007  0.6680930E+03  0.7818608E-02  0.9773409E-01
          1   -1    0    0  501    0  0.00000000000E+00  0.00000000000E+00  0.15539208686E+04  0.15539208686E+04  0.00000000000E+00 0. -1.
         -1   -1    0    0    0  501 -0.00000000000E+00 -0.00000000000E+00 -0.33067203446E+03  0.33067203446E+03  0.00000000000E+00 0.  1.
         23    2    1    2    0    0 -0.45941030424E+03 -0.34344019426E+03  0.67081456564E+03  0.88746196383E+03  0.92669094632E+02 0.  0.
    5000000    2    1    2    0    0  0.45941030424E+03  0.34344019426E+03  0.55243426851E+03  0.99713093923E+03  0.60006457508E+03 0.  0.
         23    2    4    4    0    0  0.52648025677E+03  0.18029231811E+03  0.21398334001E+03  0.60299566395E+03  0.90156087972E+02 0.  0.
         23    2    4    4    0    0 -0.67069952529E+02  0.16314787615E+03  0.33845092851E+03  0.39413527528E+03  0.98376705540E+02 0.  0.
          3    1    3    3  502    0 -0.15852374687E+03 -0.83277594510E+02  0.25940349168E+03  0.31520645229E+03  0.00000000000E+00 0. -1.
         -3    1    3    3    0  502 -0.30088655737E+03 -0.26016259975E+03  0.41141107396E+03  0.57225551154E+03  0.00000000000E+00 0.  1.
         13    1    5    5    0    0  0.36065366518E+03  0.15426224412E+03  0.18065745373E+03  0.43186227174E+03  0.00000000000E+00 0.  1.
        -13    1    5    5    0    0  0.16582659159E+03  0.26030073998E+02  0.33325886275E+02  0.17113339220E+03  0.00000000000E+00 0. -1.
          1    1    6    6  503    0 -0.54532406787E+02  0.24092873518E+02  0.13279576878E+03  0.14556430246E+03  0.00000000000E+00 0. -1.
         -1    1    6    6    0  503 -0.12537545742E+02  0.13905500263E+03  0.20565515973E+03  0.24857097283E+03  0.00000000000E+00 0.  1.
<mgrwt>
<rscale>  0 0.66809299E+03</rscale>
<asrwt>0</asrwt>
<pdfrwt beam="1">  1        1 0.23906475E+00 0.66809299E+03</pdfrwt>
<pdfrwt beam="2">  1       -1 0.50872621E-01 0.66809299E+03</pdfrwt>
<totfact> 0.24376043E+01</totfact>
</mgrwt>
</event>
<event>
12    1  0.1444206E-007  0.1167622E+04  0.7818608E-02  0.9141679E-01
         -2   -1    0    0    0  501 -0.00000000000E+00  0.00000000000E+00  0.11031962378E+04  0.11031962378E+04  0.00000000000E+00 0.  1.
          2   -1    0    0  501    0  0.00000000000E+00 -0.00000000000E+00 -0.23818150597E+04  0.23818150597E+04  0.00000000000E+00 0. -1.
         23    2    1    2    0    0  0.62240590182E+03  0.97937051528E+03  0.50946183675E+03  0.12705852765E+04  0.90993785329E+02 0.  0.
    5000000    2    1    2    0    0 -0.62240590182E+03 -0.97937051528E+03 -0.17880806586E+04  0.22144260210E+04  0.59991203335E+03 0.  0.
         23    2    4    4    0    0 -0.25966270808E+03 -0.41061093200E+03 -0.12577837740E+04  0.13514285684E+04  0.91176170796E+02 0.  0.
         23    2    4    4    0    0 -0.36274319373E+03 -0.56875958328E+03 -0.53029688467E+03  0.86299745252E+03  0.92085444018E+02 0.  0.
          2    1    3    3  502    0  0.37241585441E+03  0.50592846483E+03  0.29093273001E+03  0.69231425923E+03  0.00000000000E+00 0. -1.
         -2    1    3    3    0  502  0.24999004740E+03  0.47344205045E+03  0.21852910674E+03  0.57827101728E+03  0.00000000000E+00 0.  1.
         13    1    5    5    0    0 -0.13079576038E+03 -0.28672310547E+03 -0.82840942855E+03  0.88632942603E+03  0.00000000000E+00 0. -1.
        -13    1    5    5    0    0 -0.12886694771E+03 -0.12388782653E+03 -0.42937434541E+03  0.46509914241E+03  0.00000000000E+00 0.  1.
          2    1    6    6  503    0 -0.32109080604E+03 -0.53567217793E+03 -0.50905690006E+03  0.80571888114E+03  0.00000000000E+00 0. -1.
         -2    1    6    6    0  503 -0.41652387690E+02 -0.33087405348E+02 -0.21239984611E+02  0.57278571379E+02  0.00000000000E+00 0.  1.
<mgrwt>
<rscale>  0 0.11676218E+04</rscale>
<asrwt>0</asrwt>
<pdfrwt beam="1">  1        2 0.36643308E+00 0.11676218E+04</pdfrwt>
<pdfrwt beam="2">  1       -2 0.16972250E+00 0.11676218E+04</pdfrwt>
<totfact> 0.85389729E-01</totfact>
</mgrwt>
</event>
<event>
12    1  0.1444206E-007  0.1351149E+04  0.7818608E-02  0.8989959E-01
          2   -1    0    0  501    0  0.00000000000E+00  0.00000000000E+00  0.15253685369E+04  0.15253685369E+04  0.00000000000E+00 0. -1.
         -2   -1    0    0    0  501 -0.00000000000E+00 -0.00000000000E+00 -0.13990688633E+04  0.13990688633E+04  0.00000000000E+00 0.  1.
         23    2    1    2    0    0 -0.13174810267E+03  0.12829034405E+04  0.59975487989E+03  0.14251029604E+04  0.89519446939E+02 0.  0.
    5000000    2    1    2    0    0  0.13174810267E+03 -0.12829034405E+04 -0.47345520630E+03  0.14993344398E+04  0.60053736739E+03 0.  0.
         23    2    4    4    0    0 -0.16282469590E+03 -0.90230654488E+03 -0.21553074946E+03  0.94625948670E+03  0.91019391809E+02 0.  0.
         23    2    4    4    0    0  0.29457279857E+03 -0.38059689566E+03 -0.25792445684E+03  0.55307495307E+03  0.87975835543E+02 0.  0.
          1    1    3    3  502    0 -0.25821058639E+02  0.66626591524E+03  0.29360645263E+03  0.72854769638E+03  0.00000000000E+00 0. -1.
         -1    1    3    3    0  502 -0.10592704403E+03  0.61663752530E+03  0.30614842726E+03  0.69655526398E+03  0.00000000000E+00 0.  1.
         11    1    5    5    0    0 -0.35461185392E+02 -0.45275248128E+03 -0.10607334801E+03  0.46636236998E+03  0.00000000000E+00 0. -1.
        -11    1    5    5    0    0 -0.12736351051E+03 -0.44955406360E+03 -0.10945740144E+03  0.47989711672E+03  0.00000000000E+00 0.  1.
          1    1    6    6  503    0  0.43628596069E+02 -0.11538567903E+03 -0.51798433604E+02  0.13379232805E+03  0.00000000000E+00 0. -1.
         -1    1    6    6    0  503  0.25094420250E+03 -0.26521121662E+03 -0.20612602324E+03  0.41928262502E+03  0.00000000000E+00 0.  1.
<mgrwt>
<rscale>  0 0.13511486E+04</rscale>
<asrwt>0</asrwt>
<pdfrwt beam="1">  1        2 0.23467208E+00 0.13511486E+04</pdfrwt>
<pdfrwt beam="2">  1       -2 0.21524136E+00 0.13511486E+04</pdfrwt>
<totfact> 0.12425595E+00</totfact>
</mgrwt>
</event>
<event>
12    1  0.1444206E-007  0.1022313E+04  0.7818608E-02  0.9284405E-01
         -2   -1    0    0    0  501 -0.00000000000E+00  0.00000000000E+00  0.11428884990E+04  0.11428884990E+04  0.00000000000E+00 0.  1.
          2   -1    0    0  501    0  0.00000000000E+00 -0.00000000000E+00 -0.13276902425E+04  0.13276902425E+04  0.00000000000E+00 0. -1.
         23    2    1    2    0    0 -0.14310623416E+03 -0.92966822824E+03 -0.76238130700E+03  0.12142109500E+04  0.91217131094E+02 0.  0.
    5000000    2    1    2    0    0  0.14310623416E+03  0.92966822824E+03  0.57757956351E+03  0.12563677915E+04  0.60008288298E+03 0.  0.
         23    2    4    4    0    0  0.35173741101E+03  0.71857984924E+03  0.41084594921E+03  0.90384752624E+03  0.89831790969E+02 0.  0.
         23    2    4    4    0    0 -0.20863117685E+03  0.21108837900E+03  0.16673361430E+03  0.35252026525E+03  0.91570560620E+02 0.  0.
          2    1    3    3  502    0 -0.31105449089E+02 -0.41861768030E+03 -0.29956144064E+03  0.51569891210E+03  0.00000000000E+00 0. -1.
         -2    1    3    3    0  502 -0.11200078507E+03 -0.51105054794E+03 -0.46281986636E+03  0.69851203791E+03  0.00000000000E+00 0.  1.
         11    1    5    5    0    0 -0.39387691599E+01  0.10888051823E+02  0.13297465721E+02  0.17631964429E+02  0.00000000000E+00 0. -1.
        -11    1    5    5    0    0  0.35567618017E+03  0.70769179742E+03  0.39754848349E+03  0.88621556181E+03  0.00000000000E+00 0.  1.
          4    1    6    6  503    0 -0.12344818547E+03  0.14364860006E+03  0.15204825845E+03  0.24288484451E+03  0.00000000000E+00 0. -1.
         -4    1    6    6    0  503 -0.85182991376E+02  0.67439778938E+02  0.14685355841E+02  0.10963542073E+03  0.00000000000E+00 0.  1.
<mgrwt>
<rscale>  0 0.10223132E+04</rscale>
<asrwt>0</asrwt>
<pdfrwt beam="1">  1        2 0.20426004E+00 0.10223132E+04</pdfrwt>
<pdfrwt beam="2">  1       -2 0.17582900E+00 0.10223132E+04</pdfrwt>
<totfact> 0.30546401E+00</totfact>
</mgrwt>
</event>
<event>
12    1  0.1444206E-007  0.1355838E+04  0.7818608E-02  0.8986420E-01
         -2   -1    0    0    0  501 -0.00000000000E+00  0.00000000000E+00  0.28587607848E+04  0.28587607848E+04  0.00000000000E+00 0.  1.
          2   -1    0    0  501    0  0.00000000000E+00 -0.00000000000E+00 -0.75719556176E+03  0.75719556176E+03  0.00000000000E+00 0. -1.
         23    2    1    2    0    0  0.13203501739E+04  0.16830617404E+03  0.44136576206E+03  0.14050881581E+04  0.88416323934E+02 0.  0.
    5000000    2    1    2    0    0 -0.13203501739E+04 -0.16830617404E+03  0.16601994610E+04  0.22108681884E+04  0.60002028840E+03 0.  0.
         23    2    4    4    0    0 -0.60918217457E+03 -0.25230284668E+03  0.45556429168E+03  0.80648813611E+03  0.90136793587E+02 0.  0.
         23    2    4    4    0    0 -0.71116799930E+03  0.83996672643E+02  0.12046351693E+04  0.14043800523E+04  0.91225413174E+02 0.  0.
          2    1    3    3  502    0  0.10062460172E+04  0.15608858382E+03  0.31022462100E+03  0.10644876743E+04  0.00000000000E+00 0. -1.
         -2    1    3    3    0  502  0.31410415663E+03  0.12217590223E+02  0.13114114106E+03  0.34060048385E+03  0.00000000000E+00 0.  1.
         13    1    5    5    0    0 -0.59580294245E+03 -0.24458341643E+03  0.45873296494E+03  0.79072000540E+03  0.00000000000E+00 0.  1.
        -13    1    5    5    0    0 -0.13379232123E+02 -0.77194302593E+01 -0.31686732520E+01  0.15768130704E+02  0.00000000000E+00 0. -1.
          3    1    6    6  503    0 -0.63728976439E+03  0.96731521442E+02  0.10413257765E+04  0.12246855122E+04  0.00000000000E+00 0. -1.
         -3    1    6    6    0  503 -0.73878234915E+02 -0.12734848799E+02  0.16330939278E+03  0.17969454009E+03  0.00000000000E+00 0.  1.
<mgrwt>
<rscale>  0 0.13558384E+04</rscale>
<asrwt>0</asrwt>
<pdfrwt beam="1">  1        2 0.11649163E+00 0.13558384E+04</pdfrwt>
<pdfrwt beam="2">  1       -2 0.43980935E+00 0.13558384E+04</pdfrwt>
<totfact> 0.14558338E-01</totfact>
</mgrwt>
</event>
<event>
12    1  0.1444206E-007  0.5033467E+03  0.7818608E-02  0.1012909E+00
         -2   -1    0    0    0  501 -0.00000000000E+00  0.00000000000E+00  0.77793329329E+03  0.77793329329E+03  0.00000000000E+00 0.  1.
          2   -1    0    0  501    0  0.00000000000E+00 -0.00000000000E+00 -0.44875189050E+03  0.44875189050E+03  0.00000000000E+00 0. -1.
         23    2    1    2    0    0 -0.41962061266E+03 -0.94795074517E+02  0.17102680267E+03  0.47181901435E+03  0.91079362941E+02 0.  0.
    5000000    2    1    2    0    0  0.41962061266E+03  0.94795074517E+02  0.15815460013E+03  0.75486616944E+03  0.59978537120E+03 0.  0.
         23    2    4    4    0    0 -0.48274717726E+02  0.36514718232E+02 -0.14950265910E+03  0.18465245174E+03  0.89898330552E+02 0.  0.
         23    2    4    4    0    0  0.46789533038E+03  0.58280356285E+02  0.30765725922E+03  0.57021371770E+03  0.90377290199E+02 0.  0.
          4    1    3    3  502    0 -0.28124060023E+03 -0.18836926802E+02  0.11052175146E+03  0.30276420293E+03  0.00000000000E+00 0. -1.
         -4    1    3    3    0  502 -0.13838001242E+03 -0.75958147715E+02  0.60505051206E+02  0.16905481142E+03  0.00000000000E+00 0.  1.
         13    1    5    5    0    0 -0.26738063933E+02 -0.20665796216E+02 -0.15101977498E+02  0.37014442052E+02  0.00000000000E+00 0.  1.
        -13    1    5    5    0    0 -0.21536653793E+02  0.57180514447E+02 -0.13440068160E+03  0.14763800968E+03  0.00000000000E+00 0. -1.
          4    1    6    6  503    0  0.40586259269E+03  0.42636304179E+02  0.22605243140E+03  0.46652116814E+03  0.00000000000E+00 0. -1.
         -4    1    6    6    0  503  0.62032737695E+02  0.15644052106E+02  0.81604827821E+02  0.10369254957E+03  0.00000000000E+00 0.  1.
<mgrwt>
<rscale>  0 0.50334673E+03</rscale>
<asrwt>0</asrwt>
<pdfrwt beam="1">  1        2 0.69038753E-01 0.50334673E+03</pdfrwt>
<pdfrwt beam="2">  1       -2 0.11968204E+00 0.50334673E+03</pdfrwt>
<totfact> 0.38529933E+01</totfact>
</mgrwt>
</event>
<event>
12    1  0.1444206E-007  0.6954609E+03  0.7818608E-02  0.9725026E-01
         -2   -1    0    0    0  501 -0.00000000000E+00  0.00000000000E+00  0.57688755727E+03  0.57688755727E+03  0.00000000000E+00 0.  1.
          2   -1    0    0  501    0  0.00000000000E+00 -0.00000000000E+00 -0.90918173637E+03  0.90918173637E+03  0.00000000000E+00 0. -1.
         23    2    1    2    0    0  0.34535085687E+03 -0.45889155909E+03  0.26160886626E+02  0.58159058136E+03  0.87832425602E+02 0.  0.
    5000000    2    1    2    0    0 -0.34535085687E+03  0.45889155909E+03 -0.35845506572E+03  0.90447871228E+03  0.59978581967E+03 0.  0.
         23    2    4    4    0    0  0.71609719230E+02  0.37552111356E+03 -0.17806211567E+03  0.43142589195E+03  0.90984199665E+02 0.  0.
         23    2    4    4    0    0 -0.41696057610E+03  0.83370445536E+02 -0.18039295005E+03  0.47305282033E+03  0.10213031471E+03 0.  0.
          1    1    3    3  502    0  0.97270503863E+02 -0.10884999279E+03  0.43132201838E+02  0.15221780017E+03  0.00000000000E+00 0. -1.
         -1    1    3    3    0  502  0.24808035301E+03 -0.35004156630E+03 -0.16971315212E+02  0.42937278119E+03  0.00000000000E+00 0.  1.
         11    1    5    5    0    0  0.43311189698E+02  0.18883172615E+03 -0.13943047604E+03  0.23869255875E+03  0.00000000000E+00 0.  1.
        -11    1    5    5    0    0  0.28298529532E+02  0.18668938741E+03 -0.38631639631E+02  0.19273333320E+03  0.00000000000E+00 0. -1.
          2    1    6    6  503    0 -0.11628912960E+03  0.62334299442E+02 -0.26288905190E+02  0.13453562014E+03  0.00000000000E+00 0. -1.
         -2    1    6    6    0  503 -0.30067144650E+03  0.21036146093E+02 -0.15410404486E+03  0.33851720019E+03  0.00000000000E+00 0.  1.
<mgrwt>
<rscale>  0 0.69546093E+03</rscale>
<asrwt>0</asrwt>
<pdfrwt beam="1">  1        2 0.13987411E+00 0.69546093E+03</pdfrwt>
<pdfrwt beam="2">  1       -2 0.88751933E-01 0.69546093E+03</pdfrwt>
<totfact> 0.32191134E+01</totfact>
</mgrwt>
</event>
<event>
12    1  0.1444206E-007  0.5173452E+03  0.7818608E-02  0.1009348E+00
         -2   -1    0    0    0  501 -0.00000000000E+00  0.00000000000E+00  0.40921544558E+03  0.40921544558E+03  0.00000000000E+00 0.  1.
          2   -1    0    0  501    0  0.00000000000E+00 -0.00000000000E+00 -0.10036966220E+04  0.10036966220E+04  0.00000000000E+00 0. -1.
         23    2    1    2    0    0 -0.89684994418E+02  0.47834834531E+03 -0.15803535420E+03  0.52561184669E+03  0.12013368603E+03 0.  0.
    5000000    2    1    2    0    0  0.89684994418E+02 -0.47834834531E+03 -0.43644582218E+03  0.88730022086E+03  0.59996348935E+03 0.  0.
         23    2    4    4    0    0  0.15567471808E+03 -0.39045537284E+03 -0.29904613334E+01  0.43044888065E+03  0.92667577780E+02 0.  0.
         23    2    4    4    0    0 -0.65989723658E+02 -0.87892972474E+02 -0.43345536085E+03  0.45685134020E+03  0.93540253149E+02 0.  0.
          2    1    3    3  502    0 -0.66249354298E+01  0.65410995285E+02 -0.68591021950E+02  0.95011664367E+02  0.00000000000E+00 0. -1.
         -2    1    3    3    0  502 -0.83060058988E+02  0.41293735003E+03 -0.89444332251E+02  0.43060018232E+03  0.00000000000E+00 0.  1.
         11    1    5    5    0    0  0.58771211009E+02 -0.67402694212E+02  0.22498720969E+02  0.92213723901E+02  0.00000000000E+00 0. -1.
        -11    1    5    5    0    0  0.96903507067E+02 -0.32305267863E+03 -0.25489182302E+02  0.33823515675E+03  0.00000000000E+00 0.  1.
          1    1    6    6  503    0 -0.19897986360E+02 -0.67970865728E+02 -0.36582876434E+03  0.37262132691E+03  0.00000000000E+00 0. -1.
         -1    1    6    6    0  503 -0.46091737298E+02 -0.19922106746E+02 -0.67626596509E+02  0.84230013296E+02  0.00000000000E+00 0.  1.
<mgrwt>
<rscale>  0 0.51734522E+03</rscale>
<asrwt>0</asrwt>
<pdfrwt beam="1">  1        2 0.15441486E+00 0.51734522E+03</pdfrwt>
<pdfrwt beam="2">  1       -2 0.62956222E-01 0.51734522E+03</pdfrwt>
<totfact> 0.60857910E+01</totfact>
</mgrwt>
</event>
<event>
12    1  0.1444206E-007  0.3999347E+03  0.7818608E-02  0.1043802E+00
          2   -1    0    0  501    0  0.00000000000E+00  0.00000000000E+00  0.12491202598E+04  0.12491202598E+04  0.00000000000E+00 0. -1.
         -2   -1    0    0    0  501 -0.00000000000E+00 -0.00000000000E+00 -0.27304365966E+03  0.27304365966E+03  0.00000000000E+00 0.  1.
         23    2    1    2    0    0  0.20344508630E+03  0.10516243547E+03 -0.10251471375E+03  0.26682882288E+03  0.90770662724E+02 0.  0.
    5000000    2    1    2    0    0 -0.20344508630E+03 -0.10516243547E+03  0.10785913139E+04  0.12553350966E+04  0.60004828248E+03 0.  0.
         23    2    4    4    0    0 -0.25954870288E+03  0.13700415560E+03  0.85018078734E+03  0.90388575863E+03  0.89813282266E+02 0.  0.
         23    2    4    4    0    0  0.56103616582E+02 -0.24216659107E+03  0.22841052655E+03  0.35144933794E+03  0.97739423340E+02 0.  0.
          3    1    3    3  502    0  0.16031602979E+03  0.54969806551E+02 -0.10711705531E+03  0.20049182671E+03  0.00000000000E+00 0. -1.
         -3    1    3    3    0  502  0.43129056514E+02  0.50192628919E+02  0.46023415579E+01  0.66336996174E+02  0.00000000000E+00 0.  1.
         13    1    5    5    0    0 -0.24826504286E+03  0.11655436868E+03  0.82566672165E+03  0.87002642926E+03  0.00000000000E+00 0.  1.
        -13    1    5    5    0    0 -0.11283660025E+02  0.20449786929E+02  0.24514065685E+02  0.33859329370E+02  0.00000000000E+00 0. -1.
          1    1    6    6  503    0  0.45819881390E+02 -0.31330234095E+02  0.38979049365E+02  0.67826332559E+02  0.00000000000E+00 0. -1.
         -1    1    6    6    0  503  0.10283735192E+02 -0.21083635698E+03  0.18943147719E+03  0.28362300539E+03  0.00000000000E+00 0.  1.
<mgrwt>
<rscale>  0 0.39993470E+03</rscale>
<asrwt>0</asrwt>
<pdfrwt beam="1">  1        2 0.19217234E+00 0.39993470E+03</pdfrwt>
<pdfrwt beam="2">  1       -2 0.42006718E-01 0.39993470E+03</pdfrwt>
<totfact> 0.10044252E+02</totfact>
</mgrwt>
</event>
<event>
12    1  0.1444206E-007  0.6836104E+03  0.7818608E-02  0.9745678E-01
          2   -1    0    0  501    0  0.00000000000E+00  0.00000000000E+00  0.30671118141E+04  0.30671118141E+04  0.00000000000E+00 0.  1.
         -2   -1    0    0    0  501 -0.00000000000E+00 -0.00000000000E+00 -0.21726330417E+03  0.21726330417E+03  0.00000000000E+00 0. -1.
         23    2    1    2    0    0  0.29372964009E+03  0.56712009760E+03  0.18265544766E+04  0.19371291005E+04  0.90915287035E+02 0.  0.
    5000000    2    1    2    0    0 -0.29372964009E+03 -0.56712009760E+03  0.10232940333E+04  0.13472460178E+04  0.60003237180E+03 0.  0.
         23    2    4    4    0    0 -0.21458774011E+03 -0.10476070372E+03  0.42896592003E+02  0.25669077813E+03  0.83829199696E+02 0.  0.
         23    2    4    4    0    0 -0.79141899976E+02 -0.46235939388E+03  0.98039744132E+03  0.10905552396E+04  0.89955201763E+02 0.  0.
          3    1    3    3  502    0  0.20253592144E+03  0.36427195879E+03  0.10611643200E+04  0.11400809504E+04  0.00000000000E+00 0. -1.
         -3    1    3    3    0  502  0.91193718652E+02  0.20284813881E+03  0.76539015657E+03  0.79704815006E+03  0.00000000000E+00 0.  1.
         13    1    5    5    0    0 -0.13282216255E+03 -0.21159132461E+02  0.37499688402E+02  0.13962686841E+03  0.00000000000E+00 0. -1.
        -13    1    5    5    0    0 -0.81765577561E+02 -0.83601571260E+02  0.53969036002E+01  0.11706390972E+03  0.00000000000E+00 0.  1.
          4    1    6    6  503    0  0.15720224252E+02 -0.13031271591E+03  0.23878709117E+03  0.27248450284E+03  0.00000000000E+00 0. -1.
         -4    1    6    6    0  503 -0.94862124228E+02 -0.33204667797E+03  0.74161035015E+03  0.81807073680E+03  0.00000000000E+00 0.  1.
<mgrwt>
<rscale>  0 0.68361039E+03</rscale>
<asrwt>0</asrwt>
<pdfrwt beam="1">  1        2 0.47186332E+00 0.68361039E+03</pdfrwt>
<pdfrwt beam="2">  1       -2 0.33425126E-01 0.68361039E+03</pdfrwt>
<totfact> 0.14216551E+01</totfact>
</mgrwt>
</event>
<event>
12    1  0.1444206E-007  0.1408939E+04  0.7818608E-02  0.8947374E-01
          2   -1    0    0  501    0  0.00000000000E+00  0.00000000000E+00  0.25910088288E+04  0.25910088288E+04  0.00000000000E+00 0. -1.
         -2   -1    0    0    0  501 -0.00000000000E+00 -0.00000000000E+00 -0.81913720147E+03  0.81913720147E+03  0.00000000000E+00 0.  1.
         23    2    1    2    0    0 -0.73006964946E+03  0.11762263575E+04  0.10333916435E+04  0.17303222173E+04  0.98013009123E+02 0.  0.
    5000000    2    1    2    0    0  0.73006964946E+03 -0.11762263575E+04  0.73847998389E+03  0.16798238130E+04  0.59995434735E+03 0.  0.
         23    2    4    4    0    0  0.15569804111E+03 -0.63868643781E+02  0.28899573562E+03  0.34655343455E+03  0.90882694347E+02 0.  0.
         23    2    4    4    0    0  0.57437160836E+03 -0.11123577137E+04  0.44948424827E+03  0.13332703784E+04  0.91276419759E+02 0.  0.
          1    1    3    3  502    0 -0.19869622860E+03  0.28649218086E+03  0.21296234500E+03  0.40854733060E+03  0.00000000000E+00 0. -1.
         -1    1    3    3    0  502 -0.53137342086E+03  0.88973417661E+03  0.82042929847E+03  0.13217748867E+04  0.00000000000E+00 0.  1.
         13    1    5    5    0    0  0.14985711488E+02  0.13671591988E+02  0.60370840547E+01  0.21164365338E+02  0.00000000000E+00 0.  1.
        -13    1    5    5    0    0  0.14071232962E+03 -0.77540235768E+02  0.28295865156E+03  0.32538906921E+03  0.00000000000E+00 0. -1.
          4    1    6    6  503    0  0.52028005066E+03 -0.10145880040E+04  0.38082788388E+03  0.12021272920E+04  0.00000000000E+00 0.  1.
         -4    1    6    6    0  503  0.54091557695E+02 -0.97769709683E+02  0.68656364393E+02  0.13114308642E+03  0.00000000000E+00 0. -1.
<mgrwt>
<rscale>  0 0.14089388E+04</rscale>
<asrwt>0</asrwt>
<pdfrwt beam="1">  1        2 0.39861674E+00 0.14089388E+04</pdfrwt>
<pdfrwt beam="2">  1       -2 0.12602111E+00 0.14089388E+04</pdfrwt>
<totfact> 0.13862297E+00</totfact>
</mgrwt>
</event>
<event>
12    1  0.1618905E-007  0.6762837E+03  0.7818608E-02  0.9758672E-01
         -2   -1    0    0    0  501 -0.00000000000E+00  0.00000000000E+00  0.44950137864E+03  0.44950137864E+03  0.00000000000E+00 0.  1.
          2   -1    0    0  501    0  0.00000000000E+00 -0.00000000000E+00 -0.12474195170E+04  0.12474195170E+04  0.00000000000E+00 0. -1.
         23    2    1    2    0    0 -0.27215667088E+03  0.55341428484E+03 -0.45104348541E+03  0.76923614339E+03  0.89148159845E+02 0.  0.
    5000000    2    1    2    0    0  0.27215667088E+03 -0.55341428484E+03 -0.34687465296E+03  0.92768475225E+03  0.59995029004E+03 0.  0.
         23    2    4    4    0    0  0.36381856252E+03 -0.35243740316E+03 -0.43484970367E+03  0.67325501808E+03  0.87189362983E+02 0.  0.
         23    2    4    4    0    0 -0.91661891634E+02 -0.20097688167E+03  0.87975050710E+02  0.25442973416E+03  0.90560867553E+02 0.  0.
          4    1    3    3  502    0 -0.87077483671E+02  0.26153136420E+03 -0.17074839257E+03  0.32424706041E+03  0.00000000000E+00 0.  1.
         -4    1    3    3    0  502 -0.18507918721E+03  0.29188292064E+03 -0.28029509285E+03  0.44498908298E+03  0.00000000000E+00 0. -1.
         11    1    5    5    0    0  0.17854267540E+03 -0.16931317132E+03 -0.26838076444E+03  0.36410530296E+03  0.00000000000E+00 0. -1.
        -11    1    5    5    0    0  0.18527588712E+03 -0.18312423184E+03 -0.16646893922E+03  0.30914971513E+03  0.00000000000E+00 0.  1.
          1    1    6    6  503    0 -0.10097575636E+02 -0.68004637860E+02  0.68796958681E+02  0.97260543531E+02  0.00000000000E+00 0. -1.
         -1    1    6    6    0  503 -0.81564315998E+02 -0.13297224381E+03  0.19178092029E+02  0.15716919063E+03  0.00000000000E+00 0.  1.
<mgrwt>
<rscale>  0 0.67628374E+03</rscale>
<asrwt>0</asrwt>
<pdfrwt beam="1">  1        2 0.19191069E+00 0.67628374E+03</pdfrwt>
<pdfrwt beam="2">  1       -2 0.69154060E-01 0.67628374E+03</pdfrwt>
<totfact> 0.34808893E+01</totfact>
</mgrwt>
</event>
<event>
12    1  0.1444206E-007  0.9323744E+03  0.7818608E-02  0.9385993E-01
         -2   -1    0    0    0  501 -0.00000000000E+00  0.00000000000E+00  0.54607868914E+03  0.54607868914E+03  0.00000000000E+00 0.  1.
          2   -1    0    0  501    0  0.00000000000E+00 -0.00000000000E+00 -0.19147484257E+04  0.19147484257E+04  0.00000000000E+00 0. -1.
         23    2    1    2    0    0  0.63325588266E+03 -0.64339880210E+03 -0.90612619912E+03  0.12822957367E+04  0.90788965016E+02 0.  0.
    5000000    2    1    2    0    0 -0.63325588266E+03  0.64339880210E+03 -0.46254353747E+03  0.11785313782E+04  0.60001221137E+03 0.  0.
         23    2    4    4    0    0 -0.97703651040E+02  0.28932880452E+03  0.85009891104E+02  0.32982015992E+03  0.91090590930E+02 0.  0.
         23    2    4    4    0    0 -0.53555223162E+03  0.35406999758E+03 -0.54755342858E+03  0.84871121824E+03  0.91182338453E+02 0.  0.
          4    1    3    3  502    0  0.48150840607E+03 -0.53130577454E+03 -0.68528356525E+03  0.99184158815E+03  0.00000000000E+00 0. -1.
         -4    1    3    3    0  502  0.15174747659E+03 -0.11209302756E+03 -0.22084263387E+03  0.29045414855E+03  0.00000000000E+00 0.  1.
         13    1    5    5    0    0  0.12440180706E+02  0.66215172381E+02  0.16023337805E+01  0.67392689685E+02  0.00000000000E+00 0. -1.
        -13    1    5    5    0    0 -0.11014383175E+03  0.22311363214E+03  0.83407557323E+02  0.26242747024E+03  0.00000000000E+00 0.  1.
          1    1    6    6  503    0 -0.31101118922E+03  0.18597444882E+03 -0.25288012963E+03  0.44188552296E+03  0.00000000000E+00 0. -1.
         -1    1    6    6    0  503 -0.22454104239E+03  0.16809554876E+03 -0.29467329895E+03  0.40682569528E+03  0.00000000000E+00 0.  1.
<mgrwt>
<rscale>  0 0.93237445E+03</rscale>
<asrwt>0</asrwt>
<pdfrwt beam="1">  1        2 0.29457668E+00 0.93237445E+03</pdfrwt>
<pdfrwt beam="2">  1       -2 0.84012107E-01 0.93237445E+03</pdfrwt>
<totfact> 0.92996345E+00</totfact>
</mgrwt>
</event>
<event>
12    1  0.1444206E-007  0.9595197E+03  0.7818608E-02  0.9354092E-01
         -2   -1    0    0    0  501 -0.00000000000E+00  0.00000000000E+00  0.48721351854E+03  0.48721351854E+03  0.00000000000E+00 0.  1.
          2   -1    0    0  501    0  0.00000000000E+00 -0.00000000000E+00 -0.21909421955E+04  0.21909421955E+04  0.00000000000E+00 0. -1.
         23    2    1    2    0    0 -0.76900617389E+03 -0.54355193250E+03 -0.69947586926E+03  0.11765947419E+04  0.91046670410E+02 0.  0.
    5000000    2    1    2    0    0  0.76900617389E+03  0.54355193250E+03 -0.10042528077E+04  0.15015609722E+04  0.59945179334E+03 0.  0.
         23    2    4    4    0    0  0.49523360969E+03  0.46322764357E+03 -0.32140126115E+03  0.75597965095E+03  0.91489256443E+02 0.  0.
         23    2    4    4    0    0  0.27377256420E+03  0.80324288931E+02 -0.68285154660E+03  0.74558132124E+03  0.90564140790E+02 0.  0.
          4    1    3    3  502    0 -0.33463797281E+03 -0.19813026935E+03 -0.32830498571E+03  0.50894237406E+03  0.00000000000E+00 0. -1.
         -4    1    3    3    0  502 -0.43436820108E+03 -0.34542166315E+03 -0.37117088355E+03  0.66765236784E+03  0.00000000000E+00 0.  1.
         11    1    5    5    0    0  0.33018227082E+03  0.35291910475E+03 -0.19832055210E+03  0.52240144319E+03  0.00000000000E+00 0. -1.
        -11    1    5    5    0    0  0.16505133887E+03  0.11030853882E+03 -0.12308070905E+03  0.23357820776E+03  0.00000000000E+00 0.  1.
          2    1    6    6  503    0  0.77344178476E+02 -0.84531005748E+01 -0.25325717777E+03  0.26493919103E+03  0.00000000000E+00 0. -1.
         -2    1    6    6    0  503  0.19642838572E+03  0.88777389506E+02 -0.42959436883E+03  0.48064213021E+03  0.00000000000E+00 0.  1.
<mgrwt>
<rscale>  0 0.95951974E+03</rscale>
<asrwt>0</asrwt>
<pdfrwt beam="1">  1        2 0.33706804E+00 0.95951974E+03</pdfrwt>
<pdfrwt beam="2">  1       -2 0.74955924E-01 0.95951974E+03</pdfrwt>
<totfact> 0.84396697E+00</totfact>
</mgrwt>
</event>
<event>
12    1  0.1444206E-007  0.3862858E+03  0.7818608E-02  0.1048635E+00
          1   -1    0    0  501    0  0.00000000000E+00  0.00000000000E+00  0.31714337113E+03  0.31714337113E+03  0.00000000000E+00 0. -1.
         -1   -1    0    0    0  501 -0.00000000000E+00 -0.00000000000E+00 -0.62002697005E+03  0.62002697005E+03  0.00000000000E+00 0.  1.
         23    2    1    2    0    0  0.17229929977E+03  0.10736335716E+03 -0.19214640421E+03  0.29429687187E+03  0.92067741251E+02 0.  0.
    5000000    2    1    2    0    0 -0.17229929977E+03 -0.10736335716E+03 -0.11073719471E+03  0.64287346931E+03  0.59984133909E+03 0.  0.
         23    2    4    4    0    0 -0.10491635072E+03 -0.31001267282E+03  0.74373269958E+02  0.34651119254E+03  0.86158721624E+02 0.  0.
         23    2    4    4    0    0 -0.67382949045E+02  0.20264931566E+03 -0.18511046467E+03  0.29636227677E+03  0.89204865350E+02 0.  0.
          2    1    3    3  502    0  0.77100510487E+02  0.46317816672E+02 -0.26571197716E+02  0.93786232500E+02  0.00000000000E+00 0. -1.
         -2    1    3    3    0  502  0.95198789281E+02  0.61045540487E+02 -0.16557520649E+03  0.20051063937E+03  0.00000000000E+00 0.  1.
         13    1    5    5    0    0 -0.11869695327E+03 -0.25153423943E+03  0.56337363060E+02  0.28378220310E+03  0.00000000000E+00 0.  1.
        -13    1    5    5    0    0  0.13780602542E+02 -0.58478433392E+02  0.18035906899E+02  0.62728989440E+02  0.00000000000E+00 0. -1.
          1    1    6    6  503    0  0.20577996564E+02  0.63054657388E+02 -0.57371156273E+02  0.87697168329E+02  0.00000000000E+00 0. -1.
         -1    1    6    6    0  503 -0.87960945609E+02  0.13959465827E+03 -0.12773930840E+03  0.20866510844E+03  0.00000000000E+00 0.  1.
<mgrwt>
<rscale>  0 0.38628577E+03</rscale>
<asrwt>0</asrwt>
<pdfrwt beam="1">  1        1 0.48791288E-01 0.38628577E+03</pdfrwt>
<pdfrwt beam="2">  1       -1 0.95388764E-01 0.38628577E+03</pdfrwt>
<totfact> 0.90827423E+01</totfact>
</mgrwt>
</event>
<event>
12    1  0.1444206E-007  0.1156410E+04  0.7818608E-02  0.9151890E-01
         -2   -1    0    0    0  501 -0.00000000000E+00  0.00000000000E+00  0.96574426362E+03  0.96574426362E+03  0.00000000000E+00 0.  1.
          2   -1    0    0  501    0  0.00000000000E+00 -0.00000000000E+00 -0.16814072833E+04  0.16814072833E+04  0.00000000000E+00 0. -1.
         23    2    1    2    0    0  0.49400310147E+03  0.10324059309E+04 -0.71865824259E+03  0.13549025156E+04  0.96902460529E+02 0.  0.
    5000000    2    1    2    0    0 -0.49400310147E+03 -0.10324059309E+04  0.29952228592E+01  0.12922490313E+04  0.59999793100E+03 0.  0.
         23    2    4    4    0    0 -0.32762630451E+03 -0.48443030725E+03  0.27384328335E+03  0.65219105720E+03  0.91385520002E+02 0.  0.
         23    2    4    4    0    0 -0.16637679696E+03 -0.54797562364E+03 -0.27084806049E+03  0.64005797413E+03  0.91416714560E+02 0.  0.
          1    1    3    3  502    0  0.17756306595E+03  0.40558393225E+03 -0.33126518796E+03  0.55295894354E+03  0.00000000000E+00 0. -1.
         -1    1    3    3    0  502  0.31644003551E+03  0.62682199864E+03 -0.38739305462E+03  0.80194357210E+03  0.00000000000E+00 0.  1.
         11    1    5    5    0    0 -0.10084227062E+03 -0.22102097335E+03  0.90785990330E+02  0.25934827982E+03  0.00000000000E+00 0.  1.
        -11    1    5    5    0    0 -0.22678403388E+03 -0.26340933389E+03  0.18305729302E+03  0.39284277737E+03  0.00000000000E+00 0. -1.
          3    1    6    6  503    0 -0.66629072482E+02 -0.11360513933E+03 -0.37230544356E+02  0.13686370744E+03  0.00000000000E+00 0. -1.
         -3    1    6    6    0  503 -0.99747724478E+02 -0.43437048431E+03 -0.23361751614E+03  0.50319426669E+03  0.00000000000E+00 0.  1.
<mgrwt>
<rscale>  0 0.11564103E+04</rscale>
<asrwt>0</asrwt>
<pdfrwt beam="1">  1        2 0.25867804E+00 0.11564103E+04</pdfrwt>
<pdfrwt beam="2">  1       -2 0.14857604E+00 0.11564103E+04</pdfrwt>
<totfact> 0.30141885E+00</totfact>
</mgrwt>
</event>
<event>
12    1  0.1444206E-007  0.6041836E+03  0.7818608E-02  0.9896764E-01
          2   -1    0    0  501    0  0.00000000000E+00  0.00000000000E+00  0.18421679485E+04  0.18421679485E+04  0.00000000000E+00 0.  1.
         -2   -1    0    0    0  501 -0.00000000000E+00 -0.00000000000E+00 -0.24283681315E+03  0.24283681315E+03  0.00000000000E+00 0. -1.
         23    2    1    2    0    0 -0.48894350491E+03 -0.15662496037E+03  0.84296961704E+03  0.99156693103E+03  0.94921410971E+02 0.  0.
    5000000    2    1    2    0    0  0.48894350491E+03  0.15662496037E+03  0.75636151829E+03  0.10934378306E+04  0.59993867507E+03 0.  0.
         23    2    4    4    0    0  0.46507674706E+03  0.27811242532E+03  0.76280793408E+03  0.94118274674E+03  0.10151904596E+03 0.  0.
         23    2    4    4    0    0  0.23866757843E+02 -0.12148746495E+03 -0.64464157921E+01  0.15225508386E+03  0.88381151925E+02 0.  0.
          3    1    3    3  502    0 -0.23982969259E+03 -0.74907022485E+02  0.32276973090E+03  0.40903501396E+03  0.00000000000E+00 0. -1.
         -3    1    3    3    0  502 -0.24911381232E+03 -0.81717937883E+02  0.52019988614E+03  0.58253191707E+03  0.00000000000E+00 0.  1.
         13    1    5    5    0    0  0.34529390994E+03  0.17744038353E+03  0.60581414828E+03  0.71953023301E+03  0.00000000000E+00 0. -1.
        -13    1    5    5    0    0  0.11978283712E+03  0.10067204178E+03  0.15699378580E+03  0.22165251374E+03  0.00000000000E+00 0.  1.
          3    1    6    6  503    0  0.48047072588E+02 -0.11585359612E+03 -0.14252697886E+02  0.12622882521E+03  0.00000000000E+00 0. -1.
         -3    1    6    6    0  503 -0.24180314745E+02 -0.56338688329E+01  0.78062820936E+01  0.26026258650E+02  0.00000000000E+00 0.  1.
<mgrwt>
<rscale>  0 0.60418357E+03</rscale>
<asrwt>0</asrwt>
<pdfrwt beam="1">  1        2 0.28341045E+00 0.60418357E+03</pdfrwt>
<pdfrwt beam="2">  1       -2 0.37359511E-01 0.60418357E+03</pdfrwt>
<totfact> 0.57742912E+01</totfact>
</mgrwt>
</event>
<event>
12    1  0.1444206E-007  0.3605909E+03  0.7818608E-02  0.1058350E+00
         -1   -1    0    0    0  501 -0.00000000000E+00  0.00000000000E+00  0.10359878676E+04  0.10359878676E+04  0.00000000000E+00 0.  1.
          1   -1    0    0  501    0  0.00000000000E+00 -0.00000000000E+00 -0.27237071390E+03  0.27237071390E+03  0.00000000000E+00 0. -1.
         23    2    1    2    0    0  0.21403580973E+03  0.37012639695E+02  0.60737431187E+03  0.65147066666E+03  0.91264513617E+02 0.  0.
    5000000    2    1    2    0    0 -0.21403580973E+03 -0.37012639695E+02  0.15624284178E+03  0.65688791480E+03  0.59992386488E+03 0.  0.
         23    2    4    4    0    0 -0.29826843169E+03 -0.13763229590E+03  0.28902598768E+03  0.44747322545E+03  0.93752651832E+02 0.  0.
         23    2    4    4    0    0  0.84232621963E+02  0.10061965621E+03 -0.13278314590E+03  0.20941468935E+03  0.94887820408E+02 0.  0.
          2    1    3    3  502    0  0.82929679239E+02  0.55685341357E+02  0.20863411922E+03  0.23131447133E+03  0.00000000000E+00 0. -1.
         -2    1    3    3    0  502  0.13110613049E+03 -0.18672701661E+02  0.39874019265E+03  0.42015619533E+03  0.00000000000E+00 0.  1.
         13    1    5    5    0    0 -0.12077185261E+03 -0.10591650430E+03  0.12228967592E+03  0.20188836297E+03  0.00000000000E+00 0.  1.
        -13    1    5    5    0    0 -0.17749657908E+03 -0.31715791602E+02  0.16673631175E+03  0.24558486248E+03  0.00000000000E+00 0. -1.
          3    1    6    6  503    0  0.38985354713E+02  0.94540803660E+02 -0.47665554951E+02  0.11282653308E+03  0.00000000000E+00 0. -1.
         -3    1    6    6    0  503  0.45247267250E+02  0.60788525465E+01 -0.85117590944E+02  0.96588156262E+02  0.00000000000E+00 0.  1.
<mgrwt>
<rscale>  0 0.36059095E+03</rscale>
<asrwt>0</asrwt>
<pdfrwt beam="1">  1        1 0.41903187E-01 0.36059095E+03</pdfrwt>
<pdfrwt beam="2">  1       -1 0.15938275E+00 0.36059095E+03</pdfrwt>
<totfact> 0.31580843E+01</totfact>
</mgrwt>
</event>
<event>
12    1  0.1444206E-007  0.7028813E+03  0.7818608E-02  0.9712317E-01
         -2   -1    0    0    0  501 -0.00000000000E+00  0.00000000000E+00  0.11648968720E+04  0.11648968720E+04  0.00000000000E+00 0.  1.
          2   -1    0    0  501    0  0.00000000000E+00 -0.00000000000E+00 -0.55625262939E+03  0.55625262939E+03  0.00000000000E+00 0. -1.
         23    2    1    2    0    0 -0.53050901704E+02 -0.62573707931E+03  0.56712437071E+03  0.85159696202E+03  0.96052294526E+02 0.  0.
    5000000    2    1    2    0    0  0.53050901704E+02  0.62573707931E+03  0.41519871945E+02  0.86955253941E+03  0.60003035627E+03 0.  0.
         23    2    4    4    0    0  0.24936102839E+03  0.30667450203E+03 -0.15822581172E+03  0.43554542414E+03  0.91838098421E+02 0.  0.
         23    2    4    4    0    0 -0.19631012668E+03  0.31906257728E+03  0.19974568366E+03  0.43400711528E+03  0.90140134857E+02 0.  0.
          4    1    3    3  502    0  0.77311626614E+01 -0.32440035595E+03  0.33504258792E+03  0.46642137337E+03  0.00000000000E+00 0.  1.
         -4    1    3    3    0  502 -0.60782064365E+02 -0.30133672335E+03  0.23208178279E+03  0.38517558865E+03  0.00000000000E+00 0. -1.
         11    1    5    5    0    0  0.11732335392E+03  0.16888526399E+03 -0.12828370181E+03  0.24237101707E+03  0.00000000000E+00 0.  1.
        -11    1    5    5    0    0  0.13203767447E+03  0.13778923804E+03 -0.29942109901E+02  0.19317440706E+03  0.00000000000E+00 0. -1.
          3    1    6    6  503    0 -0.83571905075E+02  0.17931475967E+03  0.14824574926E+03  0.24721417542E+03  0.00000000000E+00 0. -1.
         -3    1    6    6    0  503 -0.11273822161E+03  0.13974781761E+03  0.51499934395E+02  0.18679293986E+03  0.00000000000E+00 0.  1.
<mgrwt>
<rscale>  0 0.70288131E+03</rscale>
<asrwt>0</asrwt>
<pdfrwt beam="1">  1        2 0.85577328E-01 0.70288131E+03</pdfrwt>
<pdfrwt beam="2">  1       -2 0.17921490E+00 0.70288131E+03</pdfrwt>
<totfact> 0.10194272E+01</totfact>
</mgrwt>
</event>
<event>
12    1  0.1444206E-007  0.5578338E+03  0.7818608E-02  0.9996968E-01
          1   -1    0    0  501    0  0.00000000000E+00  0.00000000000E+00  0.13260667316E+04  0.13260667316E+04  0.00000000000E+00 0. -1.
         -1   -1    0    0    0  501 -0.00000000000E+00 -0.00000000000E+00 -0.49642900157E+03  0.49642900157E+03  0.00000000000E+00 0.  1.
         23    2    1    2    0    0  0.35208745998E+03 -0.23278074031E+03  0.98233086132E+03  0.10730713347E+04  0.91409604509E+02 0.  0.
    5000000    2    1    2    0    0 -0.35208745998E+03  0.23278074031E+03 -0.15269313125E+03  0.74942439847E+03  0.60014105355E+03 0.  0.
         23    2    4    4    0    0 -0.39194719380E+03  0.36528561315E+03 -0.19664568224E+03  0.57798212853E+03  0.91310649185E+02 0.  0.
         23    2    4    4    0    0  0.39859733820E+02 -0.13250487284E+03  0.43952550989E+02  0.17144226994E+03  0.91182703821E+02 0.  0.
          2    1    3    3  502    0  0.24128650175E+03 -0.12448740671E+03  0.54045025971E+03  0.60481631392E+03  0.00000000000E+00 0. -1.
         -2    1    3    3    0  502  0.11080095823E+03 -0.10829333359E+03  0.44188060160E+03  0.46825502081E+03  0.00000000000E+00 0.  1.
         13    1    5    5    0    0 -0.12428917095E+03  0.13095628017E+03 -0.11147394477E+03  0.21218809037E+03  0.00000000000E+00 0. -1.
        -13    1    5    5    0    0 -0.26765802285E+03  0.23432933298E+03 -0.85171737468E+02  0.36579403816E+03  0.00000000000E+00 0.  1.
          2    1    6    6  503    0  0.53379347198E+02 -0.65073309972E+02 -0.89990393719E+01  0.84645573349E+02  0.00000000000E+00 0. -1.
         -2    1    6    6    0  503 -0.13519613378E+02 -0.67431562870E+02  0.52951590361E+02  0.86796696589E+02  0.00000000000E+00 0.  1.
<mgrwt>
<rscale>  0 0.55783375E+03</rscale>
<asrwt>0</asrwt>
<pdfrwt beam="1">  1        1 0.20401027E+00 0.55783375E+03</pdfrwt>
<pdfrwt beam="2">  1       -1 0.76373693E-01 0.55783375E+03</pdfrwt>
<totfact> 0.15893414E+01</totfact>
</mgrwt>
</event>
<event>
12    1  0.1444206E-007  0.1130913E+04  0.7818608E-02  0.9175575E-01
          2   -1    0    0  501    0  0.00000000000E+00  0.00000000000E+00  0.21694787238E+04  0.21694787238E+04  0.00000000000E+00 0. -1.
         -2   -1    0    0    0  501 -0.00000000000E+00 -0.00000000000E+00 -0.59810404054E+03  0.59810404054E+03  0.00000000000E+00 0.  1.
         23    2    1    2    0    0 -0.79817436875E+03  0.69258628805E+03  0.79311564557E+03  0.13244814081E+04  0.91980888134E+02 0.  0.
    5000000    2    1    2    0    0  0.79817436875E+03 -0.69258628805E+03  0.77825903772E+03  0.14431013563E+04  0.60008024911E+03 0.  0.
         23    2    4    4    0    0  0.12258744227E+03 -0.45867033984E+03  0.40668479895E+03  0.63217490010E+03  0.94055393076E+02 0.  0.
         23    2    4    4    0    0  0.67558692648E+03 -0.23391594821E+03  0.37157423877E+03  0.81092645618E+03  0.91651166680E+02 0.  0.
          4    1    3    3  502    0 -0.16809761959E+03  0.10766528951E+03  0.12333855229E+03  0.23465085289E+03  0.00000000000E+00 0.  1.
         -4    1    3    3    0  502 -0.63007674916E+03  0.58492099854E+03  0.66977709327E+03  0.10898305552E+04  0.00000000000E+00 0. -1.
         11    1    5    5    0    0 -0.12967744958E+02 -0.45621940066E+02  0.24714897363E+02  0.53482239822E+02  0.00000000000E+00 0.  1.
        -11    1    5    5    0    0  0.13555518723E+03 -0.41304839978E+03  0.38196990159E+03  0.57869266028E+03  0.00000000000E+00 0. -1.
          4    1    6    6  503    0  0.45708556744E+03 -0.20112327255E+03  0.27088833085E+03  0.56811818710E+03  0.00000000000E+00 0. -1.
         -4    1    6    6    0  503  0.21850135904E+03 -0.32792675663E+02  0.10068590792E+03  0.24280826908E+03  0.00000000000E+00 0.  1.
<mgrwt>
<rscale>  0 0.11309128E+04</rscale>
<asrwt>0</asrwt>
<pdfrwt beam="1">  1        2 0.33376595E+00 0.11309128E+04</pdfrwt>
<pdfrwt beam="2">  1       -2 0.92016007E-01 0.11309128E+04</pdfrwt>
<totfact> 0.53309056E+00</totfact>
</mgrwt>
</event>
<event>
12    1  0.1444206E-007  0.1654411E+04  0.7818608E-02  0.8787801E-01
          2   -1    0    0  501    0  0.00000000000E+00  0.00000000000E+00  0.34185655324E+04  0.34185655324E+04  0.00000000000E+00 0. -1.
         -2   -1    0    0    0  501 -0.00000000000E+00 -0.00000000000E+00 -0.88604025705E+03  0.88604025705E+03  0.00000000000E+00 0.  1.
         23    2    1    2    0    0 -0.11613786536E+04  0.11292107177E+04  0.18139356649E+04  0.24338115822E+04  0.95702660298E+02 0.  0.
    5000000    2    1    2    0    0  0.11613786536E+04 -0.11292107177E+04  0.71858961050E+03  0.18707942073E+04  0.59965216236E+03 0.  0.
         23    2    4    4    0    0  0.89890120641E+03 -0.56948760176E+03  0.26727310941E+03  0.11004346629E+04  0.84746828071E+02 0.  0.
         23    2    4    4    0    0  0.26247744716E+03 -0.55972311596E+03  0.45131650110E+03  0.77035954441E+03  0.87079657179E+02 0.  0.
          3    1    3    3  502    0 -0.56017355903E+03  0.53783033467E+03  0.94105831497E+03  0.12201010767E+04  0.00000000000E+00 0. -1.
         -3    1    3    3    0  502 -0.60120509454E+03  0.59138038305E+03  0.87287734990E+03  0.12137105055E+04  0.00000000000E+00 0.  1.
         13    1    5    5    0    0  0.81580378863E+03 -0.52885175025E+03  0.22109264848E+03  0.99704661601E+03  0.00000000000E+00 0. -1.
        -13    1    5    5    0    0  0.83097417786E+02 -0.40635851515E+02  0.46180460925E+02  0.10338804690E+03  0.00000000000E+00 0.  1.
          3    1    6    6  503    0  0.70316485611E+02 -0.75073597959E+02  0.69375389449E+02  0.12407013307E+03  0.00000000000E+00 0. -1.
         -3    1    6    6    0  503  0.19216096155E+03 -0.48464951800E+03  0.38194111165E+03  0.64628941134E+03  0.00000000000E+00 0.  1.
<mgrwt>
<rscale>  0 0.16544111E+04</rscale>
<asrwt>0</asrwt>
<pdfrwt beam="1">  1        2 0.52593315E+00 0.16544111E+04</pdfrwt>
<pdfrwt beam="2">  1       -2 0.13631389E+00 0.16544111E+04</pdfrwt>
<totfact> 0.33400906E-01</totfact>
</mgrwt>
</event>
<event>
12    1  0.1444206E-007  0.8759345E+03  0.7818608E-02  0.9456175E-01
         -1   -1    0    0    0  501 -0.00000000000E+00  0.00000000000E+00  0.53039082506E+03  0.53039082506E+03  0.00000000000E+00 0.  1.
          1   -1    0    0  501    0  0.00000000000E+00 -0.00000000000E+00 -0.14912550842E+04  0.14912550842E+04  0.00000000000E+00 0. -1.
         23    2    1    2    0    0  0.72225877406E+03  0.30318409309E+03 -0.36953601940E+03  0.87132993208E+03  0.95292444074E+02 0.  0.
    5000000    2    1    2    0    0 -0.72225877406E+03 -0.30318409309E+03 -0.59132823976E+03  0.11503159772E+04  0.59998285749E+03 0.  0.
         23    2    4    4    0    0 -0.14774277600E+03  0.16095602739E+03 -0.89804430707E+02  0.25293982009E+03  0.90437526502E+02 0.  0.
         23    2    4    4    0    0 -0.57451599806E+03 -0.46414012048E+03 -0.50152380906E+03  0.89737615712E+03  0.90901885903E+02 0.  0.
          1    1    3    3  502    0  0.26617823308E+03  0.75541954724E+02 -0.16454194391E+03  0.32191845240E+03  0.00000000000E+00 0. -1.
         -1    1    3    3    0  502  0.45608054098E+03  0.22764213837E+03 -0.20499407549E+03  0.54941147968E+03  0.00000000000E+00 0.  1.
         11    1    5    5    0    0 -0.12026234471E+03  0.92189689955E+02 -0.23118570389E+02  0.15328548133E+03  0.00000000000E+00 0. -1.
        -11    1    5    5    0    0 -0.27480431289E+02  0.68766337432E+02 -0.66685860318E+02  0.99654338761E+02  0.00000000000E+00 0.  1.
          1    1    6    6  503    0 -0.39163652300E+03 -0.28986933447E+03 -0.37503402525E+03  0.61486089265E+03  0.00000000000E+00 0. -1.
         -1    1    6    6    0  503 -0.18287947506E+03 -0.17427078601E+03 -0.12648978380E+03  0.28251526447E+03  0.00000000000E+00 0.  1.
<mgrwt>
<rscale>  0 0.87593454E+03</rscale>
<asrwt>0</asrwt>
<pdfrwt beam="1">  1        1 0.22942386E+00 0.87593454E+03</pdfrwt>
<pdfrwt beam="2">  1       -1 0.81598588E-01 0.87593454E+03</pdfrwt>
<totfact> 0.10122101E+01</totfact>
</mgrwt>
</event>
<event>
12    1  0.1444206E-007  0.6401765E+03  0.7818608E-02  0.9825389E-01
         -2   -1    0    0    0  501 -0.00000000000E+00  0.00000000000E+00  0.79673304761E+03  0.79673304761E+03  0.00000000000E+00 0.  1.
          2   -1    0    0  501    0  0.00000000000E+00 -0.00000000000E+00 -0.13708782743E+04  0.13708782743E+04  0.00000000000E+00 0. -1.
         23    2    1    2    0    0  0.61501557794E+03 -0.12180971227E+03  0.48546399057E+03  0.79794437706E+03  0.89208607394E+02 0.  0.
    5000000    2    1    2    0    0 -0.61501557794E+03  0.12180971227E+03 -0.10596092173E+04  0.13696669449E+04  0.60011172245E+03 0.  0.
         23    2    4    4    0    0 -0.87054225627E+02  0.39313359610E+01  0.47624047630E+02  0.13398869606E+03  0.89950137065E+02 0.  0.
         23    2    4    4    0    0 -0.52796135231E+03  0.11787837631E+03 -0.11072332649E+04  0.12356782488E+04  0.91086390424E+02 0.  0.
          4    1    3    3  502    0  0.41304132551E+03 -0.83396872359E+02  0.37741911403E+03  0.56568839703E+03  0.00000000000E+00 0.  1.
         -4    1    3    3    0  502  0.20197425243E+03 -0.38412839909E+02  0.10804487654E+03  0.23225598003E+03  0.00000000000E+00 0. -1.
         11    1    5    5    0    0 -0.18586029889E+01 -0.22624986586E+02  0.37957555908E+02  0.44228050755E+02  0.00000000000E+00 0. -1.
        -11    1    5    5    0    0 -0.85195622638E+02  0.26556322547E+02  0.96664917220E+01  0.89760645308E+02  0.00000000000E+00 0.  1.
          2    1    6    6  503    0 -0.31014205122E+03  0.57713789442E+02 -0.54477133511E+03  0.62951948420E+03  0.00000000000E+00 0. -1.
         -2    1    6    6    0  503 -0.21781930109E+03  0.60164586866E+02 -0.56246192981E+03  0.60615876462E+03  0.00000000000E+00 0.  1.
<mgrwt>
<rscale>  0 0.64017648E+03</rscale>
<asrwt>0</asrwt>
<pdfrwt beam="1">  1        2 0.21090435E+00 0.64017648E+03</pdfrwt>
<pdfrwt beam="2">  1       -2 0.12257432E+00 0.64017648E+03</pdfrwt>
<totfact> 0.78737207E+00</totfact>
</mgrwt>
</event>
<event>
12    1  0.1444206E-007  0.1905097E+04  0.7818608E-02  0.8652324E-01
         -1   -1    0    0    0  501 -0.00000000000E+00  0.00000000000E+00  0.22502081124E+04  0.22502081124E+04  0.00000000000E+00 0.  1.
          1   -1    0    0  501    0  0.00000000000E+00 -0.00000000000E+00 -0.16667744731E+04  0.16667744731E+04  0.00000000000E+00 0. -1.
         23    2    1    2    0    0  0.43190699212E+03  0.18070034182E+04  0.63306261240E+03  0.19639599409E+04  0.67567557492E+02 0.  0.
    5000000    2    1    2    0    0 -0.43190699212E+03 -0.18070034182E+04 -0.49628973175E+02  0.19530226446E+04  0.60002450953E+03 0.  0.
         23    2    4    4    0    0  0.13587658138E+03 -0.43702588713E+03 -0.75670338705E+01  0.46666570474E+03  0.90915062479E+02 0.  0.
         23    2    4    4    0    0 -0.56778357350E+03 -0.13699775311E+04 -0.42061939304E+02  0.14863569399E+04  0.90945719617E+02 0.  0.
          1    1    3    3  502    0  0.16044651591E+03  0.71955762358E+03  0.28410661165E+03  0.79007773346E+03  0.00000000000E+00 0. -1.
         -1    1    3    3    0  502  0.27146047622E+03  0.10874457946E+04  0.34895600074E+03  0.11738822074E+04  0.00000000000E+00 0.  1.
         11    1    5    5    0    0  0.12150497843E+03 -0.43527345638E+03 -0.97770636410E+01  0.45201994711E+03  0.00000000000E+00 0.  1.
        -11    1    5    5    0    0  0.14371602947E+02 -0.17524307497E+01  0.22100297705E+01  0.14645757624E+02  0.00000000000E+00 0. -1.
          4    1    6    6  503    0 -0.38463222859E+02 -0.46456150793E+02 -0.25279332502E+01  0.60365419784E+02  0.00000000000E+00 0. -1.
         -4    1    6    6    0  503 -0.52932035064E+03 -0.13235213803E+04 -0.39534006054E+02  0.14259915201E+04  0.00000000000E+00 0.  1.
<mgrwt>
<rscale>  0 0.19050966E+04</rscale>
<asrwt>0</asrwt>
<pdfrwt beam="1">  1        1 0.25642684E+00 0.19050966E+04</pdfrwt>
<pdfrwt beam="2">  1       -1 0.34618586E+00 0.19050966E+04</pdfrwt>
<totfact> 0.74644939E-02</totfact>
</mgrwt>
</event>
<event>
12    1  0.1444206E-007  0.5322738E+03  0.7818608E-02  0.1005682E+00
          2   -1    0    0  501    0  0.00000000000E+00  0.00000000000E+00  0.12488837536E+04  0.12488837536E+04  0.00000000000E+00 0. -1.
         -2   -1    0    0    0  501 -0.00000000000E+00 -0.00000000000E+00 -0.24588226425E+03  0.24588226425E+03  0.00000000000E+00 0.  1.
         23    2    1    2    0    0 -0.26572010345E+03  0.26097955052E+03  0.22816755566E+03  0.44639416154E+03  0.92140191202E+02 0.  0.
    5000000    2    1    2    0    0  0.26572010345E+03 -0.26097955052E+03  0.77483393365E+03  0.10483718563E+04  0.59999868759E+03 0.  0.
         23    2    4    4    0    0  0.17183547025E+02  0.17329118542E+03  0.20509404919E+03  0.28448187160E+03  0.92418921338E+02 0.  0.
         23    2    4    4    0    0  0.24853655642E+03 -0.43427073594E+03  0.56973988446E+03  0.76388998467E+03  0.92535834977E+02 0.  0.
          1    1    3    3  502    0 -0.14287937019E+03  0.19362676743E+03  0.11710859778E+03  0.26761962403E+03  0.00000000000E+00 0. -1.
         -1    1    3    3    0  502 -0.12284073325E+03  0.67352783094E+02  0.11105895788E+03  0.17877453751E+03  0.00000000000E+00 0.  1.
         11    1    5    5    0    0  0.28006594672E+02  0.84666349913E+02  0.42055440253E+02  0.98597262678E+02  0.00000000000E+00 0. -1.
        -11    1    5    5    0    0 -0.10823047647E+02  0.88624835511E+02  0.16303860894E+03  0.18588460892E+03  0.00000000000E+00 0.  1.
          1    1    6    6  503    0  0.11040183560E+03 -0.12583547677E+03  0.14796836767E+03  0.22342285100E+03  0.00000000000E+00 0. -1.
         -1    1    6    6    0  503  0.13813472082E+03 -0.30843525918E+03  0.42177151679E+03  0.54046713367E+03  0.00000000000E+00 0.  1.
<mgrwt>
<rscale>  0 0.53227376E+03</rscale>
<asrwt>0</asrwt>
<pdfrwt beam="1">  1        2 0.19213596E+00 0.53227376E+03</pdfrwt>
<pdfrwt beam="2">  1       -2 0.37828041E-01 0.53227376E+03</pdfrwt>
<totfact> 0.12094974E+02</totfact>
</mgrwt>
</event>
<event>
12    1  0.1444206E-007  0.6074737E+03  0.7818608E-02  0.9890021E-01
          2   -1    0    0  501    0  0.00000000000E+00  0.00000000000E+00  0.10689477971E+04  0.10689477971E+04  0.00000000000E+00 0. -1.
         -2   -1    0    0    0  501 -0.00000000000E+00 -0.00000000000E+00 -0.41006603596E+03  0.41006603596E+03  0.00000000000E+00 0.  1.
         23    2    1    2    0    0  0.47321508610E+03  0.14599934824E+03  0.44704305940E+03  0.67268027858E+03  0.86040297712E+02 0.  0.
    5000000    2    1    2    0    0 -0.47321508610E+03 -0.14599934824E+03  0.21183870173E+03  0.80633355448E+03  0.60004153034E+03 0.  0.
         23    2    4    4    0    0 -0.33092432056E+03  0.15338410305E+03 -0.43388580608E+02  0.37842269865E+03  0.91014179774E+02 0.  0.
         23    2    4    4    0    0 -0.14229076554E+03 -0.29938345129E+03  0.25522728234E+03  0.42791085583E+03  0.89942326102E+02 0.  0.
          2    1    3    3  502    0  0.39812953795E+03  0.90282774102E+02  0.34748478226E+03  0.53610053366E+03  0.00000000000E+00 0. -1.
         -2    1    3    3    0  502  0.75085548148E+02  0.55716574138E+02  0.99558277144E+02  0.13657974492E+03  0.00000000000E+00 0.  1.
         13    1    5    5    0    0 -0.15950795969E+03  0.40382602047E+02  0.14298880686E+02  0.16516053325E+03  0.00000000000E+00 0. -1.
        -13    1    5    5    0    0 -0.17141636087E+03  0.11300150100E+03 -0.57687461294E+02  0.21326216540E+03  0.00000000000E+00 0.  1.
          2    1    6    6  503    0 -0.10121461214E+03 -0.10962581065E+03  0.10567336305E+03  0.18283619918E+03  0.00000000000E+00 0. -1.
         -2    1    6    6    0  503 -0.41076153396E+02 -0.18975764064E+03  0.14955391929E+03  0.24507465665E+03  0.00000000000E+00 0.  1.
<mgrwt>
<rscale>  0 0.60747369E+03</rscale>
<asrwt>0</asrwt>
<pdfrwt beam="1">  1        2 0.16445351E+00 0.60747369E+03</pdfrwt>
<pdfrwt beam="2">  1       -2 0.63087083E-01 0.60747369E+03</pdfrwt>
<totfact> 0.54620267E+01</totfact>
</mgrwt>
</event>
<event>
12    1  0.1444206E-007  0.8907835E+03  0.7818608E-02  0.9437176E-01
          2   -1    0    0  501    0  0.00000000000E+00  0.00000000000E+00  0.25605173832E+04  0.25605173832E+04  0.00000000000E+00 0. -1.
         -2   -1    0    0    0  501 -0.00000000000E+00 -0.00000000000E+00 -0.10511631437E+04  0.10511631437E+04  0.00000000000E+00 0.  1.
         23    2    1    2    0    0  0.16981006544E+03 -0.84455276454E+03 -0.73352003651E+03  0.11352895662E+04  0.93412657903E+02 0.  0.
    5000000    2    1    2    0    0 -0.16981006544E+03  0.84455276454E+03  0.22428742760E+04  0.24763909608E+04  0.59993528185E+03 0.  0.
         23    2    4    4    0    0 -0.21482325345E+03  0.72302039927E+03  0.11933945745E+04  0.14149235795E+04  0.94395960761E+02 0.  0.
         23    2    4    4    0    0  0.45013188007E+02  0.12153236527E+03  0.10494797015E+04  0.10614673813E+04  0.92244538130E+02 0.  0.
          2    1    3    3  502    0  0.98191212286E+02 -0.29161881887E+03 -0.29029819391E+03  0.42303202134E+03  0.00000000000E+00 0. -1.
         -2    1    3    3    0  502  0.71618853159E+02 -0.55293394567E+03 -0.44322184260E+03  0.71225754483E+03  0.00000000000E+00 0.  1.
         13    1    5    5    0    0 -0.28291943758E+02  0.20515702202E+03  0.27583309245E+03  0.34492569150E+03  0.00000000000E+00 0. -1.
        -13    1    5    5    0    0 -0.18653130969E+03  0.51786337725E+03  0.91756148207E+03  0.10699978880E+04  0.00000000000E+00 0.  1.
          1    1    6    6  503    0  0.66247296451E+02  0.46864490997E+02  0.50374547777E+03  0.51023964093E+03  0.00000000000E+00 0. -1.
         -1    1    6    6    0  503 -0.21234108443E+02  0.74667874271E+02  0.54573422368E+03  0.55122774033E+03  0.00000000000E+00 0.  1.
<mgrwt>
<rscale>  0 0.89078346E+03</rscale>
<asrwt>0</asrwt>
<pdfrwt beam="1">  1        2 0.39392575E+00 0.89078346E+03</pdfrwt>
<pdfrwt beam="2">  1       -2 0.16171741E+00 0.89078346E+03</pdfrwt>
<totfact> 0.80564141E-01</totfact>
</mgrwt>
</event>
<event>
12    1  0.1444206E-007  0.1086198E+04  0.7818608E-02  0.9218749E-01
         -2   -1    0    0    0  501 -0.00000000000E+00  0.00000000000E+00  0.86080050962E+03  0.86080050962E+03  0.00000000000E+00 0.  1.
          2   -1    0    0  501    0  0.00000000000E+00 -0.00000000000E+00 -0.15664515040E+04  0.15664515040E+04  0.00000000000E+00 0. -1.
         23    2    1    2    0    0 -0.10283860119E+04  0.31963673272E+03 -0.43701482272E+03  0.11654828756E+04  0.87309493185E+02 0.  0.
    5000000    2    1    2    0    0  0.10283860119E+04 -0.31963673272E+03 -0.26863617169E+03  0.12617691380E+04  0.60012543232E+03 0.  0.
         23    2    4    4    0    0  0.70552496468E+03 -0.16546268873E+03 -0.44237855095E+03  0.85486856010E+03  0.99790257826E+02 0.  0.
         23    2    4    4    0    0  0.32286104727E+03 -0.15417404399E+03  0.17374237925E+03  0.40690057795E+03  0.85864860729E+02 0.  0.
          4    1    3    3  502    0 -0.70124355412E+03  0.25473528913E+03 -0.28049344885E+03  0.79706283603E+03  0.00000000000E+00 0. -1.
         -4    1    3    3    0  502 -0.32714245782E+03  0.64901443588E+02 -0.15652137387E+03  0.36842003958E+03  0.00000000000E+00 0.  1.
         11    1    5    5    0    0  0.34513088984E+03 -0.10130020649E+03 -0.16576922440E+03  0.39605113144E+03  0.00000000000E+00 0. -1.
        -11    1    5    5    0    0  0.36039407484E+03 -0.64162482242E+02 -0.27660932655E+03  0.45881742866E+03  0.00000000000E+00 0.  1.
          3    1    6    6  503    0  0.17604269011E+03 -0.38663788269E+02  0.99488870586E+02  0.20587363268E+03  0.00000000000E+00 0. -1.
         -3    1    6    6    0  503  0.14681835716E+03 -0.11551025572E+03  0.74253508667E+02  0.20102694527E+03  0.00000000000E+00 0.  1.
<mgrwt>
<rscale>  0 0.10861984E+04</rscale>
<asrwt>0</asrwt>
<pdfrwt beam="1">  1        2 0.24099254E+00 0.10861984E+04</pdfrwt>
<pdfrwt beam="2">  1       -2 0.13243085E+00 0.10861984E+04</pdfrwt>
<totfact> 0.47507079E+00</totfact>
</mgrwt>
</event>
<event>
12    1  0.1444206E-007  0.4801547E+03  0.7818608E-02  0.1019093E+00
         -2   -1    0    0    0  501 -0.00000000000E+00  0.00000000000E+00  0.48517659915E+03  0.48517659915E+03  0.00000000000E+00 0.  1.
          2   -1    0    0  501    0  0.00000000000E+00 -0.00000000000E+00 -0.91924327152E+03  0.91924327152E+03  0.00000000000E+00 0. -1.
         23    2    1    2    0    0  0.11199287189E+03  0.32171076135E+03 -0.59877966373E+03  0.69513882585E+03  0.92955280566E+02 0.  0.
    5000000    2    1    2    0    0 -0.11199287189E+03 -0.32171076135E+03  0.16471299137E+03  0.70928104482E+03  0.59992417329E+03 0.  0.
         23    2    4    4    0    0 -0.57103589517E+02  0.12958760327E+03  0.17852576064E+03  0.24565740775E+03  0.91773350765E+02 0.  0.
         23    2    4    4    0    0 -0.54889282377E+02 -0.45129836462E+03 -0.13812769277E+02  0.46362363707E+03  0.89850080835E+02 0.  0.
          4    1    3    3  502    0  0.11371835484E+03  0.27002580206E+03 -0.55410713326E+03  0.62680181328E+03  0.00000000000E+00 0. -1.
         -4    1    3    3    0  502 -0.17254829468E+01  0.51684959292E+02 -0.44672530479E+02  0.68337012576E+02  0.00000000000E+00 0.  1.
         11    1    5    5    0    0 -0.75506096360E+02  0.11386517047E+03  0.11820720210E+03  0.18066374917E+03  0.00000000000E+00 0.  1.
        -11    1    5    5    0    0  0.18402506843E+02  0.15722432801E+02  0.60318558543E+02  0.64993658583E+02  0.00000000000E+00 0. -1.
          4    1    6    6  503    0 -0.25641598393E+02 -0.16460718978E+03 -0.48136779965E+02  0.17340752026E+03  0.00000000000E+00 0. -1.
         -4    1    6    6    0  503 -0.29247683983E+02 -0.28669117484E+03  0.34324010688E+02  0.29021611681E+03  0.00000000000E+00 0.  1.
<mgrwt>
<rscale>  0 0.48015468E+03</rscale>
<asrwt>0</asrwt>
<pdfrwt beam="1">  1        2 0.14142204E+00 0.48015468E+03</pdfrwt>
<pdfrwt beam="2">  1       -2 0.74642554E-01 0.48015468E+03</pdfrwt>
<totfact> 0.47950739E+01</totfact>
</mgrwt>
</event>
<event>
12    1  0.1483698E-007  0.1350847E+04  0.7818608E-02  0.8990187E-01
         -1   -1    0    0    0  501 -0.00000000000E+00  0.00000000000E+00  0.11651157768E+04  0.11651157768E+04  0.00000000000E+00 0.  1.
          1   -1    0    0  501    0  0.00000000000E+00 -0.00000000000E+00 -0.17495314600E+04  0.17495314600E+04  0.00000000000E+00 0. -1.
         23    2    1    2    0    0 -0.13081864958E+04  0.89643809193E+02  0.10019668585E+03  0.13183795357E+04  0.93259337830E+02 0.  0.
    5000000    2    1    2    0    0  0.13081864958E+04 -0.89643809193E+02 -0.68461236909E+03  0.15962677011E+04  0.59999046438E+03 0.  0.
         23    2    4    4    0    0  0.40534671379E+03  0.16600825840E+03 -0.29125760136E+02  0.44794984877E+03  0.89140657801E+02 0.  0.
         23    2    4    4    0    0  0.90283978197E+03 -0.25565206760E+03 -0.65548660895E+03  0.11483178523E+04  0.92160424295E+02 0.  0.
          3    1    3    3  502    0 -0.59131717729E+03  0.13062782243E+02  0.82734401730E+02  0.59721991064E+03  0.00000000000E+00 0.  1.
         -3    1    3    3    0  502 -0.71686931846E+03  0.76581026951E+02  0.17462284122E+02  0.72115962506E+03  0.00000000000E+00 0. -1.
         11    1    5    5    0    0  0.19197733971E+03  0.12523908727E+03 -0.26118806623E+02  0.23069963156E+03  0.00000000000E+00 0.  1.
        -11    1    5    5    0    0  0.21336937407E+03  0.40769171136E+02 -0.30069535134E+01  0.21725021721E+03  0.00000000000E+00 0. -1.
          2    1    6    6  503    0  0.54309706373E+03 -0.10670455169E+03 -0.38785697046E+03  0.67585006586E+03  0.00000000000E+00 0. -1.
         -2    1    6    6    0  503  0.35974271824E+03 -0.14894751591E+03 -0.26762963849E+03  0.47246778643E+03  0.00000000000E+00 0.  1.
<mgrwt>
<rscale>  0 0.13508471E+04</rscale>
<asrwt>0</asrwt>
<pdfrwt beam="1">  1        1 0.26915868E+00 0.13508471E+04</pdfrwt>
<pdfrwt beam="2">  1       -1 0.17924858E+00 0.13508471E+04</pdfrwt>
<totfact> 0.89480208E-01</totfact>
</mgrwt>
</event>
<event>
12    1  0.1444206E-007  0.9216686E+03  0.7818608E-02  0.9398893E-01
          2   -1    0    0  501    0  0.00000000000E+00  0.00000000000E+00  0.11078606127E+04  0.11078606127E+04  0.00000000000E+00 0. -1.
         -2   -1    0    0    0  501 -0.00000000000E+00 -0.00000000000E+00 -0.85946162423E+03  0.85946162423E+03  0.00000000000E+00 0.  1.
         23    2    1    2    0    0 -0.79347014851E+03  0.33667608760E+03  0.29779822928E+03  0.91618955715E+03  0.88169466003E+02 0.  0.
    5000000    2    1    2    0    0  0.79347014851E+03 -0.33667608760E+03 -0.49399240811E+02  0.10511326798E+04  0.59957815251E+03 0.  0.
         23    2    4    4    0    0  0.43967761890E+03 -0.41382667207E+03 -0.20790167987E+03  0.64513800142E+03  0.91711554896E+02 0.  0.
         23    2    4    4    0    0  0.35379252961E+03  0.77150584468E+02  0.15850243906E+03  0.40599467836E+03  0.92667626356E+02 0.  0.
          4    1    3    3  502    0 -0.72832632000E+03  0.28378466452E+03  0.25653200201E+03  0.82267954409E+03  0.00000000000E+00 0. -1.
         -4    1    3    3    0  502 -0.65143828510E+02  0.52891423078E+02  0.41266227278E+02  0.93510013057E+02  0.00000000000E+00 0.  1.
         13    1    5    5    0    0  0.26771529490E+03 -0.22396333878E+03 -0.76866610383E+02  0.35740667598E+03  0.00000000000E+00 0.  1.
        -13    1    5    5    0    0  0.17196232399E+03 -0.18986333329E+03 -0.13103506949E+03  0.28773132544E+03  0.00000000000E+00 0. -1.
          1    1    6    6  503    0  0.15585096730E+03  0.78737917964E+02  0.90653639464E+02  0.19674162265E+03  0.00000000000E+00 0. -1.
         -1    1    6    6    0  503  0.19794156231E+03 -0.15873334960E+01  0.67848799600E+02  0.20925305571E+03  0.00000000000E+00 0.  1.
<mgrwt>
<rscale>  0 0.92166859E+03</rscale>
<asrwt>0</asrwt>
<pdfrwt beam="1">  1        2 0.17044009E+00 0.92166859E+03</pdfrwt>
<pdfrwt beam="2">  1       -2 0.13222486E+00 0.92166859E+03</pdfrwt>
<totfact> 0.89570224E+00</totfact>
</mgrwt>
</event>
<event>
12    1  0.1444206E-007  0.6337823E+03  0.7818608E-02  0.9837696E-01
          2   -1    0    0  501    0  0.00000000000E+00  0.00000000000E+00  0.84876061578E+03  0.84876061578E+03  0.00000000000E+00 0. -1.
         -2   -1    0    0    0  501 -0.00000000000E+00 -0.00000000000E+00 -0.57945462457E+03  0.57945462457E+03  0.00000000000E+00 0.  1.
         23    2    1    2    0    0 -0.49097134907E+03  0.24859795027E+03  0.25633509890E+03  0.61392203426E+03  0.91316891868E+02 0.  0.
    5000000    2    1    2    0    0  0.49097134907E+03 -0.24859795027E+03  0.12970892314E+02  0.81429320609E+03  0.60004281094E+03 0.  0.
         23    2    4    4    0    0  0.19692460719E+03 -0.34102111955E+03 -0.17665609742E+03  0.44106930836E+03  0.90884834396E+02 0.  0.
         23    2    4    4    0    0  0.29404674188E+03  0.92423169283E+02  0.18962698973E+03  0.37322389773E+03  0.91280633075E+02 0.  0.
          2    1    3    3  502    0 -0.39790393481E+03  0.15850009982E+03  0.19620560108E+03  0.47111194092E+03  0.00000000000E+00 0.  1.
         -2    1    3    3    0  502 -0.93067414254E+02  0.90097850454E+02  0.60129497823E+02  0.14281009334E+03  0.00000000000E+00 0. -1.
         11    1    5    5    0    0  0.15015751063E+03 -0.31151527559E+03 -0.17009426022E+03  0.38538435656E+03  0.00000000000E+00 0. -1.
        -11    1    5    5    0    0  0.46767096565E+02 -0.29505843964E+02 -0.65618371938E+01  0.55684951795E+02  0.00000000000E+00 0.  1.
          1    1    6    6  503    0  0.10172695158E+03  0.24412209165E+02  0.11636147966E+03  0.15647467074E+03  0.00000000000E+00 0. -1.
         -1    1    6    6    0  503  0.19231979029E+03  0.68010960119E+02  0.73265510071E+02  0.21674922699E+03  0.00000000000E+00 0.  1.
<mgrwt>
<rscale>  0 0.63378231E+03</rscale>
<asrwt>0</asrwt>
<pdfrwt beam="1">  1        2 0.13057856E+00 0.63378231E+03</pdfrwt>
<pdfrwt beam="2">  1       -2 0.89146865E-01 0.63378231E+03</pdfrwt>
<totfact> 0.35241524E+01</totfact>
</mgrwt>
</event>
<event>
12    1  0.1444206E-007  0.2888586E+03  0.7818608E-02  0.1090947E+00
         -2   -1    0    0    0  501 -0.00000000000E+00  0.00000000000E+00  0.12322348589E+03  0.12322348589E+03  0.00000000000E+00 0.  1.
          2   -1    0    0  501    0  0.00000000000E+00 -0.00000000000E+00 -0.14377185210E+04  0.14377185210E+04  0.00000000000E+00 0. -1.
         23    2    1    2    0    0  0.10637116258E+03 -0.58449846806E+02 -0.56930753901E+02  0.16226872783E+03  0.91426585135E+02 0.  0.
    5000000    2    1    2    0    0 -0.10637116258E+03  0.58449846806E+02 -0.12575642812E+04  0.13986732791E+04  0.60007317169E+03 0.  0.
         23    2    4    4    0    0  0.10837705204E+02 -0.15660560204E+03 -0.84361900994E+02  0.19657865895E+03  0.82966670241E+02 0.  0.
         23    2    4    4    0    0 -0.11720886779E+03  0.21505544885E+03 -0.11732023802E+04  0.12020946201E+04  0.92956366120E+02 0.  0.
          1    1    3    3  502    0  0.11443065633E+03 -0.70114949965E+02 -0.61146578631E+02  0.14747672832E+03  0.00000000000E+00 0. -1.
         -1    1    3    3    0  502 -0.80594937501E+01  0.11665103160E+02  0.42158247296E+01  0.14791999506E+02  0.00000000000E+00 0.  1.
         11    1    5    5    0    0  0.36655394679E+02 -0.89521886123E+02 -0.17295652663E+02  0.98269657855E+02  0.00000000000E+00 0. -1.
        -11    1    5    5    0    0 -0.25817689475E+02 -0.67083715921E+02 -0.67066248331E+02  0.98309001097E+02  0.00000000000E+00 0.  1.
          3    1    6    6  503    0 -0.10461066507E+03  0.99152296068E+02 -0.58969298118E+03  0.60705220625E+03  0.00000000000E+00 0. -1.
         -3    1    6    6    0  503 -0.12598202722E+02  0.11590315278E+03 -0.58350939903E+03  0.59504241386E+03  0.00000000000E+00 0.  1.
<mgrwt>
<rscale>  0 0.28885864E+03</rscale>
<asrwt>0</asrwt>
<pdfrwt beam="1">  1        2 0.22118746E+00 0.28885864E+03</pdfrwt>
<pdfrwt beam="2">  1       -2 0.18957460E-01 0.28885864E+03</pdfrwt>
<totfact> 0.34099737E+02</totfact>
</mgrwt>
</event>
<event>
12    1  0.1444206E-007  0.6383996E+03  0.7818608E-02  0.9828793E-01
         -2   -1    0    0    0  501 -0.00000000000E+00  0.00000000000E+00  0.23927656174E+03  0.23927656174E+03  0.00000000000E+00 0.  1.
          2   -1    0    0  501    0  0.00000000000E+00 -0.00000000000E+00 -0.23788216481E+04  0.23788216481E+04  0.00000000000E+00 0. -1.
         23    2    1    2    0    0 -0.59573345494E+03  0.14492841360E+03 -0.64361596815E+03  0.89363873433E+03  0.91902549704E+02 0.  0.
    5000000    2    1    2    0    0  0.59573345494E+03 -0.14492841360E+03 -0.14959291182E+04  0.17244594755E+04  0.60004496626E+03 0.  0.
         23    2    4    4    0    0  0.61379128635E+02 -0.65442791864E+02  0.33619041778E+01  0.12837160743E+03  0.91748628089E+02 0.  0.
         23    2    4    4    0    0  0.53435432630E+03 -0.79485621734E+02 -0.14992910224E+04  0.15960878681E+04  0.88149887595E+02 0.  0.
          3    1    3    3  502    0 -0.91453979062E+02  0.12558708861E+02 -0.14715629577E+03  0.17371392241E+03  0.00000000000E+00 0. -1.
         -3    1    3    3    0  502 -0.50427947588E+03  0.13236970474E+03 -0.49645967238E+03  0.71992481192E+03  0.00000000000E+00 0.  1.
         11    1    5    5    0    0  0.75244883429E+02 -0.24363778347E+02 -0.16320137073E+02  0.80757247673E+02  0.00000000000E+00 0. -1.
        -11    1    5    5    0    0 -0.13865754794E+02 -0.41079013517E+02  0.19682041251E+02  0.47614359760E+02  0.00000000000E+00 0.  1.
          1    1    6    6  503    0  0.28144006896E+03 -0.30815517232E+02 -0.65987325280E+03  0.71804652933E+03  0.00000000000E+00 0. -1.
         -1    1    6    6    0  503  0.25291425734E+03 -0.48670104501E+02 -0.83941776957E+03  0.87804133872E+03  0.00000000000E+00 0.  1.
<mgrwt>
<rscale>  0 0.63839957E+03</rscale>
<asrwt>0</asrwt>
<pdfrwt beam="1">  1        2 0.36597257E+00 0.63839957E+03</pdfrwt>
<pdfrwt beam="2">  1       -2 0.36811778E-01 0.63839957E+03</pdfrwt>
<totfact> 0.30088021E+01</totfact>
</mgrwt>
</event>
<event>
12    1  0.1444206E-007  0.1219386E+04  0.7818608E-02  0.9096055E-01
          2   -1    0    0  501    0  0.00000000000E+00  0.00000000000E+00  0.73254353793E+03  0.73254353793E+03  0.00000000000E+00 0. -1.
         -2   -1    0    0    0  501 -0.00000000000E+00 -0.00000000000E+00 -0.26030984097E+04  0.26030984097E+04  0.00000000000E+00 0.  1.
         23    2    1    2    0    0 -0.37594944514E+03  0.11537964503E+04 -0.15010965915E+04  0.19323522212E+04  0.90054959218E+02 0.  0.
    5000000    2    1    2    0    0  0.37594944514E+03 -0.11537964503E+04 -0.36945828026E+03  0.14032897264E+04  0.60011532331E+03 0.  0.
         23    2    4    4    0    0  0.19125135353E+03 -0.69269175287E+03 -0.50177842801E+03  0.88114077664E+03  0.90711260129E+02 0.  0.
         23    2    4    4    0    0  0.18469809161E+03 -0.46110469747E+03  0.13232014775E+03  0.52214894977E+03  0.91651389355E+02 0.  0.
          3    1    3    3  502    0 -0.24404153273E+03  0.83554411314E+03 -0.11228396561E+04  0.14207248601E+04  0.00000000000E+00 0. -1.
         -3    1    3    3    0  502 -0.13190791241E+03  0.31825233721E+03 -0.37825693538E+03  0.51162736113E+03  0.00000000000E+00 0.  1.
         13    1    5    5    0    0  0.12042202503E+02 -0.19627514063E+02 -0.56432149883E+00  0.23034157423E+02  0.00000000000E+00 0.  1.
        -13    1    5    5    0    0  0.17920915103E+03 -0.67306423881E+03 -0.50121410651E+03  0.85810661922E+03  0.00000000000E+00 0. -1.
          4    1    6    6  503    0  0.19223047997E+03 -0.45678952484E+03  0.13382085712E+03  0.51333931198E+03  0.00000000000E+00 0. -1.
         -4    1    6    6    0  503 -0.75323883597E+01 -0.43151726335E+01 -0.15007093694E+01  0.88096377831E+01  0.00000000000E+00 0.  1.
<mgrwt>
<rscale>  0 0.12193857E+04</rscale>
<asrwt>0</asrwt>
<pdfrwt beam="1">  1        2 0.11269901E+00 0.12193857E+04</pdfrwt>
<pdfrwt beam="2">  1       -2 0.40047667E+00 0.12193857E+04</pdfrwt>
<totfact> 0.28118668E-01</totfact>
</mgrwt>
</event>
<event>
12    1  0.1444206E-007  0.1131044E+04  0.7818608E-02  0.9175451E-01
          1   -1    0    0  501    0  0.00000000000E+00  0.00000000000E+00  0.13936333623E+04  0.13936333623E+04  0.00000000000E+00 0. -1.
         -1   -1    0    0    0  501 -0.00000000000E+00 -0.00000000000E+00 -0.10471315024E+04  0.10471315024E+04  0.00000000000E+00 0.  1.
         23    2    1    2    0    0 -0.14590762233E+03  0.11077231280E+04 -0.18712895191E+02  0.11210985105E+04  0.90399863464E+02 0.  0.
    5000000    2    1    2    0    0  0.14590762233E+03 -0.11077231280E+04  0.36521475507E+03  0.13196663542E+04  0.59983156520E+03 0.  0.
         23    2    4    4    0    0  0.26968944520E+02 -0.77092927871E+03 -0.32486057489E+02  0.77737203047E+03  0.90513275791E+02 0.  0.
         23    2    4    4    0    0  0.11893867781E+03 -0.33679384925E+03  0.39770081256E+03  0.54229432372E+03  0.91327385050E+02 0.  0.
          2    1    3    3  502    0 -0.82148237239E+02  0.82933412901E+03 -0.42773797960E+02  0.83448968131E+03  0.00000000000E+00 0. -1.
         -2    1    3    3    0  502 -0.63759385094E+02  0.27838899894E+03  0.24060902770E+02  0.28660882918E+03  0.00000000000E+00 0.  1.
         13    1    5    5    0    0 -0.31899267104E+02 -0.25187606841E+03 -0.22682846151E+02  0.25489925185E+03  0.00000000000E+00 0.  1.
        -13    1    5    5    0    0  0.58868211623E+02 -0.51905321029E+03 -0.98032113385E+01  0.52247277863E+03  0.00000000000E+00 0. -1.
          3    1    6    6  503    0  0.62016048245E+00 -0.11875686166E+03  0.15478549112E+03  0.19509516921E+03  0.00000000000E+00 0. -1.
         -3    1    6    6    0  503  0.11831851733E+03 -0.21803698759E+03  0.24291532144E+03  0.34719915451E+03  0.00000000000E+00 0.  1.
<mgrwt>
<rscale>  0 0.11310442E+04</rscale>
<asrwt>0</asrwt>
<pdfrwt beam="1">  1        1 0.21440513E+00 0.11310442E+04</pdfrwt>
<pdfrwt beam="2">  1       -1 0.16109716E+00 0.11310442E+04</pdfrwt>
<totfact> 0.21996398E+00</totfact>
</mgrwt>
</event>
<event>
12    1  0.1444206E-007  0.7038532E+03  0.7818608E-02  0.9710665E-01
          2   -1    0    0  501    0  0.00000000000E+00  0.00000000000E+00  0.19131512206E+04  0.19131512206E+04  0.00000000000E+00 0. -1.
         -2   -1    0    0    0  501 -0.00000000000E+00 -0.00000000000E+00 -0.39015140738E+03  0.39015140738E+03  0.00000000000E+00 0.  1.
         23    2    1    2    0    0  0.15319766264E+03 -0.65843178183E+03  0.11247900885E+04  0.13156168457E+04  0.93236293861E+02 0.  0.
    5000000    2    1    2    0    0 -0.15319766264E+03  0.65843178183E+03  0.39820972477E+03  0.98768578225E+03  0.59995856890E+03 0.  0.
         23    2    4    4    0    0 -0.18230663503E+03  0.54873550955E+03  0.53101297631E+03  0.79040011509E+03  0.91712552637E+02 0.  0.
         23    2    4    4    0    0  0.29108972384E+02  0.10969627228E+03 -0.13280325154E+03  0.19728566716E+03  0.91675113426E+02 0.  0.
          3    1    3    3  502    0  0.78441213246E+02 -0.16712384998E+03  0.33428920813E+03  0.38188045229E+03  0.00000000000E+00 0. -1.
         -3    1    3    3    0  502  0.74756449396E+02 -0.49130793185E+03  0.79050088033E+03  0.93373639344E+03  0.00000000000E+00 0.  1.
         13    1    5    5    0    0 -0.69699910132E+02  0.13948043402E+03  0.98684004989E+02  0.18453021917E+03  0.00000000000E+00 0.  1.
        -13    1    5    5    0    0 -0.11260672489E+03  0.40925507553E+03  0.43232897132E+03  0.60586989592E+03  0.00000000000E+00 0. -1.
          4    1    6    6  503    0  0.58131879655E+02  0.98999341919E+02 -0.10078940309E+03  0.15277005239E+03  0.00000000000E+00 0. -1.
         -4    1    6    6    0  503 -0.29022907270E+02  0.10696930361E+02 -0.32013848450E+02  0.44515614768E+02  0.00000000000E+00 0.  1.
<mgrwt>
<rscale>  0 0.70385316E+03</rscale>
<asrwt>0</asrwt>
<pdfrwt beam="1">  1        2 0.29433095E+00 0.70385316E+03</pdfrwt>
<pdfrwt beam="2">  1       -2 0.60023295E-01 0.70385316E+03</pdfrwt>
<totfact> 0.20073178E+01</totfact>
</mgrwt>
</event>
<event>
12    1  0.1444206E-007  0.1875353E+04  0.7818608E-02  0.8667223E-01
          2   -1    0    0  501    0  0.00000000000E+00  0.00000000000E+00  0.33400329644E+04  0.33400329644E+04  0.00000000000E+00 0. -1.
         -2   -1    0    0    0  501 -0.00000000000E+00 -0.00000000000E+00 -0.10763200249E+04  0.10763200249E+04  0.00000000000E+00 0.  1.
         23    2    1    2    0    0 -0.24762986169E+03  0.18182753376E+04  0.13524517556E+04  0.22814549440E+04  0.92006297011E+02 0.  0.
    5000000    2    1    2    0    0  0.24762986169E+03 -0.18182753376E+04  0.91126118392E+03  0.21348980454E+04  0.59995580430E+03 0.  0.
         23    2    4    4    0    0 -0.11681211629E+03 -0.16498767928E+03  0.18970936501E+03  0.29226673650E+03  0.92542948236E+02 0.  0.
         23    2    4    4    0    0  0.36444197798E+03 -0.16532876583E+04  0.72155181891E+03  0.18426313089E+04  0.92060179200E+02 0.  0.
          3    1    3    3  502    0 -0.12590903851E+03  0.11470278641E+04  0.89043330831E+03  0.14575312977E+04  0.00000000000E+00 0. -1.
         -3    1    3    3    0  502 -0.12172082318E+03  0.67124747345E+03  0.46201844728E+03  0.82392364636E+03  0.00000000000E+00 0.  1.
         13    1    5    5    0    0 -0.61268479636E+02 -0.17246291612E+02  0.66333581265E+02  0.91931524379E+02  0.00000000000E+00 0. -1.
        -13    1    5    5    0    0 -0.55543636658E+02 -0.14774138767E+03  0.12337578374E+03  0.20033521212E+03  0.00000000000E+00 0.  1.
          2    1    6    6  503    0  0.32908808881E+02 -0.17916775857E+03  0.10869688797E+03  0.21212988679E+03  0.00000000000E+00 0. -1.
         -2    1    6    6    0  503  0.33153316910E+03 -0.14741198997E+04  0.61285493094E+03  0.16305014221E+04  0.00000000000E+00 0.  1.
<mgrwt>
<rscale>  0 0.18753526E+04</rscale>
<asrwt>0</asrwt>
<pdfrwt beam="1">  1        2 0.51385122E+00 0.18753526E+04</pdfrwt>
<pdfrwt beam="2">  1       -2 0.16558770E+00 0.18753526E+04</pdfrwt>
<totfact> 0.21851096E-01</totfact>
</mgrwt>
</event>
<event>
12    1  0.1444206E-007  0.1127184E+04  0.7818608E-02  0.9179095E-01
          2   -1    0    0  501    0  0.00000000000E+00  0.00000000000E+00  0.12852696483E+04  0.12852696483E+04  0.00000000000E+00 0. -1.
         -2   -1    0    0    0  501 -0.00000000000E+00 -0.00000000000E+00 -0.10454542509E+04  0.10454542509E+04  0.00000000000E+00 0.  1.
         23    2    1    2    0    0 -0.27563109461E+03  0.10395987795E+04  0.19055654370E+02  0.10794844660E+04  0.90473595816E+02 0.  0.
    5000000    2    1    2    0    0  0.27563109461E+03 -0.10395987795E+04  0.22075974304E+03  0.12512394332E+04  0.60010593425E+03 0.  0.
         23    2    4    4    0    0  0.37233607108E+03 -0.91309690603E+03  0.42378335297E+02  0.99107008373E+03  0.89687668711E+02 0.  0.
         23    2    4    4    0    0 -0.96704976470E+02 -0.12650187350E+03  0.17838140774E+03  0.26016934947E+03  0.10253578548E+03 0.  0.
          2    1    3    3  502    0 -0.80272338529E+02  0.21108125882E+03  0.32399416650E+02  0.22814177249E+03  0.00000000000E+00 0. -1.
         -2    1    3    3    0  502 -0.19535875608E+03  0.82851752072E+03 -0.13343762279E+02  0.85134269346E+03  0.00000000000E+00 0.  1.
         13    1    5    5    0    0  0.31181118234E+03 -0.68668092043E+03  0.80458273975E+01  0.75420264867E+03  0.00000000000E+00 0. -1.
        -13    1    5    5    0    0  0.60524888740E+02 -0.22641598560E+03  0.34332507899E+02  0.23686743506E+03  0.00000000000E+00 0.  1.
          1    1    6    6  503    0 -0.43458393339E+02  0.79342790588E+01  0.50935286601E+02  0.67423943498E+02  0.00000000000E+00 0. -1.
         -1    1    6    6    0  503 -0.53246583131E+02 -0.13443615256E+03  0.12744612114E+03  0.19274540598E+03  0.00000000000E+00 0.  1.
<mgrwt>
<rscale>  0 0.11271835E+04</rscale>
<asrwt>0</asrwt>
<pdfrwt beam="1">  1        2 0.19773379E+00 0.11271835E+04</pdfrwt>
<pdfrwt beam="2">  1       -2 0.16083912E+00 0.11271835E+04</pdfrwt>
<totfact> 0.40975012E+00</totfact>
</mgrwt>
</event>
<event>
12    1  0.1444206E-007  0.7437392E+03  0.7818608E-02  0.9645224E-01
          1   -1    0    0  501    0  0.00000000000E+00  0.00000000000E+00  0.11424343088E+04  0.11424343088E+04  0.00000000000E+00 0. -1.
         -1   -1    0    0    0  501 -0.00000000000E+00 -0.00000000000E+00 -0.57860118689E+03  0.57860118689E+03  0.00000000000E+00 0.  1.
         23    2    1    2    0    0  0.36499634292E+03  0.57943397772E+03  0.39306230486E+03  0.79454786998E+03  0.88556633299E+02 0.  0.
    5000000    2    1    2    0    0 -0.36499634292E+03 -0.57943397772E+03  0.17077081703E+03  0.92648762568E+03  0.60020878344E+03 0.  0.
         23    2    4    4    0    0 -0.41110114443E+03 -0.30868950788E+03 -0.98349610516E+02  0.53128928282E+03  0.91116918945E+02 0.  0.
         23    2    4    4    0    0  0.46104801516E+02 -0.27074446985E+03  0.26912042754E+03  0.39519834287E+03  0.91256260111E+02 0.  0.
          3    1    3    3  502    0  0.34233369778E+02  0.10594926444E+03  0.84055710452E+02  0.13950818148E+03  0.00000000000E+00 0. -1.
         -3    1    3    3    0  502  0.33076297314E+03  0.47348471329E+03  0.30900659441E+03  0.65503968850E+03  0.00000000000E+00 0.  1.
         11    1    5    5    0    0 -0.24334750730E+03 -0.21387879491E+03 -0.24406618710E+02  0.32489664704E+03  0.00000000000E+00 0.  1.
        -11    1    5    5    0    0 -0.16775363714E+03 -0.94810712968E+02 -0.73942991807E+02  0.20639263578E+03  0.00000000000E+00 0. -1.
          4    1    6    6  503    0  0.44560874262E+02 -0.83555121061E+02  0.13506092931E+03  0.16495024825E+03  0.00000000000E+00 0. -1.
         -4    1    6    6    0  503  0.15439272536E+01 -0.18718934878E+03  0.13405949823E+03  0.23024809462E+03  0.00000000000E+00 0.  1.
<mgrwt>
<rscale>  0 0.74373920E+03</rscale>
<asrwt>0</asrwt>
<pdfrwt beam="1">  1        1 0.17575912E+00 0.74373920E+03</pdfrwt>
<pdfrwt beam="2">  1       -1 0.89015567E-01 0.74373920E+03</pdfrwt>
<totfact> 0.15062593E+01</totfact>
</mgrwt>
</event>
<event>
12    1  0.1444206E-007  0.1137221E+04  0.7818608E-02  0.9169654E-01
         -2   -1    0    0    0  501 -0.00000000000E+00  0.00000000000E+00  0.99093971216E+03  0.99093971216E+03  0.00000000000E+00 0.  1.
          2   -1    0    0  501    0  0.00000000000E+00 -0.00000000000E+00 -0.14435947425E+04  0.14435947425E+04  0.00000000000E+00 0. -1.
         23    2    1    2    0    0  0.97517033075E+03  0.49798215265E+03 -0.44644412230E+03  0.11859331234E+04  0.90452310523E+02 0.  0.
    5000000    2    1    2    0    0 -0.97517033075E+03 -0.49798215265E+03 -0.62109080157E+01  0.12486013313E+04  0.60001942528E+03 0.  0.
         23    2    4    4    0    0 -0.57018002673E+03 -0.50240666032E+03  0.19095230075E+03  0.78902409197E+03  0.92620307365E+02 0.  0.
         23    2    4    4    0    0 -0.40499030402E+03  0.44245076758E+01 -0.19716320876E+03  0.45957723929E+03  0.91110841075E+02 0.  0.
          1    1    3    3  502    0  0.36389015991E+03  0.23370737838E+03 -0.16330410040E+03  0.46228066842E+03  0.00000000000E+00 0. -1.
         -1    1    3    3    0  502  0.61128017084E+03  0.26427477427E+03 -0.28314002191E+03  0.72365245497E+03  0.00000000000E+00 0.  1.
         13    1    5    5    0    0 -0.20131479173E+03 -0.22482480920E+03  0.46748822660E+02  0.30538384473E+03  0.00000000000E+00 0. -1.
        -13    1    5    5    0    0 -0.36886523499E+03 -0.27758185113E+03  0.14420347809E+03  0.48364024724E+03  0.00000000000E+00 0.  1.
          1    1    6    6  503    0 -0.20397175726E+03 -0.37094207525E+02 -0.12453288755E+03  0.24184478095E+03  0.00000000000E+00 0. -1.
         -1    1    6    6    0  503 -0.20101854676E+03  0.41518715201E+02 -0.72630321218E+02  0.21773245834E+03  0.00000000000E+00 0.  1.
<mgrwt>
<rscale>  0 0.11372211E+04</rscale>
<asrwt>0</asrwt>
<pdfrwt beam="1">  1        2 0.22209150E+00 0.11372211E+04</pdfrwt>
<pdfrwt beam="2">  1       -2 0.15245226E+00 0.11372211E+04</pdfrwt>
<totfact> 0.38344846E+00</totfact>
</mgrwt>
</event>
<event>
12    1  0.1444206E-007  0.6338318E+03  0.7818608E-02  0.9837600E-01
          2   -1    0    0  501    0  0.00000000000E+00  0.00000000000E+00  0.10309212973E+04  0.10309212973E+04  0.00000000000E+00 0. -1.
         -2   -1    0    0    0  501 -0.00000000000E+00 -0.00000000000E+00 -0.55841944465E+03  0.55841944465E+03  0.00000000000E+00 0.  1.
         23    2    1    2    0    0  0.18133755888E+03  0.56330878802E+03  0.44526123931E+03  0.74631980710E+03  0.92388215217E+02 0.  0.
    5000000    2    1    2    0    0 -0.18133755888E+03 -0.56330878802E+03  0.27240613362E+02  0.84302093487E+03  0.59978508208E+03 0.  0.
         23    2    4    4    0    0  0.21331686652E+02 -0.42608054807E+03 -0.21582691807E+03  0.48657046837E+03  0.90387431810E+02 0.  0.
         23    2    4    4    0    0 -0.20266924553E+03 -0.13722823995E+03  0.24306753143E+03  0.35645046650E+03  0.89825927808E+02 0.  0.
          2    1    3    3  502    0  0.13912527733E+03  0.49628520599E+03  0.41425720675E+03  0.66125931511E+03  0.00000000000E+00 0. -1.
         -2    1    3    3    0  502  0.42212281550E+02  0.67023582031E+02  0.31004032561E+02  0.85060491987E+02  0.00000000000E+00 0.  1.
         13    1    5    5    0    0 -0.47340644756E+01 -0.26494108179E+03 -0.17737085189E+03  0.31886769559E+03  0.00000000000E+00 0. -1.
        -13    1    5    5    0    0  0.26065751128E+02 -0.16113946627E+03 -0.38456066176E+02  0.16770277278E+03  0.00000000000E+00 0.  1.
          4    1    6    6  503    0 -0.54877165532E+02 -0.40143769358E+02  0.12958755161E+03  0.14634192512E+03  0.00000000000E+00 0. -1.
         -4    1    6    6    0  503 -0.14779208000E+03 -0.97084470597E+02  0.11347997982E+03  0.21010854138E+03  0.00000000000E+00 0.  1.
<mgrwt>
<rscale>  0 0.63383176E+03</rscale>
<asrwt>0</asrwt>
<pdfrwt beam="1">  1        2 0.15860328E+00 0.63383176E+03</pdfrwt>
<pdfrwt beam="2">  1       -2 0.85910684E-01 0.63383176E+03</pdfrwt>
<totfact> 0.29131660E+01</totfact>
</mgrwt>
</event>
<event>
12    1  0.1444206E-007  0.8667171E+03  0.7818608E-02  0.9468171E-01
         -2   -1    0    0    0  501 -0.00000000000E+00  0.00000000000E+00  0.13933296168E+04  0.13933296168E+04  0.00000000000E+00 0.  1.
          2   -1    0    0  501    0  0.00000000000E+00 -0.00000000000E+00 -0.64776627749E+03  0.64776627749E+03  0.00000000000E+00 0. -1.
         23    2    1    2    0    0  0.34677836652E+03  0.76776081067E+03  0.19682481828E+03  0.87005246237E+03  0.92408767459E+02 0.  0.
    5000000    2    1    2    0    0 -0.34677836652E+03 -0.76776081067E+03  0.54873852104E+03  0.11710434319E+04  0.60043055976E+03 0.  0.
         23    2    4    4    0    0 -0.10234255442E+02 -0.22010161954E+03  0.45693306786E+03  0.51537077672E+03  0.90938144234E+02 0.  0.
         23    2    4    4    0    0 -0.33654411108E+03 -0.54765919112E+03  0.91805453179E+02  0.65567265521E+03  0.91026706124E+02 0.  0.
          4    1    3    3  502    0  0.31099060594E+03  0.60256725112E+03  0.16796802726E+03  0.69858121023E+03  0.00000000000E+00 0. -1.
         -4    1    3    3    0  502  0.35787760587E+02  0.16519355954E+03  0.28856791024E+02  0.17147125214E+03  0.00000000000E+00 0.  1.
         13    1    5    5    0    0 -0.50605920686E+02 -0.12035630911E+03  0.26094077598E+03  0.29178192014E+03  0.00000000000E+00 0. -1.
        -13    1    5    5    0    0  0.40371665244E+02 -0.99745310435E+02  0.19599229188E+03  0.22358885658E+03  0.00000000000E+00 0.  1.
          1    1    6    6  503    0 -0.32290051948E+03 -0.47587918545E+03  0.93219202677E+02  0.58259382453E+03  0.00000000000E+00 0. -1.
         -1    1    6    6    0  503 -0.13643591595E+02 -0.71780005670E+02 -0.14137494979E+01  0.73078830678E+02  0.00000000000E+00 0.  1.
<mgrwt>
<rscale>  0 0.86671707E+03</rscale>
<asrwt>0</asrwt>
<pdfrwt beam="1">  1        2 0.99656350E-01 0.86671707E+03</pdfrwt>
<pdfrwt beam="2">  1       -2 0.21435840E+00 0.86671707E+03</pdfrwt>
<totfact> 0.48900287E+00</totfact>
</mgrwt>
</event>
<event>
12    1  0.1444206E-007  0.6353365E+03  0.7818608E-02  0.9834690E-01
          1   -1    0    0  501    0  0.00000000000E+00  0.00000000000E+00  0.74571344167E+03  0.74571344167E+03  0.00000000000E+00 0. -1.
         -1   -1    0    0    0  501 -0.00000000000E+00 -0.00000000000E+00 -0.59281099434E+03  0.59281099434E+03  0.00000000000E+00 0.  1.
         23    2    1    2    0    0  0.39642537933E+03 -0.31598302233E+03 -0.76707093878E+02  0.52069978377E+03  0.90807129594E+02 0.  0.
    5000000    2    1    2    0    0 -0.39642537933E+03  0.31598302233E+03  0.22960954121E+03  0.81782465224E+03  0.59926477338E+03 0.  0.
         23    2    4    4    0    0 -0.44171073318E+03  0.81420624077E+01  0.72005350084E+02  0.45693832370E+03  0.91832435663E+02 0.  0.
         23    2    4    4    0    0  0.45285353847E+02  0.30784095993E+03  0.15760419112E+03  0.36088632854E+03  0.92644704034E+02 0.  0.
          3    1    3    3  502    0  0.29155211279E+03 -0.19434090667E+03 -0.82567989150E+02  0.35998402090E+03  0.00000000000E+00 0. -1.
         -3    1    3    3    0  502  0.10487326654E+03 -0.12164211567E+03  0.58608952720E+01  0.16071576286E+03  0.00000000000E+00 0.  1.
         11    1    5    5    0    0 -0.14222634601E+03  0.28916521769E+02  0.58342209602E+02  0.15642350255E+03  0.00000000000E+00 0.  1.
        -11    1    5    5    0    0 -0.29948438717E+03 -0.20774459361E+02  0.13663140482E+02  0.30051482114E+03  0.00000000000E+00 0. -1.
          1    1    6    6  503    0  0.34574953629E+02  0.92836352104E+02  0.93552866086E+01  0.99506467518E+02  0.00000000000E+00 0. -1.
         -1    1    6    6    0  503  0.10710400218E+02  0.21500460782E+03  0.14824890452E+03  0.26137986102E+03  0.00000000000E+00 0.  1.
<mgrwt>
<rscale>  0 0.63533647E+03</rscale>
<asrwt>0</asrwt>
<pdfrwt beam="1">  1        1 0.11472515E+00 0.63533647E+03</pdfrwt>
<pdfrwt beam="2">  1       -1 0.91201691E-01 0.63533647E+03</pdfrwt>
<totfact> 0.30107046E+01</totfact>
</mgrwt>
</event>
<event>
12    1  0.1444206E-007  0.5100320E+03  0.7818608E-02  0.1011193E+00
         -2   -1    0    0    0  501 -0.00000000000E+00  0.00000000000E+00  0.40423354625E+03  0.40423354625E+03  0.00000000000E+00 0.  1.
          2   -1    0    0  501    0  0.00000000000E+00 -0.00000000000E+00 -0.10503100899E+04  0.10503100899E+04  0.00000000000E+00 0. -1.
         23    2    1    2    0    0 -0.14817336576E+03  0.44212817158E+03 -0.48407474666E+03  0.67760001788E+03  0.85911334820E+02 0.  0.
    5000000    2    1    2    0    0  0.14817336576E+03 -0.44212817158E+03 -0.16200179694E+03  0.77694361822E+03  0.59997011364E+03 0.  0.
         23    2    4    4    0    0 -0.20014620882E+02 -0.33466407483E+03 -0.34706880036E+03  0.49101262298E+03  0.90752496976E+02 0.  0.
         23    2    4    4    0    0  0.16818798664E+03 -0.10746409674E+03  0.18506700342E+03  0.28593099525E+03  0.87584287115E+02 0.  0.
          3    1    3    3  502    0 -0.63986908736E+02  0.86141645344E+02 -0.12910363284E+03  0.16787631031E+03  0.00000000000E+00 0. -1.
         -3    1    3    3    0  502 -0.84186457023E+02  0.35598652623E+03 -0.35497111383E+03  0.50972370757E+03  0.00000000000E+00 0.  1.
         13    1    5    5    0    0 -0.56432801000E+02 -0.19802702123E+03 -0.20395789489E+03  0.28982440382E+03  0.00000000000E+00 0.  1.
        -13    1    5    5    0    0  0.36418180119E+02 -0.13663705361E+03 -0.14311090547E+03  0.20118821915E+03  0.00000000000E+00 0. -1.
          2    1    6    6  503    0  0.10749895740E+03 -0.71084320345E+02  0.59828277653E+02  0.14208599244E+03  0.00000000000E+00 0. -1.
         -2    1    6    6    0  503  0.60689029240E+02 -0.36379776399E+02  0.12523872576E+03  0.14384500280E+03  0.00000000000E+00 0.  1.
<mgrwt>
<rscale>  0 0.51003200E+03</rscale>
<asrwt>0</asrwt>
<pdfrwt beam="1">  1        2 0.16158617E+00 0.51003200E+03</pdfrwt>
<pdfrwt beam="2">  1       -2 0.62189777E-01 0.51003200E+03</pdfrwt>
<totfact> 0.58476218E+01</totfact>
</mgrwt>
</event>
<event>
12    1  0.1444206E-007  0.9572283E+03  0.7818608E-02  0.9356741E-01
          2   -1    0    0  501    0  0.00000000000E+00  0.00000000000E+00  0.19587692945E+04  0.19587692945E+04  0.00000000000E+00 0. -1.
         -2   -1    0    0    0  501 -0.00000000000E+00 -0.00000000000E+00 -0.67244496792E+03  0.67244496792E+03  0.00000000000E+00 0.  1.
         23    2    1    2    0    0 -0.37263692027E+03  0.87027339538E+03  0.35890723214E+02  0.95200321683E+03  0.93743926699E+02 0.  0.
    5000000    2    1    2    0    0  0.37263692027E+03 -0.87027339538E+03  0.12504336034E+04  0.16792110456E+04  0.59994289905E+03 0.  0.
         23    2    4    4    0    0  0.26617801173E+03 -0.41101162485E+03  0.10433577015E+04  0.11562164496E+04  0.91977689065E+02 0.  0.
         23    2    4    4    0    0  0.10645890854E+03 -0.45926177053E+03  0.20707590187E+03  0.52299459601E+03  0.91586272138E+02 0.  0.
          1    1    3    3  502    0 -0.12313257332E+03  0.34953034361E+03  0.52788766136E+02  0.37432572119E+03  0.00000000000E+00 0. -1.
         -1    1    3    3    0  502 -0.24950434696E+03  0.52074305177E+03 -0.16898042921E+02  0.57767749564E+03  0.00000000000E+00 0.  1.
         11    1    5    5    0    0  0.11660769359E+03 -0.17675451075E+03  0.55926749105E+03  0.59801307496E+03  0.00000000000E+00 0.  1.
        -11    1    5    5    0    0  0.14957031814E+03 -0.23425711410E+03  0.48409021047E+03  0.55820337463E+03  0.00000000000E+00 0. -1.
          1    1    6    6  503    0  0.67428131901E+02 -0.40097819327E+03  0.15306250762E+03  0.43446311200E+03  0.00000000000E+00 0. -1.
         -1    1    6    6    0  503  0.39030776640E+02 -0.58283577263E+02  0.54013394244E+02  0.88531484012E+02  0.00000000000E+00 0.  1.
<mgrwt>
<rscale>  0 0.95722828E+03</rscale>
<asrwt>0</asrwt>
<pdfrwt beam="1">  1        2 0.30134912E+00 0.95722828E+03</pdfrwt>
<pdfrwt beam="2">  1       -2 0.10345307E+00 0.95722828E+03</pdfrwt>
<totfact> 0.53919530E+00</totfact>
</mgrwt>
</event>
<event>
12    1  0.1444206E-007  0.7848949E+03  0.7818608E-02  0.9582142E-01
         -1   -1    0    0    0  501 -0.00000000000E+00  0.00000000000E+00  0.47116269733E+03  0.47116269733E+03  0.00000000000E+00 0.  1.
          1   -1    0    0  501    0  0.00000000000E+00 -0.00000000000E+00 -0.21626229073E+04  0.21626229073E+04  0.00000000000E+00 0. -1.
         23    2    1    2    0    0 -0.35874156017E+03  0.61940181989E+03 -0.23123700421E+02  0.72174783634E+03  0.89616473157E+02 0.  0.
    5000000    2    1    2    0    0  0.35874156017E+03 -0.61940181989E+03 -0.16683365096E+04  0.19120377683E+04  0.60015631030E+03 0.  0.
         23    2    4    4    0    0  0.44283355402E+03 -0.40435194586E+03 -0.14813214208E+04  0.16007087265E+04  0.91395966220E+02 0.  0.
         23    2    4    4    0    0 -0.84091993852E+02 -0.21504987404E+03 -0.18701508871E+03  0.31132904177E+03  0.92915106899E+02 0.  0.
          3    1    3    3  502    0 -0.12712949643E+03  0.14469113726E+03  0.65222664016E+01  0.19271734230E+03  0.00000000000E+00 0. -1.
         -3    1    3    3    0  502 -0.23161206374E+03  0.47471068263E+03 -0.29645966823E+02  0.52903049404E+03  0.00000000000E+00 0.  1.
         13    1    5    5    0    0  0.37268035516E+03 -0.30558884248E+03 -0.11096464018E+04  0.12097893721E+04  0.00000000000E+00 0. -1.
        -13    1    5    5    0    0  0.70153198858E+02 -0.98763103374E+02 -0.37167501904E+03  0.39091935444E+03  0.00000000000E+00 0.  1.
          1    1    6    6  503    0 -0.48579818295E+02 -0.29202528444E+02 -0.23895654959E+02  0.61512508801E+02  0.00000000000E+00 0. -1.
         -1    1    6    6    0  503 -0.35512175557E+02 -0.18584734559E+03 -0.16311943375E+03  0.24981653297E+03  0.00000000000E+00 0.  1.
<mgrwt>
<rscale>  0 0.78489486E+03</rscale>
<asrwt>0</asrwt>
<pdfrwt beam="1">  1        1 0.33271121E+00 0.78489486E+03</pdfrwt>
<pdfrwt beam="2">  1       -1 0.72486569E-01 0.78489486E+03</pdfrwt>
<totfact> 0.46419697E+00</totfact>
</mgrwt>
</event>
<event>
12    1  0.1444206E-007  0.1546981E+04  0.7818608E-02  0.8853799E-01
          1   -1    0    0  501    0  0.00000000000E+00  0.00000000000E+00  0.19933844111E+04  0.19933844111E+04  0.00000000000E+00 0. -1.
         -1   -1    0    0    0  501 -0.00000000000E+00 -0.00000000000E+00 -0.12951213678E+04  0.12951213678E+04  0.00000000000E+00 0.  1.
         23    2    1    2    0    0 -0.44565456717E+03  0.14395037449E+04  0.70599973395E+03  0.16666567899E+04  0.92359114489E+02 0.  0.
    5000000    2    1    2    0    0  0.44565456717E+03 -0.14395037449E+04 -0.77366906570E+01  0.16218489890E+04  0.59962927035E+03 0.  0.
         23    2    4    4    0    0  0.40514490622E+03 -0.51810026224E+03  0.15277720160E+03  0.68117852838E+03  0.89961310705E+02 0.  0.
         23    2    4    4    0    0  0.40509660951E+02 -0.92140348267E+03 -0.16051389226E+03  0.94067046061E+03  0.92036923887E+02 0.  0.
          2    1    3    3  502    0 -0.20170918577E+03  0.62357107545E+03  0.35691533883E+03  0.74626807573E+03  0.00000000000E+00 0. -1.
         -2    1    3    3    0  502 -0.24394538140E+03  0.81593266946E+03  0.34908439512E+03  0.92038871414E+03  0.00000000000E+00 0.  1.
         13    1    5    5    0    0  0.13960695433E+03 -0.25043878607E+03  0.70915782581E+02  0.29536204137E+03  0.00000000000E+00 0. -1.
        -13    1    5    5    0    0  0.26553795189E+03 -0.26766147617E+03  0.81861419022E+02  0.38581648701E+03  0.00000000000E+00 0.  1.
          4    1    6    6  503    0  0.45213372190E+02 -0.57705912955E+03 -0.60022388399E+02  0.58193141789E+03  0.00000000000E+00 0. -1.
         -4    1    6    6    0  503 -0.47037112390E+01 -0.34434435312E+03 -0.10049150386E+03  0.35873904272E+03  0.00000000000E+00 0.  1.
<mgrwt>
<rscale>  0 0.15469806E+04</rscale>
<asrwt>0</asrwt>
<pdfrwt beam="1">  1        1 0.30667453E+00 0.15469806E+04</pdfrwt>
<pdfrwt beam="2">  1       -1 0.19924944E+00 0.15469806E+04</pdfrwt>
<totfact> 0.43139546E-01</totfact>
</mgrwt>
</event>
<event>
12    1  0.1444206E-007  0.8804767E+03  0.7818608E-02  0.9450321E-01
         -1   -1    0    0    0  501 -0.00000000000E+00  0.00000000000E+00  0.47288928940E+03  0.47288928940E+03  0.00000000000E+00 0.  1.
          1   -1    0    0  501    0  0.00000000000E+00 -0.00000000000E+00 -0.17316541613E+04  0.17316541613E+04  0.00000000000E+00 0. -1.
         23    2    1    2    0    0 -0.79938964485E+03  0.39701701095E+02 -0.49091620190E+03  0.94346712827E+03  0.92365986549E+02 0.  0.
    5000000    2    1    2    0    0  0.79938964485E+03 -0.39701701095E+02 -0.76784866997E+03  0.12610763224E+04  0.60010155938E+03 0.  0.
         23    2    4    4    0    0  0.10902235881E+02 -0.15518840710E+03 -0.57115346599E+02  0.18959518865E+03  0.92097080837E+02 0.  0.
         23    2    4    4    0    0  0.78848740897E+03  0.11548670600E+03 -0.71073332337E+03  0.10714811337E+04  0.88771558742E+02 0.  0.
          3    1    3    3  502    0 -0.73660691486E+03  0.58046315374E+02 -0.46548034876E+03  0.87328751098E+03  0.00000000000E+00 0.  1.
         -3    1    3    3    0  502 -0.62782729996E+02 -0.18344614278E+02 -0.25435853141E+02  0.70179617296E+02  0.00000000000E+00 0. -1.
         11    1    5    5    0    0  0.18690211433E+02 -0.57217215272E+02 -0.67883803781E+02  0.90726757589E+02  0.00000000000E+00 0.  1.
        -11    1    5    5    0    0 -0.77879755521E+01 -0.97971191827E+02  0.10768457182E+02  0.98868431066E+02  0.00000000000E+00 0. -1.
          2    1    6    6  503    0  0.18819675424E+03  0.81671206642E+01 -0.21285794479E+03  0.28424149033E+03  0.00000000000E+00 0. -1.
         -2    1    6    6    0  503  0.60029065473E+03  0.10731958534E+03 -0.49787537859E+03  0.78723964341E+03  0.00000000000E+00 0.  1.
<mgrwt>
<rscale>  0 0.88047673E+03</rscale>
<asrwt>0</asrwt>
<pdfrwt beam="1">  1        1 0.26640833E+00 0.88047673E+03</pdfrwt>
<pdfrwt beam="2">  1       -1 0.72752198E-01 0.88047673E+03</pdfrwt>
<totfact> 0.88384291E+00</totfact>
</mgrwt>
</event>
<event>
12    1  0.1444206E-007  0.7547538E+03  0.7818608E-02  0.9627922E-01
         -3   -1    0    0    0  501 -0.00000000000E+00  0.00000000000E+00  0.67804552246E+03  0.67804552246E+03  0.00000000000E+00 0.  1.
          3   -1    0    0  501    0  0.00000000000E+00 -0.00000000000E+00 -0.91147240821E+03  0.91147240821E+03  0.00000000000E+00 0. -1.
         23    2    1    2    0    0 -0.64774038649E+03  0.35209352054E+02  0.61685355733E+02  0.65794184758E+03  0.90967493770E+02 0.  0.
    5000000    2    1    2    0    0  0.64774038649E+03 -0.35209352054E+02 -0.29511224149E+03  0.93157608309E+03  0.59994621156E+03 0.  0.
         23    2    4    4    0    0  0.65960960647E+02 -0.23219903617E+03 -0.12904461940E+03  0.28886103858E+03  0.92308965355E+02 0.  0.
         23    2    4    4    0    0  0.58177942584E+03  0.19698968412E+03 -0.16606762209E+03  0.64271504452E+03  0.90730024592E+02 0.  0.
          1    1    3    3  502    0 -0.43099358117E+03  0.38070353381E+01  0.79223761848E+02  0.43823094935E+03  0.00000000000E+00 0. -1.
         -1    1    3    3    0  502 -0.21674680532E+03  0.31402316716E+02 -0.17538406115E+02  0.21971089823E+03  0.00000000000E+00 0.  1.
         13    1    5    5    0    0 -0.31879741311E+01 -0.16864855820E+02  0.13227090209E+02  0.21668928360E+02  0.00000000000E+00 0. -1.
        -13    1    5    5    0    0  0.69148934778E+02 -0.21533418035E+03 -0.14227170961E+03  0.26719211022E+03  0.00000000000E+00 0.  1.
          4    1    6    6  503    0  0.14516121215E+03  0.71802585086E+02 -0.93138546816E+01  0.16221632663E+03  0.00000000000E+00 0. -1.
         -4    1    6    6    0  503  0.43661821369E+03  0.12518709903E+03 -0.15675376741E+03  0.48049871788E+03  0.00000000000E+00 0.  1.
<mgrwt>
<rscale>  0 0.75475377E+03</rscale>
<asrwt>0</asrwt>
<pdfrwt beam="1">  1        3 0.14022652E+00 0.75475377E+03</pdfrwt>
<pdfrwt beam="2">  1       -3 0.10431470E+00 0.75475377E+03</pdfrwt>
<totfact> 0.78857935E-01</totfact>
</mgrwt>
</event>
<event>
12    1  0.1444206E-007  0.1032725E+04  0.7818608E-02  0.9273363E-01
          1   -1    0    0  501    0  0.00000000000E+00  0.00000000000E+00  0.21782057823E+04  0.21782057823E+04  0.00000000000E+00 0. -1.
         -1   -1    0    0    0  501 -0.00000000000E+00 -0.00000000000E+00 -0.54272918492E+03  0.54272918492E+03  0.00000000000E+00 0.  1.
         23    2    1    2    0    0 -0.50025413101E+03 -0.86779286341E+03  0.71011285722E+03  0.12311251711E+04  0.89945914615E+02 0.  0.
    5000000    2    1    2    0    0  0.50025413101E+03  0.86779286341E+03  0.92536374018E+03  0.14898097961E+04  0.59993043564E+03 0.  0.
         23    2    4    4    0    0  0.38360299520E+03  0.86324563717E+03  0.57457330203E+03  0.11093847515E+04  0.90861209553E+02 0.  0.
         23    2    4    4    0    0  0.11665113581E+03  0.45472262467E+01  0.35079043814E+03  0.38042504464E+03  0.89672283030E+02 0.  0.
          4    1    3    3  502    0 -0.83759404496E+02 -0.11964361248E+03  0.14081152423E+03  0.20287463421E+03  0.00000000000E+00 0. -1.
         -4    1    3    3    0  502 -0.41649472652E+03 -0.74814925093E+03  0.56930133299E+03  0.10282505369E+04  0.00000000000E+00 0.  1.
         13    1    5    5    0    0  0.32002069509E+03  0.76046511000E+03  0.52972702052E+03  0.98047495893E+03  0.00000000000E+00 0. -1.
        -13    1    5    5    0    0  0.63582300107E+02  0.10278052717E+03  0.44846281519E+02  0.12890979256E+03  0.00000000000E+00 0.  1.
          4    1    6    6  503    0  0.48719283455E+02 -0.33220682810E+01  0.42801359632E+02  0.64935052971E+02  0.00000000000E+00 0. -1.
         -4    1    6    6    0  503  0.67931852358E+02  0.78692945278E+01  0.30798907851E+03  0.31548999167E+03  0.00000000000E+00 0.  1.
<mgrwt>
<rscale>  0 0.10327254E+04</rscale>
<asrwt>0</asrwt>
<pdfrwt beam="1">  1        1 0.33510858E+00 0.10327254E+04</pdfrwt>
<pdfrwt beam="2">  1       -1 0.83496799E-01 0.10327254E+04</pdfrwt>
<totfact> 0.32378516E+00</totfact>
</mgrwt>
</event>
<event>
12    1  0.1444206E-007  0.6937576E+03  0.7818608E-02  0.9727967E-01
         -2   -1    0    0    0  501 -0.00000000000E+00  0.00000000000E+00  0.22759445927E+04  0.22759445927E+04  0.00000000000E+00 0.  1.
          2   -1    0    0  501    0  0.00000000000E+00 -0.00000000000E+00 -0.70086054876E+03  0.70086054876E+03  0.00000000000E+00 0. -1.
         23    2    1    2    0    0  0.60714609495E+03 -0.29151447600E+03 -0.41025441200E+03  0.79614252486E+03  0.10921156985E+03 0.  0.
    5000000    2    1    2    0    0 -0.60714609495E+03  0.29151447600E+03  0.19853384559E+04  0.21806626166E+04  0.60009465295E+03 0.  0.
         23    2    4    4    0    0 -0.38823893669E+03  0.10668276708E+03  0.43159083957E+03  0.59802414004E+03  0.96184897536E+02 0.  0.
         23    2    4    4    0    0 -0.21890715826E+03  0.18483170892E+03  0.15537476164E+04  0.15826384766E+04  0.92356849081E+02 0.  0.
          3    1    3    3  502    0  0.22697804993E+03 -0.86022476754E+02 -0.20503475439E+03  0.31773912596E+03  0.00000000000E+00 0. -1.
         -3    1    3    3    0  502  0.38016804502E+03 -0.20549199925E+03 -0.20521965761E+03  0.47840339890E+03  0.00000000000E+00 0.  1.
         11    1    5    5    0    0 -0.15595441796E+03  0.88079017046E+02  0.21560172632E+03  0.28029234403E+03  0.00000000000E+00 0. -1.
        -11    1    5    5    0    0 -0.23228451873E+03  0.18603750030E+02  0.21598911324E+03  0.31773179601E+03  0.00000000000E+00 0.  1.
          1    1    6    6  503    0 -0.21395662269E+03  0.19480876183E+03  0.15114775172E+04  0.15389256561E+04  0.00000000000E+00 0. -1.
         -1    1    6    6    0  503 -0.49505355692E+01 -0.99770529053E+01  0.42270099157E+02  0.43712820429E+02  0.00000000000E+00 0.  1.
<mgrwt>
<rscale>  0 0.69375762E+03</rscale>
<asrwt>0</asrwt>
<pdfrwt beam="1">  1        2 0.10782470E+00 0.69375762E+03</pdfrwt>
<pdfrwt beam="2">  1       -2 0.35014532E+00 0.69375762E+03</pdfrwt>
<totfact> 0.67822768E-01</totfact>
</mgrwt>
</event>
<event>
12    1  0.1444206E-007  0.4628692E+03  0.7818608E-02  0.1023952E+00
         -2   -1    0    0    0  501 -0.00000000000E+00  0.00000000000E+00  0.44305172393E+03  0.44305172393E+03  0.00000000000E+00 0. -1.
          2   -1    0    0  501    0  0.00000000000E+00 -0.00000000000E+00 -0.99694614468E+03  0.99694614468E+03  0.00000000000E+00 0.  1.
         23    2    1    2    0    0  0.42889821429E+03  0.74721312810E+02 -0.53839527127E+03  0.69862254391E+03  0.93096927639E+02 0.  0.
    5000000    2    1    2    0    0 -0.42889821429E+03 -0.74721312810E+02 -0.15499149486E+02  0.74137532470E+03  0.59988348505E+03 0.  0.
         23    2    4    4    0    0 -0.10917105982E+03 -0.54129527208E+02 -0.27897598656E+03  0.31656085121E+03  0.86803487421E+02 0.  0.
         23    2    4    4    0    0 -0.31972715447E+03 -0.20591785602E+02  0.26347683707E+03  0.42481447349E+03  0.91639610829E+02 0.  0.
          3    1    3    3  502    0  0.12760481101E+03 -0.20438165690E+02 -0.15461721169E+03  0.20151225412E+03  0.00000000000E+00 0. -1.
         -3    1    3    3    0  502  0.30129340328E+03  0.95159478500E+02 -0.38377805958E+03  0.49711028980E+03  0.00000000000E+00 0.  1.
         13    1    5    5    0    0 -0.99471732448E+02 -0.62651169684E+01 -0.20458172741E+03  0.22756880375E+03  0.00000000000E+00 0.  1.
        -13    1    5    5    0    0 -0.96993273682E+01 -0.47864410239E+02 -0.74394259142E+02  0.88992047466E+02  0.00000000000E+00 0. -1.
          2    1    6    6  503    0 -0.10000951549E+03 -0.47430291472E+02  0.71158207750E+02  0.13158657328E+03  0.00000000000E+00 0. -1.
         -2    1    6    6    0  503 -0.21971763898E+03  0.26838505870E+02  0.19231862932E+03  0.29322790021E+03  0.00000000000E+00 0.  1.
<mgrwt>
<rscale>  0 0.46286919E+03</rscale>
<asrwt>0</asrwt>
<pdfrwt beam="1">  1        2 0.15337633E+00 0.46286919E+03</pdfrwt>
<pdfrwt beam="2">  1       -2 0.68161804E-01 0.46286919E+03</pdfrwt>
<totfact> 0.52223051E+01</totfact>
</mgrwt>
</event>
<event>
12    1  0.1444206E-007  0.1281919E+04  0.7818608E-02  0.9044028E-01
          2   -1    0    0  501    0  0.00000000000E+00  0.00000000000E+00  0.34436261481E+04  0.34436261481E+04  0.00000000000E+00 0.  1.
         -2   -1    0    0    0  501 -0.00000000000E+00 -0.00000000000E+00 -0.52769718594E+03  0.52769718594E+03  0.00000000000E+00 0. -1.
         23    2    1    2    0    0  0.41020858624E+03  0.12096587482E+04  0.12734828078E+04  0.18058592548E+04  0.88452331421E+02 0.  0.
    5000000    2    1    2    0    0 -0.41020858624E+03 -0.12096587482E+04  0.16424461544E+04  0.21654640793E+04  0.60004994588E+03 0.  0.
         23    2    4    4    0    0 -0.14321735787E+03 -0.50354168531E+03  0.11317540038E+04  0.12501322821E+04  0.88871577735E+02 0.  0.
         23    2    4    4    0    0 -0.26699122837E+03 -0.70611706286E+03  0.51069215061E+03  0.91533179719E+03  0.84499726461E+02 0.  0.
          1    1    3    3  502    0  0.27919208829E+03  0.76403814052E+03  0.75628076189E+03  0.11107038728E+04  0.00000000000E+00 0. -1.
         -1    1    3    3    0  502  0.13101649795E+03  0.44562060765E+03  0.51720204594E+03  0.69515538193E+03  0.00000000000E+00 0.  1.
         13    1    5    5    0    0 -0.56549642342E+01 -0.96429907675E+02  0.27849601642E+03  0.29477234754E+03  0.00000000000E+00 0.  1.
        -13    1    5    5    0    0 -0.13756239364E+03 -0.40711177763E+03  0.85325798734E+03  0.95535993457E+03  0.00000000000E+00 0. -1.
          3    1    6    6  503    0 -0.20645570054E+03 -0.62601677368E+03  0.44626682058E+03  0.79603707977E+03  0.00000000000E+00 0. -1.
         -3    1    6    6    0  503 -0.60535527832E+02 -0.80100289181E+02  0.64425330022E+02  0.11929471742E+03  0.00000000000E+00 0.  1.
<mgrwt>
<rscale>  0 0.12819186E+04</rscale>
<asrwt>0</asrwt>
<pdfrwt beam="1">  1        2 0.52978862E+00 0.12819186E+04</pdfrwt>
<pdfrwt beam="2">  1       -2 0.81184185E-01 0.12819186E+04</pdfrwt>
<totfact> 0.11790863E+00</totfact>
</mgrwt>
</event>
<event>
12    1  0.1444206E-007  0.7037959E+03  0.7818608E-02  0.9710763E-01
         -1   -1    0    0    0  501 -0.00000000000E+00  0.00000000000E+00  0.54091777592E+03  0.54091777592E+03  0.00000000000E+00 0.  1.
          1   -1    0    0  501    0  0.00000000000E+00 -0.00000000000E+00 -0.19741065363E+04  0.19741065363E+04  0.00000000000E+00 0. -1.
         23    2    1    2    0    0  0.28995090893E+03  0.56885505454E+03 -0.15039482275E+04  0.16360498893E+04  0.84447417808E+02 0.  0.
    5000000    2    1    2    0    0 -0.28995090893E+03 -0.56885505454E+03  0.70759467145E+02  0.87897442298E+03  0.59993460594E+03 0.  0.
         23    2    4    4    0    0 -0.16859982589E+03 -0.16288256285E+02 -0.17043990659E+03  0.25696176403E+03  0.91040528513E+02 0.  0.
         23    2    4    4    0    0 -0.12135108305E+03 -0.55256679825E+03  0.24119937373E+03  0.62201265895E+03  0.93093813561E+02 0.  0.
          2    1    3    3  502    0  0.21896133784E+03  0.34240893843E+03 -0.92513704267E+03  0.10104783502E+04  0.00000000000E+00 0.  1.
         -2    1    3    3    0  502  0.70989571092E+02  0.22644611611E+03 -0.57881118488E+03  0.62557153903E+03  0.00000000000E+00 0. -1.
         11    1    5    5    0    0 -0.33157776715E+02 -0.41106663299E+02 -0.63649779085E+02  0.82707256645E+02  0.00000000000E+00 0.  1.
        -11    1    5    5    0    0 -0.13544204917E+03  0.24818407013E+02 -0.10679012750E+03  0.17425450738E+03  0.00000000000E+00 0. -1.
          3    1    6    6  503    0 -0.38490575984E+01  0.33708313179E+01  0.24541456272E+01  0.56745553948E+01  0.00000000000E+00 0. -1.
         -3    1    6    6    0  503 -0.11750202545E+03 -0.55593762957E+03  0.23874522811E+03  0.61633810356E+03  0.00000000000E+00 0.  1.
<mgrwt>
<rscale>  0 0.70379594E+03</rscale>
<asrwt>0</asrwt>
<pdfrwt beam="1">  1        1 0.30370870E+00 0.70379594E+03</pdfrwt>
<pdfrwt beam="2">  1       -1 0.83218119E-01 0.70379594E+03</pdfrwt>
<totfact> 0.47085819E+00</totfact>
</mgrwt>
</event>
<event>
12    1  0.1444206E-007  0.7116820E+03  0.7818608E-02  0.9697460E-01
          2   -1    0    0  501    0  0.00000000000E+00  0.00000000000E+00  0.94473934600E+03  0.94473934600E+03  0.00000000000E+00 0. -1.
         -2   -1    0    0    0  501 -0.00000000000E+00 -0.00000000000E+00 -0.55269344689E+03  0.55269344689E+03  0.00000000000E+00 0.  1.
         23    2    1    2    0    0 -0.10199380541E+03  0.58073627952E+03  0.88081359826E+02  0.60295664839E+03  0.90227663109E+02 0.  0.
    5000000    2    1    2    0    0  0.10199380541E+03 -0.58073627952E+03  0.30396453928E+03  0.89447614450E+03  0.60002980697E+03 0.  0.
         23    2    4    4    0    0 -0.22569428393E+03 -0.36217791113E+03  0.16848152590E+03  0.46794992244E+03  0.92088849649E+02 0.  0.
         23    2    4    4    0    0  0.32768808934E+03 -0.21855836839E+03  0.13548301338E+03  0.42652622206E+03  0.91769967327E+02 0.  0.
          1    1    3    3  502    0 -0.47219388048E+02  0.92135190678E+02  0.30529338840E+02  0.10793796598E+03  0.00000000000E+00 0. -1.
         -1    1    3    3    0  502 -0.54774417362E+02  0.48860108884E+03  0.57552020985E+02  0.49501868241E+03  0.00000000000E+00 0.  1.
         11    1    5    5    0    0 -0.19808957134E+03 -0.35299857733E+03  0.16951048063E+03  0.43884083323E+03  0.00000000000E+00 0. -1.
        -11    1    5    5    0    0 -0.27604712596E+02 -0.91793338003E+01 -0.10289547289E+01  0.29109089205E+02  0.00000000000E+00 0.  1.
          2    1    6    6  503    0  0.24888960769E+03 -0.17509772591E+03  0.62502642287E+02  0.31066353299E+03  0.00000000000E+00 0. -1.
         -2    1    6    6    0  503  0.78798481655E+02 -0.43460642477E+02  0.72980371089E+02  0.11586268908E+03  0.00000000000E+00 0.  1.
<mgrwt>
<rscale>  0 0.71168203E+03</rscale>
<asrwt>0</asrwt>
<pdfrwt beam="1">  1        2 0.14534451E+00 0.71168203E+03</pdfrwt>
<pdfrwt beam="2">  1       -2 0.85029761E-01 0.71168203E+03</pdfrwt>
<totfact> 0.33579629E+01</totfact>
</mgrwt>
</event>
<event>
12    1  0.1444206E-007  0.7417053E+03  0.7818608E-02  0.9648454E-01
          2   -1    0    0  501    0  0.00000000000E+00  0.00000000000E+00  0.93471735379E+03  0.93471735379E+03  0.00000000000E+00 0.  1.
         -2   -1    0    0    0  501 -0.00000000000E+00 -0.00000000000E+00 -0.69780920296E+03  0.69780920296E+03  0.00000000000E+00 0. -1.
         23    2    1    2    0    0 -0.40443115601E+03  0.53006109320E+03  0.29339637778E+03  0.73381514144E+03  0.88735026048E+02 0.  0.
    5000000    2    1    2    0    0  0.40443115601E+03 -0.53006109320E+03 -0.56488226938E+02  0.89871141531E+03  0.59996830395E+03 0.  0.
         23    2    4    4    0    0 -0.76833393028E+02 -0.22972114681E+03  0.13590488366E+03  0.29310305649E+03  0.93616711885E+02 0.  0.
         23    2    4    4    0    0  0.48126454904E+03 -0.30033994638E+03 -0.19239311059E+03  0.60560835882E+03  0.89032161115E+02 0.  0.
          4    1    3    3  502    0 -0.27313601532E+03  0.30274590732E+03  0.20820491642E+03  0.45782928531E+03  0.00000000000E+00 0.  1.
         -4    1    3    3    0  502 -0.13129514069E+03  0.22731518587E+03  0.85191461354E+02  0.27598585613E+03  0.00000000000E+00 0. -1.
         11    1    5    5    0    0 -0.68810183819E+02 -0.14277162357E+03  0.40113485956E+02  0.16348599221E+03  0.00000000000E+00 0.  1.
        -11    1    5    5    0    0 -0.80232092092E+01 -0.86949523241E+02  0.95791397700E+02  0.12961706427E+03  0.00000000000E+00 0. -1.
          1    1    6    6  503    0  0.43392157530E+02 -0.29792123564E+02  0.80450275128E+01  0.53246337238E+02  0.00000000000E+00 0. -1.
         -1    1    6    6    0  503  0.43787239151E+03 -0.27054782282E+03 -0.20043813811E+03  0.55236202158E+03  0.00000000000E+00 0.  1.
<mgrwt>
<rscale>  0 0.74170526E+03</rscale>
<asrwt>0</asrwt>
<pdfrwt beam="1">  1        2 0.14380267E+00 0.74170526E+03</pdfrwt>
<pdfrwt beam="2">  1       -2 0.10735526E+00 0.74170526E+03</pdfrwt>
<totfact> 0.19688948E+01</totfact>
</mgrwt>
</event>
<event>
12    1  0.1444206E-007  0.4724846E+03  0.7818608E-02  0.1021221E+00
         -1   -1    0    0    0  501 -0.00000000000E+00  0.00000000000E+00  0.52966878491E+03  0.52966878491E+03  0.00000000000E+00 0.  1.
          1   -1    0    0  501    0  0.00000000000E+00 -0.00000000000E+00 -0.13140683448E+04  0.13140683448E+04  0.00000000000E+00 0. -1.
         23    2    1    2    0    0 -0.66831490943E+02  0.39883856872E+03  0.31977668466E+03  0.52356908095E+03  0.91262272582E+02 0.  0.
    5000000    2    1    2    0    0  0.66831490943E+02 -0.39883856872E+03 -0.11041762445E+04  0.13201680487E+04  0.60008319908E+03 0.  0.
         23    2    4    4    0    0  0.17866558935E+03 -0.11353137213E+03 -0.92643347717E+03  0.95444295958E+03  0.88722095342E+02 0.  0.
         23    2    4    4    0    0 -0.11183409841E+03 -0.28530719659E+03 -0.17774276737E+03  0.36572508915E+03  0.90858612634E+02 0.  0.
          3    1    3    3  502    0 -0.79627619011E+02  0.21127061361E+03  0.19048290046E+03  0.29539730069E+03  0.00000000000E+00 0. -1.
         -3    1    3    3    0  502  0.12796128068E+02  0.18756795511E+03  0.12929378420E+03  0.22817178027E+03  0.00000000000E+00 0.  1.
         13    1    5    5    0    0  0.15803574462E+03 -0.12410970582E+03 -0.87861604250E+03  0.90130165084E+03  0.00000000000E+00 0. -1.
        -13    1    5    5    0    0  0.20629844738E+02  0.10578333685E+02 -0.47817434664E+02  0.53141308746E+02  0.00000000000E+00 0.  1.
          3    1    6    6  503    0 -0.10326429316E+03 -0.27440371721E+03 -0.13879896752E+03  0.32438567731E+03  0.00000000000E+00 0. -1.
         -3    1    6    6    0  503 -0.85698052517E+01 -0.10903479383E+02 -0.38943799852E+02  0.41339411844E+02  0.00000000000E+00 0.  1.
<mgrwt>
<rscale>  0 0.47248463E+03</rscale>
<asrwt>0</asrwt>
<pdfrwt beam="1">  1        1 0.20216436E+00 0.47248463E+03</pdfrwt>
<pdfrwt beam="2">  1       -1 0.81487507E-01 0.47248463E+03</pdfrwt>
<totfact> 0.14388084E+01</totfact>
</mgrwt>
</event>
<event>
12    1  0.1444206E-007  0.4799186E+03  0.7818608E-02  0.1019158E+00
         -1   -1    0    0    0  501 -0.00000000000E+00  0.00000000000E+00  0.62259462663E+03  0.62259462663E+03  0.00000000000E+00 0.  1.
          1   -1    0    0  501    0  0.00000000000E+00 -0.00000000000E+00 -0.40459728996E+03  0.40459728996E+03  0.00000000000E+00 0. -1.
         23    2    1    2    0    0  0.26342221622E+03 -0.16667406221E+03  0.46026369033E+02  0.32942629443E+03  0.96081995213E+02 0.  0.
    5000000    2    1    2    0    0 -0.26342221622E+03  0.16667406221E+03  0.17197096764E+03  0.69776562215E+03  0.60010944230E+03 0.  0.
         23    2    4    4    0    0 -0.42493878362E+03  0.61930699320E+02  0.20413073378E+03  0.48341139282E+03  0.87228647221E+02 0.  0.
         23    2    4    4    0    0  0.16151656740E+03  0.10474336289E+03 -0.32159766144E+02  0.21435422933E+03  0.88626810049E+02 0.  0.
          1    1    3    3  502    0  0.15690634171E+03 -0.55432096970E+02 -0.69508845948E+01  0.16655519277E+03  0.00000000000E+00 0. -1.
         -1    1    3    3    0  502  0.10651587451E+03 -0.11124196524E+03  0.52977253628E+02  0.16287110166E+03  0.00000000000E+00 0.  1.
         11    1    5    5    0    0 -0.22270354234E+03 -0.58334884652E+01  0.80460904588E+02  0.23686463333E+03  0.00000000000E+00 0. -1.
        -11    1    5    5    0    0 -0.20223524128E+03  0.67764187785E+02  0.12366982919E+03  0.24654675949E+03  0.00000000000E+00 0.  1.
          1    1    6    6  503    0  0.38875838499E+02  0.62557474803E+02 -0.41115416014E+02  0.84351917031E+02  0.00000000000E+00 0. -1.
         -1    1    6    6    0  503  0.12264072890E+03  0.42185888088E+02  0.89556498694E+01  0.13000231230E+03  0.00000000000E+00 0.  1.
<mgrwt>
<rscale>  0 0.47991860E+03</rscale>
<asrwt>0</asrwt>
<pdfrwt beam="1">  1        1 0.62245737E-01 0.47991860E+03</pdfrwt>
<pdfrwt beam="2">  1       -1 0.95783788E-01 0.47991860E+03</pdfrwt>
<totfact> 0.64940222E+01</totfact>
</mgrwt>
</event>
<event>
12    1  0.1444206E-007  0.4498579E+03  0.7818608E-02  0.1027764E+00
         -2   -1    0    0    0  501 -0.00000000000E+00  0.00000000000E+00  0.23306094121E+03  0.23306094121E+03  0.00000000000E+00 0.  1.
          2   -1    0    0  501    0  0.00000000000E+00 -0.00000000000E+00 -0.11600303951E+04  0.11600303951E+04  0.00000000000E+00 0. -1.
         23    2    1    2    0    0 -0.29946545813E+03  0.14310574810E+03 -0.40147219252E+03  0.52919682867E+03  0.93330307846E+02 0.  0.
    5000000    2    1    2    0    0  0.29946545813E+03 -0.14310574810E+03 -0.52549726137E+03  0.86389450763E+03  0.60000627735E+03 0.  0.
         23    2    4    4    0    0  0.82738167229E+02 -0.27445705524E+03 -0.51284104945E+03  0.59457312436E+03  0.91318008759E+02 0.  0.
         23    2    4    4    0    0  0.21672729090E+03  0.13135130714E+03 -0.12656211913E+02  0.26932138327E+03  0.90277036276E+02 0.  0.
          2    1    3    3  502    0 -0.21226263013E+03  0.13721254483E+03 -0.25782315800E+03  0.36104776334E+03  0.00000000000E+00 0. -1.
         -2    1    3    3    0  502 -0.87202827992E+02  0.58932032653E+01 -0.14364903452E+03  0.16814906533E+03  0.00000000000E+00 0.  1.
         11    1    5    5    0    0  0.18308271289E+02 -0.15622806881E+03 -0.34676100797E+03  0.38076974530E+03  0.00000000000E+00 0. -1.
        -11    1    5    5    0    0  0.64429895940E+02 -0.11822898642E+03 -0.16608004148E+03  0.21380337906E+03  0.00000000000E+00 0.  1.
          1    1    6    6  503    0  0.35901772313E+02  0.66400441147E+02  0.87753637282E+01  0.75993176327E+02  0.00000000000E+00 0. -1.
         -1    1    6    6    0  503  0.18082551858E+03  0.64950865988E+02 -0.21431575641E+02  0.19332820694E+03  0.00000000000E+00 0.  1.
<mgrwt>
<rscale>  0 0.44985787E+03</rscale>
<asrwt>0</asrwt>
<pdfrwt beam="1">  1        2 0.17846622E+00 0.44985787E+03</pdfrwt>
<pdfrwt beam="2">  1       -2 0.35855529E-01 0.44985787E+03</pdfrwt>
<totfact> 0.15232941E+02</totfact>
</mgrwt>
</event>
<event>
12    1  0.1444206E-007  0.5196069E+03  0.7818608E-02  0.1008784E+00
         -2   -1    0    0    0  501 -0.00000000000E+00  0.00000000000E+00  0.27065423233E+03  0.27065423233E+03  0.00000000000E+00 0.  1.
          2   -1    0    0  501    0  0.00000000000E+00 -0.00000000000E+00 -0.12429610795E+04  0.12429610795E+04  0.00000000000E+00 0. -1.
         23    2    1    2    0    0  0.19009419471E+03 -0.29318489109E+03 -0.66014411434E+03  0.75237169277E+03  0.90441855131E+02 0.  0.
    5000000    2    1    2    0    0 -0.19009419471E+03  0.29318489109E+03 -0.31216273279E+03  0.76124361902E+03  0.59996090916E+03 0.  0.
         23    2    4    4    0    0  0.18934156373E+03  0.20212889139E+03 -0.13903340857E+03  0.32286114724E+03  0.90568842374E+02 0.  0.
         23    2    4    4    0    0 -0.37943575844E+03  0.91055999704E+02 -0.17312932421E+03  0.43838247178E+03  0.99713282924E+02 0.  0.
          2    1    3    3  502    0  0.97787131794E+02 -0.86444326213E+02 -0.18948230572E+03  0.23008365622E+03  0.00000000000E+00 0. -1.
         -2    1    3    3    0  502  0.92307062916E+02 -0.20674056488E+03 -0.47066180863E+03  0.52228803656E+03  0.00000000000E+00 0.  1.
         13    1    5    5    0    0  0.11757614519E+03  0.78272614546E+02 -0.33907072065E+02  0.14525991065E+03  0.00000000000E+00 0.  1.
        -13    1    5    5    0    0  0.71765418540E+02  0.12385627684E+03 -0.10512633651E+03  0.17760123659E+03  0.00000000000E+00 0. -1.
          1    1    6    6  503    0 -0.85041135022E+02  0.55048131805E+02 -0.74775324167E+02  0.12591124082E+03  0.00000000000E+00 0. -1.
         -1    1    6    6    0  503 -0.29439462342E+03  0.36007867900E+02 -0.98354000048E+02  0.31247123095E+03  0.00000000000E+00 0.  1.
<mgrwt>
<rscale>  0 0.51960694E+03</rscale>
<asrwt>0</asrwt>
<pdfrwt beam="1">  1        2 0.19122478E+00 0.51960694E+03</pdfrwt>
<pdfrwt beam="2">  1       -2 0.41639113E-01 0.51960694E+03</pdfrwt>
<totfact> 0.10137190E+02</totfact>
</mgrwt>
</event>
<event>
12    1  0.1444206E-007  0.1180446E+04  0.7818608E-02  0.9130146E-01
         -2   -1    0    0    0  501 -0.00000000000E+00  0.00000000000E+00  0.10591696984E+04  0.10591696984E+04  0.00000000000E+00 0.  1.
          2   -1    0    0  501    0  0.00000000000E+00 -0.00000000000E+00 -0.14878838832E+04  0.14878838832E+04  0.00000000000E+00 0. -1.
         23    2    1    2    0    0  0.11320841704E+04  0.29805939821E+03 -0.37174370643E+02  0.11745671633E+04  0.88159590953E+02 0.  0.
    5000000    2    1    2    0    0 -0.11320841704E+04 -0.29805939821E+03 -0.39153981410E+03  0.13724864183E+04  0.59996797302E+03 0.  0.
         23    2    4    4    0    0 -0.89766674713E+03 -0.25154361495E+03 -0.39612289208E+02  0.93750021542E+03  0.90872115255E+02 0.  0.
         23    2    4    4    0    0 -0.23441742327E+03 -0.46515783264E+02 -0.35192752489E+03  0.43498620287E+03  0.90800702040E+02 0.  0.
          3    1    3    3  502    0  0.68950714473E+03  0.14145490428E+03 -0.41354702662E+02  0.70508141659E+03  0.00000000000E+00 0. -1.
         -3    1    3    3    0  502  0.44257702566E+03  0.15660449393E+03  0.41803320193E+01  0.46948574668E+03  0.00000000000E+00 0.  1.
         13    1    5    5    0    0 -0.75342608240E+03 -0.20973333356E+03 -0.66647040945E+02  0.78490812259E+03  0.00000000000E+00 0.  1.
        -13    1    5    5    0    0 -0.14424066473E+03 -0.41810281391E+02  0.27034751736E+02  0.15259209283E+03  0.00000000000E+00 0. -1.
          4    1    6    6  503    0 -0.47003131512E+02 -0.48967396556E+02 -0.10384645746E+03  0.12406122289E+03  0.00000000000E+00 0. -1.
         -4    1    6    6    0  503 -0.18741429175E+03  0.24516132917E+01 -0.24808106743E+03  0.31092497998E+03  0.00000000000E+00 0.  1.
<mgrwt>
<rscale>  0 0.11804461E+04</rscale>
<asrwt>0</asrwt>
<pdfrwt beam="1">  1        2 0.22890521E+00 0.11804461E+04</pdfrwt>
<pdfrwt beam="2">  1       -2 0.16294919E+00 0.11804461E+04</pdfrwt>
<totfact> 0.30068877E+00</totfact>
</mgrwt>
</event>
<event>
12    1  0.1444206E-007  0.7384321E+03  0.7818608E-02  0.9653675E-01
         -2   -1    0    0    0  501 -0.00000000000E+00  0.00000000000E+00  0.41354276345E+03  0.41354276345E+03  0.00000000000E+00 0.  1.
          2   -1    0    0  501    0  0.00000000000E+00 -0.00000000000E+00 -0.16392659846E+04  0.16392659846E+04  0.00000000000E+00 0. -1.
         23    2    1    2    0    0 -0.62984623021E+03 -0.12303576370E+02 -0.12314853717E+03  0.64828730310E+03  0.90847198342E+02 0.  0.
    5000000    2    1    2    0    0  0.62984623021E+03  0.12303576370E+02 -0.11025746839E+04  0.14045214449E+04  0.60012657320E+03 0.  0.
         23    2    4    4    0    0 -0.86504735827E+01 -0.15926064390E+03 -0.37349011809E+03  0.41610877561E+03  0.90624838994E+02 0.  0.
         23    2    4    4    0    0  0.63849670380E+03  0.17156422027E+03 -0.72908456585E+03  0.98841266930E+03  0.91010868821E+02 0.  0.
          2    1    3    3  502    0 -0.23574149215E+03 -0.47890937432E+02 -0.38340287049E+02  0.24359304305E+03  0.00000000000E+00 0.  1.
         -2    1    3    3    0  502 -0.39410473806E+03  0.35587361063E+02 -0.84808250123E+02  0.40469426005E+03  0.00000000000E+00 0. -1.
         13    1    5    5    0    0 -0.39321785588E+02 -0.42970327627E+02 -0.80215119094E+02  0.99131817342E+02  0.00000000000E+00 0.  1.
        -13    1    5    5    0    0  0.30671312005E+02 -0.11629031627E+03 -0.29327499899E+03  0.31697695827E+03  0.00000000000E+00 0. -1.
          3    1    6    6  503    0  0.94758637502E+02  0.12639168659E+02 -0.15339205073E+03  0.18074310275E+03  0.00000000000E+00 0. -1.
         -3    1    6    6    0  503  0.54373806629E+03  0.15892505161E+03 -0.57569251512E+03  0.80766956655E+03  0.00000000000E+00 0.  1.
<mgrwt>
<rscale>  0 0.73843205E+03</rscale>
<asrwt>0</asrwt>
<pdfrwt beam="1">  1        2 0.25219477E+00 0.73843205E+03</pdfrwt>
<pdfrwt beam="2">  1       -2 0.63621964E-01 0.73843205E+03</pdfrwt>
<totfact> 0.24905068E+01</totfact>
</mgrwt>
</event>
<event>
12    1  0.1444206E-007  0.6992065E+03  0.7818608E-02  0.9718590E-01
         -2   -1    0    0    0  501 -0.00000000000E+00  0.00000000000E+00  0.90135867652E+03  0.90135867652E+03  0.00000000000E+00 0. -1.
          2   -1    0    0  501    0  0.00000000000E+00 -0.00000000000E+00 -0.65890297081E+03  0.65890297081E+03  0.00000000000E+00 0.  1.
         23    2    1    2    0    0  0.60428069638E+03  0.11026182139E+03  0.31901727876E+03  0.69830281453E+03  0.92422764341E+02 0.  0.
    5000000    2    1    2    0    0 -0.60428069638E+03 -0.11026182139E+03 -0.76561573056E+02  0.86195883280E+03  0.59983208125E+03 0.  0.
         23    2    4    4    0    0 -0.32759438197E+03 -0.28923204959E+03  0.12879129227E+03  0.46396942548E+03  0.87790507528E+02 0.  0.
         23    2    4    4    0    0 -0.27668631441E+03  0.17897022820E+03 -0.20535286532E+03  0.39798940731E+03  0.87407722069E+02 0.  0.
          4    1    3    3  502    0  0.24960857924E+03  0.89277257918E+02  0.15374538487E+03  0.30645148879E+03  0.00000000000E+00 0. -1.
         -4    1    3    3    0  502  0.35467211714E+03  0.20984563473E+02  0.16527189388E+03  0.39185132574E+03  0.00000000000E+00 0.  1.
         11    1    5    5    0    0 -0.16579228357E+03 -0.90775500427E+02  0.42222673298E+02  0.19367505495E+03  0.00000000000E+00 0. -1.
        -11    1    5    5    0    0 -0.16180209840E+03 -0.19845654916E+03  0.86568618971E+02  0.27029437053E+03  0.00000000000E+00 0.  1.
          2    1    6    6  503    0 -0.12918301096E+03  0.55525564958E+02 -0.45190534200E+02  0.14769401838E+03  0.00000000000E+00 0. -1.
         -2    1    6    6    0  503 -0.14750330345E+03  0.12344466324E+03 -0.16016233112E+03  0.25029538893E+03  0.00000000000E+00 0.  1.
<mgrwt>
<rscale>  0 0.69920653E+03</rscale>
<asrwt>0</asrwt>
<pdfrwt beam="1">  1        2 0.10136969E+00 0.69920653E+03</pdfrwt>
<pdfrwt beam="2">  1       -2 0.13867057E+00 0.69920653E+03</pdfrwt>
<totfact> 0.16591512E+01</totfact>
</mgrwt>
</event>
<event>
12    1  0.1444206E-007  0.9737006E+03  0.7818608E-02  0.9337869E-01
          2   -1    0    0  501    0  0.00000000000E+00  0.00000000000E+00  0.23964050616E+04  0.23964050616E+04  0.00000000000E+00 0. -1.
         -2   -1    0    0    0  501 -0.00000000000E+00 -0.00000000000E+00 -0.53930500906E+03  0.53930500906E+03  0.00000000000E+00 0.  1.
         23    2    1    2    0    0 -0.61973699982E+03 -0.69936021791E+03  0.14989342554E+04  0.17688667841E+04  0.94377616818E+02 0.  0.
    5000000    2    1    2    0    0  0.61973699982E+03  0.69936021791E+03  0.35816579716E+03  0.11668432866E+04  0.60005154263E+03 0.  0.
         23    2    4    4    0    0  0.23201625599E+03  0.54436230768E+03 -0.15357734302E+02  0.59893325479E+03  0.91232223619E+02 0.  0.
         23    2    4    4    0    0  0.38772074383E+03  0.15499791023E+03  0.37352353146E+03  0.56791003178E+03  0.93006710843E+02 0.  0.
          3    1    3    3  502    0 -0.38584382973E+03 -0.43762489771E+03  0.84792814884E+03  0.10292585475E+04  0.00000000000E+00 0. -1.
         -3    1    3    3    0  502 -0.23389317009E+03 -0.26173532020E+03  0.65100610653E+03  0.73960823657E+03  0.00000000000E+00 0.  1.
         11    1    5    5    0    0  0.33180563304E+02  0.12469788871E+03 -0.36395773931E+02  0.13407149432E+03  0.00000000000E+00 0. -1.
        -11    1    5    5    0    0  0.19883569268E+03  0.41966441897E+03  0.21038039628E+02  0.46486176047E+03  0.00000000000E+00 0.  1.
          3    1    6    6  503    0  0.51511328693E+02  0.36174985541E+02  0.10140362774E+03  0.11935133967E+03  0.00000000000E+00 0. -1.
         -3    1    6    6    0  503  0.33620941514E+03  0.11882292469E+03  0.27211990372E+03  0.44855869210E+03  0.00000000000E+00 0.  1.
<mgrwt>
<rscale>  0 0.97370061E+03</rscale>
<asrwt>0</asrwt>
<pdfrwt beam="1">  1        2 0.36867770E+00 0.97370061E+03</pdfrwt>
<pdfrwt beam="2">  1       -2 0.82970003E-01 0.97370061E+03</pdfrwt>
<totfact> 0.51437890E+00</totfact>
</mgrwt>
</event>
<event>
12    1  0.1444206E-007  0.9637069E+03  0.7818608E-02  0.9349271E-01
          1   -1    0    0  501    0  0.00000000000E+00  0.00000000000E+00  0.25422167379E+04  0.25422167379E+04  0.00000000000E+00 0. -1.
         -1   -1    0    0    0  501 -0.00000000000E+00 -0.00000000000E+00 -0.41951633097E+03  0.41951633097E+03  0.00000000000E+00 0.  1.
         23    2    1    2    0    0  0.39233517030E+03  0.78132464244E+03  0.14816874674E+04  0.17227164410E+04  0.89213801387E+02 0.  0.
    5000000    2    1    2    0    0 -0.39233517030E+03 -0.78132464244E+03  0.64101293953E+03  0.12390166278E+04  0.59989126738E+03 0.  0.
         23    2    4    4    0    0  0.56100586638E+02 -0.52437663179E+03  0.32707795930E+03  0.62782144836E+03  0.95192708627E+02 0.  0.
         23    2    4    4    0    0 -0.44843575694E+03 -0.25694801066E+03  0.31393498023E+03  0.61119517948E+03  0.88811414390E+02 0.  0.
          2    1    3    3  502    0  0.16953101765E+03  0.42323949166E+03  0.81391188636E+03  0.93291210304E+03  0.00000000000E+00 0. -1.
         -2    1    3    3    0  502  0.22280415265E+03  0.35808515079E+03  0.66777558101E+03  0.78980433795E+03  0.00000000000E+00 0.  1.
         11    1    5    5    0    0  0.25480532833E+02 -0.45878682423E+03  0.30730333360E+03  0.55278381533E+03  0.00000000000E+00 0. -1.
        -11    1    5    5    0    0  0.30620053804E+02 -0.65589807555E+02  0.19774625700E+02  0.75037633036E+02  0.00000000000E+00 0.  1.
          1    1    6    6  503    0 -0.43484955034E+03 -0.25509450263E+03  0.28489094049E+03  0.57907701101E+03  0.00000000000E+00 0. -1.
         -1    1    6    6    0  503 -0.13586206599E+02 -0.18535080261E+01  0.29044039737E+02  0.32118168472E+02  0.00000000000E+00 0.  1.
<mgrwt>
<rscale>  0 0.96370695E+03</rscale>
<asrwt>0</asrwt>
<pdfrwt beam="1">  1        1 0.39111026E+00 0.96370695E+03</pdfrwt>
<pdfrwt beam="2">  1       -1 0.64540975E-01 0.96370695E+03</pdfrwt>
<totfact> 0.31590231E+00</totfact>
</mgrwt>
</event>
<event>
12    1  0.1444206E-007  0.1680278E+04  0.7818608E-02  0.8772693E-01
          2   -1    0    0  501    0  0.00000000000E+00  0.00000000000E+00  0.35227724420E+04  0.35227724420E+04  0.00000000000E+00 0. -1.
         -2   -1    0    0    0  501 -0.00000000000E+00 -0.00000000000E+00 -0.81642762810E+03  0.81642762810E+03  0.00000000000E+00 0.  1.
         23    2    1    2    0    0 -0.14080916355E+04 -0.83917239540E+03  0.14243444024E+04  0.21734371682E+04  0.90220753242E+02 0.  0.
    5000000    2    1    2    0    0  0.14080916355E+04  0.83917239540E+03  0.12820004115E+04  0.21657629019E+04  0.60005960454E+03 0.  0.
         23    2    4    4    0    0  0.13467292113E+04  0.62940845401E+03  0.98146285797E+03  0.17837283619E+04  0.92644248796E+02 0.  0.
         23    2    4    4    0    0  0.61362424173E+02  0.20976394139E+03  0.30053755355E+03  0.38203454002E+03  0.88664031406E+02 0.  0.
          2    1    3    3  502    0 -0.33043642078E+03 -0.24006959156E+03  0.37056609826E+03  0.55148968272E+03  0.00000000000E+00 0.  1.
         -2    1    3    3    0  502 -0.10776552147E+04 -0.59910280384E+03  0.10537783042E+04  0.16219474855E+04  0.00000000000E+00 0. -1.
         11    1    5    5    0    0  0.83509255423E+03  0.40572055972E+03  0.56137547822E+03  0.10849567615E+04  0.00000000000E+00 0. -1.
        -11    1    5    5    0    0  0.51163665711E+03  0.22368789429E+03  0.42008737976E+03  0.69877160044E+03  0.00000000000E+00 0.  1.
          1    1    6    6  503    0  0.12910396131E+02  0.16751135798E+03  0.24504624230E+03  0.29711007093E+03  0.00000000000E+00 0. -1.
         -1    1    6    6    0  503  0.48452028041E+02  0.42252583405E+02  0.55491311248E+02  0.84924469087E+02  0.00000000000E+00 0.  1.
<mgrwt>
<rscale>  0 0.16802777E+04</rscale>
<asrwt>0</asrwt>
<pdfrwt beam="1">  1        2 0.54196498E+00 0.16802777E+04</pdfrwt>
<pdfrwt beam="2">  1       -2 0.12560425E+00 0.16802777E+04</pdfrwt>
<totfact> 0.34807831E-01</totfact>
</mgrwt>
</event>
<event>
12    1  0.1444206E-007  0.5472820E+03  0.7818608E-02  0.1002125E+00
         -2   -1    0    0    0  501 -0.00000000000E+00  0.00000000000E+00  0.33047553659E+03  0.33047553659E+03  0.00000000000E+00 0.  1.
          2   -1    0    0  501    0  0.00000000000E+00 -0.00000000000E+00 -0.13087944342E+04  0.13087944342E+04  0.00000000000E+00 0. -1.
         23    2    1    2    0    0  0.33527343278E+03 -0.36906946941E+03 -0.22513428887E+03  0.55478436335E+03  0.92085252968E+02 0.  0.
    5000000    2    1    2    0    0 -0.33527343278E+03  0.36906946941E+03 -0.75318460872E+03  0.10844856074E+04  0.60016783479E+03 0.  0.
         23    2    4    4    0    0 -0.37384320324E+03  0.33531304306E+03 -0.24584886440E+03  0.56649028479E+03  0.90972529836E+02 0.  0.
         23    2    4    4    0    0  0.38569770453E+02  0.33756426350E+02 -0.50733574432E+03  0.51799532263E+03  0.91117908721E+02 0.  0.
          2    1    3    3  502    0  0.22610654206E+03 -0.18630713522E+03 -0.14907290020E+03  0.32872062085E+03  0.00000000000E+00 0. -1.
         -2    1    3    3    0  502  0.10916689072E+03 -0.18276233419E+03 -0.76061388667E+02  0.22606374250E+03  0.00000000000E+00 0.  1.
         11    1    5    5    0    0 -0.11819892749E+03  0.10790407709E+03 -0.32624687485E+02  0.16333599281E+03  0.00000000000E+00 0. -1.
        -11    1    5    5    0    0 -0.25564427574E+03  0.22740896596E+03 -0.21322417691E+03  0.40315429198E+03  0.00000000000E+00 0.  1.
          2    1    6    6  503    0  0.32238554255E+02 -0.16249415169E+02 -0.80887348591E+02  0.88578389214E+02  0.00000000000E+00 0. -1.
         -2    1    6    6    0  503  0.63312161978E+01  0.50005841519E+02 -0.42644839573E+03  0.42941693341E+03  0.00000000000E+00 0.  1.
<mgrwt>
<rscale>  0 0.54728204E+03</rscale>
<asrwt>0</asrwt>
<pdfrwt beam="1">  1        2 0.20135299E+00 0.54728204E+03</pdfrwt>
<pdfrwt beam="2">  1       -2 0.50842390E-01 0.54728204E+03</pdfrwt>
<totfact> 0.62217877E+01</totfact>
</mgrwt>
</event>
<event>
12    1  0.1444206E-007  0.1513263E+04  0.7818608E-02  0.8875681E-01
          2   -1    0    0  501    0  0.00000000000E+00  0.00000000000E+00  0.28054035690E+04  0.28054035690E+04  0.00000000000E+00 0. -1.
         -2   -1    0    0    0  501 -0.00000000000E+00 -0.00000000000E+00 -0.15486279823E+04  0.15486279823E+04  0.00000000000E+00 0.  1.
         23    2    1    2    0    0  0.14367249325E+04  0.31864873349E+03 -0.86075291763E+03  0.17064303914E+04  0.72756777307E+02 0.  0.
    5000000    2    1    2    0    0 -0.14367249325E+04 -0.31864873349E+03  0.21175285043E+04  0.26476011599E+04  0.60012447758E+03 0.  0.
         23    2    4    4    0    0 -0.12771308728E+04 -0.11832083873E+03  0.19223065109E+04  0.23127802412E+04  0.92881834428E+02 0.  0.
         23    2    4    4    0    0 -0.15959405972E+03 -0.20032789476E+03  0.19522199338E+03  0.33482091873E+03  0.91607268278E+02 0.  0.
          3    1    3    3  502    0  0.89693213648E+03  0.19988619269E+03 -0.49642457679E+03  0.10444515824E+04  0.00000000000E+00 0. -1.
         -3    1    3    3    0  502  0.53979279600E+03  0.11876254080E+03 -0.36432834084E+03  0.66197880906E+03  0.00000000000E+00 0.  1.
         11    1    5    5    0    0 -0.72221894051E+03 -0.83066115712E+02  0.10110703548E+04  0.12452965270E+04  0.00000000000E+00 0. -1.
        -11    1    5    5    0    0 -0.55491193224E+03 -0.35254723022E+02  0.91123615608E+03  0.10674837142E+04  0.00000000000E+00 0.  1.
          1    1    6    6  503    0 -0.11419347030E+03 -0.70176480267E+02  0.10164290971E+03  0.16821464900E+03  0.00000000000E+00 0. -1.
         -1    1    6    6    0  503 -0.45400589423E+02 -0.13015141449E+03  0.93579083670E+02  0.16660626973E+03  0.00000000000E+00 0.  1.
<mgrwt>
<rscale>  0 0.15132625E+04</rscale>
<asrwt>0</asrwt>
<pdfrwt beam="1">  1        2 0.43160055E+00 0.15132625E+04</pdfrwt>
<pdfrwt beam="2">  1       -2 0.23825046E+00 0.15132625E+04</pdfrwt>
<totfact> 0.16347633E-01</totfact>
</mgrwt>
</event>
<event>
12    1  0.1444206E-007  0.4160222E+03  0.7818608E-02  0.1038369E+00
          1   -1    0    0  501    0  0.00000000000E+00  0.00000000000E+00  0.57011289938E+03  0.57011289938E+03  0.00000000000E+00 0. -1.
         -1   -1    0    0    0  501 -0.00000000000E+00 -0.00000000000E+00 -0.38379228032E+03  0.38379228032E+03  0.00000000000E+00 0.  1.
         23    2    1    2    0    0  0.12618931383E+03 -0.23094031242E+03  0.33324286425E+02  0.28040767076E+03  0.90888849295E+02 0.  0.
    5000000    2    1    2    0    0 -0.12618931383E+03  0.23094031242E+03  0.15299633263E+03  0.67349750894E+03  0.60077770092E+03 0.  0.
         23    2    4    4    0    0  0.23253831083E+01 -0.14776119856E+03  0.19461771628E+03  0.26110523295E+03  0.91984281160E+02 0.  0.
         23    2    4    4    0    0 -0.12851469694E+03  0.37870151099E+03 -0.41621383647E+02  0.41239227599E+03  0.91674358284E+02 0.  0.
          2    1    3    3  502    0  0.30812469511E+02 -0.10351682101E+03  0.52504757889E+02  0.12009117416E+03  0.00000000000E+00 0. -1.
         -2    1    3    3    0  502  0.95376844321E+02 -0.12742349141E+03 -0.19180471464E+02  0.16031649660E+03  0.00000000000E+00 0.  1.
         13    1    5    5    0    0  0.10120604651E+02 -0.10727503437E+01 -0.64835913811E+01  0.12067078727E+02  0.00000000000E+00 0. -1.
        -13    1    5    5    0    0 -0.77952215426E+01 -0.14668844822E+03  0.20110130766E+03  0.24903815423E+03  0.00000000000E+00 0.  1.
          2    1    6    6  503    0 -0.17131000614E+02  0.49881167803E+01 -0.11594917301E+02  0.21278970799E+02  0.00000000000E+00 0. -1.
         -2    1    6    6    0  503 -0.11138369633E+03  0.37371339420E+03 -0.30026466346E+02  0.39111330519E+03  0.00000000000E+00 0.  1.
<mgrwt>
<rscale>  0 0.41602221E+03</rscale>
<asrwt>0</asrwt>
<pdfrwt beam="1">  1        1 0.87709677E-01 0.41602221E+03</pdfrwt>
<pdfrwt beam="2">  1       -1 0.59044966E-01 0.41602221E+03</pdfrwt>
<totfact> 0.11226460E+02</totfact>
</mgrwt>
</event>
<event>
12    1  0.1444206E-007  0.6925595E+03  0.7818608E-02  0.9730042E-01
         -1   -1    0    0    0  501 -0.00000000000E+00  0.00000000000E+00  0.35570452822E+03  0.35570452822E+03  0.00000000000E+00 0.  1.
          1   -1    0    0  501    0  0.00000000000E+00 -0.00000000000E+00 -0.30673973383E+04  0.30673973383E+04  0.00000000000E+00 0. -1.
         23    2    1    2    0    0  0.72555951563E+02  0.62500197866E+03 -0.24261049826E+04  0.25081026670E+04  0.93283235623E+02 0.  0.
    5000000    2    1    2    0    0 -0.72555951563E+02 -0.62500197866E+03 -0.28558782750E+03  0.91499919957E+03  0.59980937685E+03 0.  0.
         23    2    4    4    0    0  0.69333936504E+02 -0.18767560760E+01 -0.23859171475E+03  0.26768562938E+03  0.99593538279E+02 0.  0.
         23    2    4    4    0    0 -0.14188988807E+03 -0.62312522259E+03 -0.46996112757E+02  0.64731357019E+03  0.91588428182E+02 0.  0.
          1    1    3    3  502    0 -0.74099039296E+00  0.38291136073E+03 -0.14932112299E+04  0.15415256846E+04  0.00000000000E+00 0. -1.
         -1    1    3    3    0  502  0.73296941956E+02  0.24209061793E+03 -0.93289375269E+03  0.96657698234E+03  0.00000000000E+00 0.  1.
         13    1    5    5    0    0  0.67345747826E+02  0.28564694368E+02 -0.89928405755E+02  0.11592458616E+03  0.00000000000E+00 0. -1.
        -13    1    5    5    0    0  0.19881886777E+01 -0.30441450444E+02 -0.14866330899E+03  0.15176104322E+03  0.00000000000E+00 0.  1.
          1    1    6    6  503    0 -0.10722515255E+03 -0.26596834967E+03 -0.20239554852E+02  0.28748223587E+03  0.00000000000E+00 0. -1.
         -1    1    6    6    0  503 -0.34664735519E+02 -0.35715687292E+03 -0.26756557905E+02  0.35983133431E+03  0.00000000000E+00 0.  1.
<mgrwt>
<rscale>  0 0.69255947E+03</rscale>
<asrwt>0</asrwt>
<pdfrwt beam="1">  1        1 0.47190728E+00 0.69255947E+03</pdfrwt>
<pdfrwt beam="2">  1       -1 0.54723774E-01 0.69255947E+03</pdfrwt>
<totfact> 0.19616204E+00</totfact>
</mgrwt>
</event>
<event>
12    1  0.1444206E-007  0.3863664E+03  0.7818608E-02  0.1048605E+00
          1   -1    0    0  501    0  0.00000000000E+00  0.00000000000E+00  0.10612564140E+03  0.10612564140E+03  0.00000000000E+00 0. -1.
         -1   -1    0    0    0  501 -0.00000000000E+00 -0.00000000000E+00 -0.15517940488E+04  0.15517940488E+04  0.00000000000E+00 0.  1.
         23    2    1    2    0    0  0.15320412082E+03 -0.53589484073E+02 -0.28024746355E+03  0.33711115149E+03  0.93605300043E+02 0.  0.
    5000000    2    1    2    0    0 -0.15320412082E+03  0.53589484073E+02 -0.11654209438E+04  0.13208085387E+04  0.59998823666E+03 0.  0.
         23    2    4    4    0    0  0.53264253127E+02  0.28142858265E+03 -0.58565346666E+03  0.65833162927E+03  0.91495482367E+02 0.  0.
         23    2    4    4    0    0 -0.20646837394E+03 -0.22783909858E+03 -0.57976747717E+03  0.66247690942E+03  0.90584124729E+02 0.  0.
          1    1    3    3  502    0  0.91759490150E+02 -0.11537460293E+02 -0.22830902651E+03  0.24632890332E+03  0.00000000000E+00 0. -1.
         -1    1    3    3    0  502  0.61444630668E+02 -0.42052023780E+02 -0.51938437038E+02  0.90782248176E+02  0.00000000000E+00 0.  1.
         11    1    5    5    0    0  0.11978626407E+02  0.20386886253E+03 -0.47497250245E+03  0.51701535634E+03  0.00000000000E+00 0.  1.
        -11    1    5    5    0    0  0.41285626720E+02  0.77559720119E+02 -0.11068096421E+03  0.14131627294E+03  0.00000000000E+00 0. -1.
          2    1    6    6  503    0 -0.82600992946E+02 -0.13748388469E+03 -0.22814646575E+03  0.27888268576E+03  0.00000000000E+00 0. -1.
         -2    1    6    6    0  503 -0.12386738100E+03 -0.90355213893E+02 -0.35162101142E+03  0.38359422366E+03  0.00000000000E+00 0.  1.
<mgrwt>
<rscale>  0 0.38636638E+03</rscale>
<asrwt>0</asrwt>
<pdfrwt beam="1">  1        1 0.16327022E-01 0.38636638E+03</pdfrwt>
<pdfrwt beam="2">  1       -1 0.23873754E+00 0.38636638E+03</pdfrwt>
<totfact> 0.30572639E+01</totfact>
</mgrwt>
</event>
<event>
12    1  0.1444206E-007  0.1229523E+04  0.7818608E-02  0.9087400E-01
          1   -1    0    0  501    0  0.00000000000E+00  0.00000000000E+00  0.17851729433E+04  0.17851729433E+04  0.00000000000E+00 0. -1.
         -1   -1    0    0    0  501 -0.00000000000E+00 -0.00000000000E+00 -0.87519673558E+03  0.87519673558E+03  0.00000000000E+00 0.  1.
         23    2    1    2    0    0 -0.89778218249E+03 -0.73656065282E+03  0.62793672770E+03  0.13233384690E+04  0.91573615721E+02 0.  0.
    5000000    2    1    2    0    0  0.89778218249E+03  0.73656065282E+03  0.28203947997E+03  0.13370312098E+04  0.59964301487E+03 0.  0.
         23    2    4    4    0    0 -0.60469858830E+02  0.39325034964E+02 -0.73582965292E+00  0.11518362739E+03  0.89797908508E+02 0.  0.
         23    2    4    4    0    0  0.95825204132E+03  0.69723561786E+03  0.28277530962E+03  0.12218475824E+04  0.92548135809E+02 0.  0.
          1    1    3    3  502    0 -0.50450896031E+03 -0.35831319746E+03  0.31605645586E+03  0.69484481850E+03  0.00000000000E+00 0. -1.
         -1    1    3    3    0  502 -0.39327322218E+03 -0.37824745536E+03  0.31188027184E+03  0.62849365051E+03  0.00000000000E+00 0.  1.
         11    1    5    5    0    0 -0.32366641455E+02  0.63456315981E+02 -0.19226162984E+02  0.73783120428E+02  0.00000000000E+00 0. -1.
        -11    1    5    5    0    0 -0.28103217375E+02 -0.24131281017E+02  0.18490333331E+02  0.41400506966E+02  0.00000000000E+00 0.  1.
          3    1    6    6  503    0  0.39812586899E+03  0.32301430950E+03  0.16040328184E+03  0.53718866753E+03  0.00000000000E+00 0. -1.
         -3    1    6    6    0  503  0.56012617233E+03  0.37422130836E+03  0.12237202779E+03  0.68465891489E+03  0.00000000000E+00 0.  1.
<mgrwt>
<rscale>  0 0.12295231E+04</rscale>
<asrwt>0</asrwt>
<pdfrwt beam="1">  1        1 0.27464199E+00 0.12295231E+04</pdfrwt>
<pdfrwt beam="2">  1       -1 0.13464565E+00 0.12295231E+04</pdfrwt>
<totfact> 0.18935484E+00</totfact>
</mgrwt>
</event>
<event>
12    1  0.1444206E-007  0.7423070E+03  0.7818608E-02  0.9647497E-01
          1   -1    0    0  501    0  0.00000000000E+00  0.00000000000E+00  0.13955157929E+04  0.13955157929E+04  0.00000000000E+00 0. -1.
         -1   -1    0    0    0  501 -0.00000000000E+00 -0.00000000000E+00 -0.49049025112E+03  0.49049025112E+03  0.00000000000E+00 0.  1.
         23    2    1    2    0    0 -0.63878406601E+02  0.62951072273E+03  0.77471519580E+03  0.10043550307E+04  0.90449943230E+02 0.  0.
    5000000    2    1    2    0    0  0.63878406601E+02 -0.62951072273E+03  0.13031034598E+03  0.88165101332E+03  0.59996960104E+03 0.  0.
         23    2    4    4    0    0 -0.85832141366E+02  0.62541959656E+02  0.91490456730E+02  0.16667428926E+03  0.90172955031E+02 0.  0.
         23    2    4    4    0    0  0.14971054797E+03 -0.69205268238E+03  0.38819889246E+02  0.71497672406E+03  0.91293859514E+02 0.  0.
          1    1    3    3  502    0 -0.62044031373E+02  0.61252087685E+03  0.77138009097E+03  0.98694403648E+03  0.00000000000E+00 0. -1.
         -1    1    3    3    0  502 -0.18343752277E+01  0.16989845874E+02  0.33351048305E+01  0.17410994215E+02  0.00000000000E+00 0.  1.
         13    1    5    5    0    0 -0.10725619722E+02  0.62255149693E+02  0.31730719134E+02  0.70693571974E+02  0.00000000000E+00 0. -1.
        -13    1    5    5    0    0 -0.75106521644E+02  0.28680996326E+00  0.59759737596E+02  0.95980717287E+02  0.00000000000E+00 0.  1.
          2    1    6    6  503    0  0.28708294526E+02 -0.34223351544E+03  0.78033809445E+01  0.34352414474E+03  0.00000000000E+00 0. -1.
         -2    1    6    6    0  503  0.12100225344E+03 -0.34981916694E+03  0.31016508302E+02  0.37145257932E+03  0.00000000000E+00 0.  1.
<mgrwt>
<rscale>  0 0.74230701E+03</rscale>
<asrwt>0</asrwt>
<pdfrwt beam="1">  1        1 0.21469474E+00 0.74230701E+03</pdfrwt>
<pdfrwt beam="2">  1       -1 0.75460039E-01 0.74230701E+03</pdfrwt>
<totfact> 0.14156748E+01</totfact>
</mgrwt>
</event>
<event>
12    1  0.1444206E-007  0.1446840E+04  0.7818608E-02  0.8920594E-01
          2   -1    0    0  501    0  0.00000000000E+00  0.00000000000E+00  0.11191836373E+04  0.11191836373E+04  0.00000000000E+00 0. -1.
         -2   -1    0    0    0  501 -0.00000000000E+00 -0.00000000000E+00 -0.21134119794E+04  0.21134119794E+04  0.00000000000E+00 0.  1.
         23    2    1    2    0    0  0.37223809237E+03  0.13394267121E+04  0.48947954317E+02  0.13939553280E+04  0.89946870502E+02 0.  0.
    5000000    2    1    2    0    0 -0.37223809237E+03 -0.13394267121E+04 -0.10431762965E+04  0.18386402887E+04  0.59979680827E+03 0.  0.
         23    2    4    4    0    0  0.10072418173E+03 -0.69721044348E+03 -0.47703362620E+03  0.85617208240E+03  0.96030156037E+02 0.  0.
         23    2    4    4    0    0 -0.47296227410E+03 -0.64221626867E+03 -0.56614267026E+03  0.98246820633E+03  0.92688752814E+02 0.  0.
          1    1    3    3  502    0  0.11352686740E+03  0.37115642375E+03  0.52838918706E+02  0.39171085234E+03  0.00000000000E+00 0. -1.
         -1    1    3    3    0  502  0.25871122497E+03  0.96827028840E+03 -0.38909643886E+01  0.10022444756E+04  0.00000000000E+00 0.  1.
         13    1    5    5    0    0  0.10194376230E+02 -0.85510889751E+02 -0.99832502414E+02  0.13184296004E+03  0.00000000000E+00 0. -1.
        -13    1    5    5    0    0  0.90529805498E+02 -0.61169955373E+03 -0.37720112379E+03  0.72432912236E+03  0.00000000000E+00 0.  1.
          2    1    6    6  503    0 -0.25060881613E+03 -0.37765443462E+03 -0.37004777510E+03  0.58511794244E+03  0.00000000000E+00 0. -1.
         -2    1    6    6    0  503 -0.22235345797E+03 -0.26456183405E+03 -0.19609489517E+03  0.39735026389E+03  0.00000000000E+00 0.  1.
<mgrwt>
<rscale>  0 0.14468400E+04</rscale>
<asrwt>0</asrwt>
<pdfrwt beam="1">  1        2 0.17218210E+00 0.14468400E+04</pdfrwt>
<pdfrwt beam="2">  1       -2 0.32514030E+00 0.14468400E+04</pdfrwt>
<totfact> 0.44901170E-01</totfact>
</mgrwt>
</event>
<event>
12    1  0.1444206E-007  0.1567377E+04  0.7818608E-02  0.8840844E-01
         -2   -1    0    0    0  501 -0.00000000000E+00  0.00000000000E+00  0.16954136930E+04  0.16954136930E+04  0.00000000000E+00 0.  1.
          2   -1    0    0  501    0  0.00000000000E+00 -0.00000000000E+00 -0.15110118595E+04  0.15110118595E+04  0.00000000000E+00 0. -1.
         23    2    1    2    0    0 -0.26729389570E+03  0.14904866509E+04 -0.20693729276E+03  0.15312735507E+04  0.94758434675E+02 0.  0.
    5000000    2    1    2    0    0  0.26729389570E+03 -0.14904866509E+04  0.39133912624E+03  0.16751520018E+04  0.59999286192E+03 0.  0.
         23    2    4    4    0    0  0.36281898275E+03 -0.47356104695E+03  0.15383187292E+03  0.62282751154E+03  0.91390287118E+02 0.  0.
         23    2    4    4    0    0 -0.95525087047E+02 -0.10169256039E+04  0.23750725332E+03  0.10523244903E+04  0.87831721349E+02 0.  0.
          2    1    3    3  502    0 -0.13682550044E+03  0.55693864881E+03 -0.49965405115E+02  0.57567214438E+03  0.00000000000E+00 0.  1.
         -2    1    3    3    0  502 -0.13046839527E+03  0.93354800206E+03 -0.15697188764E+03  0.95560140635E+03  0.00000000000E+00 0. -1.
         13    1    5    5    0    0  0.23833607991E+03 -0.33228779520E+03  0.62921643476E+02  0.41373711344E+03  0.00000000000E+00 0.  1.
        -13    1    5    5    0    0  0.12448290284E+03 -0.14127325175E+03  0.90910229444E+02  0.20909039810E+03  0.00000000000E+00 0. -1.
          3    1    6    6  503    0 -0.21638965624E+02 -0.25561042028E+03  0.21010380973E+02  0.25738369781E+03  0.00000000000E+00 0. -1.
         -3    1    6    6    0  503 -0.73886121424E+02 -0.76131518364E+03  0.21649687235E+03  0.79494079246E+03  0.00000000000E+00 0.  1.
<mgrwt>
<rscale>  0 0.15673772E+04</rscale>
<asrwt>0</asrwt>
<pdfrwt beam="1">  1        2 0.23246336E+00 0.15673772E+04</pdfrwt>
<pdfrwt beam="2">  1       -2 0.26083288E+00 0.15673772E+04</pdfrwt>
<totfact> 0.64459426E-01</totfact>
</mgrwt>
</event>
<event>
12    1  0.1444206E-007  0.4198016E+03  0.7818608E-02  0.1037131E+00
          1   -1    0    0  501    0  0.00000000000E+00  0.00000000000E+00  0.75208681992E+03  0.75208681992E+03  0.00000000000E+00 0. -1.
         -1   -1    0    0    0  501 -0.00000000000E+00 -0.00000000000E+00 -0.29996481266E+03  0.29996481266E+03  0.00000000000E+00 0.  1.
         23    2    1    2    0    0  0.19651955629E+03  0.16892275878E+02  0.35057185461E+03  0.41256392346E+03  0.91668318985E+02 0.  0.
    5000000    2    1    2    0    0 -0.19651955629E+03 -0.16892275878E+02  0.10155015265E+03  0.63948770912E+03  0.59977229981E+03 0.  0.
         23    2    4    4    0    0 -0.39719980192E+03  0.16046575319E+02  0.96859686355E+02  0.41685162204E+03  0.79738953679E+02 0.  0.
         23    2    4    4    0    0  0.20068024563E+03 -0.32938851197E+02  0.46904662955E+01  0.22263608707E+03  0.90483688529E+02 0.  0.
          3    1    3    3  502    0  0.56815143957E+02  0.47586735460E+02  0.13103767401E+03  0.15054344883E+03  0.00000000000E+00 0. -1.
         -3    1    3    3    0  502  0.13970441233E+03 -0.30694459582E+02  0.21953418060E+03  0.26202047463E+03  0.00000000000E+00 0.  1.
         13    1    5    5    0    0 -0.14991801583E+03 -0.18080891990E+02  0.67845050811E+02  0.16554540478E+03  0.00000000000E+00 0. -1.
        -13    1    5    5    0    0 -0.24728178609E+03  0.34127467309E+02  0.29014635544E+02  0.25130621726E+03  0.00000000000E+00 0.  1.
          4    1    6    6  503    0  0.21812362916E+02 -0.36955285917E+02  0.81994481080E+01  0.43688708867E+02  0.00000000000E+00 0. -1.
         -4    1    6    6    0  503  0.17886788271E+03  0.40164347195E+01 -0.35089818125E+01  0.17894737821E+03  0.00000000000E+00 0.  1.
<mgrwt>
<rscale>  0 0.41980157E+03</rscale>
<asrwt>0</asrwt>
<pdfrwt beam="1">  1        1 0.11570566E+00 0.41980157E+03</pdfrwt>
<pdfrwt beam="2">  1       -1 0.46148433E-01 0.41980157E+03</pdfrwt>
<totfact> 0.11947367E+02</totfact>
</mgrwt>
</event>
<event>
12    1  0.1444206E-007  0.4861112E+03  0.7818608E-02  0.1017469E+00
          4   -1    0    0  501    0  0.00000000000E+00  0.00000000000E+00  0.15253134365E+03  0.15253134365E+03  0.00000000000E+00 0. -1.
         -4   -1    0    0    0  501 -0.00000000000E+00 -0.00000000000E+00 -0.23255555650E+04  0.23255555650E+04  0.00000000000E+00 0.  1.
         23    2    1    2    0    0 -0.24126062264E+03 -0.36632504607E+03 -0.83442225612E+03  0.94705664269E+03  0.90857336221E+02 0.  0.
    5000000    2    1    2    0    0  0.24126062264E+03  0.36632504607E+03 -0.13386019652E+04  0.15310302659E+04  0.59983141508E+03 0.  0.
         23    2    4    4    0    0  0.28501737123E+03  0.23016707715E+03 -0.13058378030E+04  0.13589788330E+04  0.86019274983E+02 0.  0.
         23    2    4    4    0    0 -0.43756748596E+02  0.13615796892E+03 -0.32764162231E+02  0.17205143289E+03  0.89858553760E+02 0.  0.
          3    1    3    3  502    0 -0.11379185319E+03 -0.96314612975E+02 -0.26230303851E+03  0.30170842636E+03  0.00000000000E+00 0. -1.
         -3    1    3    3    0  502 -0.12746876945E+03 -0.27001043309E+03 -0.57211921761E+03  0.64534821633E+03  0.00000000000E+00 0.  1.
         11    1    5    5    0    0  0.10016393535E+03  0.31838936922E+02 -0.35144392016E+03  0.36682333740E+03  0.00000000000E+00 0.  1.
        -11    1    5    5    0    0  0.18485343589E+03  0.19832814023E+03 -0.95439388281E+03  0.99215549563E+03  0.00000000000E+00 0. -1.
          1    1    6    6  503    0 -0.43509764145E+02  0.71648154935E+02 -0.58898940860E+02  0.10244824506E+03  0.00000000000E+00 0. -1.
         -1    1    6    6    0  503 -0.24698445067E+00  0.64509813984E+02  0.26134778629E+02  0.69603187826E+02  0.00000000000E+00 0.  1.
<mgrwt>
<rscale>  0 0.48611123E+03</rscale>
<asrwt>0</asrwt>
<pdfrwt beam="1">  1        4 0.23466360E-01 0.48611123E+03</pdfrwt>
<pdfrwt beam="2">  1       -4 0.35777779E+00 0.48611123E+03</pdfrwt>
<totfact> 0.47881548E-01</totfact>
</mgrwt>
</event>
<event>
12    1  0.1444206E-007  0.3968721E+03  0.7818608E-02  0.1044868E+00
         -2   -1    0    0    0  501 -0.00000000000E+00  0.00000000000E+00  0.19379532735E+03  0.19379532735E+03  0.00000000000E+00 0.  1.
          2   -1    0    0  501    0  0.00000000000E+00 -0.00000000000E+00 -0.10902989116E+04  0.10902989116E+04  0.00000000000E+00 0. -1.
         23    2    1    2    0    0  0.19219371762E+03 -0.89905817074E+02 -0.70624123950E+02  0.24143649112E+03  0.91007314661E+02 0.  0.
    5000000    2    1    2    0    0 -0.19219371762E+03  0.89905817074E+02 -0.82587946034E+03  0.10426577479E+04  0.60003067852E+03 0.  0.
         23    2    4    4    0    0 -0.15879637480E+03 -0.19898380596E+03 -0.61639605802E+03  0.67307506033E+03  0.90967537129E+02 0.  0.
         23    2    4    4    0    0 -0.33397342824E+02  0.28888962304E+03 -0.20948340232E+03  0.36958268755E+03  0.90196841860E+02 0.  0.
          1    1    3    3  502    0  0.49547353914E+02 -0.65112292797E+02 -0.36237774901E+01  0.81900443933E+02  0.00000000000E+00 0.  1.
         -1    1    3    3    0  502  0.14264636371E+03 -0.24793524278E+02 -0.67000346460E+02  0.15953604718E+03  0.00000000000E+00 0. -1.
         13    1    5    5    0    0 -0.16455224320E+03 -0.19745448678E+03 -0.61555106893E+03  0.66705984256E+03  0.00000000000E+00 0.  1.
        -13    1    5    5    0    0  0.57558684029E+01 -0.15293191807E+01 -0.84498908422E+00  0.60152177667E+01  0.00000000000E+00 0. -1.
          2    1    6    6  503    0 -0.19379346194E+02  0.51321901577E+01 -0.18280829307E+02  0.27130926170E+02  0.00000000000E+00 0. -1.
         -2    1    6    6    0  503 -0.14017996630E+02  0.28375743288E+03 -0.19120257301E+03  0.34245176138E+03  0.00000000000E+00 0.  1.
<mgrwt>
<rscale>  0 0.39687212E+03</rscale>
<asrwt>0</asrwt>
<pdfrwt beam="1">  1        2 0.16773829E+00 0.39687212E+03</pdfrwt>
<pdfrwt beam="2">  1       -2 0.29814666E-01 0.39687212E+03</pdfrwt>
<totfact> 0.23780206E+02</totfact>
</mgrwt>
</event>
<event>
12    1  0.1444206E-007  0.2001992E+04  0.7818608E-02  0.8605690E-01
         -1   -1    0    0    0  501 -0.00000000000E+00  0.00000000000E+00  0.11773930491E+04  0.11773930491E+04  0.00000000000E+00 0. -1.
          1   -1    0    0  501    0  0.00000000000E+00 -0.00000000000E+00 -0.34475767661E+04  0.34475767661E+04  0.00000000000E+00 0.  1.
         23    2    1    2    0    0  0.10363640142E+04  0.16705177190E+04 -0.12368498412E+04  0.23244569145E+04  0.92857945185E+02 0.  0.
    5000000    2    1    2    0    0 -0.10363640142E+04 -0.16705177190E+04 -0.10333338759E+04  0.23005129008E+04  0.59991740110E+03 0.  0.
         23    2    4    4    0    0 -0.50700713326E+02 -0.51174224602E+03 -0.35569279785E+03  0.63218147345E+03  0.93195280121E+02 0.  0.
         23    2    4    4    0    0 -0.98566330090E+03 -0.11587754730E+04 -0.67764107801E+03  0.16683314273E+04  0.99194663475E+02 0.  0.
          1    1    3    3  502    0  0.56111884861E+03  0.99134386307E+03 -0.71839801248E+03  0.13467415199E+04  0.00000000000E+00 0. -1.
         -1    1    3    3    0  502  0.47524516561E+03  0.67917385593E+03 -0.51845182874E+03  0.97771539455E+03  0.00000000000E+00 0.  1.
         13    1    5    5    0    0 -0.95190555819E+01 -0.55984065040E+02 -0.79429705925E+02  0.97641723361E+02  0.00000000000E+00 0. -1.
        -13    1    5    5    0    0 -0.41181657744E+02 -0.45575818098E+03 -0.27626309193E+03  0.53453975009E+03  0.00000000000E+00 0.  1.
          2    1    6    6  503    0 -0.66042562576E+03 -0.79571723077E+03 -0.50885682521E+03  0.11525030096E+04  0.00000000000E+00 0. -1.
         -2    1    6    6    0  503 -0.32523767513E+03 -0.36305824221E+03 -0.16878425280E+03  0.51582841775E+03  0.00000000000E+00 0.  1.
<mgrwt>
<rscale>  0 0.20019923E+04</rscale>
<asrwt>0</asrwt>
<pdfrwt beam="1">  1        1 0.53039642E+00 0.20019923E+04</pdfrwt>
<pdfrwt beam="2">  1       -1 0.18113739E+00 0.20019923E+04</pdfrwt>
<totfact> 0.50334114E-02</totfact>
</mgrwt>
</event>
<event>
12    1  0.1444206E-007  0.8998265E+03  0.7818608E-02  0.9425798E-01
          1   -1    0    0  501    0  0.00000000000E+00  0.00000000000E+00  0.17762725672E+04  0.17762725672E+04  0.00000000000E+00 0. -1.
         -1   -1    0    0    0  501 -0.00000000000E+00 -0.00000000000E+00 -0.60733392634E+03  0.60733392634E+03  0.00000000000E+00 0.  1.
         23    2    1    2    0    0  0.78484549560E+03  0.26759461843E+03  0.10694216267E+04  0.13561495332E+04  0.88823469987E+02 0.  0.
    5000000    2    1    2    0    0 -0.78484549560E+03 -0.26759461843E+03  0.99517014103E+02  0.10274569603E+04  0.59847709854E+03 0.  0.
         23    2    4    4    0    0 -0.52701164894E+03 -0.41092085970E+03 -0.65629614544E+02  0.67773321034E+03  0.91748716839E+02 0.  0.
         23    2    4    4    0    0 -0.25783384667E+03  0.14332624126E+03  0.16514662865E+03  0.34972375001E+03  0.89513062978E+02 0.  0.
          4    1    3    3  502    0  0.18519861497E+03  0.10251170153E+03  0.25536962859E+03  0.33169386962E+03  0.00000000000E+00 0. -1.
         -4    1    3    3    0  502  0.59964688063E+03  0.16508291690E+03  0.81405199813E+03  0.10244556635E+04  0.00000000000E+00 0.  1.
         13    1    5    5    0    0 -0.14592358990E+02 -0.24083132859E+02 -0.19064195856E+02  0.34005555323E+02  0.00000000000E+00 0.  1.
        -13    1    5    5    0    0 -0.51241928995E+03 -0.38683772684E+03 -0.46565418688E+02  0.64372765501E+03  0.00000000000E+00 0. -1.
          1    1    6    6  503    0 -0.20353047143E+03  0.12316120145E+03  0.88884360090E+02  0.25395622421E+03  0.00000000000E+00 0. -1.
         -1    1    6    6    0  503 -0.54303375234E+02  0.20165039811E+02  0.76262268558E+02  0.95767525801E+02  0.00000000000E+00 0.  1.
<mgrwt>
<rscale>  0 0.89982653E+03</rscale>
<asrwt>0</asrwt>
<pdfrwt beam="1">  1        1 0.27327270E+00 0.89982653E+03</pdfrwt>
<pdfrwt beam="2">  1       -1 0.93435989E-01 0.89982653E+03</pdfrwt>
<totfact> 0.48029995E+00</totfact>
</mgrwt>
</event>
<event>
12    1  0.1444206E-007  0.8313709E+03  0.7818608E-02  0.9515687E-01
          1   -1    0    0  501    0  0.00000000000E+00  0.00000000000E+00  0.17013978084E+04  0.17013978084E+04  0.00000000000E+00 0. -1.
         -1   -1    0    0    0  501 -0.00000000000E+00 -0.00000000000E+00 -0.97415856268E+03  0.97415856268E+03  0.00000000000E+00 0.  1.
         23    2    1    2    0    0  0.74408451459E+03 -0.19975521562E+02 -0.65447420297E+03  0.99527525007E+03  0.90418774215E+02 0.  0.
    5000000    2    1    2    0    0 -0.74408451459E+03  0.19975521562E+02  0.13817134487E+04  0.16802811210E+04  0.60012649086E+03 0.  0.
         23    2    4    4    0    0 -0.18756999648E+03 -0.22439419196E+03  0.68823855714E+03  0.75340213846E+03  0.91690859612E+02 0.  0.
         23    2    4    4    0    0 -0.55651451811E+03  0.24436971353E+03  0.69347489159E+03  0.92687898258E+03  0.93660329602E+02 0.  0.
          2    1    3    3  502    0  0.86478932640E+02  0.16662833525E+02 -0.10874314447E+03  0.13993329582E+03  0.00000000000E+00 0. -1.
         -2    1    3    3    0  502  0.65760558195E+03 -0.36638355087E+02 -0.54573105851E+03  0.85534195425E+03  0.00000000000E+00 0.  1.
         13    1    5    5    0    0 -0.28980207554E+02 -0.10118013350E+03  0.21817101322E+03  0.24223101134E+03  0.00000000000E+00 0.  1.
        -13    1    5    5    0    0 -0.15858978893E+03 -0.12321405846E+03  0.47006754392E+03  0.51117112712E+03  0.00000000000E+00 0. -1.
          3    1    6    6  503    0 -0.82990038780E+02  0.17119768872E+02  0.14159041661E+03  0.16500993636E+03  0.00000000000E+00 0. -1.
         -3    1    6    6    0  503 -0.47352447933E+03  0.22724994466E+03  0.55188447497E+03  0.76186904622E+03  0.00000000000E+00 0.  1.
<mgrwt>
<rscale>  0 0.83137090E+03</rscale>
<asrwt>0</asrwt>
<pdfrwt beam="1">  1        1 0.26175351E+00 0.83137090E+03</pdfrwt>
<pdfrwt beam="2">  1       -1 0.14987055E+00 0.83137090E+03</pdfrwt>
<totfact> 0.17211414E+00</totfact>
</mgrwt>
</event>
<event>
12    1  0.1444206E-007  0.6067476E+03  0.7818608E-02  0.9891505E-01
         -1   -1    0    0    0  501 -0.00000000000E+00  0.00000000000E+00  0.19739480598E+03  0.19739480598E+03  0.00000000000E+00 0.  1.
          1   -1    0    0  501    0  0.00000000000E+00 -0.00000000000E+00 -0.23749426535E+04  0.23749426535E+04  0.00000000000E+00 0. -1.
         23    2    1    2    0    0 -0.46816042927E+03 -0.89904144838E+02 -0.37619439629E+03  0.61473795556E+03  0.95517471769E+02 0.  0.
    5000000    2    1    2    0    0  0.46816042927E+03  0.89904144838E+02 -0.18013534512E+04  0.19575995039E+04  0.60005384647E+03 0.  0.
         23    2    4    4    0    0  0.22776347306E+03 -0.22762972935E+03 -0.57412298362E+03  0.66414121698E+03  0.88175180362E+02 0.  0.
         23    2    4    4    0    0  0.24039695621E+03  0.31753387418E+03 -0.12272304676E+04  0.12934582869E+04  0.91220949276E+02 0.  0.
          3    1    3    3  502    0 -0.72150978447E+02  0.57949645159E+01 -0.24171546607E+02  0.76312574127E+02  0.00000000000E+00 0. -1.
         -3    1    3    3    0  502 -0.39600945083E+03 -0.95699109354E+02 -0.35202284968E+03  0.53842538144E+03  0.00000000000E+00 0.  1.
         13    1    5    5    0    0  0.18589825496E+03 -0.13136186520E+03 -0.36529519836E+03  0.43041222423E+03  0.00000000000E+00 0.  1.
        -13    1    5    5    0    0  0.41865218099E+02 -0.96267864151E+02 -0.20882778526E+03  0.23372899275E+03  0.00000000000E+00 0. -1.
          2    1    6    6  503    0  0.19968737758E+03  0.23018671921E+03 -0.81481970689E+03  0.86993800308E+03  0.00000000000E+00 0.  1.
         -2    1    6    6    0  503  0.40709578631E+02  0.87347154971E+02 -0.41241076073E+03  0.42352028386E+03  0.00000000000E+00 0. -1.
<mgrwt>
<rscale>  0 0.60674761E+03</rscale>
<asrwt>0</asrwt>
<pdfrwt beam="1">  1        1 0.36537583E+00 0.60674761E+03</pdfrwt>
<pdfrwt beam="2">  1       -1 0.30368428E-01 0.60674761E+03</pdfrwt>
<totfact> 0.17700950E+01</totfact>
</mgrwt>
</event>
<event>
12    1  0.1444206E-007  0.1595568E+04  0.7818608E-02  0.8823275E-01
         -2   -1    0    0    0  501 -0.00000000000E+00  0.00000000000E+00  0.12914313936E+04  0.12914313936E+04  0.00000000000E+00 0.  1.
          2   -1    0    0  501    0  0.00000000000E+00 -0.00000000000E+00 -0.20087682434E+04  0.20087682434E+04  0.00000000000E+00 0. -1.
         23    2    1    2    0    0  0.93155244789E+03  0.12426098297E+04 -0.31387416311E+03  0.15871003495E+04  0.92202912235E+02 0.  0.
    5000000    2    1    2    0    0 -0.93155244789E+03 -0.12426098297E+04 -0.40346268672E+03  0.17130992875E+04  0.60004822899E+03 0.  0.
         23    2    4    4    0    0 -0.80349236381E+03 -0.68778124141E+03 -0.11389932295E+03  0.10677539671E+04  0.92100291384E+02 0.  0.
         23    2    4    4    0    0 -0.12806008408E+03 -0.55482858832E+03 -0.28956336378E+03  0.64534532043E+03  0.91594177803E+02 0.  0.
          4    1    3    3  502    0  0.12496272790E+03  0.15461380920E+03 -0.71167660970E+02  0.21115385227E+03  0.00000000000E+00 0. -1.
         -4    1    3    3    0  502  0.80658971999E+03  0.10879960205E+04 -0.24270650214E+03  0.13759464972E+04  0.00000000000E+00 0.  1.
         11    1    5    5    0    0 -0.21441335748E+03 -0.23754001005E+03 -0.44449096964E+02  0.32306975479E+03  0.00000000000E+00 0. -1.
        -11    1    5    5    0    0 -0.58907900633E+03 -0.45024123136E+03 -0.69450225982E+02  0.74468421227E+03  0.00000000000E+00 0.  1.
          1    1    6    6  503    0 -0.56451256291E+02 -0.90156980109E+02 -0.46794504248E+02  0.11620994375E+03  0.00000000000E+00 0. -1.
         -1    1    6    6    0  503 -0.71608827791E+02 -0.46467160821E+03 -0.24276885953E+03  0.52913537667E+03  0.00000000000E+00 0.  1.
<mgrwt>
<rscale>  0 0.15955679E+04</rscale>
<asrwt>0</asrwt>
<pdfrwt beam="1">  1        2 0.30904127E+00 0.15955679E+04</pdfrwt>
<pdfrwt beam="2">  1       -2 0.19868175E+00 0.15955679E+04</pdfrwt>
<totfact> 0.83448460E-01</totfact>
</mgrwt>
</event>
<event>
12    1  0.1444206E-007  0.1688206E+04  0.7818608E-02  0.8768120E-01
         -1   -1    0    0    0  501 -0.00000000000E+00  0.00000000000E+00  0.15355074282E+04  0.15355074282E+04  0.00000000000E+00 0.  1.
          1   -1    0    0  501    0  0.00000000000E+00 -0.00000000000E+00 -0.40474069153E+04  0.40474069153E+04  0.00000000000E+00 0. -1.
         23    2    1    2    0    0 -0.14473142106E+04 -0.76983200740E+03  0.80949817953E+03  0.18306672439E+04  0.93249724816E+02 0.  0.
    5000000    2    1    2    0    0  0.14473142106E+04  0.76983200740E+03 -0.33213976666E+04  0.37522470996E+04  0.60026335289E+03 0.  0.
         23    2    4    4    0    0  0.50329150518E+03 -0.63457646485E+01 -0.11619721193E+04  0.12694469403E+04  0.89295690145E+02 0.  0.
         23    2    4    4    0    0  0.94402270544E+03  0.77617777205E+03 -0.21594255473E+04  0.24828001593E+04  0.86874245108E+02 0.  0.
          3    1    3    3  502    0 -0.10414720257E+04 -0.51424942345E+03  0.59934304147E+03  0.13070304248E+04  0.00000000000E+00 0. -1.
         -3    1    3    3    0  502 -0.40584218488E+03 -0.25558258395E+03  0.21015513806E+03  0.52363681908E+03  0.00000000000E+00 0.  1.
         11    1    5    5    0    0  0.22003382815E+03 -0.46230517982E+02 -0.53308128937E+03  0.57855665877E+03  0.00000000000E+00 0. -1.
        -11    1    5    5    0    0  0.28325767703E+03  0.39884753333E+02 -0.62889082994E+03  0.69089028154E+03  0.00000000000E+00 0.  1.
          4    1    6    6  503    0  0.35011412128E+03  0.33482943874E+03 -0.89949861454E+03  0.10216596344E+04  0.00000000000E+00 0.  1.
         -4    1    6    6    0  503  0.59390858416E+03  0.44134833331E+03 -0.12599269328E+04  0.14611405249E+04  0.00000000000E+00 0. -1.
<mgrwt>
<rscale>  0 0.16882057E+04</rscale>
<asrwt>0</asrwt>
<pdfrwt beam="1">  1        1 0.62267799E+00 0.16882057E+04</pdfrwt>
<pdfrwt beam="2">  1       -1 0.23623191E+00 0.16882057E+04</pdfrwt>
<totfact> 0.69500352E-03</totfact>
</mgrwt>
</event>
<event>
12    1  0.1444206E-007  0.7280643E+03  0.7818608E-02  0.9670407E-01
         -3   -1    0    0    0  501 -0.00000000000E+00  0.00000000000E+00  0.33925812809E+04  0.33925812809E+04  0.00000000000E+00 0.  1.
          3   -1    0    0  501    0  0.00000000000E+00 -0.00000000000E+00 -0.24089055024E+03  0.24089055024E+03  0.00000000000E+00 0. -1.
         23    2    1    2    0    0  0.64778057805E+03 -0.24040562220E+03  0.22207349835E+04  0.23280755035E+04  0.10419761152E+03 0.  0.
    5000000    2    1    2    0    0 -0.64778057805E+03  0.24040562220E+03  0.93095574711E+03  0.13053963277E+04  0.59997202326E+03 0.  0.
         23    2    4    4    0    0 -0.48347608071E+03  0.31448557640E+03  0.93580650182E+03  0.11032168493E+04  0.93291529251E+02 0.  0.
         23    2    4    4    0    0 -0.16430449735E+03 -0.74079954201E+02 -0.48507547108E+01  0.20217947832E+03  0.91483354606E+02 0.  0.
          3    1    3    3  502    0  0.35116953028E+03 -0.17838687900E+03  0.13384740024E+04  0.13952256351E+04  0.00000000000E+00 0. -1.
         -3    1    3    3    0  502  0.29661104777E+03 -0.62018743196E+02  0.88226098112E+03  0.93284986840E+03  0.00000000000E+00 0.  1.
         11    1    5    5    0    0 -0.12776889479E+03  0.10984511667E+03  0.34400823256E+03  0.38305678979E+03  0.00000000000E+00 0. -1.
        -11    1    5    5    0    0 -0.35570718592E+03  0.20464045973E+03  0.59179826926E+03  0.72016005955E+03  0.00000000000E+00 0.  1.
          2    1    6    6  503    0 -0.19941113113E+01 -0.14904572084E+00  0.21758881659E+02  0.21850574949E+02  0.00000000000E+00 0. -1.
         -2    1    6    6    0  503 -0.16231038603E+03 -0.73930908480E+02 -0.26609636370E+02  0.18032890337E+03  0.00000000000E+00 0.  1.
<mgrwt>
<rscale>  0 0.72806427E+03</rscale>
<asrwt>0</asrwt>
<pdfrwt beam="1">  1        3 0.37060087E-01 0.72806427E+03</pdfrwt>
<pdfrwt beam="2">  1       -3 0.52193555E+00 0.72806427E+03</pdfrwt>
<totfact> 0.46348203E-02</totfact>
</mgrwt>
</event>
<event>
12    1  0.1444206E-007  0.2105608E+04  0.7818608E-02  0.8558777E-01
         -1   -1    0    0    0  501 -0.00000000000E+00  0.00000000000E+00  0.15978371554E+04  0.15978371554E+04  0.00000000000E+00 0.  1.
          1   -1    0    0  501    0  0.00000000000E+00 -0.00000000000E+00 -0.29264581753E+04  0.29264581753E+04  0.00000000000E+00 0. -1.
         23    2    1    2    0    0 -0.99213589428E+03  0.18529357708E+04 -0.36328574871E+03  0.21349305315E+04  0.90814292336E+02 0.  0.
    5000000    2    1    2    0    0  0.99213589428E+03 -0.18529357708E+04 -0.96533527117E+03  0.23893647992E+04  0.59957264317E+03 0.  0.
         23    2    4    4    0    0  0.59290409753E+03 -0.12496335090E+04 -0.90879212540E+03  0.16578420944E+04  0.97046932155E+02 0.  0.
         23    2    4    4    0    0  0.39923179675E+03 -0.60330226182E+03 -0.56543145771E+02  0.73152270483E+03  0.92567238737E+02 0.  0.
          1    1    3    3  502    0 -0.32742712931E+03  0.69704732243E+03 -0.15010447334E+03  0.78461127167E+03  0.00000000000E+00 0. -1.
         -1    1    3    3    0  502 -0.66470876497E+03  0.11558884484E+04 -0.21318127537E+03  0.13503192598E+04  0.00000000000E+00 0.  1.
         11    1    5    5    0    0  0.38623435146E+03 -0.75108870557E+03 -0.50765392827E+03  0.98540536267E+03  0.00000000000E+00 0. -1.
        -11    1    5    5    0    0  0.20666974607E+03 -0.49854480341E+03 -0.40113819713E+03  0.67243673170E+03  0.00000000000E+00 0.  1.
          3    1    6    6  503    0  0.28694375541E+03 -0.43727679043E+03 -0.82260534541E+02  0.52944735882E+03  0.00000000000E+00 0. -1.
         -3    1    6    6    0  503  0.11228804134E+03 -0.16602547139E+03  0.25717388770E+02  0.20207534600E+03  0.00000000000E+00 0.  1.
<mgrwt>
<rscale>  0 0.21056082E+04</rscale>
<asrwt>0</asrwt>
<pdfrwt beam="1">  1        1 0.45022433E+00 0.21056082E+04</pdfrwt>
<pdfrwt beam="2">  1       -1 0.24582110E+00 0.21056082E+04</pdfrwt>
<totfact> 0.44200218E-02</totfact>
</mgrwt>
</event>
<event>
12    1  0.1444206E-007  0.5802667E+03  0.7818608E-02  0.9947214E-01
         -1   -1    0    0    0  501 -0.00000000000E+00  0.00000000000E+00  0.75960611164E+03  0.75960611164E+03  0.00000000000E+00 0.  1.
          1   -1    0    0  501    0  0.00000000000E+00 -0.00000000000E+00 -0.60474048587E+03  0.60474048587E+03  0.00000000000E+00 0. -1.
         23    2    1    2    0    0  0.22566893613E+03 -0.49072966260E+03  0.86980024813E+02  0.55412535093E+03  0.88018801026E+02 0.  0.
    5000000    2    1    2    0    0 -0.22566893613E+03  0.49072966260E+03  0.67885600951E+02  0.81022124658E+03  0.60008994584E+03 0.  0.
         23    2    4    4    0    0 -0.25384699079E+03  0.25501277046E+03  0.29127145248E+03  0.47178814205E+03  0.90968039012E+02 0.  0.
         23    2    4    4    0    0  0.28178054657E+02  0.23571689214E+03 -0.22338585153E+03  0.33843310452E+03  0.90990502618E+02 0.  0.
          3    1    3    3  502    0  0.86433674861E+02 -0.18927397056E+03 -0.96340310983E+01  0.20829841727E+03  0.00000000000E+00 0. -1.
         -3    1    3    3    0  502  0.13923526127E+03 -0.30145569205E+03  0.96614055911E+02  0.34582693367E+03  0.00000000000E+00 0.  1.
         11    1    5    5    0    0 -0.23255356657E+03  0.18289880338E+03  0.23633915303E+03  0.37866783446E+03  0.00000000000E+00 0. -1.
        -11    1    5    5    0    0 -0.21293424220E+02  0.72113967077E+02  0.54932299457E+02  0.93120307593E+02  0.00000000000E+00 0.  1.
          2    1    6    6  503    0 -0.23549837747E+02  0.12427541947E+03 -0.14627037850E+03  0.19337527859E+03  0.00000000000E+00 0.  1.
         -2    1    6    6    0  503  0.51727892404E+02  0.11144147267E+03 -0.77115473030E+02  0.14505782593E+03  0.00000000000E+00 0. -1.
<mgrwt>
<rscale>  0 0.58026668E+03</rscale>
<asrwt>0</asrwt>
<pdfrwt beam="1">  1        1 0.93036998E-01 0.58026668E+03</pdfrwt>
<pdfrwt beam="2">  1       -1 0.11686248E+00 0.58026668E+03</pdfrwt>
<totfact> 0.23410194E+01</totfact>
</mgrwt>
</event>
<event>
12    1  0.1444206E-007  0.6042433E+03  0.7818608E-02  0.9896641E-01
          2   -1    0    0  501    0  0.00000000000E+00  0.00000000000E+00  0.11477333313E+04  0.11477333313E+04  0.00000000000E+00 0. -1.
         -2   -1    0    0    0  501 -0.00000000000E+00 -0.00000000000E+00 -0.50318137879E+03  0.50318137879E+03  0.00000000000E+00 0.  1.
         23    2    1    2    0    0  0.22864962018E+03 -0.44364177241E+03  0.70441603537E+03  0.86816930186E+03  0.91745925107E+02 0.  0.
    5000000    2    1    2    0    0 -0.22864962018E+03  0.44364177241E+03 -0.59864082817E+02  0.78274540826E+03  0.60000666222E+03 0.  0.
         23    2    4    4    0    0 -0.82945131361E+01 -0.89801383822E+02 -0.14392871795E+03  0.19226253496E+03  0.90090615576E+02 0.  0.
         23    2    4    4    0    0 -0.22035510704E+03  0.53344315623E+03  0.84064635137E+02  0.59048287330E+03  0.92115072879E+02 0.  0.
          4    1    3    3  502    0  0.16015001339E+03 -0.33798924779E+03  0.45683996765E+03  0.59041300329E+03  0.00000000000E+00 0. -1.
         -4    1    3    3    0  502  0.68499606791E+02 -0.10565252461E+03  0.24757606771E+03  0.27775629857E+03  0.00000000000E+00 0.  1.
         13    1    5    5    0    0 -0.13170485985E+02 -0.10747981192E+03 -0.11454610190E+03  0.15762671453E+03  0.00000000000E+00 0. -1.
        -13    1    5    5    0    0  0.48759728484E+01  0.17678428100E+02 -0.29382616054E+02  0.34635820439E+02  0.00000000000E+00 0.  1.
          3    1    6    6  503    0 -0.46325757189E+02  0.20573701863E+03  0.41685743718E+01  0.21092930955E+03  0.00000000000E+00 0. -1.
         -3    1    6    6    0  503 -0.17402934985E+03  0.32770613760E+03  0.79896060765E+02  0.37955356375E+03  0.00000000000E+00 0.  1.
<mgrwt>
<rscale>  0 0.60424330E+03</rscale>
<asrwt>0</asrwt>
<pdfrwt beam="1">  1        2 0.17657436E+00 0.60424330E+03</pdfrwt>
<pdfrwt beam="2">  1       -2 0.77412520E-01 0.60424330E+03</pdfrwt>
<totfact> 0.31363962E+01</totfact>
</mgrwt>
</event>
<event>
12    1  0.1444206E-007  0.4508239E+03  0.7818608E-02  0.1027477E+00
         -1   -1    0    0    0  501 -0.00000000000E+00  0.00000000000E+00  0.20237644476E+03  0.20237644476E+03  0.00000000000E+00 0.  1.
          1   -1    0    0  501    0  0.00000000000E+00 -0.00000000000E+00 -0.15929520428E+04  0.15929520428E+04  0.00000000000E+00 0. -1.
         23    2    1    2    0    0 -0.28138216709E+03 -0.22192118674E+03 -0.79591580310E+03  0.87761898312E+03  0.91149200963E+02 0.  0.
    5000000    2    1    2    0    0  0.28138216709E+03  0.22192118674E+03 -0.59465979490E+03  0.91770950439E+03  0.60012125917E+03 0.  0.
         23    2    4    4    0    0  0.22543028350E+03  0.32324138792E+03 -0.64426853500E+03  0.76064770469E+03  0.90549311819E+02 0.  0.
         23    2    4    4    0    0  0.55951883589E+02 -0.10132020118E+03  0.49608740101E+02  0.15706179971E+03  0.93866849252E+02 0.  0.
          1    1    3    3  502    0 -0.12636389079E+03 -0.15743351545E+03 -0.43260794023E+03  0.47739163654E+03  0.00000000000E+00 0. -1.
         -1    1    3    3    0  502 -0.15501827630E+03 -0.64487671287E+02 -0.36330786287E+03  0.40022734659E+03  0.00000000000E+00 0.  1.
         11    1    5    5    0    0  0.66703906650E+02  0.65181322441E+02 -0.93568859569E+02  0.13211036083E+03  0.00000000000E+00 0.  1.
        -11    1    5    5    0    0  0.15872637685E+03  0.25806006548E+03 -0.55069967543E+03  0.62853734386E+03  0.00000000000E+00 0. -1.
          1    1    6    6  503    0 -0.10714116082E+02 -0.51021419938E+02  0.51837828950E+02  0.73519644219E+02  0.00000000000E+00 0. -1.
         -1    1    6    6    0  503  0.66665999671E+02 -0.50298781243E+02 -0.22290888484E+01  0.83542155489E+02  0.00000000000E+00 0.  1.
<mgrwt>
<rscale>  0 0.45082387E+03</rscale>
<asrwt>0</asrwt>
<pdfrwt beam="1">  1        1 0.24506955E+00 0.45082387E+03</pdfrwt>
<pdfrwt beam="2">  1       -1 0.31134837E-01 0.45082387E+03</pdfrwt>
<totfact> 0.57789276E+01</totfact>
</mgrwt>
</event>
<event>
12    1  0.1444206E-007  0.7968640E+03  0.7818608E-02  0.9564567E-01
          1   -1    0    0  501    0  0.00000000000E+00  0.00000000000E+00  0.19130548559E+04  0.19130548559E+04  0.00000000000E+00 0. -1.
         -1   -1    0    0    0  501 -0.00000000000E+00 -0.00000000000E+00 -0.50060217279E+03  0.50060217279E+03  0.00000000000E+00 0.  1.
         23    2    1    2    0    0  0.71813106610E+03 -0.64720555007E+02  0.12725611437E+04  0.14652411867E+04  0.87286267193E+02 0.  0.
    5000000    2    1    2    0    0 -0.71813106610E+03  0.64720555007E+02  0.13989153944E+03  0.94841584200E+03  0.60001832323E+03 0.  0.
         23    2    4    4    0    0 -0.73553139544E+03  0.14255315551E+03 -0.11576516142E+02  0.75437592056E+03  0.87299358309E+02 0.  0.
         23    2    4    4    0    0  0.17400329338E+02 -0.77832600507E+02  0.15146805558E+03  0.19403992145E+03  0.91368671283E+02 0.  0.
          3    1    3    3  502    0  0.39346261655E+03 -0.51783555068E+02  0.78014292622E+03  0.87528129909E+03  0.00000000000E+00 0. -1.
         -3    1    3    3    0  502  0.32466844955E+03 -0.12936999939E+02  0.49241821748E+03  0.58995988763E+03  0.00000000000E+00 0.  1.
         11    1    5    5    0    0 -0.47819425803E+03  0.56716358987E+02 -0.29969782114E+02  0.48247764884E+03  0.00000000000E+00 0.  1.
        -11    1    5    5    0    0 -0.25733713741E+03  0.85836796527E+02  0.18393265972E+02  0.27189827171E+03  0.00000000000E+00 0. -1.
          4    1    6    6  503    0  0.62207409589E+01  0.19851416160E+02  0.14183031726E+02  0.25178060501E+02  0.00000000000E+00 0. -1.
         -4    1    6    6    0  503  0.11179588380E+02 -0.97684016667E+02  0.13728502385E+03  0.16886186095E+03  0.00000000000E+00 0.  1.
<mgrwt>
<rscale>  0 0.79686401E+03</rscale>
<asrwt>0</asrwt>
<pdfrwt beam="1">  1        1 0.29431613E+00 0.79686401E+03</pdfrwt>
<pdfrwt beam="2">  1       -1 0.77015720E-01 0.79686401E+03</pdfrwt>
<totfact> 0.60000011E+00</totfact>
</mgrwt>
</event>
<event>
12    1  0.1444206E-007  0.6780722E+03  0.7818608E-02  0.9755484E-01
          2   -1    0    0  501    0  0.00000000000E+00  0.00000000000E+00  0.13525967783E+04  0.13525967783E+04  0.00000000000E+00 0. -1.
         -2   -1    0    0    0  501 -0.00000000000E+00 -0.00000000000E+00 -0.40982730975E+03  0.40982730975E+03  0.00000000000E+00 0.  1.
         23    2    1    2    0    0 -0.52003598398E+03  0.33606187373E+03  0.43970069635E+03  0.76417732723E+03  0.85177916581E+02 0.  0.
    5000000    2    1    2    0    0  0.52003598398E+03 -0.33606187373E+03  0.50306877220E+03  0.99824676082E+03  0.60003616418E+03 0.  0.
         23    2    4    4    0    0  0.26931820301E+03  0.27315528096E+02 -0.44976567043E+02  0.28878275681E+03  0.89967530253E+02 0.  0.
         23    2    4    4    0    0  0.25071778097E+03 -0.36337740182E+03  0.54804533924E+03  0.70946400401E+03  0.89905157104E+02 0.  0.
          1    1    3    3  502    0 -0.11561521909E+03  0.11258823707E+03  0.13806879686E+03  0.21238169102E+03  0.00000000000E+00 0. -1.
         -1    1    3    3    0  502 -0.40442076489E+03  0.22347363665E+03  0.30163189949E+03  0.55179563621E+03  0.00000000000E+00 0.  1.
         13    1    5    5    0    0  0.46028801827E+02 -0.29306783548E+02 -0.14157479433E+02  0.56373507816E+02  0.00000000000E+00 0. -1.
        -13    1    5    5    0    0  0.22328940118E+03  0.56622311644E+02 -0.30819087611E+02  0.23240924899E+03  0.00000000000E+00 0.  1.
          2    1    6    6  503    0  0.15349363616E+03 -0.15654045763E+03  0.22924400200E+03  0.31720344208E+03  0.00000000000E+00 0. -1.
         -2    1    6    6    0  503  0.97224144809E+02 -0.20683694419E+03  0.31880133724E+03  0.39226056193E+03  0.00000000000E+00 0.  1.
<mgrwt>
<rscale>  0 0.67807223E+03</rscale>
<asrwt>0</asrwt>
<pdfrwt beam="1">  1        2 0.20809181E+00 0.67807223E+03</pdfrwt>
<pdfrwt beam="2">  1       -2 0.63050356E-01 0.67807223E+03</pdfrwt>
<totfact> 0.36941337E+01</totfact>
</mgrwt>
</event>
<event>
12    1  0.1444206E-007  0.4832910E+03  0.7818608E-02  0.1018235E+00
         -1   -1    0    0    0  501 -0.00000000000E+00  0.00000000000E+00  0.92539391131E+03  0.92539391131E+03  0.00000000000E+00 0.  1.
          1   -1    0    0  501    0  0.00000000000E+00 -0.00000000000E+00 -0.54198784303E+03  0.54198784303E+03  0.00000000000E+00 0. -1.
         23    2    1    2    0    0  0.26494097535E+03 -0.37737367691E+03 -0.20132034033E+03  0.51123570862E+03  0.90705335534E+02 0.  0.
    5000000    2    1    2    0    0 -0.26494097535E+03  0.37737367691E+03  0.58472640861E+03  0.95614604572E+03  0.59975467933E+03 0.  0.
         23    2    4    4    0    0 -0.13957192824E+03  0.12378921333E+03  0.62437884115E+03  0.65828427991E+03  0.93194224117E+02 0.  0.
         23    2    4    4    0    0 -0.12536904711E+03  0.25358446358E+03 -0.39652432536E+02  0.29786176581E+03  0.84420601663E+02 0.  0.
          2    1    3    3  502    0  0.16235751347E+03 -0.16360690042E+03 -0.12465847715E+03  0.26204372912E+03  0.00000000000E+00 0.  1.
         -2    1    3    3    0  502  0.10258346188E+03 -0.21376677648E+03 -0.76661863179E+02  0.24919197950E+03  0.00000000000E+00 0. -1.
         11    1    5    5    0    0  0.86977954501E+01  0.28679954850E+02  0.13153548689E+03  0.13490654456E+03  0.00000000000E+00 0.  1.
        -11    1    5    5    0    0 -0.14826972369E+03  0.95109258481E+02  0.49284335427E+03  0.52337773535E+03  0.00000000000E+00 0. -1.
          2    1    6    6  503    0 -0.17617370932E+02  0.11975378645E+03  0.20350978824E+01  0.12105983129E+03  0.00000000000E+00 0. -1.
         -2    1    6    6    0  503 -0.10775167617E+03  0.13383067713E+03 -0.41687530419E+02  0.17680193452E+03  0.00000000000E+00 0.  1.
<mgrwt>
<rscale>  0 0.48329103E+03</rscale>
<asrwt>0</asrwt>
<pdfrwt beam="1">  1        1 0.83382745E-01 0.48329103E+03</pdfrwt>
<pdfrwt beam="2">  1       -1 0.14236829E+00 0.48329103E+03</pdfrwt>
<totfact> 0.16942741E+01</totfact>
</mgrwt>
</event>
<event>
12    1  0.1444206E-007  0.9041800E+03  0.7818608E-02  0.9420371E-01
          2   -1    0    0  501    0  0.00000000000E+00  0.00000000000E+00  0.26560973295E+04  0.26560973295E+04  0.00000000000E+00 0. -1.
         -2   -1    0    0    0  501 -0.00000000000E+00 -0.00000000000E+00 -0.33090542501E+03  0.33090542501E+03  0.00000000000E+00 0.  1.
         23    2    1    2    0    0 -0.92181276872E+02 -0.82669687313E+03  0.12182615434E+04  0.14779769606E+04  0.91266642573E+02 0.  0.
    5000000    2    1    2    0    0  0.92181276872E+02  0.82669687313E+03  0.11069303611E+04  0.15090257940E+04  0.59994909333E+03 0.  0.
         23    2    4    4    0    0 -0.81810226213E+01 -0.47738528466E+02  0.15375801605E+02  0.10399878003E+03  0.90738276056E+02 0.  0.
         23    2    4    4    0    0  0.10036229949E+03  0.87443540160E+03  0.10915545595E+04  0.14050270139E+04  0.88880204289E+02 0.  0.
          1    1    3    3  502    0  0.35743750563E+01 -0.37666580181E+03  0.54284714855E+03  0.66073665639E+03  0.00000000000E+00 0. -1.
         -1    1    3    3    0  502 -0.95755651929E+02 -0.45003107133E+03  0.67541439486E+03  0.81724030420E+03  0.00000000000E+00 0.  1.
         13    1    5    5    0    0 -0.26896996138E+02  0.97855373458E+01  0.30312319324E+02  0.41689829038E+02  0.00000000000E+00 0. -1.
        -13    1    5    5    0    0  0.18715973517E+02 -0.57524065812E+02 -0.14936517719E+02  0.62308950993E+02  0.00000000000E+00 0.  1.
          2    1    6    6  503    0  0.34198829972E+02  0.56468970767E+03  0.74646196042E+03  0.93661597481E+03  0.00000000000E+00 0. -1.
         -2    1    6    6    0  503  0.66163469522E+02  0.30974569393E+03  0.34509259910E+03  0.46841103912E+03  0.00000000000E+00 0.  1.
<mgrwt>
<rscale>  0 0.90417996E+03</rscale>
<asrwt>0</asrwt>
<pdfrwt beam="1">  1        2 0.40863035E+00 0.90417996E+03</pdfrwt>
<pdfrwt beam="2">  1       -2 0.50908529E-01 0.90417996E+03</pdfrwt>
<totfact> 0.10574642E+01</totfact>
</mgrwt>
</event>
<event>
12    1  0.1444206E-007  0.5201494E+03  0.7818608E-02  0.1008649E+00
          1   -1    0    0  501    0  0.00000000000E+00  0.00000000000E+00  0.43042348378E+03  0.43042348378E+03  0.00000000000E+00 0. -1.
         -1   -1    0    0    0  501 -0.00000000000E+00 -0.00000000000E+00 -0.71316370814E+03  0.71316370814E+03  0.00000000000E+00 0.  1.
         23    2    1    2    0    0 -0.35781493465E+03  0.44142850492E+02  0.37678558341E+02  0.37370602067E+03  0.90864720451E+02 0.  0.
    5000000    2    1    2    0    0  0.35781493465E+03 -0.44142850492E+02 -0.32041878270E+03  0.76988117125E+03  0.60005724962E+03 0.  0.
         23    2    4    4    0    0  0.49213295928E+03  0.66024820035E+02 -0.22021118795E+03  0.55056737098E+03  0.89874001922E+02 0.  0.
         23    2    4    4    0    0 -0.13431802463E+03 -0.11016767053E+03 -0.10020759476E+03  0.21931380027E+03  0.88762230548E+02 0.  0.
          2    1    3    3  502    0 -0.23826293298E+03  0.30843059228E+02 -0.18464824674E+02  0.24095947643E+03  0.00000000000E+00 0.  1.
         -2    1    3    3    0  502 -0.11955200167E+03  0.13299791263E+02  0.56143383015E+02  0.13274654424E+03  0.00000000000E+00 0. -1.
         13    1    5    5    0    0  0.20473216701E+03 -0.15844040443E+02 -0.10091418257E+03  0.22880114963E+03  0.00000000000E+00 0. -1.
        -13    1    5    5    0    0  0.28740079227E+03  0.81868860478E+02 -0.11929700538E+03  0.32176622135E+03  0.00000000000E+00 0.  1.
          1    1    6    6  503    0 -0.92763414057E+01 -0.17970039973E+02 -0.53334166829E+02  0.57039514355E+02  0.00000000000E+00 0. -1.
         -1    1    6    6    0  503 -0.12504168322E+03 -0.92197630553E+02 -0.46873427926E+02  0.16227428591E+03  0.00000000000E+00 0.  1.
<mgrwt>
<rscale>  0 0.52014945E+03</rscale>
<asrwt>0</asrwt>
<pdfrwt beam="1">  1        1 0.66218998E-01 0.52014945E+03</pdfrwt>
<pdfrwt beam="2">  1       -1 0.10971749E+00 0.52014945E+03</pdfrwt>
<totfact> 0.43681421E+01</totfact>
</mgrwt>
</event>
<event>
12    1  0.1444206E-007  0.7739901E+03  0.7818608E-02  0.9598448E-01
         -2   -1    0    0    0  501 -0.00000000000E+00  0.00000000000E+00  0.26718999608E+03  0.26718999608E+03  0.00000000000E+00 0.  1.
          2   -1    0    0  501    0  0.00000000000E+00 -0.00000000000E+00 -0.28790658332E+04  0.28790658332E+04  0.00000000000E+00 0. -1.
         23    2    1    2    0    0  0.68211204364E+03 -0.19528562961E+03 -0.17001289246E+04  0.18444039177E+04  0.89298006022E+02 0.  0.
    5000000    2    1    2    0    0 -0.68211204364E+03  0.19528562961E+03 -0.91174691251E+03  0.13018519116E+04  0.60010219976E+03 0.  0.
         23    2    4    4    0    0 -0.58180502526E+03 -0.27629133164E+02 -0.36034171118E+03  0.69176861643E+03  0.97145321268E+02 0.  0.
         23    2    4    4    0    0 -0.10030701838E+03  0.22291476277E+03 -0.55140520133E+03  0.61008329521E+03  0.91659378383E+02 0.  0.
          1    1    3    3  502    0  0.19815348001E+03 -0.46773544483E+02 -0.39161313405E+03  0.44137672442E+03  0.00000000000E+00 0. -1.
         -1    1    3    3    0  502  0.48395856363E+03 -0.14851208512E+03 -0.13085157906E+04  0.14030271932E+04  0.00000000000E+00 0.  1.
         11    1    5    5    0    0 -0.48696421502E+03 -0.38917032872E+02 -0.33690376744E+03  0.59342466301E+03  0.00000000000E+00 0.  1.
        -11    1    5    5    0    0 -0.94840810242E+02  0.11287899708E+02 -0.23437943742E+02  0.98343953419E+02  0.00000000000E+00 0. -1.
          3    1    6    6  503    0 -0.24676920709E+02  0.74628539705E+01 -0.23390478307E+02  0.34810330083E+02  0.00000000000E+00 0. -1.
         -3    1    6    6    0  503 -0.75630097674E+02  0.21545190880E+03 -0.52801472302E+03  0.57527296513E+03  0.00000000000E+00 0.  1.
<mgrwt>
<rscale>  0 0.77399012E+03</rscale>
<asrwt>0</asrwt>
<pdfrwt beam="1">  1        2 0.44293323E+00 0.77399012E+03</pdfrwt>
<pdfrwt beam="2">  1       -2 0.41106151E-01 0.77399012E+03</pdfrwt>
<totfact> 0.12229974E+01</totfact>
</mgrwt>
</event>
<event>
12    1  0.1444206E-007  0.1159041E+04  0.7818608E-02  0.9149483E-01
         -2   -1    0    0    0  501 -0.00000000000E+00  0.00000000000E+00  0.83042574226E+03  0.83042574226E+03  0.00000000000E+00 0. -1.
          2   -1    0    0  501    0  0.00000000000E+00 -0.00000000000E+00 -0.21503933303E+04  0.21503933303E+04  0.00000000000E+00 0.  1.
         23    2    1    2    0    0  0.11401096148E+04 -0.10315896324E+03 -0.12338457858E+04  0.16855376259E+04  0.90387828613E+02 0.  0.
    5000000    2    1    2    0    0 -0.11401096148E+04  0.10315896324E+03 -0.86121802208E+02  0.12952814467E+04  0.59987111604E+03 0.  0.
         23    2    4    4    0    0 -0.82968335211E+03 -0.94288770117E+01  0.18884292793E+03  0.85581511220E+03  0.91074070591E+02 0.  0.
         23    2    4    4    0    0 -0.31042626268E+03  0.11258784026E+03 -0.27496473014E+03  0.43946633449E+03  0.92111725586E+02 0.  0.
          3    1    3    3  502    0  0.24261002143E+03 -0.10309732436E+02 -0.21206571576E+03  0.32239382885E+03  0.00000000000E+00 0. -1.
         -3    1    3    3    0  502  0.89749959337E+03 -0.92849230808E+02 -0.10217800701E+04  0.13631437970E+04  0.00000000000E+00 0.  1.
         11    1    5    5    0    0 -0.12154202583E+03 -0.32602740076E+02  0.19527879727E+02  0.12734496767E+03  0.00000000000E+00 0.  1.
        -11    1    5    5    0    0 -0.70814132628E+03  0.23173863064E+02  0.16931504821E+03  0.72847014453E+03  0.00000000000E+00 0. -1.
          3    1    6    6  503    0 -0.29086580359E+03  0.12373492535E+03 -0.27150722804E+03  0.41668863954E+03  0.00000000000E+00 0. -1.
         -3    1    6    6    0  503 -0.19560459098E+02 -0.11147085096E+02 -0.34575021041E+01  0.22777694947E+02  0.00000000000E+00 0.  1.
<mgrwt>
<rscale>  0 0.11590410E+04</rscale>
<asrwt>0</asrwt>
<pdfrwt beam="1">  1        2 0.33082974E+00 0.11590410E+04</pdfrwt>
<pdfrwt beam="2">  1       -2 0.12775781E+00 0.11590410E+04</pdfrwt>
<totfact> 0.24515096E+00</totfact>
</mgrwt>
</event>
<event>
12    1  0.1444206E-007  0.5565723E+03  0.7818608E-02  0.9999840E-01
         -2   -1    0    0    0  501 -0.00000000000E+00  0.00000000000E+00  0.31087871878E+03  0.31087871878E+03  0.00000000000E+00 0.  1.
          2   -1    0    0  501    0  0.00000000000E+00 -0.00000000000E+00 -0.13231200041E+04  0.13231200041E+04  0.00000000000E+00 0. -1.
         23    2    1    2    0    0 -0.13379817248E+03 -0.38188653636E+03 -0.76330197336E+03  0.86872371154E+03  0.91168562856E+02 0.  0.
    5000000    2    1    2    0    0  0.13379817248E+03  0.38188653636E+03 -0.24893931196E+03  0.76527501134E+03  0.59994648455E+03 0.  0.
         23    2    4    4    0    0  0.18811067241E+03  0.50678858471E+03 -0.24695206520E+03  0.60146755967E+03  0.92507341138E+02 0.  0.
         23    2    4    4    0    0 -0.54312499927E+02 -0.12490204836E+03 -0.19872467673E+01  0.16380745167E+03  0.90986607473E+02 0.  0.
          4    1    3    3  502    0 -0.14704254390E+03 -0.34377506986E+03 -0.67497458026E+03  0.77161745210E+03  0.00000000000E+00 0. -1.
         -4    1    3    3    0  502  0.13244371424E+02 -0.38111466494E+02 -0.88327393096E+02  0.97106259447E+02  0.00000000000E+00 0.  1.
         11    1    5    5    0    0  0.16323828454E+03  0.43948302725E+03 -0.24658285703E+03  0.52971235040E+03  0.00000000000E+00 0.  1.
        -11    1    5    5    0    0  0.24872387865E+02  0.67305557461E+02 -0.36920816485E+00  0.71755209273E+02  0.00000000000E+00 0. -1.
          1    1    6    6  503    0 -0.74556064707E+02 -0.81661975001E+02 -0.20753177181E+02  0.11250768555E+03  0.00000000000E+00 0. -1.
         -1    1    6    6    0  503  0.20243564780E+02 -0.43240073355E+02  0.18765930414E+02  0.51299766111E+02  0.00000000000E+00 0.  1.
<mgrwt>
<rscale>  0 0.55657235E+03</rscale>
<asrwt>0</asrwt>
<pdfrwt beam="1">  1        2 0.20355693E+00 0.55657235E+03</pdfrwt>
<pdfrwt beam="2">  1       -2 0.47827495E-01 0.55657235E+03</pdfrwt>
<totfact> 0.69007730E+01</totfact>
</mgrwt>
</event>
<event>
12    1  0.1444206E-007  0.5781313E+03  0.7818608E-02  0.9951845E-01
          1   -1    0    0  501    0  0.00000000000E+00  0.00000000000E+00  0.15278783718E+04  0.15278783718E+04  0.00000000000E+00 0. -1.
         -1   -1    0    0    0  501 -0.00000000000E+00 -0.00000000000E+00 -0.79701359844E+03  0.79701359844E+03  0.00000000000E+00 0.  1.
         23    2    1    2    0    0  0.42630263548E+03  0.36017021134E+03  0.12381060986E+04  0.13611643497E+04  0.91679644800E+02 0.  0.
    5000000    2    1    2    0    0 -0.42630263548E+03 -0.36017021134E+03 -0.50724132528E+03  0.96372762055E+03  0.60001720507E+03 0.  0.
         23    2    4    4    0    0 -0.30638199778E+02 -0.10808184011E+03  0.11094451285E+03  0.18246051085E+03  0.91448180092E+02 0.  0.
         23    2    4    4    0    0 -0.39566443570E+03 -0.25208837122E+03 -0.61818583812E+03  0.78126710969E+03  0.90142518522E+02 0.  0.
          3    1    3    3  502    0  0.33296775027E+03  0.32582308945E+03  0.10352354313E+04  0.11352271167E+04  0.00000000000E+00 0. -1.
         -3    1    3    3    0  502  0.93334885205E+02  0.34347121890E+02  0.20287066738E+03  0.22593723301E+03  0.00000000000E+00 0.  1.
         13    1    5    5    0    0 -0.41881146374E+02 -0.72491033755E+02  0.11779246232E+03  0.14451312942E+03  0.00000000000E+00 0. -1.
        -13    1    5    5    0    0  0.11242946595E+02 -0.35590806360E+02 -0.68479494728E+01  0.37947381431E+02  0.00000000000E+00 0.  1.
          3    1    6    6  503    0 -0.32709552503E+03 -0.19607188140E+03 -0.43980203826E+03  0.58211811346E+03  0.00000000000E+00 0. -1.
         -3    1    6    6    0  503 -0.68568910668E+02 -0.56016489825E+02 -0.17838379987E+03  0.19914899623E+03  0.00000000000E+00 0.  1.
<mgrwt>
<rscale>  0 0.57813126E+03</rscale>
<asrwt>0</asrwt>
<pdfrwt beam="1">  1        1 0.23505821E+00 0.57813126E+03</pdfrwt>
<pdfrwt beam="2">  1       -1 0.12261748E+00 0.57813126E+03</pdfrwt>
<totfact> 0.39667913E+00</totfact>
</mgrwt>
</event>
<event>
12    1  0.1444206E-007  0.4904273E+03  0.7818608E-02  0.1016308E+00
          1   -1    0    0  501    0  0.00000000000E+00  0.00000000000E+00  0.12065351898E+04  0.12065351898E+04  0.00000000000E+00 0. -1.
         -1   -1    0    0    0  501 -0.00000000000E+00 -0.00000000000E+00 -0.24927394835E+03  0.24927394835E+03  0.00000000000E+00 0.  1.
         23    2    1    2    0    0  0.51596122079E+02  0.31773194729E+03  0.60037712243E+03  0.68704759910E+03  0.89252250072E+02 0.  0.
    5000000    2    1    2    0    0 -0.51596122079E+02 -0.31773194729E+03  0.35688411904E+03  0.76876153909E+03  0.60001023275E+03 0.  0.
         23    2    4    4    0    0  0.24648629772E+03 -0.13627266669E+03  0.63197317821E+02  0.30312636281E+03  0.92552451084E+02 0.  0.
         23    2    4    4    0    0 -0.29808241980E+03 -0.18145928060E+03  0.29368680122E+03  0.46563517628E+03  0.93720758970E+02 0.  0.
          4    1    3    3  502    0  0.15500952583E+02  0.27172928137E+03  0.45273604076E+03  0.52824899857E+03  0.00000000000E+00 0. -1.
         -4    1    3    3    0  502  0.36095169497E+02  0.46002665918E+02  0.14764108166E+03  0.15879860052E+03  0.00000000000E+00 0.  1.
         13    1    5    5    0    0  0.99221139013E+02 -0.19806188419E+02  0.55074772749E+02  0.11519700569E+03  0.00000000000E+00 0.  1.
        -13    1    5    5    0    0  0.14726515871E+03 -0.11646647827E+03  0.81225450720E+01  0.18792935712E+03  0.00000000000E+00 0. -1.
          2    1    6    6  503    0 -0.19583015513E+03 -0.65082583963E+02  0.17189540189E+03  0.26857628634E+03  0.00000000000E+00 0. -1.
         -2    1    6    6    0  503 -0.10225226467E+03 -0.11637669664E+03  0.12179139933E+03  0.19705888994E+03  0.00000000000E+00 0.  1.
<mgrwt>
<rscale>  0 0.49042734E+03</rscale>
<asrwt>0</asrwt>
<pdfrwt beam="1">  1        1 0.18562080E+00 0.49042734E+03</pdfrwt>
<pdfrwt beam="2">  1       -1 0.38349839E-01 0.49042734E+03</pdfrwt>
<totfact> 0.73279569E+01</totfact>
</mgrwt>
</event>
<event>
12    1  0.1444206E-007  0.1187830E+04  0.7818608E-02  0.9123576E-01
         -2   -1    0    0    0  501 -0.00000000000E+00  0.00000000000E+00  0.51222073239E+03  0.51222073239E+03  0.00000000000E+00 0.  1.
          2   -1    0    0  501    0  0.00000000000E+00 -0.00000000000E+00 -0.29407224598E+04  0.29407224598E+04  0.00000000000E+00 0. -1.
         23    2    1    2    0    0 -0.32480237979E+03 -0.10882440577E+04 -0.87072080593E+03  0.14339533884E+04  0.91081739391E+02 0.  0.
    5000000    2    1    2    0    0  0.32480237979E+03  0.10882440577E+04 -0.15577809215E+04  0.20189898038E+04  0.59988891761E+03 0.  0.
         23    2    4    4    0    0  0.36467706734E+03  0.40338003622E+03 -0.95120062895E+03  0.10997180147E+04  0.94298770829E+02 0.  0.
         23    2    4    4    0    0 -0.39874687550E+02  0.68486402147E+03 -0.60658029257E+03  0.91927178917E+03  0.80574514672E+02 0.  0.
          3    1    3    3  502    0 -0.16307002154E+03 -0.44726245628E+03 -0.40868700879E+03  0.62742378651E+03  0.00000000000E+00 0. -1.
         -3    1    3    3    0  502 -0.16173235825E+03 -0.64098160141E+03 -0.46203379713E+03  0.80652960190E+03  0.00000000000E+00 0.  1.
         11    1    5    5    0    0  0.32510848807E+03  0.32345526576E+03 -0.74178498550E+03  0.87210309177E+03  0.00000000000E+00 0. -1.
        -11    1    5    5    0    0  0.39568579270E+02  0.79924770463E+02 -0.20941564345E+03  0.22761492289E+03  0.00000000000E+00 0.  1.
          3    1    6    6  503    0  0.24242005010E+02  0.24988128548E+03 -0.21934218729E+03  0.33337565413E+03  0.00000000000E+00 0. -1.
         -3    1    6    6    0  503 -0.64116692559E+02  0.43498273599E+03 -0.38723810528E+03  0.58589613504E+03  0.00000000000E+00 0.  1.
<mgrwt>
<rscale>  0 0.11878296E+04</rscale>
<asrwt>0</asrwt>
<pdfrwt beam="1">  1        2 0.45241884E+00 0.11878296E+04</pdfrwt>
<pdfrwt beam="2">  1       -2 0.78803190E-01 0.11878296E+04</pdfrwt>
<totfact> 0.26952883E+00</totfact>
</mgrwt>
</event>
<event>
12    1  0.1444206E-007  0.5704000E+03  0.7818608E-02  0.9968794E-01
         -1   -1    0    0    0  501 -0.00000000000E+00  0.00000000000E+00  0.48182920946E+03  0.48182920946E+03  0.00000000000E+00 0.  1.
          1   -1    0    0  501    0  0.00000000000E+00 -0.00000000000E+00 -0.73091886904E+03  0.73091886904E+03  0.00000000000E+00 0. -1.
         23    2    1    2    0    0  0.26818263387E+03 -0.31816587995E+03 -0.22618582846E+03  0.48221723046E+03  0.90675112853E+02 0.  0.
    5000000    2    1    2    0    0 -0.26818263387E+03  0.31816587995E+03 -0.22903831120E+02  0.73053084804E+03  0.59999940182E+03 0.  0.
         23    2    4    4    0    0  0.17855079153E+03  0.92211056555E+02 -0.22927970506E+02  0.22216315944E+03  0.91910355645E+02 0.  0.
         23    2    4    4    0    0 -0.44673342540E+03  0.22595482339E+03  0.24139385472E-01  0.50836768859E+03  0.88381958799E+02 0.  0.
          3    1    3    3  502    0  0.19681021628E+03 -0.16475309356E+03 -0.13468196779E+03  0.28985699149E+03  0.00000000000E+00 0. -1.
         -3    1    3    3    0  502  0.71372417585E+02 -0.15341278639E+03 -0.91503860666E+02  0.19236023897E+03  0.00000000000E+00 0.  1.
         13    1    5    5    0    0  0.19532419944E+02 -0.74533622064E+01  0.20773990574E+02  0.29472473961E+02  0.00000000000E+00 0.  1.
        -13    1    5    5    0    0  0.15901837159E+03  0.99664418762E+02 -0.43701961079E+02  0.19269068548E+03  0.00000000000E+00 0. -1.
          2    1    6    6  503    0 -0.38793283168E+03  0.16470687455E+03  0.16955868016E+02  0.42179110693E+03  0.00000000000E+00 0.  1.
         -2    1    6    6    0  503 -0.58800593714E+02  0.61247948846E+02 -0.16931728630E+02  0.86576581668E+02  0.00000000000E+00 0. -1.
<mgrwt>
<rscale>  0 0.57039998E+03</rscale>
<asrwt>0</asrwt>
<pdfrwt beam="1">  1        1 0.11244906E+00 0.57039998E+03</pdfrwt>
<pdfrwt beam="2">  1       -1 0.74127571E-01 0.57039998E+03</pdfrwt>
<totfact> 0.48684314E+01</totfact>
</mgrwt>
</event>
<event>
12    1  0.1444206E-007  0.4352606E+03  0.7818608E-02  0.1032211E+00
         -1   -1    0    0    0  501 -0.00000000000E+00  0.00000000000E+00  0.57922598381E+03  0.57922598381E+03  0.00000000000E+00 0.  1.
          1   -1    0    0  501    0  0.00000000000E+00 -0.00000000000E+00 -0.55352683345E+03  0.55352683345E+03  0.00000000000E+00 0. -1.
         23    2    1    2    0    0 -0.23586886859E+03 -0.90676569476E+02 -0.30149640403E+03  0.40454897502E+03  0.94357978604E+02 0.  0.
    5000000    2    1    2    0    0  0.23586886859E+03  0.90676569476E+02  0.32719555439E+03  0.72820384223E+03  0.59947271965E+03 0.  0.
         23    2    4    4    0    0  0.34390333551E+03 -0.11217940570E+03  0.30176970706E+03  0.48002362161E+03  0.92217124026E+02 0.  0.
         23    2    4    4    0    0 -0.10803446692E+03  0.20285597518E+03  0.25425847324E+02  0.24818022062E+03  0.90138534969E+02 0.  0.
          1    1    3    3  502    0 -0.55717594765E+02  0.16723497146E+02 -0.86082031783E+02  0.10389534118E+03  0.00000000000E+00 0. -1.
         -1    1    3    3    0  502 -0.18015127383E+03 -0.10740006662E+03 -0.21541437225E+03  0.30065363384E+03  0.00000000000E+00 0.  1.
         13    1    5    5    0    0  0.15775752117E+03 -0.56973951085E+02  0.81774005865E+02  0.18660239716E+03  0.00000000000E+00 0.  1.
        -13    1    5    5    0    0  0.18614581434E+03 -0.55205454620E+02  0.21999570120E+03  0.29342122445E+03  0.00000000000E+00 0. -1.
          3    1    6    6  503    0 -0.89471631317E+02  0.20333896372E+03  0.38507866610E+02  0.22546565762E+03  0.00000000000E+00 0. -1.
         -3    1    6    6    0  503 -0.18562835599E+02 -0.48298854037E+00 -0.13082019286E+02  0.22714562994E+02  0.00000000000E+00 0.  1.
<mgrwt>
<rscale>  0 0.43526062E+03</rscale>
<asrwt>0</asrwt>
<pdfrwt beam="1">  1        1 0.85157974E-01 0.43526062E+03</pdfrwt>
<pdfrwt beam="2">  1       -1 0.89111690E-01 0.43526062E+03</pdfrwt>
<totfact> 0.50236046E+01</totfact>
</mgrwt>
</event>
<event>
12    1  0.1444206E-007  0.6517226E+03  0.7818608E-02  0.9803552E-01
         -2   -1    0    0    0  501 -0.00000000000E+00  0.00000000000E+00  0.53649636537E+03  0.53649636537E+03  0.00000000000E+00 0.  1.
          2   -1    0    0  501    0  0.00000000000E+00 -0.00000000000E+00 -0.11879134682E+04  0.11879134682E+04  0.00000000000E+00 0. -1.
         23    2    1    2    0    0 -0.55244035075E+03  0.29734992419E+03  0.75883187164E+01  0.63448691000E+03  0.94386110382E+02 0.  0.
    5000000    2    1    2    0    0  0.55244035075E+03 -0.29734992419E+03 -0.65900542151E+03  0.10899229235E+04  0.60003042848E+03 0.  0.
         23    2    4    4    0    0  0.18904496087E+03 -0.23276179663E+03  0.17711758542E+02  0.31376205577E+03  0.90646952793E+02 0.  0.
         23    2    4    4    0    0  0.36339538988E+03 -0.64588127561E+02 -0.67671718005E+03  0.77616086776E+03  0.90838952296E+02 0.  0.
          1    1    3    3  502    0 -0.22013854850E+02  0.23467120876E+02  0.19091155584E+02  0.37413737973E+02  0.00000000000E+00 0. -1.
         -1    1    3    3    0  502 -0.53042649590E+03  0.27388280331E+03 -0.11502836867E+02  0.59707317203E+03  0.00000000000E+00 0.  1.
         13    1    5    5    0    0  0.62966672148E+02 -0.86660783013E+02  0.49802678683E+02  0.11813212907E+03  0.00000000000E+00 0.  1.
        -13    1    5    5    0    0  0.12607828872E+03 -0.14610101361E+03 -0.32090920141E+02  0.19562992670E+03  0.00000000000E+00 0. -1.
          1    1    6    6  503    0  0.10385988431E+03  0.95245173558E+01 -0.13192007959E+03  0.16816806890E+03  0.00000000000E+00 0. -1.
         -1    1    6    6    0  503  0.25953550557E+03 -0.74112644916E+02 -0.54479710046E+03  0.60799279886E+03  0.00000000000E+00 0.  1.
<mgrwt>
<rscale>  0 0.65172256E+03</rscale>
<asrwt>0</asrwt>
<pdfrwt beam="1">  1        2 0.18275592E+00 0.65172256E+03</pdfrwt>
<pdfrwt beam="2">  1       -2 0.82537903E-01 0.65172256E+03</pdfrwt>
<totfact> 0.25559700E+01</totfact>
</mgrwt>
</event>
<event>
12    1  0.1444206E-007  0.8444773E+03  0.7818608E-02  0.9497780E-01
         -2   -1    0    0    0  501 -0.00000000000E+00  0.00000000000E+00  0.21017201372E+04  0.21017201372E+04  0.00000000000E+00 0.  1.
          2   -1    0    0  501    0  0.00000000000E+00 -0.00000000000E+00 -0.10974923430E+04  0.10974923430E+04  0.00000000000E+00 0. -1.
         23    2    1    2    0    0 -0.76440153507E+03  0.33584034771E+03  0.17419309531E+04  0.19337329669E+04  0.88889234333E+02 0.  0.
    5000000    2    1    2    0    0  0.76440153507E+03 -0.33584034771E+03 -0.73770315892E+03  0.12654795132E+04  0.60011165767E+03 0.  0.
         23    2    4    4    0    0  0.55541512848E+03 -0.26365650036E+03 -0.80471183288E+03  0.10167879282E+04  0.91081512025E+02 0.  0.
         23    2    4    4    0    0  0.20898640659E+03 -0.72183847355E+02  0.67008673959E+02  0.24869158500E+03  0.92040839333E+02 0.  0.
          3    1    3    3  502    0 -0.18289101772E+03  0.10342333118E+03  0.51536475361E+03  0.55654859542E+03  0.00000000000E+00 0. -1.
         -3    1    3    3    0  502 -0.58151051735E+03  0.23241701653E+03  0.12265661995E+04  0.13771843715E+04  0.00000000000E+00 0.  1.
         13    1    5    5    0    0  0.39539846236E+03 -0.16690526323E+03 -0.49647275407E+03  0.65626405240E+03  0.00000000000E+00 0. -1.
        -13    1    5    5    0    0  0.16001666612E+03 -0.96751237128E+02 -0.30823907880E+03  0.36052387580E+03  0.00000000000E+00 0.  1.
          1    1    6    6  503    0  0.98636034363E+02 -0.78269187238E+02  0.15862388954E+02  0.12691236476E+03  0.00000000000E+00 0. -1.
         -1    1    6    6    0  503  0.11035037223E+03  0.60853398832E+01  0.51146285004E+02  0.12177922024E+03  0.00000000000E+00 0.  1.
<mgrwt>
<rscale>  0 0.84447726E+03</rscale>
<asrwt>0</asrwt>
<pdfrwt beam="1">  1        2 0.16884498E+00 0.84447726E+03</pdfrwt>
<pdfrwt beam="2">  1       -2 0.32334156E+00 0.84447726E+03</pdfrwt>
<totfact> 0.51629209E-01</totfact>
</mgrwt>
</event>
<event>
12    1  0.1444206E-007  0.4357892E+03  0.7818608E-02  0.1032047E+00
          2   -1    0    0  501    0  0.00000000000E+00  0.00000000000E+00  0.20911671010E+04  0.20911671010E+04  0.00000000000E+00 0. -1.
         -2   -1    0    0    0  501 -0.00000000000E+00 -0.00000000000E+00 -0.12364405398E+03  0.12364405398E+03  0.00000000000E+00 0.  1.
         23    2    1    2    0    0  0.26646450805E+03 -0.99972210443E+02  0.32358165850E+03  0.44180138008E+03  0.97394008063E+02 0.  0.
    5000000    2    1    2    0    0 -0.26646450805E+03  0.99972210443E+02  0.16439413885E+04  0.17730097749E+04  0.60001882982E+03 0.  0.
         23    2    4    4    0    0 -0.98715591980E+02  0.30533648429E+03  0.12261719816E+04  0.12705175934E+04  0.87989146233E+02 0.  0.
         23    2    4    4    0    0 -0.16774891607E+03 -0.20536427385E+03  0.41776940695E+03  0.50249218158E+03  0.87481034206E+02 0.  0.
          3    1    3    3  502    0  0.19725233226E+03 -0.63867735230E+02  0.29077631613E+03  0.35712523883E+03  0.00000000000E+00 0. -1.
         -3    1    3    3    0  502  0.69212175794E+02 -0.36104475212E+02  0.32805342366E+02  0.84676141246E+02  0.00000000000E+00 0.  1.
         11    1    5    5    0    0 -0.83896225609E+02  0.24877575568E+03  0.84378154030E+03  0.88368277172E+03  0.00000000000E+00 0. -1.
        -11    1    5    5    0    0 -0.14819366371E+02  0.56560728613E+02  0.38239044129E+03  0.38683482163E+03  0.00000000000E+00 0.  1.
          3    1    6    6  503    0 -0.12947577434E+03 -0.15908446698E+03  0.24468212164E+03  0.31928229582E+03  0.00000000000E+00 0. -1.
         -3    1    6    6    0  503 -0.38273141730E+02 -0.46279806868E+02  0.17308728531E+03  0.18320988576E+03  0.00000000000E+00 0.  1.
<mgrwt>
<rscale>  0 0.43578925E+03</rscale>
<asrwt>0</asrwt>
<pdfrwt beam="1">  1        2 0.32171799E+00 0.43578925E+03</pdfrwt>
<pdfrwt beam="2">  1       -2 0.19022164E-01 0.43578925E+03</pdfrwt>
<totfact> 0.14805096E+02</totfact>
</mgrwt>
</event>
<event>
12    1  0.1444206E-007  0.3918541E+03  0.7818608E-02  0.1046637E+00
          1   -1    0    0  501    0  0.00000000000E+00  0.00000000000E+00  0.11860361759E+04  0.11860361759E+04  0.00000000000E+00 0. -1.
         -1   -1    0    0    0  501 -0.00000000000E+00 -0.00000000000E+00 -0.16242522450E+03  0.16242522450E+03  0.00000000000E+00 0.  1.
         23    2    1    2    0    0  0.20775331372E+03  0.53125024672E+02  0.35687201589E+03  0.42622825308E+03  0.91264343453E+02 0.  0.
    5000000    2    1    2    0    0 -0.20775331372E+03 -0.53125024672E+02  0.66673893550E+03  0.92223314732E+03  0.59999121852E+03 0.  0.
         23    2    4    4    0    0  0.16600704365E+03 -0.25931565412E+02  0.42997509835E+03  0.47113921661E+03  0.94142400657E+02 0.  0.
         23    2    4    4    0    0 -0.37376035737E+03 -0.27193459260E+02  0.23676383715E+03  0.45109393071E+03  0.83620157718E+02 0.  0.
          4    1    3    3  502    0  0.17299971204E+03  0.61029182428E+01  0.28647882327E+03  0.33471818319E+03  0.00000000000E+00 0. -1.
         -4    1    3    3    0  502  0.34753601675E+02  0.47022106429E+02  0.70393192626E+02  0.91510069885E+02  0.00000000000E+00 0.  1.
         13    1    5    5    0    0  0.12866491847E+03 -0.16472980983E+02  0.20290316369E+03  0.24082299347E+03  0.00000000000E+00 0.  1.
        -13    1    5    5    0    0  0.37342125177E+02 -0.94585844283E+01  0.22707193466E+03  0.23031622314E+03  0.00000000000E+00 0. -1.
          1    1    6    6  503    0 -0.15840941184E+03  0.29663331852E+02  0.95111192053E+02  0.18713522883E+03  0.00000000000E+00 0. -1.
         -1    1    6    6    0  503 -0.21535094553E+03 -0.56856791113E+02  0.14165264510E+03  0.26395870188E+03  0.00000000000E+00 0.  1.
<mgrwt>
<rscale>  0 0.39185408E+03</rscale>
<asrwt>0</asrwt>
<pdfrwt beam="1">  1        1 0.18246710E+00 0.39185408E+03</pdfrwt>
<pdfrwt beam="2">  1       -1 0.24988497E-01 0.39185408E+03</pdfrwt>
<totfact> 0.16154261E+02</totfact>
</mgrwt>
</event>
<event>
12    1  0.1444206E-007  0.1214632E+04  0.7818608E-02  0.9100144E-01
         -2   -1    0    0    0  501 -0.00000000000E+00  0.00000000000E+00  0.89197572255E+03  0.89197572255E+03  0.00000000000E+00 0.  1.
          2   -1    0    0  501    0  0.00000000000E+00 -0.00000000000E+00 -0.17880334686E+04  0.17880334686E+04  0.00000000000E+00 0. -1.
         23    2    1    2    0    0  0.10903182294E+04  0.39173555868E+03 -0.71054811599E+03  0.13621704109E+04  0.91536953650E+02 0.  0.
    5000000    2    1    2    0    0 -0.10903182294E+04 -0.39173555868E+03 -0.18550963001E+03  0.13178387802E+04  0.60002886466E+03 0.  0.
         23    2    4    4    0    0 -0.11288953171E+04 -0.36215152214E+03 -0.12115474862E+03  0.11953631507E+04  0.93038846759E+02 0.  0.
         23    2    4    4    0    0  0.38577087654E+02 -0.29584036542E+02 -0.64354881389E+02  0.12247562951E+03  0.92170071907E+02 0.  0.
          1    1    3    3  502    0  0.70725178264E+03  0.23083709878E+03 -0.41086178946E+03  0.84988132128E+03  0.00000000000E+00 0. -1.
         -1    1    3    3    0  502  0.38306644678E+03  0.16089845990E+03 -0.29968632653E+03  0.51228908963E+03  0.00000000000E+00 0.  1.
         13    1    5    5    0    0 -0.97290815123E+03 -0.29508862197E+03 -0.13208698880E+03  0.10252192635E+04  0.00000000000E+00 0. -1.
        -13    1    5    5    0    0 -0.15598716584E+03 -0.67062900168E+02  0.10932240185E+02  0.17014388723E+03  0.00000000000E+00 0.  1.
          4    1    6    6  503    0 -0.19624542984E+02 -0.92032893030E+01 -0.56245880712E+02  0.60277875862E+02  0.00000000000E+00 0. -1.
         -4    1    6    6    0  503  0.58201630638E+02 -0.20380747239E+02 -0.81090006775E+01  0.62197753649E+02  0.00000000000E+00 0.  1.
<mgrwt>
<rscale>  0 0.12146323E+04</rscale>
<asrwt>0</asrwt>
<pdfrwt beam="1">  1        2 0.27508207E+00 0.12146323E+04</pdfrwt>
<pdfrwt beam="2">  1       -2 0.13722704E+00 0.12146323E+04</pdfrwt>
<totfact> 0.32217913E+00</totfact>
</mgrwt>
</event>
<event>
12    1  0.1444206E-007  0.7070970E+03  0.7818608E-02  0.9705172E-01
          1   -1    0    0  501    0  0.00000000000E+00  0.00000000000E+00  0.80996396119E+03  0.80996396119E+03  0.00000000000E+00 0. -1.
         -1   -1    0    0    0  501 -0.00000000000E+00 -0.00000000000E+00 -0.68098831426E+03  0.68098831426E+03  0.00000000000E+00 0.  1.
         23    2    1    2    0    0  0.57252743903E+03 -0.13520777826E+03 -0.13427424611E+03  0.61034054991E+03  0.91745310256E+02 0.  0.
    5000000    2    1    2    0    0 -0.57252743903E+03  0.13520777826E+03  0.26324989303E+03  0.88061172554E+03  0.60008973765E+03 0.  0.
         23    2    4    4    0    0  0.10079377063E+03  0.44739880941E+02  0.10321940816E+03  0.17681746783E+03  0.91919146875E+02 0.  0.
         23    2    4    4    0    0 -0.67332120966E+03  0.90467897319E+02  0.16003048487E+03  0.70379425771E+03  0.90391975727E+02 0.  0.
          2    1    3    3  502    0  0.27435670452E+03 -0.84391335796E+02 -0.22665556995E+02  0.28793614977E+03  0.00000000000E+00 0. -1.
         -2    1    3    3    0  502  0.29817073451E+03 -0.50816442464E+02 -0.11160868911E+03  0.32240440014E+03  0.00000000000E+00 0.  1.
         13    1    5    5    0    0  0.86818459959E+02  0.72085169633E+02  0.80316099768E+02  0.13850773463E+03  0.00000000000E+00 0.  1.
        -13    1    5    5    0    0  0.13975310673E+02 -0.27345288692E+02  0.22903308396E+02  0.38309733196E+02  0.00000000000E+00 0. -1.
          1    1    6    6  503    0 -0.14042712054E+03 -0.10582112533E+01  0.65262983309E+02  0.15485526464E+03  0.00000000000E+00 0. -1.
         -1    1    6    6    0  503 -0.53289408912E+03  0.91526108573E+02  0.94767501561E+02  0.54893899308E+03  0.00000000000E+00 0.  1.
<mgrwt>
<rscale>  0 0.70709698E+03</rscale>
<asrwt>0</asrwt>
<pdfrwt beam="1">  1        1 0.12460984E+00 0.70709698E+03</pdfrwt>
<pdfrwt beam="2">  1       -1 0.10476743E+00 0.70709698E+03</pdfrwt>
<totfact> 0.19161803E+01</totfact>
</mgrwt>
</event>
<event>
12    1  0.1444206E-007  0.2411997E+04  0.7818608E-02  0.8435026E-01
          2   -1    0    0  501    0  0.00000000000E+00  0.00000000000E+00  0.14878755842E+04  0.14878755842E+04  0.00000000000E+00 0. -1.
         -2   -1    0    0    0  501 -0.00000000000E+00 -0.00000000000E+00 -0.49847168058E+04  0.49847168058E+04  0.00000000000E+00 0.  1.
         23    2    1    2    0    0  0.21878699790E+04 -0.96469357639E+03 -0.31909586575E+04  0.39885005603E+04  0.92254131836E+02 0.  0.
    5000000    2    1    2    0    0 -0.21878699790E+04  0.96469357639E+03 -0.30588256417E+03  0.24840918297E+04  0.59978273901E+03 0.  0.
         23    2    4    4    0    0 -0.29491238784E+02  0.79739184746E+01 -0.42916898565E+02  0.10682602877E+03  0.92933436925E+02 0.  0.
         23    2    4    4    0    0 -0.21583787402E+04  0.95671965792E+03 -0.26296566561E+03  0.23772658009E+04  0.91271337100E+02 0.  0.
          4    1    3    3  502    0  0.92143345282E+03 -0.35825920068E+03 -0.12992697996E+04  0.16326332335E+04  0.00000000000E+00 0. -1.
         -4    1    3    3    0  502  0.12664365262E+04 -0.60643437571E+03 -0.18916888579E+04  0.23558673269E+04  0.00000000000E+00 0.  1.
         11    1    5    5    0    0 -0.21310552034E+02 -0.26041258956E+02 -0.59310038356E+02  0.68190669786E+02  0.00000000000E+00 0.  1.
        -11    1    5    5    0    0 -0.81806867502E+01  0.34015177430E+02  0.16393139791E+02  0.38635358980E+02  0.00000000000E+00 0. -1.
          4    1    6    6  503    0 -0.18019294506E+04  0.83427500752E+03 -0.22874377662E+03  0.19988217150E+04  0.00000000000E+00 0. -1.
         -4    1    6    6    0  503 -0.35644928964E+03  0.12244465040E+03 -0.34221888986E+02  0.37844408594E+03  0.00000000000E+00 0.  1.
<mgrwt>
<rscale>  0 0.24119967E+04</rscale>
<asrwt>0</asrwt>
<pdfrwt beam="1">  1        2 0.22890393E+00 0.24119967E+04</pdfrwt>
<pdfrwt beam="2">  1       -2 0.76687952E+00 0.24119967E+04</pdfrwt>
<totfact> 0.13081473E-03</totfact>
</mgrwt>
</event>
<event>
12    1  0.1444206E-007  0.1488373E+04  0.7818608E-02  0.8892222E-01
          2   -1    0    0  501    0  0.00000000000E+00  0.00000000000E+00  0.98955172206E+03  0.98955172206E+03  0.00000000000E+00 0.  1.
         -2   -1    0    0    0  501 -0.00000000000E+00 -0.00000000000E+00 -0.23024696736E+04  0.23024696736E+04  0.00000000000E+00 0. -1.
         23    2    1    2    0    0  0.98313301107E+03  0.10590642762E+04 -0.52591814152E+03  0.15405889733E+04  0.93042112245E+02 0.  0.
    5000000    2    1    2    0    0 -0.98313301107E+03 -0.10590642762E+04 -0.78699981006E+03  0.17514324223E+04  0.59998264178E+03 0.  0.
         23    2    4    4    0    0 -0.31409158951E+02  0.15890478913E+02  0.23395141488E+02  0.10023406967E+03  0.90887257032E+02 0.  0.
         23    2    4    4    0    0 -0.95172385212E+03 -0.10749547551E+04 -0.81039495155E+03  0.16511983527E+04  0.91706085749E+02 0.  0.
          3    1    3    3  502    0  0.72474325341E+03  0.82519781861E+03 -0.42646873785E+03  0.11781679878E+04  0.00000000000E+00 0. -1.
         -3    1    3    3    0  502  0.25838975766E+03  0.23386645758E+03 -0.99449403667E+02  0.36242098551E+03  0.00000000000E+00 0.  1.
         11    1    5    5    0    0  0.16447843191E+02 -0.24395115060E+02  0.23537003649E+02  0.37678159790E+02  0.00000000000E+00 0. -1.
        -11    1    5    5    0    0 -0.47857002142E+02  0.40285593973E+02 -0.14186216136E+00  0.62555909878E+02  0.00000000000E+00 0.  1.
          1    1    6    6  503    0 -0.48873923735E+03 -0.61257542777E+03 -0.46659899273E+03  0.91204677339E+03  0.00000000000E+00 0. -1.
         -1    1    6    6    0  503 -0.46298461477E+03 -0.46237932733E+03 -0.34379595882E+03  0.73915157929E+03  0.00000000000E+00 0.  1.
<mgrwt>
<rscale>  0 0.14883732E+04</rscale>
<asrwt>0</asrwt>
<pdfrwt beam="1">  1        2 0.15223873E+00 0.14883732E+04</pdfrwt>
<pdfrwt beam="2">  1       -2 0.35422610E+00 0.14883732E+04</pdfrwt>
<totfact> 0.35584243E-01</totfact>
</mgrwt>
</event>
<event>
12    1  0.1444206E-007  0.4826396E+03  0.7818608E-02  0.1018412E+00
          2   -1    0    0  501    0  0.00000000000E+00  0.00000000000E+00  0.12951495469E+04  0.12951495469E+04  0.00000000000E+00 0.  1.
         -2   -1    0    0    0  501 -0.00000000000E+00 -0.00000000000E+00 -0.31973881049E+03  0.31973881049E+03  0.00000000000E+00 0. -1.
         23    2    1    2    0    0 -0.58021017371E+02 -0.30492866995E+03 -0.10233446047E+03  0.34283282437E+03  0.10350879889E+03 0.  0.
    5000000    2    1    2    0    0  0.58021017371E+02  0.30492866995E+03  0.10777451968E+04  0.12720555330E+04  0.60020216386E+03 0.  0.
         23    2    4    4    0    0  0.14494108282E+03 -0.12706993216E+03  0.24613662164E+03  0.32623520862E+03  0.93228159281E+02 0.  0.
         23    2    4    4    0    0 -0.86920065450E+02  0.43199860212E+03  0.83160857520E+03  0.94582032437E+03  0.93943459801E+02 0.  0.
          1    1    3    3  502    0 -0.61443201829E+02 -0.18725931100E+03 -0.17756388879E+02  0.19788028187E+03  0.00000000000E+00 0. -1.
         -1    1    3    3    0  502  0.34221844583E+01 -0.11766935896E+03 -0.84578071586E+02  0.14495254250E+03  0.00000000000E+00 0.  1.
         13    1    5    5    0    0  0.92183423867E+02 -0.45432924553E+02  0.67773913409E+02  0.12310661074E+03  0.00000000000E+00 0. -1.
        -13    1    5    5    0    0  0.52757658954E+02 -0.81637007612E+02  0.17836270823E+03  0.20312859788E+03  0.00000000000E+00 0.  1.
          2    1    6    6  503    0 -0.50495772122E+02  0.39630333075E+03  0.73281239064E+03  0.83463773748E+03  0.00000000000E+00 0. -1.
         -2    1    6    6    0  503 -0.36424293328E+02  0.35695271373E+02  0.98796184561E+02  0.11118258689E+03  0.00000000000E+00 0.  1.
<mgrwt>
<rscale>  0 0.48263965E+03</rscale>
<asrwt>0</asrwt>
<pdfrwt beam="1">  1        2 0.19925377E+00 0.48263965E+03</pdfrwt>
<pdfrwt beam="2">  1       -2 0.49190587E-01 0.48263965E+03</pdfrwt>
<totfact> 0.68315617E+01</totfact>
</mgrwt>
</event>
<event>
12    1  0.1444206E-007  0.1140930E+04  0.7818608E-02  0.9166192E-01
         -2   -1    0    0    0  501 -0.00000000000E+00  0.00000000000E+00  0.71328412905E+03  0.71328412905E+03  0.00000000000E+00 0.  1.
          2   -1    0    0  501    0  0.00000000000E+00 -0.00000000000E+00 -0.20062031488E+04  0.20062031488E+04  0.00000000000E+00 0. -1.
         23    2    1    2    0    0  0.46625224626E+02 -0.10614764603E+04 -0.20751899381E+03  0.10864054614E+04  0.91140037823E+02 0.  0.
    5000000    2    1    2    0    0 -0.46625224626E+02  0.10614764603E+04 -0.10854000260E+04  0.16330818165E+04  0.59996401195E+03 0.  0.
         23    2    4    4    0    0  0.25450227016E+03  0.37466518683E+03 -0.44073250940E+03  0.63985815904E+03  0.10013945829E+03 0.  0.
         23    2    4    4    0    0 -0.30112749479E+03  0.68681127344E+03 -0.64466751659E+03  0.99322365745E+03  0.92247131790E+02 0.  0.
          4    1    3    3  502    0  0.61086660472E+02 -0.63026621108E+03 -0.92993854326E+02  0.64001166697E+03  0.00000000000E+00 0. -1.
         -4    1    3    3    0  502 -0.14461435846E+02 -0.43121024919E+03 -0.11452513948E+03  0.44639379444E+03  0.00000000000E+00 0.  1.
         11    1    5    5    0    0  0.25891549288E+03  0.34038113019E+03 -0.42070908752E+03  0.59991056213E+03  0.00000000000E+00 0.  1.
        -11    1    5    5    0    0 -0.44132227165E+01  0.34284056645E+02 -0.20023421887E+02  0.39947596910E+02  0.00000000000E+00 0. -1.
          2    1    6    6  503    0 -0.62578689404E+01  0.80528321878E+02 -0.56937011627E+02  0.98822036212E+02  0.00000000000E+00 0. -1.
         -2    1    6    6    0  503 -0.29486962585E+03  0.60628295157E+03 -0.58773050496E+03  0.89440162123E+03  0.00000000000E+00 0.  1.
<mgrwt>
<rscale>  0 0.11409303E+04</rscale>
<asrwt>0</asrwt>
<pdfrwt beam="1">  1        2 0.30864664E+00 0.11409303E+04</pdfrwt>
<pdfrwt beam="2">  1       -2 0.10973602E+00 0.11409303E+04</pdfrwt>
<totfact> 0.43091524E+00</totfact>
</mgrwt>
</event>
<event>
12    1  0.1444206E-007  0.7646855E+03  0.7818608E-02  0.9612589E-01
          2   -1    0    0  501    0  0.00000000000E+00  0.00000000000E+00  0.20488588288E+04  0.20488588288E+04  0.00000000000E+00 0. -1.
         -2   -1    0    0    0  501 -0.00000000000E+00 -0.00000000000E+00 -0.31307668226E+03  0.31307668226E+03  0.00000000000E+00 0.  1.
         23    2    1    2    0    0 -0.38739194387E+03  0.55813807772E+03  0.88484278352E+03  0.11186256579E+04  0.82377053202E+02 0.  0.
    5000000    2    1    2    0    0  0.38739194387E+03 -0.55813807772E+03  0.85093936305E+03  0.12433098532E+04  0.60010912308E+03 0.  0.
         23    2    4    4    0    0  0.84710161972E+02  0.94791105397E+02  0.60633645541E+02  0.17037904916E+03  0.95871873958E+02 0.  0.
         23    2    4    4    0    0  0.30268178190E+03 -0.65292918311E+03  0.79030571751E+03  0.10729308041E+04  0.93083854520E+02 0.  0.
          1    1    3    3  502    0 -0.14136567960E+03  0.19094898140E+03  0.24806379464E+03  0.34348422828E+03  0.00000000000E+00 0. -1.
         -1    1    3    3    0  502 -0.24602626427E+03  0.36718909631E+03  0.63677898888E+03  0.77514142958E+03  0.00000000000E+00 0.  1.
         13    1    5    5    0    0  0.27776654388E+02  0.18330339854E+02 -0.25480194473E+02  0.41914009574E+02  0.00000000000E+00 0.  1.
        -13    1    5    5    0    0  0.56933507585E+02  0.76460765543E+02  0.86113840013E+02  0.12846503958E+03  0.00000000000E+00 0. -1.
          3    1    6    6  503    0  0.29299540423E+03 -0.60406963232E+03  0.76225406695E+03  0.10157645840E+04  0.00000000000E+00 0. -1.
         -3    1    6    6    0  503  0.96863776729E+01 -0.48859550797E+02  0.28051650560E+02  0.57166220058E+02  0.00000000000E+00 0.  1.
<mgrwt>
<rscale>  0 0.76468552E+03</rscale>
<asrwt>0</asrwt>
<pdfrwt beam="1">  1        2 0.31520904E+00 0.76468552E+03</pdfrwt>
<pdfrwt beam="2">  1       -2 0.48165645E-01 0.76468552E+03</pdfrwt>
<totfact> 0.26446508E+01</totfact>
</mgrwt>
</event>
<event>
12    1  0.1444206E-007  0.6143674E+03  0.7818608E-02  0.9876039E-01
          1   -1    0    0  501    0  0.00000000000E+00  0.00000000000E+00  0.45475600156E+03  0.45475600156E+03  0.00000000000E+00 0. -1.
         -1   -1    0    0    0  501 -0.00000000000E+00 -0.00000000000E+00 -0.88862334289E+03  0.88862334289E+03  0.00000000000E+00 0.  1.
         23    2    1    2    0    0  0.48478612800E+03  0.14786826494E+02 -0.10213719372E+03  0.50357154665E+03  0.88972221031E+02 0.  0.
    5000000    2    1    2    0    0 -0.48478612800E+03 -0.14786826494E+02 -0.33173014761E+03  0.83980779781E+03  0.59999667190E+03 0.  0.
         23    2    4    4    0    0  0.39682385018E+02  0.15877682119E+03 -0.18078462463E+03  0.25998061315E+03  0.90122517067E+02 0.  0.
         23    2    4    4    0    0 -0.52446851301E+03 -0.17356364769E+03 -0.15094552299E+03  0.57982718466E+03  0.90683252143E+02 0.  0.
          3    1    3    3  502    0  0.27397548397E+02 -0.76047174858E+01  0.13178842747E+02  0.31339101492E+02  0.00000000000E+00 0. -1.
         -3    1    3    3    0  502  0.45738857960E+03  0.22391543980E+02 -0.11531603647E+03  0.47223244515E+03  0.00000000000E+00 0.  1.
         13    1    5    5    0    0 -0.40030316422E-01  0.14333641459E+03 -0.14950256866E+03  0.20711433409E+03  0.00000000000E+00 0. -1.
        -13    1    5    5    0    0  0.39722415334E+02  0.15440406609E+02 -0.31282055965E+02  0.52866279060E+02  0.00000000000E+00 0.  1.
          3    1    6    6  503    0 -0.31810725508E+03 -0.70855971222E+02 -0.11980145047E+03  0.34722497308E+03  0.00000000000E+00 0. -1.
         -3    1    6    6    0  503 -0.20636125793E+03 -0.10270767647E+03 -0.31144072516E+02  0.23260221158E+03  0.00000000000E+00 0.  1.
<mgrwt>
<rscale>  0 0.61436738E+03</rscale>
<asrwt>0</asrwt>
<pdfrwt beam="1">  1        1 0.69962463E-01 0.61436738E+03</pdfrwt>
<pdfrwt beam="2">  1       -1 0.13671128E+00 0.61436738E+03</pdfrwt>
<totfact> 0.23430271E+01</totfact>
</mgrwt>
</event>
<event>
12    1  0.1444206E-007  0.6628714E+03  0.7818608E-02  0.9782922E-01
         -1   -1    0    0    0  501 -0.00000000000E+00  0.00000000000E+00  0.14149027591E+04  0.14149027591E+04  0.00000000000E+00 0.  1.
          1   -1    0    0  501    0  0.00000000000E+00 -0.00000000000E+00 -0.36523897985E+03  0.36523897985E+03  0.00000000000E+00 0. -1.
         23    2    1    2    0    0 -0.52048479318E+03 -0.14104478858E+03  0.72909585812E+03  0.91154687740E+03  0.92406098556E+02 0.  0.
    5000000    2    1    2    0    0  0.52048479318E+03  0.14104478858E+03  0.32056792111E+03  0.86859486153E+03  0.60074552775E+03 0.  0.
         23    2    4    4    0    0  0.60818258002E+03  0.22445417586E+03  0.26961483965E+03  0.70815605931E+03  0.92342378590E+02 0.  0.
         23    2    4    4    0    0 -0.87697786840E+02 -0.83409387280E+02  0.50953081467E+02  0.16043880222E+03  0.92175729139E+02 0.  0.
          3    1    3    3  502    0 -0.85687370217E+02  0.72368056629E+01  0.90013210253E+02  0.12448724750E+03  0.00000000000E+00 0. -1.
         -3    1    3    3    0  502 -0.43479742297E+03 -0.14828159424E+03  0.63908264786E+03  0.78705962989E+03  0.00000000000E+00 0.  1.
         11    1    5    5    0    0  0.31437682664E+03  0.15011269451E+03  0.10824164596E+03  0.36480524133E+03  0.00000000000E+00 0. -1.
        -11    1    5    5    0    0  0.29380575339E+03  0.74341481345E+02  0.16137319369E+03  0.34335081799E+03  0.00000000000E+00 0.  1.
          1    1    6    6  503    0 -0.28491771831E+02 -0.24138732227E+01  0.52854370906E+02  0.60093197368E+02  0.00000000000E+00 0. -1.
         -1    1    6    6    0  503 -0.59206015008E+02 -0.80995514058E+02 -0.19012894394E+01  0.10034560485E+03  0.00000000000E+00 0.  1.
<mgrwt>
<rscale>  0 0.66287145E+03</rscale>
<asrwt>0</asrwt>
<pdfrwt beam="1">  1        1 0.56190613E-01 0.66287145E+03</pdfrwt>
<pdfrwt beam="2">  1       -1 0.21767735E+00 0.66287145E+03</pdfrwt>
<totfact> 0.80794524E+00</totfact>
</mgrwt>
</event>
<event>
12    1  0.1444206E-007  0.5712984E+03  0.7818608E-02  0.9966809E-01
         -1   -1    0    0    0  501 -0.00000000000E+00  0.00000000000E+00  0.53743539036E+03  0.53743539036E+03  0.00000000000E+00 0.  1.
          1   -1    0    0  501    0  0.00000000000E+00 -0.00000000000E+00 -0.62134174495E+03  0.62134174495E+03  0.00000000000E+00 0. -1.
         23    2    1    2    0    0  0.23969443528E+03 -0.33586818385E+03 -0.80737355642E+02  0.43062316767E+03  0.93042639191E+02 0.  0.
    5000000    2    1    2    0    0 -0.23969443528E+03  0.33586818385E+03 -0.31689989448E+01  0.72815396765E+03  0.59994774674E+03 0.  0.
         23    2    4    4    0    0 -0.22937783169E+03 -0.10769106636E+03  0.40260976641E+02  0.27281328439E+03  0.92706992482E+02 0.  0.
         23    2    4    4    0    0 -0.10316603590E+02  0.44355925021E+03 -0.43429975586E+02  0.45534068326E+03  0.92723968287E+02 0.  0.
          3    1    3    3  502    0  0.17691478612E+03 -0.30598948102E+03 -0.68415705876E+02  0.36001265652E+03  0.00000000000E+00 0. -1.
         -3    1    3    3    0  502  0.62779649158E+02 -0.29878702827E+02 -0.12321649765E+02  0.70610511144E+02  0.00000000000E+00 0.  1.
         13    1    5    5    0    0 -0.10261905827E+03 -0.97972522844E+02  0.10632177546E+02  0.14227554094E+03  0.00000000000E+00 0. -1.
        -13    1    5    5    0    0 -0.12675877342E+03 -0.97185435166E+01  0.29628799095E+02  0.13053774344E+03  0.00000000000E+00 0.  1.
          1    1    6    6  503    0 -0.34731356687E+02  0.94216047130E+02  0.10716740466E+02  0.10098405419E+03  0.00000000000E+00 0. -1.
         -1    1    6    6    0  503  0.24414753097E+02  0.34934320308E+03 -0.54146716052E+02  0.35435662907E+03  0.00000000000E+00 0.  1.
<mgrwt>
<rscale>  0 0.57129843E+03</rscale>
<asrwt>0</asrwt>
<pdfrwt beam="1">  1        1 0.95591037E-01 0.57129843E+03</pdfrwt>
<pdfrwt beam="2">  1       -1 0.82682368E-01 0.57129843E+03</pdfrwt>
<totfact> 0.49236019E+01</totfact>
</mgrwt>
</event>
<event>
12    1  0.1444206E-007  0.1919285E+04  0.7818608E-02  0.8645316E-01
          1   -1    0    0  501    0  0.00000000000E+00  0.00000000000E+00  0.29787031783E+04  0.29787031783E+04  0.00000000000E+00 0.  1.
         -1   -1    0    0    0  501 -0.00000000000E+00 -0.00000000000E+00 -0.13662062756E+04  0.13662062756E+04  0.00000000000E+00 0. -1.
         23    2    1    2    0    0  0.15665020711E+04  0.10298477959E+04  0.14464570399E+04  0.23695552509E+04  0.89659897295E+02 0.  0.
    5000000    2    1    2    0    0 -0.15665020711E+04 -0.10298477959E+04  0.16603986276E+03  0.19753542030E+04  0.59994980595E+03 0.  0.
         23    2    4    4    0    0 -0.50502949013E+03 -0.67020930973E+03  0.62052089128E+02  0.84607914989E+03  0.88114478710E+02 0.  0.
         23    2    4    4    0    0 -0.10614725810E+04 -0.35963848621E+03  0.10398777364E+03  0.11292750531E+04  0.91568594821E+02 0.  0.
          2    1    3    3  502    0  0.10309670781E+04  0.72739980286E+03  0.98146288247E+03  0.15985221234E+04  0.00000000000E+00 0. -1.
         -2    1    3    3    0  502  0.53553499303E+03  0.30244799309E+03  0.46499415743E+03  0.77103312751E+03  0.00000000000E+00 0.  1.
         11    1    5    5    0    0 -0.16179654036E+03 -0.19964612000E+03  0.58849472231E+02  0.26362843945E+03  0.00000000000E+00 0.  1.
        -11    1    5    5    0    0 -0.34323294977E+03 -0.47056318973E+03  0.32026168974E+01  0.58245071044E+03  0.00000000000E+00 0. -1.
          4    1    6    6  503    0 -0.80502424812E+03 -0.29974071073E+03  0.10881285670E+03  0.86588034480E+03  0.00000000000E+00 0.  1.
         -4    1    6    6    0  503 -0.25644833288E+03 -0.59897775483E+02 -0.48250830634E+01  0.26339470832E+03  0.00000000000E+00 0. -1.
<mgrwt>
<rscale>  0 0.19192847E+04</rscale>
<asrwt>0</asrwt>
<pdfrwt beam="1">  1        1 0.45826202E+00 0.19192847E+04</pdfrwt>
<pdfrwt beam="2">  1       -1 0.21018558E+00 0.19192847E+04</pdfrwt>
<totfact> 0.71553903E-02</totfact>
</mgrwt>
</event>
<event>
12    1  0.1444206E-007  0.5407282E+03  0.7818608E-02  0.1003663E+00
         -2   -1    0    0    0  501 -0.00000000000E+00  0.00000000000E+00  0.20231193611E+03  0.20231193611E+03  0.00000000000E+00 0.  1.
          2   -1    0    0  501    0  0.00000000000E+00 -0.00000000000E+00 -0.17327408436E+04  0.17327408436E+04  0.00000000000E+00 0. -1.
         23    2    1    2    0    0 -0.20201406844E+03 -0.37887213853E+03 -0.69122013116E+03  0.81881636209E+03  0.91220523490E+02 0.  0.
    5000000    2    1    2    0    0  0.20201406844E+03  0.37887213853E+03 -0.83920877630E+03  0.11162364176E+04  0.59779477124E+03 0.  0.
         23    2    4    4    0    0 -0.14103190334E+03  0.22208762587E+03 -0.59301904093E+03  0.65574925028E+03  0.95512224370E+02 0.  0.
         23    2    4    4    0    0  0.34304597178E+03  0.15678451266E+03 -0.24618973537E+03  0.46048716731E+03  0.95797303152E+02 0.  0.
          3    1    3    3  502    0 -0.23593091710E+02 -0.46360246309E+02 -0.37953267200E+02  0.64392211528E+02  0.00000000000E+00 0. -1.
         -3    1    3    3    0  502 -0.17842097673E+03 -0.33251189222E+03 -0.65326686396E+03  0.75442415056E+03  0.00000000000E+00 0.  1.
         11    1    5    5    0    0 -0.12458531423E+03  0.12597549208E+03 -0.31903626017E+03  0.36493213127E+03  0.00000000000E+00 0. -1.
        -11    1    5    5    0    0 -0.16446589112E+02  0.96112133787E+02 -0.27398278076E+03  0.29081711901E+03  0.00000000000E+00 0.  1.
          4    1    6    6  503    0  0.20390325436E+03  0.10012324903E+03 -0.91635288112E+02  0.24494535751E+03  0.00000000000E+00 0. -1.
         -4    1    6    6    0  503  0.13914271742E+03  0.56661263628E+02 -0.15455444726E+03  0.21554180981E+03  0.00000000000E+00 0.  1.
<mgrwt>
<rscale>  0 0.54072821E+03</rscale>
<asrwt>0</asrwt>
<pdfrwt beam="1">  1        2 0.26657552E+00 0.54072821E+03</pdfrwt>
<pdfrwt beam="2">  1       -2 0.31124913E-01 0.54072821E+03</pdfrwt>
<totfact> 0.94233181E+01</totfact>
</mgrwt>
</event>
<event>
12    1  0.1444206E-007  0.5955849E+03  0.7818608E-02  0.9914609E-01
          1   -1    0    0  501    0  0.00000000000E+00  0.00000000000E+00  0.97876481140E+03  0.97876481140E+03  0.00000000000E+00 0. -1.
         -1   -1    0    0    0  501 -0.00000000000E+00 -0.00000000000E+00 -0.46370664541E+03  0.46370664541E+03  0.00000000000E+00 0.  1.
         23    2    1    2    0    0 -0.33033397532E+03 -0.30280379833E+03  0.51586458200E+03  0.69364280228E+03  0.11921994233E+03 0.  0.
    5000000    2    1    2    0    0  0.33033397532E+03  0.30280379833E+03 -0.80641601577E+00  0.74882865454E+03  0.59994418742E+03 0.  0.
         23    2    4    4    0    0  0.32784775475E+03  0.45427270194E+03  0.36695165588E+02  0.56847244811E+03  0.89255537978E+02 0.  0.
         23    2    4    4    0    0  0.24862205750E+01 -0.15146890361E+03 -0.37501581604E+02  0.18035620643E+03  0.90404549228E+02 0.  0.
          2    1    3    3  502    0 -0.28255989201E+03 -0.21749278081E+03  0.34145358455E+03  0.49369398688E+03  0.00000000000E+00 0.  1.
         -2    1    3    3    0  502 -0.47774083313E+02 -0.85311017518E+02  0.17441099746E+03  0.19994881540E+03  0.00000000000E+00 0. -1.
         13    1    5    5    0    0  0.61471768833E+02  0.15148720571E+03 -0.44770724495E+00  0.16348502163E+03  0.00000000000E+00 0. -1.
        -13    1    5    5    0    0  0.26637598592E+03  0.30278549623E+03  0.37142872833E+02  0.40498742648E+03  0.00000000000E+00 0.  1.
          1    1    6    6  503    0 -0.30165195420E+02 -0.24220350119E+02 -0.29668004566E+02  0.48751972981E+02  0.00000000000E+00 0. -1.
         -1    1    6    6    0  503  0.32651415995E+02 -0.12724855349E+03 -0.78335770374E+01  0.13160423345E+03  0.00000000000E+00 0.  1.
<mgrwt>
<rscale>  0 0.59558487E+03</rscale>
<asrwt>0</asrwt>
<pdfrwt beam="1">  1        1 0.15057920E+00 0.59558487E+03</pdfrwt>
<pdfrwt beam="2">  1       -1 0.71339484E-01 0.59558487E+03</pdfrwt>
<totfact> 0.32634327E+01</totfact>
</mgrwt>
</event>
<event>
12    1  0.1444206E-007  0.6267790E+03  0.7818608E-02  0.9851354E-01
          1   -1    0    0  501    0  0.00000000000E+00  0.00000000000E+00  0.10086899135E+04  0.10086899135E+04  0.00000000000E+00 0. -1.
         -1   -1    0    0    0  501 -0.00000000000E+00 -0.00000000000E+00 -0.41152068811E+03  0.41152068811E+03  0.00000000000E+00 0.  1.
         23    2    1    2    0    0 -0.45059320369E+02  0.49018799825E+03  0.14181168128E+03  0.52041780645E+03  0.91703458755E+02 0.  0.
    5000000    2    1    2    0    0  0.45059320369E+02 -0.49018799825E+03  0.45535754414E+03  0.89979279519E+03  0.59996830357E+03 0.  0.
         23    2    4    4    0    0 -0.26040206563E+03 -0.23655273760E+03  0.28085997494E+03  0.45760137966E+03  0.82159988416E+02 0.  0.
         23    2    4    4    0    0  0.30546138600E+03 -0.25363526065E+03  0.17449756920E+03  0.44219141552E+03  0.86292192722E+02 0.  0.
          2    1    3    3  502    0  0.96034173076E+01  0.25127718419E+03  0.38257855059E+02  0.25435430485E+03  0.00000000000E+00 0. -1.
         -2    1    3    3    0  502 -0.54662737677E+02  0.23891081405E+03  0.10355382622E+03  0.26606350161E+03  0.00000000000E+00 0.  1.
         11    1    5    5    0    0 -0.21617043946E+03 -0.22687197230E+03  0.22543687939E+03  0.38603411417E+03  0.00000000000E+00 0. -1.
        -11    1    5    5    0    0 -0.44231626172E+02 -0.96807653018E+01  0.55423095550E+02  0.71567265499E+02  0.00000000000E+00 0.  1.
          3    1    6    6  503    0  0.27711878517E+03 -0.24131075758E+03  0.18247580053E+03  0.41027200806E+03  0.00000000000E+00 0. -1.
         -3    1    6    6    0  503  0.28342600832E+02 -0.12324503067E+02 -0.79782313296E+01  0.31919407465E+02  0.00000000000E+00 0.  1.
<mgrwt>
<rscale>  0 0.62677904E+03</rscale>
<asrwt>0</asrwt>
<pdfrwt beam="1">  1        1 0.15518306E+00 0.62677904E+03</pdfrwt>
<pdfrwt beam="2">  1       -1 0.63310876E-01 0.62677904E+03</pdfrwt>
<totfact> 0.39210808E+01</totfact>
</mgrwt>
</event>
<event>
12    1  0.1444206E-007  0.7272052E+03  0.7818608E-02  0.9671806E-01
          2   -1    0    0  501    0  0.00000000000E+00  0.00000000000E+00  0.11164366276E+04  0.11164366276E+04  0.00000000000E+00 0. -1.
         -2   -1    0    0    0  501 -0.00000000000E+00 -0.00000000000E+00 -0.91571478732E+03  0.91571478732E+03  0.00000000000E+00 0.  1.
         23    2    1    2    0    0 -0.57928789773E+03  0.18619893154E+03  0.78477484466E+03  0.99705440617E+03  0.89450665135E+02 0.  0.
    5000000    2    1    2    0    0  0.57928789773E+03 -0.18619893154E+03 -0.58405300440E+03  0.10350970087E+04  0.60005282681E+03 0.  0.
         23    2    4    4    0    0  0.51309320246E+03 -0.36959941895E+03 -0.45172362643E+03  0.78209790602E+03  0.88059837802E+02 0.  0.
         23    2    4    4    0    0  0.66194695274E+02  0.18340048741E+03 -0.13232937797E+03  0.25299910270E+03  0.92086943869E+02 0.  0.
          1    1    3    3  502    0 -0.25290671623E+03  0.35541050959E+02  0.31514843014E+03  0.40563962632E+03  0.00000000000E+00 0. -1.
         -1    1    3    3    0  502 -0.32638118150E+03  0.15065788058E+03  0.46962641452E+03  0.59141477985E+03  0.00000000000E+00 0.  1.
         13    1    5    5    0    0  0.32475673850E+03 -0.25411169139E+03 -0.24565893934E+03  0.47998750544E+03  0.00000000000E+00 0.  1.
        -13    1    5    5    0    0  0.18833646396E+03 -0.11548772755E+03 -0.20606468709E+03  0.30211040058E+03  0.00000000000E+00 0. -1.
          4    1    6    6  503    0  0.41752806621E+02  0.31235239591E+02 -0.37298798478E+01  0.52276658813E+02  0.00000000000E+00 0. -1.
         -4    1    6    6    0  503  0.24441888653E+02  0.15216524782E+03 -0.12859949812E+03  0.20072244389E+03  0.00000000000E+00 0.  1.
<mgrwt>
<rscale>  0 0.72720519E+03</rscale>
<asrwt>0</asrwt>
<pdfrwt beam="1">  1        2 0.17175948E+00 0.72720519E+03</pdfrwt>
<pdfrwt beam="2">  1       -2 0.14087920E+00 0.72720519E+03</pdfrwt>
<totfact> 0.76899105E+00</totfact>
</mgrwt>
</event>
<event>
12    1  0.1444206E-007  0.6677346E+03  0.7818608E-02  0.9774059E-01
          1   -1    0    0  501    0  0.00000000000E+00  0.00000000000E+00  0.90628991677E+03  0.90628991677E+03  0.00000000000E+00 0. -1.
         -1   -1    0    0    0  501 -0.00000000000E+00 -0.00000000000E+00 -0.85213197699E+03  0.85213197699E+03  0.00000000000E+00 0.  1.
         23    2    1    2    0    0 -0.27277170204E+03 -0.56485783994E+03 -0.42799076238E+03  0.76541060175E+03  0.95961011952E+02 0.  0.
    5000000    2    1    2    0    0  0.27277170204E+03  0.56485783994E+03  0.48214870216E+03  0.99301129201E+03  0.60011271798E+03 0.  0.
         23    2    4    4    0    0  0.55842312528E+02  0.44762496664E+03  0.55404201108E+03  0.72055134688E+03  0.93515874664E+02 0.  0.
         23    2    4    4    0    0  0.21692938951E+03  0.11723287330E+03 -0.71893308923E+02  0.27245994513E+03  0.90905815088E+02 0.  0.
          2    1    3    3  502    0 -0.21734698865E+03 -0.47225458441E+03 -0.39386199363E+03  0.65222034313E+03  0.00000000000E+00 0. -1.
         -2    1    3    3    0  502 -0.55424713394E+02 -0.92603255529E+02 -0.34128768747E+02  0.11319025862E+03  0.00000000000E+00 0.  1.
         13    1    5    5    0    0  0.45121686606E+02  0.73954887226E+02  0.95527903696E+02  0.12896073950E+03  0.00000000000E+00 0.  1.
        -13    1    5    5    0    0  0.10720625923E+02  0.37367007941E+03  0.45851410739E+03  0.59159060738E+03  0.00000000000E+00 0. -1.
          1    1    6    6  503    0  0.67264119635E+02  0.27154051261E+02 -0.65383291487E+02  0.97656433971E+02  0.00000000000E+00 0. -1.
         -1    1    6    6    0  503  0.14966526988E+03  0.90078822037E+02 -0.65100174364E+01  0.17480351116E+03  0.00000000000E+00 0.  1.
<mgrwt>
<rscale>  0 0.66773463E+03</rscale>
<asrwt>0</asrwt>
<pdfrwt beam="1">  1        1 0.13942922E+00 0.66773463E+03</pdfrwt>
<pdfrwt beam="2">  1       -1 0.13109723E+00 0.66773463E+03</pdfrwt>
<totfact> 0.93270443E+00</totfact>
</mgrwt>
</event>
<event>
12    1  0.1444206E-007  0.1289048E+04  0.7818608E-02  0.9038295E-01
         -2   -1    0    0    0  501 -0.00000000000E+00  0.00000000000E+00  0.12551748535E+04  0.12551748535E+04  0.00000000000E+00 0.  1.
          2   -1    0    0  501    0  0.00000000000E+00 -0.00000000000E+00 -0.17733585859E+04  0.17733585859E+04  0.00000000000E+00 0. -1.
         23    2    1    2    0    0 -0.12331747044E+04  0.33170716400E+03  0.40453230714E+03  0.13426597035E+04  0.91319207154E+02 0.  0.
    5000000    2    1    2    0    0  0.12331747044E+04 -0.33170716400E+03 -0.92271603954E+03  0.16858737359E+04  0.60001322450E+03 0.  0.
         23    2    4    4    0    0  0.85944512656E+03 -0.14001359898E+03 -0.90024022875E+03  0.12558518556E+04  0.92096038159E+02 0.  0.
         23    2    4    4    0    0  0.37372957788E+03 -0.19169356501E+03 -0.22475810790E+02  0.43002188035E+03  0.89406013564E+02 0.  0.
          1    1    3    3  502    0 -0.10060255879E+04  0.23374874454E+03  0.32067374907E+03  0.10814608696E+04  0.00000000000E+00 0. -1.
         -1    1    3    3    0  502 -0.22714911654E+03  0.97958419454E+02  0.83858558062E+02  0.26119883393E+03  0.00000000000E+00 0.  1.
         11    1    5    5    0    0  0.67380082944E+03 -0.14615470634E+03 -0.69310196336E+03  0.97762932011E+03  0.00000000000E+00 0.  1.
        -11    1    5    5    0    0  0.18564429712E+03  0.61411073552E+01 -0.20713826539E+03  0.27822253547E+03  0.00000000000E+00 0. -1.
          2    1    6    6  503    0  0.27974934028E+03 -0.16584932540E+03 -0.49293342196E+02  0.32893088288E+03  0.00000000000E+00 0.  1.
         -2    1    6    6    0  503  0.93980237597E+02 -0.25844239610E+02  0.26817531407E+02  0.10109099748E+03  0.00000000000E+00 0. -1.
<mgrwt>
<rscale>  0 0.12890484E+04</rscale>
<asrwt>0</asrwt>
<pdfrwt beam="1">  1        2 0.27282440E+00 0.12890484E+04</pdfrwt>
<pdfrwt beam="2">  1       -2 0.19310382E+00 0.12890484E+04</pdfrwt>
<totfact> 0.12673694E+00</totfact>
</mgrwt>
</event>
<event>
12    1  0.1444206E-007  0.8236605E+03  0.7818608E-02  0.9526387E-01
         -2   -1    0    0    0  501 -0.00000000000E+00  0.00000000000E+00  0.54096642532E+03  0.54096642532E+03  0.00000000000E+00 0. -1.
          2   -1    0    0  501    0  0.00000000000E+00 -0.00000000000E+00 -0.14465568553E+04  0.14465568553E+04  0.00000000000E+00 0.  1.
         23    2    1    2    0    0 -0.76674854097E+03 -0.18716721669E+02 -0.56142792837E+03  0.95468933463E+03  0.89312743534E+02 0.  0.
    5000000    2    1    2    0    0  0.76674854097E+03  0.18716721669E+02 -0.34416250165E+03  0.10328339460E+04  0.60003707533E+03 0.  0.
         23    2    4    4    0    0  0.56790911728E+03 -0.16851818173E+03 -0.19313493771E+02  0.59869091120E+03  0.84490550025E+02 0.  0.
         23    2    4    4    0    0  0.19883942369E+03  0.18723490340E+03 -0.32484900788E+03  0.43414303483E+03  0.91429050644E+02 0.  0.
          3    1    3    3  502    0 -0.29502123666E+03 -0.49896975948E+02 -0.22800714622E+03  0.37618412649E+03  0.00000000000E+00 0. -1.
         -3    1    3    3    0  502 -0.47172730430E+03  0.31180254279E+02 -0.33342078215E+03  0.57850520814E+03  0.00000000000E+00 0.  1.
         11    1    5    5    0    0  0.14247692317E+03 -0.47439488852E+02 -0.41539077452E+02  0.15580652648E+03  0.00000000000E+00 0.  1.
        -11    1    5    5    0    0  0.42543219412E+03 -0.12107869288E+03  0.22225583681E+02  0.44288438472E+03  0.00000000000E+00 0. -1.
          4    1    6    6  503    0  0.17732938183E+03  0.12485194148E+03 -0.21116117689E+03  0.30269251655E+03  0.00000000000E+00 0.  1.
         -4    1    6    6    0  503  0.21510041861E+02  0.62382961926E+02 -0.11368783099E+03  0.13145051828E+03  0.00000000000E+00 0. -1.
<mgrwt>
<rscale>  0 0.82366051E+03</rscale>
<asrwt>0</asrwt>
<pdfrwt beam="1">  1        2 0.22254721E+00 0.82366051E+03</pdfrwt>
<pdfrwt beam="2">  1       -2 0.83225605E-01 0.82366051E+03</pdfrwt>
<totfact> 0.17453968E+01</totfact>
</mgrwt>
</event>
<event>
12    1  0.1444206E-007  0.1039846E+04  0.7818608E-02  0.9265891E-01
          2   -1    0    0  501    0  0.00000000000E+00  0.00000000000E+00  0.10228204846E+04  0.10228204846E+04  0.00000000000E+00 0. -1.
         -2   -1    0    0    0  501 -0.00000000000E+00 -0.00000000000E+00 -0.11068912653E+04  0.11068912653E+04  0.00000000000E+00 0.  1.
         23    2    1    2    0    0  0.93668778865E+03 -0.26453213205E+03 -0.12527083539E+03  0.98556402566E+03  0.91007714953E+02 0.  0.
    5000000    2    1    2    0    0 -0.93668778865E+03  0.26453213205E+03  0.41200054640E+02  0.11441477242E+04  0.60001275656E+03 0.  0.
         23    2    4    4    0    0  0.35203057085E+02  0.36382128092E+02 -0.82575356991E+02  0.13384125170E+03  0.92368157948E+02 0.  0.
         23    2    4    4    0    0 -0.97189084574E+03  0.22815000396E+03  0.12377541163E+03  0.10103064725E+04  0.93672704392E+02 0.  0.
          1    1    3    3  502    0  0.52715489125E+03 -0.10710636542E+03 -0.47995906791E+02  0.54006264447E+03  0.00000000000E+00 0. -1.
         -1    1    3    3    0  502  0.40953289740E+03 -0.15742576663E+03 -0.77274928602E+02  0.44550138119E+03  0.00000000000E+00 0.  1.
         13    1    5    5    0    0 -0.30335913154E+02  0.54049458768E+01 -0.13265858835E+02  0.33547937008E+02  0.00000000000E+00 0.  1.
        -13    1    5    5    0    0  0.65538970239E+02  0.30977182215E+02 -0.69309498156E+02  0.10029331470E+03  0.00000000000E+00 0. -1.
          4    1    6    6  503    0 -0.70578380950E+03  0.18977699618E+03  0.12487651166E+03  0.74144469598E+03  0.00000000000E+00 0. -1.
         -4    1    6    6    0  503 -0.26610703624E+03  0.38373007780E+02 -0.11011000306E+01  0.26886177654E+03  0.00000000000E+00 0.  1.
<mgrwt>
<rscale>  0 0.10398456E+04</rscale>
<asrwt>0</asrwt>
<pdfrwt beam="1">  1        2 0.15735700E+00 0.10398456E+04</pdfrwt>
<pdfrwt beam="2">  1       -2 0.17029096E+00 0.10398456E+04</pdfrwt>
<totfact> 0.51001749E+00</totfact>
</mgrwt>
</event>
<event>
12    1  0.1444206E-007  0.6807869E+03  0.7818608E-02  0.9750665E-01
          1   -1    0    0  501    0  0.00000000000E+00  0.00000000000E+00  0.26111308842E+04  0.26111308842E+04  0.00000000000E+00 0. -1.
         -1   -1    0    0    0  501 -0.00000000000E+00 -0.00000000000E+00 -0.28543983117E+03  0.28543983117E+03  0.00000000000E+00 0.  1.
         23    2    1    2    0    0  0.32913324821E+03 -0.53521576726E+03  0.31891668167E+03  0.70979499521E+03  0.85536382762E+02 0.  0.
    5000000    2    1    2    0    0 -0.32913324821E+03  0.53521576726E+03  0.20067743714E+04  0.21867757202E+04  0.60005004802E+03 0.  0.
         23    2    4    4    0    0 -0.38275935978E+03  0.39528569528E+03  0.84865766284E+03  0.10153352847E+04  0.89052811838E+02 0.  0.
         23    2    4    4    0    0  0.53626111570E+02  0.13993007198E+03  0.11581167086E+04  0.11714404355E+04  0.92640155153E+02 0.  0.
          1    1    3    3  502    0  0.14656784587E+03 -0.20370858893E+03  0.85368241755E+02  0.26507934538E+03  0.00000000000E+00 0. -1.
         -1    1    3    3    0  502  0.18256540234E+03 -0.33150717833E+03  0.23354843992E+03  0.44471564983E+03  0.00000000000E+00 0.  1.
         13    1    5    5    0    0 -0.66125631203E+02  0.12233069185E+03  0.22619045870E+03  0.26551745871E+03  0.00000000000E+00 0. -1.
        -13    1    5    5    0    0 -0.31663372858E+03  0.27295500343E+03  0.62246720414E+03  0.74981782601E+03  0.00000000000E+00 0.  1.
          1    1    6    6  503    0  0.15105291230E+02 -0.11386976379E+02  0.89576858603E+02  0.91552425699E+02  0.00000000000E+00 0. -1.
         -1    1    6    6    0  503  0.38520820340E+02  0.15131704836E+03  0.10685398500E+04  0.10798880098E+04  0.00000000000E+00 0.  1.
<mgrwt>
<rscale>  0 0.68078688E+03</rscale>
<asrwt>0</asrwt>
<pdfrwt beam="1">  1        1 0.40171243E+00 0.68078688E+03</pdfrwt>
<pdfrwt beam="2">  1       -1 0.43913822E-01 0.68078688E+03</pdfrwt>
<totfact> 0.62327840E+00</totfact>
</mgrwt>
</event>
<event>
12    1  0.1444206E-007  0.5764615E+03  0.7818608E-02  0.9955481E-01
          2   -1    0    0  501    0  0.00000000000E+00  0.00000000000E+00  0.12633831444E+04  0.12633831444E+04  0.00000000000E+00 0. -1.
         -2   -1    0    0    0  501 -0.00000000000E+00 -0.00000000000E+00 -0.28188526242E+03  0.28188526242E+03  0.00000000000E+00 0.  1.
         23    2    1    2    0    0  0.37028568507E+03  0.23724383328E+03  0.34138274984E+03  0.56385600366E+03  0.89416363018E+02 0.  0.
    5000000    2    1    2    0    0 -0.37028568507E+03 -0.23724383328E+03  0.64011513210E+03  0.98141240311E+03  0.60002233095E+03 0.  0.
         23    2    4    4    0    0 -0.93882717272E+02  0.16425127431E+03  0.34560428963E+03  0.40441507815E+03  0.91196407337E+02 0.  0.
         23    2    4    4    0    0 -0.27640296780E+03 -0.40149510758E+03  0.29451084247E+03  0.57699732496E+03  0.92694954848E+02 0.  0.
          3    1    3    3  502    0  0.25011199669E+03  0.20460769642E+03  0.22837047293E+03  0.39569355975E+03  0.00000000000E+00 0. -1.
         -3    1    3    3    0  502  0.12017368839E+03  0.32636136859E+02  0.11301227691E+03  0.16816244391E+03  0.00000000000E+00 0.  1.
         13    1    5    5    0    0  0.18578321602E+01  0.85886897177E+02  0.15390269606E+03  0.17625563963E+03  0.00000000000E+00 0. -1.
        -13    1    5    5    0    0 -0.95740549432E+02  0.78364377129E+02  0.19170159357E+03  0.22815943852E+03  0.00000000000E+00 0.  1.
          1    1    6    6  503    0 -0.98006042022E+02 -0.22144251807E+03  0.13034253439E+03  0.27501118042E+03  0.00000000000E+00 0. -1.
         -1    1    6    6    0  503 -0.17839692578E+03 -0.18005258951E+03  0.16416830808E+03  0.30198614454E+03  0.00000000000E+00 0.  1.
<mgrwt>
<rscale>  0 0.57646149E+03</rscale>
<asrwt>0</asrwt>
<pdfrwt beam="1">  1        2 0.19436663E+00 0.57646149E+03</pdfrwt>
<pdfrwt beam="2">  1       -2 0.43366964E-01 0.57646149E+03</pdfrwt>
<totfact> 0.90502814E+01</totfact>
</mgrwt>
</event>
<event>
12    1  0.1444206E-007  0.3462752E+03  0.7818608E-02  0.1064154E+00
         -1   -1    0    0    0  501 -0.00000000000E+00  0.00000000000E+00  0.29740587593E+03  0.29740587593E+03  0.00000000000E+00 0.  1.
          1   -1    0    0  501    0  0.00000000000E+00 -0.00000000000E+00 -0.65394984680E+03  0.65394984680E+03  0.00000000000E+00 0. -1.
         23    2    1    2    0    0  0.12864585192E+03 -0.15495930278E+03 -0.19793842070E+03  0.29885451307E+03  0.97837931583E+02 0.  0.
    5000000    2    1    2    0    0 -0.12864585192E+03  0.15495930278E+03 -0.15860555018E+03  0.65250120966E+03  0.60003330518E+03 0.  0.
         23    2    4    4    0    0 -0.62440429184E+02 -0.13564077992E+03 -0.26992235570E+03  0.32176062417E+03  0.91512801208E+02 0.  0.
         23    2    4    4    0    0 -0.66205422741E+02  0.29060008271E+03  0.11131680552E+03  0.33074058549E+03  0.90367790895E+02 0.  0.
          3    1    3    3  502    0  0.11085295396E+02 -0.80246545342E+02 -0.47833901769E+02  0.94076957709E+02  0.00000000000E+00 0. -1.
         -3    1    3    3    0  502  0.11756055653E+03 -0.74712757440E+02 -0.15010451893E+03  0.20477755536E+03  0.00000000000E+00 0.  1.
         11    1    5    5    0    0 -0.79040914324E+02 -0.10726741466E+03 -0.16656642831E+03  0.21330292878E+03  0.00000000000E+00 0. -1.
        -11    1    5    5    0    0  0.16600485141E+02 -0.28373365265E+02 -0.10335592739E+03  0.10845769540E+03  0.00000000000E+00 0.  1.
          1    1    6    6  503    0 -0.22285016582E+02  0.14558445386E+02  0.28984625169E+02  0.39353256439E+02  0.00000000000E+00 0. -1.
         -1    1    6    6    0  503 -0.43920406159E+02  0.27604163732E+03  0.82332180351E+02  0.29138732905E+03  0.00000000000E+00 0.  1.
<mgrwt>
<rscale>  0 0.34627515E+03</rscale>
<asrwt>0</asrwt>
<pdfrwt beam="1">  1        1 0.10060767E+00 0.34627515E+03</pdfrwt>
<pdfrwt beam="2">  1       -1 0.45754751E-01 0.34627515E+03</pdfrwt>
<totfact> 0.15073958E+02</totfact>
</mgrwt>
</event>
<event>
12    1  0.1444206E-007  0.1736032E+04  0.7818608E-02  0.8741077E-01
         -2   -1    0    0    0  501 -0.00000000000E+00  0.00000000000E+00  0.13425133765E+04  0.13425133765E+04  0.00000000000E+00 0. -1.
          2   -1    0    0  501    0  0.00000000000E+00 -0.00000000000E+00 -0.22951756542E+04  0.22951756542E+04  0.00000000000E+00 0.  1.
         23    2    1    2    0    0  0.10922303396E+04  0.12844432803E+04 -0.70987944207E+03  0.18316727903E+04  0.91294760885E+02 0.  0.
    5000000    2    1    2    0    0 -0.10922303396E+04 -0.12844432803E+04 -0.24278283558E+03  0.18060162404E+04  0.59999125005E+03 0.  0.
         23    2    4    4    0    0 -0.53218532759E+03 -0.10357219344E+04 -0.20159434136E+03  0.11854211036E+04  0.92961101002E+02 0.  0.
         23    2    4    4    0    0 -0.56004501203E+03 -0.24872134596E+03 -0.41188494222E+02  0.62059513674E+03  0.89045540301E+02 0.  0.
          1    1    3    3  502    0  0.86549635977E+03  0.96175611301E+03 -0.55822719538E+03  0.14091402951E+04  0.00000000000E+00 0. -1.
         -1    1    3    3    0  502  0.22673397984E+03  0.32268716730E+03 -0.15165224668E+03  0.42253249518E+03  0.00000000000E+00 0.  1.
         13    1    5    5    0    0 -0.13277305811E+03 -0.21103875469E+03 -0.75235901259E+02  0.26043517769E+03  0.00000000000E+00 0.  1.
        -13    1    5    5    0    0 -0.39941226948E+03 -0.82468317966E+03 -0.12635844010E+03  0.92498592595E+03  0.00000000000E+00 0. -1.
          4    1    6    6  503    0 -0.20160692124E+03 -0.13301751910E+03  0.14526025897E+01  0.24153906751E+03  0.00000000000E+00 0. -1.
         -4    1    6    6    0  503 -0.35843809079E+03 -0.11570382686E+03 -0.42641096812E+02  0.37905606923E+03  0.00000000000E+00 0.  1.
<mgrwt>
<rscale>  0 0.17360322E+04</rscale>
<asrwt>0</asrwt>
<pdfrwt beam="1">  1        2 0.35310394E+00 0.17360322E+04</pdfrwt>
<pdfrwt beam="2">  1       -2 0.20654052E+00 0.17360322E+04</pdfrwt>
<totfact> 0.50433183E-01</totfact>
</mgrwt>
</event>
<event>
12    1  0.1444206E-007  0.7135011E+03  0.7818608E-02  0.9694418E-01
          2   -1    0    0  501    0  0.00000000000E+00  0.00000000000E+00  0.12313279044E+04  0.12313279044E+04  0.00000000000E+00 0. -1.
         -2   -1    0    0    0  501 -0.00000000000E+00 -0.00000000000E+00 -0.51634104584E+03  0.51634104584E+03  0.00000000000E+00 0.  1.
         23    2    1    2    0    0 -0.58634952728E+03  0.41215515059E+02  0.68505999908E+03  0.90725755873E+03  0.91129516121E+02 0.  0.
    5000000    2    1    2    0    0  0.58634952728E+03 -0.41215515059E+02  0.29926859463E+02  0.84041139150E+03  0.59990932918E+03 0.  0.
         23    2    4    4    0    0 -0.10382213146E+03 -0.30760078950E+02 -0.10850019389E+02  0.14296869677E+03  0.92720590480E+02 0.  0.
         23    2    4    4    0    0  0.69017165874E+03 -0.10455436109E+02  0.40776878851E+02  0.69744269473E+03  0.91199363599E+02 0.  0.
          3    1    3    3  502    0 -0.22113470648E+03  0.55231824268E+02  0.29384209495E+03  0.37187940193E+03  0.00000000000E+00 0. -1.
         -3    1    3    3    0  502 -0.36521482080E+03 -0.14016309209E+02  0.39121790414E+03  0.53537815680E+03  0.00000000000E+00 0.  1.
         13    1    5    5    0    0 -0.11942916815E+02  0.26513450166E+02 -0.18442643482E+02  0.34434392697E+02  0.00000000000E+00 0. -1.
        -13    1    5    5    0    0 -0.91879214642E+02 -0.57273529117E+02  0.75926240932E+01  0.10853430408E+03  0.00000000000E+00 0.  1.
          2    1    6    6  503    0  0.23072626851E+03  0.39525061859E+02  0.15127251754E+02  0.23457552140E+03  0.00000000000E+00 0. -1.
         -2    1    6    6    0  503  0.45944539023E+03 -0.49980497967E+02  0.25649627097E+02  0.46286717333E+03  0.00000000000E+00 0.  1.
<mgrwt>
<rscale>  0 0.71350114E+03</rscale>
<asrwt>0</asrwt>
<pdfrwt beam="1">  1        2 0.18943506E+00 0.71350114E+03</pdfrwt>
<pdfrwt beam="2">  1       -2 0.79437084E-01 0.71350114E+03</pdfrwt>
<totfact> 0.26078034E+01</totfact>
</mgrwt>
</event>
<event>
12    1  0.1444206E-007  0.7897967E+03  0.7818608E-02  0.9574904E-01
          1   -1    0    0  501    0  0.00000000000E+00  0.00000000000E+00  0.19455104952E+04  0.19455104952E+04  0.00000000000E+00 0. -1.
         -1   -1    0    0    0  501 -0.00000000000E+00 -0.00000000000E+00 -0.43333141675E+03  0.43333141675E+03  0.00000000000E+00 0.  1.
         23    2    1    2    0    0 -0.13080842979E+02 -0.68323150192E+03  0.96944896390E+02  0.69655513304E+03  0.93884752523E+02 0.  0.
    5000000    2    1    2    0    0  0.13080842979E+02  0.68323150192E+03  0.14152341821E+04  0.16822867789E+04  0.60018715644E+03 0.  0.
         23    2    4    4    0    0  0.20502626146E+03  0.65904209039E+03  0.11232838239E+04  0.13207797526E+04  0.79500699106E+02 0.  0.
         23    2    4    4    0    0 -0.19194541849E+03  0.24189411530E+02  0.29195035820E+03  0.36150702630E+03  0.89577603806E+02 0.  0.
          4    1    3    3  502    0  0.37537123731E+02 -0.20073743972E+03  0.39801677208E+02  0.20805943591E+03  0.00000000000E+00 0. -1.
         -4    1    3    3    0  502 -0.50617966710E+02 -0.48249406221E+03  0.57143219182E+02  0.48849569713E+03  0.00000000000E+00 0.  1.
         13    1    5    5    0    0  0.10727908061E+03  0.26770834082E+03  0.40864962342E+03  0.50017104235E+03  0.00000000000E+00 0.  1.
        -13    1    5    5    0    0  0.97747180858E+02  0.39133374957E+03  0.71463420047E+03  0.82060871029E+03  0.00000000000E+00 0. -1.
          4    1    6    6  503    0 -0.19145540651E+03  0.18037691054E+02  0.29680330712E+03  0.35365623718E+03  0.00000000000E+00 0. -1.
         -4    1    6    6    0  503 -0.49001197177E+00  0.61517204760E+01 -0.48529489189E+01  0.78507891169E+01  0.00000000000E+00 0.  1.
<mgrwt>
<rscale>  0 0.78979672E+03</rscale>
<asrwt>0</asrwt>
<pdfrwt beam="1">  1        1 0.29930930E+00 0.78979672E+03</pdfrwt>
<pdfrwt beam="2">  1       -1 0.66666373E-01 0.78979672E+03</pdfrwt>
<totfact> 0.76933497E+00</totfact>
</mgrwt>
</event>
<event>
12    1  0.1444206E-007  0.1578742E+04  0.7818608E-02  0.8833715E-01
         -1   -1    0    0    0  501 -0.00000000000E+00  0.00000000000E+00  0.12606833652E+04  0.12606833652E+04  0.00000000000E+00 0.  1.
          1   -1    0    0  501    0  0.00000000000E+00 -0.00000000000E+00 -0.24896840123E+04  0.24896840123E+04  0.00000000000E+00 0. -1.
         23    2    1    2    0    0 -0.36610561956E+03 -0.14812600335E+04 -0.14366820030E+04  0.20977019488E+04  0.90186898670E+02 0.  0.
    5000000    2    1    2    0    0  0.36610561956E+03  0.14812600335E+04  0.20768135591E+03  0.16526654287E+04  0.60000571842E+03 0.  0.
         23    2    4    4    0    0  0.50575576648E+03  0.12400588643E+04  0.12404207406E+03  0.13479725643E+04  0.90048408151E+02 0.  0.
         23    2    4    4    0    0 -0.13965014692E+03  0.24120116923E+03  0.83639281849E+02  0.30469286440E+03  0.90344034539E+02 0.  0.
          4    1    3    3  502    0 -0.10939454904E+03 -0.46537002620E+03 -0.39409359312E+03  0.61955321706E+03  0.00000000000E+00 0. -1.
         -4    1    3    3    0  502 -0.25671107053E+03 -0.10158900073E+04 -0.10425884099E+04  0.14781487317E+04  0.00000000000E+00 0.  1.
         13    1    5    5    0    0  0.23049286857E+03  0.57875146794E+03  0.10252773307E+03  0.63134155586E+03  0.00000000000E+00 0.  1.
        -13    1    5    5    0    0  0.27526289791E+03  0.66130739631E+03  0.21514340995E+02  0.71663100844E+03  0.00000000000E+00 0. -1.
          1    1    6    6  503    0 -0.14866816740E+03  0.19469770171E+03  0.62470223118E+02  0.25280812452E+03  0.00000000000E+00 0. -1.
         -1    1    6    6    0  503  0.90180204796E+01  0.46503467515E+02  0.21169058731E+02  0.51884739875E+02  0.00000000000E+00 0.  1.
<mgrwt>
<rscale>  0 0.15787423E+04</rscale>
<asrwt>0</asrwt>
<pdfrwt beam="1">  1        1 0.38302830E+00 0.15787423E+04</pdfrwt>
<pdfrwt beam="2">  1       -1 0.19395129E+00 0.15787423E+04</pdfrwt>
<totfact> 0.21398648E-01</totfact>
</mgrwt>
</event>
<event>
12    1  0.1444206E-007  0.9963313E+03  0.7818608E-02  0.9312578E-01
          1   -1    0    0  501    0  0.00000000000E+00  0.00000000000E+00  0.97824733065E+03  0.97824733065E+03  0.00000000000E+00 0. -1.
         -1   -1    0    0    0  501 -0.00000000000E+00 -0.00000000000E+00 -0.10549125033E+04  0.10549125033E+04  0.00000000000E+00 0.  1.
         23    2    1    2    0    0 -0.87492938833E+03 -0.29444572068E+03  0.24793687588E+02  0.92751687981E+03  0.86447200112E+02 0.  0.
    5000000    2    1    2    0    0  0.87492938833E+03  0.29444572068E+03 -0.10145886028E+03  0.11056429542E+04  0.59996060271E+03 0.  0.
         23    2    4    4    0    0  0.40516251278E+03 -0.12419846550E+03  0.89066872270E+02  0.44212456736E+03  0.89214935593E+02 0.  0.
         23    2    4    4    0    0  0.46976687554E+03  0.41864418618E+03 -0.19052573255E+03  0.66351838681E+03  0.89513814017E+02 0.  0.
          2    1    3    3  502    0 -0.78597813468E+03 -0.24016615038E+03  0.74976271646E+01  0.82188662381E+03  0.00000000000E+00 0. -1.
         -2    1    3    3    0  502 -0.88951253651E+02 -0.54279570297E+02  0.17296060423E+02  0.10563025601E+03  0.00000000000E+00 0.  1.
         13    1    5    5    0    0  0.22325859816E+03 -0.22059152967E+02  0.41485487215E+02  0.22814919139E+03  0.00000000000E+00 0.  1.
        -13    1    5    5    0    0  0.18190391462E+03 -0.10213931253E+03  0.47581385055E+02  0.21397537597E+03  0.00000000000E+00 0. -1.
          2    1    6    6  503    0  0.25884592752E+03  0.27955783937E+03 -0.89111788573E+02  0.39127319179E+03  0.00000000000E+00 0. -1.
         -2    1    6    6    0  503  0.21092094803E+03  0.13908634680E+03 -0.10141394397E+03  0.27224519503E+03  0.00000000000E+00 0.  1.
<mgrwt>
<rscale>  0 0.99633128E+03</rscale>
<asrwt>0</asrwt>
<pdfrwt beam="1">  1        1 0.15049959E+00 0.99633128E+03</pdfrwt>
<pdfrwt beam="2">  1       -1 0.16229423E+00 0.99633128E+03</pdfrwt>
<totfact> 0.44337258E+00</totfact>
</mgrwt>
</event>
<event>
12    1  0.1444206E-007  0.4887600E+03  0.7818608E-02  0.1016755E+00
         -1   -1    0    0    0  501 -0.00000000000E+00  0.00000000000E+00  0.22499830242E+03  0.22499830242E+03  0.00000000000E+00 0.  1.
          1   -1    0    0  501    0  0.00000000000E+00 -0.00000000000E+00 -0.17298226836E+04  0.17298226836E+04  0.00000000000E+00 0. -1.
         23    2    1    2    0    0 -0.41614011404E+03  0.22326966615E+03 -0.51685195256E+03  0.70620719170E+03  0.92578174602E+02 0.  0.
    5000000    2    1    2    0    0  0.41614011404E+03 -0.22326966615E+03 -0.98797242859E+03  0.12486137943E+04  0.59993745446E+03 0.  0.
         23    2    4    4    0    0  0.10466623406E+03 -0.38246232457E+02  0.44727903984E+02  0.15042795193E+03  0.90610090378E+02 0.  0.
         23    2    4    4    0    0  0.31147387998E+03 -0.18502343369E+03 -0.10327003326E+04  0.10981858423E+04  0.91063266468E+02 0.  0.
          4    1    3    3  502    0 -0.22645243356E+03  0.17198901001E+03 -0.31942019071E+03  0.42765661746E+03  0.00000000000E+00 0. -1.
         -4    1    3    3    0  502 -0.18968768048E+03  0.51280656136E+02 -0.19743176185E+03  0.27855057424E+03  0.00000000000E+00 0.  1.
         11    1    5    5    0    0  0.70169720249E+01 -0.29289491096E+02  0.42818574759E+02  0.52350191303E+02  0.00000000000E+00 0. -1.
        -11    1    5    5    0    0  0.97649262038E+02 -0.89567413613E+01  0.19093292247E+01  0.98077760632E+02  0.00000000000E+00 0.  1.
          3    1    6    6  503    0  0.26651555968E+03 -0.12740690115E+03 -0.74704464851E+03  0.80332980081E+03  0.00000000000E+00 0. -1.
         -3    1    6    6    0  503  0.44958320297E+02 -0.57616532541E+02 -0.28565568407E+03  0.29485604153E+03  0.00000000000E+00 0.  1.
<mgrwt>
<rscale>  0 0.48875997E+03</rscale>
<asrwt>0</asrwt>
<pdfrwt beam="1">  1        1 0.26612656E+00 0.48875997E+03</pdfrwt>
<pdfrwt beam="2">  1       -1 0.34615125E-01 0.48875997E+03</pdfrwt>
<totfact> 0.38649304E+01</totfact>
</mgrwt>
</event>
<event>
12    1  0.1444206E-007  0.8681762E+03  0.7818608E-02  0.9466261E-01
          2   -1    0    0  501    0  0.00000000000E+00  0.00000000000E+00  0.29811106274E+04  0.29811106274E+04  0.00000000000E+00 0. -1.
         -2   -1    0    0    0  501 -0.00000000000E+00 -0.00000000000E+00 -0.36850960147E+03  0.36850960147E+03  0.00000000000E+00 0.  1.
         23    2    1    2    0    0  0.45781773291E+03  0.67716238660E+03  0.20063088211E+04  0.21681496510E+04  0.86324094768E+02 0.  0.
    5000000    2    1    2    0    0 -0.45781773291E+03 -0.67716238660E+03  0.60629220481E+03  0.11814705778E+04  0.60011375105E+03 0.  0.
         23    2    4    4    0    0 -0.51267765849E+03 -0.54668309862E+03  0.26408904015E+03  0.79995817175E+03  0.92137199854E+02 0.  0.
         23    2    4    4    0    0  0.54859925587E+02 -0.13047928798E+03  0.34220316466E+03  0.38151240604E+03  0.91729243066E+02 0.  0.
          2    1    3    3  502    0  0.92067591398E+02  0.13492343025E+03  0.31624471190E+03  0.35593748218E+03  0.00000000000E+00 0. -1.
         -2    1    3    3    0  502  0.36575014151E+03  0.54223895635E+03  0.16900641092E+04  0.18122121689E+04  0.00000000000E+00 0.  1.
         11    1    5    5    0    0 -0.18486624301E+03 -0.25970388061E+03  0.12798022211E+03  0.34351211138E+03  0.00000000000E+00 0.  1.
        -11    1    5    5    0    0 -0.32781141548E+03 -0.28697921801E+03  0.13610881803E+03  0.45644606037E+03  0.00000000000E+00 0. -1.
          4    1    6    6  503    0  0.50159011332E+02 -0.20146496075E+02  0.75545742637E+02  0.92892233004E+02  0.00000000000E+00 0. -1.
         -4    1    6    6    0  503  0.47009142548E+01 -0.11033279191E+03  0.26665742203E+03  0.28862017304E+03  0.00000000000E+00 0.  1.
<mgrwt>
<rscale>  0 0.86817618E+03</rscale>
<asrwt>0</asrwt>
<pdfrwt beam="1">  1        2 0.45863239E+00 0.86817618E+03</pdfrwt>
<pdfrwt beam="2">  1       -2 0.56693787E-01 0.86817618E+03</pdfrwt>
<totfact> 0.54457767E+00</totfact>
</mgrwt>
</event>
<event>
12    1  0.1544924E-007  0.1744654E+04  0.7818608E-02  0.8736299E-01
         -2   -1    0    0    0  501 -0.00000000000E+00  0.00000000000E+00  0.18855853294E+04  0.18855853294E+04  0.00000000000E+00 0.  1.
          2   -1    0    0  501    0  0.00000000000E+00 -0.00000000000E+00 -0.17891307304E+04  0.17891307304E+04  0.00000000000E+00 0. -1.
         23    2    1    2    0    0 -0.13309768917E+04  0.10489333901E+04  0.61265737337E+03  0.18043631487E+04  0.92825493658E+02 0.  0.
    5000000    2    1    2    0    0  0.13309768917E+04 -0.10489333901E+04 -0.51620277430E+03  0.18703529111E+04  0.59999497083E+03 0.  0.
         23    2    4    4    0    0  0.99134706555E+03 -0.43154973720E+03 -0.35560364265E+03  0.11418713532E+04  0.91717263865E+02 0.  0.
         23    2    4    4    0    0  0.33962982610E+03 -0.61738365286E+03 -0.16059913164E+03  0.72848155793E+03  0.91554931980E+02 0.  0.
          2    1    3    3  502    0 -0.81872838886E+03  0.61961247108E+03  0.41416469001E+03  0.11071441548E+04  0.00000000000E+00 0. -1.
         -2    1    3    3    0  502 -0.51224850279E+03  0.42932091898E+03  0.19849268335E+03  0.69721899388E+03  0.00000000000E+00 0.  1.
         11    1    5    5    0    0  0.41458376044E+03 -0.13498998536E+03 -0.12530540417E+03  0.45365563469E+03  0.00000000000E+00 0.  1.
        -11    1    5    5    0    0  0.57676330511E+03 -0.29655975184E+03 -0.23029823848E+03  0.68821571849E+03  0.00000000000E+00 0. -1.
          3    1    6    6  503    0  0.26376721477E+03 -0.39769072538E+03 -0.12536353264E+03  0.49340355892E+03  0.00000000000E+00 0. -1.
         -3    1    6    6    0  503  0.75862611333E+02 -0.21969292748E+03 -0.35235599002E+02  0.23507799901E+03  0.00000000000E+00 0.  1.
<mgrwt>
<rscale>  0 0.17446539E+04</rscale>
<asrwt>0</asrwt>
<pdfrwt beam="1">  1        2 0.27525088E+00 0.17446539E+04</pdfrwt>
<pdfrwt beam="2">  1       -2 0.29009005E+00 0.17446539E+04</pdfrwt>
<totfact> 0.29257506E-01</totfact>
</mgrwt>
</event>
<event>
12    1  0.1444206E-007  0.9619715E+03  0.7818608E-02  0.9351266E-01
          1   -1    0    0  501    0  0.00000000000E+00  0.00000000000E+00  0.78338986197E+03  0.78338986197E+03  0.00000000000E+00 0. -1.
         -1   -1    0    0    0  501 -0.00000000000E+00 -0.00000000000E+00 -0.14045536728E+04  0.14045536728E+04  0.00000000000E+00 0.  1.
         23    2    1    2    0    0  0.67258556672E+03  0.57838052318E+03  0.10006144322E+03  0.89724898677E+03  0.90266703089E+02 0.  0.
    5000000    2    1    2    0    0 -0.67258556672E+03 -0.57838052318E+03 -0.72122525408E+03  0.12906945480E+04  0.59902518731E+03 0.  0.
         23    2    4    4    0    0 -0.62628920526E+03 -0.23352604686E+03 -0.62244341647E+03  0.91783274636E+03  0.90601105941E+02 0.  0.
         23    2    4    4    0    0 -0.46296361458E+02 -0.34485447632E+03 -0.98781837618E+02  0.37286180167E+03  0.90554452017E+02 0.  0.
          3    1    3    3  502    0  0.57933470066E+03  0.45786285722E+03  0.97626671498E+02  0.74484767462E+03  0.00000000000E+00 0. -1.
         -3    1    3    3    0  502  0.93250866063E+02  0.12051766596E+03  0.24347717174E+01  0.15240131214E+03  0.00000000000E+00 0.  1.
         13    1    5    5    0    0 -0.56717678469E+03 -0.23769901191E+03 -0.57516096901E+03  0.84202165389E+03  0.00000000000E+00 0. -1.
        -13    1    5    5    0    0 -0.59112420574E+02  0.41729650517E+01 -0.47282447456E+02  0.75811092465E+02  0.00000000000E+00 0.  1.
          1    1    6    6  503    0 -0.72774652796E+02 -0.24255904218E+03 -0.79694827592E+02  0.26548503645E+03  0.00000000000E+00 0. -1.
         -1    1    6    6    0  503  0.26478291338E+02 -0.10229543414E+03 -0.19087010027E+02  0.10737676522E+03  0.00000000000E+00 0.  1.
<mgrwt>
<rscale>  0 0.96197151E+03</rscale>
<asrwt>0</asrwt>
<pdfrwt beam="1">  1        1 0.12052152E+00 0.96197151E+03</pdfrwt>
<pdfrwt beam="2">  1       -1 0.21608518E+00 0.96197151E+03</pdfrwt>
<totfact> 0.26998657E+00</totfact>
</mgrwt>
</event>
<event>
12    1  0.1444206E-007  0.6684264E+03  0.7818608E-02  0.9772805E-01
          1   -1    0    0  501    0  0.00000000000E+00  0.00000000000E+00  0.24413739944E+04  0.24413739944E+04  0.00000000000E+00 0. -1.
         -1   -1    0    0    0  501 -0.00000000000E+00 -0.00000000000E+00 -0.19067127014E+03  0.19067127014E+03  0.00000000000E+00 0.  1.
         23    2    1    2    0    0  0.43268561523E+03 -0.33240341846E+03  0.87740122797E+03  0.10371756594E+04  0.90507234268E+02 0.  0.
    5000000    2    1    2    0    0 -0.43268561523E+03  0.33240341846E+03  0.13733014963E+04  0.15948696051E+04  0.59995265091E+03 0.  0.
         23    2    4    4    0    0  0.12845982172E+03  0.73471101706E+02  0.42936022186E+03  0.46298312946E+03  0.90018050790E+02 0.  0.
         23    2    4    4    0    0 -0.56114543696E+03  0.25893231676E+03  0.94394127447E+03  0.11318864757E+04  0.90618530637E+02 0.  0.
          2    1    3    3  502    0  0.17570882474E+03 -0.18372116239E+03  0.36132524641E+03  0.44179519043E+03  0.00000000000E+00 0. -1.
         -2    1    3    3    0  502  0.25697679050E+03 -0.14868225607E+03  0.51607598156E+03  0.59538046900E+03  0.00000000000E+00 0.  1.
         13    1    5    5    0    0 -0.76159173977E+01  0.98112910562E+01  0.60701040989E+01  0.13824246590E+02  0.00000000000E+00 0. -1.
        -13    1    5    5    0    0  0.13607573912E+03  0.63659810649E+02  0.42329011776E+03  0.44915888287E+03  0.00000000000E+00 0.  1.
          1    1    6    6  503    0 -0.60646328969E+02  0.57528771256E+02  0.10134539964E+03  0.13137133161E+03  0.00000000000E+00 0. -1.
         -1    1    6    6    0  503 -0.50049910799E+03  0.20140354550E+03  0.84259587483E+03  0.10005151441E+04  0.00000000000E+00 0.  1.
<mgrwt>
<rscale>  0 0.66842636E+03</rscale>
<asrwt>0</asrwt>
<pdfrwt beam="1">  1        1 0.37559598E+00 0.66842636E+03</pdfrwt>
<pdfrwt beam="2">  1       -1 0.29334043E-01 0.66842636E+03</pdfrwt>
<totfact> 0.16769716E+01</totfact>
</mgrwt>
</event>
<event>
12    1  0.1444206E-007  0.8475053E+03  0.7818608E-02  0.9493691E-01
          2   -1    0    0  501    0  0.00000000000E+00  0.00000000000E+00  0.92031079117E+03  0.92031079117E+03  0.00000000000E+00 0. -1.
         -2   -1    0    0    0  501 -0.00000000000E+00 -0.00000000000E+00 -0.11044685211E+04  0.11044685211E+04  0.00000000000E+00 0.  1.
         23    2    1    2    0    0 -0.32567156325E+03 -0.73518653525E+03 -0.52696361312E+03  0.96581357650E+03  0.92433794003E+02 0.  0.
    5000000    2    1    2    0    0  0.32567156325E+03  0.73518653525E+03  0.34280588321E+03  0.10589657357E+04  0.59777198595E+03 0.  0.
         23    2    4    4    0    0  0.63728829340E+01 -0.78311154963E+01  0.21794300776E+03  0.23623902852E+03  0.90596820901E+02 0.  0.
         23    2    4    4    0    0  0.31929868031E+03  0.74301765075E+03  0.12486287545E+03  0.82272670723E+03  0.85215142713E+02 0.  0.
          3    1    3    3  502    0 -0.13846269596E+03 -0.41581203454E+03 -0.26258762366E+03  0.51090490930E+03  0.00000000000E+00 0. -1.
         -3    1    3    3    0  502 -0.18720886729E+03 -0.31937450071E+03 -0.26437598945E+03  0.45490866720E+03  0.00000000000E+00 0.  1.
         11    1    5    5    0    0 -0.20831656696E+02 -0.32457070775E+02  0.44187973228E+02  0.58651482010E+02  0.00000000000E+00 0. -1.
        -11    1    5    5    0    0  0.27204539630E+02  0.24625955279E+02  0.17375503453E+03  0.17758754650E+03  0.00000000000E+00 0.  1.
          3    1    6    6  503    0  0.93751305729E+02  0.15069245975E+03  0.41771400351E+01  0.17752457084E+03  0.00000000000E+00 0. -1.
         -3    1    6    6    0  503  0.22554737458E+03  0.59232519100E+03  0.12068573542E+03  0.64520213639E+03  0.00000000000E+00 0.  1.
<mgrwt>
<rscale>  0 0.84750529E+03</rscale>
<asrwt>0</asrwt>
<pdfrwt beam="1">  1        2 0.14158628E+00 0.84750529E+03</pdfrwt>
<pdfrwt beam="2">  1       -2 0.16991823E+00 0.84750529E+03</pdfrwt>
<totfact> 0.61076489E+00</totfact>
</mgrwt>
</event>
<event>
12    1  0.1444206E-007  0.1878563E+04  0.7818608E-02  0.8665601E-01
          2   -1    0    0  501    0  0.00000000000E+00  0.00000000000E+00  0.40410511887E+04  0.40410511887E+04  0.00000000000E+00 0.  1.
         -2   -1    0    0    0  501 -0.00000000000E+00 -0.00000000000E+00 -0.12035938959E+04  0.12035938959E+04  0.00000000000E+00 0. -1.
         23    2    1    2    0    0  0.73829583140E+03  0.17187531813E+04  0.10038007141E+03  0.18755420225E+04  0.91588682523E+02 0.  0.
    5000000    2    1    2    0    0 -0.73829583140E+03 -0.17187531813E+04  0.27370772214E+04  0.33691030621E+04  0.60005874247E+03 0.  0.
         23    2    4    4    0    0 -0.12193796370E+03 -0.41176521375E+03  0.29173294302E+03  0.52717803654E+03  0.91592106267E+02 0.  0.
         23    2    4    4    0    0 -0.61635786770E+03 -0.13069879675E+04  0.24453442784E+04  0.28419250255E+04  0.93352251089E+02 0.  0.
          4    1    3    3  502    0  0.33922629163E+03  0.67617545744E+03  0.43907983260E+02  0.75777017438E+03  0.00000000000E+00 0. -1.
         -4    1    3    3    0  502  0.39906953977E+03  0.10425777238E+04  0.56472088152E+02  0.11177718482E+04  0.00000000000E+00 0.  1.
         13    1    5    5    0    0 -0.11372785948E+03 -0.22571682451E+03  0.17407833326E+03  0.30689636199E+03  0.00000000000E+00 0. -1.
        -13    1    5    5    0    0 -0.82101042124E+01 -0.18604838924E+03  0.11765460975E+03  0.22028167456E+03  0.00000000000E+00 0.  1.
          3    1    6    6  503    0 -0.20597856636E+03 -0.46839008099E+03  0.78353231430E+03  0.93580944926E+03  0.00000000000E+00 0. -1.
         -3    1    6    6    0  503 -0.41037930135E+03 -0.83859788652E+03  0.16618119641E+04  0.19061155763E+04  0.00000000000E+00 0.  1.
<mgrwt>
<rscale>  0 0.18785630E+04</rscale>
<asrwt>0</asrwt>
<pdfrwt beam="1">  1        2 0.62170018E+00 0.18785630E+04</pdfrwt>
<pdfrwt beam="2">  1       -2 0.18516829E+00 0.18785630E+04</pdfrwt>
<totfact> 0.48229040E-02</totfact>
</mgrwt>
</event>
<event>
12    1  0.1444206E-007  0.8366062E+03  0.7818608E-02  0.9508492E-01
          2   -1    0    0  501    0  0.00000000000E+00  0.00000000000E+00  0.11769274516E+04  0.11769274516E+04  0.00000000000E+00 0. -1.
         -2   -1    0    0    0  501 -0.00000000000E+00 -0.00000000000E+00 -0.61459656676E+03  0.61459656676E+03  0.00000000000E+00 0.  1.
         23    2    1    2    0    0  0.66729474353E+03  0.32322645798E+03  0.23760713861E+03  0.78387032322E+03  0.90762951813E+02 0.  0.
    5000000    2    1    2    0    0 -0.66729474353E+03 -0.32322645798E+03  0.32472374621E+03  0.10076536951E+04  0.60013568472E+03 0.  0.
         23    2    4    4    0    0 -0.18906257561E+03 -0.39364970596E+03  0.63306379209E+02  0.45062232886E+03  0.91367593356E+02 0.  0.
         23    2    4    4    0    0 -0.47823216791E+03  0.70423247979E+02  0.26141736700E+03  0.55703136627E+03  0.90991554317E+02 0.  0.
          3    1    3    3  502    0  0.38304136696E+03  0.22518347319E+03  0.16954152079E+03  0.47557608505E+03  0.00000000000E+00 0. -1.
         -3    1    3    3    0  502  0.28425337656E+03  0.98042984793E+02  0.68065617819E+02  0.30829423816E+03  0.00000000000E+00 0.  1.
         11    1    5    5    0    0 -0.10644797649E+03 -0.29783823749E+03  0.69969862083E+02  0.32393605698E+03  0.00000000000E+00 0.  1.
        -11    1    5    5    0    0 -0.82614599123E+02 -0.95811468471E+02 -0.66634828743E+01  0.12668627188E+03  0.00000000000E+00 0. -1.
          4    1    6    6  503    0 -0.17203388562E+03  0.46814238494E+02  0.53434676853E+02  0.18612494571E+03  0.00000000000E+00 0. -1.
         -4    1    6    6    0  503 -0.30619828230E+03  0.23609009486E+02  0.20798269015E+03  0.37090642056E+03  0.00000000000E+00 0.  1.
<mgrwt>
<rscale>  0 0.83660621E+03</rscale>
<asrwt>0</asrwt>
<pdfrwt beam="1">  1        2 0.18106576E+00 0.83660621E+03</pdfrwt>
<pdfrwt beam="2">  1       -2 0.94553318E-01 0.83660621E+03</pdfrwt>
<totfact> 0.18602596E+01</totfact>
</mgrwt>
</event>
<event>
12    1  0.1444206E-007  0.1699385E+04  0.7818608E-02  0.8761715E-01
         -1   -1    0    0    0  501 -0.00000000000E+00  0.00000000000E+00  0.20360447465E+04  0.20360447465E+04  0.00000000000E+00 0.  1.
          1   -1    0    0  501    0  0.00000000000E+00 -0.00000000000E+00 -0.15025106794E+04  0.15025106794E+04  0.00000000000E+00 0. -1.
         23    2    1    2    0    0  0.33280992481E+03  0.16628885634E+04  0.21931863384E+03  0.17124164025E+04  0.91150709579E+02 0.  0.
    5000000    2    1    2    0    0 -0.33280992481E+03 -0.16628885634E+04  0.31421543331E+03  0.18261390235E+04  0.60007630685E+03 0.  0.
         23    2    4    4    0    0 -0.79232746012E+02 -0.34445523924E+03 -0.16123581772E+03  0.39901564246E+03  0.91045341078E+02 0.  0.
         23    2    4    4    0    0 -0.25357717880E+03 -0.13184333242E+04  0.47545125103E+03  0.14271233810E+04  0.89774364652E+02 0.  0.
          1    1    3    3  502    0  0.33971765198E+02  0.24918485624E+03  0.61338447485E+02  0.25886208403E+03  0.00000000000E+00 0. -1.
         -1    1    3    3    0  502  0.29883815961E+03  0.14137037072E+04  0.15798018636E+03  0.14535543184E+04  0.00000000000E+00 0.  1.
         13    1    5    5    0    0 -0.86807658581E+02 -0.33505680130E+03 -0.13758492897E+03  0.37246240396E+03  0.00000000000E+00 0. -1.
        -13    1    5    5    0    0  0.75749125686E+01 -0.93984379443E+01 -0.23650888753E+02  0.26553238503E+02  0.00000000000E+00 0.  1.
          3    1    6    6  503    0 -0.19328525374E+03 -0.84120969500E+03  0.33689933745E+03  0.92654956901E+03  0.00000000000E+00 0. -1.
         -3    1    6    6    0  503 -0.60291925059E+02 -0.47722362919E+03  0.13855191358E+03  0.50057381198E+03  0.00000000000E+00 0.  1.
<mgrwt>
<rscale>  0 0.16993855E+04</rscale>
<asrwt>0</asrwt>
<pdfrwt beam="1">  1        1 0.23115549E+00 0.16993855E+04</pdfrwt>
<pdfrwt beam="2">  1       -1 0.31323765E+00 0.16993855E+04</pdfrwt>
<totfact> 0.16325792E-01</totfact>
</mgrwt>
</event>
<event>
12    1  0.1444206E-007  0.9182216E+03  0.7818608E-02  0.9403086E-01
         -1   -1    0    0    0  501 -0.00000000000E+00  0.00000000000E+00  0.17873209954E+04  0.17873209954E+04  0.00000000000E+00 0.  1.
          1   -1    0    0  501    0  0.00000000000E+00 -0.00000000000E+00 -0.74777482948E+03  0.74777482948E+03  0.00000000000E+00 0. -1.
         23    2    1    2    0    0  0.89228747408E+03 -0.85751598527E+02 -0.16741293121E+03  0.91638313061E+03  0.90557603050E+02 0.  0.
    5000000    2    1    2    0    0 -0.89228747408E+03  0.85751598527E+02  0.12069590972E+04  0.16187126943E+04  0.59995854144E+03 0.  0.
         23    2    4    4    0    0 -0.63837583292E+03  0.17877698181E+03  0.44280633047E+03  0.80271882628E+03  0.93782484947E+02 0.  0.
         23    2    4    4    0    0 -0.25391164116E+03 -0.93025383279E+02  0.76415276669E+03  0.81599386803E+03  0.93764056887E+02 0.  0.
          2    1    3    3  502    0  0.37957355478E+02 -0.54827537661E+01 -0.26941852878E+02  0.46868804766E+02  0.00000000000E+00 0. -1.
         -2    1    3    3    0  502  0.85433011861E+03 -0.80268844760E+02 -0.14047107833E+03  0.86951432584E+03  0.00000000000E+00 0.  1.
         11    1    5    5    0    0 -0.52459297228E+03  0.17191770499E+03  0.33449314266E+03  0.64547590686E+03  0.00000000000E+00 0.  1.
        -11    1    5    5    0    0 -0.11378286064E+03  0.68592768159E+01  0.10831318781E+03  0.15724291942E+03  0.00000000000E+00 0. -1.
          2    1    6    6  503    0 -0.18939509675E+03 -0.89161043840E+02  0.46511365410E+03  0.51004990505E+03  0.00000000000E+00 0. -1.
         -2    1    6    6    0  503 -0.64516544413E+02 -0.38643394383E+01  0.29903911260E+03  0.30594396298E+03  0.00000000000E+00 0.  1.
<mgrwt>
<rscale>  0 0.91822156E+03</rscale>
<asrwt>0</asrwt>
<pdfrwt beam="1">  1        1 0.11504228E+00 0.91822156E+03</pdfrwt>
<pdfrwt beam="2">  1       -1 0.27497246E+00 0.91822156E+03</pdfrwt>
<totfact> 0.12073311E+00</totfact>
</mgrwt>
</event>
<event>
12    1  0.1444206E-007  0.8299873E+03  0.7818608E-02  0.9517598E-01
         -2   -1    0    0    0  501 -0.00000000000E+00  0.00000000000E+00  0.11397185336E+04  0.11397185336E+04  0.00000000000E+00 0.  1.
          2   -1    0    0  501    0  0.00000000000E+00 -0.00000000000E+00 -0.86566491255E+03  0.86566491255E+03  0.00000000000E+00 0. -1.
         23    2    1    2    0    0 -0.80468697144E+03 -0.42306571272E+02  0.52990449568E+03  0.96870684570E+03  0.91012144175E+02 0.  0.
    5000000    2    1    2    0    0  0.80468697144E+03  0.42306571272E+02 -0.25585087463E+03  0.10366766005E+04  0.59993977689E+03 0.  0.
         23    2    4    4    0    0  0.36220653840E+03  0.14505041394E+03 -0.38598248557E+03  0.55640358151E+03  0.91483699700E+02 0.  0.
         23    2    4    4    0    0  0.44248043304E+03 -0.10274384267E+03  0.13013161093E+03  0.48027301894E+03  0.85922672958E+02 0.  0.
          3    1    3    3  502    0 -0.33532943061E+03  0.13927010178E+02  0.25841892924E+03  0.42358013602E+03  0.00000000000E+00 0. -1.
         -3    1    3    3    0  502 -0.46935754083E+03 -0.56233581450E+02  0.27148556645E+03  0.54512670968E+03  0.00000000000E+00 0.  1.
         13    1    5    5    0    0  0.92143352878E+02  0.14558293363E+02 -0.14132983888E+03  0.16934126710E+03  0.00000000000E+00 0.  1.
        -13    1    5    5    0    0  0.27006318552E+03  0.13049212058E+03 -0.24465264669E+03  0.38706231441E+03  0.00000000000E+00 0. -1.
          1    1    6    6  503    0  0.24994501471E+03 -0.26536881625E+02  0.40306942183E+02  0.25456112440E+03  0.00000000000E+00 0. -1.
         -1    1    6    6    0  503  0.19253541833E+03 -0.76206961047E+02  0.89824668751E+02  0.22571189455E+03  0.00000000000E+00 0.  1.
<mgrwt>
<rscale>  0 0.82998730E+03</rscale>
<asrwt>0</asrwt>
<pdfrwt beam="1">  1        2 0.13317922E+00 0.82998730E+03</pdfrwt>
<pdfrwt beam="2">  1       -2 0.17534131E+00 0.82998730E+03</pdfrwt>
<totfact> 0.61047763E+00</totfact>
</mgrwt>
</event>
<event>
12    1  0.1444206E-007  0.8518408E+03  0.7818608E-02  0.9487870E-01
          2   -1    0    0  501    0  0.00000000000E+00  0.00000000000E+00  0.19355953315E+04  0.19355953315E+04  0.00000000000E+00 0. -1.
         -2   -1    0    0    0  501 -0.00000000000E+00 -0.00000000000E+00 -0.42734906042E+03  0.42734906042E+03  0.00000000000E+00 0.  1.
         23    2    1    2    0    0 -0.61910469898E+03  0.44815351126E+03  0.33879444371E+03  0.84256558541E+03  0.10489467417E+03 0.  0.
    5000000    2    1    2    0    0  0.61910469898E+03 -0.44815351126E+03  0.11694518273E+04  0.15203788065E+04  0.59983492794E+03 0.  0.
         23    2    4    4    0    0 -0.53572015935E+02  0.60368913821E+02  0.16664445589E+03  0.20709135768E+03  0.92747447945E+02 0.  0.
         23    2    4    4    0    0  0.67267671492E+03 -0.50852242508E+03  0.10028073715E+04  0.13132874488E+04  0.89511336393E+02 0.  0.
          3    1    3    3  502    0 -0.24341741002E+03  0.23015837094E+03  0.17842135857E+03  0.37955117232E+03  0.00000000000E+00 0. -1.
         -3    1    3    3    0  502 -0.37568728896E+03  0.21799514032E+03  0.16037308514E+03  0.46301441309E+03  0.00000000000E+00 0.  1.
         11    1    5    5    0    0  0.62880502720E+00  0.24715846755E+02  0.13051001953E+03  0.13283122251E+03  0.00000000000E+00 0.  1.
        -11    1    5    5    0    0 -0.54200820963E+02  0.35653067066E+02  0.36134436359E+02  0.74260135168E+02  0.00000000000E+00 0. -1.
          4    1    6    6  503    0  0.30302920067E+03 -0.26023325827E+03  0.53191611759E+03  0.66519380734E+03  0.00000000000E+00 0.  1.
         -4    1    6    6    0  503  0.36964751424E+03 -0.24828916680E+03  0.47089125387E+03  0.64809364147E+03  0.00000000000E+00 0. -1.
<mgrwt>
<rscale>  0 0.85184078E+03</rscale>
<asrwt>0</asrwt>
<pdfrwt beam="1">  1        2 0.29778389E+00 0.85184078E+03</pdfrwt>
<pdfrwt beam="2">  1       -2 0.65746011E-01 0.85184078E+03</pdfrwt>
<totfact> 0.15754617E+01</totfact>
</mgrwt>
</event>
<event>
12    1  0.1444206E-007  0.1139796E+04  0.7818608E-02  0.9167250E-01
         -1   -1    0    0    0  501 -0.00000000000E+00  0.00000000000E+00  0.75484070566E+03  0.75484070566E+03  0.00000000000E+00 0.  1.
          1   -1    0    0  501    0  0.00000000000E+00 -0.00000000000E+00 -0.19544758072E+04  0.19544758072E+04  0.00000000000E+00 0. -1.
         23    2    1    2    0    0  0.57207018549E+03 -0.92990889637E+03 -0.92412127969E+03  0.14333894617E+04  0.92792008316E+02 0.  0.
    5000000    2    1    2    0    0 -0.57207018549E+03  0.92990889637E+03 -0.27551382181E+03  0.12759270511E+04  0.60007259641E+03 0.  0.
         23    2    4    4    0    0 -0.63448186245E+03  0.89043775841E+03 -0.16147534640E+03  0.11091417440E+04  0.93136917129E+02 0.  0.
         23    2    4    4    0    0  0.62411676955E+02  0.39471137958E+02 -0.11403847541E+03  0.16678530710E+03  0.96743871323E+02 0.  0.
          3    1    3    3  502    0  0.46288135207E+03 -0.81450431304E+03 -0.79166911849E+03  0.12265465402E+04  0.00000000000E+00 0. -1.
         -3    1    3    3    0  502  0.10918883342E+03 -0.11540458332E+03 -0.13245216120E+03  0.20684292157E+03  0.00000000000E+00 0.  1.
         13    1    5    5    0    0 -0.93291284138E+02  0.14004704922E+03  0.84117840383E+01  0.16848500765E+03  0.00000000000E+00 0.  1.
        -13    1    5    5    0    0 -0.54119057831E+03  0.75039070919E+03 -0.16988713043E+03  0.94065673632E+03  0.00000000000E+00 0. -1.
          1    1    6    6  503    0  0.68909835598E+02  0.44642608793E+02 -0.12709590465E+03  0.15131059758E+03  0.00000000000E+00 0. -1.
         -1    1    6    6    0  503 -0.64981586424E+01 -0.51714708347E+01  0.13057429239E+02  0.15474709518E+02  0.00000000000E+00 0.  1.
<mgrwt>
<rscale>  0 0.11397955E+04</rscale>
<asrwt>0</asrwt>
<pdfrwt beam="1">  1        1 0.30068859E+00 0.11397955E+04</pdfrwt>
<pdfrwt beam="2">  1       -1 0.11612934E+00 0.11397955E+04</pdfrwt>
<totfact> 0.21277558E+00</totfact>
</mgrwt>
</event>
<event>
12    1  0.1444206E-007  0.4822976E+03  0.7818608E-02  0.1018506E+00
         -1   -1    0    0    0  501 -0.00000000000E+00  0.00000000000E+00  0.17032926415E+03  0.17032926415E+03  0.00000000000E+00 0.  1.
          1   -1    0    0  501    0  0.00000000000E+00 -0.00000000000E+00 -0.18501446652E+04  0.18501446652E+04  0.00000000000E+00 0. -1.
         23    2    1    2    0    0  0.34798999508E+03 -0.66436657616E+02 -0.91554247148E+03  0.98617199373E+03  0.93841984046E+02 0.  0.
    5000000    2    1    2    0    0 -0.34798999508E+03  0.66436657616E+02 -0.76427292954E+03  0.10343019356E+04  0.60013041668E+03 0.  0.
         23    2    4    4    0    0  0.33402479810E+02 -0.13855609217E+03 -0.47797368090E+03  0.50708088589E+03  0.91425756012E+02 0.  0.
         23    2    4    4    0    0 -0.38139247489E+03  0.20499274978E+03 -0.28629924864E+03  0.52722104973E+03  0.92263362921E+02 0.  0.
          3    1    3    3  502    0  0.31462967176E+03 -0.86972311519E+02 -0.79437530446E+03  0.85882951606E+03  0.00000000000E+00 0. -1.
         -3    1    3    3    0  502  0.33360323315E+02  0.20535653903E+02 -0.12116716702E+03  0.12734247766E+03  0.00000000000E+00 0.  1.
         13    1    5    5    0    0 -0.24196031013E+02 -0.81128353122E+02 -0.19353761822E+03  0.21124409403E+03  0.00000000000E+00 0. -1.
        -13    1    5    5    0    0  0.57598510822E+02 -0.57427739045E+02 -0.28443606268E+03  0.29583679186E+03  0.00000000000E+00 0.  1.
          1    1    6    6  503    0 -0.26569550554E+03  0.14376052629E+03 -0.24794341573E+03  0.39081597714E+03  0.00000000000E+00 0. -1.
         -1    1    6    6    0  503 -0.11569696934E+03  0.61232223489E+02 -0.38355832918E+02  0.13640507259E+03  0.00000000000E+00 0.  1.
<mgrwt>
<rscale>  0 0.48229756E+03</rscale>
<asrwt>0</asrwt>
<pdfrwt beam="1">  1        1 0.28463762E+00 0.48229756E+03</pdfrwt>
<pdfrwt beam="2">  1       -1 0.26204504E-01 0.48229756E+03</pdfrwt>
<totfact> 0.52138410E+01</totfact>
</mgrwt>
</event>
<event>
12    1  0.1444206E-007  0.8402072E+03  0.7818608E-02  0.9503576E-01
         -1   -1    0    0    0  501 -0.00000000000E+00  0.00000000000E+00  0.60131367697E+03  0.60131367697E+03  0.00000000000E+00 0.  1.
          1   -1    0    0  501    0  0.00000000000E+00 -0.00000000000E+00 -0.18855101129E+04  0.18855101129E+04  0.00000000000E+00 0. -1.
         23    2    1    2    0    0  0.54676856028E+03  0.57922974599E+03 -0.12549687862E+04  0.14892088898E+04  0.91288037803E+02 0.  0.
    5000000    2    1    2    0    0 -0.54676856028E+03 -0.57922974599E+03 -0.29227649665E+02  0.99761490005E+03  0.59993189292E+03 0.  0.
         23    2    4    4    0    0 -0.46947438909E+03 -0.61535723501E+03 -0.18091106212E+03  0.80064388405E+03  0.96078551084E+02 0.  0.
         23    2    4    4    0    0 -0.77294171195E+02  0.36127489018E+02  0.15168341245E+03  0.19697101600E+03  0.92250415550E+02 0.  0.
          1    1    3    3  502    0  0.49999202134E+02  0.59614373143E+02 -0.17911237351E+03  0.19528193988E+03  0.00000000000E+00 0. -1.
         -1    1    3    3    0  502  0.49676935815E+03  0.51961537285E+03 -0.10758564127E+04  0.12939269499E+04  0.00000000000E+00 0.  1.
         11    1    5    5    0    0 -0.18252719534E+03 -0.19323359583E+03 -0.25200360189E+02  0.26700272986E+03  0.00000000000E+00 0. -1.
        -11    1    5    5    0    0 -0.28694719375E+03 -0.42212363918E+03 -0.15571070193E+03  0.53364115419E+03  0.00000000000E+00 0.  1.
          1    1    6    6  503    0 -0.69394264238E+02 -0.11456094300E+01  0.14138748796E+03  0.15750332721E+03  0.00000000000E+00 0. -1.
         -1    1    6    6    0  503 -0.78999069568E+01  0.37273098448E+02  0.10295924495E+02  0.39467688798E+02  0.00000000000E+00 0.  1.
<mgrwt>
<rscale>  0 0.84020717E+03</rscale>
<asrwt>0</asrwt>
<pdfrwt beam="1">  1        1 0.29007848E+00 0.84020717E+03</pdfrwt>
<pdfrwt beam="2">  1       -1 0.92509795E-01 0.84020717E+03</pdfrwt>
<totfact> 0.41840144E+00</totfact>
</mgrwt>
</event>
<event>
12    1  0.1444206E-007  0.7445627E+03  0.7818608E-02  0.9643919E-01
          2   -1    0    0  501    0  0.00000000000E+00  0.00000000000E+00  0.14714837311E+04  0.14714837311E+04  0.00000000000E+00 0. -1.
         -2   -1    0    0    0  501 -0.00000000000E+00 -0.00000000000E+00 -0.45730105406E+03  0.45730105406E+03  0.00000000000E+00 0.  1.
         23    2    1    2    0    0 -0.21954674023E+03 -0.66780857165E+03  0.35070148290E+03  0.79094868767E+03  0.91865319372E+02 0.  0.
    5000000    2    1    2    0    0  0.21954674023E+03  0.66780857165E+03  0.66348119417E+03  0.11378360975E+04  0.60024547503E+03 0.  0.
         23    2    4    4    0    0 -0.46832684227E+02  0.31848980409E+03  0.59669093228E+03  0.68406507873E+03  0.90972015758E+02 0.  0.
         23    2    4    4    0    0  0.26637942445E+03  0.34931876756E+03  0.66790261885E+02  0.45377101879E+03  0.92008691269E+02 0.  0.
          1    1    3    3  502    0 -0.22245607705E+03 -0.59587317601E+03  0.30254230919E+03  0.70433187984E+03  0.00000000000E+00 0. -1.
         -1    1    3    3    0  502  0.29093368217E+01 -0.71935395638E+02  0.48159173710E+02  0.86616807831E+02  0.00000000000E+00 0.  1.
         11    1    5    5    0    0  0.11668124452E+02  0.21596916490E+03  0.37459766700E+03  0.43255316140E+03  0.00000000000E+00 0. -1.
        -11    1    5    5    0    0 -0.58500808679E+02  0.10252063920E+03  0.22209326528E+03  0.25151191733E+03  0.00000000000E+00 0.  1.
          1    1    6    6  503    0  0.20432190587E+03  0.20388791505E+03  0.63850528406E+02  0.29562579911E+03  0.00000000000E+00 0. -1.
         -1    1    6    6    0  503  0.62057518580E+02  0.14543085251E+03  0.29397334789E+01  0.15814521967E+03  0.00000000000E+00 0.  1.
<mgrwt>
<rscale>  0 0.74456269E+03</rscale>
<asrwt>0</asrwt>
<pdfrwt beam="1">  1        2 0.22638211E+00 0.74456269E+03</pdfrwt>
<pdfrwt beam="2">  1       -2 0.70354009E-01 0.74456269E+03</pdfrwt>
<totfact> 0.24798465E+01</totfact>
</mgrwt>
</event>
<event>
12    1  0.2034767E-007  0.1069804E+04  0.7818608E-02  0.9235134E-01
          2   -1    0    0  501    0  0.00000000000E+00  0.00000000000E+00  0.23836029457E+04  0.23836029457E+04  0.00000000000E+00 0. -1.
         -2   -1    0    0    0  501 -0.00000000000E+00 -0.00000000000E+00 -0.75934859392E+03  0.75934859392E+03  0.00000000000E+00 0.  1.
         23    2    1    2    0    0 -0.95683672750E+03 -0.41471225711E+03  0.16332409879E+04  0.19398877659E+04  0.90363933922E+02 0.  0.
    5000000    2    1    2    0    0  0.95683672750E+03  0.41471225711E+03 -0.89866360996E+01  0.12030637737E+04  0.59979905358E+03 0.  0.
         23    2    4    4    0    0  0.20054449623E+03 -0.18646959327E+02 -0.20904253635E+03  0.30428689465E+03  0.91246524284E+02 0.  0.
         23    2    4    4    0    0  0.75629223127E+03  0.43335921644E+03  0.20005590025E+03  0.89877687905E+03  0.89439172289E+02 0.  0.
          3    1    3    3  502    0 -0.25949342570E+03 -0.15151384447E+03  0.50632109714E+03  0.58877358675E+03  0.00000000000E+00 0. -1.
         -3    1    3    3    0  502 -0.69734330181E+03 -0.26319841264E+03  0.11269198907E+04  0.13511141792E+04  0.00000000000E+00 0.  1.
         11    1    5    5    0    0  0.15639035400E+03  0.25653342476E+02 -0.14599466890E+03  0.21547733094E+03  0.00000000000E+00 0. -1.
        -11    1    5    5    0    0  0.44154142230E+02 -0.44300301803E+02 -0.63047867449E+02  0.88809563707E+02  0.00000000000E+00 0.  1.
          2    1    6    6  503    0  0.36696970480E+03  0.23528134669E+03  0.59815960168E+02  0.44000230162E+03  0.00000000000E+00 0. -1.
         -2    1    6    6    0  503  0.38932252648E+03  0.19807786975E+03  0.14023994008E+03  0.45877457744E+03  0.00000000000E+00 0.  1.
<mgrwt>
<rscale>  0 0.10698037E+04</rscale>
<asrwt>0</asrwt>
<pdfrwt beam="1">  1        2 0.36670814E+00 0.10698037E+04</pdfrwt>
<pdfrwt beam="2">  1       -2 0.11682286E+00 0.10698037E+04</pdfrwt>
<totfact> 0.22949815E+00</totfact>
</mgrwt>
</event>
<event>
12    1  0.1444206E-007  0.1306797E+04  0.7818608E-02  0.9024192E-01
         -3   -1    0    0    0  501 -0.00000000000E+00  0.00000000000E+00  0.25688803275E+04  0.25688803275E+04  0.00000000000E+00 0.  1.
          3   -1    0    0  501    0  0.00000000000E+00 -0.00000000000E+00 -0.87334165546E+03  0.87334165546E+03  0.00000000000E+00 0. -1.
         23    2    1    2    0    0 -0.93848379644E+03 -0.86138987626E+03  0.15772243095E+04  0.20294501991E+04  0.91034240903E+02 0.  0.
    5000000    2    1    2    0    0  0.93848379644E+03  0.86138987626E+03  0.11831436251E+03  0.14127717839E+04  0.59931750333E+03 0.  0.
         23    2    4    4    0    0  0.34317757909E+03  0.58113952923E+03 -0.14717579859E+03  0.69748488029E+03  0.96594199219E+02 0.  0.
         23    2    4    4    0    0  0.59530621735E+03  0.28025034703E+03  0.26549016111E+03  0.71528690357E+03  0.90667410630E+02 0.  0.
          4    1    3    3  502    0 -0.10735067071E+03 -0.67184644674E+02  0.18010891459E+03  0.22017530310E+03  0.00000000000E+00 0. -1.
         -4    1    3    3    0  502 -0.83113312573E+03 -0.79420523158E+03  0.13971153950E+04  0.18092748960E+04  0.00000000000E+00 0.  1.
         11    1    5    5    0    0  0.20502574513E+03  0.32655006599E+03 -0.36117090201E+02  0.38726598866E+03  0.00000000000E+00 0.  1.
        -11    1    5    5    0    0  0.13815183395E+03  0.25458946323E+03 -0.11105870839E+03  0.31021889163E+03  0.00000000000E+00 0. -1.
          4    1    6    6  503    0  0.35514801775E+03  0.12664819085E+03  0.17893882091E+03  0.41735953371E+03  0.00000000000E+00 0. -1.
         -4    1    6    6    0  503  0.24015819961E+03  0.15360215618E+03  0.86551340202E+02  0.29792736986E+03  0.00000000000E+00 0.  1.
<mgrwt>
<rscale>  0 0.13067969E+04</rscale>
<asrwt>0</asrwt>
<pdfrwt beam="1">  1        3 0.13436026E+00 0.13067969E+04</pdfrwt>
<pdfrwt beam="2">  1       -3 0.39521235E+00 0.13067969E+04</pdfrwt>
<totfact> 0.11935888E-02</totfact>
</mgrwt>
</event>
<event>
12    1  0.1444206E-007  0.6089455E+03  0.7818608E-02  0.9887019E-01
          2   -1    0    0  501    0  0.00000000000E+00  0.00000000000E+00  0.17158028769E+04  0.17158028769E+04  0.00000000000E+00 0.  1.
         -2   -1    0    0    0  501 -0.00000000000E+00 -0.00000000000E+00 -0.23449551043E+03  0.23449551043E+03  0.00000000000E+00 0. -1.
         23    2    1    2    0    0  0.46751125526E+03  0.85741500312E+02  0.74156605757E+03  0.88550621549E+03  0.91009127389E+02 0.  0.
    5000000    2    1    2    0    0 -0.46751125526E+03 -0.85741500312E+02  0.73974130889E+03  0.10647921718E+04  0.60053874681E+03 0.  0.
         23    2    4    4    0    0 -0.25533156012E+03  0.23232322740E+03  0.46301672606E+03  0.58457711504E+03  0.90430234094E+02 0.  0.
         23    2    4    4    0    0 -0.21217969513E+03 -0.31806472771E+03  0.27672458283E+03  0.48021505678E+03  0.88569814122E+02 0.  0.
          4    1    3    3  502    0  0.28976142365E+03  0.82211885547E+02  0.40323326839E+03  0.50330661182E+03  0.00000000000E+00 0. -1.
         -4    1    3    3    0  502  0.17774983161E+03  0.35296147648E+01  0.33833278917E+03  0.38219960367E+03  0.00000000000E+00 0.  1.
         13    1    5    5    0    0 -0.12319927786E+03  0.72134662745E+02  0.13581531758E+03  0.19704637050E+03  0.00000000000E+00 0. -1.
        -13    1    5    5    0    0 -0.13213228226E+03  0.16018856465E+03  0.32720140847E+03  0.38753074455E+03  0.00000000000E+00 0.  1.
          3    1    6    6  503    0 -0.85482283270E+02 -0.72160098777E+02  0.11180118573E+03  0.15815753457E+03  0.00000000000E+00 0. -1.
         -3    1    6    6    0  503 -0.12669741186E+03 -0.24590462893E+03  0.16492339710E+03  0.32205752221E+03  0.00000000000E+00 0.  1.
<mgrwt>
<rscale>  0 0.60894554E+03</rscale>
<asrwt>0</asrwt>
<pdfrwt beam="1">  1        2 0.26396967E+00 0.60894554E+03</pdfrwt>
<pdfrwt beam="2">  1       -2 0.36076233E-01 0.60894554E+03</pdfrwt>
<totfact> 0.72234638E+01</totfact>
</mgrwt>
</event>
<event>
12    1  0.1444206E-007  0.7860151E+03  0.7818608E-02  0.9580483E-01
          1   -1    0    0  501    0  0.00000000000E+00  0.00000000000E+00  0.17520142063E+04  0.17520142063E+04  0.00000000000E+00 0. -1.
         -1   -1    0    0    0  501 -0.00000000000E+00 -0.00000000000E+00 -0.38107304448E+03  0.38107304448E+03  0.00000000000E+00 0.  1.
         23    2    1    2    0    0  0.45541688914E+03 -0.50427485556E+03  0.37339466296E+03  0.78478174632E+03  0.12149544096E+03 0.  0.
    5000000    2    1    2    0    0 -0.45541688914E+03  0.50427485556E+03  0.99754649881E+03  0.13483055044E+04  0.60094179673E+03 0.  0.
         23    2    4    4    0    0 -0.62109171683E+02 -0.12113766881E+03  0.18209489821E+03  0.24447678584E+03  0.89880269516E+02 0.  0.
         23    2    4    4    0    0 -0.39330771745E+03  0.62541252437E+03  0.81545160060E+03  0.11038287186E+04  0.87434208172E+02 0.  0.
          4    1    3    3  502    0  0.15798257551E+03 -0.12385820380E+03  0.16060135409E+03  0.25708392356E+03  0.00000000000E+00 0. -1.
         -4    1    3    3    0  502  0.29743431362E+03 -0.38041665176E+03  0.21279330887E+03  0.52769782277E+03  0.00000000000E+00 0.  1.
         11    1    5    5    0    0  0.82326889689E+01 -0.41665054433E+02  0.12255124278E+02  0.44203416153E+02  0.00000000000E+00 0.  1.
        -11    1    5    5    0    0 -0.70341860652E+02 -0.79472614377E+02  0.16983977393E+03  0.20027336969E+03  0.00000000000E+00 0. -1.
          1    1    6    6  503    0 -0.22499862633E+03  0.39272298429E+03  0.55477476322E+03  0.71598237559E+03  0.00000000000E+00 0. -1.
         -1    1    6    6    0  503 -0.16830909112E+03  0.23268954008E+03  0.26067683738E+03  0.38784634298E+03  0.00000000000E+00 0.  1.
<mgrwt>
<rscale>  0 0.78601511E+03</rscale>
<asrwt>0</asrwt>
<pdfrwt beam="1">  1        1 0.26954064E+00 0.78601511E+03</pdfrwt>
<pdfrwt beam="2">  1       -1 0.58626623E-01 0.78601511E+03</pdfrwt>
<totfact> 0.13403956E+01</totfact>
</mgrwt>
</event>
<event>
12    1  0.1444206E-007  0.2303665E+04  0.7818608E-02  0.8476478E-01
         -2   -1    0    0    0  501 -0.00000000000E+00  0.00000000000E+00  0.16545360041E+04  0.16545360041E+04  0.00000000000E+00 0.  1.
          2   -1    0    0  501    0  0.00000000000E+00 -0.00000000000E+00 -0.32405909519E+04  0.32405909519E+04  0.00000000000E+00 0. -1.
         23    2    1    2    0    0  0.15928506275E+04 -0.16124653204E+04 -0.56467945131E+03  0.23376777613E+04  0.93042474806E+02 0.  0.
    5000000    2    1    2    0    0 -0.15928506275E+04  0.16124653204E+04 -0.10213754965E+04  0.25574491947E+04  0.60010078112E+03 0.  0.
         23    2    4    4    0    0 -0.13038177581E+04  0.95517686560E+03 -0.65510461860E+03  0.17463498903E+04  0.90952114204E+02 0.  0.
         23    2    4    4    0    0 -0.28903286937E+03  0.65728845482E+03 -0.36627087786E+03  0.81109930437E+03  0.90330577135E+02 0.  0.
          4    1    3    3  502    0  0.12424233742E+04 -0.13026142969E+04 -0.46928332147E+03  0.18602813452E+04  0.00000000000E+00 0. -1.
         -4    1    3    3    0  502  0.35042725327E+03 -0.30985102350E+03 -0.95396129842E+02  0.47739641619E+03  0.00000000000E+00 0.  1.
         11    1    5    5    0    0 -0.85743069402E+03  0.67883319263E+03 -0.45539258661E+03  0.11846452239E+04  0.00000000000E+00 0.  1.
        -11    1    5    5    0    0 -0.44638706409E+03  0.27634367297E+03 -0.19971203199E+03  0.56170466644E+03  0.00000000000E+00 0. -1.
          3    1    6    6  503    0 -0.83314534381E+02  0.26615404698E+03 -0.10690650220E+03  0.29867756624E+03  0.00000000000E+00 0. -1.
         -3    1    6    6    0  503 -0.20571833499E+03  0.39113440784E+03 -0.25936437565E+03  0.51242173813E+03  0.00000000000E+00 0.  1.
<mgrwt>
<rscale>  0 0.23036647E+04</rscale>
<asrwt>0</asrwt>
<pdfrwt beam="1">  1        2 0.49855245E+00 0.23036647E+04</pdfrwt>
<pdfrwt beam="2">  1       -2 0.25454400E+00 0.23036647E+04</pdfrwt>
<totfact> 0.63344672E-02</totfact>
</mgrwt>
</event>
<event>
12    1  0.1444206E-007  0.1049044E+04  0.7818608E-02  0.9256332E-01
         -2   -1    0    0    0  501 -0.00000000000E+00  0.00000000000E+00  0.11937680614E+04  0.11937680614E+04  0.00000000000E+00 0.  1.
          2   -1    0    0  501    0  0.00000000000E+00 -0.00000000000E+00 -0.17035309024E+04  0.17035309024E+04  0.00000000000E+00 0. -1.
         23    2    1    2    0    0  0.76937104926E+03 -0.60371311723E+03  0.71813073419E+03  0.12167597834E+04  0.91603929151E+02 0.  0.
    5000000    2    1    2    0    0 -0.76937104926E+03  0.60371311723E+03 -0.12278935752E+04  0.16805391803E+04  0.60007329994E+03 0.  0.
         23    2    4    4    0    0 -0.87853237166E+01 -0.77508794115E+02 -0.15253775516E+03  0.19476921825E+03  0.92641710646E+02 0.  0.
         23    2    4    4    0    0 -0.76058572554E+03  0.68122191135E+03 -0.10753558200E+04  0.14857699621E+04  0.92565123924E+02 0.  0.
          3    1    3    3  502    0  0.98541959011E+02 -0.58435102756E+02  0.54197164161E+02  0.12673796402E+03  0.00000000000E+00 0. -1.
         -3    1    3    3    0  502  0.67082909025E+03 -0.54527801448E+03  0.66393357003E+03  0.10900218194E+04  0.00000000000E+00 0.  1.
         11    1    5    5    0    0  0.14409406100E+02 -0.69645988995E+02 -0.44287280102E+02  0.83782802209E+02  0.00000000000E+00 0. -1.
        -11    1    5    5    0    0 -0.23194729817E+02 -0.78628051203E+01 -0.10825047506E+03  0.11098641605E+03  0.00000000000E+00 0.  1.
          2    1    6    6  503    0 -0.36799585471E+03  0.28310556943E+03 -0.44397323028E+03  0.64240325476E+03  0.00000000000E+00 0. -1.
         -2    1    6    6    0  503 -0.39258987084E+03  0.39811634192E+03 -0.63138258972E+03  0.84336670731E+03  0.00000000000E+00 0.  1.
<mgrwt>
<rscale>  0 0.10490439E+04</rscale>
<asrwt>0</asrwt>
<pdfrwt beam="1">  1        2 0.26208168E+00 0.10490439E+04</pdfrwt>
<pdfrwt beam="2">  1       -2 0.18365663E+00 0.10490439E+04</pdfrwt>
<totfact> 0.16507024E+00</totfact>
</mgrwt>
</event>
<event>
12    1  0.1444206E-007  0.7821355E+03  0.7818608E-02  0.9586241E-01
         -2   -1    0    0    0  501 -0.00000000000E+00  0.00000000000E+00  0.36097760712E+03  0.36097760712E+03  0.00000000000E+00 0.  1.
          2   -1    0    0  501    0  0.00000000000E+00 -0.00000000000E+00 -0.20165735944E+04  0.20165735944E+04  0.00000000000E+00 0. -1.
         23    2    1    2    0    0  0.51812013081E+03 -0.42830808831E+03 -0.28282628029E+03  0.73515800799E+03  0.92575933345E+02 0.  0.
    5000000    2    1    2    0    0 -0.51812013081E+03  0.42830808831E+03 -0.13727697070E+04  0.16423931935E+04  0.60088471873E+03 0.  0.
         23    2    4    4    0    0 -0.53778726472E+03  0.96943621022E+02 -0.77260334617E+03  0.95069272373E+03  0.91035798959E+02 0.  0.
         23    2    4    4    0    0  0.19667133909E+02  0.33136446728E+03 -0.60016636079E+03  0.69170046975E+03  0.89781250276E+02 0.  0.
          4    1    3    3  502    0  0.24812655779E+03 -0.15078646989E+03 -0.10114588356E+03  0.30746355547E+03  0.00000000000E+00 0. -1.
         -4    1    3    3    0  502  0.26999357302E+03 -0.27752161842E+03 -0.18168039673E+03  0.42769445252E+03  0.00000000000E+00 0.  1.
         11    1    5    5    0    0 -0.25445916883E+03  0.44375343066E+01 -0.39017081781E+03  0.46583519337E+03  0.00000000000E+00 0. -1.
        -11    1    5    5    0    0 -0.28332809589E+03  0.92506086716E+02 -0.38243252836E+03  0.48485753036E+03  0.00000000000E+00 0.  1.
          3    1    6    6  503    0  0.30214383392E+02  0.18576789354E+03 -0.25500067761E+03  0.31693526913E+03  0.00000000000E+00 0. -1.
         -3    1    6    6    0  503 -0.10547249483E+02  0.14559657374E+03 -0.34516568318E+03  0.37476520062E+03  0.00000000000E+00 0.  1.
<mgrwt>
<rscale>  0 0.78213546E+03</rscale>
<asrwt>0</asrwt>
<pdfrwt beam="1">  1        2 0.31024208E+00 0.78213546E+03</pdfrwt>
<pdfrwt beam="2">  1       -2 0.55535018E-01 0.78213546E+03</pdfrwt>
<totfact> 0.20523348E+01</totfact>
</mgrwt>
</event>
<event>
12    1  0.1444206E-007  0.8681606E+03  0.7818608E-02  0.9466281E-01
          2   -1    0    0  501    0  0.00000000000E+00  0.00000000000E+00  0.11771931110E+04  0.11771931110E+04  0.00000000000E+00 0. -1.
         -2   -1    0    0    0  501 -0.00000000000E+00 -0.00000000000E+00 -0.75300742080E+03  0.75300742080E+03  0.00000000000E+00 0.  1.
         23    2    1    2    0    0  0.32349990129E+03 -0.70566754079E+03 -0.14633675290E+03  0.79504727163E+03  0.89815670159E+02 0.  0.
    5000000    2    1    2    0    0 -0.32349990129E+03  0.70566754079E+03  0.57052244305E+03  0.11351532601E+04  0.60038171331E+03 0.  0.
         23    2    4    4    0    0  0.63321430775E+02 -0.53701760499E+02  0.86494281350E+02  0.15079346476E+03  0.91454500332E+02 0.  0.
         23    2    4    4    0    0 -0.38682133207E+03  0.75936930129E+03  0.48402816170E+03  0.98435979537E+03  0.91697692060E+02 0.  0.
          1    1    3    3  502    0  0.20564698039E+03 -0.52795187035E+03 -0.83279501582E+02  0.57267733789E+03  0.00000000000E+00 0. -1.
         -1    1    3    3    0  502  0.11785292090E+03 -0.17771567045E+03 -0.63057251319E+02  0.22236993374E+03  0.00000000000E+00 0.  1.
         11    1    5    5    0    0  0.77802756405E+01 -0.43229934892E+02  0.83314685462E+02  0.94184376483E+02  0.00000000000E+00 0. -1.
        -11    1    5    5    0    0  0.55541155134E+02 -0.10471825608E+02  0.31795958877E+01  0.56609088274E+02  0.00000000000E+00 0.  1.
          3    1    6    6  503    0 -0.26008631013E+03  0.58755290592E+03  0.34152018275E+03  0.72766705381E+03  0.00000000000E+00 0. -1.
         -3    1    6    6    0  503 -0.12673502194E+03  0.17181639537E+03  0.14250797896E+03  0.25669274156E+03  0.00000000000E+00 0.  1.
<mgrwt>
<rscale>  0 0.86816062E+03</rscale>
<asrwt>0</asrwt>
<pdfrwt beam="1">  1        2 0.18110663E+00 0.86816062E+03</pdfrwt>
<pdfrwt beam="2">  1       -2 0.11584730E+00 0.86816062E+03</pdfrwt>
<totfact> 0.11386410E+01</totfact>
</mgrwt>
</event>
<event>
12    1  0.1444206E-007  0.4547445E+03  0.7818608E-02  0.1026317E+00
          2   -1    0    0  501    0  0.00000000000E+00  0.00000000000E+00  0.14810144875E+04  0.14810144875E+04  0.00000000000E+00 0. -1.
         -2   -1    0    0    0  501 -0.00000000000E+00 -0.00000000000E+00 -0.15544358641E+03  0.15544358641E+03  0.00000000000E+00 0.  1.
         23    2    1    2    0    0  0.27101253092E+03  0.70250469977E+02  0.34390388626E+03  0.45285193611E+03  0.91771850818E+02 0.  0.
    5000000    2    1    2    0    0 -0.27101253092E+03 -0.70250469977E+02  0.98166701484E+03  0.11836061378E+04  0.59905796128E+03 0.  0.
         23    2    4    4    0    0  0.15704184191E+03 -0.94280404067E+02  0.45487523961E+03  0.49837454101E+03  0.88964963939E+02 0.  0.
         23    2    4    4    0    0 -0.42805437283E+03  0.24029934090E+02  0.52679177522E+03  0.68523159680E+03  0.90690589212E+02 0.  0.
          1    1    3    3  502    0  0.40245275534E+02  0.63952620139E+01  0.99789229973E+01  0.41954266567E+02  0.00000000000E+00 0. -1.
         -1    1    3    3    0  502  0.23076725539E+03  0.63855207963E+02  0.33392496326E+03  0.41089766954E+03  0.00000000000E+00 0.  1.
         11    1    5    5    0    0  0.56708020804E+02 -0.73205442505E+02  0.14562741218E+03  0.17257514193E+03  0.00000000000E+00 0.  1.
        -11    1    5    5    0    0  0.10033382110E+03 -0.21074961562E+02  0.30924782744E+03  0.32579939907E+03  0.00000000000E+00 0. -1.
          1    1    6    6  503    0 -0.34683420838E+03  0.46418605198E+02  0.45852276405E+03  0.57679440025E+03  0.00000000000E+00 0. -1.
         -1    1    6    6    0  503 -0.81220164453E+02 -0.22388671108E+02  0.68269011177E+02  0.10843719655E+03  0.00000000000E+00 0.  1.
<mgrwt>
<rscale>  0 0.45474450E+03</rscale>
<asrwt>0</asrwt>
<pdfrwt beam="1">  1        2 0.22784837E+00 0.45474450E+03</pdfrwt>
<pdfrwt beam="2">  1       -2 0.23914399E-01 0.45474450E+03</pdfrwt>
<totfact> 0.21072599E+02</totfact>
</mgrwt>
</event>
<event>
12    1  0.1444206E-007  0.1051588E+04  0.7818608E-02  0.9253706E-01
         -1   -1    0    0    0  501 -0.00000000000E+00  0.00000000000E+00  0.77841498643E+03  0.77841498643E+03  0.00000000000E+00 0.  1.
          1   -1    0    0  501    0  0.00000000000E+00 -0.00000000000E+00 -0.15509823959E+04  0.15509823959E+04  0.00000000000E+00 0. -1.
         23    2    1    2    0    0 -0.11602395782E+03 -0.10025936137E+04 -0.24796710105E+03  0.10433947493E+04  0.92354786814E+02 0.  0.
    5000000    2    1    2    0    0  0.11602395782E+03  0.10025936137E+04 -0.52460030842E+03  0.12860026331E+04  0.59995147781E+03 0.  0.
         23    2    4    4    0    0  0.20542804104E+03  0.94100230940E+03 -0.28775041272E+03  0.10095054178E+04  0.92816281938E+02 0.  0.
         23    2    4    4    0    0 -0.89404083215E+02  0.61591304256E+02 -0.23684989570E+03  0.27649721527E+03  0.92554082063E+02 0.  0.
          1    1    3    3  502    0 -0.71273289011E+02 -0.40839993311E+03 -0.14167695241E+03  0.43811270916E+03  0.00000000000E+00 0. -1.
         -1    1    3    3    0  502 -0.44750668812E+02 -0.59419368055E+03 -0.10629014864E+03  0.60528204010E+03  0.00000000000E+00 0.  1.
         13    1    5    5    0    0  0.94333755801E+02  0.54262155461E+03 -0.12306551476E+03  0.56434220996E+03  0.00000000000E+00 0. -1.
        -13    1    5    5    0    0  0.11109428524E+03  0.39838075479E+03 -0.16468489796E+03  0.44516320784E+03  0.00000000000E+00 0.  1.
          1    1    6    6  503    0 -0.46730783754E+02  0.70702877034E+02 -0.91413330270E+02  0.12465576570E+03  0.00000000000E+00 0. -1.
         -1    1    6    6    0  503 -0.42673299461E+02 -0.91115727775E+01 -0.14543656543E+03  0.15184144957E+03  0.00000000000E+00 0.  1.
<mgrwt>
<rscale>  0 0.10515880E+04</rscale>
<asrwt>0</asrwt>
<pdfrwt beam="1">  1        1 0.23861268E+00 0.10515880E+04</pdfrwt>
<pdfrwt beam="2">  1       -1 0.11975615E+00 0.10515880E+04</pdfrwt>
<totfact> 0.37503221E+00</totfact>
</mgrwt>
</event>
<event>
12    1  0.1444206E-007  0.7359761E+03  0.7818608E-02  0.9657612E-01
          2   -1    0    0  501    0  0.00000000000E+00  0.00000000000E+00  0.15340538255E+04  0.15340538255E+04  0.00000000000E+00 0. -1.
         -2   -1    0    0    0  501 -0.00000000000E+00 -0.00000000000E+00 -0.65756616789E+03  0.65756616789E+03  0.00000000000E+00 0.  1.
         23    2    1    2    0    0  0.47296916767E+03  0.39579730485E+03  0.11334679393E+04  0.12935968882E+04  0.91038450760E+02 0.  0.
    5000000    2    1    2    0    0 -0.47296916767E+03 -0.39579730485E+03 -0.25698028167E+03  0.89802310527E+03  0.60004274209E+03 0.  0.
         23    2    4    4    0    0  0.12153716781E+03 -0.28823635444E+02 -0.63078890748E+02  0.16676709207E+03  0.90720622899E+02 0.  0.
         23    2    4    4    0    0 -0.59450633548E+03 -0.36697366940E+03 -0.19390139092E+03  0.73125601320E+03  0.95027103875E+02 0.  0.
          3    1    3    3  502    0  0.28672387991E+03  0.28116261806E+03  0.79413073229E+03  0.88989135352E+03  0.00000000000E+00 0. -1.
         -3    1    3    3    0  502  0.18624528776E+03  0.11463468679E+03  0.33933720703E+03  0.40370553465E+03  0.00000000000E+00 0.  1.
         13    1    5    5    0    0  0.10560920488E+03  0.11272069214E+02 -0.24745016103E+02  0.10905356263E+03  0.00000000000E+00 0. -1.
        -13    1    5    5    0    0  0.15927962931E+02 -0.40095704658E+02 -0.38333874645E+02  0.57713529441E+02  0.00000000000E+00 0.  1.
          3    1    6    6  503    0 -0.35219559605E+03 -0.25830515980E+03 -0.89087203212E+02  0.44575758349E+03  0.00000000000E+00 0. -1.
         -3    1    6    6    0  503 -0.24231073943E+03 -0.10866850960E+03 -0.10481418771E+03  0.28549842971E+03  0.00000000000E+00 0.  1.
<mgrwt>
<rscale>  0 0.73597611E+03</rscale>
<asrwt>0</asrwt>
<pdfrwt beam="1">  1        2 0.23600828E+00 0.73597611E+03</pdfrwt>
<pdfrwt beam="2">  1       -2 0.10116403E+00 0.73597611E+03</pdfrwt>
<totfact> 0.10025174E+01</totfact>
</mgrwt>
</event>
<event>
12    1  0.1444206E-007  0.5410976E+03  0.7818608E-02  0.1003576E+00
         -2   -1    0    0    0  501 -0.00000000000E+00  0.00000000000E+00  0.10306213722E+04  0.10306213722E+04  0.00000000000E+00 0.  1.
          2   -1    0    0  501    0  0.00000000000E+00 -0.00000000000E+00 -0.42465563956E+03  0.42465563956E+03  0.00000000000E+00 0. -1.
         23    2    1    2    0    0 -0.14295638659E+03 -0.49664297942E+03  0.31180740523E+03  0.61049325755E+03  0.91582651625E+02 0.  0.
    5000000    2    1    2    0    0  0.14295638659E+03  0.49664297942E+03  0.29415832745E+03  0.84478375425E+03  0.60003307605E+03 0.  0.
         23    2    4    4    0    0  0.65134200875E+02  0.37541964383E+03  0.46172359142E+03  0.60554856686E+03  0.91203173437E+02 0.  0.
         23    2    4    4    0    0  0.77822185711E+02  0.12122333559E+03 -0.16756526398E+03  0.23923518739E+03  0.91673155909E+02 0.  0.
          3    1    3    3  502    0 -0.64658052918E+02 -0.34736328443E+03  0.18016107403E+03  0.39661054924E+03  0.00000000000E+00 0. -1.
         -3    1    3    3    0  502 -0.78298333668E+02 -0.14927969500E+03  0.13164633120E+03  0.21388270831E+03  0.00000000000E+00 0.  1.
         13    1    5    5    0    0  0.30779908197E+02  0.34166746294E+03  0.39352772299E+03  0.52206142047E+03  0.00000000000E+00 0.  1.
        -13    1    5    5    0    0  0.34354292678E+02  0.33752180893E+02  0.68195868431E+02  0.83487146385E+02  0.00000000000E+00 0. -1.
          1    1    6    6  503    0  0.62495773352E+02  0.18429982767E+02 -0.48723479260E+02  0.81359470149E+02  0.00000000000E+00 0. -1.
         -1    1    6    6    0  503  0.15326412359E+02  0.10279335282E+03 -0.11884178472E+03  0.15787571724E+03  0.00000000000E+00 0.  1.
<mgrwt>
<rscale>  0 0.54109761E+03</rscale>
<asrwt>0</asrwt>
<pdfrwt beam="1">  1        2 0.65331637E-01 0.54109761E+03</pdfrwt>
<pdfrwt beam="2">  1       -2 0.15855713E+00 0.54109761E+03</pdfrwt>
<totfact> 0.19857186E+01</totfact>
</mgrwt>
</event>
<event>
12    1  0.1444206E-007  0.1449766E+04  0.7818608E-02  0.8918563E-01
         -2   -1    0    0    0  501 -0.00000000000E+00  0.00000000000E+00  0.67807375499E+03  0.67807375499E+03  0.00000000000E+00 0.  1.
          2   -1    0    0  501    0  0.00000000000E+00 -0.00000000000E+00 -0.33197183862E+04  0.33197183862E+04  0.00000000000E+00 0. -1.
         23    2    1    2    0    0 -0.12538562192E+04  0.61146183676E+03 -0.17388279911E+04  0.22311211737E+04  0.91312172776E+02 0.  0.
    5000000    2    1    2    0    0  0.12538562192E+04 -0.61146183676E+03 -0.90281664009E+03  0.17666709675E+04  0.60000618796E+03 0.  0.
         23    2    4    4    0    0  0.86292464204E+03 -0.67577766740E+03 -0.55511524131E+03  0.12317979534E+04  0.88650286807E+02 0.  0.
         23    2    4    4    0    0  0.39093157713E+03  0.64315830635E+02 -0.34770139878E+03  0.53487301406E+03  0.90713033171E+02 0.  0.
          1    1    3    3  502    0 -0.72142763171E+03  0.38994032456E+03 -0.10670898725E+04  0.13458053650E+04  0.00000000000E+00 0. -1.
         -1    1    3    3    0  502 -0.53242858746E+03  0.22152151220E+03 -0.67173811862E+03  0.88531580869E+03  0.00000000000E+00 0.  1.
         11    1    5    5    0    0  0.46557025789E+03 -0.39126885841E+03 -0.26423609186E+03  0.66307442782E+03  0.00000000000E+00 0.  1.
        -11    1    5    5    0    0  0.39735438414E+03 -0.28450880899E+03 -0.29087914945E+03  0.56872352560E+03  0.00000000000E+00 0. -1.
          3    1    6    6  503    0  0.20600858282E+03  0.78517911664E+02 -0.17549465674E+03  0.28178533175E+03  0.00000000000E+00 0. -1.
         -3    1    6    6    0  503  0.18492299432E+03 -0.14202081029E+02 -0.17220674204E+03  0.25308768231E+03  0.00000000000E+00 0.  1.
<mgrwt>
<rscale>  0 0.14497659E+04</rscale>
<asrwt>0</asrwt>
<pdfrwt beam="1">  1        2 0.51072590E+00 0.14497659E+04</pdfrwt>
<pdfrwt beam="2">  1       -2 0.10431904E+00 0.14497659E+04</pdfrwt>
<totfact> 0.77808577E-01</totfact>
</mgrwt>
</event>
<event>
12    1  0.1444206E-007  0.5622580E+03  0.7818608E-02  0.9986958E-01
         -1   -1    0    0    0  501 -0.00000000000E+00  0.00000000000E+00  0.46778410522E+03  0.46778410522E+03  0.00000000000E+00 0.  1.
          1   -1    0    0  501    0  0.00000000000E+00 -0.00000000000E+00 -0.92675068814E+03  0.92675068814E+03  0.00000000000E+00 0. -1.
         23    2    1    2    0    0 -0.23906551452E+03 -0.41264874769E+03  0.28446130102E+02  0.48645098167E+03  0.91619135777E+02 0.  0.
    5000000    2    1    2    0    0  0.23906551452E+03  0.41264874769E+03 -0.48741271302E+03  0.90808381170E+03  0.59967803616E+03 0.  0.
         23    2    4    4    0    0  0.58410961220E+02 -0.71368882805E+02  0.64617014279E+02  0.14644456487E+03  0.93623150030E+02 0.  0.
         23    2    4    4    0    0  0.18065455330E+03  0.48401763050E+03 -0.55202972730E+03  0.76163924683E+03  0.91915114255E+02 0.  0.
          2    1    3    3  502    0 -0.92775240986E+02 -0.12320870309E+03 -0.29438118794E+02  0.15701666375E+03  0.00000000000E+00 0. -1.
         -2    1    3    3    0  502 -0.14629027353E+03 -0.28944004460E+03  0.57884248896E+02  0.32943431791E+03  0.00000000000E+00 0.  1.
         13    1    5    5    0    0 -0.84797951132E+01  0.16691319788E+02  0.19435501006E+02  0.26986029363E+02  0.00000000000E+00 0.  1.
        -13    1    5    5    0    0  0.66890756334E+02 -0.88060202592E+02  0.45181513273E+02  0.11945853551E+03  0.00000000000E+00 0. -1.
          4    1    6    6  503    0  0.30076858239E+02  0.74305550889E+02 -0.14032264104E+03  0.16160561835E+03  0.00000000000E+00 0. -1.
         -4    1    6    6    0  503  0.15057769506E+03  0.40971207961E+03 -0.41170708626E+03  0.60003362847E+03  0.00000000000E+00 0.  1.
<mgrwt>
<rscale>  0 0.56225804E+03</rscale>
<asrwt>0</asrwt>
<pdfrwt beam="1">  1        1 0.14257703E+00 0.56225804E+03</pdfrwt>
<pdfrwt beam="2">  1       -1 0.71966786E-01 0.56225804E+03</pdfrwt>
<totfact> 0.35384265E+01</totfact>
</mgrwt>
</event>
<event>
12    1  0.1444206E-007  0.6825804E+03  0.7818608E-02  0.9747495E-01
          1   -1    0    0  501    0  0.00000000000E+00  0.00000000000E+00  0.14651069138E+04  0.14651069138E+04  0.00000000000E+00 0. -1.
         -1   -1    0    0    0  501 -0.00000000000E+00 -0.00000000000E+00 -0.45313069400E+03  0.45313069400E+03  0.00000000000E+00 0.  1.
         23    2    1    2    0    0 -0.43211411254E+03 -0.44813462690E+03  0.81924935020E+03  0.10330189405E+04  0.91713594819E+02 0.  0.
    5000000    2    1    2    0    0  0.43211411254E+03  0.44813462690E+03  0.19272686958E+03  0.88521866731E+03  0.59910031932E+03 0.  0.
         23    2    4    4    0    0  0.50643395060E+03  0.41003231873E+03  0.22191724069E+01  0.65795161241E+03  0.91068934478E+02 0.  0.
         23    2    4    4    0    0 -0.74319838060E+02  0.38102308178E+02  0.19050769717E+03  0.22726705490E+03  0.91552757157E+02 0.  0.
          3    1    3    3  502    0 -0.30526436477E+03 -0.25348150151E+03  0.52674395654E+03  0.65946827047E+03  0.00000000000E+00 0. -1.
         -3    1    3    3    0  502 -0.12684974777E+03 -0.19465312539E+03  0.29250539366E+03  0.37355067000E+03  0.00000000000E+00 0.  1.
         13    1    5    5    0    0  0.20657331732E+03  0.15585503459E+03 -0.42800991183E+02  0.26228849019E+03  0.00000000000E+00 0. -1.
        -13    1    5    5    0    0  0.29986063328E+03  0.25417728413E+03  0.45020163590E+02  0.39566312223E+03  0.00000000000E+00 0.  1.
          2    1    6    6  503    0 -0.43821245831E+02  0.16624537675E+02  0.17097044478E+02  0.49889736109E+02  0.00000000000E+00 0. -1.
         -2    1    6    6    0  503 -0.30498592229E+02  0.21477770503E+02  0.17341065269E+03  0.17737731879E+03  0.00000000000E+00 0.  1.
<mgrwt>
<rscale>  0 0.68258038E+03</rscale>
<asrwt>0</asrwt>
<pdfrwt beam="1">  1        1 0.22540106E+00 0.68258038E+03</pdfrwt>
<pdfrwt beam="2">  1       -1 0.69712415E-01 0.68258038E+03</pdfrwt>
<totfact> 0.15057118E+01</totfact>
</mgrwt>
</event>
<event>
12    1  0.1444206E-007  0.6010079E+03  0.7818608E-02  0.9903317E-01
         -2   -1    0    0    0  501 -0.00000000000E+00  0.00000000000E+00  0.57397341883E+03  0.57397341883E+03  0.00000000000E+00 0.  1.
          2   -1    0    0  501    0  0.00000000000E+00 -0.00000000000E+00 -0.84234069584E+03  0.84234069584E+03  0.00000000000E+00 0. -1.
         23    2    1    2    0    0  0.33146838239E+03  0.32818641663E+03 -0.42877441418E+03  0.63962845885E+03  0.87746535748E+02 0.  0.
    5000000    2    1    2    0    0 -0.33146838239E+03 -0.32818641663E+03  0.16040713717E+03  0.77668565581E+03  0.59994378546E+03 0.  0.
         23    2    4    4    0    0  0.29601606605E+02 -0.36631552775E+03  0.13226663674E+03  0.40141448526E+03  0.92605641256E+02 0.  0.
         23    2    4    4    0    0 -0.36106998900E+03  0.38129111127E+02  0.28140500430E+02  0.37527117056E+03  0.90615658779E+02 0.  0.
          1    1    3    3  502    0  0.98574691797E+02  0.89474073292E+02 -0.72381051445E+02  0.15153084261E+03  0.00000000000E+00 0. -1.
         -1    1    3    3    0  502  0.23289369060E+03  0.23871234334E+03 -0.35639336273E+03  0.48809761624E+03  0.00000000000E+00 0.  1.
         11    1    5    5    0    0  0.10747732677E+02 -0.20064548897E+03  0.12042092019E+03  0.23425482711E+03  0.00000000000E+00 0.  1.
        -11    1    5    5    0    0  0.18853873928E+02 -0.16567003878E+03  0.11845716544E+02  0.16715965815E+03  0.00000000000E+00 0. -1.
          2    1    6    6  503    0 -0.16547837285E+03  0.46683676185E+02 -0.21556517745E+02  0.17328341224E+03  0.00000000000E+00 0. -1.
         -2    1    6    6    0  503 -0.19559161615E+03 -0.85545650582E+01  0.49697018174E+02  0.20198775831E+03  0.00000000000E+00 0.  1.
<mgrwt>
<rscale>  0 0.60100795E+03</rscale>
<asrwt>0</asrwt>
<pdfrwt beam="1">  1        2 0.12959088E+00 0.60100795E+03</pdfrwt>
<pdfrwt beam="2">  1       -2 0.88303603E-01 0.60100795E+03</pdfrwt>
<totfact> 0.36515197E+01</totfact>
</mgrwt>
</event>
<event>
12    1  0.1444206E-007  0.4211833E+03  0.7818608E-02  0.1036682E+00
          2   -1    0    0  501    0  0.00000000000E+00  0.00000000000E+00  0.29729796953E+04  0.29729796953E+04  0.00000000000E+00 0. -1.
         -2   -1    0    0    0  501 -0.00000000000E+00 -0.00000000000E+00 -0.11911700894E+03  0.11911700894E+03  0.00000000000E+00 0.  1.
         23    2    1    2    0    0  0.15226336436E+02  0.40949604789E+03  0.67235909516E+03  0.79277272987E+03  0.92211679370E+02 0.  0.
    5000000    2    1    2    0    0 -0.15226336436E+02 -0.40949604789E+03  0.21815035912E+04  0.22993239744E+04  0.60001163838E+03 0.  0.
         23    2    4    4    0    0 -0.37529662953E+01 -0.26558311268E+03  0.20851250666E+04  0.21038786735E+04  0.89501145676E+02 0.  0.
         23    2    4    4    0    0 -0.11473370141E+02 -0.14391293521E+03  0.96378524640E+02  0.19544530089E+03  0.89819120927E+02 0.  0.
          4    1    3    3  502    0  0.33051274779E+02  0.54483299803E+02  0.85106230431E+02  0.10631974031E+03  0.00000000000E+00 0. -1.
         -4    1    3    3    0  502 -0.17824938343E+02  0.35501274809E+03  0.58725286473E+03  0.68645298955E+03  0.00000000000E+00 0.  1.
         11    1    5    5    0    0 -0.23831473816E+02 -0.19652175725E+03  0.12404077906E+04  0.12561051816E+04  0.00000000000E+00 0.  1.
        -11    1    5    5    0    0  0.20078507520E+02 -0.69061355428E+02  0.84471727594E+03  0.84777349189E+03  0.00000000000E+00 0. -1.
          2    1    6    6  503    0  0.18631716341E+02 -0.86376460674E+02  0.12307869356E+02  0.89216127805E+02  0.00000000000E+00 0. -1.
         -2    1    6    6    0  503 -0.30105086482E+02 -0.57536474540E+02  0.84070655284E+02  0.10622917309E+03  0.00000000000E+00 0.  1.
<mgrwt>
<rscale>  0 0.42118327E+03</rscale>
<asrwt>0</asrwt>
<pdfrwt beam="1">  1        2 0.45738144E+00 0.42118327E+03</pdfrwt>
<pdfrwt beam="2">  1       -2 0.18325696E-01 0.42118327E+03</pdfrwt>
<totfact> 0.50579008E+01</totfact>
</mgrwt>
</event>
<event>
12    1  0.1444206E-007  0.1679590E+04  0.7818608E-02  0.8773091E-01
          2   -1    0    0  501    0  0.00000000000E+00  0.00000000000E+00  0.24074850789E+04  0.24074850789E+04  0.00000000000E+00 0. -1.
         -2   -1    0    0    0  501 -0.00000000000E+00 -0.00000000000E+00 -0.13118383123E+04  0.13118383123E+04  0.00000000000E+00 0.  1.
         23    2    1    2    0    0  0.41502109707E+03  0.15822151483E+04 -0.41456841954E+02  0.16387917752E+04  0.90953428578E+02 0.  0.
    5000000    2    1    2    0    0 -0.41502109707E+03 -0.15822151483E+04  0.11371036086E+04  0.20805316160E+04  0.59996658427E+03 0.  0.
         23    2    4    4    0    0 -0.49736959259E+03 -0.87610178898E+03  0.53477218897E+03  0.11441958405E+04  0.90950376520E+02 0.  0.
         23    2    4    4    0    0  0.82348495519E+02 -0.70611335929E+03  0.60233141963E+03  0.93633577556E+03  0.92434812943E+02 0.  0.
          1    1    3    3  502    0  0.33483086473E+03  0.13656344037E+04 -0.57749144207E+02  0.14072682745E+04  0.00000000000E+00 0. -1.
         -1    1    3    3    0  502  0.80190232338E+02  0.21658074453E+03  0.16292302253E+02  0.23152350070E+03  0.00000000000E+00 0.  1.
         13    1    5    5    0    0 -0.36718249161E+02 -0.11145806256E+03  0.42717738290E+02  0.12488368467E+03  0.00000000000E+00 0. -1.
        -13    1    5    5    0    0 -0.46065134343E+03 -0.76464372642E+03  0.49205445068E+03  0.10193121558E+04  0.00000000000E+00 0.  1.
          1    1    6    6  503    0  0.63841764100E+02 -0.36802448999E+03  0.26190203030E+03  0.45619126422E+03  0.00000000000E+00 0. -1.
         -1    1    6    6    0  503  0.18506731419E+02 -0.33808886930E+03  0.34042938933E+03  0.48014451134E+03  0.00000000000E+00 0.  1.
<mgrwt>
<rscale>  0 0.16795899E+04</rscale>
<asrwt>0</asrwt>
<pdfrwt beam="1">  1        2 0.37038232E+00 0.16795899E+04</pdfrwt>
<pdfrwt beam="2">  1       -2 0.20182128E+00 0.16795899E+04</pdfrwt>
<totfact> 0.46964430E-01</totfact>
</mgrwt>
</event>
<event>
12    1  0.1444206E-007  0.5990356E+03  0.7818608E-02  0.9907409E-01
          1   -1    0    0  501    0  0.00000000000E+00  0.00000000000E+00  0.21730526585E+04  0.21730526585E+04  0.00000000000E+00 0. -1.
         -1   -1    0    0    0  501 -0.00000000000E+00 -0.00000000000E+00 -0.20845390567E+03  0.20845390567E+03  0.00000000000E+00 0.  1.
         23    2    1    2    0    0  0.37349708082E+03 -0.38349197230E+03  0.78958004005E+03  0.95769902603E+03  0.84762153187E+02 0.  0.
    5000000    2    1    2    0    0 -0.37349708082E+03  0.38349197230E+03  0.11750187128E+04  0.14238075382E+04  0.59999397338E+03 0.  0.
         23    2    4    4    0    0 -0.26141868274E+03  0.28468569838E+02  0.12395878572E+03  0.30492715512E+03  0.92003272878E+02 0.  0.
         23    2    4    4    0    0 -0.11207839808E+03  0.35502340247E+03  0.10510599271E+04  0.11188803831E+04  0.92537330965E+02 0.  0.
          2    1    3    3  502    0  0.18565456628E+03 -0.22028095572E+03  0.48823355213E+03  0.56688915924E+03  0.00000000000E+00 0. -1.
         -2    1    3    3    0  502  0.18784251453E+03 -0.16321101658E+03  0.30134648791E+03  0.39080986679E+03  0.00000000000E+00 0.  1.
         11    1    5    5    0    0 -0.86514530488E+02  0.53758521431E+02  0.46836095733E+02  0.11210870829E+03  0.00000000000E+00 0.  1.
        -11    1    5    5    0    0 -0.17490415225E+03 -0.25289951593E+02  0.77122689990E+02  0.19281844683E+03  0.00000000000E+00 0. -1.
          3    1    6    6  503    0 -0.12065253984E+03  0.25420509004E+03  0.73509493504E+03  0.78710979329E+03  0.00000000000E+00 0. -1.
         -3    1    6    6    0  503  0.85741417610E+01  0.10081831242E+03  0.31596499205E+03  0.33177058976E+03  0.00000000000E+00 0.  1.
<mgrwt>
<rscale>  0 0.59903555E+03</rscale>
<asrwt>0</asrwt>
<pdfrwt beam="1">  1        1 0.33431578E+00 0.59903555E+03</pdfrwt>
<pdfrwt beam="2">  1       -1 0.32069833E-01 0.59903555E+03</pdfrwt>
<totfact> 0.22005905E+01</totfact>
</mgrwt>
</event>
<event>
12    1  0.1444206E-007  0.4783679E+03  0.7818608E-02  0.1019585E+00
         -1   -1    0    0    0  501 -0.00000000000E+00  0.00000000000E+00  0.45702626967E+03  0.45702626967E+03  0.00000000000E+00 0.  1.
          1   -1    0    0  501    0  0.00000000000E+00 -0.00000000000E+00 -0.10921142881E+04  0.10921142881E+04  0.00000000000E+00 0. -1.
         23    2    1    2    0    0  0.24310843526E+03 -0.20962621491E+03  0.26128447382E+03  0.42374589069E+03  0.90808272433E+02 0.  0.
    5000000    2    1    2    0    0 -0.24310843526E+03  0.20962621491E+03 -0.89637249224E+03  0.11253946671E+04  0.59998720866E+03 0.  0.
         23    2    4    4    0    0  0.15220781124E+03  0.13749701703E+03 -0.52637896637E+03  0.57174058421E+03  0.87976314406E+02 0.  0.
         23    2    4    4    0    0 -0.39531624650E+03  0.72129197880E+02 -0.36999352587E+03  0.55365408287E+03  0.90333152038E+02 0.  0.
          1    1    3    3  502    0  0.10160707326E+03 -0.14005893787E+03  0.16441237962E+03  0.23868794269E+03  0.00000000000E+00 0. -1.
         -1    1    3    3    0  502  0.14150136199E+03 -0.69567277047E+02  0.96872094200E+02  0.18505794800E+03  0.00000000000E+00 0.  1.
         13    1    5    5    0    0  0.11163900446E+03  0.51584357717E+02 -0.23455782876E+03  0.26484257269E+03  0.00000000000E+00 0.  1.
        -13    1    5    5    0    0  0.40568806775E+02  0.85912659317E+02 -0.29182113762E+03  0.30689801152E+03  0.00000000000E+00 0. -1.
          3    1    6    6  503    0 -0.30363601029E+03  0.85356131491E+02 -0.31583179011E+03  0.44635212061E+03  0.00000000000E+00 0. -1.
         -3    1    6    6    0  503 -0.91680236205E+02 -0.13226933611E+02 -0.54161735759E+02  0.10730196226E+03  0.00000000000E+00 0.  1.
<mgrwt>
<rscale>  0 0.47836786E+03</rscale>
<asrwt>0</asrwt>
<pdfrwt beam="1">  1        1 0.16801758E+00 0.47836786E+03</pdfrwt>
<pdfrwt beam="2">  1       -1 0.70311735E-01 0.47836786E+03</pdfrwt>
<totfact> 0.28108792E+01</totfact>
</mgrwt>
</event>
<event>
12    1  0.1444206E-007  0.7278464E+03  0.7818608E-02  0.9670762E-01
          2   -1    0    0  501    0  0.00000000000E+00  0.00000000000E+00  0.33144934041E+04  0.33144934041E+04  0.00000000000E+00 0. -1.
         -2   -1    0    0    0  501 -0.00000000000E+00 -0.00000000000E+00 -0.16464870711E+03  0.16464870711E+03  0.00000000000E+00 0.  1.
         23    2    1    2    0    0 -0.95697902335E+02  0.60518120082E+03  0.12669506436E+04  0.14101355928E+04  0.88972367491E+02 0.  0.
    5000000    2    1    2    0    0  0.95697902335E+02 -0.60518120082E+03  0.18828940533E+04  0.20690065184E+04  0.60007964715E+03 0.  0.
         23    2    4    4    0    0 -0.89878632402E+02  0.65804679783E+02  0.46281379737E+03  0.48479677765E+03  0.91776250376E+02 0.  0.
         23    2    4    4    0    0  0.18557653474E+03 -0.67098588060E+03  0.14200802559E+04  0.15842097408E+04  0.91825199339E+02 0.  0.
          3    1    3    3  502    0 -0.11262682222E+02  0.13226616157E+03  0.20025915151E+03  0.24026009504E+03  0.00000000000E+00 0. -1.
         -3    1    3    3    0  502 -0.84435220113E+02  0.47291503926E+03  0.10666914921E+04  0.11698754977E+04  0.00000000000E+00 0.  1.
         11    1    5    5    0    0 -0.57034736048E+02  0.87643532299E+02  0.32116570431E+03  0.33775991399E+03  0.00000000000E+00 0. -1.
        -11    1    5    5    0    0 -0.32843896354E+02 -0.21838852516E+02  0.14164809306E+03  0.14703686366E+03  0.00000000000E+00 0.  1.
          4    1    6    6  503    0  0.10768297390E+03 -0.48675926141E+03  0.93719813815E+03  0.10615415920E+04  0.00000000000E+00 0. -1.
         -4    1    6    6    0  503  0.77893560841E+02 -0.18422661919E+03  0.48288211778E+03  0.52266814875E+03  0.00000000000E+00 0.  1.
<mgrwt>
<rscale>  0 0.72784638E+03</rscale>
<asrwt>0</asrwt>
<pdfrwt beam="1">  1        2 0.50992201E+00 0.72784638E+03</pdfrwt>
<pdfrwt beam="2">  1       -2 0.25330573E-01 0.72784638E+03</pdfrwt>
<totfact> 0.16386472E+01</totfact>
</mgrwt>
</event>
<event>
12    1  0.1444206E-007  0.6084115E+03  0.7818608E-02  0.9888107E-01
          2   -1    0    0  501    0  0.00000000000E+00  0.00000000000E+00  0.12200366801E+04  0.12200366801E+04  0.00000000000E+00 0. -1.
         -2   -1    0    0    0  501 -0.00000000000E+00 -0.00000000000E+00 -0.45063134607E+03  0.45063134607E+03  0.00000000000E+00 0.  1.
         23    2    1    2    0    0  0.55794470408E+03  0.11736538977E+03  0.58709837109E+03  0.82337965530E+03  0.90513158708E+02 0.  0.
    5000000    2    1    2    0    0 -0.55794470408E+03 -0.11736538977E+03  0.18230696290E+03  0.84728837084E+03  0.59965392278E+03 0.  0.
         23    2    4    4    0    0 -0.19690408510E+03 -0.18042765630E+03 -0.17089632890E+03  0.32990984609E+03  0.91156971356E+02 0.  0.
         23    2    4    4    0    0 -0.36104061899E+03  0.63062266527E+02  0.35320329181E+03  0.51737852475E+03  0.92740468590E+02 0.  0.
          1    1    3    3  502    0  0.30385888518E+03  0.10273456499E+03  0.36140167979E+03  0.48321401791E+03  0.00000000000E+00 0. -1.
         -1    1    3    3    0  502  0.25408581890E+03  0.14630824781E+02  0.22569669130E+03  0.34016563739E+03  0.00000000000E+00 0.  1.
         13    1    5    5    0    0 -0.41107783342E+02 -0.61980067486E+02 -0.71189725755E+01  0.74713174122E+02  0.00000000000E+00 0. -1.
        -13    1    5    5    0    0 -0.15579630175E+03 -0.11844758881E+03 -0.16377735633E+03  0.25519667196E+03  0.00000000000E+00 0.  1.
          4    1    6    6  503    0 -0.19649439862E+03  0.64855619036E+02  0.24380251946E+03  0.31977487160E+03  0.00000000000E+00 0. -1.
         -4    1    6    6    0  503 -0.16454622037E+03 -0.17933525086E+01  0.10940077234E+03  0.19760365315E+03  0.00000000000E+00 0.  1.
<mgrwt>
<rscale>  0 0.60841152E+03</rscale>
<asrwt>0</asrwt>
<pdfrwt beam="1">  1        2 0.18769795E+00 0.60841152E+03</pdfrwt>
<pdfrwt beam="2">  1       -2 0.69327900E-01 0.60841152E+03</pdfrwt>
<totfact> 0.36208990E+01</totfact>
</mgrwt>
</event>
<event>
12    1  0.1444206E-007  0.5884661E+03  0.7818608E-02  0.9929628E-01
          3   -1    0    0  501    0  0.00000000000E+00  0.00000000000E+00  0.38768483951E+03  0.38768483951E+03  0.00000000000E+00 0. -1.
         -3   -1    0    0    0  501 -0.00000000000E+00 -0.00000000000E+00 -0.14091236691E+04  0.14091236691E+04  0.00000000000E+00 0.  1.
         23    2    1    2    0    0 -0.33759017195E+03  0.30741036871E+03  0.69686877190E+02  0.47047736260E+03  0.89579176584E+02 0.  0.
    5000000    2    1    2    0    0  0.33759017195E+03 -0.30741036871E+03 -0.10911257068E+04  0.13263311460E+04  0.60010894169E+03 0.  0.
         23    2    4    4    0    0 -0.70119475204E+02 -0.28959091906E+03 -0.30307005852E+03  0.43471119254E+03  0.91338487782E+02 0.  0.
         23    2    4    4    0    0  0.40770964715E+03 -0.17819449653E+02 -0.78805564829E+03  0.89161995349E+03  0.86079890161E+02 0.  0.
          1    1    3    3  502    0 -0.15352636606E+03  0.98736503435E+02 -0.41944467420E+01  0.18258377685E+03  0.00000000000E+00 0. -1.
         -1    1    3    3    0  502 -0.18406380589E+03  0.20867386528E+03  0.73881323932E+02  0.28789358574E+03  0.00000000000E+00 0.  1.
         11    1    5    5    0    0 -0.66483743461E+02 -0.22794938342E+03 -0.18332179872E+03  0.29997981837E+03  0.00000000000E+00 0.  1.
        -11    1    5    5    0    0 -0.36357317434E+01 -0.61641535637E+02 -0.11974825980E+03  0.13473137417E+03  0.00000000000E+00 0. -1.
          3    1    6    6  503    0  0.18744404844E+03  0.34408634681E+02 -0.34915308045E+03  0.39777770051E+03  0.00000000000E+00 0. -1.
         -3    1    6    6    0  503  0.22026559871E+03 -0.52228084333E+02 -0.43890256784E+03  0.49384225298E+03  0.00000000000E+00 0.  1.
<mgrwt>
<rscale>  0 0.58846612E+03</rscale>
<asrwt>0</asrwt>
<pdfrwt beam="1">  1        3 0.59643822E-01 0.58846612E+03</pdfrwt>
<pdfrwt beam="2">  1       -3 0.21678826E+00 0.58846612E+03</pdfrwt>
<totfact> 0.83784931E-01</totfact>
</mgrwt>
</event>
<event>
12    1  0.1444206E-007  0.5420153E+03  0.7818608E-02  0.1003359E+00
         -2   -1    0    0    0  501 -0.00000000000E+00  0.00000000000E+00  0.52005901790E+03  0.52005901790E+03  0.00000000000E+00 0.  1.
          2   -1    0    0  501    0  0.00000000000E+00 -0.00000000000E+00 -0.68608583005E+03  0.68608583005E+03  0.00000000000E+00 0. -1.
         23    2    1    2    0    0  0.37946769426E+03 -0.10160580826E+03  0.13949568212E+03  0.42668517580E+03  0.91003970547E+02 0.  0.
    5000000    2    1    2    0    0 -0.37946769426E+03  0.10160580826E+03 -0.30552249427E+03  0.77945967215E+03  0.59991158911E+03 0.  0.
         23    2    4    4    0    0  0.11335221689E+03  0.14208840323E+03 -0.15077803568E+03  0.25350221057E+03  0.92149418407E+02 0.  0.
         23    2    4    4    0    0 -0.49281991115E+03 -0.40482594964E+02 -0.15474445859E+03  0.52595746159E+03  0.90416251917E+02 0.  0.
          4    1    3    3  502    0  0.33401810351E+03 -0.11849061670E+03  0.11690140797E+03  0.37319439827E+03  0.00000000000E+00 0. -1.
         -4    1    3    3    0  502  0.45449590753E+02  0.16884808442E+02  0.22594274151E+02  0.53490777524E+02  0.00000000000E+00 0.  1.
         11    1    5    5    0    0  0.12197819833E+02  0.45721756081E+01  0.11934405330E+02  0.17666964342E+02  0.00000000000E+00 0. -1.
        -11    1    5    5    0    0  0.10115439706E+03  0.13751622762E+03 -0.16271244101E+03  0.23583524622E+03  0.00000000000E+00 0.  1.
          4    1    6    6  503    0 -0.23343319821E+03 -0.46121817261E+02 -0.11209368462E+03  0.26302713584E+03  0.00000000000E+00 0. -1.
         -4    1    6    6    0  503 -0.25938671294E+03  0.56392222977E+01 -0.42650773967E+02  0.26293032575E+03  0.00000000000E+00 0.  1.
<mgrwt>
<rscale>  0 0.54201527E+03</rscale>
<asrwt>0</asrwt>
<pdfrwt beam="1">  1        2 0.10555167E+00 0.54201527E+03</pdfrwt>
<pdfrwt beam="2">  1       -2 0.80009080E-01 0.54201527E+03</pdfrwt>
<totfact> 0.59840133E+01</totfact>
</mgrwt>
</event>
<event>
12    1  0.1444206E-007  0.8111863E+03  0.7818608E-02  0.9543965E-01
         -1   -1    0    0    0  501 -0.00000000000E+00  0.00000000000E+00  0.99269749083E+03  0.99269749083E+03  0.00000000000E+00 0.  1.
          1   -1    0    0  501    0  0.00000000000E+00 -0.00000000000E+00 -0.70646358286E+03  0.70646358286E+03  0.00000000000E+00 0. -1.
         23    2    1    2    0    0  0.41155993666E+03 -0.59845870161E+03  0.14716203964E+03  0.74690134612E+03  0.93115819960E+02 0.  0.
    5000000    2    1    2    0    0 -0.41155993666E+03  0.59845870161E+03  0.13907186833E+03  0.95225972757E+03  0.59993600091E+03 0.  0.
         23    2    4    4    0    0 -0.81887397684E+02 -0.75067840231E+02  0.13500786907E+03  0.19691553526E+03  0.90597333185E+02 0.  0.
         23    2    4    4    0    0 -0.32967253897E+03  0.67352654184E+03  0.40639992641E+01  0.75534419230E+03  0.90588891348E+02 0.  0.
          3    1    3    3  502    0  0.37051088994E+03 -0.56324669422E+03  0.11483810499E+03  0.68389542218E+03  0.00000000000E+00 0. -1.
         -3    1    3    3    0  502  0.41049046715E+02 -0.35212007393E+02  0.32323934647E+02  0.63005923943E+02  0.00000000000E+00 0.  1.
         11    1    5    5    0    0 -0.94783118188E-01 -0.58791846447E+02  0.68324022682E+02  0.90136908467E+02  0.00000000000E+00 0.  1.
        -11    1    5    5    0    0 -0.81792614566E+02 -0.16275993784E+02  0.66683846387E+02  0.10677862679E+03  0.00000000000E+00 0. -1.
          3    1    6    6  503    0 -0.19342502571E+03  0.33229927060E+03 -0.33791267207E+02  0.38597654793E+03  0.00000000000E+00 0. -1.
         -3    1    6    6    0  503 -0.13624751327E+03  0.34122727124E+03  0.37855266471E+02  0.36936764438E+03  0.00000000000E+00 0.  1.
<mgrwt>
<rscale>  0 0.81118634E+03</rscale>
<asrwt>0</asrwt>
<pdfrwt beam="1">  1        1 0.10868671E+00 0.81118634E+03</pdfrwt>
<pdfrwt beam="2">  1       -1 0.15272269E+00 0.81118634E+03</pdfrwt>
<totfact> 0.91351702E+00</totfact>
</mgrwt>
</event>
<event>
12    1  0.1444206E-007  0.5396870E+03  0.7818608E-02  0.1003910E+00
         -1   -1    0    0    0  501 -0.00000000000E+00  0.00000000000E+00  0.40358098894E+03  0.40358098894E+03  0.00000000000E+00 0.  1.
          1   -1    0    0  501    0  0.00000000000E+00 -0.00000000000E+00 -0.83197233098E+03  0.83197233098E+03  0.00000000000E+00 0. -1.
         23    2    1    2    0    0 -0.31651025242E+03 -0.19465096520E+03  0.45728706152E+02  0.38534984435E+03  0.91299780019E+02 0.  0.
    5000000    2    1    2    0    0  0.31651025242E+03  0.19465096520E+03 -0.47412004820E+03  0.85020347557E+03  0.59999032627E+03 0.  0.
         23    2    4    4    0    0 -0.13523200532E+03 -0.67417054163E+02 -0.12242645430E+03  0.21433937959E+03  0.90113142656E+02 0.  0.
         23    2    4    4    0    0  0.45174225774E+03  0.26206801937E+03 -0.35169359390E+03  0.63586409597E+03  0.88792175075E+02 0.  0.
          1    1    3    3  502    0 -0.16014119643E+03 -0.15106362911E+03  0.21021363157E+02  0.22114999558E+03  0.00000000000E+00 0. -1.
         -1    1    3    3    0  502 -0.15636905599E+03 -0.43587336089E+02  0.24707342995E+02  0.16419984877E+03  0.00000000000E+00 0.  1.
         11    1    5    5    0    0 -0.30033128357E+02 -0.60805941224E+02 -0.66642110563E+02  0.95081660626E+02  0.00000000000E+00 0. -1.
        -11    1    5    5    0    0 -0.10519887696E+03 -0.66111129384E+01 -0.55784343735E+02  0.11925771897E+03  0.00000000000E+00 0.  1.
          4    1    6    6  503    0  0.37925800963E+03  0.23573468818E+03 -0.33149246735E+03  0.55614273077E+03  0.00000000000E+00 0. -1.
         -4    1    6    6    0  503  0.72484248111E+02  0.26333331188E+02 -0.20201126545E+02  0.79721365200E+02  0.00000000000E+00 0.  1.
<mgrwt>
<rscale>  0 0.53968700E+03</rscale>
<asrwt>0</asrwt>
<pdfrwt beam="1">  1        1 0.12799574E+00 0.53968700E+03</pdfrwt>
<pdfrwt beam="2">  1       -1 0.62089384E-01 0.53968700E+03</pdfrwt>
<totfact> 0.57076203E+01</totfact>
</mgrwt>
</event>
<event>
12    1  0.1444206E-007  0.9535586E+03  0.7818608E-02  0.9361001E-01
         -1   -1    0    0    0  501 -0.00000000000E+00  0.00000000000E+00  0.60002915079E+03  0.60002915079E+03  0.00000000000E+00 0.  1.
          1   -1    0    0  501    0  0.00000000000E+00 -0.00000000000E+00 -0.16558469609E+04  0.16558469609E+04  0.00000000000E+00 0. -1.
         23    2    1    2    0    0 -0.30229861168E+03  0.81054960323E+03 -0.18348858831E+03  0.88862944019E+03  0.87287513500E+02 0.  0.
    5000000    2    1    2    0    0  0.30229861168E+03 -0.81054960323E+03 -0.87232922180E+03  0.13672466715E+04  0.60002506578E+03 0.  0.
         23    2    4    4    0    0  0.41962159105E+03 -0.78940128816E+03 -0.70867868975E+03  0.11443882796E+04  0.90345867150E+02 0.  0.
         23    2    4    4    0    0 -0.11732297936E+03 -0.21148315072E+02 -0.16365053206E+03  0.22285839191E+03  0.93125901264E+02 0.  0.
          4    1    3    3  502    0 -0.21295255599E+03  0.57390149959E+03 -0.17006049903E+03  0.63532062430E+03  0.00000000000E+00 0. -1.
         -4    1    3    3    0  502 -0.89346055696E+02  0.23664810365E+03 -0.13428089273E+02  0.25330881590E+03  0.00000000000E+00 0.  1.
         11    1    5    5    0    0  0.15250207766E+03 -0.24775656846E+03 -0.27999917566E+03  0.40378179661E+03  0.00000000000E+00 0.  1.
        -11    1    5    5    0    0  0.26711951338E+03 -0.54164471970E+03 -0.42867951409E+03  0.74060648297E+03  0.00000000000E+00 0. -1.
          2    1    6    6  503    0 -0.24775815662E+02  0.31980122749E+02 -0.23772099686E+02  0.46922084526E+02  0.00000000000E+00 0. -1.
         -2    1    6    6    0  503 -0.92547163701E+02 -0.53128437821E+02 -0.13987843237E+03  0.17593630739E+03  0.00000000000E+00 0.  1.
<mgrwt>
<rscale>  0 0.95355857E+03</rscale>
<asrwt>0</asrwt>
<pdfrwt beam="1">  1        1 0.25474569E+00 0.95355857E+03</pdfrwt>
<pdfrwt beam="2">  1       -1 0.92312176E-01 0.95355857E+03</pdfrwt>
<totfact> 0.59096883E+00</totfact>
</mgrwt>
</event>
<event>
12    1  0.1444206E-007  0.3167668E+03  0.7818608E-02  0.1077147E+00
          2   -1    0    0  501    0  0.00000000000E+00  0.00000000000E+00  0.11875755608E+04  0.11875755608E+04  0.00000000000E+00 0. -1.
         -2   -1    0    0    0  501 -0.00000000000E+00 -0.00000000000E+00 -0.15514526008E+03  0.15514526008E+03  0.00000000000E+00 0.  1.
         23    2    1    2    0    0  0.10772182332E+03  0.16657813073E+03  0.23642784935E+03  0.32634560527E+03  0.10607101996E+03 0.  0.
    5000000    2    1    2    0    0 -0.10772182332E+03 -0.16657813073E+03  0.79600245140E+03  0.10163752156E+04  0.60003867499E+03 0.  0.
         23    2    4    4    0    0  0.12522540859E+02  0.10332025265E+03 -0.23790154937E+02  0.14022227948E+03  0.90908896995E+02 0.  0.
         23    2    4    4    0    0 -0.12024436418E+03 -0.26989838338E+03  0.81979260633E+03  0.87615293616E+03  0.90995635474E+02 0.  0.
          1    1    3    3  502    0  0.44507036779E+02  0.45751393959E+02  0.13845487909E+02  0.65312815798E+02  0.00000000000E+00 0. -1.
         -1    1    3    3    0  502  0.63214786546E+02  0.12082673677E+03  0.22258236144E+03  0.26103278948E+03  0.00000000000E+00 0.  1.
         13    1    5    5    0    0 -0.39071527147E+02  0.52222073814E+02 -0.16265171997E+02  0.67218189853E+02  0.00000000000E+00 0.  1.
        -13    1    5    5    0    0  0.51594068006E+02  0.51098178836E+02 -0.75249829399E+01  0.73004089625E+02  0.00000000000E+00 0. -1.
          1    1    6    6  503    0 -0.63883436227E+02 -0.14878228036E+03  0.57404038489E+03  0.59643912000E+03  0.00000000000E+00 0. -1.
         -1    1    6    6    0  503 -0.56360927956E+02 -0.12111610302E+03  0.24575222144E+03  0.27971381617E+03  0.00000000000E+00 0.  1.
<mgrwt>
<rscale>  0 0.31676682E+03</rscale>
<asrwt>0</asrwt>
<pdfrwt beam="1">  1        2 0.18270393E+00 0.31676682E+03</pdfrwt>
<pdfrwt beam="2">  1       -2 0.23868502E-01 0.31676682E+03</pdfrwt>
<totfact> 0.31391181E+02</totfact>
</mgrwt>
</event>
<event>
12    1  0.1444206E-007  0.2084134E+04  0.7818608E-02  0.8568265E-01
          1   -1    0    0  501    0  0.00000000000E+00  0.00000000000E+00  0.40854518866E+04  0.40854518866E+04  0.00000000000E+00 0. -1.
         -1   -1    0    0    0  501 -0.00000000000E+00 -0.00000000000E+00 -0.10921655882E+04  0.10921655882E+04  0.00000000000E+00 0.  1.
         23    2    1    2    0    0  0.19366764982E+04  0.71498453452E+03  0.16297800716E+04  0.26318022388E+04  0.91001095328E+02 0.  0.
    5000000    2    1    2    0    0 -0.19366764982E+04 -0.71498453452E+03  0.13635062268E+04  0.25458152360E+04  0.60008936207E+03 0.  0.
         23    2    4    4    0    0 -0.17890789563E+04 -0.74870198525E+03  0.13578531874E+04  0.23692788330E+04  0.91426119439E+02 0.  0.
         23    2    4    4    0    0 -0.14759754186E+03  0.33717450728E+02  0.56530393246E+01  0.17653640302E+03  0.90615914125E+02 0.  0.
          4    1    3    3  502    0  0.62416268342E+03  0.25648686064E+03  0.48836236155E+03  0.83298401019E+03  0.00000000000E+00 0.  1.
         -4    1    3    3    0  502  0.13125138147E+04  0.45849767388E+03  0.11414177100E+04  0.17988182286E+04  0.00000000000E+00 0. -1.
         13    1    5    5    0    0 -0.81655363317E+03 -0.30710128363E+03  0.57101384472E+03  0.10426542308E+04  0.00000000000E+00 0. -1.
        -13    1    5    5    0    0 -0.97252532313E+03 -0.44160070162E+03  0.78683934272E+03  0.13266246022E+04  0.00000000000E+00 0.  1.
          2    1    6    6  503    0 -0.10302393495E+03  0.50903544517E+02  0.35421065312E+02  0.12024871677E+03  0.00000000000E+00 0. -1.
         -2    1    6    6    0  503 -0.44573606908E+02 -0.17186093790E+02 -0.29768025987E+02  0.56287686253E+02  0.00000000000E+00 0.  1.
<mgrwt>
<rscale>  0 0.20841344E+04</rscale>
<asrwt>0</asrwt>
<pdfrwt beam="1">  1        1 0.62853105E+00 0.20841344E+04</pdfrwt>
<pdfrwt beam="2">  1       -1 0.16802548E+00 0.20841344E+04</pdfrwt>
<totfact> 0.18293443E-02</totfact>
</mgrwt>
</event>
<event>
12    1  0.1444206E-007  0.9761093E+03  0.7818608E-02  0.9335143E-01
         -1   -1    0    0    0  501 -0.00000000000E+00  0.00000000000E+00  0.10303827123E+04  0.10303827123E+04  0.00000000000E+00 0.  1.
          1   -1    0    0  501    0  0.00000000000E+00 -0.00000000000E+00 -0.98056546067E+03  0.98056546067E+03  0.00000000000E+00 0. -1.
         23    2    1    2    0    0  0.70724131097E+03  0.53433851228E+03 -0.19768715595E+03  0.91269873301E+03  0.90724020971E+02 0.  0.
    5000000    2    1    2    0    0 -0.70724131097E+03 -0.53433851228E+03  0.24750440755E+03  0.10982494399E+04  0.59932085137E+03 0.  0.
         23    2    4    4    0    0 -0.30347876404E+03  0.81597514673E+02  0.78290643671E+02  0.33688970549E+03  0.92777875353E+02 0.  0.
         23    2    4    4    0    0 -0.40376254693E+03 -0.61593602695E+03  0.16921376388E+03  0.76135973443E+03  0.92919124668E+02 0.  0.
          2    1    3    3  502    0  0.60738803622E+03  0.49035028876E+03 -0.18943545002E+03  0.80327418853E+03  0.00000000000E+00 0.  1.
         -2    1    3    3    0  502  0.99853274745E+02  0.43988223518E+02 -0.82517059281E+01  0.10942454449E+03  0.00000000000E+00 0. -1.
         11    1    5    5    0    0 -0.13717366969E+02  0.21181963521E+02 -0.11278928011E+02  0.27641562044E+02  0.00000000000E+00 0.  1.
        -11    1    5    5    0    0 -0.28976139707E+03  0.60415551152E+02  0.89569571682E+02  0.30924814345E+03  0.00000000000E+00 0. -1.
          3    1    6    6  503    0 -0.22215331329E+03 -0.41277714054E+03  0.12653716554E+03  0.48553961386E+03  0.00000000000E+00 0. -1.
         -3    1    6    6    0  503 -0.18160923363E+03 -0.20315888641E+03  0.42676598342E+02  0.27582012057E+03  0.00000000000E+00 0.  1.
<mgrwt>
<rscale>  0 0.97610932E+03</rscale>
<asrwt>0</asrwt>
<pdfrwt beam="1">  1        1 0.15085622E+00 0.97610932E+03</pdfrwt>
<pdfrwt beam="2">  1       -1 0.15852042E+00 0.97610932E+03</pdfrwt>
<totfact> 0.47262343E+00</totfact>
</mgrwt>
</event>
<event>
12    1  0.1444206E-007  0.1652977E+04  0.7818608E-02  0.8788647E-01
          2   -1    0    0  501    0  0.00000000000E+00  0.00000000000E+00  0.24526129608E+04  0.24526129608E+04  0.00000000000E+00 0. -1.
         -2   -1    0    0    0  501 -0.00000000000E+00 -0.00000000000E+00 -0.11682525934E+04  0.11682525934E+04  0.00000000000E+00 0.  1.
         23    2    1    2    0    0 -0.52977209777E+03 -0.15486839537E+04  0.54900409740E+03  0.17288088963E+04  0.91072701504E+02 0.  0.
    5000000    2    1    2    0    0  0.52977209777E+03  0.15486839537E+04  0.73535627000E+03  0.18920566579E+04  0.60004090604E+03 0.  0.
         23    2    4    4    0    0  0.17221464255E+02  0.32548109849E+03  0.39474087732E+03  0.51988786355E+03  0.90711113594E+02 0.  0.
         23    2    4    4    0    0  0.51255063351E+03  0.12232028552E+04  0.34061539268E+03  0.13721687944E+04  0.88853686475E+02 0.  0.
          4    1    3    3  502    0 -0.39721308154E+03 -0.12706661935E+04  0.44867844953E+03  0.14048783430E+04  0.00000000000E+00 0. -1.
         -4    1    3    3    0  502 -0.13255901622E+03 -0.27801776024E+03  0.10032564787E+03  0.32393055337E+03  0.00000000000E+00 0.  1.
         11    1    5    5    0    0  0.11461438427E+02  0.33048966985E+03  0.38553915002E+03  0.50793230124E+03  0.00000000000E+00 0. -1.
        -11    1    5    5    0    0  0.57600258273E+01 -0.50085713622E+01  0.92017273068E+01  0.11955562306E+02  0.00000000000E+00 0.  1.
          1    1    6    6  503    0  0.13243140470E+03  0.23849659228E+03  0.90445852448E+02  0.28740068494E+03  0.00000000000E+00 0. -1.
         -1    1    6    6    0  503  0.38011922881E+03  0.98470626297E+03  0.25016954023E+03  0.10847681095E+04  0.00000000000E+00 0.  1.
<mgrwt>
<rscale>  0 0.16529766E+04</rscale>
<asrwt>0</asrwt>
<pdfrwt beam="1">  1        2 0.37732507E+00 0.16529766E+04</pdfrwt>
<pdfrwt beam="2">  1       -2 0.17973117E+00 0.16529766E+04</pdfrwt>
<totfact> 0.62583015E-01</totfact>
</mgrwt>
</event>
<event>
12    1  0.1444206E-007  0.1934156E+04  0.7818608E-02  0.8638039E-01
          1   -1    0    0  501    0  0.00000000000E+00  0.00000000000E+00  0.16264723527E+04  0.16264723527E+04  0.00000000000E+00 0. -1.
         -1   -1    0    0    0  501 -0.00000000000E+00 -0.00000000000E+00 -0.23629409701E+04  0.23629409701E+04  0.00000000000E+00 0.  1.
         23    2    1    2    0    0  0.82835918890E+03  0.17032394366E+04 -0.82970557847E+02  0.18979378204E+04  0.89890669788E+02 0.  0.
    5000000    2    1    2    0    0 -0.82835918890E+03 -0.17032394366E+04 -0.65349805951E+03  0.20914755024E+04  0.60000544939E+03 0.  0.
         23    2    4    4    0    0 -0.75728778126E+03 -0.97520437544E+03 -0.29954204985E+03  0.12741005378E+04  0.95385446453E+02 0.  0.
         23    2    4    4    0    0 -0.71071407638E+02 -0.72803506111E+03 -0.35395600966E+03  0.81737496455E+03  0.87924858309E+02 0.  0.
          1    1    3    3  502    0  0.33619040442E+03  0.79307206791E+03 -0.33170285663E+02  0.86202526691E+03  0.00000000000E+00 0. -1.
         -1    1    3    3    0  502  0.49216878447E+03  0.91016736864E+03 -0.49800272184E+02  0.10359125535E+04  0.00000000000E+00 0.  1.
         11    1    5    5    0    0 -0.65676229090E+03 -0.78817297017E+03 -0.25466531185E+03  0.10570750961E+04  0.00000000000E+00 0.  1.
        -11    1    5    5    0    0 -0.10052549036E+03 -0.18703140527E+03 -0.44876738000E+02  0.21702544179E+03  0.00000000000E+00 0. -1.
          2    1    6    6  503    0 -0.26407736650E+02 -0.54090215847E+03 -0.22903938565E+03  0.58798941637E+03  0.00000000000E+00 0. -1.
         -2    1    6    6    0  503 -0.44663670988E+02 -0.18713290265E+03 -0.12491662401E+03  0.22938554818E+03  0.00000000000E+00 0.  1.
<mgrwt>
<rscale>  0 0.19341562E+04</rscale>
<asrwt>0</asrwt>
<pdfrwt beam="1">  1        1 0.25022652E+00 0.19341562E+04</pdfrwt>
<pdfrwt beam="2">  1       -1 0.36352938E+00 0.19341562E+04</pdfrwt>
<totfact> 0.60801895E-02</totfact>
</mgrwt>
</event>
<event>
12    1  0.1444206E-007  0.8164172E+03  0.7818608E-02  0.9536553E-01
          2   -1    0    0  501    0  0.00000000000E+00  0.00000000000E+00  0.11381144267E+04  0.11381144267E+04  0.00000000000E+00 0. -1.
         -2   -1    0    0    0  501 -0.00000000000E+00 -0.00000000000E+00 -0.81656324022E+03  0.81656324022E+03  0.00000000000E+00 0.  1.
         23    2    1    2    0    0  0.53296348240E+03 -0.51284597117E+03 -0.31516030397E+03  0.80905043389E+03  0.90418602388E+02 0.  0.
    5000000    2    1    2    0    0 -0.53296348240E+03  0.51284597117E+03  0.63671149043E+03  0.11456272330E+04  0.59999930939E+03 0.  0.
         23    2    4    4    0    0 -0.14640340662E+03 -0.76835734812E+02 -0.36391155396E+01  0.18957897307E+03  0.92678240465E+02 0.  0.
         23    2    4    4    0    0 -0.38656007578E+03  0.58968170598E+03  0.64035060597E+03  0.95604825994E+03  0.82620640372E+02 0.  0.
          2    1    3    3  502    0  0.11208759656E+03 -0.88917110199E+02 -0.26163242565E+02  0.14544551230E+03  0.00000000000E+00 0. -1.
         -2    1    3    3    0  502  0.42087588584E+03 -0.42392886097E+03 -0.28899706141E+03  0.66360492158E+03  0.00000000000E+00 0.  1.
         11    1    5    5    0    0 -0.57665838294E+02  0.11353294034E+02  0.20344132679E+02  0.62194291748E+02  0.00000000000E+00 0. -1.
        -11    1    5    5    0    0 -0.88737568325E+02 -0.88189028847E+02 -0.23983248219E+02  0.12738468133E+03  0.00000000000E+00 0.  1.
          4    1    6    6  503    0 -0.11253633073E+03  0.11836277470E+03  0.17362573895E+03  0.23836960669E+03  0.00000000000E+00 0. -1.
         -4    1    6    6    0  503 -0.27402374504E+03  0.47131893128E+03  0.46672486702E+03  0.71767865325E+03  0.00000000000E+00 0.  1.
<mgrwt>
<rscale>  0 0.81641717E+03</rscale>
<asrwt>0</asrwt>
<pdfrwt beam="1">  1        2 0.17509453E+00 0.81641717E+03</pdfrwt>
<pdfrwt beam="2">  1       -2 0.12562511E+00 0.81641717E+03</pdfrwt>
<totfact> 0.98829105E+00</totfact>
</mgrwt>
</event>
<event>
12    1  0.1444206E-007  0.1204775E+04  0.7818608E-02  0.9108687E-01
          2   -1    0    0  501    0  0.00000000000E+00  0.00000000000E+00  0.99991875881E+03  0.99991875881E+03  0.00000000000E+00 0. -1.
         -2   -1    0    0    0  501 -0.00000000000E+00 -0.00000000000E+00 -0.17517284937E+04  0.17517284937E+04  0.00000000000E+00 0.  1.
         23    2    1    2    0    0  0.10257505928E+04  0.50566556162E+03 -0.89134637243E+03  0.14527974143E+04  0.90884721080E+02 0.  0.
    5000000    2    1    2    0    0 -0.10257505928E+04 -0.50566556162E+03  0.13953663750E+03  0.12988498383E+04  0.59973201547E+03 0.  0.
         23    2    4    4    0    0 -0.10135811338E+04 -0.57865789821E+03  0.10469288980E+03  0.11752493361E+04  0.89770389146E+02 0.  0.
         23    2    4    4    0    0 -0.12169458945E+02  0.72992336596E+02  0.34843747694E+02  0.12360050218E+03  0.92666177510E+02 0.  0.
          3    1    3    3  502    0  0.35625431287E+03  0.21730874054E+03 -0.29599518143E+03  0.51161838473E+03  0.00000000000E+00 0. -1.
         -3    1    3    3    0  502  0.66949627991E+03  0.28835682107E+03 -0.59535119099E+03  0.94117902956E+03  0.00000000000E+00 0.  1.
         11    1    5    5    0    0 -0.10019749250E+04 -0.57471592063E+03  0.93884857217E+02  0.11589074623E+04  0.00000000000E+00 0. -1.
        -11    1    5    5    0    0 -0.11606208863E+02 -0.39419775861E+01  0.10808032584E+02  0.16341873815E+02  0.00000000000E+00 0.  1.
          3    1    6    6  503    0 -0.34825187746E+02  0.61159454152E+02 -0.10882127065E+02  0.71215821438E+02  0.00000000000E+00 0. -1.
         -3    1    6    6    0  503  0.22655728800E+02  0.11832882444E+02  0.45725874760E+02  0.52384680747E+02  0.00000000000E+00 0.  1.
<mgrwt>
<rscale>  0 0.12047754E+04</rscale>
<asrwt>0</asrwt>
<pdfrwt beam="1">  1        2 0.15383366E+00 0.12047754E+04</pdfrwt>
<pdfrwt beam="2">  1       -2 0.26949669E+00 0.12047754E+04</pdfrwt>
<totfact> 0.11989742E+00</totfact>
</mgrwt>
</event>
<event>
12    1  0.1444206E-007  0.4247222E+03  0.7818608E-02  0.1035540E+00
          2   -1    0    0  501    0  0.00000000000E+00  0.00000000000E+00  0.36175900904E+03  0.36175900904E+03  0.00000000000E+00 0. -1.
         -2   -1    0    0    0  501 -0.00000000000E+00 -0.00000000000E+00 -0.57017567764E+03  0.57017567764E+03  0.00000000000E+00 0.  1.
         23    2    1    2    0    0  0.75348593109E+02 -0.21613844290E+03 -0.14609103608E+03  0.28667336211E+03  0.91900972462E+02 0.  0.
    5000000    2    1    2    0    0 -0.75348593109E+02  0.21613844290E+03 -0.62325632522E+02  0.64526132458E+03  0.60007037550E+03 0.  0.
         23    2    4    4    0    0 -0.15141571496E+03 -0.16023472083E+03  0.29946496804E+02  0.23995984300E+03  0.89900217403E+02 0.  0.
         23    2    4    4    0    0  0.76067121848E+02  0.37637316372E+03 -0.92272129326E+02  0.40530148157E+03  0.91171156183E+02 0.  0.
          2    1    3    3  502    0  0.67827398177E+02 -0.18419031221E+03 -0.15777684161E+03  0.25183359347E+03  0.00000000000E+00 0. -1.
         -2    1    3    3    0  502  0.75211949321E+01 -0.31948130688E+02  0.11685805529E+02  0.34839768635E+02  0.00000000000E+00 0.  1.
         13    1    5    5    0    0 -0.49149487319E+02 -0.97380815042E+02 -0.18269955117E+02  0.11060057189E+03  0.00000000000E+00 0.  1.
        -13    1    5    5    0    0 -0.10226622764E+03 -0.62853905785E+02  0.48216451921E+02  0.12935927112E+03  0.00000000000E+00 0. -1.
          4    1    6    6  503    0  0.13033626973E+02  0.24666568205E+03 -0.83810177809E+02  0.26084090944E+03  0.00000000000E+00 0. -1.
         -4    1    6    6    0  503  0.63033494875E+02  0.12970748167E+03 -0.84619515176E+01  0.14446057213E+03  0.00000000000E+00 0.  1.
<mgrwt>
<rscale>  0 0.42472222E+03</rscale>
<asrwt>0</asrwt>
<pdfrwt beam="1">  1        2 0.55655232E-01 0.42472222E+03</pdfrwt>
<pdfrwt beam="2">  1       -2 0.87719335E-01 0.42472222E+03</pdfrwt>
<totfact> 0.10282589E+02</totfact>
</mgrwt>
</event>
<event>
12    1  0.1444206E-007  0.6845671E+03  0.7818608E-02  0.9743995E-01
         -1   -1    0    0    0  501 -0.00000000000E+00  0.00000000000E+00  0.38321336676E+03  0.38321336676E+03  0.00000000000E+00 0.  1.
          1   -1    0    0  501    0  0.00000000000E+00 -0.00000000000E+00 -0.17443292432E+04  0.17443292432E+04  0.00000000000E+00 0. -1.
         23    2    1    2    0    0 -0.62116778588E+03  0.77290570505E+02 -0.10106607744E+04  0.11923231002E+04  0.91520073962E+02 0.  0.
    5000000    2    1    2    0    0  0.62116778588E+03 -0.77290570505E+02 -0.35045510204E+03  0.93521950972E+03  0.59999458523E+03 0.  0.
         23    2    4    4    0    0  0.67193747916E+03 -0.92004219472E+02 -0.42598160566E+03  0.80600918618E+03  0.90695796685E+02 0.  0.
         23    2    4    4    0    0 -0.50769693282E+02  0.14713648968E+02  0.75526503616E+02  0.12921032354E+03  0.90537294745E+02 0.  0.
          1    1    3    3  502    0 -0.35795258730E+03  0.82940585130E+01 -0.62571095192E+03  0.72091125773E+03  0.00000000000E+00 0. -1.
         -1    1    3    3    0  502 -0.26321519858E+03  0.68996511992E+02 -0.38494982246E+03  0.47141184249E+03  0.00000000000E+00 0.  1.
         13    1    5    5    0    0  0.19375527557E+03 -0.67699369504E+02 -0.11886834413E+03  0.23717924589E+03  0.00000000000E+00 0.  1.
        -13    1    5    5    0    0  0.47818220359E+03 -0.24304849968E+02 -0.30711326152E+03  0.56882994029E+03  0.00000000000E+00 0. -1.
          3    1    6    6  503    0 -0.21876510746E+02  0.14118210824E+02 -0.17781693577E+02  0.31529259835E+02  0.00000000000E+00 0. -1.
         -3    1    6    6    0  503 -0.28893182536E+02  0.59543814386E+00  0.93308197193E+02  0.97681063707E+02  0.00000000000E+00 0.  1.
<mgrwt>
<rscale>  0 0.68456708E+03</rscale>
<asrwt>0</asrwt>
<pdfrwt beam="1">  1        1 0.26835835E+00 0.68456708E+03</pdfrwt>
<pdfrwt beam="2">  1       -1 0.58955902E-01 0.68456708E+03</pdfrwt>
<totfact> 0.13620787E+01</totfact>
</mgrwt>
</event>
<event>
12    1  0.1444206E-007  0.3685647E+03  0.7818608E-02  0.1055243E+00
         -1   -1    0    0    0  501 -0.00000000000E+00  0.00000000000E+00  0.35421701225E+03  0.35421701225E+03  0.00000000000E+00 0.  1.
          1   -1    0    0  501    0  0.00000000000E+00 -0.00000000000E+00 -0.62887375752E+03  0.62887375752E+03  0.00000000000E+00 0. -1.
         23    2    1    2    0    0 -0.20544262188E+02  0.21892046076E+03  0.81174952553E+02  0.25162991069E+03  0.91542362790E+02 0.  0.
    5000000    2    1    2    0    0  0.20544262188E+02 -0.21892046076E+03 -0.35583169783E+03  0.73146085907E+03  0.60005879406E+03 0.  0.
         23    2    4    4    0    0  0.43443002987E+02  0.13487202022E+03  0.58904328252E+02  0.17838692194E+03  0.90963826250E+02 0.  0.
         23    2    4    4    0    0 -0.22898740799E+02 -0.35379248098E+03 -0.41473602608E+03  0.55307393713E+03  0.90506003546E+02 0.  0.
          3    1    3    3  502    0  0.32969465067E+02  0.12984805762E+03  0.39471499756E+02  0.13966210291E+03  0.00000000000E+00 0. -1.
         -3    1    3    3    0  502 -0.53513727255E+02  0.89072403137E+02  0.41703452797E+02  0.11196780779E+03  0.00000000000E+00 0.  1.
         13    1    5    5    0    0  0.10053747113E+02  0.11635111872E+02  0.47814435326E+02  0.50226227061E+02  0.00000000000E+00 0. -1.
        -13    1    5    5    0    0  0.33389255874E+02  0.12323690835E+03  0.11089892927E+02  0.12816069488E+03  0.00000000000E+00 0.  1.
          4    1    6    6  503    0 -0.20483770640E+02 -0.86616970653E+02 -0.53793252547E+02  0.10399903117E+03  0.00000000000E+00 0. -1.
         -4    1    6    6    0  503 -0.24149701594E+01 -0.26717551033E+03 -0.36094277353E+03  0.44907490596E+03  0.00000000000E+00 0.  1.
<mgrwt>
<rscale>  0 0.36856470E+03</rscale>
<asrwt>0</asrwt>
<pdfrwt beam="1">  1        1 0.96749808E-01 0.36856470E+03</pdfrwt>
<pdfrwt beam="2">  1       -1 0.54494925E-01 0.36856470E+03</pdfrwt>
<totfact> 0.11471594E+02</totfact>
</mgrwt>
</event>
<event>
12    1  0.1444206E-007  0.4416707E+03  0.7818608E-02  0.1030235E+00
         -2   -1    0    0    0  501 -0.00000000000E+00  0.00000000000E+00  0.22168102528E+03  0.22168102528E+03  0.00000000000E+00 0.  1.
          2   -1    0    0  501    0  0.00000000000E+00 -0.00000000000E+00 -0.11003964413E+04  0.11003964413E+04  0.00000000000E+00 0. -1.
         23    2    1    2    0    0  0.46603931642E+02 -0.28524653885E+03 -0.16028350336E+03  0.34243887554E+03  0.89644116720E+02 0.  0.
    5000000    2    1    2    0    0 -0.46603931642E+02  0.28524653885E+03 -0.71843191263E+03  0.97963859100E+03  0.60000820121E+03 0.  0.
         23    2    4    4    0    0  0.19629004392E+03  0.13033750524E+02 -0.49707662644E+03  0.54221504713E+03  0.90621878054E+02 0.  0.
         23    2    4    4    0    0 -0.24289397557E+03  0.27221278833E+03 -0.22135528619E+03  0.43742354388E+03  0.96145246975E+02 0.  0.
          1    1    3    3  502    0 -0.26799881612E+02 -0.62920999265E+02 -0.39770314351E+02  0.79113612649E+02  0.00000000000E+00 0. -1.
         -1    1    3    3    0  502  0.73403813253E+02 -0.22232553959E+03 -0.12051318900E+03  0.26332526289E+03  0.00000000000E+00 0.  1.
         11    1    5    5    0    0  0.14652197898E+03 -0.29637226461E+02 -0.37396927653E+03  0.40274070480E+03  0.00000000000E+00 0.  1.
        -11    1    5    5    0    0  0.49768064948E+02  0.42670976985E+02 -0.12310734991E+03  0.13947434233E+03  0.00000000000E+00 0. -1.
          2    1    6    6  503    0 -0.24071194366E+03  0.26394637476E+03 -0.23031817553E+03  0.42503692845E+03  0.00000000000E+00 0. -1.
         -2    1    6    6    0  503 -0.21820319052E+01  0.82664135656E+01  0.89628893320E+01  0.12386615424E+02  0.00000000000E+00 0.  1.
<mgrwt>
<rscale>  0 0.44167066E+03</rscale>
<asrwt>0</asrwt>
<pdfrwt beam="1">  1        2 0.16929176E+00 0.44167066E+03</pdfrwt>
<pdfrwt beam="2">  1       -2 0.34104773E-01 0.44167066E+03</pdfrwt>
<totfact> 0.18183002E+02</totfact>
</mgrwt>
</event>
<event>
12    1  0.1444206E-007  0.4864025E+03  0.7818608E-02  0.1017390E+00
          1   -1    0    0  501    0  0.00000000000E+00  0.00000000000E+00  0.20056541920E+04  0.20056541920E+04  0.00000000000E+00 0. -1.
         -1   -1    0    0    0  501 -0.00000000000E+00 -0.00000000000E+00 -0.23065571393E+03  0.23065571393E+03  0.00000000000E+00 0.  1.
         23    2    1    2    0    0 -0.46829485926E+03  0.51280362967E+02  0.27287486612E+03  0.55158886826E+03  0.88655717232E+02 0.  0.
    5000000    2    1    2    0    0  0.46829485926E+03 -0.51280362967E+02  0.15021236120E+04  0.16847210377E+04  0.59998323172E+03 0.  0.
         23    2    4    4    0    0  0.31314606477E+03  0.37433552120E+02  0.14363582466E+04  0.14733118125E+04  0.89782824434E+02 0.  0.
         23    2    4    4    0    0  0.15514879449E+03 -0.88713915086E+02  0.65765365392E+02  0.21140922521E+03  0.91801253022E+02 0.  0.
          3    1    3    3  502    0 -0.34496494830E+03  0.92596592043E+01  0.16534971388E+03  0.38265792129E+03  0.00000000000E+00 0. -1.
         -3    1    3    3    0  502 -0.12332991096E+03  0.42020703762E+02  0.10752515224E+03  0.16893094698E+03  0.00000000000E+00 0.  1.
         11    1    5    5    0    0  0.19444740385E+03  0.20862291141E+02  0.10736496686E+04  0.10913150961E+04  0.00000000000E+00 0. -1.
        -11    1    5    5    0    0  0.11869866092E+03  0.16571260979E+02  0.36270857795E+03  0.38199671637E+03  0.00000000000E+00 0.  1.
          1    1    6    6  503    0  0.13244548550E+03 -0.59991193966E+02  0.11372959597E+02  0.14584270360E+03  0.00000000000E+00 0. -1.
         -1    1    6    6    0  503  0.22703308987E+02 -0.28722721120E+02  0.54392405795E+02  0.65566521607E+02  0.00000000000E+00 0.  1.
<mgrwt>
<rscale>  0 0.48640246E+03</rscale>
<asrwt>0</asrwt>
<pdfrwt beam="1">  1        1 0.30856217E+00 0.48640246E+03</pdfrwt>
<pdfrwt beam="2">  1       -1 0.35485496E-01 0.48640246E+03</pdfrwt>
<totfact> 0.24311429E+01</totfact>
</mgrwt>
</event>
<event>
12    1  0.1444206E-007  0.5973647E+03  0.7818608E-02  0.9910889E-01
          2   -1    0    0  501    0  0.00000000000E+00  0.00000000000E+00  0.19170183489E+04  0.19170183489E+04  0.00000000000E+00 0. -1.
         -2   -1    0    0    0  501 -0.00000000000E+00 -0.00000000000E+00 -0.83392399382E+03  0.83392399382E+03  0.00000000000E+00 0.  1.
         23    2    1    2    0    0  0.26853346806E+03 -0.49952946294E+03  0.16515217999E+04  0.17485706616E+04  0.91297290053E+02 0.  0.
    5000000    2    1    2    0    0 -0.26853346806E+03  0.49952946294E+03 -0.56842744482E+03  0.10023716811E+04  0.59999943277E+03 0.  0.
         23    2    4    4    0    0 -0.23948748387E+03  0.44842894623E+03 -0.10614203549E+03  0.52765760522E+03  0.93346890141E+02 0.  0.
         23    2    4    4    0    0 -0.29045984191E+02  0.51100516701E+02 -0.46228540932E+03  0.47471407592E+03  0.90502608799E+02 0.  0.
          2    1    3    3  502    0  0.79244574475E+02 -0.83225242286E+02  0.27407447407E+03  0.29719179140E+03  0.00000000000E+00 0. -1.
         -2    1    3    3    0  502  0.18928889359E+03 -0.41630422065E+03  0.13774473258E+04  0.14513788702E+04  0.00000000000E+00 0.  1.
         11    1    5    5    0    0 -0.20556152930E+03  0.29667638048E+03 -0.84138935113E+02  0.37061000724E+03  0.00000000000E+00 0.  1.
        -11    1    5    5    0    0 -0.33925954571E+02  0.15175256575E+03 -0.22003100380E+02  0.15704759798E+03  0.00000000000E+00 0. -1.
          1    1    6    6  503    0 -0.15404087197E+02  0.76067468380E+02 -0.37361704218E+03  0.38159302909E+03  0.00000000000E+00 0. -1.
         -1    1    6    6    0  503 -0.13641896994E+02 -0.24966951679E+02 -0.88668367147E+02  0.93121046828E+02  0.00000000000E+00 0.  1.
<mgrwt>
<rscale>  0 0.59736467E+03</rscale>
<asrwt>0</asrwt>
<pdfrwt beam="1">  1        2 0.29492590E+00 0.59736467E+03</pdfrwt>
<pdfrwt beam="2">  1       -2 0.12829600E+00 0.59736467E+03</pdfrwt>
<totfact> 0.35546422E+00</totfact>
</mgrwt>
</event>
<event>
12    1  0.1444206E-007  0.7147651E+03  0.7818608E-02  0.9692310E-01
          1   -1    0    0  501    0  0.00000000000E+00  0.00000000000E+00  0.99917366316E+03  0.99917366316E+03  0.00000000000E+00 0. -1.
         -1   -1    0    0    0  501 -0.00000000000E+00 -0.00000000000E+00 -0.61024381377E+03  0.61024381377E+03  0.00000000000E+00 0.  1.
         23    2    1    2    0    0 -0.48545701199E+02  0.66029174042E+03  0.16967648592E+03  0.68932982957E+03  0.89686322745E+02 0.  0.
    5000000    2    1    2    0    0  0.48545701199E+02 -0.66029174042E+03  0.21925336347E+03  0.92008764736E+03  0.60012279897E+03 0.  0.
         23    2    4    4    0    0  0.29095468689E+02 -0.66838116818E+03 -0.65405912086E+01  0.67547787417E+03  0.92992724943E+02 0.  0.
         23    2    4    4    0    0  0.19450232511E+02  0.80894277533E+01  0.22579395468E+03  0.24460977319E+03  0.91691225207E+02 0.  0.
          3    1    3    3  502    0 -0.51570537788E+02  0.21284123045E+03  0.78720109240E+02  0.23271821017E+03  0.00000000000E+00 0. -1.
         -3    1    3    3    0  502  0.30248365887E+01  0.44745050997E+03  0.90956376683E+02  0.45661161940E+03  0.00000000000E+00 0.  1.
         13    1    5    5    0    0  0.16457628625E+02 -0.28324027101E+03 -0.48566609402E+02  0.28784478493E+03  0.00000000000E+00 0.  1.
        -13    1    5    5    0    0  0.12637840064E+02 -0.38514089717E+03  0.42026018194E+02  0.38763308925E+03  0.00000000000E+00 0. -1.
          1    1    6    6  503    0 -0.40546908848E+01  0.47738797948E+02  0.12000215409E+03  0.12921281025E+03  0.00000000000E+00 0. -1.
         -1    1    6    6    0  503  0.23504923396E+02 -0.39649370195E+02  0.10579180059E+03  0.11539696293E+03  0.00000000000E+00 0.  1.
<mgrwt>
<rscale>  0 0.71476514E+03</rscale>
<asrwt>0</asrwt>
<pdfrwt beam="1">  1        1 0.15371902E+00 0.71476514E+03</pdfrwt>
<pdfrwt beam="2">  1       -1 0.93883664E-01 0.71476514E+03</pdfrwt>
<totfact> 0.17237199E+01</totfact>
</mgrwt>
</event>
<event>
12    1  0.1444206E-007  0.6022579E+03  0.7818608E-02  0.9900733E-01
          1   -1    0    0  501    0  0.00000000000E+00  0.00000000000E+00  0.22353563780E+04  0.22353563780E+04  0.00000000000E+00 0. -1.
         -1   -1    0    0    0  501 -0.00000000000E+00 -0.00000000000E+00 -0.22604890282E+03  0.22604890282E+03  0.00000000000E+00 0.  1.
         23    2    1    2    0    0 -0.27157521511E+03  0.40971565092E+03  0.13639496828E+04  0.14524296447E+04  0.87023694638E+02 0.  0.
    5000000    2    1    2    0    0  0.27157521511E+03 -0.40971565092E+03  0.64535779234E+03  0.10089756361E+04  0.59993761515E+03 0.  0.
         23    2    4    4    0    0 -0.14962374726E+03 -0.10058084272E+03  0.43691121482E+02  0.20681662956E+03  0.91435400690E+02 0.  0.
         23    2    4    4    0    0  0.42119896237E+03 -0.30913480820E+03  0.60166667086E+03  0.80215900656E+03  0.92105338834E+02 0.  0.
          3    1    3    3  502    0 -0.13232053768E+03  0.21939534281E+03  0.58698454895E+03  0.64046381775E+03  0.00000000000E+00 0. -1.
         -3    1    3    3    0  502 -0.13925467743E+03  0.19032030811E+03  0.77696513388E+03  0.81196582695E+03  0.00000000000E+00 0.  1.
         11    1    5    5    0    0 -0.11484442316E+03 -0.42898120233E+02  0.61485353105E+02  0.13714933065E+03  0.00000000000E+00 0. -1.
        -11    1    5    5    0    0 -0.34779324092E+02 -0.57682722487E+02 -0.17794231623E+02  0.69667298906E+02  0.00000000000E+00 0.  1.
          1    1    6    6  503    0  0.18655750559E+03 -0.14188376219E+03  0.33981332384E+03  0.41280479639E+03  0.00000000000E+00 0.  1.
         -1    1    6    6    0  503  0.23464145678E+03 -0.16725104600E+03  0.26185334702E+03  0.38935421017E+03  0.00000000000E+00 0. -1.
<mgrwt>
<rscale>  0 0.60225791E+03</rscale>
<asrwt>0</asrwt>
<pdfrwt beam="1">  1        1 0.34390097E+00 0.60225791E+03</pdfrwt>
<pdfrwt beam="2">  1       -1 0.34776756E-01 0.60225791E+03</pdfrwt>
<totfact> 0.17325373E+01</totfact>
</mgrwt>
</event>
<event>
12    1  0.1444206E-007  0.6393062E+03  0.7818608E-02  0.9827055E-01
          2   -1    0    0  501    0  0.00000000000E+00  0.00000000000E+00  0.20162480428E+04  0.20162480428E+04  0.00000000000E+00 0. -1.
         -2   -1    0    0    0  501 -0.00000000000E+00 -0.00000000000E+00 -0.26361387257E+03  0.26361387257E+03  0.00000000000E+00 0.  1.
         23    2    1    2    0    0  0.33533150553E+03 -0.49756277158E+03  0.80771065476E+03  0.10099161045E+04  0.86707012976E+02 0.  0.
    5000000    2    1    2    0    0 -0.33533150553E+03  0.49756277158E+03  0.94492351544E+03  0.12699458108E+04  0.59988830804E+03 0.  0.
         23    2    4    4    0    0  0.27967941913E+02  0.69235131084E+02  0.58569278173E+03  0.59728348978E+03  0.90198799508E+02 0.  0.
         23    2    4    4    0    0 -0.36329944745E+03  0.42832764050E+03  0.35923073370E+03  0.67266232104E+03  0.89313056067E+02 0.  0.
          4    1    3    3  502    0  0.17908275694E+03 -0.20918099825E+03  0.31992496388E+03  0.42211290714E+03  0.00000000000E+00 0.  1.
         -4    1    3    3    0  502  0.15624874860E+03 -0.28838177333E+03  0.48778569089E+03  0.58780319739E+03  0.00000000000E+00 0. -1.
         11    1    5    5    0    0  0.56612038100E+02  0.50598108149E+02  0.29604699978E+03  0.30562872490E+03  0.00000000000E+00 0.  1.
        -11    1    5    5    0    0 -0.28644096187E+02  0.18637022935E+02  0.28964578196E+03  0.29165476488E+03  0.00000000000E+00 0. -1.
          2    1    6    6  503    0 -0.27058277517E+03  0.27379630470E+03  0.20884358512E+03  0.43794417193E+03  0.00000000000E+00 0. -1.
         -2    1    6    6    0  503 -0.92716672280E+02  0.15453133580E+03  0.15038714859E+03  0.23471814911E+03  0.00000000000E+00 0.  1.
<mgrwt>
<rscale>  0 0.63930619E+03</rscale>
<asrwt>0</asrwt>
<pdfrwt beam="1">  1        2 0.31019200E+00 0.63930619E+03</pdfrwt>
<pdfrwt beam="2">  1       -2 0.40555982E-01 0.63930619E+03</pdfrwt>
<totfact> 0.39446143E+01</totfact>
</mgrwt>
</event>
<event>
12    1  0.1444206E-007  0.1185886E+04  0.7818608E-02  0.9125301E-01
         -1   -1    0    0    0  501 -0.00000000000E+00  0.00000000000E+00  0.12182886556E+04  0.12182886556E+04  0.00000000000E+00 0.  1.
          1   -1    0    0  501    0  0.00000000000E+00 -0.00000000000E+00 -0.14089064136E+04  0.14089064136E+04  0.00000000000E+00 0. -1.
         23    2    1    2    0    0  0.49758726956E+03  0.10552216741E+04 -0.51070212548E+03  0.12767740442E+04  0.90826354381E+02 0.  0.
    5000000    2    1    2    0    0 -0.49758726956E+03 -0.10552216741E+04  0.32008436751E+03  0.13504210250E+04  0.60008088622E+03 0.  0.
         23    2    4    4    0    0 -0.42260194969E+02 -0.35615557784E+03 -0.13683472516E+03  0.39512040226E+03  0.93614478411E+02 0.  0.
         23    2    4    4    0    0 -0.45532707459E+03 -0.69906609631E+03  0.45691909267E+03  0.95530062274E+03  0.88363288134E+02 0.  0.
          2    1    3    3  502    0  0.32149479681E+03  0.63258098865E+03 -0.26752678779E+03  0.75834569541E+03  0.00000000000E+00 0.  1.
         -2    1    3    3    0  502  0.17609247276E+03  0.42264068550E+03 -0.24317533769E+03  0.51842834882E+03  0.00000000000E+00 0. -1.
         11    1    5    5    0    0 -0.67004894356E+02 -0.17925859532E+03 -0.58823575257E+02  0.20020867331E+03  0.00000000000E+00 0. -1.
        -11    1    5    5    0    0  0.24744699387E+02 -0.17689698252E+03 -0.78011149901E+02  0.19491172895E+03  0.00000000000E+00 0.  1.
          2    1    6    6  503    0 -0.30063759351E+03 -0.46992908501E+03  0.25756080172E+03  0.61445412697E+03  0.00000000000E+00 0. -1.
         -2    1    6    6    0  503 -0.15468948108E+03 -0.22913701130E+03  0.19935829096E+03  0.34084649577E+03  0.00000000000E+00 0.  1.
<mgrwt>
<rscale>  0 0.11858855E+04</rscale>
<asrwt>0</asrwt>
<pdfrwt beam="1">  1        1 0.21675483E+00 0.11858855E+04</pdfrwt>
<pdfrwt beam="2">  1       -1 0.18742902E+00 0.11858855E+04</pdfrwt>
<totfact> 0.13694131E+00</totfact>
</mgrwt>
</event>
<event>
12    1  0.1444206E-007  0.1683036E+04  0.7818608E-02  0.8771099E-01
         -2   -1    0    0    0  501 -0.00000000000E+00  0.00000000000E+00  0.10381835038E+04  0.10381835038E+04  0.00000000000E+00 0.  1.
          2   -1    0    0  501    0  0.00000000000E+00 -0.00000000000E+00 -0.38449030886E+04  0.38449030886E+04  0.00000000000E+00 0. -1.
         23    2    1    2    0    0 -0.96500542747E+03 -0.13640445317E+04 -0.26052239738E+04  0.30963563863E+04  0.91531186534E+02 0.  0.
    5000000    2    1    2    0    0  0.96500542747E+03  0.13640445317E+04 -0.20149561107E+03  0.17867302061E+04  0.59995948902E+03 0.  0.
         23    2    4    4    0    0  0.82965581760E+02  0.20116269636E+03  0.15449143969E+03  0.28170536060E+03  0.90225202077E+02 0.  0.
         23    2    4    4    0    0  0.88203984571E+03  0.11628818353E+04 -0.35598705076E+03  0.15050248455E+04  0.89914140980E+02 0.  0.
          4    1    3    3  502    0 -0.37654611689E+03 -0.46324553039E+03 -0.96366697633E+03  0.11335949192E+04  0.00000000000E+00 0. -1.
         -4    1    3    3    0  502 -0.58845931057E+03 -0.90079900131E+03 -0.16415569975E+04  0.19627614671E+04  0.00000000000E+00 0.  1.
         11    1    5    5    0    0 -0.65607420119E+01 -0.36984663682E+01  0.18624015838E+02  0.20089199963E+02  0.00000000000E+00 0.  1.
        -11    1    5    5    0    0  0.89526323771E+02  0.20486116273E+03  0.13586742386E+03  0.26161616064E+03  0.00000000000E+00 0. -1.
          1    1    6    6  503    0  0.53073856162E+03  0.76721721637E+03 -0.24179541615E+03  0.96372750358E+03  0.00000000000E+00 0. -1.
         -1    1    6    6    0  503  0.35130128409E+03  0.39566461897E+03 -0.11419163461E+03  0.54129734187E+03  0.00000000000E+00 0.  1.
<mgrwt>
<rscale>  0 0.16830357E+04</rscale>
<asrwt>0</asrwt>
<pdfrwt beam="1">  1        2 0.59152355E+00 0.16830357E+04</pdfrwt>
<pdfrwt beam="2">  1       -2 0.15972054E+00 0.16830357E+04</pdfrwt>
<totfact> 0.10733164E-01</totfact>
</mgrwt>
</event>
<event>
12    1  0.1444206E-007  0.5639534E+03  0.7818608E-02  0.9983149E-01
          1   -1    0    0  501    0  0.00000000000E+00  0.00000000000E+00  0.11778724710E+04  0.11778724710E+04  0.00000000000E+00 0. -1.
         -1   -1    0    0    0  501 -0.00000000000E+00 -0.00000000000E+00 -0.28670157784E+03  0.28670157784E+03  0.00000000000E+00 0.  1.
         23    2    1    2    0    0 -0.24474671157E+03 -0.33705153462E+03  0.25573796733E+03  0.49647029360E+03  0.87041109120E+02 0.  0.
    5000000    2    1    2    0    0  0.24474671157E+03  0.33705153462E+03  0.63543292578E+03  0.96810375519E+03  0.59995432145E+03 0.  0.
         23    2    4    4    0    0  0.35789073521E+03  0.40870066637E+03  0.39072235026E+03  0.67508605976E+03  0.89192040293E+02 0.  0.
         23    2    4    4    0    0 -0.11314402364E+03 -0.71649131742E+02  0.24471057552E+03  0.29301769543E+03  0.89671265744E+02 0.  0.
          4    1    3    3  502    0 -0.59915104714E+02 -0.15447299278E+03  0.95983874243E+02  0.19148010180E+03  0.00000000000E+00 0. -1.
         -4    1    3    3    0  502 -0.18483160686E+03 -0.18257854184E+03  0.15975409308E+03  0.30499019180E+03  0.00000000000E+00 0.  1.
         13    1    5    5    0    0  0.32017705967E+03  0.39776160598E+03  0.35401377705E+03  0.62133195561E+03  0.00000000000E+00 0. -1.
        -13    1    5    5    0    0  0.37713675543E+02  0.10939060386E+02  0.36708573213E+02  0.53754104145E+02  0.00000000000E+00 0.  1.
          1    1    6    6  503    0 -0.76201388557E+02 -0.50408906344E+01  0.75184942433E+02  0.10716733535E+03  0.00000000000E+00 0. -1.
         -1    1    6    6    0  503 -0.36942635079E+02 -0.66608241108E+02  0.16952563309E+03  0.18585036009E+03  0.00000000000E+00 0.  1.
<mgrwt>
<rscale>  0 0.56395338E+03</rscale>
<asrwt>0</asrwt>
<pdfrwt beam="1">  1        1 0.18121115E+00 0.56395338E+03</pdfrwt>
<pdfrwt beam="2">  1       -1 0.44107936E-01 0.56395338E+03</pdfrwt>
<totfact> 0.59001207E+01</totfact>
</mgrwt>
</event>
<event>
12    1  0.1444206E-007  0.6505104E+03  0.7818608E-02  0.9805822E-01
          2   -1    0    0  501    0  0.00000000000E+00  0.00000000000E+00  0.26610454980E+03  0.26610454980E+03  0.00000000000E+00 0. -1.
         -2   -1    0    0    0  501 -0.00000000000E+00 -0.00000000000E+00 -0.16567196947E+04  0.16567196947E+04  0.00000000000E+00 0.  1.
         23    2    1    2    0    0  0.35380839466E+03  0.38569030657E+03 -0.57896605251E+03  0.78577619725E+03  0.91132592938E+02 0.  0.
    5000000    2    1    2    0    0 -0.35380839466E+03 -0.38569030657E+03 -0.81164909235E+03  0.11370480472E+04  0.60013883381E+03 0.  0.
         23    2    4    4    0    0 -0.40947581356E+03 -0.49093453483E+03 -0.65622002702E+03  0.92086654320E+03  0.93184264367E+02 0.  0.
         23    2    4    4    0    0  0.55667418907E+02  0.10524422826E+03 -0.15542906533E+03  0.21618150402E+03  0.91657183130E+02 0.  0.
          1    1    3    3  502    0  0.27862077914E+03  0.25346449798E+03 -0.44573857670E+03  0.58357233405E+03  0.00000000000E+00 0. -1.
         -1    1    3    3    0  502  0.75187615518E+02  0.13222580859E+03 -0.13322747580E+03  0.20220386320E+03  0.00000000000E+00 0.  1.
         11    1    5    5    0    0 -0.29973834203E+03 -0.30886938365E+03 -0.39604641013E+03  0.58488984332E+03  0.00000000000E+00 0. -1.
        -11    1    5    5    0    0 -0.10973747154E+03 -0.18206515118E+03 -0.26017361689E+03  0.33597669988E+03  0.00000000000E+00 0.  1.
          3    1    6    6  503    0  0.82029346542E+01  0.69172380895E+02 -0.27214134564E+02  0.74784460523E+02  0.00000000000E+00 0. -1.
         -3    1    6    6    0  503  0.47464484252E+02  0.36071847369E+02 -0.12821493076E+03  0.14139704349E+03  0.00000000000E+00 0.  1.
<mgrwt>
<rscale>  0 0.65051044E+03</rscale>
<asrwt>0</asrwt>
<pdfrwt beam="1">  1        2 0.40939161E-01 0.65051044E+03</pdfrwt>
<pdfrwt beam="2">  1       -2 0.25487995E+00 0.65051044E+03</pdfrwt>
<totfact> 0.78301009E+00</totfact>
</mgrwt>
</event>
<event>
12    1  0.1444206E-007  0.7804296E+03  0.7818608E-02  0.9588785E-01
          1   -1    0    0  501    0  0.00000000000E+00  0.00000000000E+00  0.65145145969E+03  0.65145145969E+03  0.00000000000E+00 0. -1.
         -1   -1    0    0    0  501 -0.00000000000E+00 -0.00000000000E+00 -0.11953259025E+04  0.11953259025E+04  0.00000000000E+00 0.  1.
         23    2    1    2    0    0  0.28620584423E+02 -0.75458310644E+03 -0.43480096054E+03  0.87607444091E+03  0.90773059514E+02 0.  0.
    5000000    2    1    2    0    0 -0.28620584423E+02  0.75458310644E+03 -0.10907348225E+03  0.97070292128E+03  0.60012693196E+03 0.  0.
         23    2    4    4    0    0 -0.14126021398E+03  0.36905997765E+03 -0.31247115858E+03  0.51190042909E+03  0.90797077098E+02 0.  0.
         23    2    4    4    0    0  0.11263962956E+03  0.38552312880E+03  0.20339767633E+03  0.45880249218E+03  0.88393116890E+02 0.  0.
          1    1    3    3  502    0  0.42191869689E+02 -0.47401517083E+03 -0.23071865436E+03  0.52886825724E+03  0.00000000000E+00 0. -1.
         -1    1    3    3    0  502 -0.13571285266E+02 -0.28056793561E+03 -0.20408230618E+03  0.34720618366E+03  0.00000000000E+00 0.  1.
         13    1    5    5    0    0 -0.77802098963E+02  0.24765353488E+03 -0.25324585820E+03  0.36265535242E+03  0.00000000000E+00 0. -1.
        -13    1    5    5    0    0 -0.63458115021E+02  0.12140644277E+03 -0.59225300374E+02  0.14924507668E+03  0.00000000000E+00 0.  1.
          1    1    6    6  503    0  0.79493543028E+02  0.15103998702E+03  0.54959886532E+02  0.17931227004E+03  0.00000000000E+00 0. -1.
         -1    1    6    6    0  503  0.33146086532E+02  0.23448314178E+03  0.14843778980E+03  0.27949022214E+03  0.00000000000E+00 0.  1.
<mgrwt>
<rscale>  0 0.78042955E+03</rscale>
<asrwt>0</asrwt>
<pdfrwt beam="1">  1        1 0.10022330E+00 0.78042955E+03</pdfrwt>
<pdfrwt beam="2">  1       -1 0.18389629E+00 0.78042955E+03</pdfrwt>
<totfact> 0.61019374E+00</totfact>
</mgrwt>
</event>
<event>
12    1  0.1444206E-007  0.6635972E+03  0.7818608E-02  0.9781594E-01
         -2   -1    0    0    0  501 -0.00000000000E+00  0.00000000000E+00  0.62578787843E+03  0.62578787843E+03  0.00000000000E+00 0.  1.
          2   -1    0    0  501    0  0.00000000000E+00 -0.00000000000E+00 -0.79009613078E+03  0.79009613078E+03  0.00000000000E+00 0. -1.
         23    2    1    2    0    0  0.51542499483E+02 -0.55831909274E+03 -0.17586334405E+03  0.59456785983E+03  0.90587999127E+02 0.  0.
    5000000    2    1    2    0    0 -0.51542499483E+02  0.55831909274E+03  0.11555091708E+02  0.82131614939E+03  0.60004154733E+03 0.  0.
         23    2    4    4    0    0 -0.80221849473E+02  0.63003979365E+03 -0.10945351377E+03  0.65086090683E+03  0.90852416860E+02 0.  0.
         23    2    4    4    0    0  0.28679349989E+02 -0.71720700906E+02  0.12100860548E+03  0.17045524256E+03  0.91899635806E+02 0.  0.
          1    1    3    3  502    0  0.58400422522E+02 -0.17380425599E+03 -0.59839170566E+02  0.19287108411E+03  0.00000000000E+00 0. -1.
         -1    1    3    3    0  502 -0.68579230385E+01 -0.38451483675E+03 -0.11602417349E+03  0.40169677572E+03  0.00000000000E+00 0.  1.
         11    1    5    5    0    0 -0.55027580077E+02  0.13536027538E+03 -0.18984097504E+02  0.14734596933E+03  0.00000000000E+00 0.  1.
        -11    1    5    5    0    0 -0.25194269396E+02  0.49467951827E+03 -0.90469416267E+02  0.50351493750E+03  0.00000000000E+00 0. -1.
          1    1    6    6  503    0  0.30232272021E+02  0.13130736292E+02  0.20107424478E+02  0.38609778894E+02  0.00000000000E+00 0. -1.
         -1    1    6    6    0  503 -0.15529220316E+01 -0.84851437198E+02  0.10090118100E+03  0.13184546366E+03  0.00000000000E+00 0.  1.
<mgrwt>
<rscale>  0 0.66359723E+03</rscale>
<asrwt>0</asrwt>
<pdfrwt beam="1">  1        2 0.12155325E+00 0.66359723E+03</pdfrwt>
<pdfrwt beam="2">  1       -2 0.96275058E-01 0.66359723E+03</pdfrwt>
<totfact> 0.32338372E+01</totfact>
</mgrwt>
</event>
<event>
12    1  0.1928021E-007  0.1625169E+04  0.7818608E-02  0.8805233E-01
          2   -1    0    0  501    0  0.00000000000E+00  0.00000000000E+00  0.35236281390E+04  0.35236281390E+04  0.00000000000E+00 0. -1.
         -2   -1    0    0    0  501 -0.00000000000E+00 -0.00000000000E+00 -0.77688060398E+03  0.77688060398E+03  0.00000000000E+00 0.  1.
         23    2    1    2    0    0  0.50582129030E+03  0.15165031738E+04  0.13697163787E+04  0.21068758002E+04  0.84650017481E+02 0.  0.
    5000000    2    1    2    0    0 -0.50582129030E+03 -0.15165031738E+04  0.13770311563E+04  0.21936329428E+04  0.60014467280E+03 0.  0.
         23    2    4    4    0    0 -0.54342135639E+03 -0.15154942730E+04  0.13250948558E+04  0.20872880948E+04  0.94157059959E+02 0.  0.
         23    2    4    4    0    0  0.37600066091E+02 -0.10089007806E+01  0.51936300562E+02  0.10634484794E+03  0.84835514481E+02 0.  0.
          4    1    3    3  502    0  0.30183471397E+03  0.79668347831E+03  0.76175928198E+03  0.11428411801E+04  0.00000000000E+00 0. -1.
         -4    1    3    3    0  502  0.20398657633E+03  0.71981969550E+03  0.60795709674E+03  0.96403462014E+03  0.00000000000E+00 0.  1.
         13    1    5    5    0    0 -0.31722968701E+03 -0.10057766673E+04  0.84296963725E+03  0.13501182126E+04  0.00000000000E+00 0.  1.
        -13    1    5    5    0    0 -0.22619166938E+03 -0.50971760574E+03  0.48212521850E+03  0.73716988220E+03  0.00000000000E+00 0. -1.
          3    1    6    6  503    0  0.17412561717E+02 -0.30181134257E+01 -0.22832489406E+02  0.28872632140E+02  0.00000000000E+00 0. -1.
         -3    1    6    6    0  503  0.20187504373E+02  0.20092126451E+01  0.74768789968E+02  0.77472215804E+02  0.00000000000E+00 0.  1.
<mgrwt>
<rscale>  0 0.16251694E+04</rscale>
<asrwt>0</asrwt>
<pdfrwt beam="1">  1        2 0.54209663E+00 0.16251694E+04</pdfrwt>
<pdfrwt beam="2">  1       -2 0.11952009E+00 0.16251694E+04</pdfrwt>
<totfact> 0.39644987E-01</totfact>
</mgrwt>
</event>
<event>
12    1  0.1444206E-007  0.1186111E+04  0.7818608E-02  0.9125101E-01
          1   -1    0    0  501    0  0.00000000000E+00  0.00000000000E+00  0.11209569337E+04  0.11209569337E+04  0.00000000000E+00 0. -1.
         -1   -1    0    0    0  501 -0.00000000000E+00 -0.00000000000E+00 -0.15336884014E+04  0.15336884014E+04  0.00000000000E+00 0.  1.
         23    2    1    2    0    0 -0.33451698636E+02  0.11120355280E+04  0.36025089231E+03  0.11730146806E+04  0.91873302770E+02 0.  0.
    5000000    2    1    2    0    0  0.33451698636E+02 -0.11120355280E+04 -0.77298236001E+03  0.14816306545E+04  0.59998802960E+03 0.  0.
         23    2    4    4    0    0 -0.25326589345E+03 -0.32914379814E+03 -0.25535097831E+03  0.49593645334E+03  0.90937291545E+02 0.  0.
         23    2    4    4    0    0  0.28671759208E+03 -0.78289172989E+03 -0.51763138170E+03  0.98569420114E+03  0.92327528374E+02 0.  0.
          3    1    3    3  502    0 -0.24847765592E+02  0.13969967507E+03  0.22574165929E+02  0.14367673311E+03  0.00000000000E+00 0. -1.
         -3    1    3    3    0  502 -0.86039330439E+01  0.97233585296E+03  0.33767672638E+03  0.10293379475E+04  0.00000000000E+00 0.  1.
         13    1    5    5    0    0 -0.15437669741E+03 -0.26280778373E+03 -0.16603523722E+03  0.34708470996E+03  0.00000000000E+00 0.  1.
        -13    1    5    5    0    0 -0.98889196037E+02 -0.66336014409E+02 -0.89315741086E+02  0.14885174338E+03  0.00000000000E+00 0. -1.
          3    1    6    6  503    0  0.12212354733E+03 -0.36799315569E+03 -0.29311261551E+03  0.48605362751E+03  0.00000000000E+00 0. -1.
         -3    1    6    6    0  503  0.16459404475E+03 -0.41489857420E+03 -0.22451876619E+03  0.49964057362E+03  0.00000000000E+00 0.  1.
<mgrwt>
<rscale>  0 0.11861108E+04</rscale>
<asrwt>0</asrwt>
<pdfrwt beam="1">  1        1 0.17245491E+00 0.11861108E+04</pdfrwt>
<pdfrwt beam="2">  1       -1 0.23595206E+00 0.11861108E+04</pdfrwt>
<totfact> 0.10358576E+00</totfact>
</mgrwt>
</event>
<event>
12    1  0.1444206E-007  0.5136707E+03  0.7818608E-02  0.1010271E+00
          1   -1    0    0  501    0  0.00000000000E+00  0.00000000000E+00  0.53179636782E+03  0.53179636782E+03  0.00000000000E+00 0. -1.
         -1   -1    0    0    0  501 -0.00000000000E+00 -0.00000000000E+00 -0.92061402302E+03  0.92061402302E+03  0.00000000000E+00 0.  1.
         23    2    1    2    0    0  0.42281237859E+03  0.28177628813E+03  0.10122880259E+03  0.52593870801E+03  0.90532149360E+02 0.  0.
    5000000    2    1    2    0    0 -0.42281237859E+03 -0.28177628813E+03 -0.49004645778E+03  0.92647168283E+03  0.60003005279E+03 0.  0.
         23    2    4    4    0    0 -0.27516459932E+03 -0.16903612850E+03  0.58233143539E+02  0.34043831889E+03  0.90655283953E+02 0.  0.
         23    2    4    4    0    0 -0.14764777928E+03 -0.11274015963E+03 -0.54827960132E+03  0.58603336394E+03  0.91183178813E+02 0.  0.
          2    1    3    3  502    0  0.20894605547E+03  0.89304430983E+02  0.27257040506E+02  0.22885952404E+03  0.00000000000E+00 0. -1.
         -2    1    3    3    0  502  0.21386632312E+03  0.19247185715E+03  0.73971762084E+02  0.29707918397E+03  0.00000000000E+00 0.  1.
         11    1    5    5    0    0 -0.10049943320E+03 -0.85042263653E+02  0.64334733099E+02  0.14653081779E+03  0.00000000000E+00 0.  1.
        -11    1    5    5    0    0 -0.17466516612E+03 -0.83993864847E+02 -0.61015895602E+01  0.19390750110E+03  0.00000000000E+00 0. -1.
          3    1    6    6  503    0 -0.12064302751E+03 -0.10154961494E+03 -0.32928896343E+03  0.36510037773E+03  0.00000000000E+00 0. -1.
         -3    1    6    6    0  503 -0.27004751768E+02 -0.11190544689E+02 -0.21899063790E+03  0.22093298621E+03  0.00000000000E+00 0.  1.
<mgrwt>
<rscale>  0 0.51367066E+03</rscale>
<asrwt>0</asrwt>
<pdfrwt beam="1">  1        1 0.81814827E-01 0.51367066E+03</pdfrwt>
<pdfrwt beam="2">  1       -1 0.14163292E+00 0.51367066E+03</pdfrwt>
<totfact> 0.17536931E+01</totfact>
</mgrwt>
</event>
<event>
12    1  0.1444206E-007  0.7862339E+03  0.7818608E-02  0.9580159E-01
         -2   -1    0    0    0  501 -0.00000000000E+00  0.00000000000E+00  0.36046916591E+03  0.36046916591E+03  0.00000000000E+00 0. -1.
          2   -1    0    0  501    0  0.00000000000E+00 -0.00000000000E+00 -0.20380216492E+04  0.20380216492E+04  0.00000000000E+00 0.  1.
         23    2    1    2    0    0  0.47262062947E+03  0.55211669975E+03 -0.48511145929E+03  0.87857759789E+03  0.91445929526E+02 0.  0.
    5000000    2    1    2    0    0 -0.47262062947E+03 -0.55211669975E+03 -0.11924410240E+04  0.15199132172E+04  0.60001456869E+03 0.  0.
         23    2    4    4    0    0 -0.46830826518E+03 -0.23681919075E+03 -0.41314374695E+03  0.67421158368E+03  0.92073576991E+02 0.  0.
         23    2    4    4    0    0 -0.43123642919E+01 -0.31529750900E+03 -0.77929727708E+03  0.84570163357E+03  0.92064603934E+02 0.  0.
          4    1    3    3  502    0  0.31514586454E+03  0.37380116767E+03 -0.27370151615E+03  0.56031843520E+03  0.00000000000E+00 0.  1.
         -4    1    3    3    0  502  0.15747476493E+03  0.17831553209E+03 -0.21140994315E+03  0.31825916269E+03  0.00000000000E+00 0. -1.
         13    1    5    5    0    0 -0.48472884823E+02 -0.64649794425E+01 -0.14180236170E+02  0.50916555462E+02  0.00000000000E+00 0. -1.
        -13    1    5    5    0    0 -0.41983538035E+03 -0.23035421131E+03 -0.39896351078E+03  0.62329502822E+03  0.00000000000E+00 0.  1.
          3    1    6    6  503    0 -0.79904731129E+01 -0.11247766055E+02 -0.10640008836E+03  0.10729090691E+03  0.00000000000E+00 0. -1.
         -3    1    6    6    0  503  0.36781088209E+01 -0.30404974294E+03 -0.67289718871E+03  0.73841072666E+03  0.00000000000E+00 0.  1.
<mgrwt>
<rscale>  0 0.78623393E+03</rscale>
<asrwt>0</asrwt>
<pdfrwt beam="1">  1        2 0.31354179E+00 0.78623393E+03</pdfrwt>
<pdfrwt beam="2">  1       -2 0.55456794E-01 0.78623393E+03</pdfrwt>
<totfact> 0.20024050E+01</totfact>
</mgrwt>
</event>
<event>
12    1  0.1444206E-007  0.7913739E+03  0.7818608E-02  0.9572588E-01
         -2   -1    0    0    0  501 -0.00000000000E+00  0.00000000000E+00  0.54097289613E+03  0.54097289613E+03  0.00000000000E+00 0.  1.
          2   -1    0    0  501    0  0.00000000000E+00 -0.00000000000E+00 -0.12562337900E+04  0.12562337900E+04  0.00000000000E+00 0. -1.
         23    2    1    2    0    0  0.66946038546E+03  0.16747710987E+03 -0.50280029713E+03  0.85834454693E+03  0.87871681515E+02 0.  0.
    5000000    2    1    2    0    0 -0.66946038546E+03 -0.16747710987E+03 -0.21246059676E+03  0.93886213923E+03  0.60008067897E+03 0.  0.
         23    2    4    4    0    0 -0.10138278041E+03  0.18746495037E+03 -0.67070086077E+01  0.23267097642E+03  0.93108665124E+02 0.  0.
         23    2    4    4    0    0 -0.56807760505E+03 -0.35494206025E+03 -0.20575358815E+03  0.70619116281E+03  0.87609291202E+02 0.  0.
          3    1    3    3  502    0  0.15160319261E+03  0.18036633474E+02 -0.74364863723E+02  0.16982043786E+03  0.00000000000E+00 0. -1.
         -3    1    3    3    0  502  0.51785719284E+03  0.14944047640E+03 -0.42843543341E+03  0.68852410907E+03  0.00000000000E+00 0.  1.
         11    1    5    5    0    0 -0.36904342030E+02  0.10777218777E+03 -0.46047973276E+02  0.12287062611E+03  0.00000000000E+00 0. -1.
        -11    1    5    5    0    0 -0.64478438376E+02  0.79692762602E+02  0.39340964669E+02  0.10980035031E+03  0.00000000000E+00 0.  1.
          2    1    6    6  503    0 -0.17006624510E+03 -0.15106278235E+03 -0.86612604597E+02  0.24340138704E+03  0.00000000000E+00 0. -1.
         -2    1    6    6    0  503 -0.39801135994E+03 -0.20387927789E+03 -0.11914098356E+03  0.46278977578E+03  0.00000000000E+00 0.  1.
<mgrwt>
<rscale>  0 0.79137386E+03</rscale>
<asrwt>0</asrwt>
<pdfrwt beam="1">  1        2 0.19326673E+00 0.79137386E+03</pdfrwt>
<pdfrwt beam="2">  1       -2 0.83226601E-01 0.79137386E+03</pdfrwt>
<totfact> 0.22508348E+01</totfact>
</mgrwt>
</event>
<event>
12    1  0.1444206E-007  0.5003249E+03  0.7818608E-02  0.1013694E+00
         -1   -1    0    0    0  501 -0.00000000000E+00  0.00000000000E+00  0.61639924572E+03  0.61639924572E+03  0.00000000000E+00 0.  1.
          1   -1    0    0  501    0  0.00000000000E+00 -0.00000000000E+00 -0.49810367179E+03  0.49810367179E+03  0.00000000000E+00 0. -1.
         23    2    1    2    0    0  0.22374347291E+03 -0.29086142663E+03  0.15781959994E+03  0.41004923539E+03  0.92584221910E+02 0.  0.
    5000000    2    1    2    0    0 -0.22374347291E+03  0.29086142663E+03 -0.39524026019E+02  0.70445368212E+03  0.60002610814E+03 0.  0.
         23    2    4    4    0    0  0.33329405152E+02  0.36045675628E+03 -0.14988248085E+03  0.40227263329E+03  0.91206310231E+02 0.  0.
         23    2    4    4    0    0 -0.25707287807E+03 -0.69595329657E+02  0.11035845483E+03  0.30218104883E+03  0.90578270981E+02 0.  0.
          1    1    3    3  502    0  0.15291469400E+03 -0.16611276335E+03  0.13957922766E+03  0.26544060462E+03  0.00000000000E+00 0. -1.
         -1    1    3    3    0  502  0.70828778918E+02 -0.12474866327E+03  0.18240372288E+02  0.14460863077E+03  0.00000000000E+00 0.  1.
         13    1    5    5    0    0  0.61003019808E+01  0.25840998253E+03 -0.64366091967E+02  0.26637553670E+03  0.00000000000E+00 0. -1.
        -13    1    5    5    0    0  0.27229103171E+02  0.10204677375E+03 -0.85516388885E+02  0.13589709658E+03  0.00000000000E+00 0.  1.
          2    1    6    6  503    0 -0.15463444655E+03 -0.30144464016E+02  0.11045600908E+03  0.19240849958E+03  0.00000000000E+00 0. -1.
         -2    1    6    6    0  503 -0.10243843152E+03 -0.39450865641E+02 -0.97554250020E-01  0.10977254925E+03  0.00000000000E+00 0.  1.
<mgrwt>
<rscale>  0 0.50032493E+03</rscale>
<asrwt>0</asrwt>
<pdfrwt beam="1">  1        1 0.76631334E-01 0.50032493E+03</pdfrwt>
<pdfrwt beam="2">  1       -1 0.94830653E-01 0.50032493E+03</pdfrwt>
<totfact> 0.50198265E+01</totfact>
</mgrwt>
</event>
<event>
12    1  0.1745226E-007  0.7722188E+03  0.7818608E-02  0.9601123E-01
          1   -1    0    0  501    0  0.00000000000E+00  0.00000000000E+00  0.17488341553E+04  0.17488341553E+04  0.00000000000E+00 0. -1.
         -1   -1    0    0    0  501 -0.00000000000E+00 -0.00000000000E+00 -0.37373319506E+03  0.37373319506E+03  0.00000000000E+00 0.  1.
         23    2    1    2    0    0 -0.28342418052E+03  0.61123420288E+03  0.37829339986E+03  0.77833250241E+03  0.93589908933E+02 0.  0.
    5000000    2    1    2    0    0  0.28342418052E+03 -0.61123420288E+03  0.99680756039E+03  0.13442348480E+04  0.59950437626E+03 0.  0.
         23    2    4    4    0    0  0.22138421883E+03 -0.70409145515E+03  0.91264232136E+03  0.11768190485E+04  0.85037147782E+02 0.  0.
         23    2    4    4    0    0  0.62039961688E+02  0.92857252274E+02  0.84165239031E+02  0.16741579951E+03  0.92048010939E+02 0.  0.
          2    1    3    3  502    0 -0.88048067811E+02  0.15252420730E+03  0.56645446714E+02  0.18499946673E+03  0.00000000000E+00 0. -1.
         -2    1    3    3    0  502 -0.19537611271E+03  0.45870999558E+03  0.32164795314E+03  0.59333303568E+03  0.00000000000E+00 0.  1.
         11    1    5    5    0    0  0.14957720632E+03 -0.34352367641E+03  0.48493992715E+03  0.61282019373E+03  0.00000000000E+00 0.  1.
        -11    1    5    5    0    0  0.71807012510E+02 -0.36056777874E+03  0.42770239422E+03  0.56399885472E+03  0.00000000000E+00 0. -1.
          1    1    6    6  503    0 -0.82231263852E+01  0.36293079060E+02 -0.84210739081E+01  0.38153923533E+02  0.00000000000E+00 0. -1.
         -1    1    6    6    0  503  0.70263088073E+02  0.56564173214E+02  0.92586312939E+02  0.12926187597E+03  0.00000000000E+00 0.  1.
<mgrwt>
<rscale>  0 0.77221885E+03</rscale>
<asrwt>0</asrwt>
<pdfrwt beam="1">  1        1 0.26905140E+00 0.77221885E+03</pdfrwt>
<pdfrwt beam="2">  1       -1 0.57497416E-01 0.77221885E+03</pdfrwt>
<totfact> 0.14019846E+01</totfact>
</mgrwt>
</event>
<event>
12    1  0.1444206E-007  0.1201690E+04  0.7818608E-02  0.9111379E-01
          2   -1    0    0  501    0  0.00000000000E+00  0.00000000000E+00  0.16806774297E+04  0.16806774297E+04  0.00000000000E+00 0.  1.
         -2   -1    0    0    0  501 -0.00000000000E+00 -0.00000000000E+00 -0.98996481727E+03  0.98996481727E+03  0.00000000000E+00 0. -1.
         23    2    1    2    0    0  0.93724071726E+03 -0.71451040683E+03  0.69913061264E+01  0.11819519526E+04  0.89533549250E+02 0.  0.
    5000000    2    1    2    0    0 -0.93724071726E+03  0.71451040683E+03  0.68372130632E+03  0.14886902943E+04  0.59981554179E+03 0.  0.
         23    2    4    4    0    0 -0.12758372133E+03  0.24692990447E+03 -0.50204690095E+02  0.29676732207E+03  0.91095273588E+02 0.  0.
         23    2    4    4    0    0 -0.80965699593E+03  0.46758050237E+03  0.73392599641E+03  0.11919229723E+04  0.88639868900E+02 0.  0.
          2    1    3    3  502    0  0.46237168220E+03 -0.38714234568E+03 -0.31693765326E+02  0.60388017279E+03  0.00000000000E+00 0.  1.
         -2    1    3    3    0  502  0.47486903506E+03 -0.32736806115E+03  0.38685071453E+02  0.57807177986E+03  0.00000000000E+00 0. -1.
         13    1    5    5    0    0 -0.59970242871E+02  0.17825170230E+03 -0.65574813307E+02  0.19917368185E+03  0.00000000000E+00 0. -1.
        -13    1    5    5    0    0 -0.67613478462E+02  0.68678202168E+02  0.15370123212E+02  0.97593640214E+02  0.00000000000E+00 0.  1.
          2    1    6    6  503    0 -0.43647708847E+03  0.20124553342E+03  0.36911898440E+03  0.60602049316E+03  0.00000000000E+00 0.  1.
         -2    1    6    6    0  503 -0.37317990746E+03  0.26633496895E+03  0.36480701202E+03  0.58590247911E+03  0.00000000000E+00 0. -1.
<mgrwt>
<rscale>  0 0.12016895E+04</rscale>
<asrwt>0</asrwt>
<pdfrwt beam="1">  1        2 0.25856576E+00 0.12016895E+04</pdfrwt>
<pdfrwt beam="2">  1       -2 0.15230228E+00 0.12016895E+04</pdfrwt>
<totfact> 0.28108068E+00</totfact>
</mgrwt>
</event>
<event>
12    1  0.1444206E-007  0.8326796E+03  0.7818608E-02  0.9513883E-01
         -2   -1    0    0    0  501 -0.00000000000E+00  0.00000000000E+00  0.64509451096E+03  0.64509451096E+03  0.00000000000E+00 0.  1.
          2   -1    0    0  501    0  0.00000000000E+00 -0.00000000000E+00 -0.12967668506E+04  0.12967668506E+04  0.00000000000E+00 0. -1.
         23    2    1    2    0    0  0.76160012304E+03 -0.20698034972E+03 -0.50058481028E+03  0.93896543437E+03  0.90528018176E+02 0.  0.
    5000000    2    1    2    0    0 -0.76160012304E+03  0.20698034972E+03 -0.15108752935E+03  0.10028959272E+04  0.60008098342E+03 0.  0.
         23    2    4    4    0    0 -0.77079050240E+03  0.14477958302E+03  0.31779879745E+02  0.79015785771E+03  0.90886484693E+02 0.  0.
         23    2    4    4    0    0  0.91903793661E+01  0.62200766703E+02 -0.18286740910E+03  0.21273806948E+03  0.88676932976E+02 0.  0.
          3    1    3    3  502    0  0.16585285913E+03 -0.83454009002E+02 -0.12834317614E+03  0.22570714070E+03  0.00000000000E+00 0. -1.
         -3    1    3    3    0  502  0.59574726390E+03 -0.12352634072E+03 -0.37224163414E+03  0.71325829367E+03  0.00000000000E+00 0.  1.
         13    1    5    5    0    0 -0.27910560773E+03  0.90837542243E+02 -0.10630597152E+02  0.29370803350E+03  0.00000000000E+00 0. -1.
        -13    1    5    5    0    0 -0.49168489467E+03  0.53942040777E+02  0.42410476896E+02  0.49644982421E+03  0.00000000000E+00 0.  1.
          1    1    6    6  503    0  0.31956012439E+02  0.41296873925E+02 -0.37922939669E+02  0.64535012824E+02  0.00000000000E+00 0. -1.
         -1    1    6    6    0  503 -0.22765633073E+02  0.20903892778E+02 -0.14494446943E+03  0.14820305665E+03  0.00000000000E+00 0.  1.
<mgrwt>
<rscale>  0 0.83267963E+03</rscale>
<asrwt>0</asrwt>
<pdfrwt beam="1">  1        2 0.19950259E+00 0.83267963E+03</pdfrwt>
<pdfrwt beam="2">  1       -2 0.99245309E-01 0.83267963E+03</pdfrwt>
<totfact> 0.14118782E+01</totfact>
</mgrwt>
</event>
<event>
12    1  0.1444206E-007  0.1586485E+04  0.7818608E-02  0.8828894E-01
          2   -1    0    0  501    0  0.00000000000E+00  0.00000000000E+00  0.17857288549E+04  0.17857288549E+04  0.00000000000E+00 0. -1.
         -2   -1    0    0    0  501 -0.00000000000E+00 -0.00000000000E+00 -0.14754574289E+04  0.14754574289E+04  0.00000000000E+00 0.  1.
         23    2    1    2    0    0  0.12518980926E+04 -0.90655378369E+03 -0.10608878902E+03  0.15516602636E+04  0.85475992564E+02 0.  0.
    5000000    2    1    2    0    0 -0.12518980926E+04  0.90655378369E+03  0.41636021504E+03  0.17095260202E+04  0.60002898945E+03 0.  0.
         23    2    4    4    0    0 -0.89689235155E+02  0.29306644739E+03 -0.23978285434E+02  0.32051817284E+03  0.90690900623E+02 0.  0.
         23    2    4    4    0    0 -0.11622088575E+04  0.61348733630E+03  0.44033850048E+03  0.13890078474E+04  0.91371029210E+02 0.  0.
          1    1    3    3  502    0  0.97363905909E+03 -0.67412521667E+03 -0.10738524041E+03  0.11890960495E+04  0.00000000000E+00 0. -1.
         -1    1    3    3    0  502  0.27825903353E+03 -0.23242856702E+03  0.12964513877E+01  0.36256421403E+03  0.00000000000E+00 0.  1.
         13    1    5    5    0    0 -0.68212303817E+02  0.15871159617E+03 -0.54372634126E+02  0.18110403776E+03  0.00000000000E+00 0. -1.
        -13    1    5    5    0    0 -0.21476931338E+02  0.13435485123E+03  0.30394348692E+02  0.13941413508E+03  0.00000000000E+00 0.  1.
          3    1    6    6  503    0 -0.73959740076E+03  0.34022890161E+03  0.27091724821E+03  0.85799544060E+03  0.00000000000E+00 0. -1.
         -3    1    6    6    0  503 -0.42261145671E+03  0.27325843469E+03  0.16942125227E+03  0.53101240682E+03  0.00000000000E+00 0.  1.
<mgrwt>
<rscale>  0 0.15864848E+04</rscale>
<asrwt>0</asrwt>
<pdfrwt beam="1">  1        2 0.27472752E+00 0.15864848E+04</pdfrwt>
<pdfrwt beam="2">  1       -2 0.22699345E+00 0.15864848E+04</pdfrwt>
<totfact> 0.73058073E-01</totfact>
</mgrwt>
</event>
<event>
12    1  0.1444206E-007  0.1025979E+04  0.7818608E-02  0.9280502E-01
         -2   -1    0    0    0  501 -0.00000000000E+00  0.00000000000E+00  0.81332284431E+03  0.81332284431E+03  0.00000000000E+00 0.  1.
          2   -1    0    0  501    0  0.00000000000E+00 -0.00000000000E+00 -0.15406209098E+04  0.15406209098E+04  0.00000000000E+00 0. -1.
         23    2    1    2    0    0  0.20832679238E+03  0.92853630774E+03 -0.77105319067E+03  0.12281476474E+04  0.90795890816E+02 0.  0.
    5000000    2    1    2    0    0 -0.20832679238E+03 -0.92853630774E+03  0.43755125151E+02  0.11257961067E+04  0.59993552629E+03 0.  0.
         23    2    4    4    0    0 -0.38047878112E+01  0.60664000982E+02 -0.74338608953E+01  0.11045443677E+03  0.91925637817E+02 0.  0.
         23    2    4    4    0    0 -0.20452200456E+03 -0.98920030873E+03  0.51188986046E+02  0.10153416700E+04  0.89173389041E+02 0.  0.
          1    1    3    3  502    0  0.18683173953E+03  0.75734450377E+03 -0.66936697796E+03  0.10278759397E+04  0.00000000000E+00 0. -1.
         -1    1    3    3    0  502  0.21495052845E+02  0.17119180398E+03 -0.10168621271E+03  0.20027170769E+03  0.00000000000E+00 0.  1.
         13    1    5    5    0    0  0.19023496332E+02  0.59504269653E+02 -0.37365494317E+02  0.72793074432E+02  0.00000000000E+00 0. -1.
        -13    1    5    5    0    0 -0.22828284143E+02  0.11597313290E+01  0.29931633421E+02  0.37661362335E+02  0.00000000000E+00 0.  1.
          1    1    6    6  503    0 -0.28408939292E+02 -0.34613154414E+03  0.15767365142E+02  0.34765316550E+03  0.00000000000E+00 0. -1.
         -1    1    6    6    0  503 -0.17611306527E+03 -0.64306876459E+03  0.35421620905E+02  0.66768850445E+03  0.00000000000E+00 0.  1.
<mgrwt>
<rscale>  0 0.10259789E+04</rscale>
<asrwt>0</asrwt>
<pdfrwt beam="1">  1        2 0.23701860E+00 0.10259789E+04</pdfrwt>
<pdfrwt beam="2">  1       -2 0.12512659E+00 0.10259789E+04</pdfrwt>
<totfact> 0.57082927E+00</totfact>
</mgrwt>
</event>
<event>
12    1  0.1444206E-007  0.4548915E+03  0.7818608E-02  0.1026273E+00
          1   -1    0    0  501    0  0.00000000000E+00  0.00000000000E+00  0.90704411099E+03  0.90704411099E+03  0.00000000000E+00 0. -1.
         -1   -1    0    0    0  501 -0.00000000000E+00 -0.00000000000E+00 -0.27866953058E+03  0.27866953058E+03  0.00000000000E+00 0.  1.
         23    2    1    2    0    0  0.27820287566E+03  0.18565371806E+02  0.31255823432E+02  0.29583985369E+03  0.93823128667E+02 0.  0.
    5000000    2    1    2    0    0 -0.27820287566E+03 -0.18565371806E+02  0.59711875698E+03  0.88987378789E+03  0.59798247079E+03 0.  0.
         23    2    4    4    0    0 -0.29149169857E+03 -0.24134541656E+03  0.23579918667E+03  0.45536175094E+03  0.92401554941E+02 0.  0.
         23    2    4    4    0    0  0.13288822909E+02  0.22278004475E+03  0.36131957031E+03  0.43451203695E+03  0.91876750114E+02 0.  0.
          4    1    3    3  502    0  0.14631415901E+03  0.50743694351E+02  0.39534234900E+02  0.15983025800E+03  0.00000000000E+00 0. -1.
         -4    1    3    3    0  502  0.13188871666E+03 -0.32178322545E+02 -0.82784114677E+01  0.13600959569E+03  0.00000000000E+00 0.  1.
         13    1    5    5    0    0 -0.27616257696E+03 -0.24949136910E+03  0.22422912331E+03  0.43450018632E+03  0.00000000000E+00 0. -1.
        -13    1    5    5    0    0 -0.15329121610E+02  0.81459525472E+01  0.11570063366E+02  0.20861564623E+02  0.00000000000E+00 0.  1.
          3    1    6    6  503    0  0.32087372053E+02  0.90459395392E+02  0.21988409591E+03  0.23991981430E+03  0.00000000000E+00 0. -1.
         -3    1    6    6    0  503 -0.18798549144E+02  0.13232064936E+03  0.14143547440E+03  0.19459222265E+03  0.00000000000E+00 0.  1.
<mgrwt>
<rscale>  0 0.45489145E+03</rscale>
<asrwt>0</asrwt>
<pdfrwt beam="1">  1        1 0.13954525E+00 0.45489145E+03</pdfrwt>
<pdfrwt beam="2">  1       -1 0.42872236E-01 0.45489145E+03</pdfrwt>
<totfact> 0.10099671E+02</totfact>
</mgrwt>
</event>
<event>
12    1  0.1444206E-007  0.5848245E+03  0.7818608E-02  0.9937400E-01
         -2   -1    0    0    0  501 -0.00000000000E+00  0.00000000000E+00  0.36493402747E+03  0.36493402747E+03  0.00000000000E+00 0.  1.
          2   -1    0    0  501    0  0.00000000000E+00 -0.00000000000E+00 -0.15504963521E+04  0.15504963521E+04  0.00000000000E+00 0. -1.
         23    2    1    2    0    0 -0.51013996326E+03 -0.15141040413E+03 -0.74458230054E+02  0.54518379456E+03  0.92268354433E+02 0.  0.
    5000000    2    1    2    0    0  0.51013996326E+03  0.15141040413E+03 -0.11111040945E+04  0.13702465850E+04  0.59987957302E+03 0.  0.
         23    2    4    4    0    0  0.50433822710E+03  0.17896116915E+03 -0.11465034819E+04  0.12685958668E+04  0.92092844514E+02 0.  0.
         23    2    4    4    0    0  0.58017361626E+01 -0.27550765016E+02  0.35399387326E+02  0.10165071815E+03  0.91033219661E+02 0.  0.
          4    1    3    3  502    0 -0.31935657046E+03 -0.49396937396E+02 -0.32243102344E+02  0.32475882462E+03  0.00000000000E+00 0.  1.
         -4    1    3    3    0  502 -0.19078339280E+03 -0.10201346674E+03 -0.42215127709E+02  0.22042496994E+03  0.00000000000E+00 0. -1.
         11    1    5    5    0    0  0.23026725199E+03  0.92962906681E+02 -0.63712240573E+03  0.68380557854E+03  0.00000000000E+00 0. -1.
        -11    1    5    5    0    0  0.27407097511E+03  0.85998262468E+02 -0.50938107612E+03  0.58479028827E+03  0.00000000000E+00 0.  1.
          2    1    6    6  503    0 -0.39302490612E+02  0.40432659510E+01  0.87256130621E+01  0.40461958568E+02  0.00000000000E+00 0. -1.
         -2    1    6    6    0  503  0.45104226775E+02 -0.31594030967E+02  0.26673774264E+02  0.61188759582E+02  0.00000000000E+00 0.  1.
<mgrwt>
<rscale>  0 0.58482447E+03</rscale>
<asrwt>0</asrwt>
<pdfrwt beam="1">  1        2 0.23853790E+00 0.58482447E+03</pdfrwt>
<pdfrwt beam="2">  1       -2 0.56143696E-01 0.58482447E+03</pdfrwt>
<totfact> 0.37014614E+01</totfact>
</mgrwt>
</event>
<event>
12    1  0.1444206E-007  0.8467788E+03  0.7818608E-02  0.9494671E-01
         -2   -1    0    0    0  501 -0.00000000000E+00  0.00000000000E+00  0.11660930190E+04  0.11660930190E+04  0.00000000000E+00 0.  1.
          2   -1    0    0  501    0  0.00000000000E+00 -0.00000000000E+00 -0.79062348921E+03  0.79062348921E+03  0.00000000000E+00 0. -1.
         23    2    1    2    0    0  0.26413749714E+03 -0.79425645342E+03  0.38762224661E+03  0.92678997702E+03  0.89870597297E+02 0.  0.
    5000000    2    1    2    0    0 -0.26413749714E+03  0.79425645342E+03 -0.12152716793E+02  0.10299265312E+04  0.59999086656E+03 0.  0.
         23    2    4    4    0    0 -0.70146964418E+02  0.45473296371E+03  0.26764836166E+03  0.54040449557E+03  0.93266866779E+02 0.  0.
         23    2    4    4    0    0 -0.19399053272E+03  0.33952348971E+03 -0.27980107845E+03  0.48952203563E+03  0.91840367036E+02 0.  0.
          1    1    3    3  502    0  0.18323412859E+03 -0.40934593023E+03  0.20258373651E+03  0.49211686292E+03  0.00000000000E+00 0. -1.
         -1    1    3    3    0  502  0.80903368549E+02 -0.38491052319E+03  0.18503851009E+03  0.43467311410E+03  0.00000000000E+00 0.  1.
         11    1    5    5    0    0 -0.27163272001E+01  0.73144699772E+02  0.84527020859E+02  0.11181387567E+03  0.00000000000E+00 0.  1.
        -11    1    5    5    0    0 -0.67430637218E+02  0.38158826393E+03  0.18312134080E+03  0.42859061990E+03  0.00000000000E+00 0. -1.
          1    1    6    6  503    0 -0.89665438375E+02  0.15288276890E+03 -0.71819765402E+02  0.19123574605E+03  0.00000000000E+00 0. -1.
         -1    1    6    6    0  503 -0.10432509434E+03  0.18664072081E+03 -0.20798131305E+03  0.29828628958E+03  0.00000000000E+00 0.  1.
<mgrwt>
<rscale>  0 0.84677879E+03</rscale>
<asrwt>0</asrwt>
<pdfrwt beam="1">  1        2 0.12163438E+00 0.84677879E+03</pdfrwt>
<pdfrwt beam="2">  1       -2 0.17939892E+00 0.84677879E+03</pdfrwt>
<totfact> 0.64536965E+00</totfact>
</mgrwt>
</event>
<event>
12    1  0.1444206E-007  0.6800975E+03  0.7818608E-02  0.9751887E-01
         -1   -1    0    0    0  501 -0.00000000000E+00  0.00000000000E+00  0.74301533826E+03  0.74301533826E+03  0.00000000000E+00 0.  1.
          1   -1    0    0  501    0  0.00000000000E+00 -0.00000000000E+00 -0.95698519441E+03  0.95698519441E+03  0.00000000000E+00 0. -1.
         23    2    1    2    0    0  0.18252497801E+03 -0.65233834841E+03 -0.37748476290E+03  0.78048072104E+03  0.88287718781E+02 0.  0.
    5000000    2    1    2    0    0 -0.18252497801E+03  0.65233834841E+03  0.16351490676E+03  0.91951981163E+03  0.59993238857E+03 0.  0.
         23    2    4    4    0    0 -0.12481128254E+03  0.50332785688E+03 -0.15699071896E+03  0.54904770497E+03  0.88828535588E+02 0.  0.
         23    2    4    4    0    0 -0.57713695462E+02  0.14901049153E+03  0.32050562571E+03  0.37047210666E+03  0.94819451954E+02 0.  0.
          1    1    3    3  502    0  0.30058358471E+02 -0.24188015972E+03 -0.11027836241E+03  0.26752725805E+03  0.00000000000E+00 0. -1.
         -1    1    3    3    0  502  0.15246661954E+03 -0.41045818869E+03 -0.26720640049E+03  0.51295346299E+03  0.00000000000E+00 0.  1.
         11    1    5    5    0    0 -0.77494216715E+02  0.31582670587E+03 -0.14274278667E+03  0.35514414666E+03  0.00000000000E+00 0.  1.
        -11    1    5    5    0    0 -0.47317065830E+02  0.18750115102E+03 -0.14247932285E+02  0.19390355831E+03  0.00000000000E+00 0. -1.
          4    1    6    6  503    0 -0.42668054958E+02  0.99229903791E+02  0.11208126932E+03  0.15565779021E+03  0.00000000000E+00 0. -1.
         -4    1    6    6    0  503 -0.15045640504E+02  0.49780587739E+02  0.20842435640E+03  0.21481431645E+03  0.00000000000E+00 0.  1.
<mgrwt>
<rscale>  0 0.68009750E+03</rscale>
<asrwt>0</asrwt>
<pdfrwt beam="1">  1        1 0.14722849E+00 0.68009750E+03</pdfrwt>
<pdfrwt beam="2">  1       -1 0.11431005E+00 0.68009750E+03</pdfrwt>
<totfact> 0.11868399E+01</totfact>
</mgrwt>
</event>
<event>
12    1  0.1444206E-007  0.1193090E+04  0.7818608E-02  0.9118926E-01
         -2   -1    0    0    0  501 -0.00000000000E+00  0.00000000000E+00  0.12083444093E+04  0.12083444093E+04  0.00000000000E+00 0.  1.
          2   -1    0    0  501    0  0.00000000000E+00 -0.00000000000E+00 -0.12971195257E+04  0.12971195257E+04  0.00000000000E+00 0. -1.
         23    2    1    2    0    0  0.64757893310E+03  0.93584416840E+03 -0.34605239651E+03  0.11934547553E+04  0.97052613210E+02 0.  0.
    5000000    2    1    2    0    0 -0.64757893310E+03 -0.93584416840E+03  0.25727728002E+03  0.13120091797E+04  0.60001142209E+03 0.  0.
         23    2    4    4    0    0 -0.55476686354E+03 -0.36254129314E+03 -0.32243260553E+01  0.66896436164E+03  0.91106853497E+02 0.  0.
         23    2    4    4    0    0 -0.92812069563E+02 -0.57330287527E+03  0.26050160608E+03  0.64304481805E+03  0.91407243718E+02 0.  0.
          3    1    3    3  502    0  0.40405326050E+03  0.65388190569E+03 -0.25598735100E+03  0.81015437281E+03  0.00000000000E+00 0. -1.
         -3    1    3    3    0  502  0.24352567260E+03  0.28196226272E+03 -0.90065045518E+02  0.38330038251E+03  0.00000000000E+00 0.  1.
         13    1    5    5    0    0 -0.28845334446E+03 -0.18649788827E+03  0.43822931457E+02  0.34627625327E+03  0.00000000000E+00 0. -1.
        -13    1    5    5    0    0 -0.26631351908E+03 -0.17604340486E+03 -0.47047257512E+02  0.32268810837E+03  0.00000000000E+00 0.  1.
          1    1    6    6  503    0 -0.97146655993E+02 -0.54336467414E+03  0.26528190430E+03  0.61241908087E+03  0.00000000000E+00 0. -1.
         -1    1    6    6    0  503  0.43345864308E+01 -0.29938201130E+02 -0.47802982197E+01  0.30625737175E+02  0.00000000000E+00 0.  1.
<mgrwt>
<rscale>  0 0.11930902E+04</rscale>
<asrwt>0</asrwt>
<pdfrwt beam="1">  1        2 0.19955685E+00 0.11930902E+04</pdfrwt>
<pdfrwt beam="2">  1       -2 0.18589914E+00 0.11930902E+04</pdfrwt>
<totfact> 0.26633895E+00</totfact>
</mgrwt>
</event>
<event>
12    1  0.1444206E-007  0.6591054E+03  0.7818608E-02  0.9789842E-01
          1   -1    0    0  501    0  0.00000000000E+00  0.00000000000E+00  0.13535384736E+04  0.13535384736E+04  0.00000000000E+00 0. -1.
         -1   -1    0    0    0  501 -0.00000000000E+00 -0.00000000000E+00 -0.36204846156E+03  0.36204846156E+03  0.00000000000E+00 0.  1.
         23    2    1    2    0    0  0.85840540372E+02  0.56011778043E+03  0.36703971469E+03  0.68058820679E+03  0.85916405520E+02 0.  0.
    5000000    2    1    2    0    0 -0.85840540372E+02 -0.56011778043E+03  0.62445029732E+03  0.10349987283E+04  0.60015303676E+03 0.  0.
         23    2    4    4    0    0  0.49542277539E+01  0.86160450046E+02  0.24432104230E+03  0.27431440775E+03  0.90041407500E+02 0.  0.
         23    2    4    4    0    0 -0.90794768126E+02 -0.64627823047E+03  0.38012925502E+03  0.76068432059E+03  0.90681552571E+02 0.  0.
          1    1    3    3  502    0 -0.15423162146E+01  0.27240326414E+03  0.17073727075E+03  0.32149204138E+03  0.00000000000E+00 0. -1.
         -1    1    3    3    0  502  0.87382856586E+02  0.28771451629E+03  0.19630244394E+03  0.35909616540E+03  0.00000000000E+00 0.  1.
         13    1    5    5    0    0  0.26988204938E+01  0.64685428628E+02  0.58542661678E+02  0.87285345535E+02  0.00000000000E+00 0. -1.
        -13    1    5    5    0    0  0.22554072600E+01  0.21475021418E+02  0.18577838062E+03  0.18702906222E+03  0.00000000000E+00 0.  1.
          4    1    6    6  503    0 -0.74416840592E+02 -0.22118319432E+03  0.14156322794E+03  0.27294691630E+03  0.00000000000E+00 0. -1.
         -4    1    6    6    0  503 -0.16377927533E+02 -0.42509503615E+03  0.23856602708E+03  0.48773740429E+03  0.00000000000E+00 0.  1.
<mgrwt>
<rscale>  0 0.65910541E+03</rscale>
<asrwt>0</asrwt>
<pdfrwt beam="1">  1        1 0.20823669E+00 0.65910541E+03</pdfrwt>
<pdfrwt beam="2">  1       -1 0.55699764E-01 0.65910541E+03</pdfrwt>
<totfact> 0.28171505E+01</totfact>
</mgrwt>
</event>
<event>
12    1  0.1913858E-007  0.2462165E+04  0.7818608E-02  0.8416590E-01
          1   -1    0    0  501    0  0.00000000000E+00  0.00000000000E+00  0.36032392107E+04  0.36032392107E+04  0.00000000000E+00 0. -1.
         -1   -1    0    0    0  501 -0.00000000000E+00 -0.00000000000E+00 -0.17153242138E+04  0.17153242138E+04  0.00000000000E+00 0.  1.
         23    2    1    2    0    0  0.11374474814E+04 -0.21595839884E+04  0.11448907766E+04  0.26975533168E+04  0.91810842972E+02 0.  0.
    5000000    2    1    2    0    0 -0.11374474814E+04  0.21595839884E+04  0.74302422030E+03  0.26210101076E+04  0.60001601350E+03 0.  0.
         23    2    4    4    0    0 -0.84728521367E+03  0.11358265364E+04  0.60726664742E+03  0.15443669767E+04  0.91117635161E+02 0.  0.
         23    2    4    4    0    0 -0.29016226777E+03  0.10237574520E+04  0.13575757288E+03  0.10766431310E+04  0.91961137184E+02 0.  0.
          2    1    3    3  502    0  0.62572641032E+03 -0.12850594241E+04  0.66883147280E+03  0.15780515844E+04  0.00000000000E+00 0. -1.
         -2    1    3    3    0  502  0.51172107113E+03 -0.87452456423E+03  0.47605930383E+03  0.11195017324E+04  0.00000000000E+00 0.  1.
         13    1    5    5    0    0 -0.63881870640E+03  0.83740153311E+03  0.40920462844E+03  0.11299465011E+04  0.00000000000E+00 0.  1.
        -13    1    5    5    0    0 -0.20846650727E+03  0.29842500329E+03  0.19806201898E+03  0.41442047561E+03  0.00000000000E+00 0. -1.
          1    1    6    6  503    0 -0.14697835543E+03  0.46332404171E+03  0.18420593601E+02  0.48642689364E+03  0.00000000000E+00 0. -1.
         -1    1    6    6    0  503 -0.14318391235E+03  0.56043341026E+03  0.11733697927E+03  0.59021623732E+03  0.00000000000E+00 0.  1.
<mgrwt>
<rscale>  0 0.24621653E+04</rscale>
<asrwt>0</asrwt>
<pdfrwt beam="1">  1        1 0.55434449E+00 0.24621653E+04</pdfrwt>
<pdfrwt beam="2">  1       -1 0.26389603E+00 0.24621653E+04</pdfrwt>
<totfact> 0.99013505E-03</totfact>
</mgrwt>
</event>
<event>
12    1  0.1444206E-007  0.1470190E+04  0.7818608E-02  0.8904522E-01
         -2   -1    0    0    0  501 -0.00000000000E+00  0.00000000000E+00  0.12000170969E+04  0.12000170969E+04  0.00000000000E+00 0.  1.
          2   -1    0    0  501    0  0.00000000000E+00 -0.00000000000E+00 -0.19337929408E+04  0.19337929408E+04  0.00000000000E+00 0. -1.
         23    2    1    2    0    0  0.13368335027E+04 -0.59277996460E+03 -0.32116151907E+03  0.15001576129E+04  0.93894845641E+02 0.  0.
    5000000    2    1    2    0    0 -0.13368335027E+04  0.59277996460E+03 -0.41261432485E+03  0.16336524248E+04  0.60004813443E+03 0.  0.
         23    2    4    4    0    0 -0.40593293772E+03  0.25331590498E+03  0.12390444862E+03  0.50323374580E+03  0.94558938649E+02 0.  0.
         23    2    4    4    0    0 -0.93090056494E+03  0.33946405962E+03 -0.53651877347E+03  0.11304186790E+04  0.90455988851E+02 0.  0.
          3    1    3    3  502    0  0.86497666905E+03 -0.42104004441E+03 -0.18176356378E+03  0.97902877900E+03  0.00000000000E+00 0. -1.
         -3    1    3    3    0  502  0.47185683362E+03 -0.17173992019E+03 -0.13939795530E+03  0.52112883393E+03  0.00000000000E+00 0.  1.
         13    1    5    5    0    0 -0.22822391725E+03  0.18873892986E+03  0.50626797898E+02  0.30045234683E+03  0.00000000000E+00 0.  1.
        -13    1    5    5    0    0 -0.17770902047E+03  0.64576975124E+02  0.73277650721E+02  0.20278139897E+03  0.00000000000E+00 0. -1.
          1    1    6    6  503    0 -0.43064700234E+03  0.16571605406E+03 -0.30038292006E+03  0.55058927510E+03  0.00000000000E+00 0. -1.
         -1    1    6    6    0  503 -0.50025356260E+03  0.17374800556E+03 -0.23613585341E+03  0.57982940388E+03  0.00000000000E+00 0.  1.
<mgrwt>
<rscale>  0 0.14701902E+04</rscale>
<asrwt>0</asrwt>
<pdfrwt beam="1">  1        2 0.29750660E+00 0.14701902E+04</pdfrwt>
<pdfrwt beam="2">  1       -2 0.18461802E+00 0.14701902E+04</pdfrwt>
<totfact> 0.11565643E+00</totfact>
</mgrwt>
</event>
<event>
12    1  0.1444206E-007  0.4819265E+03  0.7818608E-02  0.1018607E+00
          1   -1    0    0  501    0  0.00000000000E+00  0.00000000000E+00  0.53878348766E+03  0.53878348766E+03  0.00000000000E+00 0. -1.
         -1   -1    0    0    0  501 -0.00000000000E+00 -0.00000000000E+00 -0.83621534450E+03  0.83621534450E+03  0.00000000000E+00 0.  1.
         23    2    1    2    0    0  0.21173029002E+03  0.20995274858E+03 -0.57171590161E+03  0.65102832768E+03  0.89827272810E+02 0.  0.
    5000000    2    1    2    0    0 -0.21173029002E+03 -0.20995274858E+03  0.27428404478E+03  0.72397050447E+03  0.59999306810E+03 0.  0.
         23    2    4    4    0    0 -0.72697878299E+02 -0.40024813777E+03  0.17577334974E+03  0.45146406239E+03  0.86255294603E+02 0.  0.
         23    2    4    4    0    0 -0.13903241172E+03  0.19029538919E+03  0.98510695033E+02  0.27250644208E+03  0.94937122783E+02 0.  0.
          3    1    3    3  502    0  0.15937291070E+03  0.20257240661E+03 -0.49088100117E+03  0.55443616575E+03  0.00000000000E+00 0. -1.
         -3    1    3    3    0  502  0.52357379320E+02  0.73803419709E+01 -0.80834900442E+02  0.96592161931E+02  0.00000000000E+00 0.  1.
         13    1    5    5    0    0  0.69871740115E+01 -0.14677820048E+03  0.89749847334E+02  0.17218506275E+03  0.00000000000E+00 0.  1.
        -13    1    5    5    0    0 -0.79685052311E+02 -0.25346993729E+03  0.86023502409E+02  0.27927899964E+03  0.00000000000E+00 0. -1.
          4    1    6    6  503    0 -0.41220623660E+02  0.97072344721E+02  0.29608492118E+00  0.10546216189E+03  0.00000000000E+00 0.  1.
         -4    1    6    6    0  503 -0.97811788064E+02  0.93223044473E+02  0.98214610112E+02  0.16704428019E+03  0.00000000000E+00 0. -1.
<mgrwt>
<rscale>  0 0.48192652E+03</rscale>
<asrwt>0</asrwt>
<pdfrwt beam="1">  1        1 0.82889767E-01 0.48192652E+03</pdfrwt>
<pdfrwt beam="2">  1       -1 0.12864852E+00 0.48192652E+03</pdfrwt>
<totfact> 0.22101661E+01</totfact>
</mgrwt>
</event>
<event>
12    1  0.1444206E-007  0.8032825E+03  0.7818608E-02  0.9555278E-01
          3   -1    0    0  501    0  0.00000000000E+00  0.00000000000E+00  0.48469354629E+03  0.48469354629E+03  0.00000000000E+00 0. -1.
         -3   -1    0    0    0  501 -0.00000000000E+00 -0.00000000000E+00 -0.28342661518E+04  0.28342661518E+04  0.00000000000E+00 0.  1.
         23    2    1    2    0    0 -0.50154214067E+03  0.52943248573E+03 -0.22527905726E+04  0.23696284530E+04  0.90721362759E+02 0.  0.
    5000000    2    1    2    0    0  0.50154214067E+03 -0.52943248573E+03 -0.96782032904E+02  0.94933124504E+03  0.60001647902E+03 0.  0.
         23    2    4    4    0    0  0.19705539823E+03  0.58507485269E+02  0.10942426172E+03  0.24987510831E+03  0.90608746236E+02 0.  0.
         23    2    4    4    0    0  0.30448674244E+03 -0.58793997100E+03 -0.20620629462E+03  0.69945613673E+03  0.91281243671E+02 0.  0.
          4    1    3    3  502    0 -0.36109094081E+03  0.33185843131E+03 -0.15889824832E+04  0.16629437808E+04  0.00000000000E+00 0. -1.
         -4    1    3    3    0  502 -0.14045119986E+03  0.19757405441E+03 -0.66380808934E+03  0.70668467225E+03  0.00000000000E+00 0.  1.
         13    1    5    5    0    0  0.65411004182E+02  0.22563185759E+02  0.87674544559E+02  0.11168940229E+03  0.00000000000E+00 0. -1.
        -13    1    5    5    0    0  0.13164439405E+03  0.35944299511E+02  0.21749717160E+02  0.13818570602E+03  0.00000000000E+00 0.  1.
          3    1    6    6  503    0  0.17792988032E+03 -0.24708559974E+03 -0.83641596480E+02  0.31576296897E+03  0.00000000000E+00 0. -1.
         -3    1    6    6    0  503  0.12655686212E+03 -0.34085437125E+03 -0.12256469814E+03  0.38369316776E+03  0.00000000000E+00 0.  1.
<mgrwt>
<rscale>  0 0.80328249E+03</rscale>
<asrwt>0</asrwt>
<pdfrwt beam="1">  1        3 0.74568238E-01 0.80328249E+03</pdfrwt>
<pdfrwt beam="2">  1       -3 0.43604094E+00 0.80328249E+03</pdfrwt>
<totfact> 0.30535056E-02</totfact>
</mgrwt>
</event>
<event>
12    1  0.1444206E-007  0.1110428E+04  0.7818608E-02  0.9195087E-01
         -2   -1    0    0    0  501 -0.00000000000E+00  0.00000000000E+00  0.51605315792E+03  0.51605315792E+03  0.00000000000E+00 0.  1.
          2   -1    0    0  501    0  0.00000000000E+00 -0.00000000000E+00 -0.29594896904E+04  0.29594896904E+04  0.00000000000E+00 0. -1.
         23    2    1    2    0    0 -0.10837264158E+04  0.18846946399E+03 -0.16740565752E+04  0.20051589777E+04  0.90627952218E+02 0.  0.
    5000000    2    1    2    0    0  0.10837264158E+04 -0.18846946399E+03 -0.76937995730E+03  0.14703838706E+04  0.60008293189E+03 0.  0.
         23    2    4    4    0    0  0.17045437789E+03  0.36488588593E+02  0.67291002150E+02  0.20816897201E+03  0.91761265778E+02 0.  0.
         23    2    4    4    0    0  0.91327203792E+03 -0.22495805259E+03 -0.83667095945E+03  0.12622148986E+04  0.92174916617E+02 0.  0.
          1    1    3    3  502    0 -0.34383357271E+03  0.30223212966E+02 -0.47048079064E+03  0.58351276137E+03  0.00000000000E+00 0. -1.
         -1    1    3    3    0  502 -0.73989284311E+03  0.15824625103E+03 -0.12035757846E+04  0.14216462163E+04  0.00000000000E+00 0.  1.
         13    1    5    5    0    0  0.12031345008E+03  0.23908878965E+02  0.89560204889E+02  0.15188150336E+03  0.00000000000E+00 0.  1.
        -13    1    5    5    0    0  0.50140927813E+02  0.12579709629E+02 -0.22269202739E+02  0.56287468649E+02  0.00000000000E+00 0. -1.
          3    1    6    6  503    0  0.29340548883E+03 -0.30143895835E+02 -0.24504993855E+03  0.38346434999E+03  0.00000000000E+00 0. -1.
         -3    1    6    6    0  503  0.61986654910E+03 -0.19481415675E+03 -0.59162102090E+03  0.87875054864E+03  0.00000000000E+00 0.  1.
<mgrwt>
<rscale>  0 0.11104278E+04</rscale>
<asrwt>0</asrwt>
<pdfrwt beam="1">  1        2 0.45530612E+00 0.11104278E+04</pdfrwt>
<pdfrwt beam="2">  1       -2 0.79392792E-01 0.11104278E+04</pdfrwt>
<totfact> 0.26068895E+00</totfact>
</mgrwt>
</event>
<event>
12    1  0.1444206E-007  0.5982444E+03  0.7818608E-02  0.9909055E-01
         -2   -1    0    0    0  501 -0.00000000000E+00  0.00000000000E+00  0.34452914845E+03  0.34452914845E+03  0.00000000000E+00 0.  1.
          2   -1    0    0  501    0  0.00000000000E+00 -0.00000000000E+00 -0.16032085029E+04  0.16032085029E+04  0.00000000000E+00 0. -1.
         23    2    1    2    0    0 -0.45506389276E+03  0.27859413435E+03 -0.11906779610E+03  0.55371158069E+03  0.87872272831E+02 0.  0.
    5000000    2    1    2    0    0  0.45506389276E+03 -0.27859413435E+03 -0.11396115583E+04  0.13940260707E+04  0.59991361343E+03 0.  0.
         23    2    4    4    0    0  0.26791608351E+03  0.43969196139E+02 -0.13155177688E+03  0.31524612174E+03  0.91443585125E+02 0.  0.
         23    2    4    4    0    0  0.18714780925E+03 -0.32256333049E+03 -0.10080597815E+04  0.10787799489E+04  0.92251018975E+02 0.  0.
          3    1    3    3  502    0 -0.42936308336E+03  0.27399454733E+03 -0.12958397570E+03  0.52556415030E+03  0.00000000000E+00 0. -1.
         -3    1    3    3    0  502 -0.25700809391E+02  0.45995870197E+01  0.10516179593E+02  0.28147430386E+02  0.00000000000E+00 0.  1.
         11    1    5    5    0    0  0.25908041588E+03  0.61994806033E+02 -0.12145212134E+03  0.29277403513E+03  0.00000000000E+00 0.  1.
        -11    1    5    5    0    0  0.88356676221E+01 -0.18025609895E+02 -0.10099655540E+02  0.22472086606E+02  0.00000000000E+00 0. -1.
          3    1    6    6  503    0  0.44549596589E+02 -0.50052985280E+02 -0.10290635839E+03  0.12279937496E+03  0.00000000000E+00 0. -1.
         -3    1    6    6    0  503  0.14259821266E+03 -0.27251034521E+03 -0.90515342306E+03  0.95598057396E+03  0.00000000000E+00 0.  1.
<mgrwt>
<rscale>  0 0.59824441E+03</rscale>
<asrwt>0</asrwt>
<pdfrwt beam="1">  1        2 0.24664746E+00 0.59824441E+03</pdfrwt>
<pdfrwt beam="2">  1       -2 0.53004485E-01 0.59824441E+03</pdfrwt>
<totfact> 0.38926060E+01</totfact>
</mgrwt>
</event>
<event>
12    1  0.1444206E-007  0.9115921E+03  0.7818608E-02  0.9411206E-01
          2   -1    0    0  501    0  0.00000000000E+00  0.00000000000E+00  0.82557117524E+03  0.82557117524E+03  0.00000000000E+00 0. -1.
         -2   -1    0    0    0  501 -0.00000000000E+00 -0.00000000000E+00 -0.11458345564E+04  0.11458345564E+04  0.00000000000E+00 0.  1.
         23    2    1    2    0    0 -0.11679669286E+03 -0.84945226572E+03  0.43869395833E+02  0.86332950170E+03  0.90568677953E+02 0.  0.
    5000000    2    1    2    0    0  0.11679669286E+03  0.84945226572E+03 -0.36413277699E+03  0.11080762299E+04  0.60002469357E+03 0.  0.
         23    2    4    4    0    0 -0.14814204300E+03  0.21415491165E+03  0.75997825239E+02  0.28553341244E+03  0.89136238929E+02 0.  0.
         23    2    4    4    0    0  0.26493873586E+03  0.63529735406E+03 -0.44013060223E+03  0.82254281750E+03  0.95218053784E+02 0.  0.
          4    1    3    3  502    0 -0.41256625886E+01 -0.21496963551E+03 -0.19074768709E+02  0.21585368212E+03  0.00000000000E+00 0. -1.
         -4    1    3    3    0  502 -0.11267103027E+03 -0.63448263021E+03  0.62944164542E+02  0.64747581958E+03  0.00000000000E+00 0.  1.
         11    1    5    5    0    0 -0.12557742197E+03  0.11821165529E+03  0.24086375445E+02  0.17413741079E+03  0.00000000000E+00 0. -1.
        -11    1    5    5    0    0 -0.22564621028E+02  0.95943256361E+02  0.51911449793E+02  0.11139600165E+03  0.00000000000E+00 0.  1.
          1    1    6    6  503    0  0.17511881748E+03  0.50486736530E+03 -0.31164873076E+03  0.61861344002E+03  0.00000000000E+00 0. -1.
         -1    1    6    6    0  503  0.89819918378E+02  0.13042998876E+03 -0.12848187147E+03  0.20392937749E+03  0.00000000000E+00 0.  1.
<mgrwt>
<rscale>  0 0.91159208E+03</rscale>
<asrwt>0</asrwt>
<pdfrwt beam="1">  1        2 0.12701095E+00 0.91159208E+03</pdfrwt>
<pdfrwt beam="2">  1       -2 0.17628224E+00 0.91159208E+03</pdfrwt>
<totfact> 0.63578947E+00</totfact>
</mgrwt>
</event>
<event>
12    1  0.1444206E-007  0.8957491E+03  0.7818608E-02  0.9430911E-01
          1   -1    0    0  501    0  0.00000000000E+00  0.00000000000E+00  0.10763198635E+04  0.10763198635E+04  0.00000000000E+00 0. -1.
         -1   -1    0    0    0  501 -0.00000000000E+00 -0.00000000000E+00 -0.85044968422E+03  0.85044968422E+03  0.00000000000E+00 0.  1.
         23    2    1    2    0    0  0.78145437939E+03 -0.18031322186E+03 -0.21018497198E+03  0.83426430654E+03  0.92926883556E+02 0.  0.
    5000000    2    1    2    0    0 -0.78145437939E+03  0.18031322186E+03  0.43605515128E+03  0.10925052412E+04  0.60019980176E+03 0.  0.
         23    2    4    4    0    0 -0.31894425430E+03  0.35877050141E+03  0.29377968220E+03  0.56927857690E+03  0.85614755809E+02 0.  0.
         23    2    4    4    0    0 -0.46251012509E+03 -0.17845727955E+03  0.14227546908E+03  0.52322666429E+03  0.88097767792E+02 0.  0.
          2    1    3    3  502    0  0.47587926663E+03 -0.99489533750E+02 -0.17286270702E+03  0.51598523158E+03  0.00000000000E+00 0. -1.
         -2    1    3    3    0  502  0.30557511276E+03 -0.80823688109E+02 -0.37322264958E+02  0.31827907496E+03  0.00000000000E+00 0.  1.
         11    1    5    5    0    0 -0.17443287727E+03  0.13318374685E+03  0.12325614716E+03  0.25170780065E+03  0.00000000000E+00 0. -1.
        -11    1    5    5    0    0 -0.14451137703E+03  0.22558675456E+03  0.17052353503E+03  0.31757077624E+03  0.00000000000E+00 0.  1.
          3    1    6    6  503    0 -0.11693544484E+03 -0.98072520440E+01  0.15663065704E+02  0.11838670567E+03  0.00000000000E+00 0. -1.
         -3    1    6    6    0  503 -0.34557468025E+03 -0.16865002750E+03  0.12661240338E+03  0.40483995862E+03  0.00000000000E+00 0.  1.
<mgrwt>
<rscale>  0 0.89574914E+03</rscale>
<asrwt>0</asrwt>
<pdfrwt beam="1">  1        1 0.16558767E+00 0.89574914E+03</pdfrwt>
<pdfrwt beam="2">  1       -1 0.13083841E+00 0.89574914E+03</pdfrwt>
<totfact> 0.66917101E+00</totfact>
</mgrwt>
</event>
<event>
12    1  0.1444206E-007  0.8532248E+03  0.7818608E-02  0.9486019E-01
          2   -1    0    0  501    0  0.00000000000E+00  0.00000000000E+00  0.26661224986E+04  0.26661224986E+04  0.00000000000E+00 0. -1.
         -2   -1    0    0    0  501 -0.00000000000E+00 -0.00000000000E+00 -0.33588879301E+03  0.33588879301E+03  0.00000000000E+00 0.  1.
         23    2    1    2    0    0 -0.52246705789E+03 -0.63216685299E+03  0.13969461938E+04  0.16222401001E+04  0.87163739177E+02 0.  0.
    5000000    2    1    2    0    0  0.52246705789E+03  0.63216685299E+03  0.93328751178E+03  0.13797711915E+04  0.60011349312E+03 0.  0.
         23    2    4    4    0    0  0.40991695595E+03  0.24523752617E+03  0.17648758039E+03  0.51729554457E+03  0.90958558605E+02 0.  0.
         23    2    4    4    0    0  0.11255010194E+03  0.38692932682E+03  0.75679993139E+03  0.86247564692E+03  0.93468047906E+02 0.  0.
          2    1    3    3  502    0 -0.45239875203E+03 -0.49456469958E+03  0.11275258998E+04  0.13117063420E+04  0.00000000000E+00 0.  1.
         -2    1    3    3    0  502 -0.70068305858E+02 -0.13760215341E+03  0.26942029397E+03  0.31053375809E+03  0.00000000000E+00 0. -1.
         13    1    5    5    0    0  0.13631063987E+03  0.64497843482E+02  0.14332521446E+02  0.15147931716E+03  0.00000000000E+00 0. -1.
        -13    1    5    5    0    0  0.27360631608E+03  0.18073968269E+03  0.16215505894E+03  0.36581622741E+03  0.00000000000E+00 0.  1.
          1    1    6    6  503    0  0.91382544976E+02  0.30174512161E+03  0.66222163387E+03  0.73344282688E+03  0.00000000000E+00 0. -1.
         -1    1    6    6    0  503  0.21167556963E+02  0.85184205209E+02  0.94578297522E+02  0.12903282004E+03  0.00000000000E+00 0.  1.
<mgrwt>
<rscale>  0 0.85322480E+03</rscale>
<asrwt>0</asrwt>
<pdfrwt beam="1">  1        2 0.41017268E+00 0.85322480E+03</pdfrwt>
<pdfrwt beam="2">  1       -2 0.51675201E-01 0.85322480E+03</pdfrwt>
<totfact> 0.10192681E+01</totfact>
</mgrwt>
</event>
<event>
12    1  0.1444206E-007  0.5629903E+03  0.7818608E-02  0.9985311E-01
         -2   -1    0    0    0  501 -0.00000000000E+00  0.00000000000E+00  0.22548223507E+03  0.22548223507E+03  0.00000000000E+00 0.  1.
          2   -1    0    0  501    0  0.00000000000E+00 -0.00000000000E+00 -0.27568609355E+04  0.27568609355E+04  0.00000000000E+00 0. -1.
         23    2    1    2    0    0 -0.48981605965E+03 -0.16396190275E+03 -0.27727435264E+03  0.59324209735E+03  0.90839647705E+02 0.  0.
    5000000    2    1    2    0    0  0.48981605965E+03  0.16396190275E+03 -0.22541043477E+04  0.23891010732E+04  0.60001187447E+03 0.  0.
         23    2    4    4    0    0  0.78875107530E+02  0.15550427375E+03 -0.16149047500E+03  0.25458370484E+03  0.91273366918E+02 0.  0.
         23    2    4    4    0    0  0.41094095212E+03  0.84576289944E+01 -0.20926138727E+04  0.21345173683E+04  0.90485234960E+02 0.  0.
          1    1    3    3  502    0 -0.24678560310E+03 -0.97473934907E+02 -0.93302542301E+02  0.28126440636E+03  0.00000000000E+00 0. -1.
         -1    1    3    3    0  502 -0.24303045655E+03 -0.66487967840E+02 -0.18397181034E+03  0.31197769099E+03  0.00000000000E+00 0.  1.
         13    1    5    5    0    0  0.97266557120E+02  0.14424560972E+03 -0.13374160349E+03  0.21944109816E+03  0.00000000000E+00 0.  1.
        -13    1    5    5    0    0 -0.18391449590E+02  0.11258664032E+02 -0.27748871514E+02  0.35142606677E+02  0.00000000000E+00 0. -1.
          4    1    6    6  503    0  0.42877624726E+02  0.13787202383E+02 -0.38838809021E+03  0.39099090305E+03  0.00000000000E+00 0. -1.
         -4    1    6    6    0  503  0.36806332739E+03 -0.53295733885E+01 -0.17042257825E+04  0.17435264653E+04  0.00000000000E+00 0.  1.
<mgrwt>
<rscale>  0 0.56299034E+03</rscale>
<asrwt>0</asrwt>
<pdfrwt beam="1">  1        2 0.42413244E+00 0.56299034E+03</pdfrwt>
<pdfrwt beam="2">  1       -2 0.34689576E-01 0.56299034E+03</pdfrwt>
<totfact> 0.20838972E+01</totfact>
</mgrwt>
</event>
<event>
12    1  0.1444206E-007  0.5288379E+03  0.7818608E-02  0.1006514E+00
         -2   -1    0    0    0  501 -0.00000000000E+00  0.00000000000E+00  0.79923613981E+02  0.79923613981E+02  0.00000000000E+00 0.  1.
          2   -1    0    0  501    0  0.00000000000E+00 -0.00000000000E+00 -0.42704599522E+04  0.42704599522E+04  0.00000000000E+00 0. -1.
         23    2    1    2    0    0 -0.41279991289E+03  0.79771293692E+02 -0.13373719807E+04  0.14045932231E+04  0.86896952188E+02 0.  0.
    5000000    2    1    2    0    0  0.41279991289E+03 -0.79771293692E+02 -0.28531643575E+04  0.29457903430E+04  0.60030547796E+03 0.  0.
         23    2    4    4    0    0  0.51661627927E+01  0.15472850332E+03 -0.14915862139E+04  0.15022785442E+04  0.89687188624E+02 0.  0.
         23    2    4    4    0    0  0.40763375009E+03 -0.23449979701E+03 -0.13615781436E+04  0.14435117988E+04  0.93144207183E+02 0.  0.
          3    1    3    3  502    0 -0.24480584332E+03  0.56085881516E+02 -0.65641471689E+03  0.70281989697E+03  0.00000000000E+00 0. -1.
         -3    1    3    3    0  502 -0.16799406956E+03  0.23685412176E+02 -0.68095726380E+03  0.70177332614E+03  0.00000000000E+00 0.  1.
         11    1    5    5    0    0 -0.26964557110E+02  0.52401180042E+02 -0.29076045861E+03  0.29667257254E+03  0.00000000000E+00 0.  1.
        -11    1    5    5    0    0  0.32130719903E+02  0.10232732328E+03 -0.12008257553E+04  0.12056059717E+04  0.00000000000E+00 0. -1.
          2    1    6    6  503    0  0.48002240805E+02 -0.20466258709E+02 -0.25845427916E+03  0.26366967456E+03  0.00000000000E+00 0. -1.
         -2    1    6    6    0  503  0.35963150929E+03 -0.21403353830E+03 -0.11031238644E+04  0.11798421243E+04  0.00000000000E+00 0.  1.
<mgrwt>
<rscale>  0 0.52883791E+03</rscale>
<asrwt>0</asrwt>
<pdfrwt beam="1">  1        2 0.65699381E+00 0.52883791E+03</pdfrwt>
<pdfrwt beam="2">  1       -2 0.12295941E-01 0.52883791E+03</pdfrwt>
<totfact> 0.11619749E+01</totfact>
</mgrwt>
</event>
<event>
12    1  0.1444206E-007  0.9218644E+03  0.7818608E-02  0.9398655E-01
          2   -1    0    0  501    0  0.00000000000E+00  0.00000000000E+00  0.11987719903E+04  0.11987719903E+04  0.00000000000E+00 0. -1.
         -2   -1    0    0    0  501 -0.00000000000E+00 -0.00000000000E+00 -0.80885131909E+03  0.80885131909E+03  0.00000000000E+00 0.  1.
         23    2    1    2    0    0  0.13658178739E+03 -0.83781812867E+03  0.45273036480E+03  0.96616514334E+03  0.88974713354E+02 0.  0.
    5000000    2    1    2    0    0 -0.13658178739E+03  0.83781812867E+03 -0.62809693555E+02  0.10414581661E+04  0.60008020524E+03 0.  0.
         23    2    4    4    0    0 -0.30254914573E+03  0.32880583976E+03  0.11482309705E+03  0.46989237667E+03  0.89248171938E+02 0.  0.
         23    2    4    4    0    0  0.16596735834E+03  0.50901228890E+03 -0.17763279060E+03  0.57156578941E+03  0.92170326227E+02 0.  0.
          1    1    3    3  502    0  0.36018765288E+02 -0.31673933953E+03  0.12487804886E+03  0.34236776681E+03  0.00000000000E+00 0. -1.
         -1    1    3    3    0  502  0.10056302211E+03 -0.52107878914E+03  0.32785231594E+03  0.62379737653E+03  0.00000000000E+00 0.  1.
         13    1    5    5    0    0 -0.21252165103E+03  0.16823058776E+03  0.79251617077E+02  0.28239653260E+03  0.00000000000E+00 0. -1.
        -13    1    5    5    0    0 -0.90027494703E+02  0.16057525200E+03  0.35571479969E+02  0.18749584407E+03  0.00000000000E+00 0.  1.
          1    1    6    6  503    0  0.38433513277E+02  0.21832527847E+03 -0.10797348695E+03  0.24657926929E+03  0.00000000000E+00 0. -1.
         -1    1    6    6    0  503  0.12753384506E+03  0.29068701044E+03 -0.69659303655E+02  0.32498652012E+03  0.00000000000E+00 0.  1.
<mgrwt>
<rscale>  0 0.92186437E+03</rscale>
<asrwt>0</asrwt>
<pdfrwt beam="1">  1        2 0.18442646E+00 0.92186437E+03</pdfrwt>
<pdfrwt beam="2">  1       -2 0.12443866E+00 0.92186437E+03</pdfrwt>
<totfact> 0.92015010E+00</totfact>
</mgrwt>
</event>
<event>
12    1  0.1444206E-007  0.1217811E+04  0.7818608E-02  0.9097408E-01
         -1   -1    0    0    0  501 -0.00000000000E+00  0.00000000000E+00  0.99191286525E+03  0.99191286525E+03  0.00000000000E+00 0.  1.
          1   -1    0    0  501    0  0.00000000000E+00 -0.00000000000E+00 -0.16419939907E+04  0.16419939907E+04  0.00000000000E+00 0. -1.
         23    2    1    2    0    0  0.42244674296E+01 -0.11820477307E+04 -0.54264061303E+03  0.13039327949E+04  0.92342919765E+02 0.  0.
    5000000    2    1    2    0    0 -0.42244674296E+01  0.11820477307E+04 -0.10744051244E+03  0.13299740611E+04  0.60002737920E+03 0.  0.
         23    2    4    4    0    0 -0.11281867316E+03  0.10739283807E+04  0.59904502858E+02  0.10852786944E+04  0.90504558758E+02 0.  0.
         23    2    4    4    0    0  0.10859420573E+03  0.10811935001E+03 -0.16734501529E+03  0.24469536675E+03  0.91591336926E+02 0.  0.
          1    1    3    3  502    0  0.55969541416E+01 -0.10555968582E+04 -0.51477811912E+03  0.11744413842E+04  0.00000000000E+00 0. -1.
         -1    1    3    3    0  502 -0.13724867120E+01 -0.12645087246E+03 -0.27862493909E+02  0.12949141065E+03  0.00000000000E+00 0.  1.
         13    1    5    5    0    0  0.11538031320E+02  0.19270168379E+03  0.24748145963E+02  0.19462665756E+03  0.00000000000E+00 0. -1.
        -13    1    5    5    0    0 -0.12435670448E+03  0.88122669689E+03  0.35156356895E+02  0.89065203682E+03  0.00000000000E+00 0.  1.
          4    1    6    6  503    0  0.69544743539E+02  0.11143733566E+03 -0.15591356478E+03  0.20387199615E+03  0.00000000000E+00 0. -1.
         -4    1    6    6    0  503  0.39049462189E+02 -0.33179856517E+01 -0.11431450519E+02  0.40823370598E+02  0.00000000000E+00 0.  1.
<mgrwt>
<rscale>  0 0.12178111E+04</rscale>
<asrwt>0</asrwt>
<pdfrwt beam="1">  1        1 0.25261446E+00 0.12178111E+04</pdfrwt>
<pdfrwt beam="2">  1       -1 0.15260198E+00 0.12178111E+04</pdfrwt>
<totfact> 0.17026490E+00</totfact>
</mgrwt>
</event>
<event>
12    1  0.1444206E-007  0.9572468E+03  0.7818608E-02  0.9356720E-01
          3   -1    0    0  501    0  0.00000000000E+00  0.00000000000E+00  0.82821276136E+03  0.82821276136E+03  0.00000000000E+00 0. -1.
         -3   -1    0    0    0  501 -0.00000000000E+00 -0.00000000000E+00 -0.11722967341E+04  0.11722967341E+04  0.00000000000E+00 0.  1.
         23    2    1    2    0    0  0.63411609332E+03  0.58487396012E+03  0.72916698542E+02  0.86997749736E+03  0.85809276600E+02 0.  0.
    5000000    2    1    2    0    0 -0.63411609332E+03 -0.58487396012E+03 -0.41700067128E+03  0.11305319981E+04  0.60002689094E+03 0.  0.
         23    2    4    4    0    0 -0.19188503170E+03 -0.55943740391E+03 -0.24324705934E+03  0.64601177376E+03  0.91498664876E+02 0.  0.
         23    2    4    4    0    0 -0.44223106162E+03 -0.25436556210E+02 -0.17375361194E+03  0.48452022434E+03  0.91401312259E+02 0.  0.
          3    1    3    3  502    0  0.25503317302E+03  0.29219781723E+03  0.40822315759E+02  0.38998454482E+03  0.00000000000E+00 0. -1.
         -3    1    3    3    0  502  0.37908292030E+03  0.29267614289E+03  0.32094382783E+02  0.47999295254E+03  0.00000000000E+00 0.  1.
         13    1    5    5    0    0 -0.15126398286E+03 -0.33501855767E+03 -0.18028222052E+03  0.40941410031E+03  0.00000000000E+00 0.  1.
        -13    1    5    5    0    0 -0.40621048843E+02 -0.22441884623E+03 -0.62964838824E+02  0.23659767345E+03  0.00000000000E+00 0. -1.
          2    1    6    6  503    0 -0.85378482903E+02  0.30925573018E+02 -0.29023251052E+02  0.95332185073E+02  0.00000000000E+00 0. -1.
         -2    1    6    6    0  503 -0.35685257872E+03 -0.56362129228E+02 -0.14473036089E+03  0.38918803927E+03  0.00000000000E+00 0.  1.
<mgrwt>
<rscale>  0 0.95724683E+03</rscale>
<asrwt>0</asrwt>
<pdfrwt beam="1">  1        3 0.12741735E+00 0.95724683E+03</pdfrwt>
<pdfrwt beam="2">  1       -3 0.18035334E+00 0.95724683E+03</pdfrwt>
<totfact> 0.24510560E-01</totfact>
</mgrwt>
</event>
<event>
12    1  0.1444206E-007  0.5721645E+03  0.7818608E-02  0.9964900E-01
          2   -1    0    0  501    0  0.00000000000E+00  0.00000000000E+00  0.18045818431E+04  0.18045818431E+04  0.00000000000E+00 0. -1.
         -2   -1    0    0    0  501 -0.00000000000E+00 -0.00000000000E+00 -0.27367449307E+03  0.27367449307E+03  0.00000000000E+00 0.  1.
         23    2    1    2    0    0  0.26691519332E+03 -0.43248239725E+03  0.23994634766E+03  0.56667370148E+03  0.72526476736E+02 0.  0.
    5000000    2    1    2    0    0 -0.26691519332E+03  0.43248239725E+03  0.12909610024E+04  0.15115826347E+04  0.60001417275E+03 0.  0.
         23    2    4    4    0    0 -0.29955038398E+03  0.17013923792E+03  0.25412560607E+03  0.43758966347E+03  0.90703346597E+02 0.  0.
         23    2    4    4    0    0  0.32635190661E+02  0.26234315933E+03  0.10368353963E+04  0.10739929713E+04  0.92435243842E+02 0.  0.
          3    1    3    3  502    0  0.14588063241E+02 -0.68249366884E+02  0.24418012088E+02  0.73939346653E+02  0.00000000000E+00 0. -1.
         -3    1    3    3    0  502  0.25232713008E+03 -0.36423303037E+03  0.21552833557E+03  0.49273435482E+03  0.00000000000E+00 0.  1.
         11    1    5    5    0    0 -0.60351048464E+02  0.69161501053E+02  0.99596854563E+02  0.13544406859E+03  0.00000000000E+00 0.  1.
        -11    1    5    5    0    0 -0.23919933552E+03  0.10097773687E+03  0.15452875151E+03  0.30214559487E+03  0.00000000000E+00 0. -1.
          3    1    6    6  503    0  0.56644384231E+02  0.92404647545E+02  0.41112751979E+03  0.42517413219E+03  0.00000000000E+00 0. -1.
         -3    1    6    6    0  503 -0.24009193570E+02  0.16993851179E+03  0.62570787654E+03  0.64881883907E+03  0.00000000000E+00 0.  1.
<mgrwt>
<rscale>  0 0.57216454E+03</rscale>
<asrwt>0</asrwt>
<pdfrwt beam="1">  1        2 0.27762797E+00 0.57216454E+03</pdfrwt>
<pdfrwt beam="2">  1       -2 0.42103769E-01 0.57216454E+03</pdfrwt>
<totfact> 0.48210679E+01</totfact>
</mgrwt>
</event>
<event>
12    1  0.1444206E-007  0.6042300E+03  0.7818608E-02  0.9896669E-01
          1   -1    0    0  501    0  0.00000000000E+00  0.00000000000E+00  0.38119323110E+03  0.38119323110E+03  0.00000000000E+00 0. -1.
         -1   -1    0    0    0  501 -0.00000000000E+00 -0.00000000000E+00 -0.12522787922E+04  0.12522787922E+04  0.00000000000E+00 0.  1.
         23    2    1    2    0    0  0.17454707491E+03  0.46480511639E+03 -0.65190146260E+03  0.82446783777E+03  0.90891259224E+02 0.  0.
    5000000    2    1    2    0    0 -0.17454707491E+03 -0.46480511639E+03 -0.21918409848E+03  0.80900418551E+03  0.59994635224E+03 0.  0.
         23    2    4    4    0    0 -0.33435361312E+03 -0.22565405163E+03  0.32683808147E+02  0.41486990682E+03  0.91305633164E+02 0.  0.
         23    2    4    4    0    0  0.15980653821E+03 -0.23915106475E+03 -0.25186790663E+03  0.39413427869E+03  0.95775914603E+02 0.  0.
          2    1    3    3  502    0  0.26177425404E+01  0.68128235741E+02 -0.12967476979E+03  0.14650547772E+03  0.00000000000E+00 0. -1.
         -2    1    3    3    0  502  0.17192933237E+03  0.39667688064E+03 -0.52222669281E+03  0.67796236005E+03  0.00000000000E+00 0.  1.
         11    1    5    5    0    0 -0.17032392028E+03 -0.15419771863E+03 -0.13292634441E+02  0.23013880242E+03  0.00000000000E+00 0. -1.
        -11    1    5    5    0    0 -0.16402969284E+03 -0.71456333000E+02  0.45976442588E+02  0.18473110440E+03  0.00000000000E+00 0.  1.
          3    1    6    6  503    0  0.23797670824E+02 -0.10708335861E+03 -0.12350088404E+03  0.16518366501E+03  0.00000000000E+00 0. -1.
         -3    1    6    6    0  503  0.13600886738E+03 -0.13206770615E+03 -0.12836702259E+03  0.22895061367E+03  0.00000000000E+00 0.  1.
<mgrwt>
<rscale>  0 0.60422997E+03</rscale>
<asrwt>0</asrwt>
<pdfrwt beam="1">  1        1 0.58645112E-01 0.60422997E+03</pdfrwt>
<pdfrwt beam="2">  1       -1 0.19265828E+00 0.60422997E+03</pdfrwt>
<totfact> 0.11374750E+01</totfact>
</mgrwt>
</event>
<event>
12    1  0.1444206E-007  0.6449448E+03  0.7818608E-02  0.9816311E-01
          2   -1    0    0  501    0  0.00000000000E+00  0.00000000000E+00  0.97904420213E+03  0.97904420213E+03  0.00000000000E+00 0. -1.
         -2   -1    0    0    0  501 -0.00000000000E+00 -0.00000000000E+00 -0.77547182313E+03  0.77547182313E+03  0.00000000000E+00 0.  1.
         23    2    1    2    0    0 -0.47896964069E+03  0.34342611308E+03 -0.40060049198E+03  0.71894972037E+03  0.95155317274E+02 0.  0.
    5000000    2    1    2    0    0  0.47896964069E+03 -0.34342611308E+03  0.60417287098E+03  0.10355663049E+04  0.60001608474E+03 0.  0.
         23    2    4    4    0    0  0.30685182677E+03 -0.41849632381E+01  0.55840172763E+03  0.64303727382E+03  0.86653843511E+02 0.  0.
         23    2    4    4    0    0  0.17211781392E+03 -0.33924114984E+03  0.45771143350E+02  0.39252903107E+03  0.85293276728E+02 0.  0.
          4    1    3    3  502    0 -0.33736773462E+03  0.20576927509E+03 -0.22529170216E+03  0.45487837275E+03  0.00000000000E+00 0.  1.
         -4    1    3    3    0  502 -0.14160190607E+03  0.13765683798E+03 -0.17530878982E+03  0.26407134762E+03  0.00000000000E+00 0. -1.
         13    1    5    5    0    0  0.12231445143E+03 -0.40226056527E+02  0.26382040197E+03  0.29356458428E+03  0.00000000000E+00 0.  1.
        -13    1    5    5    0    0  0.18453737534E+03  0.36041093289E+02  0.29458132566E+03  0.34947268954E+03  0.00000000000E+00 0. -1.
          4    1    6    6  503    0  0.11370785453E+03 -0.21785497714E+03  0.70308314421E+02  0.25560423769E+03  0.00000000000E+00 0. -1.
         -4    1    6    6    0  503  0.58409959387E+02 -0.12138617270E+03 -0.24537171071E+02  0.13692479338E+03  0.00000000000E+00 0.  1.
<mgrwt>
<rscale>  0 0.64494481E+03</rscale>
<asrwt>0</asrwt>
<pdfrwt beam="1">  1        2 0.15062218E+00 0.64494481E+03</pdfrwt>
<pdfrwt beam="2">  1       -2 0.11930336E+00 0.64494481E+03</pdfrwt>
<totfact> 0.14413615E+01</totfact>
</mgrwt>
</event>
<event>
12    1  0.1444206E-007  0.5923834E+03  0.7818608E-02  0.9921335E-01
         -2   -1    0    0    0  501 -0.00000000000E+00  0.00000000000E+00  0.16703143652E+03  0.16703143652E+03  0.00000000000E+00 0. -1.
          2   -1    0    0  501    0  0.00000000000E+00 -0.00000000000E+00 -0.31545721026E+04  0.31545721026E+04  0.00000000000E+00 0.  1.
         23    2    1    2    0    0  0.22323715681E+03  0.40544287812E+03 -0.38143698827E+03  0.60746726825E+03  0.96454913709E+02 0.  0.
    5000000    2    1    2    0    0 -0.22323715681E+03 -0.40544287812E+03 -0.26061036778E+04  0.27141362709E+04  0.60045029917E+03 0.  0.
         23    2    4    4    0    0 -0.34825216792E+03 -0.83255044622E+02 -0.17072249330E+04  0.17466991997E+04  0.90167331191E+02 0.  0.
         23    2    4    4    0    0  0.12501501111E+03 -0.32218783350E+03 -0.89887874482E+03  0.96743707114E+03  0.92291579624E+02 0.  0.
          1    1    3    3  502    0  0.87418549869E+02  0.25749782338E+03 -0.22178179648E+03  0.35090496884E+03  0.00000000000E+00 0. -1.
         -1    1    3    3    0  502  0.13581860695E+03  0.14794505473E+03 -0.15965519179E+03  0.25656229941E+03  0.00000000000E+00 0.  1.
         13    1    5    5    0    0 -0.17809271958E+02 -0.33909538069E+01 -0.23655551537E+03  0.23724919512E+03  0.00000000000E+00 0.  1.
        -13    1    5    5    0    0 -0.33044289596E+03 -0.79864090815E+02 -0.14706694176E+04  0.15094500046E+04  0.00000000000E+00 0. -1.
          3    1    6    6  503    0 -0.79663912151E+01 -0.53810779244E+02 -0.93578330991E+02  0.10824032235E+03  0.00000000000E+00 0. -1.
         -3    1    6    6    0  503  0.13298140232E+03 -0.26837705425E+03 -0.80530041383E+03  0.85919674878E+03  0.00000000000E+00 0.  1.
<mgrwt>
<rscale>  0 0.59238343E+03</rscale>
<asrwt>0</asrwt>
<pdfrwt beam="1">  1        2 0.48531877E+00 0.59238343E+03</pdfrwt>
<pdfrwt beam="2">  1       -2 0.25697145E-01 0.59238343E+03</pdfrwt>
<totfact> 0.20751956E+01</totfact>
</mgrwt>
</event>
<event>
12    1  0.1444206E-007  0.9110529E+03  0.7818608E-02  0.9411869E-01
          2   -1    0    0  501    0  0.00000000000E+00  0.00000000000E+00  0.23583472630E+04  0.23583472630E+04  0.00000000000E+00 0.  1.
         -2   -1    0    0    0  501 -0.00000000000E+00 -0.00000000000E+00 -0.38723345017E+03  0.38723345017E+03  0.00000000000E+00 0. -1.
         23    2    1    2    0    0 -0.51589410240E+03  0.68250189226E+03  0.99979224157E+03  0.13188419527E+04  0.88340318925E+02 0.  0.
    5000000    2    1    2    0    0  0.51589410240E+03 -0.68250189226E+03  0.97132157123E+03  0.14267387605E+04  0.60013526653E+03 0.  0.
         23    2    4    4    0    0  0.18678130995E+03  0.18293349519E+02  0.42802858710E+03  0.47655872227E+03  0.93154924816E+02 0.  0.
         23    2    4    4    0    0  0.32911279244E+03 -0.70079524178E+03  0.54329298413E+03  0.95018003822E+03  0.90805491965E+02 0.  0.
          2    1    3    3  502    0 -0.31529962433E+02  0.61100197792E+02  0.11603571538E+03  0.13487646179E+03  0.00000000000E+00 0. -1.
         -2    1    3    3    0  502 -0.48436413996E+03  0.62140169447E+03  0.88375652619E+03  0.11839654909E+04  0.00000000000E+00 0.  1.
         11    1    5    5    0    0  0.89484675864E+02 -0.27915954226E+00  0.30904971877E+03  0.32174417448E+03  0.00000000000E+00 0. -1.
        -11    1    5    5    0    0  0.97296634089E+02  0.18572509061E+02  0.11897886833E+03  0.15481454779E+03  0.00000000000E+00 0.  1.
          3    1    6    6  503    0  0.98508535296E+02 -0.14602356239E+03  0.15667265297E+03  0.23573954375E+03  0.00000000000E+00 0. -1.
         -3    1    6    6    0  503  0.23060425715E+03 -0.55477167939E+03  0.38662033116E+03  0.71444049447E+03  0.00000000000E+00 0.  1.
<mgrwt>
<rscale>  0 0.91105292E+03</rscale>
<asrwt>0</asrwt>
<pdfrwt beam="1">  1        2 0.36282265E+00 0.91105292E+03</pdfrwt>
<pdfrwt beam="2">  1       -2 0.59574378E-01 0.91105292E+03</pdfrwt>
<totfact> 0.11267061E+01</totfact>
</mgrwt>
</event>
<event>
12    1  0.1444206E-007  0.8752289E+03  0.7818608E-02  0.9457087E-01
          1   -1    0    0  501    0  0.00000000000E+00  0.00000000000E+00  0.99246528720E+03  0.99246528720E+03  0.00000000000E+00 0. -1.
         -1   -1    0    0    0  501 -0.00000000000E+00 -0.00000000000E+00 -0.87898633175E+03  0.87898633175E+03  0.00000000000E+00 0.  1.
         23    2    1    2    0    0  0.77993260185E+03  0.73006849881E+02  0.34075001116E+03  0.85902722015E+03  0.90511498106E+02 0.  0.
    5000000    2    1    2    0    0 -0.77993260185E+03 -0.73006849881E+02 -0.22727105572E+03  0.10124243988E+04  0.59977176239E+03 0.  0.
         23    2    4    4    0    0  0.68998190118E+02 -0.43650505441E+02  0.74218107357E+01  0.12640886383E+03  0.96218505053E+02 0.  0.
         23    2    4    4    0    0 -0.84893079197E+03 -0.29356344440E+02 -0.23469286645E+03  0.88601553497E+03  0.91637885933E+02 0.  0.
          3    1    3    3  502    0  0.41934254552E+03  0.78727557574E+02  0.20870641789E+03  0.47497849180E+03  0.00000000000E+00 0. -1.
         -3    1    3    3    0  502  0.36059005633E+03 -0.57207076928E+01  0.13204359327E+03  0.38404872835E+03  0.00000000000E+00 0.  1.
         13    1    5    5    0    0  0.27769462721E+02  0.22409469739E+02  0.28577232155E+02  0.45716360216E+02  0.00000000000E+00 0.  1.
        -13    1    5    5    0    0  0.41228727397E+02 -0.66059975180E+02 -0.21155421419E+02  0.80692503611E+02  0.00000000000E+00 0. -1.
          3    1    6    6  503    0 -0.28729918706E+03 -0.17785227543E+02 -0.35670503188E+02  0.29005089553E+03  0.00000000000E+00 0. -1.
         -3    1    6    6    0  503 -0.56163160491E+03 -0.11571116897E+02 -0.19902236327E+03  0.59596463944E+03  0.00000000000E+00 0.  1.
<mgrwt>
<rscale>  0 0.87522888E+03</rscale>
<asrwt>0</asrwt>
<pdfrwt beam="1">  1        1 0.15268697E+00 0.87522888E+03</pdfrwt>
<pdfrwt beam="2">  1       -1 0.13522867E+00 0.87522888E+03</pdfrwt>
<totfact> 0.71541818E+00</totfact>
</mgrwt>
</event>
<event>
12    1  0.1444206E-007  0.6384635E+03  0.7818608E-02  0.9828671E-01
         -2   -1    0    0    0  501 -0.00000000000E+00  0.00000000000E+00  0.42942846447E+03  0.42942846447E+03  0.00000000000E+00 0.  1.
          2   -1    0    0  501    0  0.00000000000E+00 -0.00000000000E+00 -0.12997335044E+04  0.12997335044E+04  0.00000000000E+00 0. -1.
         23    2    1    2    0    0 -0.47168706878E+03  0.16497806046E+03 -0.79613106202E+03  0.94410697386E+03  0.88356430949E+02 0.  0.
    5000000    2    1    2    0    0  0.47168706878E+03 -0.16497806046E+03 -0.74173977940E+02  0.78505499504E+03  0.60091855933E+03 0.  0.
         23    2    4    4    0    0  0.12188992149E+03 -0.34545260623E+03 -0.12444340906E+02  0.37586771710E+03  0.83228739175E+02 0.  0.
         23    2    4    4    0    0  0.34979714729E+03  0.18047454577E+03 -0.61729637034E+02  0.40918727794E+03  0.93244701829E+02 0.  0.
          2    1    3    3  502    0 -0.39646363165E+03  0.16738913422E+03 -0.64687368398E+03  0.77694793680E+03  0.00000000000E+00 0. -1.
         -2    1    3    3    0  502 -0.75223437127E+02 -0.24110737600E+01 -0.14925737805E+03  0.16715903706E+03  0.00000000000E+00 0.  1.
         13    1    5    5    0    0  0.85951205848E+02 -0.19920544361E+03 -0.45517717754E+02  0.22168058368E+03  0.00000000000E+00 0.  1.
        -13    1    5    5    0    0  0.35938715644E+02 -0.14624716262E+03  0.33073376848E+02  0.15418713342E+03  0.00000000000E+00 0. -1.
          1    1    6    6  503    0  0.20292990085E+03  0.15347139453E+03 -0.50866017962E+02  0.25946361090E+03  0.00000000000E+00 0. -1.
         -1    1    6    6    0  503  0.14686724644E+03  0.27003151244E+02 -0.10863619073E+02  0.14972366705E+03  0.00000000000E+00 0.  1.
<mgrwt>
<rscale>  0 0.63846347E+03</rscale>
<asrwt>0</asrwt>
<pdfrwt beam="1">  1        2 0.19995900E+00 0.63846347E+03</pdfrwt>
<pdfrwt beam="2">  1       -2 0.66065917E-01 0.63846347E+03</pdfrwt>
<totfact> 0.36001216E+01</totfact>
</mgrwt>
</event>
<event>
12    1  0.1444206E-007  0.5458252E+03  0.7818608E-02  0.1002465E+00
         -2   -1    0    0    0  501 -0.00000000000E+00  0.00000000000E+00  0.78100630626E+03  0.78100630626E+03  0.00000000000E+00 0.  1.
          2   -1    0    0  501    0  0.00000000000E+00 -0.00000000000E+00 -0.56919803607E+03  0.56919803607E+03  0.00000000000E+00 0. -1.
         23    2    1    2    0    0 -0.20937146087E+03 -0.48012583247E+03  0.14510320560E+03  0.55096391138E+03  0.90272186930E+02 0.  0.
    5000000    2    1    2    0    0  0.20937146087E+03  0.48012583247E+03  0.66705064584E+02  0.79924043095E+03  0.59998206406E+03 0.  0.
         23    2    4    4    0    0  0.15307170597E+03  0.38759834565E+03  0.30288871767E+03  0.52305384378E+03  0.90445140731E+02 0.  0.
         23    2    4    4    0    0  0.56299754892E+02  0.92527486823E+02 -0.23618365309E+03  0.27618658717E+03  0.93623259555E+02 0.  0.
          3    1    3    3  502    0 -0.16929430293E+03 -0.28726942760E+03  0.10821122647E+03  0.35056234049E+03  0.00000000000E+00 0. -1.
         -3    1    3    3    0  502 -0.40077157934E+02 -0.19285640488E+03  0.36891979130E+02  0.20040157089E+03  0.00000000000E+00 0.  1.
         11    1    5    5    0    0  0.10478088322E+03  0.14492648076E+03  0.13425618169E+03  0.22362343490E+03  0.00000000000E+00 0.  1.
        -11    1    5    5    0    0  0.48290822750E+02  0.24267186489E+03  0.16863253598E+03  0.29943040888E+03  0.00000000000E+00 0. -1.
          3    1    6    6  503    0 -0.18160907920E+02  0.28184521017E+01 -0.82038044794E+01  0.20126218141E+02  0.00000000000E+00 0. -1.
         -3    1    6    6    0  503  0.74460662813E+02  0.89709034722E+02 -0.22797984861E+03  0.25606036903E+03  0.00000000000E+00 0.  1.
<mgrwt>
<rscale>  0 0.54582516E+03</rscale>
<asrwt>0</asrwt>
<pdfrwt beam="1">  1        2 0.87568928E-01 0.54582516E+03</pdfrwt>
<pdfrwt beam="2">  1       -2 0.12015482E+00 0.54582516E+03</pdfrwt>
<totfact> 0.28879193E+01</totfact>
</mgrwt>
</event>
<event>
12    1  0.1444206E-007  0.1146531E+04  0.7818608E-02  0.9160990E-01
         -1   -1    0    0    0  501 -0.00000000000E+00  0.00000000000E+00  0.18198833472E+04  0.18198833472E+04  0.00000000000E+00 0.  1.
          1   -1    0    0  501    0  0.00000000000E+00 -0.00000000000E+00 -0.14052808962E+04  0.14052808962E+04  0.00000000000E+00 0. -1.
         23    2    1    2    0    0  0.13253276654E+02 -0.10766349125E+04 -0.91228471726E+03  0.14141811541E+04  0.91249915236E+02 0.  0.
    5000000    2    1    2    0    0 -0.13253276654E+02  0.10766349125E+04  0.13268871682E+04  0.18109830893E+04  0.59975979219E+03 0.  0.
         23    2    4    4    0    0 -0.16466341261E+03  0.64076816647E+02  0.27954185796E+03  0.34332877805E+03  0.92255740182E+02 0.  0.
         23    2    4    4    0    0  0.15141013596E+03  0.10125580959E+04  0.10473453103E+04  0.14676543113E+04  0.94223413325E+02 0.  0.
          2    1    3    3  502    0 -0.29002570591E+02 -0.79098949761E+03 -0.68309257373E+03  0.10455242698E+04  0.00000000000E+00 0. -1.
         -2    1    3    3    0  502  0.42255847245E+02 -0.28564541492E+03 -0.22919214353E+03  0.36865688431E+03  0.00000000000E+00 0.  1.
         11    1    5    5    0    0 -0.15753010736E+03  0.73914509620E+02  0.28157919959E+03  0.33100745475E+03  0.00000000000E+00 0. -1.
        -11    1    5    5    0    0 -0.71333052498E+01 -0.98376929726E+01 -0.20373416297E+01  0.12321323294E+02  0.00000000000E+00 0.  1.
          4    1    6    6  503    0  0.44885827288E+02  0.55582985534E+03  0.60846009073E+03  0.82533947415E+03  0.00000000000E+00 0. -1.
         -4    1    6    6    0  503  0.10652430867E+03  0.45672824055E+03  0.43888521956E+03  0.64231483713E+03  0.00000000000E+00 0.  1.
<mgrwt>
<rscale>  0 0.11465306E+04</rscale>
<asrwt>0</asrwt>
<pdfrwt beam="1">  1        1 0.21619706E+00 0.11465306E+04</pdfrwt>
<pdfrwt beam="2">  1       -1 0.27998205E+00 0.11465306E+04</pdfrwt>
<totfact> 0.33584047E-01</totfact>
</mgrwt>
</event>
<event>
12    1  0.1444206E-007  0.5985498E+03  0.7818608E-02  0.9908419E-01
          2   -1    0    0  501    0  0.00000000000E+00  0.00000000000E+00  0.20510577670E+04  0.20510577670E+04  0.00000000000E+00 0. -1.
         -2   -1    0    0    0  501 -0.00000000000E+00 -0.00000000000E+00 -0.22168762117E+03  0.22168762117E+03  0.00000000000E+00 0.  1.
         23    2    1    2    0    0 -0.41490349029E+03  0.18770336551E+03  0.25999524562E+03  0.53197745689E+03  0.89582516199E+02 0.  0.
    5000000    2    1    2    0    0  0.41490349029E+03 -0.18770336551E+03  0.15693749002E+04  0.17407679312E+04  0.59996496023E+03 0.  0.
         23    2    4    4    0    0  0.54127714703E+03 -0.21929272819E+03  0.11654266566E+04  0.13065846795E+04  0.88735462451E+02 0.  0.
         23    2    4    4    0    0 -0.12637365674E+03  0.31589362676E+02  0.40394824360E+03  0.43418325176E+03  0.91502588205E+02 0.  0.
          2    1    3    3  502    0 -0.36345292157E+03  0.18592195179E+03  0.20564542532E+03  0.45711600203E+03  0.00000000000E+00 0. -1.
         -2    1    3    3    0  502 -0.51450568721E+02  0.17814137201E+01  0.54349820300E+02  0.74861454856E+02  0.00000000000E+00 0.  1.
         13    1    5    5    0    0  0.33978362493E+03 -0.15246124725E+03  0.82851662094E+03  0.90837059334E+03  0.00000000000E+00 0.  1.
        -13    1    5    5    0    0  0.20149352210E+03 -0.66831480934E+02  0.33691003562E+03  0.39821408613E+03  0.00000000000E+00 0. -1.
          2    1    6    6  503    0 -0.49796782128E+02  0.53425244171E+02  0.25541327213E+03  0.26564998740E+03  0.00000000000E+00 0. -1.
         -2    1    6    6    0  503 -0.76576874613E+02 -0.21835881495E+02  0.14853497147E+03  0.16853326436E+03  0.00000000000E+00 0.  1.
<mgrwt>
<rscale>  0 0.59854984E+03</rscale>
<asrwt>0</asrwt>
<pdfrwt beam="1">  1        2 0.31554734E+00 0.59854984E+03</pdfrwt>
<pdfrwt beam="2">  1       -2 0.34105789E-01 0.59854984E+03</pdfrwt>
<totfact> 0.52979883E+01</totfact>
</mgrwt>
</event>
<event>
12    1  0.1444206E-007  0.7825042E+03  0.7818608E-02  0.9585693E-01
          1   -1    0    0  501    0  0.00000000000E+00  0.00000000000E+00  0.13540650508E+04  0.13540650508E+04  0.00000000000E+00 0. -1.
         -1   -1    0    0    0  501 -0.00000000000E+00 -0.00000000000E+00 -0.53330669971E+03  0.53330669971E+03  0.00000000000E+00 0.  1.
         23    2    1    2    0    0  0.55679172836E+03 -0.48861541735E+03  0.34769902536E+03  0.82312954792E+03  0.88800819773E+02 0.  0.
    5000000    2    1    2    0    0 -0.55679172836E+03  0.48861541735E+03  0.47305932569E+03  0.10642422025E+04  0.60005356862E+03 0.  0.
         23    2    4    4    0    0 -0.52482025726E+03  0.48678788873E+03  0.16745208155E+03  0.74039606205E+03  0.88019191329E+02 0.  0.
         23    2    4    4    0    0 -0.31971471097E+02  0.18275286166E+01  0.30560724414E+03  0.32384614049E+03  0.10224979323E+03 0.  0.
          3    1    3    3  502    0  0.12173314001E+03 -0.14896156435E+03  0.11508637956E+03  0.22417265621E+03  0.00000000000E+00 0. -1.
         -3    1    3    3    0  502  0.43505858835E+03 -0.33965385300E+03  0.23261264580E+03  0.59895689172E+03  0.00000000000E+00 0.  1.
         11    1    5    5    0    0 -0.30362005264E+03  0.22200970445E+03  0.92287529668E+02  0.38728598395E+03  0.00000000000E+00 0. -1.
        -11    1    5    5    0    0 -0.22120020462E+03  0.26477818428E+03  0.75164551884E+02  0.35311007810E+03  0.00000000000E+00 0.  1.
          1    1    6    6  503    0 -0.37032823738E+02 -0.41672265330E+02  0.10910536527E+03  0.12252342005E+03  0.00000000000E+00 0. -1.
         -1    1    6    6    0  503  0.50613526412E+01  0.43499793947E+02  0.19650187887E+03  0.20132272044E+03  0.00000000000E+00 0.  1.
<mgrwt>
<rscale>  0 0.78250418E+03</rscale>
<asrwt>0</asrwt>
<pdfrwt beam="1">  1        1 0.20831770E+00 0.78250418E+03</pdfrwt>
<pdfrwt beam="2">  1       -1 0.82047185E-01 0.78250418E+03</pdfrwt>
<totfact> 0.12609178E+01</totfact>
</mgrwt>
</event>
<event>
12    1  0.1444206E-007  0.1178353E+04  0.7818608E-02  0.9132018E-01
          1   -1    0    0  501    0  0.00000000000E+00  0.00000000000E+00  0.26282527824E+04  0.26282527824E+04  0.00000000000E+00 0. -1.
         -1   -1    0    0    0  501 -0.00000000000E+00 -0.00000000000E+00 -0.61335944644E+03  0.61335944644E+03  0.00000000000E+00 0.  1.
         23    2    1    2    0    0 -0.31597815355E+03 -0.11107225195E+04  0.13534106678E+04  0.17815777635E+04  0.93553100076E+02 0.  0.
    5000000    2    1    2    0    0  0.31597815355E+03  0.11107225195E+04  0.66148266815E+03  0.14600344654E+04  0.60049530479E+03 0.  0.
         23    2    4    4    0    0 -0.56932483190E+02  0.13651696129E+03 -0.65659117669E+02  0.18522067806E+03  0.90096567547E+02 0.  0.
         23    2    4    4    0    0  0.37291063674E+03  0.97420555822E+03  0.72714178582E+03  0.12748137874E+04  0.90973639614E+02 0.  0.
          3    1    3    3  502    0 -0.12240760988E+03 -0.30844632273E+03  0.34880234747E+03  0.48144141343E+03  0.00000000000E+00 0. -1.
         -3    1    3    3    0  502 -0.19357054367E+03 -0.80227619679E+03  0.10046083204E+04  0.13001363500E+04  0.00000000000E+00 0.  1.
         11    1    5    5    0    0 -0.37945494929E+02  0.12417710755E+03 -0.16235506656E+02  0.13085643393E+03  0.00000000000E+00 0.  1.
        -11    1    5    5    0    0 -0.18986988261E+02  0.12339853742E+02 -0.49423611013E+02  0.54364244124E+02  0.00000000000E+00 0. -1.
          4    1    6    6  503    0  0.37472707202E+03  0.92761487702E+03  0.69283762127E+03  0.12169279798E+04  0.00000000000E+00 0. -1.
         -4    1    6    6    0  503 -0.18164352773E+01  0.46590681206E+02  0.34304164547E+02  0.57885807566E+02  0.00000000000E+00 0.  1.
<mgrwt>
<rscale>  0 0.11783531E+04</rscale>
<asrwt>0</asrwt>
<pdfrwt beam="1">  1        1 0.40434658E+00 0.11783531E+04</pdfrwt>
<pdfrwt beam="2">  1       -1 0.94362993E-01 0.11783531E+04</pdfrwt>
<totfact> 0.11922591E+00</totfact>
</mgrwt>
</event>
<event>
12    1  0.1444206E-007  0.2556679E+03  0.7818608E-02  0.1109774E+00
          1   -1    0    0  501    0  0.00000000000E+00  0.00000000000E+00  0.10764821063E+04  0.10764821063E+04  0.00000000000E+00 0. -1.
         -1   -1    0    0    0  501 -0.00000000000E+00 -0.00000000000E+00 -0.18277234384E+03  0.18277234384E+03  0.00000000000E+00 0.  1.
         23    2    1    2    0    0 -0.28638266300E+02  0.22120201056E+03  0.25688618560E+03  0.35634596869E+03  0.10602573874E+03 0.  0.
    5000000    2    1    2    0    0  0.28638266300E+02 -0.22120201056E+03  0.63682357685E+03  0.90290848145E+03  0.59995748021E+03 0.  0.
         23    2    4    4    0    0  0.21101288729E+02 -0.48410333763E+02 -0.96132436075E+02  0.14373173238E+03  0.92889939313E+02 0.  0.
         23    2    4    4    0    0  0.75369775702E+01 -0.17279167680E+03  0.73295601293E+03  0.75917674907E+03  0.95974214466E+02 0.  0.
          3    1    3    3  502    0 -0.50671040016E+02  0.45567210467E+02  0.52923524942E+02  0.86283396192E+02  0.00000000000E+00 0. -1.
         -3    1    3    3    0  502  0.22032773717E+02  0.17563480009E+03  0.20396266066E+03  0.27006257250E+03  0.00000000000E+00 0.  1.
         11    1    5    5    0    0  0.14173561797E+02  0.61732807573E+01 -0.86503456125E+02  0.87874041507E+02  0.00000000000E+00 0.  1.
        -11    1    5    5    0    0  0.69277269319E+01 -0.54583614521E+02 -0.96289799509E+01  0.55857690871E+02  0.00000000000E+00 0. -1.
          3    1    6    6  503    0  0.29623349871E+02 -0.17099010070E+03  0.60843008395E+03  0.63269449535E+03  0.00000000000E+00 0. -1.
         -3    1    6    6    0  503 -0.22086372301E+02 -0.18015760969E+01  0.12452592898E+03  0.12648225372E+03  0.00000000000E+00 0.  1.
<mgrwt>
<rscale>  0 0.25566787E+03</rscale>
<asrwt>0</asrwt>
<pdfrwt beam="1">  1        1 0.16561263E+00 0.25566787E+03</pdfrwt>
<pdfrwt beam="2">  1       -1 0.28118823E-01 0.25566787E+03</pdfrwt>
<totfact> 0.16234791E+02</totfact>
</mgrwt>
</event>
<event>
12    1  0.1444206E-007  0.6595085E+03  0.7818608E-02  0.9789099E-01
         -3   -1    0    0    0  501 -0.00000000000E+00  0.00000000000E+00  0.51126715119E+03  0.51126715119E+03  0.00000000000E+00 0.  1.
          3   -1    0    0  501    0  0.00000000000E+00 -0.00000000000E+00 -0.10268717629E+04  0.10268717629E+04  0.00000000000E+00 0. -1.
         23    2    1    2    0    0  0.40683641206E+03 -0.43510813851E+03 -0.19134715377E+03  0.63260163095E+03  0.93467276864E+02 0.  0.
    5000000    2    1    2    0    0 -0.40683641206E+03  0.43510813851E+03 -0.32425745790E+03  0.90553728311E+03  0.60001659453E+03 0.  0.
         23    2    4    4    0    0 -0.45816467549E+03  0.28846694074E+03 -0.43024747776E+03  0.69731430358E+03  0.89477930749E+02 0.  0.
         23    2    4    4    0    0  0.51328263436E+02  0.14664119777E+03  0.10599001986E+03  0.20822297953E+03  0.89357111532E+02 0.  0.
          1    1    3    3  502    0  0.12469397366E+03 -0.13229169970E+03 -0.14046281073E+02  0.18233754109E+03  0.00000000000E+00 0. -1.
         -1    1    3    3    0  502  0.28214243839E+03 -0.30281643881E+03 -0.17730087270E+03  0.45026408985E+03  0.00000000000E+00 0.  1.
         11    1    5    5    0    0 -0.38370605076E+03  0.19931950677E+03 -0.33101914028E+03  0.54454776686E+03  0.00000000000E+00 0. -1.
        -11    1    5    5    0    0 -0.74458624736E+02  0.89147433972E+02 -0.99228337482E+02  0.15276653672E+03  0.00000000000E+00 0.  1.
          3    1    6    6  503    0  0.12190263670E+01 -0.10133816599E+02 -0.32142919963E+01  0.10701025053E+02  0.00000000000E+00 0. -1.
         -3    1    6    6    0  503  0.50109237069E+02  0.15677501437E+03  0.10920431185E+03  0.19752195447E+03  0.00000000000E+00 0.  1.
<mgrwt>
<rscale>  0 0.65950850E+03</rscale>
<asrwt>0</asrwt>
<pdfrwt beam="1">  1        3 0.15798027E+00 0.65950850E+03</pdfrwt>
<pdfrwt beam="2">  1       -3 0.78656486E-01 0.65950850E+03</pdfrwt>
<totfact> 0.11140303E+00</totfact>
</mgrwt>
</event>
<event>
12    1  0.1444206E-007  0.6783446E+03  0.7818608E-02  0.9755000E-01
          3   -1    0    0  501    0  0.00000000000E+00  0.00000000000E+00  0.49090587088E+03  0.49090587088E+03  0.00000000000E+00 0. -1.
         -3   -1    0    0    0  501 -0.00000000000E+00 -0.00000000000E+00 -0.97083118638E+03  0.97083118638E+03  0.00000000000E+00 0.  1.
         23    2    1    2    0    0 -0.54664296010E+03  0.74799241796E+02 -0.27069271311E+03  0.62157890923E+03  0.93125415803E+02 0.  0.
    5000000    2    1    2    0    0  0.54664296010E+03 -0.74799241796E+02 -0.20923260238E+03  0.84015814803E+03  0.59805850835E+03 0.  0.
         23    2    4    4    0    0  0.65836518274E+03 -0.52411834106E+02 -0.18009593110E+03  0.69055068148E+03  0.90741308663E+02 0.  0.
         23    2    4    4    0    0 -0.11172222264E+03 -0.22387407690E+02 -0.29136671280E+02  0.14960746655E+03  0.92468358805E+02 0.  0.
          1    1    3    3  502    0 -0.11990789997E+03  0.40727535953E+02 -0.97317926794E+02  0.15971041148E+03  0.00000000000E+00 0. -1.
         -1    1    3    3    0  502 -0.42673506012E+03  0.34071705843E+02 -0.17337478632E+03  0.46186849775E+03  0.00000000000E+00 0.  1.
         13    1    5    5    0    0  0.45534162720E+03 -0.76844699645E+02 -0.13558821351E+03  0.48127462946E+03  0.00000000000E+00 0.  1.
        -13    1    5    5    0    0  0.20302355554E+03  0.24432865539E+02 -0.44507717595E+02  0.20927605202E+03  0.00000000000E+00 0. -1.
          1    1    6    6  503    0 -0.67154422986E+02  0.24046538537E+02  0.13239457801E+02  0.72548161831E+02  0.00000000000E+00 0. -1.
         -1    1    6    6    0  503 -0.44567799656E+02 -0.46433946227E+02 -0.42376129081E+02  0.77059304722E+02  0.00000000000E+00 0.  1.
<mgrwt>
<rscale>  0 0.67834456E+03</rscale>
<asrwt>0</asrwt>
<pdfrwt beam="1">  1        3 0.75523981E-01 0.67834456E+03</pdfrwt>
<pdfrwt beam="2">  1       -3 0.14935864E+00 0.67834456E+03</pdfrwt>
<totfact> 0.14062597E+00</totfact>
</mgrwt>
</event>
<event>
12    1  0.1444206E-007  0.2128956E+04  0.7818608E-02  0.8548594E-01
          2   -1    0    0  501    0  0.00000000000E+00  0.00000000000E+00  0.36818575353E+04  0.36818575353E+04  0.00000000000E+00 0. -1.
         -2   -1    0    0    0  501 -0.00000000000E+00 -0.00000000000E+00 -0.13396398851E+04  0.13396398851E+04  0.00000000000E+00 0.  1.
         23    2    1    2    0    0  0.73992158534E+03 -0.19523264958E+04  0.18568460469E+04  0.27954374914E+04  0.86780343099E+02 0.  0.
    5000000    2    1    2    0    0 -0.73992158534E+03  0.19523264958E+04  0.48537160328E+03  0.22260599289E+04  0.60057848364E+03 0.  0.
         23    2    4    4    0    0 -0.64238192640E+03  0.89091906022E+03  0.27035610541E+03  0.11346827509E+04  0.89561209608E+02 0.  0.
         23    2    4    4    0    0 -0.97539658936E+02  0.10614074356E+04  0.21501549787E+03  0.10913771780E+04  0.93662964245E+02 0.  0.
          1    1    3    3  502    0  0.77647827608E+02 -0.28802492401E+03  0.27478667767E+03  0.40558015263E+03  0.00000000000E+00 0. -1.
         -1    1    3    3    0  502  0.66227375773E+03 -0.16643015718E+04  0.15820593693E+04  0.23898573388E+04  0.00000000000E+00 0.  1.
         11    1    5    5    0    0 -0.30237968209E+03  0.36927177093E+03  0.83044660079E+02  0.48444971722E+03  0.00000000000E+00 0.  1.
        -11    1    5    5    0    0 -0.34000224432E+03  0.52164728929E+03  0.18731144533E+03  0.65023303370E+03  0.00000000000E+00 0. -1.
          3    1    6    6  503    0  0.11284001589E+02  0.54654074808E+02 -0.16836969365E+01  0.55832171911E+02  0.00000000000E+00 0. -1.
         -3    1    6    6    0  503 -0.10882366053E+03  0.10067533608E+04  0.21669919481E+03  0.10355450060E+04  0.00000000000E+00 0.  1.
<mgrwt>
<rscale>  0 0.21289556E+04</rscale>
<asrwt>0</asrwt>
<pdfrwt beam="1">  1        2 0.56643961E+00 0.21289556E+04</pdfrwt>
<pdfrwt beam="2">  1       -2 0.20609845E+00 0.21289556E+04</pdfrwt>
<totfact> 0.64438406E-02</totfact>
</mgrwt>
</event>
<event>
12    1  0.1444206E-007  0.6447784E+03  0.7818608E-02  0.9816627E-01
          2   -1    0    0  501    0  0.00000000000E+00  0.00000000000E+00  0.27296144424E+04  0.27296144424E+04  0.00000000000E+00 0. -1.
         -2   -1    0    0    0  501 -0.00000000000E+00 -0.00000000000E+00 -0.24267429553E+03  0.24267429553E+03  0.00000000000E+00 0.  1.
         23    2    1    2    0    0 -0.45982470578E+03  0.38619182823E+03  0.42079745605E+03  0.73857240041E+03  0.88520073379E+02 0.  0.
    5000000    2    1    2    0    0  0.45982470578E+03 -0.38619182823E+03  0.20661426908E+04  0.22337163375E+04  0.59996680694E+03 0.  0.
         23    2    4    4    0    0  0.43023694821E+03 -0.40736335084E+03  0.10179910498E+04  0.11808880203E+04  0.84510400895E+02 0.  0.
         23    2    4    4    0    0  0.29587757567E+02  0.21171522603E+02  0.10481516410E+04  0.10528283172E+04  0.92205933398E+02 0.  0.
          1    1    3    3  502    0 -0.21170640034E+03  0.20116041384E+03  0.25363323207E+03  0.38680088993E+03  0.00000000000E+00 0. -1.
         -1    1    3    3    0  502 -0.24811830544E+03  0.18503141439E+03  0.16716422398E+03  0.35177151048E+03  0.00000000000E+00 0.  1.
         11    1    5    5    0    0  0.76250747318E+02 -0.10315343452E+03  0.27517159864E+03  0.30360206886E+03  0.00000000000E+00 0.  1.
        -11    1    5    5    0    0  0.35398620089E+03 -0.30420991632E+03  0.74281945116E+03  0.87728595146E+03  0.00000000000E+00 0. -1.
          4    1    6    6  503    0  0.57740171198E+02  0.27768990938E+02  0.86894907726E+03  0.87130794963E+03  0.00000000000E+00 0. -1.
         -4    1    6    6    0  503 -0.28152413630E+02 -0.65974683351E+01  0.17920256373E+03  0.18152036753E+03  0.00000000000E+00 0.  1.
<mgrwt>
<rscale>  0 0.64477839E+03</rscale>
<asrwt>0</asrwt>
<pdfrwt beam="1">  1        2 0.41994066E+00 0.64477839E+03</pdfrwt>
<pdfrwt beam="2">  1       -2 0.37334509E-01 0.64477839E+03</pdfrwt>
<totfact> 0.18481892E+01</totfact>
</mgrwt>
</event>
<event>
12    1  0.1444206E-007  0.9925916E+03  0.7818608E-02  0.9316708E-01
         -1   -1    0    0    0  501 -0.00000000000E+00  0.00000000000E+00  0.41872848729E+03  0.41872848729E+03  0.00000000000E+00 0.  1.
          1   -1    0    0  501    0  0.00000000000E+00 -0.00000000000E+00 -0.35710552343E+04  0.35710552343E+04  0.00000000000E+00 0. -1.
         23    2    1    2    0    0 -0.77269995317E+02 -0.90407003306E+03 -0.33788384821E+03  0.97241848956E+03  0.90105200240E+02 0.  0.
    5000000    2    1    2    0    0  0.77269995317E+02  0.90407003306E+03 -0.28144428988E+04  0.30173652320E+04  0.60007569190E+03 0.  0.
         23    2    4    4    0    0  0.37012594837E+02  0.96328544447E+03 -0.24261105879E+04  0.26123696825E+04  0.95780966294E+02 0.  0.
         23    2    4    4    0    0  0.40257400479E+02 -0.59215411412E+02 -0.38833231087E+03  0.40499554952E+03  0.89957146613E+02 0.  0.
          3    1    3    3  502    0 -0.23531973373E+02 -0.90599960463E+02 -0.11667192015E+02  0.94330429747E+02  0.00000000000E+00 0. -1.
         -3    1    3    3    0  502 -0.53738021944E+02 -0.81347007260E+03 -0.32621665619E+03  0.87808805982E+03  0.00000000000E+00 0.  1.
         13    1    5    5    0    0  0.30038874898E+02  0.50944055109E+03 -0.11575798173E+04  0.12650782753E+04  0.00000000000E+00 0. -1.
        -13    1    5    5    0    0  0.69737199395E+01  0.45384489338E+03 -0.12685307706E+04  0.13472914073E+04  0.00000000000E+00 0.  1.
          2    1    6    6  503    0 -0.25523386949E+02 -0.31973941619E+02 -0.18763469768E+03  0.19204310974E+03  0.00000000000E+00 0. -1.
         -2    1    6    6    0  503  0.65780787429E+02 -0.27241469793E+02 -0.20069761319E+03  0.21295243979E+03  0.00000000000E+00 0.  1.
<mgrwt>
<rscale>  0 0.99259165E+03</rscale>
<asrwt>0</asrwt>
<pdfrwt beam="1">  1        1 0.54939310E+00 0.99259165E+03</pdfrwt>
<pdfrwt beam="2">  1       -1 0.64419769E-01 0.99259165E+03</pdfrwt>
<totfact> 0.55935110E-01</totfact>
</mgrwt>
</event>
<event>
12    1  0.1444206E-007  0.8403646E+03  0.7818608E-02  0.9503361E-01
          2   -1    0    0  501    0  0.00000000000E+00  0.00000000000E+00  0.11059086197E+04  0.11059086197E+04  0.00000000000E+00 0. -1.
         -2   -1    0    0    0  501 -0.00000000000E+00 -0.00000000000E+00 -0.98111553270E+03  0.98111553270E+03  0.00000000000E+00 0.  1.
         23    2    1    2    0    0  0.83232988550E+03 -0.10938622164E+02  0.52208146506E+03  0.98670590346E+03  0.90148721608E+02 0.  0.
    5000000    2    1    2    0    0 -0.83232988550E+03  0.10938622164E+02 -0.39728837805E+03  0.11003182490E+04  0.59997458438E+03 0.  0.
         23    2    4    4    0    0 -0.46076351256E+03  0.45087554457E+02  0.89107834872E+02  0.48045066626E+03  0.92502618329E+02 0.  0.
         23    2    4    4    0    0 -0.37156637294E+03 -0.34148932293E+02 -0.48639621292E+03  0.61986758270E+03  0.91797739974E+02 0.  0.
          1    1    3    3  502    0  0.33941271151E+03  0.39726660655E+02  0.21685552464E+03  0.40472893999E+03  0.00000000000E+00 0. -1.
         -1    1    3    3    0  502  0.49291717400E+03 -0.50665282820E+02  0.30522594042E+03  0.58197696347E+03  0.00000000000E+00 0.  1.
         11    1    5    5    0    0 -0.33302071653E+03 -0.47977764500E+01  0.43265690196E+02  0.33585374234E+03  0.00000000000E+00 0. -1.
        -11    1    5    5    0    0 -0.12774279603E+03  0.49885330907E+02  0.45842144676E+02  0.14459692392E+03  0.00000000000E+00 0.  1.
          2    1    6    6  503    0 -0.25785815894E+03 -0.28750654374E+02 -0.26469905204E+03  0.37065215285E+03  0.00000000000E+00 0. -1.
         -2    1    6    6    0  503 -0.11370821400E+03 -0.53982779191E+01 -0.22169716088E+03  0.24921542986E+03  0.00000000000E+00 0.  1.
<mgrwt>
<rscale>  0 0.84036463E+03</rscale>
<asrwt>0</asrwt>
<pdfrwt beam="1">  1        2 0.17013979E+00 0.84036463E+03</pdfrwt>
<pdfrwt beam="2">  1       -2 0.15094085E+00 0.84036463E+03</pdfrwt>
<totfact> 0.64201909E+00</totfact>
</mgrwt>
</event>
<event>
12    1  0.1444206E-007  0.9807305E+03  0.7818608E-02  0.9329935E-01
         -1   -1    0    0    0  501 -0.00000000000E+00  0.00000000000E+00  0.60226299433E+03  0.60226299433E+03  0.00000000000E+00 0. -1.
          1   -1    0    0  501    0  0.00000000000E+00 -0.00000000000E+00 -0.17023187817E+04  0.17023187817E+04  0.00000000000E+00 0.  1.
         23    2    1    2    0    0 -0.64342416288E+03 -0.65908738661E+03 -0.49817047881E+03  0.10513482063E+04  0.93639673479E+02 0.  0.
    5000000    2    1    2    0    0  0.64342416288E+03  0.65908738661E+03 -0.60188530856E+03  0.12532335697E+04  0.59994801357E+03 0.  0.
         23    2    4    4    0    0  0.35132606466E+03  0.57434136894E+02 -0.31620356523E+02  0.36984137494E+03  0.95153097071E+02 0.  0.
         23    2    4    4    0    0  0.29209809822E+03  0.60165324971E+03 -0.57026495204E+03  0.88339219476E+03  0.88722727406E+02 0.  0.
          2    1    3    3  502    0 -0.44236722958E+03 -0.44578129722E+03 -0.38795164096E+03  0.73818439870E+03  0.00000000000E+00 0. -1.
         -2    1    3    3    0  502 -0.20105693330E+03 -0.21330608939E+03 -0.11021883784E+03  0.31316380764E+03  0.00000000000E+00 0.  1.
         11    1    5    5    0    0  0.15827530001E+03 -0.18289364626E+02 -0.31797695131E+02  0.16247050461E+03  0.00000000000E+00 0.  1.
        -11    1    5    5    0    0  0.19305076465E+03  0.75723501520E+02  0.17733860796E+00  0.20737087033E+03  0.00000000000E+00 0. -1.
          1    1    6    6  503    0  0.26305099439E+02  0.16839171005E+02 -0.37713325647E+02  0.48967447024E+02  0.00000000000E+00 0. -1.
         -1    1    6    6    0  503  0.26579299878E+03  0.58481407871E+03 -0.53255162639E+03  0.83442474773E+03  0.00000000000E+00 0.  1.
<mgrwt>
<rscale>  0 0.98073049E+03</rscale>
<asrwt>0</asrwt>
<pdfrwt beam="1">  1        1 0.26189519E+00 0.98073049E+03</pdfrwt>
<pdfrwt beam="2">  1       -1 0.92655847E-01 0.98073049E+03</pdfrwt>
<totfact> 0.54317412E+00</totfact>
</mgrwt>
</event>
<event>
12    1  0.1444206E-007  0.2032916E+03  0.7818608E-02  0.1146991E+00
         -3   -1    0    0    0  501 -0.00000000000E+00  0.00000000000E+00  0.22199270319E+03  0.22199270319E+03  0.00000000000E+00 0.  1.
          3   -1    0    0  501    0  0.00000000000E+00 -0.00000000000E+00 -0.72589198067E+03  0.72589198067E+03  0.00000000000E+00 0. -1.
         23    2    1    2    0    0 -0.62313550396E+02 -0.12038152021E+03 -0.15164777165E+02  0.16267256376E+03  0.88643688789E+02 0.  0.
    5000000    2    1    2    0    0  0.62313550396E+02  0.12038152021E+03 -0.48873450031E+03  0.78521212010E+03  0.59943471104E+03 0.  0.
         23    2    4    4    0    0  0.38920622901E+01  0.99871091884E+02  0.11112607611E+03  0.17517486502E+03  0.91366544198E+02 0.  0.
         23    2    4    4    0    0  0.58421488106E+02  0.20510428325E+02 -0.59986057642E+03  0.61003725509E+03  0.92081450374E+02 0.  0.
          1    1    3    3  502    0  0.10415267589E+02 -0.73534892933E+02 -0.16805198743E+02  0.76146391789E+02  0.00000000000E+00 0. -1.
         -1    1    3    3    0  502 -0.72728817985E+02 -0.46846627276E+02  0.16404215778E+01  0.86526171969E+02  0.00000000000E+00 0.  1.
         13    1    5    5    0    0  0.47460534658E+02  0.45910859204E+02  0.52394628134E+02  0.84294165873E+02  0.00000000000E+00 0. -1.
        -13    1    5    5    0    0 -0.43568472368E+02  0.53960232680E+02  0.58731447980E+02  0.90880699145E+02  0.00000000000E+00 0.  1.
          4    1    6    6  503    0 -0.70118502020E+01  0.41198948128E+02 -0.25706004296E+03  0.26043499199E+03  0.00000000000E+00 0. -1.
         -4    1    6    6    0  503  0.65433338308E+02 -0.20688519802E+02 -0.34280053347E+03  0.34960226309E+03  0.00000000000E+00 0.  1.
<mgrwt>
<rscale>  0 0.20329155E+03</rscale>
<asrwt>0</asrwt>
<pdfrwt beam="1">  1        3 0.11167569E+00 0.20329155E+03</pdfrwt>
<pdfrwt beam="2">  1       -3 0.34152723E-01 0.20329155E+03</pdfrwt>
<totfact> 0.14441459E+01</totfact>
</mgrwt>
</event>
<event>
12    1  0.2047232E-007  0.1474965E+04  0.7818608E-02  0.8901273E-01
          2   -1    0    0  501    0  0.00000000000E+00  0.00000000000E+00  0.25938118202E+04  0.25938118202E+04  0.00000000000E+00 0. -1.
         -2   -1    0    0    0  501 -0.00000000000E+00 -0.00000000000E+00 -0.11383402046E+04  0.11383402046E+04  0.00000000000E+00 0.  1.
         23    2    1    2    0    0 -0.57034889189E+03 -0.13501277516E+04  0.15626984408E+04  0.21447353250E+04  0.98592053825E+02 0.  0.
    5000000    2    1    2    0    0  0.57034889189E+03  0.13501277516E+04 -0.10722682520E+03  0.15874166998E+04  0.60020944887E+03 0.  0.
         23    2    4    4    0    0  0.33510391950E+03  0.62023175526E+03 -0.33113590227E+03  0.78398862119E+03  0.89471253961E+02 0.  0.
         23    2    4    4    0    0  0.23524497239E+03  0.72989599635E+03  0.22390907707E+03  0.80342807858E+03  0.85282120833E+02 0.  0.
          3    1    3    3  502    0 -0.42312314882E+03 -0.88529689072E+03  0.10288764595E+04  0.14217491173E+04  0.00000000000E+00 0. -1.
         -3    1    3    3    0  502 -0.14722574307E+03 -0.46483086090E+03  0.53382198136E+03  0.72298620765E+03  0.00000000000E+00 0.  1.
         11    1    5    5    0    0  0.15855849695E+03  0.38417590690E+03 -0.20379248761E+03  0.46288584165E+03  0.00000000000E+00 0.  1.
        -11    1    5    5    0    0  0.17654542255E+03  0.23605584837E+03 -0.12734341466E+03  0.32110277954E+03  0.00000000000E+00 0. -1.
          4    1    6    6  503    0  0.60935801290E+02  0.31296426592E+03  0.74069128014E+02  0.32733169621E+03  0.00000000000E+00 0.  1.
         -4    1    6    6    0  503  0.17430917110E+03  0.41693173043E+03  0.14983994905E+03  0.47609638237E+03  0.00000000000E+00 0. -1.
<mgrwt>
<rscale>  0 0.14749654E+04</rscale>
<asrwt>0</asrwt>
<pdfrwt beam="1">  1        2 0.39904797E+00 0.14749654E+04</pdfrwt>
<pdfrwt beam="2">  1       -2 0.17512926E+00 0.14749654E+04</pdfrwt>
<totfact> 0.56846920E-01</totfact>
</mgrwt>
</event>
<event>
12    1  0.1444206E-007  0.1812242E+04  0.7818608E-02  0.8699816E-01
         -1   -1    0    0    0  501 -0.00000000000E+00  0.00000000000E+00  0.17838326527E+04  0.17838326527E+04  0.00000000000E+00 0.  1.
          1   -1    0    0  501    0  0.00000000000E+00 -0.00000000000E+00 -0.21403878308E+04  0.21403878308E+04  0.00000000000E+00 0. -1.
         23    2    1    2    0    0  0.17340748711E+04  0.41503534375E+03  0.50448852732E+03  0.18552360583E+04  0.90123040800E+02 0.  0.
    5000000    2    1    2    0    0 -0.17340748711E+04 -0.41503534375E+03 -0.86104370534E+03  0.20689844252E+04  0.60002524463E+03 0.  0.
         23    2    4    4    0    0 -0.49209660658E+03 -0.33459636062E+03 -0.45979446422E+03  0.75810834844E+03  0.95934998291E+02 0.  0.
         23    2    4    4    0    0 -0.12419782645E+04 -0.80438983132E+02 -0.40124924112E+03  0.13108760768E+04  0.91731650225E+02 0.  0.
          3    1    3    3  502    0  0.15150812303E+04  0.38743513046E+03  0.45983605100E+03  0.16300387445E+04  0.00000000000E+00 0. -1.
         -3    1    3    3    0  502  0.21899364082E+03  0.27600213296E+02  0.44652476317E+02  0.22519731378E+03  0.00000000000E+00 0.  1.
         13    1    5    5    0    0 -0.36519780478E+03 -0.24115451201E+03 -0.28247585156E+03  0.52088150475E+03  0.00000000000E+00 0.  1.
        -13    1    5    5    0    0 -0.12689880181E+03 -0.93441848607E+02 -0.17731861266E+03  0.23722684369E+03  0.00000000000E+00 0. -1.
          3    1    6    6  503    0 -0.96394812461E+03 -0.55297306235E+02 -0.27114454922E+03  0.10028824186E+04  0.00000000000E+00 0. -1.
         -3    1    6    6    0  503 -0.27803013993E+03 -0.25141676897E+02 -0.13010469190E+03  0.30799365818E+03  0.00000000000E+00 0.  1.
<mgrwt>
<rscale>  0 0.18122417E+04</rscale>
<asrwt>0</asrwt>
<pdfrwt beam="1">  1        1 0.32929043E+00 0.18122417E+04</pdfrwt>
<pdfrwt beam="2">  1       -1 0.27443579E+00 0.18122417E+04</pdfrwt>
<totfact> 0.10519308E-01</totfact>
</mgrwt>
</event>
<event>
12    1  0.1444206E-007  0.7655109E+03  0.7818608E-02  0.9611326E-01
         -2   -1    0    0    0  501 -0.00000000000E+00  0.00000000000E+00  0.24480023138E+04  0.24480023138E+04  0.00000000000E+00 0.  1.
          2   -1    0    0  501    0  0.00000000000E+00 -0.00000000000E+00 -0.52354798154E+03  0.52354798154E+03  0.00000000000E+00 0. -1.
         23    2    1    2    0    0 -0.30678606861E+03 -0.58665414007E+03 -0.17419159269E+03  0.69063899869E+03  0.91426164739E+02 0.  0.
    5000000    2    1    2    0    0  0.30678606861E+03  0.58665414007E+03  0.20986459250E+04  0.22809112967E+04  0.59996737659E+03 0.  0.
         23    2    4    4    0    0  0.20308486352E+03  0.68651127313E+03  0.16352183533E+04  0.17873273655E+04  0.89771144271E+02 0.  0.
         23    2    4    4    0    0  0.10370120508E+03 -0.99857133063E+02  0.46342757166E+03  0.49358393123E+03  0.90191995413E+02 0.  0.
          4    1    3    3  502    0 -0.26259172837E+03 -0.44700456733E+03 -0.16425567859E+03  0.54382665158E+03  0.00000000000E+00 0. -1.
         -4    1    3    3    0  502 -0.44194340237E+02 -0.13964957274E+03 -0.99359141024E+01  0.14681234711E+03  0.00000000000E+00 0.  1.
         11    1    5    5    0    0  0.15005452331E+02  0.15563596082E+03  0.30345390633E+03  0.34136782094E+03  0.00000000000E+00 0. -1.
        -11    1    5    5    0    0  0.18807941119E+03  0.53087531231E+03  0.13317644470E+04  0.14459595445E+04  0.00000000000E+00 0.  1.
          3    1    6    6  503    0  0.64689847849E+02 -0.79677362608E+02  0.18366932554E+03  0.21039885853E+03  0.00000000000E+00 0. -1.
         -3    1    6    6    0  503  0.39011357235E+02 -0.20179770455E+02  0.27975824611E+03  0.28318507269E+03  0.00000000000E+00 0.  1.
<mgrwt>
<rscale>  0 0.76551095E+03</rscale>
<asrwt>0</asrwt>
<pdfrwt beam="1">  1        2 0.80545844E-01 0.76551095E+03</pdfrwt>
<pdfrwt beam="2">  1       -2 0.37661574E+00 0.76551095E+03</pdfrwt>
<totfact> 0.64930315E-01</totfact>
</mgrwt>
</event>
<event>
12    1  0.1444206E-007  0.1056740E+04  0.7818608E-02  0.9248413E-01
         -2   -1    0    0    0  501 -0.00000000000E+00  0.00000000000E+00  0.57525047887E+03  0.57525047887E+03  0.00000000000E+00 0. -1.
          2   -1    0    0  501    0  0.00000000000E+00 -0.00000000000E+00 -0.24463437018E+04  0.24463437018E+04  0.00000000000E+00 0.  1.
         23    2    1    2    0    0  0.95955685010E+03  0.24385636141E+03 -0.24234693411E+03  0.10233157409E+04  0.90707196910E+02 0.  0.
    5000000    2    1    2    0    0 -0.95955685010E+03 -0.24385636141E+03 -0.16287462888E+04  0.19982784397E+04  0.60007247548E+03 0.  0.
         23    2    4    4    0    0 -0.83734847799E+03  0.10000456705E+02 -0.13613317726E+04  0.16003820135E+04  0.82133496787E+02 0.  0.
         23    2    4    4    0    0 -0.12220837211E+03 -0.25385681812E+03 -0.26741451624E+03  0.39789642627E+03  0.86214106881E+02 0.  0.
          4    1    3    3  502    0  0.24226240201E+03  0.56898163897E+02 -0.10169118045E+03  0.26882999957E+03  0.00000000000E+00 0. -1.
         -4    1    3    3    0  502  0.71729444809E+03  0.18695819751E+03 -0.14065575365E+03  0.75448574136E+03  0.00000000000E+00 0.  1.
         11    1    5    5    0    0 -0.37346199026E+03 -0.33812109053E+02 -0.63416062544E+03  0.73673388394E+03  0.00000000000E+00 0.  1.
        -11    1    5    5    0    0 -0.46388648773E+03  0.43812565758E+02 -0.72717114713E+03  0.86364812953E+03  0.00000000000E+00 0. -1.
          1    1    6    6  503    0 -0.93410370888E+02 -0.21147212798E+03 -0.16709839577E+03  0.28525047269E+03  0.00000000000E+00 0. -1.
         -1    1    6    6    0  503 -0.28798001223E+02 -0.42384690140E+02 -0.10031612046E+03  0.11264595358E+03  0.00000000000E+00 0.  1.
<mgrwt>
<rscale>  0 0.10567399E+04</rscale>
<asrwt>0</asrwt>
<pdfrwt beam="1">  1        2 0.37636057E+00 0.10567399E+04</pdfrwt>
<pdfrwt beam="2">  1       -2 0.88500074E-01 0.10567399E+04</pdfrwt>
<totfact> 0.41119298E+00</totfact>
</mgrwt>
</event>
<event>
12    1  0.1444206E-007  0.3334431E+03  0.7818608E-02  0.1069623E+00
         -2   -1    0    0    0  501 -0.00000000000E+00  0.00000000000E+00  0.15533579388E+03  0.15533579388E+03  0.00000000000E+00 0. -1.
          2   -1    0    0  501    0  0.00000000000E+00 -0.00000000000E+00 -0.11991400685E+04  0.11991400685E+04  0.00000000000E+00 0.  1.
         23    2    1    2    0    0  0.20413990348E+03  0.28361562323E+02 -0.33062830522E+03  0.39992580374E+03  0.90266792780E+02 0.  0.
    5000000    2    1    2    0    0 -0.20413990348E+03 -0.28361562323E+02 -0.71317596937E+03  0.95455005860E+03  0.60005697453E+03 0.  0.
         23    2    4    4    0    0 -0.39651186326E+02  0.16445521895E+03 -0.29858841946E+01  0.19503168085E+03  0.97008790399E+02 0.  0.
         23    2    4    4    0    0 -0.16448871715E+03 -0.19281678128E+03 -0.71019008517E+03  0.75951837775E+03  0.90903024413E+02 0.  0.
          1    1    3    3  502    0  0.10593956436E+03 -0.22193281975E+01 -0.24190075372E+03  0.26409106642E+03  0.00000000000E+00 0. -1.
         -1    1    3    3    0  502  0.98200339116E+02  0.30580890520E+02 -0.88727551498E+02  0.13583473732E+03  0.00000000000E+00 0.  1.
         13    1    5    5    0    0  0.26879884051E+02  0.55308271018E+02 -0.22987843371E+02  0.65650391868E+02  0.00000000000E+00 0.  1.
        -13    1    5    5    0    0 -0.66531070377E+02  0.10914694794E+03  0.20001959176E+02  0.12938128899E+03  0.00000000000E+00 0. -1.
          1    1    6    6  503    0 -0.69147330809E+02 -0.21018988208E+02 -0.21218694931E+03  0.22415720528E+03  0.00000000000E+00 0. -1.
         -1    1    6    6    0  503 -0.95341386340E+02 -0.17179779307E+03 -0.49800313587E+03  0.53536117247E+03  0.00000000000E+00 0.  1.
<mgrwt>
<rscale>  0 0.33344309E+03</rscale>
<asrwt>0</asrwt>
<pdfrwt beam="1">  1        2 0.18448310E+00 0.33344309E+03</pdfrwt>
<pdfrwt beam="2">  1       -2 0.23897813E-01 0.33344309E+03</pdfrwt>
<totfact> 0.30784974E+02</totfact>
</mgrwt>
</event>
<event>
12    1  0.1444206E-007  0.1488313E+04  0.7818608E-02  0.8892262E-01
         -1   -1    0    0    0  501 -0.00000000000E+00  0.00000000000E+00  0.15417121361E+04  0.15417121361E+04  0.00000000000E+00 0.  1.
          1   -1    0    0  501    0  0.00000000000E+00 -0.00000000000E+00 -0.14567415422E+04  0.14567415422E+04  0.00000000000E+00 0. -1.
         23    2    1    2    0    0  0.49094244548E+03 -0.13459250729E+04 -0.72178233605E+02  0.14372942033E+04  0.89811706855E+02 0.  0.
    5000000    2    1    2    0    0 -0.49094244548E+03  0.13459250729E+04  0.15714882753E+03  0.15611594750E+04  0.59998697119E+03 0.  0.
         23    2    4    4    0    0 -0.61259997489E+03  0.10546857902E+04  0.93752016319E+02  0.12267114636E+04  0.91600922416E+02 0.  0.
         23    2    4    4    0    0  0.12165752941E+03  0.29123928270E+03  0.63396811216E+02  0.33444801138E+03  0.90639077655E+02 0.  0.
          1    1    3    3  502    0  0.19206284884E+03 -0.44389225868E+03 -0.56048935222E+02  0.48689830392E+03  0.00000000000E+00 0. -1.
         -1    1    3    3    0  502  0.29887959664E+03 -0.90203281427E+03 -0.16129298382E+02  0.95039589939E+03  0.00000000000E+00 0.  1.
         13    1    5    5    0    0 -0.42000717800E+03  0.64113827127E+03  0.42371487437E+02  0.76763250023E+03  0.00000000000E+00 0.  1.
        -13    1    5    5    0    0 -0.19259279689E+03  0.41354751898E+03  0.51380528882E+02  0.45907896338E+03  0.00000000000E+00 0. -1.
          1    1    6    6  503    0  0.70472860402E+02  0.22827344111E+03  0.13706278098E+02  0.23929699126E+03  0.00000000000E+00 0. -1.
         -1    1    6    6    0  503  0.51184669009E+02  0.62965841591E+02  0.49690533118E+02  0.95151020122E+02  0.00000000000E+00 0.  1.
<mgrwt>
<rscale>  0 0.14883134E+04</rscale>
<asrwt>0</asrwt>
<pdfrwt beam="1">  1        1 0.22411408E+00 0.14883134E+04</pdfrwt>
<pdfrwt beam="2">  1       -1 0.23718648E+00 0.14883134E+04</pdfrwt>
<totfact> 0.56211073E-01</totfact>
</mgrwt>
</event>
<event>
12    1  0.1444206E-007  0.1463811E+04  0.7818608E-02  0.8908881E-01
          2   -1    0    0  501    0  0.00000000000E+00  0.00000000000E+00  0.30860059517E+04  0.30860059517E+04  0.00000000000E+00 0. -1.
         -2   -1    0    0    0  501 -0.00000000000E+00 -0.00000000000E+00 -0.12425224465E+04  0.12425224465E+04  0.00000000000E+00 0.  1.
         23    2    1    2    0    0  0.23290614189E+03  0.14001920493E+04 -0.51379098325E+03  0.15122244124E+04  0.89768887072E+02 0.  0.
    5000000    2    1    2    0    0 -0.23290614189E+03 -0.14001920493E+04  0.23572744885E+04  0.28163039858E+04  0.60003506591E+03 0.  0.
         23    2    4    4    0    0 -0.35490005717E+03 -0.12504035294E+04  0.21826551757E+04  0.25419153363E+04  0.88808354497E+02 0.  0.
         23    2    4    4    0    0  0.12199391528E+03 -0.14978851988E+03  0.17461931281E+03  0.27438864950E+03  0.86476069059E+02 0.  0.
          2    1    3    3  502    0  0.17833472571E+02  0.10487012940E+03 -0.64632257380E+02  0.12447130384E+03  0.00000000000E+00 0. -1.
         -2    1    3    3    0  502  0.21507266932E+03  0.12953219199E+04 -0.44915872587E+03  0.13877531086E+04  0.00000000000E+00 0.  1.
         13    1    5    5    0    0 -0.26715830663E+03 -0.95111494762E+03  0.17301828250E+04  0.19923668869E+04  0.00000000000E+00 0. -1.
        -13    1    5    5    0    0 -0.87741750539E+02 -0.29928858182E+03  0.45247235072E+03  0.54954844934E+03  0.00000000000E+00 0.  1.
          4    1    6    6  503    0  0.11691921963E+03 -0.87872770314E+02  0.14352731738E+03  0.20491905357E+03  0.00000000000E+00 0. -1.
         -4    1    6    6    0  503  0.50746956513E+01 -0.61915749565E+02  0.31091995427E+02  0.69469595938E+02  0.00000000000E+00 0.  1.
<mgrwt>
<rscale>  0 0.14638112E+04</rscale>
<asrwt>0</asrwt>
<pdfrwt beam="1">  1        2 0.47477015E+00 0.14638112E+04</pdfrwt>
<pdfrwt beam="2">  1       -2 0.19115730E+00 0.14638112E+04</pdfrwt>
<totfact> 0.22179717E-01</totfact>
</mgrwt>
</event>
<event>
12    1  0.1444206E-007  0.1027500E+04  0.7818608E-02  0.9278887E-01
         -2   -1    0    0    0  501 -0.00000000000E+00  0.00000000000E+00  0.13059943926E+04  0.13059943926E+04  0.00000000000E+00 0. -1.
          2   -1    0    0  501    0  0.00000000000E+00 -0.00000000000E+00 -0.10344925505E+04  0.10344925505E+04  0.00000000000E+00 0.  1.
         23    2    1    2    0    0 -0.97512583375E+03 -0.27595083289E+02  0.60032822558E+03  0.11489900194E+04  0.90289567304E+02 0.  0.
    5000000    2    1    2    0    0  0.97512583375E+03  0.27595083289E+02 -0.32882638349E+03  0.11914969237E+04  0.59992186866E+03 0.  0.
         23    2    4    4    0    0  0.83368697142E+03 -0.12846705643E+03 -0.78241921090E+02  0.85175896007E+03  0.88508626338E+02 0.  0.
         23    2    4    4    0    0  0.14143886233E+03  0.15606213972E+03 -0.25058446240E+03  0.33973796366E+03  0.90933865671E+02 0.  0.
          1    1    3    3  502    0 -0.61183898962E+03  0.25638093448E+02  0.36576351262E+03  0.71329321336E+03  0.00000000000E+00 0. -1.
         -1    1    3    3    0  502 -0.36328684413E+03 -0.53233176737E+02  0.23456471296E+03  0.43569680604E+03  0.00000000000E+00 0.  1.
         11    1    5    5    0    0  0.38598470515E+03 -0.10333180244E+03 -0.45470785082E+02  0.40215574881E+03  0.00000000000E+00 0. -1.
        -11    1    5    5    0    0  0.44770226627E+03 -0.25135253983E+02 -0.32771136008E+02  0.44960321126E+03  0.00000000000E+00 0.  1.
          1    1    6    6  503    0  0.10735712443E+03  0.54605579801E+02 -0.11057208089E+03  0.16350384272E+03  0.00000000000E+00 0. -1.
         -1    1    6    6    0  503  0.34081737901E+02  0.10145655992E+03 -0.14001238151E+03  0.17623412094E+03  0.00000000000E+00 0.  1.
<mgrwt>
<rscale>  0 0.10275004E+04</rscale>
<asrwt>0</asrwt>
<pdfrwt beam="1">  1        2 0.15915270E+00 0.10275004E+04</pdfrwt>
<pdfrwt beam="2">  1       -2 0.20092221E+00 0.10275004E+04</pdfrwt>
<totfact> 0.31063366E+00</totfact>
</mgrwt>
</event>
<event>
12    1  0.1444206E-007  0.7297447E+03  0.7818608E-02  0.9667675E-01
         -2   -1    0    0    0  501 -0.00000000000E+00  0.00000000000E+00  0.56210678892E+03  0.56210678892E+03  0.00000000000E+00 0.  1.
          2   -1    0    0  501    0  0.00000000000E+00 -0.00000000000E+00 -0.15518771353E+04  0.15518771353E+04  0.00000000000E+00 0. -1.
         23    2    1    2    0    0  0.18316685558E+03  0.60950491624E+03  0.16656379487E+03  0.66405277002E+03  0.90422584000E+02 0.  0.
    5000000    2    1    2    0    0 -0.18316685558E+03 -0.60950491624E+03 -0.11563341412E+04  0.14499311542E+04  0.60012112591E+03 0.  0.
         23    2    4    4    0    0 -0.28408701710E+03 -0.11806616286E+03 -0.68169439091E+03  0.75351045003E+03  0.91791631506E+02 0.  0.
         23    2    4    4    0    0  0.10092016152E+03 -0.49143875339E+03 -0.47463975029E+03  0.69642070412E+03  0.89565491308E+02 0.  0.
          2    1    3    3  502    0  0.91033972984E+02  0.34210353760E+03  0.13734927727E+03  0.37971942094E+03  0.00000000000E+00 0. -1.
         -2    1    3    3    0  502  0.92132882596E+02  0.26740137865E+03  0.29214517598E+02  0.28433334907E+03  0.00000000000E+00 0.  1.
         11    1    5    5    0    0 -0.17507425816E+03 -0.25707382029E+02 -0.40948023985E+03  0.44607839243E+03  0.00000000000E+00 0. -1.
        -11    1    5    5    0    0 -0.10901275894E+03 -0.92358780828E+02 -0.27221415106E+03  0.30743205761E+03  0.00000000000E+00 0.  1.
          3    1    6    6  503    0  0.75806714856E+02 -0.28679679162E+03 -0.22308271099E+03  0.37116701584E+03  0.00000000000E+00 0. -1.
         -3    1    6    6    0  503  0.25113446667E+02 -0.20464196176E+03 -0.25155703930E+03  0.32525368828E+03  0.00000000000E+00 0.  1.
<mgrwt>
<rscale>  0 0.72974470E+03</rscale>
<asrwt>0</asrwt>
<pdfrwt beam="1">  1        2 0.23875033E+00 0.72974470E+03</pdfrwt>
<pdfrwt beam="2">  1       -2 0.86477967E-01 0.72974470E+03</pdfrwt>
<totfact> 0.14132643E+01</totfact>
</mgrwt>
</event>
<event>
12    1  0.1444206E-007  0.5960522E+03  0.7818608E-02  0.9913630E-01
          1   -1    0    0  501    0  0.00000000000E+00  0.00000000000E+00  0.12910800170E+04  0.12910800170E+04  0.00000000000E+00 0. -1.
         -1   -1    0    0    0  501 -0.00000000000E+00 -0.00000000000E+00 -0.29913613262E+03  0.29913613262E+03  0.00000000000E+00 0.  1.
         23    2    1    2    0    0 -0.27645880719E+03  0.36207914898E+03  0.22691440199E+03  0.51681715937E+03  0.89883525671E+02 0.  0.
    5000000    2    1    2    0    0  0.27645880719E+03 -0.36207914898E+03  0.76502948242E+03  0.10733989903E+04  0.59948686489E+03 0.  0.
         23    2    4    4    0    0  0.42629909911E+03 -0.37590716900E+03  0.56168759937E+03  0.80428344751E+03  0.91333362181E+02 0.  0.
         23    2    4    4    0    0 -0.14984029192E+03  0.13828020017E+02  0.20334188305E+03  0.26911554278E+03  0.91825523360E+02 0.  0.
          1    1    3    3  502    0 -0.11300707103E+03  0.81802995616E+02  0.58774329855E+02  0.15138279309E+03  0.00000000000E+00 0. -1.
         -1    1    3    3    0  502 -0.16345173616E+03  0.28027615336E+03  0.16814007213E+03  0.36543436628E+03  0.00000000000E+00 0.  1.
         13    1    5    5    0    0  0.61514812921E+02 -0.47283712749E+02  0.12542804531E+03  0.14748564761E+03  0.00000000000E+00 0.  1.
        -13    1    5    5    0    0  0.36478428619E+03 -0.32862345625E+03  0.43625955405E+03  0.65679779990E+03  0.00000000000E+00 0. -1.
          2    1    6    6  503    0 -0.10331532241E+03  0.34138870361E+02  0.77986034721E+02  0.13387060890E+03  0.00000000000E+00 0. -1.
         -2    1    6    6    0  503 -0.46524969510E+02 -0.20310850345E+02  0.12535584833E+03  0.13524493388E+03  0.00000000000E+00 0.  1.
<mgrwt>
<rscale>  0 0.59605225E+03</rscale>
<asrwt>0</asrwt>
<pdfrwt beam="1">  1        1 0.19862769E+00 0.59605225E+03</pdfrwt>
<pdfrwt beam="2">  1       -1 0.46020944E-01 0.59605225E+03</pdfrwt>
<totfact> 0.45105800E+01</totfact>
</mgrwt>
</event>
<event>
12    1  0.1444206E-007  0.2912602E+03  0.7818608E-02  0.1089693E+00
         -2   -1    0    0    0  501 -0.00000000000E+00  0.00000000000E+00  0.11257217365E+03  0.11257217365E+03  0.00000000000E+00 0.  1.
          2   -1    0    0  501    0  0.00000000000E+00 -0.00000000000E+00 -0.27199219488E+04  0.27199219488E+04  0.00000000000E+00 0. -1.
         23    2    1    2    0    0  0.13103831720E+03  0.21659986436E+03 -0.16687210144E+04  0.16901737649E+04  0.89280400577E+02 0.  0.
    5000000    2    1    2    0    0 -0.13103831720E+03 -0.21659986436E+03 -0.93862876079E+03  0.11423203576E+04  0.59982106239E+03 0.  0.
         23    2    4    4    0    0 -0.48117079716E+02 -0.51584668741E+02 -0.92973248995E+03  0.93633291334E+03  0.85677245097E+02 0.  0.
         23    2    4    4    0    0 -0.82921237485E+02 -0.16501519562E+03 -0.88962708403E+01  0.20598744421E+03  0.90806041248E+02 0.  0.
          2    1    3    3  502    0  0.40083855805E+02  0.14444667360E+03 -0.10510829029E+04  0.10617188073E+04  0.00000000000E+00 0. -1.
         -2    1    3    3    0  502  0.90954461396E+02  0.72153190766E+02 -0.61763811152E+03  0.62845495765E+03  0.00000000000E+00 0.  1.
         11    1    5    5    0    0 -0.51633483278E+02 -0.72919101932E+02 -0.74352965516E+03  0.74887886879E+03  0.00000000000E+00 0. -1.
        -11    1    5    5    0    0  0.35164035621E+01  0.21334433192E+02 -0.18620283479E+03  0.18745404455E+03  0.00000000000E+00 0.  1.
          3    1    6    6  503    0 -0.21660399299E+02  0.71471807316E+01 -0.41848036142E+01  0.23189818272E+02  0.00000000000E+00 0. -1.
         -3    1    6    6    0  503 -0.61260838185E+02 -0.17216237635E+03 -0.47114672261E+01  0.18279762594E+03  0.00000000000E+00 0.  1.
<mgrwt>
<rscale>  0 0.29126024E+03</rscale>
<asrwt>0</asrwt>
<pdfrwt beam="1">  1        2 0.41844950E+00 0.29126024E+03</pdfrwt>
<pdfrwt beam="2">  1       -2 0.17318797E-01 0.29126024E+03</pdfrwt>
<totfact> 0.81258288E+01</totfact>
</mgrwt>
</event>
<event>
12    1  0.1444206E-007  0.1235459E+04  0.7818608E-02  0.9082373E-01
         -2   -1    0    0    0  501 -0.00000000000E+00  0.00000000000E+00  0.97032441873E+03  0.97032441873E+03  0.00000000000E+00 0. -1.
          2   -1    0    0  501    0  0.00000000000E+00 -0.00000000000E+00 -0.24142817682E+04  0.24142817682E+04  0.00000000000E+00 0.  1.
         23    2    1    2    0    0 -0.12576746201E+03 -0.11816090681E+04  0.26248043941E+03  0.12203812662E+04  0.91744261189E+02 0.  0.
    5000000    2    1    2    0    0  0.12576746201E+03  0.11816090681E+04 -0.17064377889E+04  0.21642249208E+04  0.59993510977E+03 0.  0.
         23    2    4    4    0    0  0.30185553852E+03  0.74774053657E+03 -0.79728788828E+03  0.11376852827E+04  0.91799506893E+02 0.  0.
         23    2    4    4    0    0 -0.17608807651E+03  0.43386853154E+03 -0.90914990063E+03  0.10265396381E+04  0.89337413268E+02 0.  0.
          3    1    3    3  502    0 -0.12327897948E+03 -0.90459341722E+03  0.17250985363E+03  0.92911065372E+03  0.00000000000E+00 0. -1.
         -3    1    3    3    0  502 -0.24884825267E+01 -0.27701565089E+03  0.89970585784E+02  0.29127061247E+03  0.00000000000E+00 0.  1.
         13    1    5    5    0    0  0.21304726591E+03  0.61668347026E+03 -0.62085314334E+03  0.90063658908E+03  0.00000000000E+00 0.  1.
        -13    1    5    5    0    0  0.88808272609E+02  0.13105706631E+03 -0.17643474494E+03  0.23704869360E+03  0.00000000000E+00 0. -1.
          2    1    6    6  503    0 -0.11335844011E+03  0.32895156261E+03 -0.59239504887E+03  0.68701612821E+03  0.00000000000E+00 0.  1.
         -2    1    6    6    0  503 -0.62729636404E+02  0.10491696892E+03 -0.31675485176E+03  0.33952350988E+03  0.00000000000E+00 0. -1.
<mgrwt>
<rscale>  0 0.12354587E+04</rscale>
<asrwt>0</asrwt>
<pdfrwt beam="1">  1        2 0.37142796E+00 0.12354587E+04</pdfrwt>
<pdfrwt beam="2">  1       -2 0.14928068E+00 0.12354587E+04</pdfrwt>
<totfact> 0.11513625E+00</totfact>
</mgrwt>
</event>
<event>
12    1  0.1444206E-007  0.1442919E+04  0.7818608E-02  0.8923324E-01
         -2   -1    0    0    0  501 -0.00000000000E+00  0.00000000000E+00  0.17301583847E+04  0.17301583847E+04  0.00000000000E+00 0.  1.
          2   -1    0    0  501    0  0.00000000000E+00 -0.00000000000E+00 -0.13436164395E+04  0.13436164395E+04  0.00000000000E+00 0. -1.
         23    2    1    2    0    0  0.11661684304E+04  0.76445299204E+03  0.63586295714E+03  0.15354401589E+04  0.94433024301E+02 0.  0.
    5000000    2    1    2    0    0 -0.11661684304E+04 -0.76445299204E+03 -0.24932101190E+03  0.15383346653E+04  0.59997949165E+03 0.  0.
         23    2    4    4    0    0 -0.79158824190E+03 -0.77349803826E+03 -0.29724013675E+03  0.11496477770E+04  0.91799522246E+02 0.  0.
         23    2    4    4    0    0 -0.37458018852E+03  0.90450462176E+01  0.47919124850E+02  0.38868688836E+03  0.91592162102E+02 0.  0.
          3    1    3    3  502    0  0.76614970166E+03  0.54100941681E+03  0.39372486241E+03  0.10171999910E+04  0.00000000000E+00 0. -1.
         -3    1    3    3    0  502  0.40001872875E+03  0.22344357523E+03  0.24213809473E+03  0.51824016786E+03  0.00000000000E+00 0.  1.
         13    1    5    5    0    0 -0.51438580232E+02 -0.31195012894E+02 -0.32947345592E+02  0.68589969728E+02  0.00000000000E+00 0.  1.
        -13    1    5    5    0    0 -0.74014966166E+03 -0.74230302536E+03 -0.26429279116E+03  0.10810578072E+04  0.00000000000E+00 0. -1.
          2    1    6    6  503    0 -0.34991386667E+03 -0.10158373826E+02  0.60014135206E+02  0.35516841508E+03  0.00000000000E+00 0. -1.
         -2    1    6    6    0  503 -0.24666321853E+02  0.19203420044E+02 -0.12095010356E+02  0.33518473274E+02  0.00000000000E+00 0.  1.
<mgrwt>
<rscale>  0 0.14429193E+04</rscale>
<asrwt>0</asrwt>
<pdfrwt beam="1">  1        2 0.20671022E+00 0.14429193E+04</pdfrwt>
<pdfrwt beam="2">  1       -2 0.26617821E+00 0.14429193E+04</pdfrwt>
<totfact> 0.75562904E-01</totfact>
</mgrwt>
</event>
<event>
12    1  0.1444206E-007  0.5474516E+03  0.7818608E-02  0.1002085E+00
          1   -1    0    0  501    0  0.00000000000E+00  0.00000000000E+00  0.26568118948E+04  0.26568118948E+04  0.00000000000E+00 0. -1.
         -1   -1    0    0    0  501 -0.00000000000E+00 -0.00000000000E+00 -0.22447890754E+03  0.22447890754E+03  0.00000000000E+00 0.  1.
         23    2    1    2    0    0 -0.35773615362E+03  0.30003475953E+03  0.18796761522E+03  0.51156752011E+03  0.91506779669E+02 0.  0.
    5000000    2    1    2    0    0  0.35773615362E+03 -0.30003475953E+03  0.22443653720E+04  0.23697232822E+04  0.60034698184E+03 0.  0.
         23    2    4    4    0    0  0.12379131297E+03  0.89446354749E+02  0.13563692234E+04  0.13679997153E+04  0.91437473076E+02 0.  0.
         23    2    4    4    0    0  0.23394484065E+03 -0.38948111428E+03  0.88799614868E+03  0.10017235669E+04  0.92126096157E+02 0.  0.
          3    1    3    3  502    0 -0.15701267290E+03  0.19019706586E+03  0.10715519716E+03  0.26890544731E+03  0.00000000000E+00 0. -1.
         -3    1    3    3    0  502 -0.20072348072E+03  0.10983769367E+03  0.80812418061E+02  0.24266207280E+03  0.00000000000E+00 0.  1.
         11    1    5    5    0    0  0.75007119253E+02  0.15887987339E+02  0.89395440126E+03  0.89723629419E+03  0.00000000000E+00 0. -1.
        -11    1    5    5    0    0  0.48784193715E+02  0.73558367409E+02  0.46241482211E+03  0.47076342114E+03  0.00000000000E+00 0.  1.
          4    1    6    6  503    0  0.14034178281E+03 -0.22129800169E+03  0.60676788099E+03  0.66093561180E+03  0.00000000000E+00 0. -1.
         -4    1    6    6    0  503  0.93603057843E+02 -0.16818311260E+03  0.28122826769E+03  0.34078795511E+03  0.00000000000E+00 0.  1.
<mgrwt>
<rscale>  0 0.54745164E+03</rscale>
<asrwt>0</asrwt>
<pdfrwt beam="1">  1        1 0.40874027E+00 0.54745164E+03</pdfrwt>
<pdfrwt beam="2">  1       -1 0.34535218E-01 0.54745164E+03</pdfrwt>
<totfact> 0.92045354E+00</totfact>
</mgrwt>
</event>
<event>
12    1  0.1444206E-007  0.1196692E+04  0.7818608E-02  0.9115757E-01
         -2   -1    0    0    0  501 -0.00000000000E+00  0.00000000000E+00  0.41537651013E+03  0.41537651013E+03  0.00000000000E+00 0.  1.
          2   -1    0    0  501    0  0.00000000000E+00 -0.00000000000E+00 -0.38393395057E+04  0.38393395057E+04  0.00000000000E+00 0. -1.
         23    2    1    2    0    0 -0.79974266722E+02  0.11857656771E+04 -0.17085690485E+04  0.20832642496E+04  0.91354342448E+02 0.  0.
    5000000    2    1    2    0    0  0.79974266722E+02 -0.11857656771E+04 -0.17153939471E+04  0.21714517662E+04  0.60015852475E+03 0.  0.
         23    2    4    4    0    0  0.44221522097E+02 -0.89859516563E+03 -0.80152843244E+03  0.12085470146E+04  0.93323328908E+02 0.  0.
         23    2    4    4    0    0  0.35752744625E+02 -0.28717051152E+03 -0.91386551468E+03  0.96290475166E+03  0.91050647534E+02 0.  0.
          2    1    3    3  502    0 -0.99218341316E+02  0.88716855025E+03 -0.12878443051E+04  0.15669892373E+04  0.00000000000E+00 0. -1.
         -2    1    3    3    0  502  0.19244074595E+02  0.29859712689E+03 -0.42072474343E+03  0.51627501230E+03  0.00000000000E+00 0.  1.
         11    1    5    5    0    0  0.35132970014E+02 -0.31868359449E+03 -0.23255492537E+03  0.39607493268E+03  0.00000000000E+00 0. -1.
        -11    1    5    5    0    0  0.90885520828E+01 -0.57991157114E+03 -0.56897350707E+03  0.81247208190E+03  0.00000000000E+00 0.  1.
          2    1    6    6  503    0  0.25051095504E+02 -0.16519062081E+02 -0.13468208897E+03  0.13798442625E+03  0.00000000000E+00 0. -1.
         -2    1    6    6    0  503  0.10701649121E+02 -0.27065144944E+03 -0.77918342571E+03  0.82492032541E+03  0.00000000000E+00 0.  1.
<mgrwt>
<rscale>  0 0.11966917E+04</rscale>
<asrwt>0</asrwt>
<pdfrwt beam="1">  1        2 0.59066761E+00 0.11966917E+04</pdfrwt>
<pdfrwt beam="2">  1       -2 0.63904079E-01 0.11966917E+04</pdfrwt>
<totfact> 0.10531733E+00</totfact>
</mgrwt>
</event>
<event>
12    1  0.1444206E-007  0.1550446E+04  0.7818608E-02  0.8851583E-01
          1   -1    0    0  501    0  0.00000000000E+00  0.00000000000E+00  0.17735337571E+04  0.17735337571E+04  0.00000000000E+00 0. -1.
         -1   -1    0    0    0  501 -0.00000000000E+00 -0.00000000000E+00 -0.14519011396E+04  0.14519011396E+04  0.00000000000E+00 0.  1.
         23    2    1    2    0    0 -0.11027419395E+04  0.10838595431E+04  0.21074233119E+03  0.15631698275E+04  0.91083945552E+02 0.  0.
    5000000    2    1    2    0    0  0.11027419395E+04 -0.10838595431E+04  0.11089028626E+03  0.16622650692E+04  0.60003100803E+03 0.  0.
         23    2    4    4    0    0  0.33718598703E+03 -0.34429587310E+03  0.30269890628E+03  0.57663947141E+03  0.93018353256E+02 0.  0.
         23    2    4    4    0    0  0.76555595249E+03 -0.73956366995E+03 -0.19180862002E+03  0.10856255978E+04  0.93605841958E+02 0.  0.
          4    1    3    3  502    0 -0.23812244841E+03  0.22240283982E+03  0.80366404554E+01  0.32592930397E+03  0.00000000000E+00 0. -1.
         -4    1    3    3    0  502 -0.86461949111E+03  0.86145670323E+03  0.20270569073E+03  0.12372405235E+04  0.00000000000E+00 0.  1.
         13    1    5    5    0    0  0.73770474874E+02 -0.34329629732E+02  0.29110890729E+02  0.86417882407E+02  0.00000000000E+00 0. -1.
        -13    1    5    5    0    0  0.26341551216E+03 -0.30996624337E+03  0.27358801555E+03  0.49022158901E+03  0.00000000000E+00 0.  1.
          3    1    6    6  503    0  0.44744476973E+03 -0.38762735065E+03 -0.14064766139E+03  0.60847641663E+03  0.00000000000E+00 0. -1.
         -3    1    6    6    0  503  0.31811118276E+03 -0.35193631930E+03 -0.51160958624E+02  0.47714918121E+03  0.00000000000E+00 0.  1.
<mgrwt>
<rscale>  0 0.15504461E+04</rscale>
<asrwt>0</asrwt>
<pdfrwt beam="1">  1        1 0.27285135E+00 0.15504461E+04</pdfrwt>
<pdfrwt beam="2">  1       -1 0.22336941E+00 0.15504461E+04</pdfrwt>
<totfact> 0.41697287E-01</totfact>
</mgrwt>
</event>
<event>
12    1  0.1444206E-007  0.4355933E+03  0.7818608E-02  0.1032108E+00
          2   -1    0    0  501    0  0.00000000000E+00  0.00000000000E+00  0.14004216037E+04  0.14004216037E+04  0.00000000000E+00 0. -1.
         -2   -1    0    0    0  501 -0.00000000000E+00 -0.00000000000E+00 -0.19923148899E+03  0.19923148899E+03  0.00000000000E+00 0.  1.
         23    2    1    2    0    0  0.10747398118E+02 -0.34875664860E+03  0.37445639717E+03  0.52018332873E+03  0.92878391466E+02 0.  0.
    5000000    2    1    2    0    0 -0.10747398118E+02  0.34875664860E+03  0.82673371756E+03  0.10794697640E+04  0.60001635402E+03 0.  0.
         23    2    4    4    0    0  0.16461606436E+03  0.13197635584E+03  0.74288507342E+03  0.77736243073E+03  0.88870182050E+02 0.  0.
         23    2    4    4    0    0 -0.17536346248E+03  0.21678029276E+03  0.83848644146E+02  0.30210733326E+03  0.80574229015E+02 0.  0.
          2    1    3    3  502    0  0.44784221376E+02 -0.17048137721E+03  0.14940151482E+03  0.23106349580E+03  0.00000000000E+00 0.  1.
         -2    1    3    3    0  502 -0.34036823258E+02 -0.17827527139E+03  0.22505488235E+03  0.28911983293E+03  0.00000000000E+00 0. -1.
         13    1    5    5    0    0  0.37250177916E+02  0.81785510381E+02  0.34815967649E+03  0.35957141960E+03  0.00000000000E+00 0. -1.
        -13    1    5    5    0    0  0.12736588644E+03  0.50190845459E+02  0.39472539693E+03  0.41779101113E+03  0.00000000000E+00 0.  1.
          2    1    6    6  503    0 -0.53920968966E+02  0.24472559522E+02  0.37197620237E+02  0.69928821062E+02  0.00000000000E+00 0. -1.
         -2    1    6    6    0  503 -0.12144249351E+03  0.19230773324E+03  0.46651023908E+02  0.23217851219E+03  0.00000000000E+00 0.  1.
<mgrwt>
<rscale>  0 0.43559328E+03</rscale>
<asrwt>0</asrwt>
<pdfrwt beam="1">  1        2 0.21544947E+00 0.43559328E+03</pdfrwt>
<pdfrwt beam="2">  1       -2 0.30650999E-01 0.43559328E+03</pdfrwt>
<totfact> 0.14930217E+02</totfact>
</mgrwt>
</event>
<event>
12    1  0.1444206E-007  0.1719796E+04  0.7818608E-02  0.8750154E-01
          2   -1    0    0  501    0  0.00000000000E+00  0.00000000000E+00  0.21584063253E+04  0.21584063253E+04  0.00000000000E+00 0. -1.
         -2   -1    0    0    0  501 -0.00000000000E+00 -0.00000000000E+00 -0.18460981003E+04  0.18460981003E+04  0.00000000000E+00 0.  1.
         23    2    1    2    0    0  0.66429238348E+03 -0.15694886517E+04  0.11040036273E+04  0.20318326788E+04  0.70292439832E+02 0.  0.
    5000000    2    1    2    0    0 -0.66429238348E+03  0.15694886517E+04 -0.79169540230E+03  0.19726717468E+04  0.60006100698E+03 0.  0.
         23    2    4    4    0    0 -0.12405679716E+03  0.15435128417E+03 -0.31275836851E+03  0.38096329794E+03  0.90004608005E+02 0.  0.
         23    2    4    4    0    0 -0.54023558632E+03  0.14151373675E+04 -0.47893703379E+03  0.15917084489E+04  0.98421776898E+02 0.  0.
          3    1    3    3  502    0  0.54552334354E+03 -0.13288891414E+04  0.95403099737E+03  0.17244469294E+04  0.00000000000E+00 0. -1.
         -3    1    3    3    0  502  0.11876903994E+03 -0.24059951031E+03  0.14997262994E+03  0.30738574941E+03  0.00000000000E+00 0.  1.
         11    1    5    5    0    0  0.14216575366E+02  0.21450308138E+02 -0.37080320810E+02  0.45135096385E+02  0.00000000000E+00 0. -1.
        -11    1    5    5    0    0 -0.13827337252E+03  0.13290097604E+03 -0.27567804770E+03  0.33582820156E+03  0.00000000000E+00 0.  1.
          2    1    6    6  503    0 -0.26748603532E+03  0.82153792876E+03 -0.24885936869E+03  0.89911308125E+03  0.00000000000E+00 0. -1.
         -2    1    6    6    0  503 -0.27274955100E+03  0.59359943876E+03 -0.23007766510E+03  0.69259536762E+03  0.00000000000E+00 0.  1.
<mgrwt>
<rscale>  0 0.17197957E+04</rscale>
<asrwt>0</asrwt>
<pdfrwt beam="1">  1        2 0.33206251E+00 0.17197957E+04</pdfrwt>
<pdfrwt beam="2">  1       -2 0.28401509E+00 0.17197957E+04</pdfrwt>
<totfact> 0.19838886E-01</totfact>
</mgrwt>
</event>
<event>
12    1  0.1444206E-007  0.6620313E+03  0.7818608E-02  0.9784462E-01
         -1   -1    0    0    0  501 -0.00000000000E+00  0.00000000000E+00  0.41193845352E+03  0.41193845352E+03  0.00000000000E+00 0.  1.
          1   -1    0    0  501    0  0.00000000000E+00 -0.00000000000E+00 -0.24217883204E+04  0.24217883204E+04  0.00000000000E+00 0. -1.
         23    2    1    2    0    0 -0.64338607700E+03  0.88936039229E+02 -0.16675823278E+02  0.65325978691E+03  0.67933813039E+02 0.  0.
    5000000    2    1    2    0    0  0.64338607700E+03 -0.88936039229E+02 -0.19931740436E+04  0.21804669870E+04  0.59986519332E+03 0.  0.
         23    2    4    4    0    0  0.48692119103E+03 -0.69265226783E+02 -0.62420344188E+03  0.79981808119E+03  0.90493691677E+02 0.  0.
         23    2    4    4    0    0  0.15646488598E+03 -0.19670812446E+02 -0.13689706017E+04  0.13806489058E+04  0.85104003062E+02 0.  0.
          1    1    3    3  502    0 -0.62156363862E+03  0.98237124673E+02 -0.14615464167E+02  0.62944856924E+03  0.00000000000E+00 0. -1.
         -1    1    3    3    0  502 -0.21822438382E+02 -0.93010854442E+01 -0.20603591112E+01  0.23811217672E+02  0.00000000000E+00 0.  1.
         13    1    5    5    0    0  0.23708188038E+03 -0.12987875438E+02 -0.23617564561E+03  0.33489616077E+03  0.00000000000E+00 0.  1.
        -13    1    5    5    0    0  0.24983931064E+03 -0.56277351345E+02 -0.38802779626E+03  0.46492192042E+03  0.00000000000E+00 0. -1.
          3    1    6    6  503    0  0.28133341361E+02 -0.38642537973E+02 -0.29083417209E+03  0.29473589244E+03  0.00000000000E+00 0. -1.
         -3    1    6    6    0  503  0.12833154462E+03  0.18971725527E+02 -0.10781364296E+04  0.10859130133E+04  0.00000000000E+00 0.  1.
<mgrwt>
<rscale>  0 0.66203127E+03</rscale>
<asrwt>0</asrwt>
<pdfrwt beam="1">  1        1 0.37258281E+00 0.66203127E+03</pdfrwt>
<pdfrwt beam="2">  1       -1 0.63375147E-01 0.66203127E+03</pdfrwt>
<totfact> 0.41741926E+00</totfact>
</mgrwt>
</event>
<event>
12    1  0.1444206E-007  0.7401354E+03  0.7818608E-02  0.9650955E-01
         -2   -1    0    0    0  501 -0.00000000000E+00  0.00000000000E+00  0.33076114228E+03  0.33076114228E+03  0.00000000000E+00 0.  1.
          2   -1    0    0  501    0  0.00000000000E+00 -0.00000000000E+00 -0.19885490072E+04  0.19885490072E+04  0.00000000000E+00 0. -1.
         23    2    1    2    0    0  0.15301446029E+03 -0.60421598098E+03 -0.27242979378E+03  0.68602173803E+03  0.88980086448E+02 0.  0.
    5000000    2    1    2    0    0 -0.15301446029E+03  0.60421598098E+03 -0.13853580711E+04  0.16332884114E+04  0.59993639078E+03 0.  0.
         23    2    4    4    0    0  0.19872583904E+03  0.36367403999E+03 -0.59600925152E+03  0.73163827879E+03  0.91196362997E+02 0.  0.
         23    2    4    4    0    0 -0.35174029933E+03  0.24054194098E+03 -0.78934881960E+03  0.90165013265E+03  0.91212604140E+02 0.  0.
          4    1    3    3  502    0  0.11595086091E+03 -0.56008535965E+03 -0.24601147401E+03  0.62262497347E+03  0.00000000000E+00 0.  1.
         -4    1    3    3    0  502  0.37063599376E+02 -0.44130621325E+02 -0.26418319773E+02  0.63396764562E+02  0.00000000000E+00 0. -1.
         11    1    5    5    0    0  0.28361209896E+02  0.38700698044E+02 -0.12962119035E+03  0.13821633494E+03  0.00000000000E+00 0.  1.
        -11    1    5    5    0    0  0.17036462914E+03  0.32497334195E+03 -0.46638806117E+03  0.59342194385E+03  0.00000000000E+00 0. -1.
          3    1    6    6  503    0 -0.29157670664E+03  0.23658073967E+03 -0.68008034107E+03  0.77685049562E+03  0.00000000000E+00 0. -1.
         -3    1    6    6    0  503 -0.60163592685E+02  0.39612013082E+01 -0.10926847854E+03  0.12479963703E+03  0.00000000000E+00 0.  1.
<mgrwt>
<rscale>  0 0.74013540E+03</rscale>
<asrwt>0</asrwt>
<pdfrwt beam="1">  1        2 0.30593062E+00 0.74013540E+03</pdfrwt>
<pdfrwt beam="2">  1       -2 0.50886329E-01 0.74013540E+03</pdfrwt>
<totfact> 0.25600042E+01</totfact>
</mgrwt>
</event>
<event>
12    1  0.1444206E-007  0.1006029E+04  0.7818608E-02  0.9301957E-01
          1   -1    0    0  501    0  0.00000000000E+00  0.00000000000E+00  0.19385600804E+04  0.19385600804E+04  0.00000000000E+00 0. -1.
         -1   -1    0    0    0  501 -0.00000000000E+00 -0.00000000000E+00 -0.14853747911E+04  0.14853747911E+04  0.00000000000E+00 0.  1.
         23    2    1    2    0    0 -0.86944394597E+03 -0.35907819309E+03 -0.11387533146E+04  0.14798789681E+04  0.91720907337E+02 0.  0.
    5000000    2    1    2    0    0  0.86944394597E+03  0.35907819309E+03  0.15919386039E+04  0.19440559034E+04  0.60017906729E+03 0.  0.
         23    2    4    4    0    0  0.82398905953E+03  0.45570676392E+03  0.15069265251E+04  0.17787060146E+04  0.79629827899E+02 0.  0.
         23    2    4    4    0    0  0.45454886441E+02 -0.96628570833E+02  0.85012078848E+02  0.16534988877E+03  0.93329013507E+02 0.  0.
          2    1    3    3  502    0 -0.13273657922E+03 -0.78210128874E+02 -0.14731355752E+03  0.21315981786E+03  0.00000000000E+00 0. -1.
         -2    1    3    3    0  502 -0.73670736675E+03 -0.28086806422E+03 -0.99143975708E+03  0.12667191503E+04  0.00000000000E+00 0.  1.
         13    1    5    5    0    0  0.65828834636E+02  0.62848875401E+02  0.13946086804E+03  0.16653152952E+03  0.00000000000E+00 0. -1.
        -13    1    5    5    0    0  0.75816022489E+03  0.39285788852E+03  0.13674656570E+04  0.16121744851E+04  0.00000000000E+00 0.  1.
          4    1    6    6  503    0 -0.11369760631E+02  0.12830257278E+01 -0.11767849838E+02  0.16413406155E+02  0.00000000000E+00 0. -1.
         -4    1    6    6    0  503  0.56824647072E+02 -0.97911596561E+02  0.96779928685E+02  0.14893648261E+03  0.00000000000E+00 0.  1.
<mgrwt>
<rscale>  0 0.10060286E+04</rscale>
<asrwt>0</asrwt>
<pdfrwt beam="1">  1        1 0.29824001E+00 0.10060286E+04</pdfrwt>
<pdfrwt beam="2">  1       -1 0.22851920E+00 0.10060286E+04</pdfrwt>
<totfact> 0.32080758E-01</totfact>
</mgrwt>
</event>
<event>
12    1  0.1444206E-007  0.6354773E+03  0.7818608E-02  0.9834418E-01
         -2   -1    0    0    0  501 -0.00000000000E+00  0.00000000000E+00  0.37437651736E+03  0.37437651736E+03  0.00000000000E+00 0.  1.
          2   -1    0    0  501    0  0.00000000000E+00 -0.00000000000E+00 -0.15085070663E+04  0.15085070663E+04  0.00000000000E+00 0. -1.
         23    2    1    2    0    0  0.37786411337E+02  0.53217805737E+03 -0.63401211559E+02  0.54480920110E+03  0.90310876126E+02 0.  0.
    5000000    2    1    2    0    0 -0.37786411337E+02 -0.53217805737E+03 -0.10707293374E+04  0.13380743826E+04  0.59945011613E+03 0.  0.
         23    2    4    4    0    0  0.19241353817E+03 -0.99723557448E+02 -0.62986042289E+03  0.67264421529E+03  0.93585952250E+02 0.  0.
         23    2    4    4    0    0 -0.23019994951E+03 -0.43245449992E+03 -0.44086891450E+03  0.66543016728E+03  0.91776884366E+02 0.  0.
          1    1    3    3  502    0 -0.27640323202E+02  0.22171317288E+03 -0.15968652794E+02  0.22399936689E+03  0.00000000000E+00 0. -1.
         -1    1    3    3    0  502  0.65426734538E+02  0.31046488449E+03 -0.47432558765E+02  0.32080983421E+03  0.00000000000E+00 0.  1.
         11    1    5    5    0    0  0.13442881792E+03 -0.11406538733E+03 -0.46570159183E+03  0.49795581361E+03  0.00000000000E+00 0. -1.
        -11    1    5    5    0    0  0.57984720249E+02  0.14341829882E+02 -0.16415883106E+03  0.17468840168E+03  0.00000000000E+00 0.  1.
          2    1    6    6  503    0 -0.99443794493E+02 -0.25561791017E+03 -0.28722094109E+03  0.39714663949E+03  0.00000000000E+00 0. -1.
         -2    1    6    6    0  503 -0.13075615501E+03 -0.17683658975E+03 -0.15364797341E+03  0.26828352779E+03  0.00000000000E+00 0.  1.
<mgrwt>
<rscale>  0 0.63547727E+03</rscale>
<asrwt>0</asrwt>
<pdfrwt beam="1">  1        2 0.23207801E+00 0.63547727E+03</pdfrwt>
<pdfrwt beam="2">  1       -2 0.57596387E-01 0.63547727E+03</pdfrwt>
<totfact> 0.36759525E+01</totfact>
</mgrwt>
</event>
<event>
12    1  0.1444206E-007  0.6551277E+03  0.7818608E-02  0.9797205E-01
          2   -1    0    0  501    0  0.00000000000E+00  0.00000000000E+00  0.13726595247E+04  0.13726595247E+04  0.00000000000E+00 0. -1.
         -2   -1    0    0    0  501 -0.00000000000E+00 -0.00000000000E+00 -0.65226374664E+03  0.65226374664E+03  0.00000000000E+00 0.  1.
         23    2    1    2    0    0  0.36640098354E+03 -0.42097625564E+03 -0.35884504183E+03  0.66977376725E+03  0.91413602371E+02 0.  0.
    5000000    2    1    2    0    0 -0.36640098354E+03  0.42097625564E+03  0.10792408199E+04  0.13551495041E+04  0.60016559597E+03 0.  0.
         23    2    4    4    0    0  0.89894039581E+02 -0.17205510703E+02  0.41655925277E+03  0.43470702284E+03  0.84092905071E+02 0.  0.
         23    2    4    4    0    0 -0.45629502312E+03  0.43818176634E+03  0.66268156716E+03  0.92044248130E+03  0.88651528110E+02 0.  0.
          4    1    3    3  502    0  0.44899544556E+02 -0.95433935049E+02 -0.43479452505E+02  0.11407921743E+03  0.00000000000E+00 0. -1.
         -4    1    3    3    0  502  0.32150143899E+03 -0.32554232059E+03 -0.31536558932E+03  0.55569454982E+03  0.00000000000E+00 0.  1.
         11    1    5    5    0    0  0.20944463654E+02 -0.36092088820E+02  0.75777604670E+02  0.86507541883E+02  0.00000000000E+00 0. -1.
        -11    1    5    5    0    0  0.68949575926E+02  0.18886578117E+02  0.34078164810E+03  0.34819948096E+03  0.00000000000E+00 0.  1.
          3    1    6    6  503    0 -0.16915009462E+03  0.13466491427E+03  0.28082086067E+03  0.35441042512E+03  0.00000000000E+00 0. -1.
         -3    1    6    6    0  503 -0.28714492850E+03  0.30351685208E+03  0.38186070649E+03  0.56603205618E+03  0.00000000000E+00 0.  1.
<mgrwt>
<rscale>  0 0.65512772E+03</rscale>
<asrwt>0</asrwt>
<pdfrwt beam="1">  1        2 0.21117839E+00 0.65512772E+03</pdfrwt>
<pdfrwt beam="2">  1       -2 0.10034827E+00 0.65512772E+03</pdfrwt>
<totfact> 0.12727599E+01</totfact>
</mgrwt>
</event>
<event>
12    1  0.1444206E-007  0.1179090E+04  0.7818608E-02  0.9131358E-01
          2   -1    0    0  501    0  0.00000000000E+00  0.00000000000E+00  0.36071248206E+04  0.36071248206E+04  0.00000000000E+00 0.  1.
         -2   -1    0    0    0  501 -0.00000000000E+00 -0.00000000000E+00 -0.58903519539E+03  0.58903519539E+03  0.00000000000E+00 0. -1.
         23    2    1    2    0    0 -0.83659883026E+03  0.76123375262E+03  0.27485681556E+03  0.11685928171E+04  0.10338507710E+03 0.  0.
    5000000    2    1    2    0    0  0.83659883026E+03 -0.76123375262E+03  0.27432328096E+04  0.30275671989E+04  0.60121748732E+03 0.  0.
         23    2    4    4    0    0  0.20938031217E+03 -0.50795362753E+03  0.86098920098E+03  0.10255227910E+04  0.92399068053E+02 0.  0.
         23    2    4    4    0    0  0.62721851809E+03 -0.25328012508E+03  0.18822436087E+04  0.20020444079E+04  0.88243513797E+02 0.  0.
          3    1    3    3  502    0 -0.72085104186E+03  0.64266943427E+03  0.27022733389E+03  0.10028325076E+04  0.00000000000E+00 0. -1.
         -3    1    3    3    0  502 -0.11574778840E+03  0.11856431834E+03  0.46294816786E+01  0.16576030950E+03  0.00000000000E+00 0.  1.
         11    1    5    5    0    0  0.44477464849E+02 -0.14409861004E+03  0.31241286676E+03  0.34690698121E+03  0.00000000000E+00 0. -1.
        -11    1    5    5    0    0  0.16490284733E+03 -0.36385501750E+03  0.54857633422E+03  0.67861580978E+03  0.00000000000E+00 0.  1.
          2    1    6    6  503    0  0.29972770278E+03 -0.12464422455E+03  0.77484464832E+03  0.84009351120E+03  0.00000000000E+00 0. -1.
         -2    1    6    6    0  503  0.32749081531E+03 -0.12863590053E+03  0.11073989603E+04  0.11619508967E+04  0.00000000000E+00 0.  1.
<mgrwt>
<rscale>  0 0.11790900E+04</rscale>
<asrwt>0</asrwt>
<pdfrwt beam="1">  1        2 0.55494227E+00 0.11790900E+04</pdfrwt>
<pdfrwt beam="2">  1       -2 0.90620801E-01 0.11790900E+04</pdfrwt>
<totfact> 0.71504763E-01</totfact>
</mgrwt>
</event>
<event>
12    1  0.1444206E-007  0.6940788E+03  0.7818608E-02  0.9727412E-01
          3   -1    0    0  501    0  0.00000000000E+00  0.00000000000E+00  0.55257198557E+03  0.55257198557E+03  0.00000000000E+00 0. -1.
         -3   -1    0    0    0  501 -0.00000000000E+00 -0.00000000000E+00 -0.14636083855E+04  0.14636083855E+04  0.00000000000E+00 0.  1.
         23    2    1    2    0    0  0.20159442182E+03 -0.54788492765E+03 -0.10135962703E+04  0.11727556288E+04  0.84617734479E+02 0.  0.
    5000000    2    1    2    0    0 -0.20159442182E+03  0.54788492765E+03  0.10255987029E+03  0.84342474229E+03  0.60002380290E+03 0.  0.
         23    2    4    4    0    0 -0.10768354107E+03  0.64017315912E+03  0.11096624130E+02  0.65558243475E+03  0.90817261592E+02 0.  0.
         23    2    4    4    0    0 -0.93910880743E+02 -0.92288231474E+02  0.91463246160E+02  0.18784230754E+03  0.97891960406E+02 0.  0.
          3    1    3    3  502    0  0.13169756765E+03 -0.40813007000E+03 -0.67299048034E+03  0.79801666022E+03  0.00000000000E+00 0.  1.
         -3    1    3    3    0  502  0.69896854162E+02 -0.13975485765E+03 -0.34060578991E+03  0.37473896859E+03  0.00000000000E+00 0. -1.
         13    1    5    5    0    0 -0.83189159514E+02  0.59642034542E+03 -0.71120169548E+01  0.60223603801E+03  0.00000000000E+00 0.  1.
        -13    1    5    5    0    0 -0.24494381560E+02  0.43752813707E+02  0.18208641085E+02  0.53346396743E+02  0.00000000000E+00 0. -1.
          2    1    6    6  503    0 -0.21991795326E+02 -0.73011118820E+02  0.83313532951E+02  0.11293983932E+03  0.00000000000E+00 0.  1.
         -2    1    6    6    0  503 -0.71919085416E+02 -0.19277112654E+02  0.81497132086E+01  0.74902468216E+02  0.00000000000E+00 0. -1.
<mgrwt>
<rscale>  0 0.69407878E+03</rscale>
<asrwt>0</asrwt>
<pdfrwt beam="1">  1        3 0.85011075E-01 0.69407878E+03</pdfrwt>
<pdfrwt beam="2">  1       -3 0.22517052E+00 0.69407878E+03</pdfrwt>
<totfact> 0.34111005E-01</totfact>
</mgrwt>
</event>
<event>
12    1  0.1444206E-007  0.6564087E+03  0.7818608E-02  0.9794827E-01
         -1   -1    0    0    0  501 -0.00000000000E+00  0.00000000000E+00  0.61668603141E+03  0.61668603141E+03  0.00000000000E+00 0.  1.
          1   -1    0    0  501    0  0.00000000000E+00 -0.00000000000E+00 -0.84629466633E+03  0.84629466633E+03  0.00000000000E+00 0. -1.
         23    2    1    2    0    0  0.52084855163E+03 -0.13083291926E+03 -0.35706532319E+03  0.64769882077E+03  0.60146910982E+02 0.  0.
    5000000    2    1    2    0    0 -0.52084855163E+03  0.13083291926E+03  0.12745668827E+03  0.81528187697E+03  0.60003238665E+03 0.  0.
         23    2    4    4    0    0 -0.46446251914E+03 -0.13665869177E+03  0.17429288271E+03  0.52361539178E+03  0.96922855027E+02 0.  0.
         23    2    4    4    0    0 -0.56386032487E+02  0.26749161103E+03 -0.46836194437E+02  0.29166648518E+03  0.90247231743E+02 0.  0.
          3    1    3    3  502    0  0.47709730797E+03 -0.11890457875E+03 -0.30479225464E+03  0.57849672308E+03  0.00000000000E+00 0. -1.
         -3    1    3    3    0  502  0.43751243656E+02 -0.11928340516E+02 -0.52273068553E+02  0.69202097691E+02  0.00000000000E+00 0.  1.
         13    1    5    5    0    0 -0.44533206816E+03 -0.14303902961E+03  0.14823877082E+03  0.49066847066E+03  0.00000000000E+00 0. -1.
        -13    1    5    5    0    0 -0.19130450981E+02  0.63803378357E+01  0.26054111883E+02  0.32946921125E+02  0.00000000000E+00 0.  1.
          1    1    6    6  503    0 -0.78463343032E+02  0.16082893536E+03 -0.27950833216E+02  0.18111789455E+03  0.00000000000E+00 0. -1.
         -1    1    6    6    0  503  0.22077310545E+02  0.10666267567E+03 -0.18885361221E+02  0.11054859063E+03  0.00000000000E+00 0.  1.
<mgrwt>
<rscale>  0 0.65640872E+03</rscale>
<asrwt>0</asrwt>
<pdfrwt beam="1">  1        1 0.13019918E+00 0.65640872E+03</pdfrwt>
<pdfrwt beam="2">  1       -1 0.94874775E-01 0.65640872E+03</pdfrwt>
<totfact> 0.22512744E+01</totfact>
</mgrwt>
</event>
<event>
12    1  0.1444206E-007  0.3942172E+03  0.7818608E-02  0.1045801E+00
          1   -1    0    0  501    0  0.00000000000E+00  0.00000000000E+00  0.72771543794E+03  0.72771543794E+03  0.00000000000E+00 0. -1.
         -1   -1    0    0    0  501 -0.00000000000E+00 -0.00000000000E+00 -0.33832866288E+03  0.33832866288E+03  0.00000000000E+00 0.  1.
         23    2    1    2    0    0 -0.17865336662E+03  0.24773335980E+03  0.12075052817E+03  0.34048988411E+03  0.89798820514E+02 0.  0.
    5000000    2    1    2    0    0  0.17865336662E+03 -0.24773335980E+03  0.26863624689E+03  0.72555421671E+03  0.60081165541E+03 0.  0.
         23    2    4    4    0    0  0.52373972174E+02 -0.30750423892E+03  0.39789109920E+03  0.51481513892E+03  0.97033038305E+02 0.  0.
         23    2    4    4    0    0  0.12627939444E+03  0.59770879123E+02 -0.12925485231E+03  0.21073907779E+03  0.90471534800E+02 0.  0.
          1    1    3    3  502    0 -0.83693946350E+02  0.69013991895E+02  0.78850790293E+01  0.10876480223E+03  0.00000000000E+00 0. -1.
         -1    1    3    3    0  502 -0.94959420268E+02  0.17871936791E+03  0.11286544914E+03  0.23172508188E+03  0.00000000000E+00 0.  1.
         13    1    5    5    0    0  0.63476199173E+02 -0.17782481248E+03  0.17914405177E+03  0.26027578273E+03  0.00000000000E+00 0.  1.
        -13    1    5    5    0    0 -0.11102227000E+02 -0.12967942645E+03  0.21874704744E+03  0.25453935619E+03  0.00000000000E+00 0. -1.
          1    1    6    6  503    0  0.97620761398E+02  0.77729403151E+02 -0.12504487574E+03  0.17665756174E+03  0.00000000000E+00 0. -1.
         -1    1    6    6    0  503  0.28658633046E+02 -0.17958524028E+02 -0.42099765627E+01  0.34081516046E+02  0.00000000000E+00 0.  1.
<mgrwt>
<rscale>  0 0.39421722E+03</rscale>
<asrwt>0</asrwt>
<pdfrwt beam="1">  1        1 0.11195622E+00 0.39421722E+03</pdfrwt>
<pdfrwt beam="2">  1       -1 0.52050564E-01 0.39421722E+03</pdfrwt>
<totfact> 0.10068275E+02</totfact>
</mgrwt>
</event>
<event>
12    1  0.1444206E-007  0.6124850E+03  0.7818608E-02  0.9879837E-01
         -1   -1    0    0    0  501 -0.00000000000E+00  0.00000000000E+00  0.37454699821E+03  0.37454699821E+03  0.00000000000E+00 0. -1.
          1   -1    0    0  501    0  0.00000000000E+00 -0.00000000000E+00 -0.15347019038E+04  0.15347019038E+04  0.00000000000E+00 0.  1.
         23    2    1    2    0    0 -0.26739048539E+03  0.49978158359E+03 -0.85344795847E+03  0.10286783306E+04  0.92338437745E+02 0.  0.
    5000000    2    1    2    0    0  0.26739048539E+03 -0.49978158359E+03 -0.30670694712E+03  0.88057057140E+03  0.60004672887E+03 0.  0.
         23    2    4    4    0    0  0.31654656265E+03 -0.34626988098E+03 -0.44211609165E+03  0.65116273402E+03  0.91878783645E+02 0.  0.
         23    2    4    4    0    0 -0.49156077256E+02 -0.15351170261E+03  0.13540914453E+03  0.22940783738E+03  0.91160060663E+02 0.  0.
          1    1    3    3  502    0 -0.25702434902E+03  0.41938568075E+03 -0.75585711861E+03  0.90181253537E+03  0.00000000000E+00 0. -1.
         -1    1    3    3    0  502 -0.10366136369E+02  0.80395902844E+02 -0.97590839863E+02  0.12686579524E+03  0.00000000000E+00 0.  1.
         11    1    5    5    0    0  0.68600080396E+02 -0.45942955982E+02 -0.12053261807E+03  0.14609872776E+03  0.00000000000E+00 0. -1.
        -11    1    5    5    0    0  0.24794648225E+03 -0.30032692500E+03 -0.32158347358E+03  0.50506400626E+03  0.00000000000E+00 0.  1.
          1    1    6    6  503    0 -0.42472542560E+02 -0.21087797787E+02  0.61332168046E+02  0.77525782319E+02  0.00000000000E+00 0. -1.
         -1    1    6    6    0  503 -0.66835346951E+01 -0.13242390482E+03  0.74076976483E+02  0.15188205506E+03  0.00000000000E+00 0.  1.
<mgrwt>
<rscale>  0 0.61248497E+03</rscale>
<asrwt>0</asrwt>
<pdfrwt beam="1">  1        1 0.23610798E+00 0.61248497E+03</pdfrwt>
<pdfrwt beam="2">  1       -1 0.57622616E-01 0.61248497E+03</pdfrwt>
<totfact> 0.19945472E+01</totfact>
</mgrwt>
</event>
<event>
12    1  0.1444206E-007  0.8599634E+03  0.7818608E-02  0.9477061E-01
          1   -1    0    0  501    0  0.00000000000E+00  0.00000000000E+00  0.12965474711E+04  0.12965474711E+04  0.00000000000E+00 0. -1.
         -1   -1    0    0    0  501 -0.00000000000E+00 -0.00000000000E+00 -0.65518017880E+03  0.65518017880E+03  0.00000000000E+00 0.  1.
         23    2    1    2    0    0 -0.62625686006E+03  0.52491509387E+03  0.37569440035E+03  0.90382247763E+03  0.89528085368E+02 0.  0.
    5000000    2    1    2    0    0  0.62625686006E+03 -0.52491509387E+03  0.26567289194E+03  0.10479051722E+04  0.59982468603E+03 0.  0.
         23    2    4    4    0    0  0.16133109325E+03 -0.37877018650E+03  0.34849949740E+03  0.54519360750E+03  0.79306961509E+02 0.  0.
         23    2    4    4    0    0  0.46492576681E+03 -0.14614490737E+03 -0.82826605457E+02  0.50271156475E+03  0.91347513168E+02 0.  0.
          4    1    3    3  502    0 -0.46253274598E+03  0.35266767531E+03  0.23264798834E+03  0.62644721789E+03  0.00000000000E+00 0. -1.
         -4    1    3    3    0  502 -0.16372411408E+03  0.17224741856E+03  0.14304641201E+03  0.27737525975E+03  0.00000000000E+00 0.  1.
         13    1    5    5    0    0  0.58827744959E+02 -0.16940686932E+03  0.10367648403E+03  0.20714295617E+03  0.00000000000E+00 0.  1.
        -13    1    5    5    0    0  0.10250334829E+03 -0.20936331718E+03  0.24482301337E+03  0.33805065134E+03  0.00000000000E+00 0. -1.
          3    1    6    6  503    0  0.27027349157E+03 -0.70080870878E+02 -0.90709424913E+02  0.29357671651E+03  0.00000000000E+00 0. -1.
         -3    1    6    6    0  503  0.19465227524E+03 -0.76064036491E+02  0.78828194567E+01  0.20913484823E+03  0.00000000000E+00 0.  1.
<mgrwt>
<rscale>  0 0.85996337E+03</rscale>
<asrwt>0</asrwt>
<pdfrwt beam="1">  1        1 0.19946884E+00 0.85996337E+03</pdfrwt>
<pdfrwt beam="2">  1       -1 0.10079695E+00 0.85996337E+03</pdfrwt>
<totfact> 0.86911764E+00</totfact>
</mgrwt>
</event>
<event>
12    1  0.1444206E-007  0.3565743E+03  0.7818608E-02  0.1059949E+00
          2   -1    0    0  501    0  0.00000000000E+00  0.00000000000E+00  0.30764157324E+04  0.30764157324E+04  0.00000000000E+00 0. -1.
         -2   -1    0    0    0  501 -0.00000000000E+00 -0.00000000000E+00 -0.59282171662E+02  0.59282171662E+02  0.00000000000E+00 0.  1.
         23    2    1    2    0    0  0.58646311938E+02 -0.18980230279E+03  0.91515802564E+03  0.94075321219E+03  0.89655397443E+02 0.  0.
    5000000    2    1    2    0    0 -0.58646311938E+02  0.18980230279E+03  0.21019755351E+04  0.21949446919E+04  0.60001395501E+03 0.  0.
         23    2    4    4    0    0  0.18707237027E+03 -0.86672735649E+01  0.31149858204E+03  0.37440395686E+03  0.89865248861E+02 0.  0.
         23    2    4    4    0    0 -0.24571868221E+03  0.19846957636E+03  0.17904769531E+04  0.18205407350E+04  0.93771023655E+02 0.  0.
          4    1    3    3  502    0  0.33829538425E+02 -0.81186227765E+02  0.22357019790E+03  0.24024836032E+03  0.00000000000E+00 0. -1.
         -4    1    3    3    0  502  0.24816773513E+02 -0.10861607503E+03  0.69158782774E+03  0.70050485186E+03  0.00000000000E+00 0.  1.
         13    1    5    5    0    0  0.73444882833E+02 -0.13540906239E+02  0.51786667620E+02  0.90881053577E+02  0.00000000000E+00 0. -1.
        -13    1    5    5    0    0  0.11362748744E+03  0.48736326743E+01  0.25971191442E+03  0.28352290329E+03  0.00000000000E+00 0.  1.
          1    1    6    6  503    0 -0.12233226865E+03  0.49585431307E+02  0.87156294640E+03  0.88150205246E+03  0.00000000000E+00 0.  1.
         -1    1    6    6    0  503 -0.12338641356E+03  0.14888414505E+03  0.91891400669E+03  0.93903868258E+03  0.00000000000E+00 0. -1.
<mgrwt>
<rscale>  0 0.35657431E+03</rscale>
<asrwt>0</asrwt>
<pdfrwt beam="1">  1        2 0.47329460E+00 0.35657431E+03</pdfrwt>
<pdfrwt beam="2">  1       -2 0.91203365E-02 0.35657431E+03</pdfrwt>
<totfact> 0.14078462E+02</totfact>
</mgrwt>
</event>
<event>
12    1  0.1575831E-007  0.1451492E+04  0.7818608E-02  0.8917367E-01
         -1   -1    0    0    0  501 -0.00000000000E+00  0.00000000000E+00  0.16634682104E+04  0.16634682104E+04  0.00000000000E+00 0.  1.
          1   -1    0    0  501    0  0.00000000000E+00 -0.00000000000E+00 -0.13068442408E+04  0.13068442408E+04  0.00000000000E+00 0. -1.
         23    2    1    2    0    0  0.73064917805E+03  0.12005325442E+04  0.36739362012E+02  0.14091011140E+04  0.95339172332E+02 0.  0.
    5000000    2    1    2    0    0 -0.73064917805E+03 -0.12005325442E+04  0.31988460756E+03  0.15612113372E+04  0.59994005216E+03 0.  0.
         23    2    4    4    0    0 -0.70062380964E+03 -0.12049592659E+04  0.37800099977E+03  0.14469221358E+04  0.88872696707E+02 0.  0.
         23    2    4    4    0    0 -0.30025368413E+02  0.44267217240E+01 -0.58116392209E+02  0.11428920136E+03  0.93612968597E+02 0.  0.
          1    1    3    3  502    0  0.38206905363E+03  0.71835427270E+03  0.21198688590E+02  0.81391584777E+03  0.00000000000E+00 0. -1.
         -1    1    3    3    0  502  0.34858012443E+03  0.48217827146E+03  0.15540673422E+02  0.59518526623E+03  0.00000000000E+00 0.  1.
         11    1    5    5    0    0 -0.47493604016E+03 -0.73986267499E+03  0.25724717233E+03  0.91604428264E+03  0.00000000000E+00 0.  1.
        -11    1    5    5    0    0 -0.22568776948E+03 -0.46509659089E+03  0.12075382745E+03  0.53087785318E+03  0.00000000000E+00 0. -1.
          3    1    6    6  503    0  0.33924636973E+02  0.48272450404E+01 -0.16905951967E+02  0.38209874382E+02  0.00000000000E+00 0. -1.
         -3    1    6    6    0  503 -0.63950005385E+02 -0.40052331641E+00 -0.41210440242E+02  0.76079326973E+02  0.00000000000E+00 0.  1.
<mgrwt>
<rscale>  0 0.14514919E+04</rscale>
<asrwt>0</asrwt>
<pdfrwt beam="1">  1        1 0.20105296E+00 0.14514919E+04</pdfrwt>
<pdfrwt beam="2">  1       -1 0.25591819E+00 0.14514919E+04</pdfrwt>
<totfact> 0.54335681E-01</totfact>
</mgrwt>
</event>
<event>
12    1  0.1444206E-007  0.5579179E+03  0.7818608E-02  0.9996777E-01
          2   -1    0    0  501    0  0.00000000000E+00  0.00000000000E+00  0.53639293341E+03  0.53639293341E+03  0.00000000000E+00 0. -1.
         -2   -1    0    0    0  501 -0.00000000000E+00 -0.00000000000E+00 -0.63612668422E+03  0.63612668422E+03  0.00000000000E+00 0.  1.
         23    2    1    2    0    0  0.12913647613E+03  0.39318322509E+03  0.55352128847E+02  0.42719902665E+03  0.90365215903E+02 0.  0.
    5000000    2    1    2    0    0 -0.12913647613E+03 -0.39318322509E+03 -0.15508587966E+03  0.74532059098E+03  0.60015154362E+03 0.  0.
         23    2    4    4    0    0 -0.13588185820E+02  0.13185824549E+03 -0.11349416506E+03  0.19853863800E+03  0.94685952394E+02 0.  0.
         23    2    4    4    0    0 -0.11554829031E+03 -0.52504147058E+03 -0.41591714602E+02  0.54678195297E+03  0.90667966524E+02 0.  0.
          3    1    3    3  502    0  0.77954001476E+02  0.14082604679E+03 -0.10857243319E+02  0.16132786967E+03  0.00000000000E+00 0. -1.
         -3    1    3    3    0  502  0.51182474658E+02  0.25235717830E+03  0.66209372165E+02  0.26587115698E+03  0.00000000000E+00 0.  1.
         13    1    5    5    0    0  0.33801805842E+02  0.23139530686E+02 -0.12677936156E+02  0.42880415386E+02  0.00000000000E+00 0.  1.
        -13    1    5    5    0    0 -0.47389991662E+02  0.10871871480E+03 -0.10081622890E+03  0.15565822262E+03  0.00000000000E+00 0. -1.
          2    1    6    6  503    0 -0.95174947518E+02 -0.40297033410E+03  0.62307131646E+01  0.41410407217E+03  0.00000000000E+00 0. -1.
         -2    1    6    6    0  503 -0.20373342796E+02 -0.12207113648E+03 -0.47822427767E+02  0.13267788081E+03  0.00000000000E+00 0.  1.
<mgrwt>
<rscale>  0 0.55791794E+03</rscale>
<asrwt>0</asrwt>
<pdfrwt beam="1">  1        2 0.82521990E-01 0.55791794E+03</pdfrwt>
<pdfrwt beam="2">  1       -2 0.97865643E-01 0.55791794E+03</pdfrwt>
<totfact> 0.50636782E+01</totfact>
</mgrwt>
</event>
<event>
12    1  0.1444206E-007  0.5405206E+03  0.7818608E-02  0.1003712E+00
         -1   -1    0    0    0  501 -0.00000000000E+00  0.00000000000E+00  0.37927852527E+03  0.37927852527E+03  0.00000000000E+00 0.  1.
          1   -1    0    0  501    0  0.00000000000E+00 -0.00000000000E+00 -0.10607771869E+04  0.10607771869E+04  0.00000000000E+00 0. -1.
         23    2    1    2    0    0 -0.46651799614E+03  0.70124023354E+02 -0.12538318555E+03  0.49574317280E+03  0.86509714962E+02 0.  0.
    5000000    2    1    2    0    0  0.46651799614E+03 -0.70124023354E+02 -0.55611547610E+03  0.94431253940E+03  0.59992110309E+03 0.  0.
         23    2    4    4    0    0  0.50516587244E+03 -0.77782203633E+02 -0.63472987517E+03  0.82006259215E+03  0.91531474012E+02 0.  0.
         23    2    4    4    0    0 -0.38647876301E+02  0.76581802795E+01  0.78614399066E+02  0.12424994725E+03  0.87781088983E+02 0.  0.
          3    1    3    3  502    0 -0.23022388740E+03 -0.65290442870E+01 -0.45225738400E+02  0.23471479324E+03  0.00000000000E+00 0. -1.
         -3    1    3    3    0  502 -0.23629410874E+03  0.76653067641E+02 -0.80157447151E+02  0.26102837956E+03  0.00000000000E+00 0.  1.
         13    1    5    5    0    0  0.33540064248E+03 -0.50508817390E+02 -0.34957823977E+03  0.48708282389E+03  0.00000000000E+00 0. -1.
        -13    1    5    5    0    0  0.16976522996E+03 -0.27273386243E+02 -0.28515163539E+03  0.33297976826E+03  0.00000000000E+00 0.  1.
          3    1    6    6  503    0  0.19104176113E+02 -0.19558218065E+02  0.43522650501E+02  0.51397612254E+02  0.00000000000E+00 0. -1.
         -3    1    6    6    0  503 -0.57752052414E+02  0.27216398344E+02  0.35091748565E+02  0.72852334995E+02  0.00000000000E+00 0.  1.
<mgrwt>
<rscale>  0 0.54052063E+03</rscale>
<asrwt>0</asrwt>
<pdfrwt beam="1">  1        1 0.16319649E+00 0.54052063E+03</pdfrwt>
<pdfrwt beam="2">  1       -1 0.58350543E-01 0.54052063E+03</pdfrwt>
<totfact> 0.42527446E+01</totfact>
</mgrwt>
</event>
<event>
12    1  0.1444206E-007  0.1004018E+04  0.7818608E-02  0.9304149E-01
         -2   -1    0    0    0  501 -0.00000000000E+00  0.00000000000E+00  0.11622787542E+04  0.11622787542E+04  0.00000000000E+00 0. -1.
          2   -1    0    0  501    0  0.00000000000E+00 -0.00000000000E+00 -0.10574160092E+04  0.10574160092E+04  0.00000000000E+00 0.  1.
         23    2    1    2    0    0 -0.50140700481E+03  0.84969479904E+03  0.32757233663E+03  0.10436620836E+04  0.92394118320E+02 0.  0.
    5000000    2    1    2    0    0  0.50140700481E+03 -0.84969479904E+03 -0.22270959168E+03  0.11760326798E+04  0.60005255249E+03 0.  0.
         23    2    4    4    0    0  0.21584563034E+03 -0.58790592334E+03 -0.39170554683E+03  0.74422521271E+03  0.90637856262E+02 0.  0.
         23    2    4    4    0    0  0.28556137447E+03 -0.26178887571E+03  0.16899595515E+03  0.43180746709E+03  0.88427041933E+02 0.  0.
          2    1    3    3  502    0 -0.11833644077E+03  0.28318636507E+03  0.10953504552E+03  0.32587721119E+03  0.00000000000E+00 0. -1.
         -2    1    3    3    0  502 -0.38307056404E+03  0.56650843397E+03  0.21803729111E+03  0.71778487244E+03  0.00000000000E+00 0.  1.
         11    1    5    5    0    0  0.76164264530E+02 -0.30416613300E+03 -0.23113038389E+03  0.38953727166E+03  0.00000000000E+00 0.  1.
        -11    1    5    5    0    0  0.13968136581E+03 -0.28373979034E+03 -0.16057516295E+03  0.35468794106E+03  0.00000000000E+00 0. -1.
          2    1    6    6  503    0  0.24132790120E+03 -0.21863007712E+03  0.10333597485E+03  0.34163809831E+03  0.00000000000E+00 0. -1.
         -2    1    6    6    0  503  0.44233473273E+02 -0.43158798586E+02  0.65659980303E+02  0.90169368782E+02  0.00000000000E+00 0.  1.
<mgrwt>
<rscale>  0 0.10040176E+04</rscale>
<asrwt>0</asrwt>
<pdfrwt beam="1">  1        2 0.16267939E+00 0.10040176E+04</pdfrwt>
<pdfrwt beam="2">  1       -2 0.17881211E+00 0.10040176E+04</pdfrwt>
<totfact> 0.42404452E+00</totfact>
</mgrwt>
</event>
<event>
12    1  0.1444206E-007  0.9883460E+03  0.7818608E-02  0.9321420E-01
          1   -1    0    0  501    0  0.00000000000E+00  0.00000000000E+00  0.34206081802E+03  0.34206081802E+03  0.00000000000E+00 0. -1.
         -1   -1    0    0    0  501 -0.00000000000E+00 -0.00000000000E+00 -0.35063812752E+04  0.35063812752E+04  0.00000000000E+00 0.  1.
         23    2    1    2    0    0  0.89786441954E+03 -0.11698796996E+03 -0.67683346564E+03  0.11341288391E+04  0.91093263160E+02 0.  0.
    5000000    2    1    2    0    0 -0.89786441954E+03  0.11698796996E+03 -0.24874869916E+04  0.27143132541E+04  0.60004850398E+03 0.  0.
         23    2    4    4    0    0 -0.10952098223E+03 -0.18294945970E+03 -0.43124628337E+03  0.48997086573E+03  0.92912550218E+02 0.  0.
         23    2    4    4    0    0 -0.78834343731E+03  0.29993742966E+03 -0.20562407082E+04  0.22243423884E+04  0.90140855163E+02 0.  0.
          4    1    3    3  502    0  0.32211695742E+03 -0.10087957595E+02 -0.27812500662E+03  0.42569310595E+03  0.00000000000E+00 0. -1.
         -4    1    3    3    0  502  0.57574746212E+03 -0.10690001236E+03 -0.39870845901E+03  0.70843573320E+03  0.00000000000E+00 0.  1.
         11    1    5    5    0    0 -0.80965971050E+02 -0.17527164284E+03 -0.41113366597E+03  0.45420978473E+03  0.00000000000E+00 0.  1.
        -11    1    5    5    0    0 -0.28555011181E+02 -0.76778168590E+01 -0.20112617399E+02  0.35761080995E+02  0.00000000000E+00 0. -1.
          4    1    6    6  503    0 -0.44549045984E+03  0.20527904741E+03 -0.11141914441E+04  0.12173840032E+04  0.00000000000E+00 0. -1.
         -4    1    6    6    0  503 -0.34285297746E+03  0.94658382250E+02 -0.94204926412E+03  0.10069583852E+04  0.00000000000E+00 0.  1.
<mgrwt>
<rscale>  0 0.98834598E+03</rscale>
<asrwt>0</asrwt>
<pdfrwt beam="1">  1        1 0.52624744E-01 0.98834598E+03</pdfrwt>
<pdfrwt beam="2">  1       -1 0.53944324E+00 0.98834598E+03</pdfrwt>
<totfact> 0.63831433E-02</totfact>
</mgrwt>
</event>
<event>
12    1  0.1444206E-007  0.1835415E+04  0.7818608E-02  0.8687690E-01
          2   -1    0    0  501    0  0.00000000000E+00  0.00000000000E+00  0.34602471075E+04  0.34602471075E+04  0.00000000000E+00 0. -1.
         -2   -1    0    0    0  501 -0.00000000000E+00 -0.00000000000E+00 -0.10296080546E+04  0.10296080546E+04  0.00000000000E+00 0.  1.
         23    2    1    2    0    0 -0.12713527133E+04 -0.12975073246E+04  0.15252519209E+04  0.23735890700E+04  0.87570953891E+02 0.  0.
    5000000    2    1    2    0    0  0.12713527133E+04  0.12975073246E+04  0.90538713207E+03  0.21162660922E+04  0.59916052523E+03 0.  0.
         23    2    4    4    0    0  0.65308740827E+03  0.89536738914E+03  0.79027774208E+03  0.13641504142E+04  0.90341123782E+02 0.  0.
         23    2    4    4    0    0  0.61826530499E+03  0.40213993551E+03  0.11510938999E+03  0.75211567796E+03  0.91974487113E+02 0.  0.
          4    1    3    3  502    0 -0.11751289738E+04 -0.11646395279E+04  0.13795056682E+04  0.21541469828E+04  0.00000000000E+00 0.  1.
         -4    1    3    3    0  502 -0.96223739472E+02 -0.13286779673E+03  0.14574625263E+03  0.21944208712E+03  0.00000000000E+00 0. -1.
         13    1    5    5    0    0  0.23621000400E+03  0.39819122528E+03  0.33885459867E+03  0.57373674880E+03  0.00000000000E+00 0. -1.
        -13    1    5    5    0    0  0.41687740427E+03  0.49717616385E+03  0.45142314341E+03  0.79041366543E+03  0.00000000000E+00 0.  1.
          3    1    6    6  503    0  0.40135325497E+02  0.83679035377E+01 -0.82717099035E+01  0.41824482628E+02  0.00000000000E+00 0. -1.
         -3    1    6    6    0  503  0.57812997950E+03  0.39377203197E+03  0.12338109990E+03  0.71029119533E+03  0.00000000000E+00 0.  1.
<mgrwt>
<rscale>  0 0.18354147E+04</rscale>
<asrwt>0</asrwt>
<pdfrwt beam="1">  1        2 0.53234570E+00 0.18354147E+04</pdfrwt>
<pdfrwt beam="2">  1       -2 0.15840124E+00 0.18354147E+04</pdfrwt>
<totfact> 0.20541113E-01</totfact>
</mgrwt>
</event>
<event>
12    1  0.1444206E-007  0.1341844E+04  0.7818608E-02  0.8997025E-01
          1   -1    0    0  501    0  0.00000000000E+00  0.00000000000E+00  0.12208853144E+04  0.12208853144E+04  0.00000000000E+00 0. -1.
         -1   -1    0    0    0  501 -0.00000000000E+00 -0.00000000000E+00 -0.25622429084E+04  0.25622429084E+04  0.00000000000E+00 0.  1.
         23    2    1    2    0    0 -0.90375445176E+03  0.98160670162E+03  0.50321594745E+03  0.14288304142E+04  0.89477577880E+02 0.  0.
    5000000    2    1    2    0    0  0.90375445176E+03 -0.98160670162E+03 -0.18445735415E+04  0.23542978086E+04  0.59995232805E+03 0.  0.
         23    2    4    4    0    0  0.19482042509E+03 -0.26528728495E+03 -0.13323548598E+03  0.36619695771E+03  0.89533097376E+02 0.  0.
         23    2    4    4    0    0  0.70893402667E+03 -0.71631941667E+03 -0.17113380555E+04  0.19881008509E+04  0.90366433107E+02 0.  0.
          4    1    3    3  502    0 -0.12068921717E+03  0.98772418881E+02  0.39238801949E+02  0.16081530229E+03  0.00000000000E+00 0.  1.
         -4    1    3    3    0  502 -0.78306523460E+03  0.88283428274E+03  0.46397714550E+03  0.12680151119E+04  0.00000000000E+00 0. -1.
         11    1    5    5    0    0  0.10285669351E+03 -0.71891537420E+02 -0.33032035013E+02  0.12976520292E+03  0.00000000000E+00 0.  1.
        -11    1    5    5    0    0  0.91963731587E+02 -0.19339574753E+03 -0.10020345096E+03  0.23643175479E+03  0.00000000000E+00 0. -1.
          4    1    6    6  503    0  0.12403901165E+03 -0.11479443350E+03 -0.35614848453E+03  0.39421463875E+03  0.00000000000E+00 0.  1.
         -4    1    6    6    0  503  0.58489501502E+03 -0.60152498318E+03 -0.13551895710E+04  0.15938862122E+04  0.00000000000E+00 0. -1.
<mgrwt>
<rscale>  0 0.13418439E+04</rscale>
<asrwt>0</asrwt>
<pdfrwt beam="1">  1        1 0.18782851E+00 0.13418439E+04</pdfrwt>
<pdfrwt beam="2">  1       -1 0.39419122E+00 0.13418439E+04</pdfrwt>
<totfact> 0.78429714E-02</totfact>
</mgrwt>
</event>
<event>
12    1  0.1444206E-007  0.1374872E+04  0.7818608E-02  0.8972211E-01
         -1   -1    0    0    0  501 -0.00000000000E+00  0.00000000000E+00  0.12496429975E+04  0.12496429975E+04  0.00000000000E+00 0.  1.
          1   -1    0    0  501    0  0.00000000000E+00 -0.00000000000E+00 -0.16724506998E+04  0.16724506998E+04  0.00000000000E+00 0. -1.
         23    2    1    2    0    0  0.12817292732E+04  0.29192122959E+03  0.22794873899E+03  0.13373095505E+04  0.91587510640E+02 0.  0.
    5000000    2    1    2    0    0 -0.12817292732E+04 -0.29192122959E+03 -0.65075644137E+03  0.15847841468E+04  0.60000742640E+03 0.  0.
         23    2    4    4    0    0 -0.65157039079E+03  0.13492193173E+03 -0.22856212942E+03  0.70940774629E+03  0.90943947982E+02 0.  0.
         23    2    4    4    0    0 -0.63015888245E+03 -0.42684316132E+03 -0.42219431195E+03  0.87537640049E+03  0.93490662644E+02 0.  0.
          4    1    3    3  502    0  0.86961205106E+03  0.22202931116E+03  0.19158339506E+03  0.91772889876E+03  0.00000000000E+00 0. -1.
         -4    1    3    3    0  502  0.41211722217E+03  0.69891918431E+02  0.36365343934E+02  0.41958065174E+03  0.00000000000E+00 0.  1.
         13    1    5    5    0    0 -0.40933637129E+03  0.51809351655E+02 -0.17271792878E+03  0.44729403830E+03  0.00000000000E+00 0.  1.
        -13    1    5    5    0    0 -0.24223401950E+03  0.83112580074E+02 -0.55844200649E+02  0.26211370799E+03  0.00000000000E+00 0. -1.
          4    1    6    6  503    0 -0.26578260247E+03 -0.22947665931E+03 -0.16833946501E+03  0.38940737593E+03  0.00000000000E+00 0. -1.
         -4    1    6    6    0  503 -0.36437627997E+03 -0.19736650201E+03 -0.25385484693E+03  0.48596902456E+03  0.00000000000E+00 0.  1.
<mgrwt>
<rscale>  0 0.13748724E+04</rscale>
<asrwt>0</asrwt>
<pdfrwt beam="1">  1        1 0.25730011E+00 0.13748724E+04</pdfrwt>
<pdfrwt beam="2">  1       -1 0.19225277E+00 0.13748724E+04</pdfrwt>
<totfact> 0.81405664E-01</totfact>
</mgrwt>
</event>
<event>
12    1  0.1444206E-007  0.1036662E+04  0.7818608E-02  0.9269224E-01
          2   -1    0    0  501    0  0.00000000000E+00  0.00000000000E+00  0.19123152023E+04  0.19123152023E+04  0.00000000000E+00 0. -1.
         -2   -1    0    0    0  501 -0.00000000000E+00 -0.00000000000E+00 -0.59592973494E+03  0.59592973494E+03  0.00000000000E+00 0.  1.
         23    2    1    2    0    0 -0.62856629694E+03  0.73193624768E+03  0.81558758154E+03  0.12666348653E+04  0.91403055004E+02 0.  0.
    5000000    2    1    2    0    0  0.62856629694E+03 -0.73193624768E+03  0.50079788585E+03  0.12416100720E+04  0.59997565621E+03 0.  0.
         23    2    4    4    0    0  0.51488573623E+03 -0.79563647051E+03  0.33057943263E+03  0.10077059393E+04  0.89687146652E+02 0.  0.
         23    2    4    4    0    0  0.11368056072E+03  0.63700222831E+02  0.17021845322E+03  0.23390413266E+03  0.93572609175E+02 0.  0.
          3    1    3    3  502    0 -0.31446905685E+03  0.38637969164E+03  0.47803998317E+03  0.69043629637E+03  0.00000000000E+00 0. -1.
         -3    1    3    3    0  502 -0.31409724010E+03  0.34555655604E+03  0.33754759836E+03  0.57619856891E+03  0.00000000000E+00 0.  1.
         11    1    5    5    0    0  0.37522462411E+03 -0.56768956525E+03  0.19452582569E+03  0.70774660571E+03  0.00000000000E+00 0.  1.
        -11    1    5    5    0    0  0.13966111212E+03 -0.22794690526E+03  0.13605360694E+03  0.29995933361E+03  0.00000000000E+00 0. -1.
          1    1    6    6  503    0  0.83837961219E+02 -0.64829368458E+01  0.92814434510E+02  0.12524117320E+03  0.00000000000E+00 0. -1.
         -1    1    6    6    0  503  0.29842599498E+02  0.70183159677E+02  0.77404018707E+02  0.10866295946E+03  0.00000000000E+00 0.  1.
<mgrwt>
<rscale>  0 0.10366617E+04</rscale>
<asrwt>0</asrwt>
<pdfrwt beam="1">  1        2 0.29420234E+00 0.10366617E+04</pdfrwt>
<pdfrwt beam="2">  1       -2 0.91681499E-01 0.10366617E+04</pdfrwt>
<totfact> 0.75375525E+00</totfact>
</mgrwt>
</event>
<event>
12    1  0.1444206E-007  0.4575029E+03  0.7818608E-02  0.1025508E+00
          2   -1    0    0  501    0  0.00000000000E+00  0.00000000000E+00  0.20295196179E+04  0.20295196179E+04  0.00000000000E+00 0. -1.
         -2   -1    0    0    0  501 -0.00000000000E+00 -0.00000000000E+00 -0.24182648863E+03  0.24182648863E+03  0.00000000000E+00 0.  1.
         23    2    1    2    0    0  0.17708539304E+03  0.19237386121E+03  0.15505512483E+04  0.15750881682E+04  0.91250342638E+02 0.  0.
    5000000    2    1    2    0    0 -0.17708539304E+03 -0.19237386121E+03  0.23714188093E+03  0.69625793832E+03  0.60014323797E+03 0.  0.
         23    2    4    4    0    0  0.11289788795E+03  0.13528318172E+03  0.19401389478E+02  0.19928761040E+03  0.91058582160E+02 0.  0.
         23    2    4    4    0    0 -0.28998328099E+03 -0.32765704293E+03  0.21774049146E+03  0.49697032792E+03  0.90106293793E+02 0.  0.
          1    1    3    3  502    0  0.17628644390E+03  0.14860538243E+03  0.12138842029E+04  0.12355870379E+04  0.00000000000E+00 0. -1.
         -1    1    3    3    0  502  0.79894913927E+00  0.43768478774E+02  0.33666704538E+03  0.33950113034E+03  0.00000000000E+00 0.  1.
         13    1    5    5    0    0  0.88376644867E+02  0.35458778333E+02  0.15021610101E+02  0.96402308525E+02  0.00000000000E+00 0. -1.
        -13    1    5    5    0    0  0.24521243080E+02  0.99824403391E+02  0.43797793773E+01  0.10288530188E+03  0.00000000000E+00 0.  1.
          4    1    6    6  503    0 -0.15445798910E+03 -0.22369778769E+03  0.10061645310E+03  0.28986486722E+03  0.00000000000E+00 0. -1.
         -4    1    6    6    0  503 -0.13552529189E+03 -0.10395925524E+03  0.11712403835E+03  0.20710546070E+03  0.00000000000E+00 0.  1.
<mgrwt>
<rscale>  0 0.45750288E+03</rscale>
<asrwt>0</asrwt>
<pdfrwt beam="1">  1        2 0.31223378E+00 0.45750288E+03</pdfrwt>
<pdfrwt beam="2">  1       -2 0.37204076E-01 0.45750288E+03</pdfrwt>
<totfact> 0.47293762E+01</totfact>
</mgrwt>
</event>
<event>
12    1  0.1444206E-007  0.4659574E+03  0.7818608E-02  0.1023067E+00
          2   -1    0    0  501    0  0.00000000000E+00  0.00000000000E+00  0.19476397805E+04  0.19476397805E+04  0.00000000000E+00 0. -1.
         -2   -1    0    0    0  501 -0.00000000000E+00 -0.00000000000E+00 -0.17655992697E+03  0.17655992697E+03  0.00000000000E+00 0.  1.
         23    2    1    2    0    0  0.41367804917E+03  0.45899890331E+02  0.49032259186E+03  0.64979103712E+03  0.92605720837E+02 0.  0.
    5000000    2    1    2    0    0 -0.41367804917E+03 -0.45899890331E+02  0.12807572616E+04  0.14744086703E+04  0.60025447570E+03 0.  0.
         23    2    4    4    0    0 -0.39338076743E+03  0.15865976457E+02  0.12963329657E+04  0.13578271091E+04  0.90637425187E+02 0.  0.
         23    2    4    4    0    0 -0.20297281740E+02 -0.61765866787E+02 -0.15575704051E+02  0.11658156124E+03  0.95507360547E+02 0.  0.
          3    1    3    3  502    0  0.11357842133E+03  0.73030145281E+01  0.20193358738E+03  0.23179854513E+03  0.00000000000E+00 0. -1.
         -3    1    3    3    0  502  0.30009962784E+03  0.38596875803E+02  0.28838900448E+03  0.41799249198E+03  0.00000000000E+00 0.  1.
         13    1    5    5    0    0 -0.36264557170E+03 -0.86684095297E+01  0.11249358158E+04  0.11819761172E+04  0.00000000000E+00 0. -1.
        -13    1    5    5    0    0 -0.30735195731E+02  0.24534385986E+02  0.17139714985E+03  0.17585099183E+03  0.00000000000E+00 0.  1.
          2    1    6    6  503    0 -0.13221320308E+02  0.23998097253E+02  0.55853471762E+01  0.27962619433E+02  0.00000000000E+00 0.  1.
         -2    1    6    6    0  503 -0.70759614319E+01 -0.85763964040E+02 -0.21161051228E+02  0.88618941808E+02  0.00000000000E+00 0. -1.
<mgrwt>
<rscale>  0 0.46595740E+03</rscale>
<asrwt>0</asrwt>
<pdfrwt beam="1">  1        2 0.29963687E+00 0.46595740E+03</pdfrwt>
<pdfrwt beam="2">  1       -2 0.27163067E-01 0.46595740E+03</pdfrwt>
<totfact> 0.93776764E+01</totfact>
</mgrwt>
</event>
<event>
12    1  0.1444206E-007  0.5956106E+03  0.7818608E-02  0.9914555E-01
          2   -1    0    0  501    0  0.00000000000E+00  0.00000000000E+00  0.27718496699E+04  0.27718496699E+04  0.00000000000E+00 0. -1.
         -2   -1    0    0    0  501 -0.00000000000E+00 -0.00000000000E+00 -0.28639401346E+03  0.28639401346E+03  0.00000000000E+00 0.  1.
         23    2    1    2    0    0  0.44218033634E+03  0.14800577518E+03  0.18082803954E+02  0.47643398893E+03  0.96089534708E+02 0.  0.
    5000000    2    1    2    0    0 -0.44218033634E+03 -0.14800577518E+03  0.24673728525E+04  0.25818096945E+04  0.60031936980E+03 0.  0.
         23    2    4    4    0    0  0.16703612629E+02 -0.23488339133E+03  0.12366052903E+04  0.12619039836E+04  0.88089736907E+02 0.  0.
         23    2    4    4    0    0 -0.45888394897E+03  0.86877616154E+02  0.12307675622E+04  0.13199057108E+04  0.96125409931E+02 0.  0.
          3    1    3    3  502    0  0.18904245421E+03  0.13862387114E+02  0.10790648818E+02  0.18985692869E+03  0.00000000000E+00 0. -1.
         -3    1    3    3    0  502  0.25313788213E+03  0.13414338806E+03  0.72921551364E+01  0.28657706024E+03  0.00000000000E+00 0.  1.
         11    1    5    5    0    0  0.40950347085E+02 -0.14131310751E+03  0.58756243442E+03  0.60570284762E+03  0.00000000000E+00 0. -1.
        -11    1    5    5    0    0 -0.24246734456E+02 -0.93570283816E+02  0.64904285587E+03  0.65620113601E+03  0.00000000000E+00 0.  1.
          4    1    6    6  503    0 -0.21280272398E+03  0.78786226204E+01  0.65615072748E+03  0.68984117680E+03  0.00000000000E+00 0. -1.
         -4    1    6    6    0  503 -0.24608122499E+03  0.78998993533E+02  0.57461683473E+03  0.63006453402E+03  0.00000000000E+00 0.  1.
<mgrwt>
<rscale>  0 0.59561064E+03</rscale>
<asrwt>0</asrwt>
<pdfrwt beam="1">  1        2 0.42643839E+00 0.59561064E+03</pdfrwt>
<pdfrwt beam="2">  1       -2 0.44060619E-01 0.59561064E+03</pdfrwt>
<totfact> 0.12767971E+01</totfact>
</mgrwt>
</event>
<event>
12    1  0.1444206E-007  0.1390024E+04  0.7818608E-02  0.8961072E-01
          1   -1    0    0  501    0  0.00000000000E+00  0.00000000000E+00  0.16192008877E+04  0.16192008877E+04  0.00000000000E+00 0. -1.
         -1   -1    0    0    0  501 -0.00000000000E+00 -0.00000000000E+00 -0.13412671813E+04  0.13412671813E+04  0.00000000000E+00 0.  1.
         23    2    1    2    0    0 -0.26980112360E+03 -0.13539160126E+04 -0.16009693859E+03  0.13927529334E+04  0.90821187317E+02 0.  0.
    5000000    2    1    2    0    0  0.26980112360E+03  0.13539160126E+04  0.43803064497E+03  0.15677151356E+04  0.59998223721E+03 0.  0.
         23    2    4    4    0    0  0.17165805116E+03  0.99118883909E+03  0.56914917021E+03  0.11594356243E+04  0.91860696671E+02 0.  0.
         23    2    4    4    0    0  0.98143072448E+02  0.36272717355E+03 -0.13111852523E+03  0.40827951137E+03  0.91088015915E+02 0.  0.
          1    1    3    3  502    0 -0.16386976314E+03 -0.10193929875E+04 -0.11068096404E+03  0.10383957040E+04  0.00000000000E+00 0. -1.
         -1    1    3    3    0  502 -0.10593136046E+03 -0.33452302515E+03 -0.49415974554E+02  0.35435722939E+03  0.00000000000E+00 0.  1.
         11    1    5    5    0    0  0.19148426416E+02  0.36792122397E+03  0.21338271710E+03  0.42575212652E+03  0.00000000000E+00 0.  1.
        -11    1    5    5    0    0  0.15250962474E+03  0.62326761512E+03  0.35576645311E+03  0.73368349774E+03  0.00000000000E+00 0. -1.
          2    1    6    6  503    0  0.69285081738E+02  0.96419589323E+02 -0.43434206958E+02  0.12642661939E+03  0.00000000000E+00 0. -1.
         -2    1    6    6    0  503  0.28857990709E+02  0.26630758423E+03 -0.87684318277E+02  0.28185289198E+03  0.00000000000E+00 0.  1.
<mgrwt>
<rscale>  0 0.13900238E+04</rscale>
<asrwt>0</asrwt>
<pdfrwt beam="1">  1        1 0.24910783E+00 0.13900238E+04</pdfrwt>
<pdfrwt beam="2">  1       -1 0.20634880E+00 0.13900238E+04</pdfrwt>
<totfact> 0.70587336E-01</totfact>
</mgrwt>
</event>
<event>
12    1  0.1444206E-007  0.4704001E+03  0.7818608E-02  0.1021807E+00
          1   -1    0    0  501    0  0.00000000000E+00  0.00000000000E+00  0.23506398761E+04  0.23506398761E+04  0.00000000000E+00 0. -1.
         -1   -1    0    0    0  501 -0.00000000000E+00 -0.00000000000E+00 -0.11030842280E+03  0.11030842280E+03  0.00000000000E+00 0.  1.
         23    2    1    2    0    0 -0.11238355478E+03  0.25699999377E+03  0.34769797166E+03  0.45579571794E+03  0.90425642479E+02 0.  0.
    5000000    2    1    2    0    0  0.11238355478E+03 -0.25699999377E+03  0.18926334816E+04  0.20051525809E+04  0.59991359116E+03 0.  0.
         23    2    4    4    0    0 -0.23152031005E+02  0.17566113614E+03  0.55056120682E+03  0.58549397872E+03  0.91064292500E+02 0.  0.
         23    2    4    4    0    0  0.13553558579E+03 -0.43266112991E+03  0.13420722748E+04  0.14196586022E+04  0.93311348115E+02 0.  0.
          1    1    3    3  502    0 -0.94098233405E+02  0.25525449670E+03  0.34104855633E+03  0.43626076306E+03  0.00000000000E+00 0. -1.
         -1    1    3    3    0  502 -0.18285321378E+02  0.17454970708E+01  0.66494153269E+01  0.19534954879E+02  0.00000000000E+00 0.  1.
         11    1    5    5    0    0 -0.50928122934E+02  0.93741980802E+02  0.37343682403E+03  0.38837648514E+03  0.00000000000E+00 0.  1.
        -11    1    5    5    0    0  0.27776091928E+02  0.81919155339E+02  0.17712438279E+03  0.19711749358E+03  0.00000000000E+00 0. -1.
          4    1    6    6  503    0  0.14549857801E+02 -0.10227527777E+02  0.11314221940E+03  0.11453149129E+03  0.00000000000E+00 0. -1.
         -4    1    6    6    0  503  0.12098572799E+03 -0.42243360213E+03  0.12289300554E+04  0.13051271109E+04  0.00000000000E+00 0.  1.
<mgrwt>
<rscale>  0 0.47040011E+03</rscale>
<asrwt>0</asrwt>
<pdfrwt beam="1">  1        1 0.36163687E+00 0.47040011E+03</pdfrwt>
<pdfrwt beam="2">  1       -1 0.16970528E-01 0.47040011E+03</pdfrwt>
<totfact> 0.50120044E+01</totfact>
</mgrwt>
</event>
<event>
12    1  0.1444206E-007  0.9683755E+03  0.7818608E-02  0.9343927E-01
         -2   -1    0    0    0  501 -0.00000000000E+00  0.00000000000E+00  0.14388706127E+04  0.14388706127E+04  0.00000000000E+00 0.  1.
          2   -1    0    0  501    0  0.00000000000E+00 -0.00000000000E+00 -0.79754008586E+03  0.79754008586E+03  0.00000000000E+00 0. -1.
         23    2    1    2    0    0 -0.75380334484E+03 -0.47509632866E+03 -0.14186289142E+03  0.90700434886E+03  0.92713562608E+02 0.  0.
    5000000    2    1    2    0    0  0.75380334484E+03  0.47509632866E+03  0.78319341822E+03  0.13294063497E+04  0.59999442329E+03 0.  0.
         23    2    4    4    0    0  0.32465495793E+03 -0.79367769684E+02  0.38473227446E+03  0.51769921611E+03  0.91068494987E+02 0.  0.
         23    2    4    4    0    0  0.42914838691E+03  0.55446409834E+03  0.39846114376E+03  0.81170713355E+03  0.92186838705E+02 0.  0.
          3    1    3    3  502    0 -0.26829560060E+03 -0.16203486346E+03 -0.56823685106E+01  0.31348064627E+03  0.00000000000E+00 0. -1.
         -3    1    3    3    0  502 -0.48550774425E+03 -0.31306146519E+03 -0.13618052290E+03  0.59352370259E+03  0.00000000000E+00 0.  1.
         13    1    5    5    0    0  0.16581524318E+03 -0.38408371324E+01  0.14458016149E+03  0.22002924805E+03  0.00000000000E+00 0.  1.
        -13    1    5    5    0    0  0.15883971475E+03 -0.75526932552E+02  0.24015211297E+03  0.29766996807E+03  0.00000000000E+00 0. -1.
          2    1    6    6  503    0  0.33701924289E+03  0.39054711633E+03  0.25653934953E+03  0.57612625179E+03  0.00000000000E+00 0.  1.
         -2    1    6    6    0  503  0.92129144021E+02  0.16391698201E+03  0.14192179423E+03  0.23558088175E+03  0.00000000000E+00 0. -1.
<mgrwt>
<rscale>  0 0.96837555E+03</rscale>
<asrwt>0</asrwt>
<pdfrwt beam="1">  1        2 0.12269848E+00 0.96837555E+03</pdfrwt>
<pdfrwt beam="2">  1       -2 0.22136471E+00 0.96837555E+03</pdfrwt>
<totfact> 0.33440563E+00</totfact>
</mgrwt>
</event>
<event>
12    1  0.1444206E-007  0.1946819E+04  0.7818608E-02  0.8631896E-01
          1   -1    0    0  501    0  0.00000000000E+00  0.00000000000E+00  0.25904101095E+04  0.25904101095E+04  0.00000000000E+00 0. -1.
         -1   -1    0    0    0  501 -0.00000000000E+00 -0.00000000000E+00 -0.16321145786E+04  0.16321145786E+04  0.00000000000E+00 0.  1.
         23    2    1    2    0    0  0.48498881249E+03 -0.18781338995E+04 -0.77575907907E+02  0.19432617049E+04  0.87446779813E+02 0.  0.
    5000000    2    1    2    0    0 -0.48498881249E+03  0.18781338995E+04  0.10358714389E+04  0.22792629832E+04  0.59950731111E+03 0.  0.
         23    2    4    4    0    0 -0.14473940081E+03  0.98006297913E+03  0.22704686746E+03  0.10203031996E+04  0.89417010869E+02 0.  0.
         23    2    4    4    0    0 -0.34024941168E+03  0.89807092041E+03  0.80882457141E+03  0.12589597837E+04  0.92095110296E+02 0.  0.
          3    1    3    3  502    0  0.30186458303E+03 -0.11428015650E+04 -0.89449316111E+02  0.11853770807E+04  0.00000000000E+00 0. -1.
         -3    1    3    3    0  502  0.18312422946E+03 -0.73533233456E+03  0.11873408205E+02  0.75788462413E+03  0.00000000000E+00 0.  1.
         13    1    5    5    0    0 -0.10020416993E+03  0.79358935721E+03  0.21462049358E+03  0.82818289031E+03  0.00000000000E+00 0. -1.
        -13    1    5    5    0    0 -0.44535230887E+02  0.18647362192E+03  0.12426373876E+02  0.19212030926E+03  0.00000000000E+00 0.  1.
          2    1    6    6  503    0 -0.14167630050E+03  0.29372398984E+03  0.31793241603E+03  0.45544151929E+03  0.00000000000E+00 0. -1.
         -2    1    6    6    0  503 -0.19857311118E+03  0.60434693057E+03  0.49089215538E+03  0.80351826438E+03  0.00000000000E+00 0.  1.
<mgrwt>
<rscale>  0 0.19468194E+04</rscale>
<asrwt>0</asrwt>
<pdfrwt beam="1">  1        1 0.39852463E+00 0.19468194E+04</pdfrwt>
<pdfrwt beam="2">  1       -1 0.25109455E+00 0.19468194E+04</pdfrwt>
<totfact> 0.71984933E-02</totfact>
</mgrwt>
</event>
<event>
12    1  0.1444206E-007  0.8210791E+03  0.7818608E-02  0.9529997E-01
         -2   -1    0    0    0  501 -0.00000000000E+00  0.00000000000E+00  0.15091252820E+04  0.15091252820E+04  0.00000000000E+00 0.  1.
          2   -1    0    0  501    0  0.00000000000E+00 -0.00000000000E+00 -0.54371165734E+03  0.54371165734E+03  0.00000000000E+00 0. -1.
         23    2    1    2    0    0 -0.41011325928E+03  0.67354335954E+03  0.25634266975E+03  0.83428321683E+03  0.91996624629E+02 0.  0.
    5000000    2    1    2    0    0  0.41011325928E+03 -0.67354335954E+03  0.70907095492E+03  0.12185537225E+04  0.60019831135E+03 0.  0.
         23    2    4    4    0    0  0.38110272462E+03 -0.68897007913E+03  0.38619562466E+03  0.88155231553E+03  0.89824094006E+02 0.  0.
         23    2    4    4    0    0  0.29010534657E+02  0.15426719594E+02  0.32287533027E+03  0.33700140699E+03  0.90784770863E+02 0.  0.
          1    1    3    3  502    0 -0.31708351122E+03  0.43844966917E+03  0.17376512799E+03  0.56830835397E+03  0.00000000000E+00 0. -1.
         -1    1    3    3    0  502 -0.93029748059E+02  0.23509369037E+03  0.82577541760E+02  0.26597486287E+03  0.00000000000E+00 0.  1.
         11    1    5    5    0    0  0.27264874211E+03 -0.41166964345E+03  0.22010278518E+03  0.54060564920E+03  0.00000000000E+00 0.  1.
        -11    1    5    5    0    0  0.10845398251E+03 -0.27730043569E+03  0.16609283948E+03  0.34094666633E+03  0.00000000000E+00 0. -1.
          3    1    6    6  503    0 -0.10450400490E+02  0.13674623454E+02  0.68606373326E+01  0.18527669622E+02  0.00000000000E+00 0. -1.
         -3    1    6    6    0  503  0.39460935147E+02  0.17520961397E+01  0.31601469293E+03  0.31847373737E+03  0.00000000000E+00 0.  1.
<mgrwt>
<rscale>  0 0.82107907E+03</rscale>
<asrwt>0</asrwt>
<pdfrwt beam="1">  1        2 0.83647948E-01 0.82107907E+03</pdfrwt>
<pdfrwt beam="2">  1       -2 0.23217312E+00 0.82107907E+03</pdfrwt>
<totfact> 0.47015186E+00</totfact>
</mgrwt>
</event>
<event>
12    1  0.1444206E-007  0.6404207E+03  0.7818608E-02  0.9824922E-01
         -2   -1    0    0    0  501 -0.00000000000E+00  0.00000000000E+00  0.24548206250E+03  0.24548206250E+03  0.00000000000E+00 0.  1.
          2   -1    0    0  501    0  0.00000000000E+00 -0.00000000000E+00 -0.19754282073E+04  0.19754282073E+04  0.00000000000E+00 0. -1.
         23    2    1    2    0    0  0.30357507522E+03  0.46955878063E+03 -0.60553464191E+03  0.82918433808E+03  0.90725901555E+02 0.  0.
    5000000    2    1    2    0    0 -0.30357507522E+03 -0.46955878063E+03 -0.11244115029E+04  0.13917259317E+04  0.59996380423E+03 0.  0.
         23    2    4    4    0    0 -0.10448215237E+03  0.75862028671E+02 -0.54330212476E+03  0.56597106450E+03  0.92056936318E+02 0.  0.
         23    2    4    4    0    0 -0.19909292285E+03 -0.54542080930E+03 -0.58110937811E+03  0.82575486719E+03  0.84030590930E+02 0.  0.
          2    1    3    3  502    0  0.99684492372E+02  0.20733774713E+03 -0.19879939506E+03  0.30405121095E+03  0.00000000000E+00 0. -1.
         -2    1    3    3    0  502  0.20389058284E+03  0.26222103350E+03 -0.40673524685E+03  0.52513312713E+03  0.00000000000E+00 0.  1.
         11    1    5    5    0    0 -0.51847206484E+02  0.55646536213E+02 -0.14537074200E+03  0.16406499457E+03  0.00000000000E+00 0.  1.
        -11    1    5    5    0    0 -0.52634945886E+02  0.20215492458E+02 -0.39793138275E+03  0.40190606993E+03  0.00000000000E+00 0. -1.
          3    1    6    6  503    0 -0.14003070829E+03 -0.46983237740E+03 -0.49815599948E+03  0.69893523444E+03  0.00000000000E+00 0. -1.
         -3    1    6    6    0  503 -0.59062214554E+02 -0.75588431899E+02 -0.82953378629E+02  0.12681963275E+03  0.00000000000E+00 0.  1.
<mgrwt>
<rscale>  0 0.64042068E+03</rscale>
<asrwt>0</asrwt>
<pdfrwt beam="1">  1        2 0.30391203E+00 0.64042068E+03</pdfrwt>
<pdfrwt beam="2">  1       -2 0.37766472E-01 0.64042068E+03</pdfrwt>
<totfact> 0.47650117E+01</totfact>
</mgrwt>
</event>
<event>
12    1  0.1444206E-007  0.1042432E+04  0.7818608E-02  0.9263192E-01
          1   -1    0    0  501    0  0.00000000000E+00  0.00000000000E+00  0.87652152995E+03  0.87652152995E+03  0.00000000000E+00 0. -1.
         -1   -1    0    0    0  501 -0.00000000000E+00 -0.00000000000E+00 -0.17374570911E+04  0.17374570911E+04  0.00000000000E+00 0.  1.
         23    2    1    2    0    0  0.57321654640E+03  0.85728931652E+03 -0.96636977726E+03  0.14162856935E+04  0.92045846949E+02 0.  0.
    5000000    2    1    2    0    0 -0.57321654640E+03 -0.85728931652E+03  0.10543421612E+03  0.11976929275E+04  0.59985814447E+03 0.  0.
         23    2    4    4    0    0 -0.80568537264E+02 -0.29010985316E+03  0.28145408488E+03  0.42120590091E+03  0.86850405693E+02 0.  0.
         23    2    4    4    0    0 -0.49264800913E+03 -0.56717946336E+03 -0.17601986876E+03  0.77648702664E+03  0.86916648473E+02 0.  0.
          1    1    3    3  502    0  0.19690849858E+03  0.28547967923E+03 -0.38530837028E+03  0.51839574099E+03  0.00000000000E+00 0. -1.
         -1    1    3    3    0  502  0.37630804782E+03  0.57180963728E+03 -0.58106140698E+03  0.89788995251E+03  0.00000000000E+00 0.  1.
         11    1    5    5    0    0 -0.59529793055E+02 -0.16713435704E+03  0.21849994904E+03  0.28146032987E+03  0.00000000000E+00 0. -1.
        -11    1    5    5    0    0 -0.21038744208E+02 -0.12297549613E+03  0.62954135842E+02  0.13974557104E+03  0.00000000000E+00 0.  1.
          1    1    6    6  503    0 -0.15973229594E+03 -0.17544902224E+03 -0.14874067706E+02  0.23773515445E+03  0.00000000000E+00 0.  1.
         -1    1    6    6    0  503 -0.33291571319E+03 -0.39173044112E+03 -0.16114580106E+03  0.53875187219E+03  0.00000000000E+00 0. -1.
<mgrwt>
<rscale>  0 0.10424324E+04</rscale>
<asrwt>0</asrwt>
<pdfrwt beam="1">  1        1 0.13484947E+00 0.10424324E+04</pdfrwt>
<pdfrwt beam="2">  1       -1 0.26730109E+00 0.10424324E+04</pdfrwt>
<totfact> 0.10275636E+00</totfact>
</mgrwt>
</event>
<event>
12    1  0.1444206E-007  0.1020430E+04  0.7818608E-02  0.9286417E-01
          1   -1    0    0  501    0  0.00000000000E+00  0.00000000000E+00  0.26414131612E+04  0.26414131612E+04  0.00000000000E+00 0. -1.
         -1   -1    0    0    0  501 -0.00000000000E+00 -0.00000000000E+00 -0.53814067808E+03  0.53814067808E+03  0.00000000000E+00 0.  1.
         23    2    1    2    0    0 -0.96970913934E+03  0.82243510560E+02  0.26331184038E+03  0.10133127333E+04  0.10183201993E+03 0.  0.
    5000000    2    1    2    0    0  0.96970913934E+03 -0.82243510560E+02  0.18399606427E+04  0.21662411059E+04  0.60003795910E+03 0.  0.
         23    2    4    4    0    0  0.15916049828E+03 -0.19038845031E+03  0.77465688121E+03  0.82000427031E+03  0.10360450520E+03 0.  0.
         23    2    4    4    0    0  0.81054864107E+03  0.10814493975E+03  0.10653037615E+04  0.13462368356E+04  0.93792781154E+02 0.  0.
          1    1    3    3  502    0 -0.67784130753E+03  0.50288785911E+02  0.23120344546E+03  0.71795043936E+03  0.00000000000E+00 0. -1.
         -1    1    3    3    0  502 -0.29186783181E+03  0.31954724649E+02  0.32108394926E+02  0.29536229397E+03  0.00000000000E+00 0.  1.
         13    1    5    5    0    0  0.14733091280E+01 -0.76638111312E+01  0.15208047024E+03  0.15228057679E+03  0.00000000000E+00 0.  1.
        -13    1    5    5    0    0  0.15768718915E+03 -0.18272463918E+03  0.62257641097E+03  0.66772369351E+03  0.00000000000E+00 0. -1.
          1    1    6    6  503    0  0.32598692692E+03  0.27361245113E+02  0.49751715307E+03  0.59543213875E+03  0.00000000000E+00 0. -1.
         -1    1    6    6    0  503  0.48456171415E+03  0.80783694638E+02  0.56778660842E+03  0.75080469687E+03  0.00000000000E+00 0.  1.
<mgrwt>
<rscale>  0 0.10204303E+04</rscale>
<asrwt>0</asrwt>
<pdfrwt beam="1">  1        1 0.40637125E+00 0.10204303E+04</pdfrwt>
<pdfrwt beam="2">  1       -1 0.82790875E-01 0.10204303E+04</pdfrwt>
<totfact> 0.15924051E+00</totfact>
</mgrwt>
</event>
<event>
12    1  0.1444206E-007  0.4264307E+03  0.7818608E-02  0.1034993E+00
          2   -1    0    0  501    0  0.00000000000E+00  0.00000000000E+00  0.11507497188E+04  0.11507497188E+04  0.00000000000E+00 0.  1.
         -2   -1    0    0    0  501 -0.00000000000E+00 -0.00000000000E+00 -0.25451710818E+03  0.25451710818E+03  0.00000000000E+00 0. -1.
         23    2    1    2    0    0 -0.34994051476E+03 -0.12167897578E+03  0.35292042234E+03  0.51531434602E+03  0.61089390943E+02 0.  0.
    5000000    2    1    2    0    0  0.34994051476E+03  0.12167897578E+03  0.54331218825E+03  0.88995248094E+03  0.59963584567E+03 0.  0.
         23    2    4    4    0    0  0.35790119708E+03  0.10886759367E+03  0.64481128794E+03  0.75096578800E+03  0.90678541399E+02 0.  0.
         23    2    4    4    0    0 -0.79606823163E+01  0.12811382110E+02 -0.10149909969E+03  0.13898669294E+03  0.93742890934E+02 0.  0.
          2    1    3    3  502    0 -0.26289172768E+03 -0.11855332422E+03  0.27187727607E+03  0.39633849726E+03  0.00000000000E+00 0. -1.
         -2    1    3    3    0  502 -0.87048787080E+02 -0.31256515611E+01  0.81043146270E+02  0.11897584876E+03  0.00000000000E+00 0.  1.
         11    1    5    5    0    0  0.26814026361E+03  0.11648748409E+03  0.45442840617E+03  0.54034591814E+03  0.00000000000E+00 0.  1.
        -11    1    5    5    0    0  0.89760933463E+02 -0.76198904273E+01  0.19038288178E+03  0.21061986986E+03  0.00000000000E+00 0. -1.
          1    1    6    6  503    0 -0.38717873523E+02  0.38693241993E+02 -0.57396759392E+02  0.79313483689E+02  0.00000000000E+00 0. -1.
         -1    1    6    6    0  503  0.30757191207E+02 -0.25881859884E+02 -0.44102340301E+02  0.59673209248E+02  0.00000000000E+00 0.  1.
<mgrwt>
<rscale>  0 0.42643069E+03</rscale>
<asrwt>0</asrwt>
<pdfrwt beam="1">  1        2 0.17703842E+00 0.42643069E+03</pdfrwt>
<pdfrwt beam="2">  1       -2 0.39156479E-01 0.42643069E+03</pdfrwt>
<totfact> 0.13074150E+02</totfact>
</mgrwt>
</event>
<event>
12    1  0.1444206E-007  0.8111391E+03  0.7818608E-02  0.9544032E-01
          2   -1    0    0  501    0  0.00000000000E+00  0.00000000000E+00  0.21532890809E+04  0.21532890809E+04  0.00000000000E+00 0. -1.
         -2   -1    0    0    0  501 -0.00000000000E+00 -0.00000000000E+00 -0.35617456154E+03  0.35617456154E+03  0.00000000000E+00 0.  1.
         23    2    1    2    0    0  0.38512040942E+03  0.66380746485E+03  0.88482671858E+03  0.11747671150E+04  0.90561428949E+02 0.  0.
    5000000    2    1    2    0    0 -0.38512040942E+03 -0.66380746485E+03  0.91228780078E+03  0.13346965274E+04  0.60015640358E+03 0.  0.
         23    2    4    4    0    0 -0.22507618187E+03 -0.76878644495E+02  0.27262258686E+02  0.25684494130E+03  0.93040203665E+02 0.  0.
         23    2    4    4    0    0 -0.16004422756E+03 -0.58692882035E+03  0.88502554209E+03  0.10778515861E+04  0.91620066891E+02 0.  0.
          3    1    3    3  502    0  0.41460446490E+02  0.32790609891E+02  0.44221502461E+02  0.68918313968E+02  0.00000000000E+00 0. -1.
         -3    1    3    3    0  502  0.34365996293E+03  0.63101685496E+03  0.84060521612E+03  0.11058488010E+04  0.00000000000E+00 0.  1.
         13    1    5    5    0    0 -0.14546161339E+03 -0.66404507621E+02  0.59084440589E+02  0.17046879692E+03  0.00000000000E+00 0.  1.
        -13    1    5    5    0    0 -0.79614568473E+02 -0.10474136874E+02 -0.31822181903E+02  0.86376144377E+02  0.00000000000E+00 0. -1.
          2    1    6    6  503    0 -0.16099988370E+03 -0.53385750901E+03  0.76536786955E+03  0.94694919516E+03  0.00000000000E+00 0. -1.
         -2    1    6    6    0  503  0.95565614005E+00 -0.53071311349E+02  0.11965767255E+03  0.13090239099E+03  0.00000000000E+00 0.  1.
<mgrwt>
<rscale>  0 0.81113914E+03</rscale>
<asrwt>0</asrwt>
<pdfrwt beam="1">  1        2 0.33127523E+00 0.81113914E+03</pdfrwt>
<pdfrwt beam="2">  1       -2 0.54796088E-01 0.81113914E+03</pdfrwt>
<totfact> 0.17686495E+01</totfact>
</mgrwt>
</event>
<event>
12    1  0.1444206E-007  0.1394217E+04  0.7818608E-02  0.8958015E-01
          2   -1    0    0  501    0  0.00000000000E+00  0.00000000000E+00  0.20103048270E+04  0.20103048270E+04  0.00000000000E+00 0.  1.
         -2   -1    0    0    0  501 -0.00000000000E+00 -0.00000000000E+00 -0.12408408295E+04  0.12408408295E+04  0.00000000000E+00 0. -1.
         23    2    1    2    0    0  0.13436494257E+04  0.39215318704E+02 -0.36086693497E+03  0.13948553716E+04  0.92005122952E+02 0.  0.
    5000000    2    1    2    0    0 -0.13436494257E+04 -0.39215318704E+02  0.11303309325E+04  0.18562902849E+04  0.60102744065E+03 0.  0.
         23    2    4    4    0    0 -0.11914217219E+04 -0.18940009649E+03  0.10695110237E+04  0.16148368859E+04  0.92120693767E+02 0.  0.
         23    2    4    4    0    0 -0.15222770380E+03  0.15018477779E+03  0.60819908850E+02  0.24145339904E+03  0.94190983182E+02 0.  0.
          2    1    3    3  502    0  0.11782994375E+04  0.44342707259E+01 -0.31024232796E+03  0.12184660558E+04  0.00000000000E+00 0. -1.
         -2    1    3    3    0  502  0.16534998817E+03  0.34781047978E+02 -0.50624607007E+02  0.17638931578E+03  0.00000000000E+00 0.  1.
         13    1    5    5    0    0 -0.58895654613E+03 -0.67362367895E+02  0.57588276648E+03  0.82646746008E+03  0.00000000000E+00 0.  1.
        -13    1    5    5    0    0 -0.60246517575E+03 -0.12203772860E+03  0.49362825721E+03  0.78836942578E+03  0.00000000000E+00 0. -1.
          3    1    6    6  503    0 -0.10404605048E+03  0.36628555728E+02  0.29683035564E+02  0.11422921831E+03  0.00000000000E+00 0. -1.
         -3    1    6    6    0  503 -0.48181653322E+02  0.11355622206E+03  0.31136873287E+02  0.12722418073E+03  0.00000000000E+00 0.  1.
<mgrwt>
<rscale>  0 0.13942170E+04</rscale>
<asrwt>0</asrwt>
<pdfrwt beam="1">  1        2 0.30927767E+00 0.13942170E+04</pdfrwt>
<pdfrwt beam="2">  1       -2 0.19089859E+00 0.13942170E+04</pdfrwt>
<totfact> 0.95777102E-01</totfact>
</mgrwt>
</event>
<event>
12    1  0.1444206E-007  0.1687252E+04  0.7818608E-02  0.8768668E-01
          2   -1    0    0  501    0  0.00000000000E+00  0.00000000000E+00  0.15031395202E+04  0.15031395202E+04  0.00000000000E+00 0. -1.
         -2   -1    0    0    0  501 -0.00000000000E+00 -0.00000000000E+00 -0.20356044625E+04  0.20356044625E+04  0.00000000000E+00 0.  1.
         23    2    1    2    0    0 -0.15412958376E+04  0.65712325325E+03 -0.52814818590E+03  0.17590535720E+04  0.89023220637E+02 0.  0.
    5000000    2    1    2    0    0  0.15412958376E+04 -0.65712325325E+03 -0.43167564311E+01  0.17796904108E+04  0.59989623679E+03 0.  0.
         23    2    4    4    0    0  0.94562981109E+03 -0.26668493457E+03 -0.25445867855E+03  0.10192912109E+04  0.94174091516E+02 0.  0.
         23    2    4    4    0    0  0.59566602650E+03 -0.39043831869E+03  0.25014192212E+03  0.76039919992E+03  0.91519758607E+02 0.  0.
          2    1    3    3  502    0 -0.95895197619E+03  0.36467468034E+03 -0.33892676420E+03  0.10804850145E+04  0.00000000000E+00 0. -1.
         -2    1    3    3    0  502 -0.58234386140E+03  0.29244857291E+03 -0.18922142170E+03  0.67856855744E+03  0.00000000000E+00 0.  1.
         13    1    5    5    0    0  0.24805800430E+03 -0.44707422249E+02 -0.99801629060E+02  0.27109388091E+03  0.00000000000E+00 0. -1.
        -13    1    5    5    0    0  0.69757180679E+03 -0.22197751232E+03 -0.15465704949E+03  0.74819732996E+03  0.00000000000E+00 0.  1.
          2    1    6    6  503    0  0.23686800231E+03 -0.13845056227E+03  0.14146418049E+03  0.30868612388E+03  0.00000000000E+00 0. -1.
         -2    1    6    6    0  503  0.35879802419E+03 -0.25198775642E+03  0.10867774163E+03  0.45171307605E+03  0.00000000000E+00 0.  1.
<mgrwt>
<rscale>  0 0.16872523E+04</rscale>
<asrwt>0</asrwt>
<pdfrwt beam="1">  1        2 0.23125223E+00 0.16872523E+04</pdfrwt>
<pdfrwt beam="2">  1       -2 0.31316992E+00 0.16872523E+04</pdfrwt>
<totfact> 0.30793231E-01</totfact>
</mgrwt>
</event>
<event>
12    1  0.1444206E-007  0.7464940E+03  0.7818608E-02  0.9640867E-01
         -2   -1    0    0    0  501 -0.00000000000E+00  0.00000000000E+00  0.48745293165E+03  0.48745293165E+03  0.00000000000E+00 0.  1.
          2   -1    0    0  501    0  0.00000000000E+00 -0.00000000000E+00 -0.46557096333E+04  0.46557096333E+04  0.00000000000E+00 0. -1.
         23    2    1    2    0    0 -0.54929587759E+03 -0.43621084310E+03 -0.41603757701E+04  0.42201156332E+04  0.92970685302E+02 0.  0.
    5000000    2    1    2    0    0  0.54929587759E+03  0.43621084310E+03 -0.78809315199E+01  0.92304693172E+03  0.59995638867E+03 0.  0.
         23    2    4    4    0    0  0.56494916137E+03  0.41500540210E+03  0.16486425598E+03  0.72588503266E+03  0.91278798382E+02 0.  0.
         23    2    4    4    0    0 -0.15653283780E+02  0.21205440998E+02 -0.17274518750E+03  0.19716189906E+03  0.91308371012E+02 0.  0.
          4    1    3    3  502    0 -0.47126047150E+03 -0.38656807292E+03 -0.34081979200E+04  0.34622730061E+04  0.00000000000E+00 0. -1.
         -4    1    3    3    0  502 -0.78035406092E+02 -0.49642770180E+02 -0.75217785006E+03  0.75784262704E+03  0.00000000000E+00 0.  1.
         13    1    5    5    0    0  0.19737972699E+03  0.18595581604E+03  0.94131388331E+02  0.28705233045E+03  0.00000000000E+00 0. -1.
        -13    1    5    5    0    0  0.36756943438E+03  0.22904958605E+03  0.70732867649E+02  0.43883270221E+03  0.00000000000E+00 0.  1.
          2    1    6    6  503    0 -0.49375374886E+02  0.61019690859E+01 -0.13699136924E+03  0.14574565832E+03  0.00000000000E+00 0. -1.
         -2    1    6    6    0  503  0.33722091106E+02  0.15103471912E+02 -0.35753818257E+02  0.51416240745E+02  0.00000000000E+00 0.  1.
<mgrwt>
<rscale>  0 0.74649400E+03</rscale>
<asrwt>0</asrwt>
<pdfrwt beam="1">  1        2 0.71626303E+00 0.74649400E+03</pdfrwt>
<pdfrwt beam="2">  1       -2 0.74992757E-01 0.74649400E+03</pdfrwt>
<totfact> 0.15806150E-01</totfact>
</mgrwt>
</event>
<event>
12    1  0.1444206E-007  0.9827372E+03  0.7818608E-02  0.9327684E-01
          1   -1    0    0  501    0  0.00000000000E+00  0.00000000000E+00  0.55031306477E+03  0.55031306477E+03  0.00000000000E+00 0. -1.
         -1   -1    0    0    0  501 -0.00000000000E+00 -0.00000000000E+00 -0.23766171143E+04  0.23766171143E+04  0.00000000000E+00 0.  1.
         23    2    1    2    0    0 -0.86948635793E+03 -0.36868036686E+03 -0.14757657887E+04  0.17545764545E+04  0.93392355899E+02 0.  0.
    5000000    2    1    2    0    0  0.86948635793E+03  0.36868036686E+03 -0.35053826085E+03  0.11723537246E+04  0.59967027910E+03 0.  0.
         23    2    4    4    0    0  0.83514279158E+03  0.36526681809E+03 -0.45647512605E+03  0.10234458504E+04  0.90490536705E+02 0.  0.
         23    2    4    4    0    0  0.34343566348E+02  0.34135487698E+01  0.10593686520E+03  0.14890787418E+03  0.98791713818E+02 0.  0.
          1    1    3    3  502    0 -0.60375026949E+03 -0.29875135672E+03 -0.10189505702E+04  0.12214855814E+04  0.00000000000E+00 0. -1.
         -1    1    3    3    0  502 -0.26573608844E+03 -0.69929010141E+02 -0.45681521849E+03  0.53309087312E+03  0.00000000000E+00 0.  1.
         13    1    5    5    0    0  0.64153593191E+03  0.30168047569E+03 -0.31745311862E+03  0.77675990105E+03  0.00000000000E+00 0.  1.
        -13    1    5    5    0    0  0.19360685967E+03  0.63586342397E+02 -0.13902200743E+03  0.24668594934E+03  0.00000000000E+00 0. -1.
          4    1    6    6  503    0  0.65434120722E+02  0.20897441417E+02  0.74867083592E+02  0.10160417028E+03  0.00000000000E+00 0. -1.
         -4    1    6    6    0  503 -0.31090554374E+02 -0.17483892647E+02  0.31069781607E+02  0.47303703898E+02  0.00000000000E+00 0.  1.
<mgrwt>
<rscale>  0 0.98273723E+03</rscale>
<asrwt>0</asrwt>
<pdfrwt beam="1">  1        1 0.84663548E-01 0.98273723E+03</pdfrwt>
<pdfrwt beam="2">  1       -1 0.36563340E+00 0.98273723E+03</pdfrwt>
<totfact> 0.48577874E-01</totfact>
</mgrwt>
</event>
<event>
12    1  0.1795312E-007  0.7534351E+03  0.7818608E-02  0.9629977E-01
         -1   -1    0    0    0  501 -0.00000000000E+00  0.00000000000E+00  0.40085493954E+03  0.40085493954E+03  0.00000000000E+00 0.  1.
          1   -1    0    0  501    0  0.00000000000E+00 -0.00000000000E+00 -0.14631093270E+04  0.14631093270E+04  0.00000000000E+00 0. -1.
         23    2    1    2    0    0  0.21901463009E+03  0.60279605522E+03 -0.53149727805E+03  0.83794837699E+03  0.91310643081E+02 0.  0.
    5000000    2    1    2    0    0 -0.21901463009E+03 -0.60279605522E+03 -0.53075710939E+03  0.10260158895E+04  0.59972910887E+03 0.  0.
         23    2    4    4    0    0 -0.38569883082E+03 -0.54807537664E+03 -0.37432094583E+03  0.77304502769E+03  0.91281092087E+02 0.  0.
         23    2    4    4    0    0  0.16668420074E+03 -0.54720678586E+02 -0.15643616356E+03  0.25297086185E+03  0.93509401845E+02 0.  0.
          4    1    3    3  502    0  0.12959481026E+03  0.23328642673E+03 -0.23951821822E+03  0.35858938718E+03  0.00000000000E+00 0. -1.
         -4    1    3    3    0  502  0.89419819828E+02  0.36950962849E+03 -0.29197905983E+03  0.47935898980E+03  0.00000000000E+00 0.  1.
         11    1    5    5    0    0 -0.12214513145E+03 -0.21762343852E+03 -0.98293869525E+02  0.26821834187E+03  0.00000000000E+00 0. -1.
        -11    1    5    5    0    0 -0.26355369938E+03 -0.33045193811E+03 -0.27602707630E+03  0.50482668581E+03  0.00000000000E+00 0.  1.
          3    1    6    6  503    0  0.12887282943E+03 -0.70177192752E+02 -0.82090918120E+02  0.16814268758E+03  0.00000000000E+00 0. -1.
         -3    1    6    6    0  503  0.37811371309E+02  0.15456514166E+02 -0.74345245440E+02  0.84828174270E+02  0.00000000000E+00 0.  1.
<mgrwt>
<rscale>  0 0.75343514E+03</rscale>
<asrwt>0</asrwt>
<pdfrwt beam="1">  1        1 0.22509375E+00 0.75343514E+03</pdfrwt>
<pdfrwt beam="2">  1       -1 0.61669990E-01 0.75343514E+03</pdfrwt>
<totfact> 0.19135496E+01</totfact>
</mgrwt>
</event>
<event>
12    1  0.1444206E-007  0.3223793E+03  0.7818608E-02  0.1074559E+00
          1   -1    0    0  501    0  0.00000000000E+00  0.00000000000E+00  0.21293111850E+04  0.21293111850E+04  0.00000000000E+00 0. -1.
         -1   -1    0    0    0  501 -0.00000000000E+00 -0.00000000000E+00 -0.94514687850E+02  0.94514687850E+02  0.00000000000E+00 0.  1.
         23    2    1    2    0    0  0.12706345207E+03  0.16110811461E+03  0.85221343378E+03  0.88144041468E+03  0.92566313952E+02 0.  0.
    5000000    2    1    2    0    0 -0.12706345207E+03 -0.16110811461E+03  0.11825830634E+04  0.13423854582E+04  0.60116143512E+03 0.  0.
         23    2    4    4    0    0  0.85760106069E+02  0.41423962168E+02  0.94100859644E+03  0.95006356139E+03  0.89737682610E+02 0.  0.
         23    2    4    4    0    0 -0.21282355814E+03 -0.20253207678E+03  0.24157446692E+03  0.39232189676E+03  0.96151643715E+02 0.  0.
          1    1    3    3  502    0  0.91083266146E+02  0.42014867313E+02  0.40609177776E+03  0.41829647669E+03  0.00000000000E+00 0. -1.
         -1    1    3    3    0  502  0.35980185925E+02  0.11909324729E+03  0.44612165602E+03  0.46314393799E+03  0.00000000000E+00 0.  1.
         11    1    5    5    0    0  0.64508290277E+02  0.66522437553E+02  0.79583195377E+03  0.80120849525E+03  0.00000000000E+00 0. -1.
        -11    1    5    5    0    0  0.21251815793E+02 -0.25098475384E+02  0.14517664266E+03  0.14885506614E+03  0.00000000000E+00 0.  1.
          1    1    6    6  503    0 -0.11341478797E+03 -0.12182168155E+03  0.75902030282E+02  0.18293319662E+03  0.00000000000E+00 0. -1.
         -1    1    6    6    0  503 -0.99408770169E+02 -0.80710395226E+02  0.16567243664E+03  0.20938870014E+03  0.00000000000E+00 0.  1.
<mgrwt>
<rscale>  0 0.32237933E+03</rscale>
<asrwt>0</asrwt>
<pdfrwt beam="1">  1        1 0.32758630E+00 0.32237933E+03</pdfrwt>
<pdfrwt beam="2">  1       -1 0.14540723E-01 0.32237933E+03</pdfrwt>
<totfact> 0.93056351E+01</totfact>
</mgrwt>
</event>
<event>
12    1  0.1444206E-007  0.4165991E+03  0.7818608E-02  0.1038179E+00
          2   -1    0    0  501    0  0.00000000000E+00  0.00000000000E+00  0.72192453279E+03  0.72192453279E+03  0.00000000000E+00 0. -1.
         -2   -1    0    0    0  501 -0.00000000000E+00 -0.00000000000E+00 -0.34159071348E+03  0.34159071348E+03  0.00000000000E+00 0.  1.
         23    2    1    2    0    0  0.17446598742E+03  0.16139786079E+03  0.32851844425E+03  0.41612341707E+03  0.93523685708E+02 0.  0.
    5000000    2    1    2    0    0 -0.17446598742E+03 -0.16139786079E+03  0.51815375063E+02  0.64739182921E+03  0.59995307916E+03 0.  0.
         23    2    4    4    0    0 -0.21296890844E+02 -0.34420775299E+03  0.13031119450E+03  0.37975443346E+03  0.91103718561E+02 0.  0.
         23    2    4    4    0    0 -0.15316909658E+03  0.18280989220E+03 -0.78495819439E+02  0.26763739575E+03  0.92671209677E+02 0.  0.
          1    1    3    3  502    0  0.12976430182E+03  0.11953948286E+03  0.30119167800E+03  0.34906287239E+03  0.00000000000E+00 0. -1.
         -1    1    3    3    0  502  0.44701685597E+02  0.41858377933E+02  0.27326766249E+02  0.67060544674E+02  0.00000000000E+00 0.  1.
         13    1    5    5    0    0 -0.41704064662E+02 -0.25302098946E+03  0.61491956015E+02  0.26370458997E+03  0.00000000000E+00 0. -1.
        -13    1    5    5    0    0  0.20407173819E+02 -0.91186763534E+02  0.68819238487E+02  0.11604984349E+03  0.00000000000E+00 0.  1.
          4    1    6    6  503    0 -0.11053451838E+03  0.86613506363E+02 -0.81518227341E+02  0.16237302925E+03  0.00000000000E+00 0. -1.
         -4    1    6    6    0  503 -0.42634578197E+02  0.96196385839E+02  0.30224079022E+01  0.10526436651E+03  0.00000000000E+00 0.  1.
<mgrwt>
<rscale>  0 0.41659909E+03</rscale>
<asrwt>0</asrwt>
<pdfrwt beam="1">  1        2 0.11106531E+00 0.41659909E+03</pdfrwt>
<pdfrwt beam="2">  1       -2 0.52552417E-01 0.41659909E+03</pdfrwt>
<totfact> 0.13944560E+02</totfact>
</mgrwt>
</event>
<event>
12    1  0.1444206E-007  0.2876023E+03  0.7818608E-02  0.1091608E+00
          1   -1    0    0  501    0  0.00000000000E+00  0.00000000000E+00  0.23622124612E+04  0.23622124612E+04  0.00000000000E+00 0. -1.
         -1   -1    0    0    0  501 -0.00000000000E+00 -0.00000000000E+00 -0.92381305536E+02  0.92381305536E+02  0.00000000000E+00 0.  1.
         23    2    1    2    0    0  0.62779346367E+02 -0.23655398800E+03  0.92857648423E+03  0.96466581042E+03  0.91797620669E+02 0.  0.
    5000000    2    1    2    0    0 -0.62779346367E+02  0.23655398800E+03  0.13412546714E+04  0.14899279563E+04  0.60085121768E+03 0.  0.
         23    2    4    4    0    0  0.30255451561E+02  0.11879645743E+03  0.13008681288E+04  0.13094023590E+04  0.85139055394E+02 0.  0.
         23    2    4    4    0    0 -0.93034797928E+02  0.11775753057E+03  0.40386542610E+02  0.18052559723E+03  0.91848292303E+02 0.  0.
          1    1    3    3  502    0 -0.19678451875E+02 -0.94834666907E+02  0.31445132512E+03  0.32902962084E+03  0.00000000000E+00 0. -1.
         -1    1    3    3    0  502  0.82457798241E+02 -0.14171932109E+03  0.61412515911E+03  0.63563618959E+03  0.00000000000E+00 0.  1.
         11    1    5    5    0    0 -0.12582996582E+02 -0.81019408499E+01  0.16041635521E+03  0.16111294258E+03  0.00000000000E+00 0. -1.
        -11    1    5    5    0    0  0.42838448143E+02  0.12689839828E+03  0.11404517736E+04  0.11482894165E+04  0.00000000000E+00 0.  1.
          1    1    6    6  503    0 -0.59291793260E+02  0.20813226497E+02  0.45762310974E+02  0.77736067890E+02  0.00000000000E+00 0. -1.
         -1    1    6    6    0  503 -0.33743004667E+02  0.96944304071E+02 -0.53757683646E+01  0.10278952934E+03  0.00000000000E+00 0.  1.
<mgrwt>
<rscale>  0 0.28760229E+03</rscale>
<asrwt>0</asrwt>
<pdfrwt beam="1">  1        1 0.36341726E+00 0.28760229E+03</pdfrwt>
<pdfrwt beam="2">  1       -1 0.14212510E-01 0.28760229E+03</pdfrwt>
<totfact> 0.68493551E+01</totfact>
</mgrwt>
</event>
<event>
12    1  0.1444206E-007  0.4953467E+03  0.7818608E-02  0.1015001E+00
          1   -1    0    0  501    0  0.00000000000E+00  0.00000000000E+00  0.36082963496E+03  0.36082963496E+03  0.00000000000E+00 0. -1.
         -1   -1    0    0    0  501 -0.00000000000E+00 -0.00000000000E+00 -0.10491445087E+04  0.10491445087E+04  0.00000000000E+00 0.  1.
         23    2    1    2    0    0 -0.42284634664E+03  0.13332649517E+03 -0.11532055051E+03  0.46920915324E+03  0.10140716410E+03 0.  0.
    5000000    2    1    2    0    0  0.42284634664E+03 -0.13332649517E+03 -0.57299432326E+03  0.94076499045E+03  0.60011772644E+03 0.  0.
         23    2    4    4    0    0  0.16197256046E+03 -0.21635246950E+03  0.14091984194E+02  0.28638890609E+03  0.93683083396E+02 0.  0.
         23    2    4    4    0    0  0.26087378618E+03  0.83025974323E+02 -0.58708630745E+03  0.65437608435E+03  0.92678382852E+02 0.  0.
          4    1    3    3  502    0 -0.27024657961E+03  0.98786950155E+02 -0.25655696059E+02  0.28887763854E+03  0.00000000000E+00 0.  1.
         -4    1    3    3    0  502 -0.15259976703E+03  0.34539545020E+02 -0.89664854453E+02  0.18033151469E+03  0.00000000000E+00 0. -1.
         11    1    5    5    0    0  0.10276405431E+03 -0.15326158012E+03  0.52317796524E+02  0.19179863042E+03  0.00000000000E+00 0.  1.
        -11    1    5    5    0    0  0.59208506149E+02 -0.63090889377E+02 -0.38225812329E+02  0.94590275668E+02  0.00000000000E+00 0. -1.
          4    1    6    6  503    0  0.97410171813E+02  0.46571924941E+02 -0.33293084406E+03  0.35000090385E+03  0.00000000000E+00 0. -1.
         -4    1    6    6    0  503  0.16346361436E+03  0.36454049382E+02 -0.25415546339E+03  0.30437518051E+03  0.00000000000E+00 0.  1.
<mgrwt>
<rscale>  0 0.49534666E+03</rscale>
<asrwt>0</asrwt>
<pdfrwt beam="1">  1        1 0.55512252E-01 0.49534666E+03</pdfrwt>
<pdfrwt beam="2">  1       -1 0.16140684E+00 0.49534666E+03</pdfrwt>
<totfact> 0.20780053E+01</totfact>
</mgrwt>
</event>
<event>
12    1  0.1444206E-007  0.6315237E+03  0.7818608E-02  0.9842080E-01
         -1   -1    0    0    0  501 -0.00000000000E+00  0.00000000000E+00  0.11368938109E+04  0.11368938109E+04  0.00000000000E+00 0.  1.
          1   -1    0    0  501    0  0.00000000000E+00 -0.00000000000E+00 -0.50481210651E+03  0.50481210651E+03  0.00000000000E+00 0. -1.
         23    2    1    2    0    0 -0.25561455124E+03  0.45848511586E+03 -0.11893200715E+03  0.54644921440E+03  0.94416742789E+02 0.  0.
    5000000    2    1    2    0    0  0.25561455124E+03 -0.45848511586E+03  0.75101371151E+03  0.10952567030E+04  0.60001520836E+03 0.  0.
         23    2    4    4    0    0  0.40128209653E+03 -0.39623921405E+03  0.38735193462E+03  0.69057278044E+03  0.93895729861E+02 0.  0.
         23    2    4    4    0    0 -0.14566754528E+03 -0.62245901810E+02  0.36366177690E+03  0.40468392254E+03  0.80159859943E+02 0.  0.
          3    1    3    3  502    0 -0.89466652291E+02  0.83522888549E+02 -0.40275319313E+02  0.12885051855E+03  0.00000000000E+00 0. -1.
         -3    1    3    3    0  502 -0.16614789895E+03  0.37496222731E+03 -0.78656687838E+02  0.41759869585E+03  0.00000000000E+00 0.  1.
         13    1    5    5    0    0  0.40512301439E+03 -0.38151219449E+03  0.37733760387E+03  0.67235398313E+03  0.00000000000E+00 0. -1.
        -13    1    5    5    0    0 -0.38409178636E+01 -0.14727019555E+02  0.10014330744E+02  0.18218797306E+02  0.00000000000E+00 0.  1.
          2    1    6    6  503    0 -0.62739896635E+02 -0.20665243350E+02  0.24674703776E+03  0.25543579928E+03  0.00000000000E+00 0. -1.
         -2    1    6    6    0  503 -0.82927648649E+02 -0.41580658460E+02  0.11691473914E+03  0.14924812326E+03  0.00000000000E+00 0.  1.
<mgrwt>
<rscale>  0 0.63152375E+03</rscale>
<asrwt>0</asrwt>
<pdfrwt beam="1">  1        1 0.77663401E-01 0.63152375E+03</pdfrwt>
<pdfrwt beam="2">  1       -1 0.17490674E+00 0.63152375E+03</pdfrwt>
<totfact> 0.10376493E+01</totfact>
</mgrwt>
</event>
<event>
12    1  0.1444206E-007  0.6521059E+03  0.7818608E-02  0.9802836E-01
          1   -1    0    0  501    0  0.00000000000E+00  0.00000000000E+00  0.29699180577E+04  0.29699180577E+04  0.00000000000E+00 0. -1.
         -1   -1    0    0    0  501 -0.00000000000E+00 -0.00000000000E+00 -0.16132291260E+03  0.16132291260E+03  0.00000000000E+00 0.  1.
         23    2    1    2    0    0 -0.79880899619E+02 -0.53169858195E+03  0.81105731213E+03  0.97735733770E+03  0.91263693875E+02 0.  0.
    5000000    2    1    2    0    0  0.79880899619E+02  0.53169858195E+03  0.19975378330E+04  0.21538836326E+04  0.59997747330E+03 0.  0.
         23    2    4    4    0    0  0.21731959090E+03  0.56789706256E+03  0.13275073556E+04  0.14629939388E+04  0.91326926047E+02 0.  0.
         23    2    4    4    0    0 -0.13743869128E+03 -0.36198480602E+02  0.67003047735E+03  0.69088969383E+03  0.90487593605E+02 0.  0.
          1    1    3    3  502    0  0.12011063954E+02 -0.21534403965E+03  0.33536825884E+03  0.39873448573E+03  0.00000000000E+00 0. -1.
         -1    1    3    3    0  502 -0.91891963573E+02 -0.31635454230E+03  0.47568905329E+03  0.57862285197E+03  0.00000000000E+00 0.  1.
         11    1    5    5    0    0  0.14681067253E+03  0.39733896586E+03  0.10183865790E+04  0.11029700139E+04  0.00000000000E+00 0.  1.
        -11    1    5    5    0    0  0.70508918378E+02  0.17055809670E+03  0.30912077664E+03  0.36002392486E+03  0.00000000000E+00 0. -1.
          3    1    6    6  503    0 -0.45979073719E+02 -0.37731447104E+02  0.12736407352E+03  0.14056793569E+03  0.00000000000E+00 0. -1.
         -3    1    6    6    0  503 -0.91459617566E+02  0.15329665018E+01  0.54266640383E+03  0.55032175813E+03  0.00000000000E+00 0.  1.
<mgrwt>
<rscale>  0 0.65210594E+03</rscale>
<asrwt>0</asrwt>
<pdfrwt beam="1">  1        1 0.45691043E+00 0.65210594E+03</pdfrwt>
<pdfrwt beam="2">  1       -1 0.24818912E-01 0.65210594E+03</pdfrwt>
<totfact> 0.96372122E+00</totfact>
</mgrwt>
</event>
<event>
12    1  0.1697338E-007  0.9612866E+03  0.7818608E-02  0.9352055E-01
         -2   -1    0    0    0  501 -0.00000000000E+00  0.00000000000E+00  0.69419557514E+03  0.69419557514E+03  0.00000000000E+00 0.  1.
          2   -1    0    0  501    0  0.00000000000E+00 -0.00000000000E+00 -0.14061951905E+04  0.14061951905E+04  0.00000000000E+00 0. -1.
         23    2    1    2    0    0 -0.27880475681E+03  0.84081857989E+03 -0.45494826053E+03  0.10000020277E+04  0.91203941580E+02 0.  0.
    5000000    2    1    2    0    0  0.27880475681E+03 -0.84081857989E+03 -0.25705135484E+03  0.11003887379E+04  0.60005999604E+03 0.  0.
         23    2    4    4    0    0  0.42341235176E+03 -0.44992080096E+03 -0.25462265699E+03  0.67357094383E+03  0.84607163758E+02 0.  0.
         23    2    4    4    0    0 -0.14460759495E+03 -0.39089777893E+03 -0.24286978525E+01  0.42681779411E+03  0.91951621553E+02 0.  0.
          4    1    3    3  502    0 -0.15698400840E+03  0.38654048895E+03 -0.25481252086E+03  0.48886291461E+03  0.00000000000E+00 0. -1.
         -4    1    3    3    0  502 -0.12182074841E+03  0.45427809094E+03 -0.20013573966E+03  0.51113911310E+03  0.00000000000E+00 0.  1.
         11    1    5    5    0    0  0.20691046154E+03 -0.20653834180E+03 -0.76005129140E+02  0.30207086153E+03  0.00000000000E+00 0. -1.
        -11    1    5    5    0    0  0.21650189022E+03 -0.24338245916E+03 -0.17861752785E+03  0.37150008230E+03  0.00000000000E+00 0.  1.
          1    1    6    6  503    0 -0.78872892800E+02 -0.19659022859E+03  0.44374999493E+02  0.21642040517E+03  0.00000000000E+00 0. -1.
         -1    1    6    6    0  503 -0.65734702149E+02 -0.19430755034E+03 -0.46803697346E+02  0.21039738894E+03  0.00000000000E+00 0.  1.
<mgrwt>
<rscale>  0 0.96128658E+03</rscale>
<asrwt>0</asrwt>
<pdfrwt beam="1">  1        2 0.21633772E+00 0.96128658E+03</pdfrwt>
<pdfrwt beam="2">  1       -2 0.10679932E+00 0.96128658E+03</pdfrwt>
<totfact> 0.10110313E+01</totfact>
</mgrwt>
</event>
<event>
12    1  0.1444206E-007  0.1553362E+04  0.7818608E-02  0.8849723E-01
         -2   -1    0    0    0  501 -0.00000000000E+00  0.00000000000E+00  0.13357278416E+04  0.13357278416E+04  0.00000000000E+00 0.  1.
          2   -1    0    0  501    0  0.00000000000E+00 -0.00000000000E+00 -0.19288487253E+04  0.19288487253E+04  0.00000000000E+00 0. -1.
         23    2    1    2    0    0  0.12064895877E+04 -0.93457843217E+03 -0.25017194444E+02  0.15290710966E+04  0.91534623183E+02 0.  0.
    5000000    2    1    2    0    0 -0.12064895877E+04  0.93457843217E+03 -0.56810368926E+03  0.17355054703E+04  0.60015286769E+03 0.  0.
         23    2    4    4    0    0 -0.99600913216E+03  0.93163418584E+03 -0.33227295870E+03  0.14066505475E+04  0.91016460854E+02 0.  0.
         23    2    4    4    0    0 -0.21048045554E+03  0.29442463302E+01 -0.23583073056E+03  0.32885492280E+03  0.90657244719E+02 0.  0.
          3    1    3    3  502    0  0.92539967838E+03 -0.67098522598E+03 -0.34973345799E+02  0.11435947154E+04  0.00000000000E+00 0. -1.
         -3    1    3    3    0  502  0.28108990932E+03 -0.26359320620E+03  0.99561513544E+01  0.38547638115E+03  0.00000000000E+00 0.  1.
         13    1    5    5    0    0 -0.76699076643E+03  0.74692647454E+03 -0.29187193643E+03  0.11096680681E+04  0.00000000000E+00 0. -1.
        -13    1    5    5    0    0 -0.22901836573E+03  0.18470771130E+03 -0.40401022274E+02  0.29698247937E+03  0.00000000000E+00 0.  1.
          2    1    6    6  503    0 -0.19623738573E+03  0.12030265577E+02 -0.24115410734E+03  0.31114167567E+03  0.00000000000E+00 0. -1.
         -2    1    6    6    0  503 -0.14243069809E+02 -0.90860192465E+01  0.53233767873E+01  0.17713247126E+02  0.00000000000E+00 0.  1.
<mgrwt>
<rscale>  0 0.15533623E+04</rscale>
<asrwt>0</asrwt>
<pdfrwt beam="1">  1        2 0.29674596E+00 0.15533623E+04</pdfrwt>
<pdfrwt beam="2">  1       -2 0.20549659E+00 0.15533623E+04</pdfrwt>
<totfact> 0.83734663E-01</totfact>
</mgrwt>
</event>
<event>
12    1  0.1444206E-007  0.5138787E+03  0.7818608E-02  0.1010219E+00
          2   -1    0    0  501    0  0.00000000000E+00  0.00000000000E+00  0.27298474619E+04  0.27298474619E+04  0.00000000000E+00 0. -1.
         -2   -1    0    0    0  501 -0.00000000000E+00 -0.00000000000E+00 -0.14968815762E+03  0.14968815762E+03  0.00000000000E+00 0.  1.
         23    2    1    2    0    0 -0.20121857835E+03 -0.29685081614E+03  0.17756421865E+04  0.18138177360E+04  0.91762092047E+02 0.  0.
    5000000    2    1    2    0    0  0.20121857835E+03  0.29685081614E+03  0.80451711782E+03  0.10657178836E+04  0.59991456992E+03 0.  0.
         23    2    4    4    0    0 -0.86255780266E+02  0.34361631371E+03  0.58348496975E+03  0.68850332615E+03  0.89832563797E+02 0.  0.
         23    2    4    4    0    0  0.28747435862E+03 -0.46765497575E+02  0.22103214807E+03  0.37721455742E+03  0.92774421192E+02 0.  0.
          4    1    3    3  502    0 -0.92334481261E+02 -0.62084469750E+02  0.55543449242E+03  0.56646942829E+03  0.00000000000E+00 0. -1.
         -4    1    3    3    0  502 -0.10888409709E+03 -0.23476634639E+03  0.12202076941E+04  0.12473483077E+04  0.00000000000E+00 0.  1.
         13    1    5    5    0    0 -0.10350008383E+03  0.25646452952E+03  0.43514884140E+03  0.51559755277E+03  0.00000000000E+00 0.  1.
        -13    1    5    5    0    0  0.17244303563E+02  0.87151784191E+02  0.14833612835E+03  0.17290577338E+03  0.00000000000E+00 0. -1.
          1    1    6    6  503    0  0.15196482460E+03 -0.37213944675E+02  0.62592960428E+02  0.16851131799E+03  0.00000000000E+00 0. -1.
         -1    1    6    6    0  503  0.13550953402E+03 -0.95515528995E+01  0.15843918764E+03  0.20870323944E+03  0.00000000000E+00 0.  1.
<mgrwt>
<rscale>  0 0.51387872E+03</rscale>
<asrwt>0</asrwt>
<pdfrwt beam="1">  1        2 0.41997649E+00 0.51387872E+03</pdfrwt>
<pdfrwt beam="2">  1       -2 0.23028949E-01 0.51387872E+03</pdfrwt>
<totfact> 0.46195222E+01</totfact>
</mgrwt>
</event>
<event>
12    1  0.1444206E-007  0.4957262E+03  0.7818608E-02  0.1014900E+00
         -2   -1    0    0    0  501 -0.00000000000E+00  0.00000000000E+00  0.64295027752E+03  0.64295027752E+03  0.00000000000E+00 0.  1.
          2   -1    0    0  501    0  0.00000000000E+00 -0.00000000000E+00 -0.42172519671E+03  0.42172519671E+03  0.00000000000E+00 0. -1.
         23    2    1    2    0    0 -0.28556111993E+03 -0.18288305734E+03  0.91222506949E+02  0.36346018433E+03  0.93757100718E+02 0.  0.
    5000000    2    1    2    0    0  0.28556111993E+03  0.18288305734E+03  0.13000257386E+03  0.70121528990E+03  0.59984235237E+03 0.  0.
         23    2    4    4    0    0  0.42458869791E+03  0.22597015989E+03  0.18232150654E+03  0.52238394425E+03  0.91136040666E+02 0.  0.
         23    2    4    4    0    0 -0.13902757798E+03 -0.43087102550E+02 -0.52318932678E+02  0.17883134565E+03  0.89767553300E+02 0.  0.
          3    1    3    3  502    0 -0.18172592294E+03 -0.10605774284E+03  0.95253328977E+01  0.21062594297E+03  0.00000000000E+00 0. -1.
         -3    1    3    3    0  502 -0.10383519699E+03 -0.76825314508E+02  0.81697174051E+02  0.15283424136E+03  0.00000000000E+00 0.  1.
         11    1    5    5    0    0  0.23050776619E+03  0.13416612850E+03  0.53562086281E+02  0.27203543408E+03  0.00000000000E+00 0. -1.
        -11    1    5    5    0    0  0.19408093172E+03  0.91804031393E+02  0.12875942025E+03  0.25034851017E+03  0.00000000000E+00 0.  1.
          3    1    6    6  503    0 -0.67998559639E+02  0.24638950461E+02 -0.29239314754E+02  0.78011662718E+02  0.00000000000E+00 0. -1.
         -3    1    6    6    0  503 -0.71029018341E+02 -0.67726053011E+02 -0.23079617923E+02  0.10081968293E+03  0.00000000000E+00 0.  1.
<mgrwt>
<rscale>  0 0.49572624E+03</rscale>
<asrwt>0</asrwt>
<pdfrwt beam="1">  1        2 0.64880800E-01 0.49572624E+03</pdfrwt>
<pdfrwt beam="2">  1       -2 0.98915427E-01 0.49572624E+03</pdfrwt>
<totfact> 0.65340846E+01</totfact>
</mgrwt>
</event>
<event>
12    1  0.1444206E-007  0.7161597E+03  0.7818608E-02  0.9689989E-01
          1   -1    0    0  501    0  0.00000000000E+00  0.00000000000E+00  0.59078902278E+03  0.59078902278E+03  0.00000000000E+00 0. -1.
         -1   -1    0    0    0  501 -0.00000000000E+00 -0.00000000000E+00 -0.11183727723E+04  0.11183727723E+04  0.00000000000E+00 0.  1.
         23    2    1    2    0    0 -0.25944338775E+03  0.56673266097E+03  0.10359191235E+03  0.63840967636E+03  0.91317304513E+02 0.  0.
    5000000    2    1    2    0    0  0.25944338775E+03 -0.56673266097E+03 -0.63117566184E+03  0.10707521187E+04  0.59969209025E+03 0.  0.
         23    2    4    4    0    0 -0.91318614354E+02  0.84796668827E+01  0.18324403313E+02  0.13040537373E+03  0.90877850236E+02 0.  0.
         23    2    4    4    0    0  0.35076200211E+03 -0.57521232786E+03 -0.64950006515E+03  0.94034674495E+03  0.92187102506E+02 0.  0.
          4    1    3    3  502    0 -0.14137333447E+03  0.20647820573E+03  0.27570958259E+02  0.25175350421E+03  0.00000000000E+00 0. -1.
         -4    1    3    3    0  502 -0.11807005329E+03  0.36025445524E+03  0.76020954088E+02  0.38665617215E+03  0.00000000000E+00 0.  1.
         13    1    5    5    0    0 -0.87455712234E+01 -0.34221481707E+02 -0.15046880906E+01  0.35353343725E+02  0.00000000000E+00 0.  1.
        -13    1    5    5    0    0 -0.82573043131E+02  0.42701148590E+02  0.19829091404E+02  0.95052030008E+02  0.00000000000E+00 0. -1.
          4    1    6    6  503    0  0.33050643138E+03 -0.52292785826E+03 -0.55835521466E+03  0.83333582179E+03  0.00000000000E+00 0. -1.
         -4    1    6    6    0  503  0.20255570727E+02 -0.52284469592E+02 -0.91144850484E+02  0.10701092316E+03  0.00000000000E+00 0.  1.
<mgrwt>
<rscale>  0 0.71615965E+03</rscale>
<asrwt>0</asrwt>
<pdfrwt beam="1">  1        1 0.90890619E-01 0.71615965E+03</pdfrwt>
<pdfrwt beam="2">  1       -1 0.17205735E+00 0.71615965E+03</pdfrwt>
<totfact> 0.86259994E+00</totfact>
</mgrwt>
</event>
<event>
12    1  0.1444206E-007  0.1585493E+04  0.7818608E-02  0.8829510E-01
         -1   -1    0    0    0  501 -0.00000000000E+00  0.00000000000E+00  0.17278781189E+04  0.17278781189E+04  0.00000000000E+00 0.  1.
          1   -1    0    0  501    0  0.00000000000E+00 -0.00000000000E+00 -0.15682735479E+04  0.15682735479E+04  0.00000000000E+00 0. -1.
         23    2    1    2    0    0 -0.14709555876E+04 -0.43703243888E+03  0.49467839369E+03  0.16147835821E+04  0.90064478526E+02 0.  0.
    5000000    2    1    2    0    0  0.14709555876E+04  0.43703243888E+03 -0.33507382272E+03  0.16813680848E+04  0.60001373021E+03 0.  0.
         23    2    4    4    0    0  0.68753340194E+03 -0.83748500988E+02 -0.99766397277E+02  0.70707317251E+03  0.10140585318E+03 0.  0.
         23    2    4    4    0    0  0.78342218569E+03  0.52078093987E+03 -0.23530742544E+03  0.97429491227E+03  0.94434544751E+02 0.  0.
          1    1    3    3  502    0 -0.12986787922E+04 -0.36379265602E+03  0.41251743247E+03  0.14103483023E+04  0.00000000000E+00 0. -1.
         -1    1    3    3    0  502 -0.17227679546E+03 -0.73239782865E+02  0.82160961221E+02  0.20443527972E+03  0.00000000000E+00 0.  1.
         13    1    5    5    0    0  0.43828747434E+03 -0.77319310961E+02 -0.10662695966E+03  0.45764996945E+03  0.00000000000E+00 0.  1.
        -13    1    5    5    0    0  0.24924592761E+03 -0.64291900275E+01  0.68605623802E+01  0.24942320307E+03  0.00000000000E+00 0. -1.
          4    1    6    6  503    0  0.46953457746E+03  0.30971237475E+03 -0.18814497207E+03  0.59311297829E+03  0.00000000000E+00 0.  1.
         -4    1    6    6    0  503  0.31388760823E+03  0.21106856512E+03 -0.47162453372E+02  0.38118193397E+03  0.00000000000E+00 0. -1.
<mgrwt>
<rscale>  0 0.15854934E+04</rscale>
<asrwt>0</asrwt>
<pdfrwt beam="1">  1        1 0.24127285E+00 0.15854934E+04</pdfrwt>
<pdfrwt beam="2">  1       -1 0.26582740E+00 0.15854934E+04</pdfrwt>
<totfact> 0.30213384E-01</totfact>
</mgrwt>
</event>
<event>
12    1  0.1444206E-007  0.5776034E+03  0.7818608E-02  0.9952993E-01
         -1   -1    0    0    0  501 -0.00000000000E+00  0.00000000000E+00  0.83470550167E+03  0.83470550167E+03  0.00000000000E+00 0.  1.
          1   -1    0    0  501    0  0.00000000000E+00 -0.00000000000E+00 -0.61874149654E+03  0.61874149654E+03  0.00000000000E+00 0. -1.
         23    2    1    2    0    0 -0.39262483551E+03 -0.30092017846E+03 -0.23456769482E+03  0.55477446052E+03  0.89696618266E+02 0.  0.
    5000000    2    1    2    0    0  0.39262483551E+03  0.30092017846E+03  0.45053169995E+03  0.89867253768E+03  0.59993858191E+03 0.  0.
         23    2    4    4    0    0  0.42436925703E+03  0.35005666581E+03  0.52618947885E+03  0.76649973091E+03  0.89540684854E+02 0.  0.
         23    2    4    4    0    0 -0.31744421515E+02 -0.49136487351E+02 -0.75657778902E+02  0.13217280677E+03  0.91232936240E+02 0.  0.
          1    1    3    3  502    0 -0.32238038237E+03 -0.22127091434E+03 -0.14917163160E+03  0.41849982574E+03  0.00000000000E+00 0. -1.
         -1    1    3    3    0  502 -0.70244453149E+02 -0.79649264117E+02 -0.85396063217E+02  0.13627463478E+03  0.00000000000E+00 0.  1.
         13    1    5    5    0    0  0.23753926982E+03  0.20286283303E+03  0.35839811226E+03  0.47542343296E+03  0.00000000000E+00 0. -1.
        -13    1    5    5    0    0  0.18682998720E+03  0.14719383278E+03  0.16779136658E+03  0.29107629795E+03  0.00000000000E+00 0.  1.
          1    1    6    6  503    0  0.27740802205E+02 -0.38328609804E+02 -0.26352593406E+02  0.54158042946E+02  0.00000000000E+00 0. -1.
         -1    1    6    6    0  503 -0.59485223720E+02 -0.10807877547E+02 -0.49305185496E+02  0.78014763826E+02  0.00000000000E+00 0.  1.
<mgrwt>
<rscale>  0 0.57760337E+03</rscale>
<asrwt>0</asrwt>
<pdfrwt beam="1">  1        1 0.95191000E-01 0.57760337E+03</pdfrwt>
<pdfrwt beam="2">  1       -1 0.12841623E+00 0.57760337E+03</pdfrwt>
<totfact> 0.17993409E+01</totfact>
</mgrwt>
</event>
<event>
12    1  0.1444206E-007  0.2978363E+03  0.7818608E-02  0.1086327E+00
         -1   -1    0    0    0  501 -0.00000000000E+00  0.00000000000E+00  0.16887969533E+03  0.16887969533E+03  0.00000000000E+00 0.  1.
          1   -1    0    0  501    0  0.00000000000E+00 -0.00000000000E+00 -0.13708997112E+04  0.13708997112E+04  0.00000000000E+00 0. -1.
         23    2    1    2    0    0 -0.26317458880E+03 -0.36667578306E+02 -0.51137047966E+03  0.58697783866E+03  0.11152506499E+03 0.  0.
    5000000    2    1    2    0    0  0.26317458880E+03  0.36667578306E+02 -0.69064953618E+03  0.95280156784E+03  0.60019052838E+03 0.  0.
         23    2    4    4    0    0  0.58965573542E+02 -0.39656668975E+02 -0.70596444412E+03  0.71530960732E+03  0.90732836930E+02 0.  0.
         23    2    4    4    0    0  0.20420901526E+03  0.76324247281E+02  0.15314907941E+02  0.23749196052E+03  0.92957905903E+02 0.  0.
          4    1    3    3  502    0 -0.69894486768E+02 -0.23171038312E+02 -0.25628184897E+03  0.26665056236E+03  0.00000000000E+00 0. -1.
         -4    1    3    3    0  502 -0.19328010203E+03 -0.13496539994E+02 -0.25508863069E+03  0.32032727630E+03  0.00000000000E+00 0.  1.
         11    1    5    5    0    0 -0.12506297540E+00  0.22186400219E+02 -0.27782541718E+03  0.27870991089E+03  0.00000000000E+00 0.  1.
        -11    1    5    5    0    0  0.59090636517E+02 -0.61843069194E+02 -0.42813902694E+03  0.43659969643E+03  0.00000000000E+00 0. -1.
          1    1    6    6  503    0  0.87573536703E+02  0.50548318004E+02  0.50422622201E+02  0.11298981199E+03  0.00000000000E+00 0. -1.
         -1    1    6    6    0  503  0.11663547855E+03  0.25775929276E+02 -0.35107714260E+02  0.12450214853E+03  0.00000000000E+00 0.  1.
<mgrwt>
<rscale>  0 0.29783631E+03</rscale>
<asrwt>0</asrwt>
<pdfrwt beam="1">  1        1 0.21090764E+00 0.29783631E+03</pdfrwt>
<pdfrwt beam="2">  1       -1 0.25981493E-01 0.29783631E+03</pdfrwt>
<totfact> 0.11444728E+02</totfact>
</mgrwt>
</event>
<event>
12    1  0.1444206E-007  0.5870218E+03  0.7818608E-02  0.9932704E-01
         -1   -1    0    0    0  501 -0.00000000000E+00  0.00000000000E+00  0.10198256023E+04  0.10198256023E+04  0.00000000000E+00 0.  1.
          1   -1    0    0  501    0  0.00000000000E+00 -0.00000000000E+00 -0.58747829867E+03  0.58747829867E+03  0.00000000000E+00 0. -1.
         23    2    1    2    0    0 -0.33106843179E+03 -0.40843609239E+03 -0.22062270023E+03  0.57638990265E+03  0.84407321544E+02 0.  0.
    5000000    2    1    2    0    0  0.33106843179E+03  0.40843609239E+03  0.65297000387E+03  0.10309139983E+04  0.59998958149E+03 0.  0.
         23    2    4    4    0    0  0.40879985145E+03  0.35571580712E+03  0.70251539656E+03  0.89125771905E+03  0.84624969056E+02 0.  0.
         23    2    4    4    0    0 -0.77731419662E+02  0.52720285278E+02 -0.49545392694E+02  0.13965627928E+03  0.90705723752E+02 0.  0.
          2    1    3    3  502    0 -0.26989860781E+03 -0.31489523573E+03 -0.20783068863E+03  0.46389423700E+03  0.00000000000E+00 0. -1.
         -2    1    3    3    0  502 -0.61169823979E+02 -0.93540856666E+02 -0.12792011598E+02  0.11249566566E+03  0.00000000000E+00 0.  1.
         13    1    5    5    0    0  0.13437771882E+03  0.16094751036E+03  0.23087677139E+03  0.31187426308E+03  0.00000000000E+00 0. -1.
        -13    1    5    5    0    0  0.27442213263E+03  0.19476829676E+03  0.47163862517E+03  0.57938345597E+03  0.00000000000E+00 0.  1.
          1    1    6    6  503    0 -0.15907308384E+02  0.32717272197E+02  0.22390441630E+02  0.42717610379E+02  0.00000000000E+00 0. -1.
         -1    1    6    6    0  503 -0.61824111277E+02  0.20003013081E+02 -0.71935834324E+02  0.96938668897E+02  0.00000000000E+00 0.  1.
<mgrwt>
<rscale>  0 0.58702182E+03</rscale>
<asrwt>0</asrwt>
<pdfrwt beam="1">  1        1 0.90381277E-01 0.58702182E+03</pdfrwt>
<pdfrwt beam="2">  1       -1 0.15689625E+00 0.58702182E+03</pdfrwt>
<totfact> 0.11480131E+01</totfact>
</mgrwt>
</event>
<event>
12    1  0.1444206E-007  0.4525410E+03  0.7818608E-02  0.1026967E+00
          1   -1    0    0  501    0  0.00000000000E+00  0.00000000000E+00  0.15414291104E+04  0.15414291104E+04  0.00000000000E+00 0. -1.
         -1   -1    0    0    0  501 -0.00000000000E+00 -0.00000000000E+00 -0.33286710148E+03  0.33286710148E+03  0.00000000000E+00 0.  1.
         23    2    1    2    0    0 -0.30691193812E+03 -0.25114616367E+03  0.10658918503E+04  0.11410605307E+04  0.92867458879E+02 0.  0.
    5000000    2    1    2    0    0  0.30691193812E+03  0.25114616367E+03  0.14267015866E+03  0.73323568120E+03  0.60000871388E+03 0.  0.
         23    2    4    4    0    0  0.21158915208E+03  0.28897253275E+03 -0.15776427231E+03  0.40304992132E+03  0.96356522872E+02 0.  0.
         23    2    4    4    0    0  0.95322786042E+02 -0.37826369082E+02  0.30043443097E+03  0.33018575988E+03  0.90799344576E+02 0.  0.
          3    1    3    3  502    0 -0.27698877848E+03 -0.23592309480E+03  0.88150673611E+03  0.95364386218E+03  0.00000000000E+00 0. -1.
         -3    1    3    3    0  502 -0.29923159644E+02 -0.15223068867E+02  0.18438511416E+03  0.18741666850E+03  0.00000000000E+00 0.  1.
         11    1    5    5    0    0  0.11953352278E+03  0.83728920610E+02 -0.60896754802E+02  0.15813668126E+03  0.00000000000E+00 0. -1.
        -11    1    5    5    0    0  0.92055629300E+02  0.20524361214E+03 -0.96867517507E+02  0.24491324006E+03  0.00000000000E+00 0.  1.
          2    1    6    6  503    0  0.96502443943E+02 -0.60616394842E+02  0.25655774092E+03  0.28072930633E+03  0.00000000000E+00 0. -1.
         -2    1    6    6    0  503 -0.11796579001E+01  0.22790025760E+02  0.43876690057E+02  0.49456453545E+02  0.00000000000E+00 0.  1.
<mgrwt>
<rscale>  0 0.45254098E+03</rscale>
<asrwt>0</asrwt>
<pdfrwt beam="1">  1        1 0.23714294E+00 0.45254098E+03</pdfrwt>
<pdfrwt beam="2">  1       -1 0.51210324E-01 0.45254098E+03</pdfrwt>
<totfact> 0.25493855E+01</totfact>
</mgrwt>
</event>
<event>
12    1  0.1444206E-007  0.6091507E+03  0.7818608E-02  0.9886601E-01
          2   -1    0    0  501    0  0.00000000000E+00  0.00000000000E+00  0.13520087422E+04  0.13520087422E+04  0.00000000000E+00 0.  1.
         -2   -1    0    0    0  501 -0.00000000000E+00 -0.00000000000E+00 -0.34521391977E+03  0.34521391977E+03  0.00000000000E+00 0. -1.
         23    2    1    2    0    0 -0.36539083535E+03  0.36690057385E+03  0.19035823255E+03  0.55936066811E+03  0.92312548830E+02 0.  0.
    5000000    2    1    2    0    0  0.36539083535E+03 -0.36690057385E+03  0.81643658992E+03  0.11378619939E+04  0.60002893111E+03 0.  0.
         23    2    4    4    0    0  0.40581878067E+03 -0.41643138745E+03  0.41282998660E+03  0.71880273903E+03  0.90248526825E+02 0.  0.
         23    2    4    4    0    0 -0.40427945320E+02  0.49530813602E+02  0.40360660332E+03  0.41905925488E+03  0.92868986218E+02 0.  0.
          4    1    3    3  502    0 -0.17974689797E+03  0.24110632305E+03  0.12595855503E+03  0.32604718052E+03  0.00000000000E+00 0. -1.
         -4    1    3    3    0  502 -0.18564393738E+03  0.12579425080E+03  0.64399677528E+02  0.23331348758E+03  0.00000000000E+00 0.  1.
         13    1    5    5    0    0  0.22135347705E+03 -0.24179799986E+03  0.17877343365E+03  0.37339466402E+03  0.00000000000E+00 0. -1.
        -13    1    5    5    0    0  0.18446530363E+03 -0.17463338759E+03  0.23405655295E+03  0.34540807501E+03  0.00000000000E+00 0.  1.
          1    1    6    6  503    0  0.33526851981E+01  0.64973763625E+02  0.26564653712E+03  0.27349755601E+03  0.00000000000E+00 0. -1.
         -1    1    6    6    0  503 -0.43780630519E+02 -0.15442950023E+02  0.13796006619E+03  0.14556169887E+03  0.00000000000E+00 0.  1.
<mgrwt>
<rscale>  0 0.60915069E+03</rscale>
<asrwt>0</asrwt>
<pdfrwt beam="1">  1        2 0.20800134E+00 0.60915069E+03</pdfrwt>
<pdfrwt beam="2">  1       -2 0.53109834E-01 0.60915069E+03</pdfrwt>
<totfact> 0.53369060E+01</totfact>
</mgrwt>
</event>
<event>
12    1  0.1444206E-007  0.8226171E+03  0.7818608E-02  0.9527845E-01
         -2   -1    0    0    0  501 -0.00000000000E+00  0.00000000000E+00  0.24005499211E+03  0.24005499211E+03  0.00000000000E+00 0.  1.
          2   -1    0    0  501    0  0.00000000000E+00 -0.00000000000E+00 -0.34148577736E+04  0.34148577736E+04  0.00000000000E+00 0. -1.
         23    2    1    2    0    0 -0.68799978420E+03  0.39629470596E+03 -0.11742268904E+04  0.14204939392E+04  0.92741813921E+02 0.  0.
    5000000    2    1    2    0    0  0.68799978420E+03 -0.39629470596E+03 -0.20005758911E+04  0.22344188266E+04  0.59994199667E+03 0.  0.
         23    2    4    4    0    0  0.17953570231E+03  0.29159425013E+02 -0.10638422782E+04  0.10835723007E+04  0.96359729181E+02 0.  0.
         23    2    4    4    0    0  0.50846408189E+03 -0.42545413097E+03 -0.93673361293E+03  0.11508465259E+04  0.86202810194E+02 0.  0.
          3    1    3    3  502    0 -0.54494898491E+03  0.35499493897E+03 -0.96416054132E+03  0.11630117593E+04  0.00000000000E+00 0. -1.
         -3    1    3    3    0  502 -0.14305079929E+03  0.41299766989E+02 -0.21006634906E+03  0.25748217985E+03  0.00000000000E+00 0.  1.
         13    1    5    5    0    0  0.12874736599E+03  0.11726658658E+02 -0.47474237414E+03  0.49203020291E+03  0.00000000000E+00 0. -1.
        -13    1    5    5    0    0  0.50788336320E+02  0.17432766355E+02 -0.58909990407E+03  0.59154209776E+03  0.00000000000E+00 0.  1.
          1    1    6    6  503    0  0.20144978842E+03 -0.16983929193E+03 -0.30126016646E+03  0.40023129592E+03  0.00000000000E+00 0. -1.
         -1    1    6    6    0  503  0.30701429347E+03 -0.25561483904E+03 -0.63547344648E+03  0.75061523000E+03  0.00000000000E+00 0.  1.
<mgrwt>
<rscale>  0 0.82261714E+03</rscale>
<asrwt>0</asrwt>
<pdfrwt beam="1">  1        2 0.52536273E+00 0.82261714E+03</pdfrwt>
<pdfrwt beam="2">  1       -2 0.36931537E-01 0.82261714E+03</pdfrwt>
<totfact> 0.68473917E+00</totfact>
</mgrwt>
</event>
<event>
12    1  0.1444206E-007  0.3918676E+03  0.7818608E-02  0.1046633E+00
         -2   -1    0    0    0  501 -0.00000000000E+00  0.00000000000E+00  0.24332897622E+03  0.24332897622E+03  0.00000000000E+00 0.  1.
          2   -1    0    0  501    0  0.00000000000E+00 -0.00000000000E+00 -0.76243452125E+03  0.76243452125E+03  0.00000000000E+00 0. -1.
         23    2    1    2    0    0 -0.34747484567E+02  0.18915635326E+03 -0.43940781203E+02  0.21690604632E+03  0.90166107921E+02 0.  0.
    5000000    2    1    2    0    0  0.34747484567E+02 -0.18915635326E+03 -0.47516476383E+03  0.78885745115E+03  0.59960571360E+03 0.  0.
         23    2    4    4    0    0 -0.24893344404E+03 -0.65098527098E+02 -0.90450084639E+02  0.28699793364E+03  0.89335985530E+02 0.  0.
         23    2    4    4    0    0  0.28368092861E+03 -0.12405782616E+03 -0.38471467919E+03  0.50185951751E+03  0.89400097559E+02 0.  0.
          4    1    3    3  502    0  0.13759602166E+02  0.79206484232E+02 -0.53158540280E+02  0.96378546372E+02  0.00000000000E+00 0.  1.
         -4    1    3    3    0  502 -0.48507086733E+02  0.10994986902E+03  0.92177590768E+01  0.12052749995E+03  0.00000000000E+00 0. -1.
         13    1    5    5    0    0 -0.72549551662E+02  0.19140754470E+02 -0.10298423265E+02  0.75735483426E+02  0.00000000000E+00 0.  1.
        -13    1    5    5    0    0 -0.17638389238E+03 -0.84239281568E+02 -0.80151661374E+02  0.21126245021E+03  0.00000000000E+00 0. -1.
          2    1    6    6  503    0  0.12412594160E+03 -0.30921326334E+02 -0.99606481947E+02  0.16212596660E+03  0.00000000000E+00 0. -1.
         -2    1    6    6    0  503  0.15955498701E+03 -0.93136499825E+02 -0.28510819724E+03  0.33973355091E+03  0.00000000000E+00 0.  1.
<mgrwt>
<rscale>  0 0.39186760E+03</rscale>
<asrwt>0</asrwt>
<pdfrwt beam="1">  1        2 0.11729762E+00 0.39186760E+03</pdfrwt>
<pdfrwt beam="2">  1       -2 0.37435228E-01 0.39186760E+03</pdfrwt>
<totfact> 0.25447895E+02</totfact>
</mgrwt>
</event>
<event>
12    1  0.1444206E-007  0.7466471E+03  0.7818608E-02  0.9640625E-01
         -1   -1    0    0    0  501 -0.00000000000E+00  0.00000000000E+00  0.76969176254E+03  0.76969176254E+03  0.00000000000E+00 0.  1.
          1   -1    0    0  501    0  0.00000000000E+00 -0.00000000000E+00 -0.11028201362E+04  0.11028201362E+04  0.00000000000E+00 0. -1.
         23    2    1    2    0    0 -0.68118246467E+03  0.11045676478E+02 -0.61551863319E+03  0.92179303976E+03  0.81900324748E+02 0.  0.
    5000000    2    1    2    0    0  0.68118246467E+03 -0.11045676478E+02  0.28239025951E+03  0.95071885901E+03  0.59999211084E+03 0.  0.
         23    2    4    4    0    0  0.71730555404E+03  0.15042006123E+02  0.90742125977E+02  0.72894858598E+03  0.91533533617E+02 0.  0.
         23    2    4    4    0    0 -0.36123089365E+02 -0.26087682601E+02  0.19164813353E+03  0.22177027303E+03  0.10231130019E+03 0.  0.
          3    1    3    3  502    0 -0.23115860421E+03  0.27680109706E+02 -0.25170501145E+03  0.34286426114E+03  0.00000000000E+00 0. -1.
         -3    1    3    3    0  502 -0.45002386046E+03 -0.16634433228E+02 -0.36381362174E+03  0.57892877862E+03  0.00000000000E+00 0.  1.
         13    1    5    5    0    0  0.35435899611E+03 -0.22056852852E+02  0.80034901693E+02  0.36395382725E+03  0.00000000000E+00 0. -1.
        -13    1    5    5    0    0  0.36294655793E+03  0.37098858975E+02  0.10707224284E+02  0.36499475873E+03  0.00000000000E+00 0.  1.
          3    1    6    6  503    0 -0.52201022132E+02 -0.42485988054E+02  0.66799736048E+02  0.94827267326E+02  0.00000000000E+00 0. -1.
         -3    1    6    6    0  503  0.16077932767E+02  0.16398305453E+02  0.12484839748E+03  0.12694300571E+03  0.00000000000E+00 0.  1.
<mgrwt>
<rscale>  0 0.74664712E+03</rscale>
<asrwt>0</asrwt>
<pdfrwt beam="1">  1        1 0.16966464E+00 0.74664712E+03</pdfrwt>
<pdfrwt beam="2">  1       -1 0.11841412E+00 0.74664712E+03</pdfrwt>
<totfact> 0.83517346E+00</totfact>
</mgrwt>
</event>
<event>
12    1  0.1444206E-007  0.7899384E+03  0.7818608E-02  0.9574696E-01
          1   -1    0    0  501    0  0.00000000000E+00  0.00000000000E+00  0.10346180954E+04  0.10346180954E+04  0.00000000000E+00 0. -1.
         -1   -1    0    0    0  501 -0.00000000000E+00 -0.00000000000E+00 -0.14752065046E+04  0.14752065046E+04  0.00000000000E+00 0.  1.
         23    2    1    2    0    0 -0.28181502402E+03  0.63802001852E+03  0.73467330428E+03  0.10172396595E+04  0.92425153892E+02 0.  0.
    5000000    2    1    2    0    0  0.28181502402E+03 -0.63802001852E+03 -0.11752617135E+04  0.14925849404E+04  0.60006704409E+03 0.  0.
         23    2    4    4    0    0 -0.74499163795E+02 -0.47070624498E+03 -0.82865850234E+03  0.96034284043E+03  0.92026969853E+02 0.  0.
         23    2    4    4    0    0  0.35631418782E+03 -0.16731377354E+03 -0.34660321113E+03  0.53224209999E+03  0.90521642607E+02 0.  0.
          1    1    3    3  502    0 -0.25926276037E+03  0.61426656611E+03  0.72016420917E+03  0.98141585545E+03  0.00000000000E+00 0. -1.
         -1    1    3    3    0  502 -0.22552263645E+02  0.23753452412E+02  0.14509095116E+02  0.35823804071E+02  0.00000000000E+00 0.  1.
         11    1    5    5    0    0 -0.75137180547E+02 -0.47456005774E+03 -0.81449504340E+03  0.94565058030E+03  0.00000000000E+00 0. -1.
        -11    1    5    5    0    0  0.63801675155E+00  0.38538127648E+01 -0.14163458945E+02  0.14692260122E+02  0.00000000000E+00 0.  1.
          4    1    6    6  503    0  0.26715586330E+03 -0.10414225228E+03 -0.29503077390E+03  0.41141344358E+03  0.00000000000E+00 0.  1.
         -4    1    6    6    0  503  0.89158324515E+02 -0.63171521264E+02 -0.51572437227E+02  0.12082865641E+03  0.00000000000E+00 0. -1.
<mgrwt>
<rscale>  0 0.78993841E+03</rscale>
<asrwt>0</asrwt>
<pdfrwt beam="1">  1        1 0.15917202E+00 0.78993841E+03</pdfrwt>
<pdfrwt beam="2">  1       -1 0.22695485E+00 0.78993841E+03</pdfrwt>
<totfact> 0.14627644E+00</totfact>
</mgrwt>
</event>
<event>
12    1  0.1444206E-007  0.6724863E+03  0.7818608E-02  0.9765477E-01
          2   -1    0    0  501    0  0.00000000000E+00  0.00000000000E+00  0.21799985855E+04  0.21799985855E+04  0.00000000000E+00 0. -1.
         -2   -1    0    0    0  501 -0.00000000000E+00 -0.00000000000E+00 -0.33165559126E+03  0.33165559126E+03  0.00000000000E+00 0.  1.
         23    2    1    2    0    0  0.52294252276E+03 -0.29340005549E+03  0.14561331467E+04  0.15773208036E+04  0.89803686143E+02 0.  0.
    5000000    2    1    2    0    0 -0.52294252276E+03  0.29340005549E+03  0.39220984757E+03  0.93433337313E+03  0.59966475046E+03 0.  0.
         23    2    4    4    0    0 -0.42719672865E+03  0.39877489076E+03  0.46360279570E+03  0.75021604291E+03  0.79863010151E+02 0.  0.
         23    2    4    4    0    0 -0.95745794110E+02 -0.10537483527E+03 -0.71392948139E+02  0.18411733022E+03  0.92364090666E+02 0.  0.
          4    1    3    3  502    0  0.17771087358E+03 -0.53177825845E+02  0.46602491221E+03  0.50158573998E+03  0.00000000000E+00 0. -1.
         -4    1    3    3    0  502  0.34523164918E+03 -0.24022222964E+03  0.99010823447E+03  0.10757350637E+04  0.00000000000E+00 0.  1.
         11    1    5    5    0    0 -0.31441076066E+03  0.27136567252E+03  0.36878120828E+03  0.55542149240E+03  0.00000000000E+00 0. -1.
        -11    1    5    5    0    0 -0.11278596799E+03  0.12740921824E+03  0.94821587428E+02  0.19479455051E+03  0.00000000000E+00 0.  1.
          1    1    6    6  503    0 -0.18183582351E+02 -0.61854667058E+02  0.79136994601E+01  0.64955901527E+02  0.00000000000E+00 0. -1.
         -1    1    6    6    0  503 -0.77562211759E+02 -0.43520168210E+02 -0.79306647599E+02  0.11916142869E+03  0.00000000000E+00 0.  1.
<mgrwt>
<rscale>  0 0.67248633E+03</rscale>
<asrwt>0</asrwt>
<pdfrwt beam="1">  1        2 0.33538439E+00 0.67248633E+03</pdfrwt>
<pdfrwt beam="2">  1       -2 0.51023939E-01 0.67248633E+03</pdfrwt>
<totfact> 0.20208577E+01</totfact>
</mgrwt>
</event>
<event>
12    1  0.1444206E-007  0.2632537E+04  0.7818608E-02  0.8357232E-01
          2   -1    0    0  501    0  0.00000000000E+00  0.00000000000E+00  0.29254805714E+04  0.29254805714E+04  0.00000000000E+00 0.  1.
         -2   -1    0    0    0  501 -0.00000000000E+00 -0.00000000000E+00 -0.25177503430E+04  0.25177503430E+04  0.00000000000E+00 0. -1.
         23    2    1    2    0    0  0.23188840253E+03 -0.26152938453E+04 -0.33767148737E+03  0.26487450063E+04  0.91071108515E+02 0.  0.
    5000000    2    1    2    0    0 -0.23188840253E+03  0.26152938453E+04  0.74540171574E+03  0.27944859081E+04  0.59999470366E+03 0.  0.
         23    2    4    4    0    0 -0.24560341450E+03  0.14540349125E+04  0.14663090319E+03  0.14846573630E+04  0.90378647714E+02 0.  0.
         23    2    4    4    0    0  0.13715011970E+02  0.11612589328E+04  0.59877081255E+03  0.13098285451E+04  0.91727427414E+02 0.  0.
          3    1    3    3  502    0  0.15273840416E+03 -0.13572369698E+04 -0.20793655866E+03  0.13815421907E+04  0.00000000000E+00 0. -1.
         -3    1    3    3    0  502  0.79149998373E+02 -0.12580568755E+04 -0.12973492870E+03  0.12672028156E+04  0.00000000000E+00 0.  1.
         13    1    5    5    0    0 -0.89512271055E+02  0.30804065731E+03  0.27314567667E+02  0.32194344043E+03  0.00000000000E+00 0. -1.
        -13    1    5    5    0    0 -0.15609114345E+03  0.11459942552E+04  0.11931633553E+03  0.11627139226E+04  0.00000000000E+00 0.  1.
          2    1    6    6  503    0  0.33565428975E+01  0.96577110009E+02  0.79932438032E+02  0.12540972533E+03  0.00000000000E+00 0. -1.
         -2    1    6    6    0  503  0.10358469073E+02  0.10646818228E+04  0.51883837452E+03  0.11844188197E+04  0.00000000000E+00 0.  1.
<mgrwt>
<rscale>  0 0.26325372E+04</rscale>
<asrwt>0</asrwt>
<pdfrwt beam="1">  1        2 0.45007393E+00 0.26325372E+04</pdfrwt>
<pdfrwt beam="2">  1       -2 0.38734621E+00 0.26325372E+04</pdfrwt>
<totfact> 0.14370650E-02</totfact>
</mgrwt>
</event>
<event>
12    1  0.1444206E-007  0.1304382E+04  0.7818608E-02  0.9026097E-01
         -2   -1    0    0    0  501 -0.00000000000E+00  0.00000000000E+00  0.10431712553E+04  0.10431712553E+04  0.00000000000E+00 0.  1.
          2   -1    0    0  501    0  0.00000000000E+00 -0.00000000000E+00 -0.16901234157E+04  0.16901234157E+04  0.00000000000E+00 0. -1.
         23    2    1    2    0    0 -0.12013876160E+04 -0.30703369582E+03 -0.87097330686E+02  0.12463240934E+04  0.90199259802E+02 0.  0.
    5000000    2    1    2    0    0  0.12013876160E+04  0.30703369582E+03 -0.55985482969E+03  0.14869705776E+04  0.60003514407E+03 0.  0.
         23    2    4    4    0    0  0.69780085208E+03  0.45891069209E+03 -0.39370027246E+03  0.92783557165E+03  0.91399622610E+02 0.  0.
         23    2    4    4    0    0  0.50358676390E+03 -0.15187699627E+03 -0.16615455723E+03  0.55913500594E+03  0.91424106305E+02 0.  0.
          4    1    3    3  502    0 -0.80967798766E+02 -0.41925677213E+02 -0.17675673339E+02  0.92876134043E+02  0.00000000000E+00 0. -1.
         -4    1    3    3    0  502 -0.11204198172E+04 -0.26510801860E+03 -0.69421657347E+02  0.11534479593E+04  0.00000000000E+00 0.  1.
         13    1    5    5    0    0  0.16936487178E+03  0.12409713226E+03 -0.14226559934E+03  0.25362188152E+03  0.00000000000E+00 0. -1.
        -13    1    5    5    0    0  0.52843598030E+03  0.33481355982E+03 -0.25143467312E+03  0.67421369014E+03  0.00000000000E+00 0.  1.
          4    1    6    6  503    0  0.20608112414E+03 -0.98591462956E+02 -0.41457278257E+02  0.23218185161E+03  0.00000000000E+00 0. -1.
         -4    1    6    6    0  503  0.29750563976E+03 -0.53285533317E+02 -0.12469727897E+03  0.32695315433E+03  0.00000000000E+00 0.  1.
<mgrwt>
<rscale>  0 0.13043824E+04</rscale>
<asrwt>0</asrwt>
<pdfrwt beam="1">  1        2 0.26001899E+00 0.13043824E+04</pdfrwt>
<pdfrwt beam="2">  1       -2 0.16048789E+00 0.13043824E+04</pdfrwt>
<totfact> 0.23849540E+00</totfact>
</mgrwt>
</event>
<event>
12    1  0.1444206E-007  0.3384679E+03  0.7818608E-02  0.1067450E+00
          2   -1    0    0  501    0  0.00000000000E+00  0.00000000000E+00  0.41035261954E+04  0.41035261954E+04  0.00000000000E+00 0.  1.
         -2   -1    0    0    0  501 -0.00000000000E+00 -0.00000000000E+00 -0.31162648184E+02  0.31162648184E+02  0.00000000000E+00 0. -1.
         23    2    1    2    0    0  0.40860000657E+02 -0.11463086523E+02  0.35278283491E+03  0.36679426682E+03  0.91001997554E+02 0.  0.
    5000000    2    1    2    0    0 -0.40860000657E+02  0.11463086523E+02  0.37195807123E+04  0.37678945767E+04  0.59995660197E+03 0.  0.
         23    2    4    4    0    0  0.24799357675E+03 -0.88462990573E+02  0.15449454092E+04  0.15700241626E+04  0.93771205380E+02 0.  0.
         23    2    4    4    0    0 -0.28885357740E+03  0.99926077096E+02  0.21746353031E+04  0.21978704142E+04  0.90410429940E+02 0.  0.
          4    1    3    3  502    0  0.55248630770E+02  0.89437779945E+01  0.11704728414E+03  0.12974000575E+03  0.00000000000E+00 0. -1.
         -4    1    3    3    0  502 -0.14388630113E+02 -0.20406864517E+02  0.23573555077E+03  0.23705426107E+03  0.00000000000E+00 0.  1.
         13    1    5    5    0    0  0.14369858246E+03 -0.18994340902E+01  0.82815977799E+03  0.84053644081E+03  0.00000000000E+00 0.  1.
        -13    1    5    5    0    0  0.10429499428E+03 -0.86563556483E+02  0.71678563118E+03  0.72948772177E+03  0.00000000000E+00 0. -1.
          2    1    6    6  503    0 -0.17760916243E+03  0.17851094729E+02  0.13454798286E+04  0.13572691868E+04  0.00000000000E+00 0. -1.
         -2    1    6    6    0  503 -0.11124441497E+03  0.82074982367E+02  0.82915547452E+03  0.84060122741E+03  0.00000000000E+00 0.  1.
<mgrwt>
<rscale>  0 0.33846788E+03</rscale>
<asrwt>0</asrwt>
<pdfrwt beam="1">  1        2 0.63131129E+00 0.33846788E+03</pdfrwt>
<pdfrwt beam="2">  1       -2 0.47942568E-02 0.33846788E+03</pdfrwt>
<totfact> 0.75503358E+01</totfact>
</mgrwt>
</event>
<event>
12    1  0.1444206E-007  0.1331867E+04  0.7818608E-02  0.9004669E-01
          2   -1    0    0  501    0  0.00000000000E+00  0.00000000000E+00  0.26243398994E+04  0.26243398994E+04  0.00000000000E+00 0. -1.
         -2   -1    0    0    0  501 -0.00000000000E+00 -0.00000000000E+00 -0.74640968696E+03  0.74640968696E+03  0.00000000000E+00 0.  1.
         23    2    1    2    0    0 -0.81049559979E+03  0.10049848777E+04  0.12996082185E+04  0.18340858440E+04  0.89395971315E+02 0.  0.
    5000000    2    1    2    0    0  0.81049559979E+03 -0.10049848777E+04  0.57832199388E+03  0.15366637423E+04  0.59998450539E+03 0.  0.
         23    2    4    4    0    0  0.25116556293E+01  0.13072600366E+02  0.12934013002E+03  0.15867104266E+03  0.90941900412E+02 0.  0.
         23    2    4    4    0    0  0.80798394416E+03 -0.10180574781E+04  0.44898186386E+03  0.13779926997E+04  0.89443186408E+02 0.  0.
          3    1    3    3  502    0 -0.68296028340E+03  0.79522589376E+03  0.10339316650E+04  0.14723564985E+04  0.00000000000E+00 0. -1.
         -3    1    3    3    0  502 -0.12753531639E+03  0.20975898396E+03  0.26567655355E+03  0.36172934548E+03  0.00000000000E+00 0.  1.
         11    1    5    5    0    0  0.35412672203E+02  0.52662529385E+01  0.11751633045E+03  0.12284900771E+03  0.00000000000E+00 0.  1.
        -11    1    5    5    0    0 -0.32901016574E+02  0.78063474278E+01  0.11823799572E+02  0.35822034952E+02  0.00000000000E+00 0. -1.
          4    1    6    6  503    0  0.53522137844E+03 -0.70545846658E+03  0.26635509713E+03  0.92470460677E+03  0.00000000000E+00 0. -1.
         -4    1    6    6    0  503  0.27276256572E+03 -0.31259901150E+03  0.18262676673E+03  0.45328809291E+03  0.00000000000E+00 0.  1.
<mgrwt>
<rscale>  0 0.13318667E+04</rscale>
<asrwt>0</asrwt>
<pdfrwt beam="1">  1        2 0.40374460E+00 0.13318667E+04</pdfrwt>
<pdfrwt beam="2">  1       -2 0.11483226E+00 0.13318667E+04</pdfrwt>
<totfact> 0.16865405E+00</totfact>
</mgrwt>
</event>
<event>
12    1  0.1444206E-007  0.1780408E+04  0.7818608E-02  0.8716788E-01
         -2   -1    0    0    0  501 -0.00000000000E+00  0.00000000000E+00  0.26086540526E+04  0.26086540526E+04  0.00000000000E+00 0. -1.
          2   -1    0    0  501    0  0.00000000000E+00 -0.00000000000E+00 -0.12554980121E+04  0.12554980121E+04  0.00000000000E+00 0.  1.
         23    2    1    2    0    0  0.14650305793E+04 -0.95664510997E+03  0.46827937117E+03  0.18136611869E+04  0.92719290741E+02 0.  0.
    5000000    2    1    2    0    0 -0.14650305793E+04  0.95664510997E+03  0.88487666935E+03  0.20504908778E+04  0.60001804577E+03 0.  0.
         23    2    4    4    0    0 -0.53602631818E+03  0.10568661817E+03  0.96992043588E+02  0.56188856166E+03  0.88416198496E+02 0.  0.
         23    2    4    4    0    0 -0.92900426109E+03  0.85095849180E+03  0.78788462576E+03  0.14886023161E+04  0.89417001502E+02 0.  0.
          2    1    3    3  502    0  0.50593357517E+03 -0.29063319922E+03  0.12678791962E+03  0.59708593647E+03  0.00000000000E+00 0. -1.
         -2    1    3    3    0  502  0.95909700410E+03 -0.66601191075E+03  0.34149145155E+03  0.12165752505E+04  0.00000000000E+00 0.  1.
         11    1    5    5    0    0 -0.33093230125E+01  0.29970594161E+01 -0.81285145889E+01  0.92739815272E+01  0.00000000000E+00 0. -1.
        -11    1    5    5    0    0 -0.53271699517E+03  0.10268955876E+03  0.10512055818E+03  0.55261458013E+03  0.00000000000E+00 0.  1.
          2    1    6    6  503    0 -0.20215116966E+03  0.23469846413E+03  0.20752720711E+03  0.37284850294E+03  0.00000000000E+00 0. -1.
         -2    1    6    6    0  503 -0.72685309143E+03  0.61626002767E+03  0.58035741866E+03  0.11157538132E+04  0.00000000000E+00 0.  1.
<mgrwt>
<rscale>  0 0.17804081E+04</rscale>
<asrwt>0</asrwt>
<pdfrwt beam="1">  1        2 0.19315354E+00 0.17804081E+04</pdfrwt>
<pdfrwt beam="2">  1       -2 0.40133139E+00 0.17804081E+04</pdfrwt>
<totfact> 0.11717830E-01</totfact>
</mgrwt>
</event>
<event>
12    1  0.1444206E-007  0.7091606E+03  0.7818608E-02  0.9701693E-01
          1   -1    0    0  501    0  0.00000000000E+00  0.00000000000E+00  0.13982351263E+04  0.13982351263E+04  0.00000000000E+00 0. -1.
         -1   -1    0    0    0  501 -0.00000000000E+00 -0.00000000000E+00 -0.52942865209E+03  0.52942865209E+03  0.00000000000E+00 0.  1.
         23    2    1    2    0    0 -0.59242144442E+03 -0.50379004941E+01 -0.13762516394E+03  0.61473635345E+03  0.89283538544E+02 0.  0.
    5000000    2    1    2    0    0  0.59242144442E+03  0.50379004941E+01  0.10064316382E+04  0.13129274249E+04  0.59990435289E+03 0.  0.
         23    2    4    4    0    0  0.10504380214E+03  0.24573594528E+03  0.24786003982E+03  0.37571631299E+03  0.91147097240E+02 0.  0.
         23    2    4    4    0    0  0.48737764228E+03 -0.24069804479E+03  0.75857159834E+03  0.93721111195E+03  0.86378721862E+02 0.  0.
          1    1    3    3  502    0 -0.36172256970E+03  0.75107954098E+01 -0.12703199217E+03  0.38345372147E+03  0.00000000000E+00 0. -1.
         -1    1    3    3    0  502 -0.23069887472E+03 -0.12548695904E+02 -0.10593171772E+02  0.23128263198E+03  0.00000000000E+00 0.  1.
         11    1    5    5    0    0 -0.21533706040E-01  0.11097087027E+03  0.10870881231E+03  0.15534522969E+03  0.00000000000E+00 0.  1.
        -11    1    5    5    0    0  0.10506533584E+03  0.13476507501E+03  0.13915122751E+03  0.22037108330E+03  0.00000000000E+00 0. -1.
          2    1    6    6  503    0  0.14990756027E+03 -0.78023641708E+02  0.17137767968E+03  0.24068708811E+03  0.00000000000E+00 0. -1.
         -2    1    6    6    0  503  0.33747008201E+03 -0.16267440308E+03  0.58719391866E+03  0.69652402383E+03  0.00000000000E+00 0.  1.
<mgrwt>
<rscale>  0 0.70916060E+03</rscale>
<asrwt>0</asrwt>
<pdfrwt beam="1">  1        1 0.21511309E+00 0.70916060E+03</pdfrwt>
<pdfrwt beam="2">  1       -1 0.81450562E-01 0.70916060E+03</pdfrwt>
<totfact> 0.12055685E+01</totfact>
</mgrwt>
</event>
<event>
12    1  0.1444206E-007  0.5914458E+03  0.7818608E-02  0.9923314E-01
         -2   -1    0    0    0  501 -0.00000000000E+00  0.00000000000E+00  0.78979366115E+03  0.78979366115E+03  0.00000000000E+00 0.  1.
          2   -1    0    0  501    0  0.00000000000E+00 -0.00000000000E+00 -0.45765634694E+03  0.45765634694E+03  0.00000000000E+00 0. -1.
         23    2    1    2    0    0  0.43228873132E+03  0.95815526693E+02  0.18100976493E+03  0.48656094310E+03  0.89010414972E+02 0.  0.
    5000000    2    1    2    0    0 -0.43228873132E+03 -0.95815526693E+02  0.15112754928E+03  0.76088906498E+03  0.60004872359E+03 0.  0.
         23    2    4    4    0    0  0.91753538540E+02 -0.16397896572E+03  0.60570073131E+02  0.21719002930E+03  0.90526029617E+02 0.  0.
         23    2    4    4    0    0 -0.52404226986E+03  0.68163439023E+02  0.90557476145E+02  0.54369903568E+03  0.90229872525E+02 0.  0.
          2    1    3    3  502    0  0.28054908898E+03  0.50578888041E+02  0.15980498330E+03  0.32680827396E+03  0.00000000000E+00 0. -1.
         -2    1    3    3    0  502  0.15173964234E+03  0.45236638652E+02  0.21204781631E+02  0.15975266914E+03  0.00000000000E+00 0.  1.
         13    1    5    5    0    0  0.64672974331E+02 -0.16788001472E+03  0.44019097259E+02  0.18521331991E+03  0.00000000000E+00 0.  1.
        -13    1    5    5    0    0  0.27080564210E+02  0.39010489994E+01  0.16550975872E+02  0.31976709392E+02  0.00000000000E+00 0. -1.
          1    1    6    6  503    0 -0.24085931401E+03  0.63093163522E+02  0.97841221977E+01  0.24917801964E+03  0.00000000000E+00 0. -1.
         -1    1    6    6    0  503 -0.28318295585E+03  0.50702755017E+01  0.80773353948E+02  0.29452101603E+03  0.00000000000E+00 0.  1.
<mgrwt>
<rscale>  0 0.59144585E+03</rscale>
<asrwt>0</asrwt>
<pdfrwt beam="1">  1        2 0.70408669E-01 0.59144585E+03</pdfrwt>
<pdfrwt beam="2">  1       -2 0.12150672E+00 0.59144585E+03</pdfrwt>
<totfact> 0.35989119E+01</totfact>
</mgrwt>
</event>
<event>
12    1  0.1444206E-007  0.1837284E+04  0.7818608E-02  0.8686720E-01
          2   -1    0    0  501    0  0.00000000000E+00  0.00000000000E+00  0.39737152219E+04  0.39737152219E+04  0.00000000000E+00 0. -1.
         -2   -1    0    0    0  501 -0.00000000000E+00 -0.00000000000E+00 -0.10258723358E+04  0.10258723358E+04  0.00000000000E+00 0.  1.
         23    2    1    2    0    0  0.17308085939E+04  0.47870374477E+03  0.42914943394E+03  0.18486024347E+04  0.91137593562E+02 0.  0.
    5000000    2    1    2    0    0 -0.17308085939E+04 -0.47870374477E+03  0.25186934522E+04  0.31509851229E+04  0.60002906168E+03 0.  0.
         23    2    4    4    0    0 -0.10792156173E+04 -0.56118169270E+03  0.17863475808E+04  0.21628052615E+04  0.84009992359E+02 0.  0.
         23    2    4    4    0    0 -0.65159297668E+03  0.82477947931E+02  0.73234587133E+03  0.98817986144E+03  0.93770699883E+02 0.  0.
          2    1    3    3  502    0  0.11499339323E+04  0.33322077298E+03  0.24436632439E+03  0.12219243155E+04  0.00000000000E+00 0. -1.
         -2    1    3    3    0  502  0.58087466164E+03  0.14548297178E+03  0.18478310955E+03  0.62667811928E+03  0.00000000000E+00 0.  1.
         13    1    5    5    0    0 -0.82300150723E+03 -0.40243425237E+03  0.12925711473E+04  0.15843058351E+04  0.00000000000E+00 0.  1.
        -13    1    5    5    0    0 -0.25621411004E+03 -0.15874744032E+03  0.49377643353E+03  0.57849942636E+03  0.00000000000E+00 0. -1.
          3    1    6    6  503    0 -0.47673712039E+03  0.26867411042E+02  0.56604240508E+03  0.74054314127E+03  0.00000000000E+00 0. -1.
         -3    1    6    6    0  503 -0.17485585629E+03  0.55610536889E+02  0.16630346625E+03  0.24763672018E+03  0.00000000000E+00 0.  1.
<mgrwt>
<rscale>  0 0.18372841E+04</rscale>
<asrwt>0</asrwt>
<pdfrwt beam="1">  1        2 0.61134079E+00 0.18372841E+04</pdfrwt>
<pdfrwt beam="2">  1       -2 0.15782652E+00 0.18372841E+04</pdfrwt>
<totfact> 0.86350799E-02</totfact>
</mgrwt>
</event>
<event>
12    1  0.1444206E-007  0.3200266E+03  0.7818608E-02  0.1075637E+00
          1   -1    0    0  501    0  0.00000000000E+00  0.00000000000E+00  0.17288291869E+04  0.17288291869E+04  0.00000000000E+00 0. -1.
         -1   -1    0    0    0  501 -0.00000000000E+00 -0.00000000000E+00 -0.84680516584E+02  0.84680516584E+02  0.00000000000E+00 0.  1.
         23    2    1    2    0    0 -0.94321094483E+02 -0.55137332553E+02  0.46211811447E+03  0.48371867038E+03  0.92162932049E+02 0.  0.
    5000000    2    1    2    0    0  0.94321094483E+02  0.55137332553E+02  0.11820305558E+04  0.13297910331E+04  0.59934244173E+03 0.  0.
         23    2    4    4    0    0  0.25746011503E+03  0.14113389069E+03  0.31435458840E+03  0.43807087384E+03  0.82962626077E+02 0.  0.
         23    2    4    4    0    0 -0.16313902054E+03 -0.85996558141E+02  0.86767596739E+03  0.89172015922E+03  0.91068709927E+02 0.  0.
          4    1    3    3  502    0 -0.71024743064E+02 -0.79188978211E+02  0.30341109277E+03  0.32151780606E+03  0.00000000000E+00 0. -1.
         -4    1    3    3    0  502 -0.23296351419E+02  0.24051645658E+02  0.15870702170E+03  0.16220086432E+03  0.00000000000E+00 0.  1.
         11    1    5    5    0    0  0.77869563127E+02  0.55038915855E+02  0.51776406079E+02  0.10850690000E+03  0.00000000000E+00 0.  1.
        -11    1    5    5    0    0  0.17959055190E+03  0.86094974839E+02  0.26257818233E+03  0.32956397385E+03  0.00000000000E+00 0. -1.
          4    1    6    6  503    0 -0.44942487975E+02  0.17834259360E+02  0.20313062715E+03  0.20880598583E+03  0.00000000000E+00 0.  1.
         -4    1    6    6    0  503 -0.11819653257E+03 -0.10383081750E+03  0.66454534024E+03  0.68291417338E+03  0.00000000000E+00 0. -1.
<mgrwt>
<rscale>  0 0.32002664E+03</rscale>
<asrwt>0</asrwt>
<pdfrwt beam="1">  1        1 0.26597369E+00 0.32002664E+03</pdfrwt>
<pdfrwt beam="2">  1       -1 0.13027773E-01 0.32002664E+03</pdfrwt>
<totfact> 0.20258454E+02</totfact>
</mgrwt>
</event>
<event>
12    1  0.1444206E-007  0.9531574E+03  0.7818608E-02  0.9361468E-01
          1   -1    0    0  501    0  0.00000000000E+00  0.00000000000E+00  0.18357581324E+04  0.18357581324E+04  0.00000000000E+00 0. -1.
         -1   -1    0    0    0  501 -0.00000000000E+00 -0.00000000000E+00 -0.58049050718E+03  0.58049050718E+03  0.00000000000E+00 0.  1.
         23    2    1    2    0    0  0.33461157922E+03 -0.80379990592E+03  0.10010075817E+04  0.13298257052E+04  0.91438667747E+02 0.  0.
    5000000    2    1    2    0    0 -0.33461157922E+03  0.80379990592E+03  0.25426004358E+03  0.10864229344E+04  0.59800286365E+03 0.  0.
         23    2    4    4    0    0 -0.10333389188E+03  0.77586765206E+03  0.10670429533E+03  0.79508484804E+03  0.90142122264E+02 0.  0.
         23    2    4    4    0    0 -0.23127768733E+03  0.27932253855E+02  0.14755574825E+03  0.29133808637E+03  0.93997884343E+02 0.  0.
          4    1    3    3  502    0  0.16170228549E+03 -0.43718082813E+03  0.47192643531E+03  0.66331686694E+03  0.00000000000E+00 0. -1.
         -4    1    3    3    0  502  0.17290929372E+03 -0.36661907779E+03  0.52908114636E+03  0.66650883827E+03  0.00000000000E+00 0.  1.
         11    1    5    5    0    0 -0.78627159555E+02  0.73072186174E+03  0.11169559916E+03  0.74337916053E+03  0.00000000000E+00 0. -1.
        -11    1    5    5    0    0 -0.24706732329E+02  0.45145790323E+02 -0.49913038286E+01  0.51705687503E+02  0.00000000000E+00 0.  1.
          3    1    6    6  503    0 -0.17612897737E+03 -0.17481326695E+02  0.12402035633E+03  0.21612048083E+03  0.00000000000E+00 0. -1.
         -3    1    6    6    0  503 -0.55148709969E+02  0.45413580549E+02  0.23535391928E+02  0.75217605537E+02  0.00000000000E+00 0.  1.
<mgrwt>
<rscale>  0 0.95315738E+03</rscale>
<asrwt>0</asrwt>
<pdfrwt beam="1">  1        1 0.28242433E+00 0.95315738E+03</pdfrwt>
<pdfrwt beam="2">  1       -1 0.89306233E-01 0.95315738E+03</pdfrwt>
<totfact> 0.48065056E+00</totfact>
</mgrwt>
</event>
<event>
12    1  0.1444206E-007  0.3822712E+03  0.7818608E-02  0.1050098E+00
         -1   -1    0    0    0  501 -0.00000000000E+00  0.00000000000E+00  0.31830350772E+03  0.31830350772E+03  0.00000000000E+00 0.  1.
          1   -1    0    0  501    0  0.00000000000E+00 -0.00000000000E+00 -0.74317883046E+03  0.74317883046E+03  0.00000000000E+00 0. -1.
         23    2    1    2    0    0  0.21901220532E+03  0.18101034891E+03 -0.56621011166E+02  0.30230895094E+03  0.86334642077E+02 0.  0.
    5000000    2    1    2    0    0 -0.21901220532E+03 -0.18101034891E+03 -0.36825431158E+03  0.75917338724E+03  0.60000158450E+03 0.  0.
         23    2    4    4    0    0 -0.24747810910E+03  0.30618089782E+02 -0.44243468674E+03  0.51545897994E+03  0.88128463404E+02 0.  0.
         23    2    4    4    0    0  0.28465903778E+02 -0.21162843869E+03  0.74180375165E+02  0.24371440729E+03  0.91088311674E+02 0.  0.
          4    1    3    3  502    0  0.76685811038E+02  0.26815833912E+02 -0.43272074800E+02  0.92044961950E+02  0.00000000000E+00 0. -1.
         -4    1    3    3    0  502  0.14232639429E+03  0.15419451499E+03 -0.13348936366E+02  0.21026398899E+03  0.00000000000E+00 0.  1.
         13    1    5    5    0    0 -0.13930423792E+03 -0.19482951839E+02 -0.19110747414E+03  0.23729164079E+03  0.00000000000E+00 0.  1.
        -13    1    5    5    0    0 -0.10817387118E+03  0.50101041621E+02 -0.25132721260E+03  0.27816733916E+03  0.00000000000E+00 0. -1.
          3    1    6    6  503    0  0.22168388502E+02 -0.17823942460E+03  0.95678252928E+02  0.20350689918E+03  0.00000000000E+00 0. -1.
         -3    1    6    6    0  503  0.62975152758E+01 -0.33389014090E+02 -0.21497877763E+02  0.40207508115E+02  0.00000000000E+00 0.  1.
<mgrwt>
<rscale>  0 0.38227117E+03</rscale>
<asrwt>0</asrwt>
<pdfrwt beam="1">  1        1 0.11433520E+00 0.38227117E+03</pdfrwt>
<pdfrwt beam="2">  1       -1 0.48969771E-01 0.38227117E+03</pdfrwt>
<totfact> 0.10952984E+02</totfact>
</mgrwt>
</event>
<event>
12    1  0.1444206E-007  0.8214705E+03  0.7818608E-02  0.9529449E-01
         -2   -1    0    0    0  501 -0.00000000000E+00  0.00000000000E+00  0.38900430423E+03  0.38900430423E+03  0.00000000000E+00 0. -1.
          2   -1    0    0  501    0  0.00000000000E+00 -0.00000000000E+00 -0.28572751807E+04  0.28572751807E+04  0.00000000000E+00 0.  1.
         23    2    1    2    0    0 -0.21459447473E+03  0.74768749919E+03 -0.20196535755E+04  0.21661503673E+04  0.90108066911E+02 0.  0.
    5000000    2    1    2    0    0  0.21459447473E+03 -0.74768749919E+03 -0.44861730094E+03  0.10801291176E+04  0.60027830458E+03 0.  0.
         23    2    4    4    0    0  0.24962566103E+03 -0.26992154472E+03  0.50794494729E+02  0.38208426466E+03  0.90761741132E+02 0.  0.
         23    2    4    4    0    0 -0.35031186299E+02 -0.47776595447E+03 -0.49941179567E+03  0.69804485294E+03  0.91471218441E+02 0.  0.
          3    1    3    3  502    0 -0.34873270941E+02  0.26997538198E+03 -0.66763157997E+03  0.72099568548E+03  0.00000000000E+00 0. -1.
         -3    1    3    3    0  502 -0.17972120379E+03  0.47771211721E+03 -0.13520219955E+04  0.14451546818E+04  0.00000000000E+00 0.  1.
         13    1    5    5    0    0  0.11188892703E+03 -0.61967670821E+02  0.19649204335E+01  0.12791788433E+03  0.00000000000E+00 0. -1.
        -13    1    5    5    0    0  0.13773673400E+03 -0.20795387390E+03  0.48829574295E+02  0.25416638033E+03  0.00000000000E+00 0.  1.
          4    1    6    6  503    0  0.90728385838E+01 -0.11536202855E+02 -0.37467698581E+02  0.40239642310E+02  0.00000000000E+00 0. -1.
         -4    1    6    6    0  503 -0.44104024882E+02 -0.46622975161E+03 -0.46194409709E+03  0.65780521063E+03  0.00000000000E+00 0.  1.
<mgrwt>
<rscale>  0 0.82147054E+03</rscale>
<asrwt>0</asrwt>
<pdfrwt beam="1">  1        2 0.43958081E+00 0.82147054E+03</pdfrwt>
<pdfrwt beam="2">  1       -2 0.59846815E-01 0.82147054E+03</pdfrwt>
<totfact> 0.58207870E+00</totfact>
</mgrwt>
</event>
<event>
12    1  0.1444206E-007  0.1172826E+04  0.7818608E-02  0.9136980E-01
          2   -1    0    0  501    0  0.00000000000E+00  0.00000000000E+00  0.13060651545E+04  0.13060651545E+04  0.00000000000E+00 0. -1.
         -2   -1    0    0    0  501 -0.00000000000E+00 -0.00000000000E+00 -0.12433703239E+04  0.12433703239E+04  0.00000000000E+00 0.  1.
         23    2    1    2    0    0 -0.10729531527E+04 -0.34647826608E+03 -0.38664488677E+03  0.11954605335E+04  0.91410950457E+02 0.  0.
    5000000    2    1    2    0    0  0.10729531527E+04  0.34647826608E+03  0.44933971735E+03  0.13539749448E+04  0.60005525818E+03 0.  0.
         23    2    4    4    0    0  0.20160667495E+03 -0.92928953373E+02 -0.62604078113E+02  0.24810629990E+03  0.91413476561E+02 0.  0.
         23    2    4    4    0    0  0.87134647777E+03  0.43940721945E+03  0.51194379546E+03  0.11058686449E+04  0.92388426282E+02 0.  0.
          4    1    3    3  502    0 -0.32538055699E+03 -0.13979955409E+03 -0.14945927064E+03  0.38438846988E+03  0.00000000000E+00 0. -1.
         -4    1    3    3    0  502 -0.74757259573E+03 -0.20667871199E+03 -0.23718561612E+03  0.81107206361E+03  0.00000000000E+00 0.  1.
         11    1    5    5    0    0  0.10931680110E+03 -0.82056786916E+00 -0.35406444158E+02  0.11491062885E+03  0.00000000000E+00 0.  1.
        -11    1    5    5    0    0  0.92289873843E+02 -0.92108385504E+02 -0.27197633955E+02  0.13319567105E+03  0.00000000000E+00 0. -1.
          1    1    6    6  503    0  0.53044608205E+03  0.25391048835E+03  0.35712694726E+03  0.68802851577E+03  0.00000000000E+00 0. -1.
         -1    1    6    6    0  503  0.34090039572E+03  0.18549673111E+03  0.15481684820E+03  0.41784012917E+03  0.00000000000E+00 0.  1.
<mgrwt>
<rscale>  0 0.11728264E+04</rscale>
<asrwt>0</asrwt>
<pdfrwt beam="1">  1        2 0.20093310E+00 0.11728264E+04</pdfrwt>
<pdfrwt beam="2">  1       -2 0.19128774E+00 0.11728264E+04</pdfrwt>
<totfact> 0.24250256E+00</totfact>
</mgrwt>
</event>
<event>
12    1  0.1444206E-007  0.7390129E+03  0.7818608E-02  0.9652747E-01
         -2   -1    0    0    0  501 -0.00000000000E+00  0.00000000000E+00  0.28626848494E+03  0.28626848494E+03  0.00000000000E+00 0.  1.
          2   -1    0    0  501    0  0.00000000000E+00 -0.00000000000E+00 -0.23184714288E+04  0.23184714288E+04  0.00000000000E+00 0. -1.
         23    2    1    2    0    0 -0.17049653113E+03 -0.62909438250E+03 -0.46832984586E+03  0.80756302779E+03  0.89422536949E+02 0.  0.
    5000000    2    1    2    0    0  0.17049653113E+03  0.62909438250E+03 -0.15638730980E+04  0.17971768860E+04  0.59943046598E+03 0.  0.
         23    2    4    4    0    0  0.28051439030E+03  0.15130302943E+03 -0.95528608140E+03  0.10110444523E+04  0.89768910521E+02 0.  0.
         23    2    4    4    0    0 -0.11001785918E+03  0.47779135306E+03 -0.60858701661E+03  0.78613243368E+03  0.85073733275E+02 0.  0.
          3    1    3    3  502    0 -0.41935581616E+02 -0.29054096371E+03 -0.17700895097E+03  0.34278975090E+03  0.00000000000E+00 0. -1.
         -3    1    3    3    0  502 -0.12856094951E+03 -0.33855341879E+03 -0.29132089489E+03  0.46477327689E+03  0.00000000000E+00 0.  1.
         11    1    5    5    0    0  0.34262591425E+01  0.27345952377E+02 -0.81431005844E+02  0.85968302740E+02  0.00000000000E+00 0. -1.
        -11    1    5    5    0    0  0.27708813116E+03  0.12395707706E+03 -0.87385507555E+03  0.92507614954E+03  0.00000000000E+00 0.  1.
          4    1    6    6  503    0 -0.39206296770E+02  0.23749317240E+03 -0.23555625465E+03  0.33678908793E+03  0.00000000000E+00 0. -1.
         -4    1    6    6    0  503 -0.70811562408E+02  0.24029818066E+03 -0.37303076196E+03  0.44934334575E+03  0.00000000000E+00 0.  1.
<mgrwt>
<rscale>  0 0.73901293E+03</rscale>
<asrwt>0</asrwt>
<pdfrwt beam="1">  1        2 0.35668790E+00 0.73901293E+03</pdfrwt>
<pdfrwt beam="2">  1       -2 0.44041307E-01 0.73901293E+03</pdfrwt>
<totfact> 0.22554514E+01</totfact>
</mgrwt>
</event>
<event>
12    1  0.1444206E-007  0.1427535E+04  0.7818608E-02  0.8934125E-01
         -1   -1    0    0    0  501 -0.00000000000E+00  0.00000000000E+00  0.26564582530E+04  0.26564582530E+04  0.00000000000E+00 0.  1.
          1   -1    0    0  501    0  0.00000000000E+00 -0.00000000000E+00 -0.80987398922E+03  0.80987398922E+03  0.00000000000E+00 0. -1.
         23    2    1    2    0    0  0.27990592895E+03 -0.13734288100E+04  0.79298117702E+03  0.16130397611E+04  0.91782888474E+02 0.  0.
    5000000    2    1    2    0    0 -0.27990592895E+03  0.13734288100E+04  0.10536030867E+04  0.18532924811E+04  0.59996627484E+03 0.  0.
         23    2    4    4    0    0 -0.24359129954E+03  0.13418207921E+04  0.81089477434E+03  0.15891847644E+04  0.90211534811E+02 0.  0.
         23    2    4    4    0    0 -0.36314629412E+02  0.31608017882E+02  0.24270831240E+03  0.26410771670E+03  0.92345774176E+02 0.  0.
          4    1    3    3  502    0  0.83561568541E+02 -0.59508581011E+03  0.30926188818E+03  0.67583472285E+03  0.00000000000E+00 0. -1.
         -4    1    3    3    0  502  0.19634436041E+03 -0.77834299988E+03  0.48371928884E+03  0.93720503825E+03  0.00000000000E+00 0.  1.
         11    1    5    5    0    0 -0.15180108257E+03  0.64108412669E+03  0.42449173214E+03  0.78372549839E+03  0.00000000000E+00 0. -1.
        -11    1    5    5    0    0 -0.91790216966E+02  0.70073666541E+03  0.38640304220E+03  0.80545926601E+03  0.00000000000E+00 0.  1.
          4    1    6    6  503    0  0.17184830590E+02  0.27239868007E+02  0.17380464173E+03  0.17676363398E+03  0.00000000000E+00 0. -1.
         -4    1    6    6    0  503 -0.53499460002E+02  0.43681498748E+01  0.68903670666E+02  0.87344082714E+02  0.00000000000E+00 0.  1.
<mgrwt>
<rscale>  0 0.14275347E+04</rscale>
<asrwt>0</asrwt>
<pdfrwt beam="1">  1        1 0.12459600E+00 0.14275347E+04</pdfrwt>
<pdfrwt beam="2">  1       -1 0.40868588E+00 0.14275347E+04</pdfrwt>
<totfact> 0.13040064E-01</totfact>
</mgrwt>
</event>
<event>
12    1  0.1444206E-007  0.4923444E+03  0.7818608E-02  0.1015797E+00
          1   -1    0    0  501    0  0.00000000000E+00  0.00000000000E+00  0.15744261096E+04  0.15744261096E+04  0.00000000000E+00 0. -1.
         -1   -1    0    0    0  501 -0.00000000000E+00 -0.00000000000E+00 -0.21374759815E+03  0.21374759815E+03  0.00000000000E+00 0.  1.
         23    2    1    2    0    0  0.23120520687E+03 -0.29888398145E+03  0.78022452539E+03  0.87174871575E+03  0.91695317920E+02 0.  0.
    5000000    2    1    2    0    0 -0.23120520687E+03  0.29888398145E+03  0.58045398605E+03  0.91642499199E+03  0.60010036992E+03 0.  0.
         23    2    4    4    0    0  0.11170166787E+03  0.19894020416E+03  0.47228118203E+03  0.53246846578E+03  0.91753390731E+02 0.  0.
         23    2    4    4    0    0 -0.34290687474E+03  0.99943777290E+02  0.10817280402E+03  0.38395652621E+03  0.90262811436E+02 0.  0.
          3    1    3    3  502    0  0.11095866995E+03 -0.85234800993E+02  0.22734550752E+03  0.26695088973E+03  0.00000000000E+00 0. -1.
         -3    1    3    3    0  502  0.12024653692E+03 -0.21364918046E+03  0.55287901787E+03  0.60479782602E+03  0.00000000000E+00 0.  1.
         11    1    5    5    0    0  0.33506482387E+02  0.74672265720E+01  0.11085831528E+03  0.11605175527E+03  0.00000000000E+00 0.  1.
        -11    1    5    5    0    0  0.78195185487E+02  0.19147297759E+03  0.36142286675E+03  0.41641671051E+03  0.00000000000E+00 0. -1.
          2    1    6    6  503    0 -0.14461317378E+03  0.57775625056E+02  0.34212778705E+01  0.15576488059E+03  0.00000000000E+00 0. -1.
         -2    1    6    6    0  503 -0.19829370096E+03  0.42168152234E+02  0.10475152615E+03  0.22819164563E+03  0.00000000000E+00 0.  1.
<mgrwt>
<rscale>  0 0.49234440E+03</rscale>
<asrwt>0</asrwt>
<pdfrwt beam="1">  1        1 0.24221939E+00 0.49234440E+03</pdfrwt>
<pdfrwt beam="2">  1       -1 0.32884247E-01 0.49234440E+03</pdfrwt>
<totfact> 0.53666732E+01</totfact>
</mgrwt>
</event>
<event>
12    1  0.1444206E-007  0.4776531E+03  0.7818608E-02  0.1019782E+00
         -2   -1    0    0    0  501 -0.00000000000E+00  0.00000000000E+00  0.12177873508E+03  0.12177873508E+03  0.00000000000E+00 0. -1.
          2   -1    0    0  501    0  0.00000000000E+00 -0.00000000000E+00 -0.21641120931E+04  0.21641120931E+04  0.00000000000E+00 0.  1.
         23    2    1    2    0    0  0.74501112042E+02 -0.32024740960E+03 -0.61702425073E+03  0.70500623460E+03  0.90587227423E+02 0.  0.
    5000000    2    1    2    0    0 -0.74501112042E+02  0.32024740960E+03 -0.14253091072E+04  0.15808845935E+04  0.59965092166E+03 0.  0.
         23    2    4    4    0    0  0.21606653661E+03  0.13580322477E+03 -0.93874616114E+03  0.97712560353E+03  0.91666929185E+02 0.  0.
         23    2    4    4    0    0 -0.29056764865E+03  0.18444418483E+03 -0.48656294611E+03  0.60375899002E+03  0.96603321612E+02 0.  0.
          4    1    3    3  502    0  0.75525820590E+02 -0.19205470895E+03 -0.44445976432E+03  0.49003432829E+03  0.00000000000E+00 0. -1.
         -4    1    3    3    0  502 -0.10247085488E+01 -0.12819270065E+03 -0.17256448641E+03  0.21497190630E+03  0.00000000000E+00 0.  1.
         11    1    5    5    0    0  0.16212159158E+03  0.13992931060E+03 -0.68589317193E+03  0.71854927856E+03  0.00000000000E+00 0. -1.
        -11    1    5    5    0    0  0.53944945026E+02 -0.41260858285E+01 -0.25285298921E+03  0.25857632497E+03  0.00000000000E+00 0.  1.
          2    1    6    6  503    0 -0.19525891919E+03  0.79802340561E+02 -0.24055458174E+03  0.31993900337E+03  0.00000000000E+00 0.  1.
         -2    1    6    6    0  503 -0.95308729464E+02  0.10464184427E+03 -0.24600836437E+03  0.28381998665E+03  0.00000000000E+00 0. -1.
<mgrwt>
<rscale>  0 0.47765305E+03</rscale>
<asrwt>0</asrwt>
<pdfrwt beam="1">  1        2 0.33294032E+00 0.47765305E+03</pdfrwt>
<pdfrwt beam="2">  1       -2 0.18735190E-01 0.47765305E+03</pdfrwt>
<totfact> 0.13784168E+02</totfact>
</mgrwt>
</event>
<event>
12    1  0.1444206E-007  0.7048216E+03  0.7818608E-02  0.9709022E-01
         -2   -1    0    0    0  501 -0.00000000000E+00  0.00000000000E+00  0.29548001515E+03  0.29548001515E+03  0.00000000000E+00 0.  1.
          2   -1    0    0  501    0  0.00000000000E+00 -0.00000000000E+00 -0.19491244565E+04  0.19491244565E+04  0.00000000000E+00 0. -1.
         23    2    1    2    0    0  0.10496462784E+03 -0.62550964828E+03 -0.62117182567E+03  0.89244268202E+03  0.91211898926E+02 0.  0.
    5000000    2    1    2    0    0 -0.10496462784E+03  0.62550964828E+03 -0.10324726157E+04  0.13521617896E+04  0.60005158946E+03 0.  0.
         23    2    4    4    0    0 -0.19242088349E+03  0.90731135778E+02 -0.66093413560E+02  0.24049969559E+03  0.90630176314E+02 0.  0.
         23    2    4    4    0    0  0.87456255649E+02  0.53477851250E+03 -0.96637920212E+03  0.11116620940E+04  0.90924116473E+02 0.  0.
          3    1    3    3  502    0 -0.43301517783E+01 -0.11140368802E+03 -0.74498500057E+02  0.13408787578E+03  0.00000000000E+00 0. -1.
         -3    1    3    3    0  502  0.10929477962E+03 -0.51410596025E+03 -0.54667332561E+03  0.75835480625E+03  0.00000000000E+00 0.  1.
         13    1    5    5    0    0 -0.60128133852E+02 -0.72026462376E+01 -0.43041513070E+02  0.74295642138E+02  0.00000000000E+00 0.  1.
        -13    1    5    5    0    0 -0.13229274964E+03  0.97933782016E+02 -0.23051900490E+02  0.16620405345E+03  0.00000000000E+00 0. -1.
          2    1    6    6  503    0  0.51119549493E+02  0.11254769650E+03 -0.17999165850E+03  0.21835106928E+03  0.00000000000E+00 0. -1.
         -2    1    6    6    0  503  0.36336706156E+02  0.42223081600E+03 -0.78638754362E+03  0.89331102476E+03  0.00000000000E+00 0.  1.
<mgrwt>
<rscale>  0 0.70482161E+03</rscale>
<asrwt>0</asrwt>
<pdfrwt beam="1">  1        2 0.29986529E+00 0.70482161E+03</pdfrwt>
<pdfrwt beam="2">  1       -2 0.45458465E-01 0.70482161E+03</pdfrwt>
<totfact> 0.33937789E+01</totfact>
</mgrwt>
</event>
<event>
12    1  0.2030113E-007  0.1017006E+04  0.7818608E-02  0.9290087E-01
         -1   -1    0    0    0  501 -0.00000000000E+00  0.00000000000E+00  0.73226474018E+03  0.73226474018E+03  0.00000000000E+00 0.  1.
          1   -1    0    0  501    0  0.00000000000E+00 -0.00000000000E+00 -0.14907883513E+04  0.14907883513E+04  0.00000000000E+00 0. -1.
         23    2    1    2    0    0  0.89542546094E+03  0.30334128322E+03 -0.50297956158E+03  0.10745126621E+04  0.88240192024E+02 0.  0.
    5000000    2    1    2    0    0 -0.89542546094E+03 -0.30334128322E+03 -0.25554404960E+03  0.11485404294E+04  0.60003305449E+03 0.  0.
         23    2    4    4    0    0 -0.68456519782E+03  0.26351094637E+02 -0.27984101985E+03  0.74570979888E+03  0.91914185577E+02 0.  0.
         23    2    4    4    0    0 -0.21086026312E+03 -0.32969237786E+03  0.24296970249E+02  0.40283063052E+03  0.92320417777E+02 0.  0.
          3    1    3    3  502    0  0.46203355983E+03  0.11042016302E+03 -0.25882010707E+03  0.54097640488E+03  0.00000000000E+00 0. -1.
         -3    1    3    3    0  502  0.43339190110E+03  0.19292112021E+03 -0.24415945450E+03  0.53353625724E+03  0.00000000000E+00 0.  1.
         13    1    5    5    0    0 -0.64534968201E+03  0.12066565207E+02 -0.24188898526E+03  0.68929826291E+03  0.00000000000E+00 0. -1.
        -13    1    5    5    0    0 -0.39215515810E+02  0.14284529431E+02 -0.37952034589E+02  0.56411535972E+02  0.00000000000E+00 0.  1.
          3    1    6    6  503    0 -0.19139924904E+03 -0.24728809314E+03  0.44301145042E+02  0.31582853733E+03  0.00000000000E+00 0. -1.
         -3    1    6    6    0  503 -0.19461014078E+02 -0.82404284725E+02 -0.20004174793E+02  0.87002093188E+02  0.00000000000E+00 0.  1.
<mgrwt>
<rscale>  0 0.10170060E+04</rscale>
<asrwt>0</asrwt>
<pdfrwt beam="1">  1        1 0.22935205E+00 0.10170060E+04</pdfrwt>
<pdfrwt beam="2">  1       -1 0.11265611E+00 0.10170060E+04</pdfrwt>
<totfact> 0.48031608E+00</totfact>
</mgrwt>
</event>
<event>
12    1  0.1444206E-007  0.6474819E+03  0.7818608E-02  0.9811516E-01
         -2   -1    0    0    0  501 -0.00000000000E+00  0.00000000000E+00  0.29911778655E+03  0.29911778655E+03  0.00000000000E+00 0.  1.
          2   -1    0    0  501    0  0.00000000000E+00 -0.00000000000E+00 -0.16390934215E+04  0.16390934215E+04  0.00000000000E+00 0. -1.
         23    2    1    2    0    0 -0.39454283133E+03  0.33451719107E+03 -0.87222323018E+03  0.10180931596E+04  0.90413060558E+02 0.  0.
    5000000    2    1    2    0    0  0.39454283133E+03 -0.33451719107E+03 -0.46775240481E+03  0.92011804848E+03  0.60021588954E+03 0.  0.
         23    2    4    4    0    0  0.46637919161E+02  0.14996150029E+03 -0.63784971213E+02  0.19460740946E+03  0.95603212251E+02 0.  0.
         23    2    4    4    0    0  0.34790491217E+03 -0.48447869136E+03 -0.40396743360E+03  0.72551063902E+03  0.86131118774E+02 0.  0.
          2    1    3    3  502    0 -0.11358684534E+03  0.13044759811E+03 -0.35811884980E+03  0.39770297694E+03  0.00000000000E+00 0. -1.
         -2    1    3    3    0  502 -0.28095598599E+03  0.20406959297E+03 -0.51410438038E+03  0.62039018268E+03  0.00000000000E+00 0.  1.
         13    1    5    5    0    0 -0.18945594282E+02  0.45097897951E+02 -0.50346167658E+02  0.70196100605E+02  0.00000000000E+00 0. -1.
        -13    1    5    5    0    0  0.65583513443E+02  0.10486360234E+03 -0.13438803555E+02  0.12441130886E+03  0.00000000000E+00 0.  1.
          1    1    6    6  503    0  0.85458643470E+02 -0.18602118292E+03 -0.12353898401E+03  0.23910027354E+03  0.00000000000E+00 0. -1.
         -1    1    6    6    0  503  0.26244626870E+03 -0.29845750845E+03 -0.28042844960E+03  0.48641036548E+03  0.00000000000E+00 0.  1.
<mgrwt>
<rscale>  0 0.64748190E+03</rscale>
<asrwt>0</asrwt>
<pdfrwt beam="1">  1        2 0.25216822E+00 0.64748190E+03</pdfrwt>
<pdfrwt beam="2">  1       -2 0.46018121E-01 0.64748190E+03</pdfrwt>
<totfact> 0.49210412E+01</totfact>
</mgrwt>
</event>
<event>
12    1  0.1444206E-007  0.4348297E+03  0.7818608E-02  0.1032345E+00
         -1   -1    0    0    0  501 -0.00000000000E+00  0.00000000000E+00  0.28539969120E+03  0.28539969120E+03  0.00000000000E+00 0.  1.
          1   -1    0    0  501    0  0.00000000000E+00 -0.00000000000E+00 -0.26692427093E+04  0.26692427093E+04  0.00000000000E+00 0. -1.
         23    2    1    2    0    0 -0.31290698977E+03  0.25091080919E+03 -0.21603906946E+04  0.21992081952E+04  0.91442408083E+02 0.  0.
    5000000    2    1    2    0    0  0.31290698977E+03 -0.25091080919E+03 -0.22345232346E+03  0.75543420528E+03  0.59990239143E+03 0.  0.
         23    2    4    4    0    0  0.24753092583E+03 -0.10573994311E+03  0.16325756465E+03  0.32760780093E+03  0.90671627343E+02 0.  0.
         23    2    4    4    0    0  0.65376063938E+02 -0.14517086609E+03 -0.38670988810E+03  0.42782640435E+03  0.90234608710E+02 0.  0.
          4    1    3    3  502    0 -0.19256330105E+03  0.13006321025E+03 -0.14584487107E+04  0.14768445095E+04  0.00000000000E+00 0.  1.
         -4    1    3    3    0  502 -0.12034368872E+03  0.12084759894E+03 -0.70194198389E+03  0.72236368564E+03  0.00000000000E+00 0. -1.
         11    1    5    5    0    0  0.16926398225E+03 -0.24183193046E+02  0.99769872645E+02  0.19796249645E+03  0.00000000000E+00 0. -1.
        -11    1    5    5    0    0  0.78266943577E+02 -0.81556750059E+02  0.63487692003E+02  0.12964530448E+03  0.00000000000E+00 0.  1.
          1    1    6    6  503    0  0.45960192174E+02 -0.11142337398E+02 -0.11085814651E+03  0.12052393785E+03  0.00000000000E+00 0. -1.
         -1    1    6    6    0  503  0.19415871764E+02 -0.13402852869E+03 -0.27585174159E+03  0.30730246650E+03  0.00000000000E+00 0.  1.
<mgrwt>
<rscale>  0 0.43482966E+03</rscale>
<asrwt>0</asrwt>
<pdfrwt beam="1">  1        1 0.41065272E+00 0.43482966E+03</pdfrwt>
<pdfrwt beam="2">  1       -1 0.43907645E-01 0.43482966E+03</pdfrwt>
<totfact> 0.60467204E+00</totfact>
</mgrwt>
</event>
<event>
12    1  0.1444206E-007  0.5454580E+03  0.7818608E-02  0.1002551E+00
          2   -1    0    0  501    0  0.00000000000E+00  0.00000000000E+00  0.24865166276E+04  0.24865166276E+04  0.00000000000E+00 0. -1.
         -2   -1    0    0    0  501 -0.00000000000E+00 -0.00000000000E+00 -0.17319448593E+03  0.17319448593E+03  0.00000000000E+00 0.  1.
         23    2    1    2    0    0  0.12334257404E+03  0.40722274222E+03  0.15061349576E+04  0.15677171550E+04  0.90833996877E+02 0.  0.
    5000000    2    1    2    0    0 -0.12334257404E+03 -0.40722274222E+03  0.80718718402E+03  0.10919939586E+04  0.59987990725E+03 0.  0.
         23    2    4    4    0    0  0.19283949733E+03 -0.10140000787E+03  0.48182086020E+03  0.53731369321E+03  0.95318572485E+02 0.  0.
         23    2    4    4    0    0 -0.31618207137E+03 -0.30582273435E+03  0.32536632382E+03  0.55468026534E+03  0.91149903901E+02 0.  0.
          3    1    3    3  502    0  0.11049744223E+03  0.24287487450E+03  0.83310104040E+03  0.87478867901E+03  0.00000000000E+00 0. -1.
         -3    1    3    3    0  502  0.12845131810E+02  0.16434786771E+03  0.67303391724E+03  0.69292847595E+03  0.00000000000E+00 0.  1.
         13    1    5    5    0    0  0.15070080005E+02 -0.57532560483E+01  0.13547918494E+03  0.13643612724E+03  0.00000000000E+00 0. -1.
        -13    1    5    5    0    0  0.17776941732E+03 -0.95646751817E+02  0.34634167526E+03  0.40087756596E+03  0.00000000000E+00 0.  1.
          1    1    6    6  503    0 -0.14256522564E+03 -0.16192323791E+03  0.10715089969E+03  0.24088439933E+03  0.00000000000E+00 0. -1.
         -1    1    6    6    0  503 -0.17361684573E+03 -0.14389949644E+03  0.21821542413E+03  0.31379586601E+03  0.00000000000E+00 0.  1.
<mgrwt>
<rscale>  0 0.54545800E+03</rscale>
<asrwt>0</asrwt>
<pdfrwt beam="1">  1        2 0.38254099E+00 0.54545800E+03</pdfrwt>
<pdfrwt beam="2">  1       -2 0.26645307E-01 0.54545800E+03</pdfrwt>
<totfact> 0.48620677E+01</totfact>
</mgrwt>
</event>
<event>
12    1  0.1444206E-007  0.5478934E+03  0.7818608E-02  0.1001983E+00
          1   -1    0    0  501    0  0.00000000000E+00  0.00000000000E+00  0.36595578089E+03  0.36595578089E+03  0.00000000000E+00 0. -1.
         -1   -1    0    0    0  501 -0.00000000000E+00 -0.00000000000E+00 -0.12406713603E+04  0.12406713603E+04  0.00000000000E+00 0.  1.
         23    2    1    2    0    0  0.10413673861E+03 -0.52086769503E+03 -0.42485700607E+03  0.68788153170E+03  0.10261534972E+03 0.  0.
    5000000    2    1    2    0    0 -0.10413673861E+03  0.52086769503E+03 -0.44985857332E+03  0.91874560946E+03  0.59964418021E+03 0.  0.
         23    2    4    4    0    0 -0.79100612088E+02  0.29389710429E+03 -0.56667185081E+03  0.64941554210E+03  0.89393204872E+02 0.  0.
         23    2    4    4    0    0 -0.25036126521E+02  0.22697059074E+03  0.11681327749E+03  0.26933006736E+03  0.82163779696E+02 0.  0.
          3    1    3    3  502    0 -0.10874190628E+02 -0.18746719728E+03 -0.13319029332E+03  0.23022131159E+03  0.00000000000E+00 0. -1.
         -3    1    3    3    0  502  0.11501092924E+03 -0.33340049775E+03 -0.29166671275E+03  0.45766022011E+03  0.00000000000E+00 0.  1.
         13    1    5    5    0    0 -0.81887169222E+02  0.29776656546E+03 -0.56576419596E+03  0.64456152648E+03  0.00000000000E+00 0.  1.
        -13    1    5    5    0    0  0.27865571332E+01 -0.38694611635E+01 -0.90765485344E+00  0.48540156248E+01  0.00000000000E+00 0. -1.
          3    1    6    6  503    0  0.25621503310E+02  0.36179743779E+02  0.30922604795E+02  0.54052222703E+02  0.00000000000E+00 0. -1.
         -3    1    6    6    0  503 -0.50657629831E+02  0.19079084696E+03  0.85890672696E+02  0.21527784465E+03  0.00000000000E+00 0.  1.
<mgrwt>
<rscale>  0 0.54789339E+03</rscale>
<asrwt>0</asrwt>
<pdfrwt beam="1">  1        1 0.56300890E-01 0.54789339E+03</pdfrwt>
<pdfrwt beam="2">  1       -1 0.19087252E+00 0.54789339E+03</pdfrwt>
<totfact> 0.12451986E+01</totfact>
</mgrwt>
</event>
<event>
12    1  0.1444206E-007  0.1284464E+04  0.7818608E-02  0.9041977E-01
          1   -1    0    0  501    0  0.00000000000E+00  0.00000000000E+00  0.12253248345E+04  0.12253248345E+04  0.00000000000E+00 0. -1.
         -1   -1    0    0    0  501 -0.00000000000E+00 -0.00000000000E+00 -0.13951745192E+04  0.13951745192E+04  0.00000000000E+00 0.  1.
         23    2    1    2    0    0  0.47440884372E+03  0.11396477968E+04 -0.16794178565E+01  0.12376721323E+04  0.89267209984E+02 0.  0.
    5000000    2    1    2    0    0 -0.47440884372E+03 -0.11396477968E+04 -0.16817026679E+03  0.13828272215E+04  0.60005752554E+03 0.  0.
         23    2    4    4    0    0  0.81196494503E+02 -0.34988704473E+03  0.88117095421E+02  0.37979848653E+03  0.86420212234E+02 0.  0.
         23    2    4    4    0    0 -0.55560533822E+03 -0.78976075211E+03 -0.25628736221E+03  0.10030287349E+04  0.89241770649E+02 0.  0.
          1    1    3    3  502    0  0.33148499121E+03  0.70122364749E+03  0.21919132344E+02  0.77593643526E+03  0.00000000000E+00 0. -1.
         -1    1    3    3    0  502  0.14292385250E+03  0.43842414934E+03 -0.23598550200E+02  0.46173569703E+03  0.00000000000E+00 0.  1.
         11    1    5    5    0    0 -0.97520273185E+01 -0.75705551478E+02  0.42443904143E+02  0.87337950287E+02  0.00000000000E+00 0. -1.
        -11    1    5    5    0    0  0.90948521822E+02 -0.27418149325E+03  0.45673191278E+02  0.29246053625E+03  0.00000000000E+00 0.  1.
          1    1    6    6  503    0 -0.38426604289E+03 -0.58582335650E+03 -0.15150994860E+03  0.71680168894E+03  0.00000000000E+00 0. -1.
         -1    1    6    6    0  503 -0.17133929533E+03 -0.20393739560E+03 -0.10477741361E+03  0.28622704598E+03  0.00000000000E+00 0.  1.
<mgrwt>
<rscale>  0 0.12844643E+04</rscale>
<asrwt>0</asrwt>
<pdfrwt beam="1">  1        1 0.18851151E+00 0.12844643E+04</pdfrwt>
<pdfrwt beam="2">  1       -1 0.21464223E+00 0.12844643E+04</pdfrwt>
<totfact> 0.11886421E+00</totfact>
</mgrwt>
</event>
<event>
12    1  0.1444206E-007  0.2148442E+04  0.7818608E-02  0.8540199E-01
          2   -1    0    0  501    0  0.00000000000E+00  0.00000000000E+00  0.34228716626E+04  0.34228716626E+04  0.00000000000E+00 0. -1.
         -2   -1    0    0    0  501 -0.00000000000E+00 -0.00000000000E+00 -0.15664135988E+04  0.15664135988E+04  0.00000000000E+00 0.  1.
         23    2    1    2    0    0 -0.21977113610E+03 -0.21352376862E+04  0.17273777123E+04  0.27567407572E+04  0.90810313547E+02 0.  0.
    5000000    2    1    2    0    0  0.21977113610E+03  0.21352376862E+04  0.12908035155E+03  0.22325445042E+04  0.60004491267E+03 0.  0.
         23    2    4    4    0    0  0.21223473638E+03  0.17994010667E+04 -0.98368285406E+02  0.18167441083E+04  0.89415062382E+02 0.  0.
         23    2    4    4    0    0  0.75363997224E+01  0.33583661945E+03  0.22744863696E+03  0.41580039582E+03  0.91181436873E+02 0.  0.
          4    1    3    3  502    0 -0.12660928442E+03 -0.12769853854E+04  0.10891682244E+04  0.16831544809E+04  0.00000000000E+00 0. -1.
         -4    1    3    3    0  502 -0.93161851674E+02 -0.85825230081E+03  0.63820948784E+03  0.10735862764E+04  0.00000000000E+00 0.  1.
         13    1    5    5    0    0  0.77260501685E+02  0.91623325986E+03 -0.17249335529E+02  0.91964673172E+03  0.00000000000E+00 0.  1.
        -13    1    5    5    0    0  0.13497423469E+03  0.88316780687E+03 -0.81118949877E+02  0.89709737662E+03  0.00000000000E+00 0. -1.
          3    1    6    6  503    0  0.20073996334E+02  0.22506749037E+03  0.10181576426E+03  0.24784025178E+03  0.00000000000E+00 0. -1.
         -3    1    6    6    0  503 -0.12537596612E+02  0.11076912908E+03  0.12563287269E+03  0.16796014404E+03  0.00000000000E+00 0.  1.
<mgrwt>
<rscale>  0 0.21484424E+04</rscale>
<asrwt>0</asrwt>
<pdfrwt beam="1">  1        2 0.52659564E+00 0.21484424E+04</pdfrwt>
<pdfrwt beam="2">  1       -2 0.24098671E+00 0.21484424E+04</pdfrwt>
<totfact> 0.58815985E-02</totfact>
</mgrwt>
</event>
<event>
12    1  0.2618873E-007  0.1807288E+04  0.7818608E-02  0.8702434E-01
         -2   -1    0    0    0  501 -0.00000000000E+00  0.00000000000E+00  0.12449660987E+04  0.12449660987E+04  0.00000000000E+00 0.  1.
          2   -1    0    0  501    0  0.00000000000E+00 -0.00000000000E+00 -0.27991179145E+04  0.27991179145E+04  0.00000000000E+00 0. -1.
         23    2    1    2    0    0 -0.87859354291E+03  0.15476790743E+04 -0.11568815891E+04  0.21244825864E+04  0.88397501239E+02 0.  0.
    5000000    2    1    2    0    0  0.87859354291E+03 -0.15476790743E+04 -0.39727022664E+03  0.19196014268E+04  0.59984070735E+03 0.  0.
         23    2    4    4    0    0  0.87626136259E+03 -0.12260380304E+04 -0.46230554189E+03  0.15789434252E+04  0.91283613574E+02 0.  0.
         23    2    4    4    0    0  0.23321803144E+01 -0.32164104384E+03  0.65035315250E+02  0.34065800165E+03  0.91432388738E+02 0.  0.
          1    1    3    3  502    0 -0.54626656847E+03  0.89887814177E+03 -0.64723337539E+03  0.12350304125E+04  0.00000000000E+00 0. -1.
         -1    1    3    3    0  502 -0.33232697444E+03  0.64880093250E+03 -0.50964821371E+03  0.88945217392E+03  0.00000000000E+00 0.  1.
         11    1    5    5    0    0  0.38649309910E+03 -0.54664967224E+03 -0.25277337476E+03  0.71560964136E+03  0.00000000000E+00 0. -1.
        -11    1    5    5    0    0  0.48976826350E+03 -0.67938835819E+03 -0.20953216713E+03  0.86333378379E+03  0.00000000000E+00 0.  1.
          1    1    6    6  503    0 -0.26800903242E+02 -0.11515928862E+03  0.58769239579E+02  0.13203701637E+03  0.00000000000E+00 0. -1.
         -1    1    6    6    0  503  0.29133083556E+02 -0.20648175522E+03  0.62660756705E+01  0.20862098528E+03  0.00000000000E+00 0.  1.
<mgrwt>
<rscale>  0 0.18072877E+04</rscale>
<asrwt>0</asrwt>
<pdfrwt beam="1">  1        2 0.43063352E+00 0.18072877E+04</pdfrwt>
<pdfrwt beam="2">  1       -2 0.19153325E+00 0.18072877E+04</pdfrwt>
<totfact> 0.31946229E-01</totfact>
</mgrwt>
</event>
<event>
12    1  0.1444206E-007  0.5852021E+03  0.7818608E-02  0.9936592E-01
         -2   -1    0    0    0  501 -0.00000000000E+00  0.00000000000E+00  0.19763154593E+03  0.19763154593E+03  0.00000000000E+00 0.  1.
          2   -1    0    0  501    0  0.00000000000E+00 -0.00000000000E+00 -0.36782637566E+04  0.36782637566E+04  0.00000000000E+00 0. -1.
         23    2    1    2    0    0 -0.33225145072E+03 -0.42501626176E+03 -0.36477809841E+03  0.65724987236E+03  0.88794619067E+02 0.  0.
    5000000    2    1    2    0    0  0.33225145072E+03  0.42501626176E+03 -0.31158541123E+04  0.32186454302E+04  0.60008474987E+03 0.  0.
         23    2    4    4    0    0 -0.36117345698E+02  0.13768617960E+03 -0.18867777099E+03  0.25301433117E+03  0.90305059629E+02 0.  0.
         23    2    4    4    0    0  0.36836879642E+03  0.28733008216E+03 -0.29271763413E+04  0.29656310990E+04  0.91391116851E+02 0.  0.
          3    1    3    3  502    0 -0.47197246127E+02 -0.30956138615E+02 -0.15691271048E+02  0.58583944447E+02  0.00000000000E+00 0.  1.
         -3    1    3    3    0  502 -0.28505420460E+03 -0.39406012315E+03 -0.34908682736E+03  0.59866592791E+03  0.00000000000E+00 0. -1.
         11    1    5    5    0    0 -0.11810271837E+02  0.13551314803E+03 -0.18289605054E+03  0.22793477381E+03  0.00000000000E+00 0. -1.
        -11    1    5    5    0    0 -0.24307073861E+02  0.21730315762E+01 -0.57817204588E+01  0.25079557360E+02  0.00000000000E+00 0.  1.
          4    1    6    6  503    0  0.25467900336E+03  0.19851129855E+03 -0.22664678367E+04  0.22893546220E+04  0.00000000000E+00 0.  1.
         -4    1    6    6    0  503  0.11368979306E+03  0.88818783605E+02 -0.66070850453E+03  0.67627647699E+03  0.00000000000E+00 0. -1.
<mgrwt>
<rscale>  0 0.58520208E+03</rscale>
<asrwt>0</asrwt>
<pdfrwt beam="1">  1        2 0.56588673E+00 0.58520208E+03</pdfrwt>
<pdfrwt beam="2">  1       -2 0.30404853E-01 0.58520208E+03</pdfrwt>
<totfact> 0.68516760E+00</totfact>
</mgrwt>
</event>
<event>
12    1  0.1444206E-007  0.5786998E+03  0.7818608E-02  0.9950610E-01
          2   -1    0    0  501    0  0.00000000000E+00  0.00000000000E+00  0.61899069577E+03  0.61899069577E+03  0.00000000000E+00 0. -1.
         -2   -1    0    0    0  501 -0.00000000000E+00 -0.00000000000E+00 -0.92898905037E+03  0.92898905037E+03  0.00000000000E+00 0.  1.
         23    2    1    2    0    0  0.17415193664E+03  0.41772551026E+03 -0.58674088247E+03  0.74734267115E+03  0.97122118999E+02 0.  0.
    5000000    2    1    2    0    0 -0.17415193664E+03 -0.41772551026E+03  0.27674252787E+03  0.80063707499E+03  0.59967474530E+03 0.  0.
         23    2    4    4    0    0 -0.28546824232E+01 -0.50260023644E+03  0.29288385920E+03  0.58877378710E+03  0.90876127366E+02 0.  0.
         23    2    4    4    0    0 -0.17129725422E+03  0.84874726176E+02 -0.16141331329E+02  0.21186328788E+03  0.89883489746E+02 0.  0.
          4    1    3    3  502    0  0.14793024058E+03  0.40348609289E+03 -0.56742643412E+03  0.71179852583E+03  0.00000000000E+00 0. -1.
         -4    1    3    3    0  502  0.26221696063E+02  0.14239417368E+02 -0.19314448353E+02  0.35544145320E+02  0.00000000000E+00 0.  1.
         13    1    5    5    0    0  0.25383129635E+02 -0.17229977273E+03  0.62325362137E+02  0.18497558141E+03  0.00000000000E+00 0. -1.
        -13    1    5    5    0    0 -0.28237812058E+02 -0.33030046371E+03  0.23055849706E+03  0.40379820569E+03  0.00000000000E+00 0.  1.
          2    1    6    6  503    0 -0.12148166044E+03  0.50165101881E+02  0.30949247784E+02  0.13502661667E+03  0.00000000000E+00 0. -1.
         -2    1    6    6    0  503 -0.49815593777E+02  0.34709624295E+02 -0.47090579113E+02  0.76836671215E+02  0.00000000000E+00 0.  1.
<mgrwt>
<rscale>  0 0.57869985E+03</rscale>
<asrwt>0</asrwt>
<pdfrwt beam="1">  1        2 0.95229338E-01 0.57869985E+03</pdfrwt>
<pdfrwt beam="2">  1       -2 0.14292139E+00 0.57869985E+03</pdfrwt>
<totfact> 0.16788280E+01</totfact>
</mgrwt>
</event>
<event>
12    1  0.1444206E-007  0.1161506E+04  0.7818608E-02  0.9147234E-01
          2   -1    0    0  501    0  0.00000000000E+00  0.00000000000E+00  0.14784950928E+04  0.14784950928E+04  0.00000000000E+00 0. -1.
         -2   -1    0    0    0  501 -0.00000000000E+00 -0.00000000000E+00 -0.10188222998E+04  0.10188222998E+04  0.00000000000E+00 0.  1.
         23    2    1    2    0    0  0.87693481932E+03  0.64788626255E+03  0.59526983001E+03  0.12454197326E+04  0.89178771915E+02 0.  0.
    5000000    2    1    2    0    0 -0.87693481932E+03 -0.64788626255E+03 -0.13559703700E+03  0.12518976599E+04  0.60007491855E+03 0.  0.
         23    2    4    4    0    0 -0.22289763969E+03  0.87363463639E+02 -0.44030530257E+02  0.25945890693E+03  0.89802584770E+02 0.  0.
         23    2    4    4    0    0 -0.65403717963E+03 -0.73524972619E+03 -0.91566506742E+02  0.99243875297E+03  0.90517738753E+02 0.  0.
          2    1    3    3  502    0  0.49888065521E+03  0.42138108758E+03  0.34349627417E+03  0.73785745201E+03  0.00000000000E+00 0. -1.
         -2    1    3    3    0  502  0.37805416411E+03  0.22650517498E+03  0.25177355584E+03  0.50756228063E+03  0.00000000000E+00 0.  1.
         11    1    5    5    0    0 -0.35089903291E+02  0.32997689035E+02 -0.42035197550E+02  0.63930482774E+02  0.00000000000E+00 0. -1.
        -11    1    5    5    0    0 -0.18780773640E+03  0.54365774604E+02 -0.19953327065E+01  0.19552842415E+03  0.00000000000E+00 0.  1.
          1    1    6    6  503    0 -0.17676853110E+03 -0.23659242338E+03 -0.60639613198E+02  0.30149668502E+03  0.00000000000E+00 0. -1.
         -1    1    6    6    0  503 -0.47726864853E+03 -0.49865730282E+03 -0.30926893544E+02  0.69094206795E+03  0.00000000000E+00 0.  1.
<mgrwt>
<rscale>  0 0.11615064E+04</rscale>
<asrwt>0</asrwt>
<pdfrwt beam="1">  1        2 0.22746078E+00 0.11615064E+04</pdfrwt>
<pdfrwt beam="2">  1       -2 0.15674189E+00 0.11615064E+04</pdfrwt>
<totfact> 0.33913248E+00</totfact>
</mgrwt>
</event>
<event>
12    1  0.1444206E-007  0.2458861E+04  0.7818608E-02  0.8417790E-01
         -1   -1    0    0    0  501 -0.00000000000E+00  0.00000000000E+00  0.19489272590E+04  0.19489272590E+04  0.00000000000E+00 0.  1.
          1   -1    0    0  501    0  0.00000000000E+00 -0.00000000000E+00 -0.31413332971E+04  0.31413332971E+04  0.00000000000E+00 0. -1.
         23    2    1    2    0    0  0.15946351989E+04 -0.18384353310E+04 -0.45541210578E+03  0.24776414736E+04  0.92742663113E+02 0.  0.
    5000000    2    1    2    0    0 -0.15946351989E+04  0.18384353310E+04 -0.73699393225E+03  0.26126190826E+04  0.59992710434E+03 0.  0.
         23    2    4    4    0    0 -0.35230393901E+03  0.15821787375E+03 -0.53777363744E+01  0.39681192358E+03  0.90993525211E+02 0.  0.
         23    2    4    4    0    0 -0.12423312599E+04  0.16802174572E+04 -0.73161619587E+03  0.22158071590E+04  0.89562518719E+02 0.  0.
          4    1    3    3  502    0  0.70811448972E+03 -0.87475170620E+03 -0.23693794382E+03  0.11501114152E+04  0.00000000000E+00 0. -1.
         -4    1    3    3    0  502  0.88652070920E+03 -0.96368362480E+03 -0.21847416196E+03  0.13275300584E+04  0.00000000000E+00 0.  1.
         13    1    5    5    0    0 -0.28382722667E+03  0.96772562940E+02 -0.30560363099E+02  0.30142454998E+03  0.00000000000E+00 0. -1.
        -13    1    5    5    0    0 -0.68476712340E+02  0.61445310814E+02  0.25182626724E+02  0.95387373602E+02  0.00000000000E+00 0.  1.
          2    1    6    6  503    0 -0.89974220537E+03  0.11589188914E+04 -0.48978703864E+03  0.15467774165E+04  0.00000000000E+00 0. -1.
         -2    1    6    6    0  503 -0.34258905453E+03  0.52129856584E+03 -0.24182915723E+03  0.66902974248E+03  0.00000000000E+00 0.  1.
<mgrwt>
<rscale>  0 0.24588615E+04</rscale>
<asrwt>0</asrwt>
<pdfrwt beam="1">  1        1 0.48328205E+00 0.24588615E+04</pdfrwt>
<pdfrwt beam="2">  1       -1 0.29983496E+00 0.24588615E+04</pdfrwt>
<totfact> 0.13152242E-02</totfact>
</mgrwt>
</event>
<event>
12    1  0.1444206E-007  0.1737566E+04  0.7818608E-02  0.8740225E-01
          1   -1    0    0  501    0  0.00000000000E+00  0.00000000000E+00  0.16373862547E+04  0.16373862547E+04  0.00000000000E+00 0. -1.
         -1   -1    0    0    0  501 -0.00000000000E+00 -0.00000000000E+00 -0.19236314613E+04  0.19236314613E+04  0.00000000000E+00 0.  1.
         23    2    1    2    0    0 -0.12975726598E+04 -0.11332082867E+04 -0.13201745753E+03  0.17302794417E+04  0.92641831358E+02 0.  0.
    5000000    2    1    2    0    0  0.12975726598E+04  0.11332082867E+04 -0.15422774907E+03  0.18307382742E+04  0.59996716715E+03 0.  0.
         23    2    4    4    0    0  0.98285502139E+02  0.84256688097E+02  0.13788729227E+03  0.20844085401E+03  0.87609673142E+02 0.  0.
         23    2    4    4    0    0  0.11992871577E+04  0.10489515986E+04 -0.29211504134E+03  0.16222974202E+04  0.89042571593E+02 0.  0.
          2    1    3    3  502    0 -0.80636938440E+03 -0.72933025589E+03 -0.42627308564E+02  0.10881044498E+04  0.00000000000E+00 0.  1.
         -2    1    3    3    0  502 -0.49120327540E+03 -0.40387803081E+03 -0.89390148969E+02  0.64217499194E+03  0.00000000000E+00 0. -1.
         11    1    5    5    0    0 -0.15957882631E+02  0.18680537177E+02  0.22937606453E+02  0.33611758019E+02  0.00000000000E+00 0. -1.
        -11    1    5    5    0    0  0.11424338477E+03  0.65576150919E+02  0.11494968582E+03  0.17482909599E+03  0.00000000000E+00 0.  1.
          3    1    6    6  503    0  0.76664105250E+03  0.72495821145E+03 -0.20319626517E+03  0.10745192571E+04  0.00000000000E+00 0. -1.
         -3    1    6    6    0  503  0.43264610516E+03  0.32399338716E+03 -0.88918776178E+02  0.54777816312E+03  0.00000000000E+00 0.  1.
<mgrwt>
<rscale>  0 0.17375659E+04</rscale>
<asrwt>0</asrwt>
<pdfrwt beam="1">  1        1 0.25190558E+00 0.17375659E+04</pdfrwt>
<pdfrwt beam="2">  1       -1 0.29594330E+00 0.17375659E+04</pdfrwt>
<totfact> 0.16980692E-01</totfact>
</mgrwt>
</event>
<event>
12    1  0.1444206E-007  0.1279041E+04  0.7818608E-02  0.9046353E-01
         -1   -1    0    0    0  501 -0.00000000000E+00  0.00000000000E+00  0.80561795912E+03  0.80561795912E+03  0.00000000000E+00 0.  1.
          1   -1    0    0  501    0  0.00000000000E+00 -0.00000000000E+00 -0.21504904065E+04  0.21504904065E+04  0.00000000000E+00 0. -1.
         23    2    1    2    0    0 -0.86953509088E+03  0.84738195867E+03 -0.95323594608E+03  0.15463253601E+04  0.91191514552E+02 0.  0.
    5000000    2    1    2    0    0  0.86953509088E+03 -0.84738195867E+03 -0.39163650130E+03  0.14097830055E+04  0.59996792856E+03 0.  0.
         23    2    4    4    0    0  0.14951538655E+03  0.62444370054E+02 -0.94708012361E+02  0.20861848734E+03  0.91092894815E+02 0.  0.
         23    2    4    4    0    0  0.72001970433E+03 -0.90982632872E+03 -0.29692848894E+03  0.12011645182E+04  0.91746112183E+02 0.  0.
          3    1    3    3  502    0 -0.68280761309E+03  0.62992983945E+03 -0.76477138995E+03  0.12032926153E+04  0.00000000000E+00 0. -1.
         -3    1    3    3    0  502 -0.18672747779E+03  0.21745211922E+03 -0.18846455613E+03  0.34303274484E+03  0.00000000000E+00 0.  1.
         11    1    5    5    0    0 -0.44710153465E+01 -0.96280334392E+01 -0.20552030362E+02  0.23131687317E+02  0.00000000000E+00 0. -1.
        -11    1    5    5    0    0  0.15398640190E+03  0.72072403493E+02 -0.74155981999E+02  0.18548680002E+03  0.00000000000E+00 0.  1.
          2    1    6    6  503    0  0.45117995925E+03 -0.61618802508E+03 -0.22891254015E+03  0.79727786180E+03  0.00000000000E+00 0. -1.
         -2    1    6    6    0  503  0.26883974508E+03 -0.29363830364E+03 -0.68015948791E+02  0.40388665637E+03  0.00000000000E+00 0.  1.
<mgrwt>
<rscale>  0 0.12790410E+04</rscale>
<asrwt>0</asrwt>
<pdfrwt beam="1">  1        1 0.33084468E+00 0.12790410E+04</pdfrwt>
<pdfrwt beam="2">  1       -1 0.12394122E+00 0.12790410E+04</pdfrwt>
<totfact> 0.13134321E+00</totfact>
</mgrwt>
</event>
<event>
12    1  0.1444206E-007  0.1298290E+04  0.7818608E-02  0.9030922E-01
          2   -1    0    0  501    0  0.00000000000E+00  0.00000000000E+00  0.20393136135E+04  0.20393136135E+04  0.00000000000E+00 0. -1.
         -2   -1    0    0    0  501 -0.00000000000E+00 -0.00000000000E+00 -0.11227886564E+04  0.11227886564E+04  0.00000000000E+00 0.  1.
         23    2    1    2    0    0 -0.12290498379E+04  0.18663368429E+03 -0.34353957344E+03  0.12930617508E+04  0.92701761692E+02 0.  0.
    5000000    2    1    2    0    0  0.12290498379E+04 -0.18663368429E+03  0.12600645306E+04  0.18690405191E+04  0.60012848999E+03 0.  0.
         23    2    4    4    0    0  0.75572081509E+03 -0.36892432080E+03  0.92812846816E+03  0.12557689746E+04  0.91182011479E+02 0.  0.
         23    2    4    4    0    0  0.47332902283E+03  0.18229063650E+03  0.33193606241E+03  0.61327154450E+03  0.93006439362E+02 0.  0.
          1    1    3    3  502    0 -0.21075566015E+03  0.30757620012E+02 -0.95767730136E+02  0.23352823728E+03  0.00000000000E+00 0. -1.
         -1    1    3    3    0  502 -0.10182941778E+04  0.15587606428E+03 -0.24777184331E+03  0.10595335135E+04  0.00000000000E+00 0.  1.
         13    1    5    5    0    0  0.15416050280E+03 -0.58443058599E+02  0.23341893393E+03  0.28577167536E+03  0.00000000000E+00 0.  1.
        -13    1    5    5    0    0  0.60156031229E+03 -0.31048126220E+03  0.69470953424E+03  0.96999729920E+03  0.00000000000E+00 0. -1.
          3    1    6    6  503    0  0.12051606956E+03  0.78577143897E+02  0.59872103382E+02  0.15583054684E+03  0.00000000000E+00 0. -1.
         -3    1    6    6    0  503  0.35281295327E+03  0.10371349261E+03  0.27206395902E+03  0.45744099766E+03  0.00000000000E+00 0.  1.
<mgrwt>
<rscale>  0 0.12982901E+04</rscale>
<asrwt>0</asrwt>
<pdfrwt beam="1">  1        2 0.31374055E+00 0.12982901E+04</pdfrwt>
<pdfrwt beam="2">  1       -2 0.17273672E+00 0.12982901E+04</pdfrwt>
<totfact> 0.12446973E+00</totfact>
</mgrwt>
</event>
<event>
12    1  0.1444206E-007  0.5260578E+03  0.7818608E-02  0.1007193E+00
         -2   -1    0    0    0  501 -0.00000000000E+00  0.00000000000E+00  0.30041032214E+03  0.30041032214E+03  0.00000000000E+00 0.  1.
          2   -1    0    0  501    0  0.00000000000E+00 -0.00000000000E+00 -0.10078872452E+04  0.10078872452E+04  0.00000000000E+00 0. -1.
         23    2    1    2    0    0  0.22991599107E+03  0.29547276896E+03 -0.32933286479E+03  0.50634630353E+03  0.88096101585E+02 0.  0.
    5000000    2    1    2    0    0 -0.22991599107E+03 -0.29547276896E+03 -0.37814405825E+03  0.80195126380E+03  0.59997281653E+03 0.  0.
         23    2    4    4    0    0  0.83374772336E+02  0.10171809544E+03 -0.20153929656E+03  0.25733854027E+03  0.91143363163E+02 0.  0.
         23    2    4    4    0    0 -0.31329076340E+03 -0.39719086440E+03 -0.17660476169E+03  0.54461272353E+03  0.97478672450E+02 0.  0.
          1    1    3    3  502    0  0.76757096924E+02  0.16794104895E+03 -0.17319249605E+03  0.25316296834E+03  0.00000000000E+00 0. -1.
         -1    1    3    3    0  502  0.15315889414E+03  0.12753172001E+03 -0.15614036874E+03  0.25318333518E+03  0.00000000000E+00 0.  1.
         13    1    5    5    0    0  0.94407012213E+02  0.53085183012E+02 -0.15525563774E+03  0.18930143597E+03  0.00000000000E+00 0. -1.
        -13    1    5    5    0    0 -0.11032239878E+02  0.48632912424E+02 -0.46283658823E+02  0.68037104301E+02  0.00000000000E+00 0.  1.
          3    1    6    6  503    0 -0.17504228534E+03 -0.27211657577E+03 -0.14876428457E+03  0.35611521285E+03  0.00000000000E+00 0. -1.
         -3    1    6    6    0  503 -0.13824847806E+03 -0.12507428863E+03 -0.27840477120E+02  0.18849751067E+03  0.00000000000E+00 0.  1.
<mgrwt>
<rscale>  0 0.52605781E+03</rscale>
<asrwt>0</asrwt>
<pdfrwt beam="1">  1        2 0.15505957E+00 0.52605781E+03</pdfrwt>
<pdfrwt beam="2">  1       -2 0.46216974E-01 0.52605781E+03</pdfrwt>
<totfact> 0.11409579E+02</totfact>
</mgrwt>
</event>
<event>
12    1  0.1444206E-007  0.4411570E+03  0.7818608E-02  0.1030392E+00
         -1   -1    0    0    0  501 -0.00000000000E+00  0.00000000000E+00  0.10743262689E+04  0.10743262689E+04  0.00000000000E+00 0.  1.
          1   -1    0    0  501    0  0.00000000000E+00 -0.00000000000E+00 -0.23377230921E+03  0.23377230921E+03  0.00000000000E+00 0. -1.
         23    2    1    2    0    0 -0.29154062669E+03 -0.11241920779E+03  0.25213217884E+03  0.41152817805E+03  0.90281728118E+02 0.  0.
    5000000    2    1    2    0    0  0.29154062669E+03  0.11241920779E+03  0.58842178084E+03  0.89657040005E+03  0.59997022825E+03 0.  0.
         23    2    4    4    0    0  0.19878669968E+03 -0.15501063370E+03  0.37958293264E+02  0.27084813824E+03  0.91506466610E+02 0.  0.
         23    2    4    4    0    0  0.92753927014E+02  0.26742984149E+03  0.55046348758E+03  0.62572226181E+03  0.91631253805E+02 0.  0.
          1    1    3    3  502    0 -0.15317851026E+03 -0.10280169780E+03  0.16665916935E+03  0.24861038555E+03  0.00000000000E+00 0. -1.
         -1    1    3    3    0  502 -0.13836211643E+03 -0.96175099952E+01  0.85473009488E+02  0.16291779250E+03  0.00000000000E+00 0.  1.
         11    1    5    5    0    0  0.17920694511E+03 -0.90510563363E+02  0.27973246002E+02  0.20270617590E+03  0.00000000000E+00 0.  1.
        -11    1    5    5    0    0  0.19579754564E+02 -0.64500070336E+02  0.99850472621E+01  0.68141962336E+02  0.00000000000E+00 0. -1.
          4    1    6    6  503    0  0.66142456393E+02  0.90755772395E+02  0.15153501121E+03  0.18861149059E+03  0.00000000000E+00 0. -1.
         -4    1    6    6    0  503  0.26611470621E+02  0.17667406910E+03  0.39892847637E+03  0.43711077122E+03  0.00000000000E+00 0.  1.
<mgrwt>
<rscale>  0 0.44115701E+03</rscale>
<asrwt>0</asrwt>
<pdfrwt beam="1">  1        1 0.35964971E-01 0.44115701E+03</pdfrwt>
<pdfrwt beam="2">  1       -1 0.16528096E+00 0.44115701E+03</pdfrwt>
<totfact> 0.34250209E+01</totfact>
</mgrwt>
</event>
<event>
12    1  0.1444206E-007  0.1263283E+04  0.7818608E-02  0.9059200E-01
          1   -1    0    0  501    0  0.00000000000E+00  0.00000000000E+00  0.69453021254E+03  0.69453021254E+03  0.00000000000E+00 0. -1.
         -1   -1    0    0    0  501 -0.00000000000E+00 -0.00000000000E+00 -0.23624454261E+04  0.23624454261E+04  0.00000000000E+00 0.  1.
         23    2    1    2    0    0  0.50977196860E+03  0.10907486799E+04 -0.91906379651E+03  0.15173862478E+04  0.90457837454E+02 0.  0.
    5000000    2    1    2    0    0 -0.50977196860E+03 -0.10907486799E+04 -0.74885141703E+03  0.15395893908E+04  0.59996408638E+03 0.  0.
         23    2    4    4    0    0  0.78214302079E+01 -0.59843481097E+03 -0.20865935945E+03  0.63945326420E+03  0.84713346397E+02 0.  0.
         23    2    4    4    0    0 -0.51759339881E+03 -0.49231386890E+03 -0.54019205758E+03  0.90013612662E+03  0.90342212631E+02 0.  0.
          3    1    3    3  502    0  0.25767056241E+03  0.62248119487E+03 -0.55531856765E+03  0.87307254468E+03  0.00000000000E+00 0. -1.
         -3    1    3    3    0  502  0.25210140620E+03  0.46826748499E+03 -0.36374522886E+03  0.64431370312E+03  0.00000000000E+00 0.  1.
         11    1    5    5    0    0 -0.33541741845E+02 -0.15430637082E+03 -0.43305681132E+02  0.16374030213E+03  0.00000000000E+00 0.  1.
        -11    1    5    5    0    0  0.41363172052E+02 -0.44412844015E+03 -0.16535367832E+03  0.47571296207E+03  0.00000000000E+00 0. -1.
          1    1    6    6  503    0 -0.25150224252E+03 -0.28243239756E+03 -0.24418618751E+03  0.45016478244E+03  0.00000000000E+00 0. -1.
         -1    1    6    6    0  503 -0.26609115629E+03 -0.20988147134E+03 -0.29600587007E+03  0.44997134418E+03  0.00000000000E+00 0.  1.
<mgrwt>
<rscale>  0 0.12632827E+04</rscale>
<asrwt>0</asrwt>
<pdfrwt beam="1">  1        1 0.10685080E+00 0.12632827E+04</pdfrwt>
<pdfrwt beam="2">  1       -1 0.36345314E+00 0.12632827E+04</pdfrwt>
<totfact> 0.34323529E-01</totfact>
</mgrwt>
</event>
<event>
12    1  0.1444206E-007  0.4354169E+03  0.7818608E-02  0.1032162E+00
          1   -1    0    0  501    0  0.00000000000E+00  0.00000000000E+00  0.44702529605E+03  0.44702529605E+03  0.00000000000E+00 0. -1.
         -1   -1    0    0    0  501 -0.00000000000E+00 -0.00000000000E+00 -0.52542635978E+03  0.52542635978E+03  0.00000000000E+00 0.  1.
         23    2    1    2    0    0 -0.68451822891E+02 -0.23503823123E+03  0.12920557327E+03  0.29197331465E+03  0.92874722651E+02 0.  0.
    5000000    2    1    2    0    0  0.68451822891E+02  0.23503823123E+03 -0.20760663700E+03  0.68047834117E+03  0.60001802880E+03 0.  0.
         23    2    4    4    0    0  0.10383564264E+03  0.41819055693E+03 -0.16010868515E+03  0.46869137355E+03  0.91496611923E+02 0.  0.
         23    2    4    4    0    0 -0.35383819745E+02 -0.18315232570E+03 -0.47497951844E+02  0.21178696762E+03  0.88322562886E+02 0.  0.
          4    1    3    3  502    0 -0.29878673546E+02 -0.85690172567E+02 -0.15707620740E-01  0.90749881841E+02  0.00000000000E+00 0. -1.
         -4    1    3    3    0  502 -0.38573149345E+02 -0.14934805867E+03  0.12922128089E+03  0.20122343281E+03  0.00000000000E+00 0.  1.
         13    1    5    5    0    0  0.88857375865E+02  0.37153895335E+03 -0.10761761299E+03  0.39688584975E+03  0.00000000000E+00 0. -1.
        -13    1    5    5    0    0  0.14978266771E+02  0.46651603578E+02 -0.52491072166E+02  0.71805523806E+02  0.00000000000E+00 0.  1.
          4    1    6    6  503    0 -0.50159832421E+02 -0.12200440833E+03  0.17023592737E+01  0.13192415423E+03  0.00000000000E+00 0. -1.
         -4    1    6    6    0  503  0.14776012676E+02 -0.61147917368E+02 -0.49200311118E+02  0.79862813394E+02  0.00000000000E+00 0.  1.
<mgrwt>
<rscale>  0 0.43541688E+03</rscale>
<asrwt>0</asrwt>
<pdfrwt beam="1">  1        1 0.68773123E-01 0.43541688E+03</pdfrwt>
<pdfrwt beam="2">  1       -1 0.80834824E-01 0.43541688E+03</pdfrwt>
<totfact> 0.82634913E+01</totfact>
</mgrwt>
</event>
<event>
12    1  0.1444206E-007  0.4331767E+03  0.7818608E-02  0.1032861E+00
         -3   -1    0    0    0  501 -0.00000000000E+00  0.00000000000E+00  0.81252392734E+03  0.81252392734E+03  0.00000000000E+00 0.  1.
          3   -1    0    0  501    0  0.00000000000E+00 -0.00000000000E+00 -0.45874713220E+03  0.45874713220E+03  0.00000000000E+00 0. -1.
         23    2    1    2    0    0  0.30247304003E+03 -0.19906698475E+03 -0.15595144193E+03  0.40474896675E+03  0.91560195958E+02 0.  0.
    5000000    2    1    2    0    0 -0.30247304003E+03  0.19906698475E+03  0.50972823708E+03  0.86652209278E+03  0.59993337734E+03 0.  0.
         23    2    4    4    0    0 -0.36383855888E+03  0.13712948304E+03  0.65884651101E+02  0.40490816873E+03  0.91797852944E+02 0.  0.
         23    2    4    4    0    0  0.61365518849E+02  0.61937501706E+02  0.44384358598E+03  0.46161392406E+03  0.92131997961E+02 0.  0.
          4    1    3    3  502    0  0.22370181392E+03 -0.96506416602E+02 -0.91376230898E+02  0.26020300838E+03  0.00000000000E+00 0. -1.
         -4    1    3    3    0  502  0.78771226107E+02 -0.10256056815E+03 -0.64575211036E+02  0.14454595837E+03  0.00000000000E+00 0.  1.
         13    1    5    5    0    0 -0.22669320473E+03  0.13185127844E+03  0.41525242242E+02  0.26551631671E+03  0.00000000000E+00 0. -1.
        -13    1    5    5    0    0 -0.13714535415E+03  0.52782046029E+01  0.24359408858E+02  0.13939185202E+03  0.00000000000E+00 0.  1.
          2    1    6    6  503    0  0.22839149184E+02  0.23637008647E+01  0.16140212107E+02  0.28066354664E+02  0.00000000000E+00 0. -1.
         -2    1    6    6    0  503  0.38526369665E+02  0.59573800841E+02  0.42770337387E+03  0.43354756939E+03  0.00000000000E+00 0.  1.
<mgrwt>
<rscale>  0 0.43317674E+03</rscale>
<asrwt>0</asrwt>
<pdfrwt beam="1">  1        3 0.70576482E-01 0.43317674E+03</pdfrwt>
<pdfrwt beam="2">  1       -3 0.12500368E+00 0.43317674E+03</pdfrwt>
<totfact> 0.25702225E+00</totfact>
</mgrwt>
</event>
<event>
12    1  0.1444206E-007  0.9055153E+03  0.7818608E-02  0.9418713E-01
          2   -1    0    0  501    0  0.00000000000E+00  0.00000000000E+00  0.35740092461E+04  0.35740092461E+04  0.00000000000E+00 0. -1.
         -2   -1    0    0    0  501 -0.00000000000E+00 -0.00000000000E+00 -0.25253404659E+03  0.25253404659E+03  0.00000000000E+00 0.  1.
         23    2    1    2    0    0 -0.80470385218E+03  0.11283295434E+03  0.97778979042E+03  0.12745028400E+04  0.89470942944E+02 0.  0.
    5000000    2    1    2    0    0  0.80470385218E+03 -0.11283295434E+03  0.23436854091E+04  0.25520404527E+04  0.59980797766E+03 0.  0.
         23    2    4    4    0    0  0.14788168602E+03  0.21015731445E+03  0.66441276498E+03  0.71790076568E+03  0.88893741224E+02 0.  0.
         23    2    4    4    0    0  0.65682216616E+03 -0.32299026879E+03  0.16792726441E+04  0.18341396870E+04  0.91507958535E+02 0.  0.
          2    1    3    3  502    0 -0.60348961706E+03  0.45095084299E+02  0.72570467982E+03  0.94492357725E+03  0.00000000000E+00 0. -1.
         -2    1    3    3    0  502 -0.20121423512E+03  0.67737870041E+02  0.25208511060E+03  0.32957926276E+03  0.00000000000E+00 0.  1.
         11    1    5    5    0    0  0.97089593936E+02  0.13086673113E+03  0.29865803467E+03  0.34021921204E+03  0.00000000000E+00 0. -1.
        -11    1    5    5    0    0  0.50792092081E+02  0.79290583314E+02  0.36575473031E+03  0.37768155364E+03  0.00000000000E+00 0.  1.
          4    1    6    6  503    0  0.47892756557E+03 -0.27464518227E+03  0.12121381346E+04  0.13319461125E+04  0.00000000000E+00 0. -1.
         -4    1    6    6    0  503  0.17789460060E+03 -0.48345086518E+02  0.46713450950E+03  0.50219357451E+03  0.00000000000E+00 0.  1.
<mgrwt>
<rscale>  0 0.90551531E+03</rscale>
<asrwt>0</asrwt>
<pdfrwt beam="1">  1        2 0.54984754E+00 0.90551531E+03</pdfrwt>
<pdfrwt beam="2">  1       -2 0.38851394E-01 0.90551531E+03</pdfrwt>
<totfact> 0.47617694E+00</totfact>
</mgrwt>
</event>
<event>
12    1  0.1444206E-007  0.1261606E+04  0.7818608E-02  0.9060579E-01
          1   -1    0    0  501    0  0.00000000000E+00  0.00000000000E+00  0.18418127575E+04  0.18418127575E+04  0.00000000000E+00 0. -1.
         -1   -1    0    0    0  501 -0.00000000000E+00 -0.00000000000E+00 -0.89364268592E+03  0.89364268592E+03  0.00000000000E+00 0.  1.
         23    2    1    2    0    0 -0.41415536378E+02 -0.12093426004E+04  0.39778152256E+03  0.12769938911E+04  0.90876214826E+02 0.  0.
    5000000    2    1    2    0    0  0.41415536378E+02  0.12093426004E+04  0.55038854906E+03  0.14584615523E+04  0.59996480964E+03 0.  0.
         23    2    4    4    0    0 -0.16173644509E+03  0.10182643176E+04  0.53296308146E+03  0.11641920132E+04  0.90953280274E+02 0.  0.
         23    2    4    4    0    0  0.20315198146E+03  0.19107828279E+03  0.17425467603E+02  0.29426953910E+03  0.92245742439E+02 0.  0.
          4    1    3    3  502    0 -0.46170881075E+02 -0.11230552174E+04  0.34512075395E+03  0.11757946701E+04  0.00000000000E+00 0. -1.
         -4    1    3    3    0  502  0.47553446970E+01 -0.86287383062E+02  0.52660768604E+02  0.10119922099E+03  0.00000000000E+00 0.  1.
         13    1    5    5    0    0 -0.14255895052E+03  0.79623546719E+03  0.45505821996E+03  0.92811203911E+03  0.00000000000E+00 0.  1.
        -13    1    5    5    0    0 -0.19177494564E+02  0.22202885045E+03  0.77904861498E+02  0.23607997411E+03  0.00000000000E+00 0. -1.
          1    1    6    6  503    0  0.14605347933E+03  0.11488240497E+03 -0.29449920132E+02  0.18814059529E+03  0.00000000000E+00 0. -1.
         -1    1    6    6    0  503  0.57098502130E+02  0.76195877810E+02  0.46875387734E+02  0.10612894382E+03  0.00000000000E+00 0.  1.
<mgrwt>
<rscale>  0 0.12616059E+04</rscale>
<asrwt>0</asrwt>
<pdfrwt beam="1">  1        1 0.28335581E+00 0.12616059E+04</pdfrwt>
<pdfrwt beam="2">  1       -1 0.13748349E+00 0.12616059E+04</pdfrwt>
<totfact> 0.16360119E+00</totfact>
</mgrwt>
</event>
<event>
12    1  0.1444206E-007  0.7272693E+03  0.7818608E-02  0.9671702E-01
         -2   -1    0    0    0  501 -0.00000000000E+00  0.00000000000E+00  0.90321606859E+03  0.90321606859E+03  0.00000000000E+00 0.  1.
          2   -1    0    0  501    0  0.00000000000E+00 -0.00000000000E+00 -0.61012843909E+03  0.61012843909E+03  0.00000000000E+00 0. -1.
         23    2    1    2    0    0 -0.33785864512E+03  0.51355569185E+03  0.17974653716E+03  0.64685160170E+03  0.90665673115E+02 0.  0.
    5000000    2    1    2    0    0  0.33785864512E+03 -0.51355569185E+03  0.11334109234E+03  0.86649290599E+03  0.60006319684E+03 0.  0.
         23    2    4    4    0    0  0.11400989187E+03 -0.57723063516E+03  0.14950313504E+03  0.61382298386E+03  0.90741426715E+02 0.  0.
         23    2    4    4    0    0  0.22384875325E+03  0.63674943304E+02 -0.36162042701E+02  0.25266992213E+03  0.91496630970E+02 0.  0.
          1    1    3    3  502    0 -0.16884324853E+03  0.23961886836E+03  0.13188051152E+03  0.32143072966E+03  0.00000000000E+00 0. -1.
         -1    1    3    3    0  502 -0.16901539658E+03  0.27393682349E+03  0.47866025636E+02  0.32542087203E+03  0.00000000000E+00 0.  1.
         13    1    5    5    0    0  0.70294507127E+02 -0.19978383909E+03  0.85993110238E+02  0.22858196583E+03  0.00000000000E+00 0. -1.
        -13    1    5    5    0    0  0.43715384740E+02 -0.37744679607E+03  0.63510024801E+02  0.38524101803E+03  0.00000000000E+00 0.  1.
          3    1    6    6  503    0  0.14657872877E+03 -0.16447496715E+01 -0.45187834165E+01  0.14665758873E+03  0.00000000000E+00 0. -1.
         -3    1    6    6    0  503  0.77270024480E+02  0.65319692975E+02 -0.31643259284E+02  0.10601233339E+03  0.00000000000E+00 0.  1.
<mgrwt>
<rscale>  0 0.72726932E+03</rscale>
<asrwt>0</asrwt>
<pdfrwt beam="1">  1        2 0.93865914E-01 0.72726932E+03</pdfrwt>
<pdfrwt beam="2">  1       -2 0.13895632E+00 0.72726932E+03</pdfrwt>
<totfact> 0.18081407E+01</totfact>
</mgrwt>
</event>
<event>
12    1  0.1444206E-007  0.7356706E+03  0.7818608E-02  0.9658103E-01
         -2   -1    0    0    0  501 -0.00000000000E+00  0.00000000000E+00  0.14682266404E+04  0.14682266404E+04  0.00000000000E+00 0.  1.
          2   -1    0    0  501    0  0.00000000000E+00 -0.00000000000E+00 -0.53208492431E+03  0.53208492431E+03  0.00000000000E+00 0. -1.
         23    2    1    2    0    0  0.10795704537E+02 -0.65692837705E+03  0.88908899154E+03  0.11094255536E+04  0.93136374162E+02 0.  0.
    5000000    2    1    2    0    0 -0.10795704537E+02  0.65692837705E+03  0.47052724539E+02  0.89088601114E+03  0.59982704686E+03 0.  0.
         23    2    4    4    0    0  0.89998128805E+02 -0.14870182604E+02  0.15029921276E+03  0.19780319780E+03  0.90639208868E+02 0.  0.
         23    2    4    4    0    0 -0.10079383334E+03  0.67179855965E+03 -0.10324648822E+03  0.69308281334E+03  0.90726221280E+02 0.  0.
          4    1    3    3  502    0 -0.27352947035E+02 -0.42661232923E+03  0.62131247181E+03  0.75417202997E+03  0.00000000000E+00 0. -1.
         -4    1    3    3    0  502  0.38148651572E+02 -0.23031604782E+03  0.26777651972E+03  0.35525352358E+03  0.00000000000E+00 0.  1.
         13    1    5    5    0    0  0.85042143321E+02  0.22011359268E+02  0.82752735571E+02  0.12068422151E+03  0.00000000000E+00 0. -1.
        -13    1    5    5    0    0  0.49559854836E+01 -0.36881541872E+02  0.67546477186E+02  0.77118976284E+02  0.00000000000E+00 0.  1.
          2    1    6    6  503    0  0.93511400522E+01  0.22401327122E+03 -0.32185120923E+02  0.22650666991E+03  0.00000000000E+00 0. -1.
         -2    1    6    6    0  503 -0.11014497339E+03  0.44778528843E+03 -0.71061367295E+02  0.46657614343E+03  0.00000000000E+00 0.  1.
<mgrwt>
<rscale>  0 0.73567063E+03</rscale>
<asrwt>0</asrwt>
<pdfrwt beam="1">  1        2 0.81859220E-01 0.73567063E+03</pdfrwt>
<pdfrwt beam="2">  1       -2 0.22588102E+00 0.73567063E+03</pdfrwt>
<totfact> 0.53304778E+00</totfact>
</mgrwt>
</event>
<event>
12    1  0.1444206E-007  0.1328330E+04  0.7818608E-02  0.9007396E-01
          2   -1    0    0  501    0  0.00000000000E+00  0.00000000000E+00  0.20857323163E+04  0.20857323163E+04  0.00000000000E+00 0. -1.
         -2   -1    0    0    0  501 -0.00000000000E+00 -0.00000000000E+00 -0.12282661215E+04  0.12282661215E+04  0.00000000000E+00 0.  1.
         23    2    1    2    0    0  0.10556187376E+04 -0.71725416104E+03 -0.48372260893E+03  0.13678301399E+04  0.90483581994E+02 0.  0.
    5000000    2    1    2    0    0 -0.10556187376E+04  0.71725416104E+03  0.13411888038E+04  0.19461682978E+04  0.59999932120E+03 0.  0.
         23    2    4    4    0    0 -0.89173633166E+03  0.78611299174E+03  0.12502820467E+04  0.17275912497E+04  0.90548377231E+02 0.  0.
         23    2    4    4    0    0 -0.16388240593E+03 -0.68858830694E+02  0.90906757047E+02  0.21857704815E+03  0.88954516273E+02 0.  0.
          4    1    3    3  502    0  0.32978791712E+03 -0.18234985448E+03 -0.16687193882E+03  0.41213806385E+03  0.00000000000E+00 0. -1.
         -4    1    3    3    0  502  0.72583082047E+03 -0.53490430657E+03 -0.31685067011E+03  0.95569207608E+03  0.00000000000E+00 0.  1.
         13    1    5    5    0    0 -0.35783654645E+03  0.37498642471E+03  0.55011456984E+03  0.75583586355E+03  0.00000000000E+00 0. -1.
        -13    1    5    5    0    0 -0.53389978521E+03  0.41112656703E+03  0.70016747689E+03  0.97175538613E+03  0.00000000000E+00 0.  1.
          4    1    6    6  503    0  0.14679176637E+01 -0.10578585440E+02  0.31824697236E+02  0.33568923223E+02  0.00000000000E+00 0. -1.
         -4    1    6    6    0  503 -0.16535032359E+03 -0.58280245253E+02  0.59082059811E+02  0.18500812493E+03  0.00000000000E+00 0.  1.
<mgrwt>
<rscale>  0 0.13283300E+04</rscale>
<asrwt>0</asrwt>
<pdfrwt beam="1">  1        2 0.32088189E+00 0.13283300E+04</pdfrwt>
<pdfrwt beam="2">  1       -2 0.18896402E+00 0.13283300E+04</pdfrwt>
<totfact> 0.90240784E-01</totfact>
</mgrwt>
</event>
<event>
12    1  0.1649145E-007  0.9750220E+03  0.7818608E-02  0.9336373E-01
         -1   -1    0    0    0  501 -0.00000000000E+00  0.00000000000E+00  0.12358186031E+04  0.12358186031E+04  0.00000000000E+00 0.  1.
          1   -1    0    0  501    0  0.00000000000E+00 -0.00000000000E+00 -0.84818325795E+03  0.84818325795E+03  0.00000000000E+00 0. -1.
         23    2    1    2    0    0 -0.59604133890E+03  0.67097657416E+03  0.43783386742E+03  0.10027712119E+04  0.91524680619E+02 0.  0.
    5000000    2    1    2    0    0  0.59604133890E+03 -0.67097657416E+03 -0.50198522306E+02  0.10812306491E+04  0.60088683146E+03 0.  0.
         23    2    4    4    0    0  0.15313562412E+03  0.73337472515E+02 -0.83886477460E+02  0.21022559371E+03  0.91263108113E+02 0.  0.
         23    2    4    4    0    0  0.44290571478E+03 -0.74431404667E+03  0.33687955154E+02  0.87100505541E+03  0.85709135868E+02 0.  0.
          2    1    3    3  502    0 -0.33431757528E+03  0.32727124153E+03  0.26323799439E+03  0.53681369987E+03  0.00000000000E+00 0. -1.
         -2    1    3    3    0  502 -0.26172376363E+03  0.34370533263E+03  0.17459587303E+03  0.46595751201E+03  0.00000000000E+00 0.  1.
         13    1    5    5    0    0  0.28258583922E+02  0.47265237890E+02  0.41540337213E+01  0.55225051147E+02  0.00000000000E+00 0. -1.
        -13    1    5    5    0    0  0.12487704020E+03  0.26072234625E+02 -0.88040511181E+02  0.15500054257E+03  0.00000000000E+00 0.  1.
          4    1    6    6  503    0  0.16986887617E+03 -0.33373118545E+03  0.49124741728E+02  0.37768396773E+03  0.00000000000E+00 0. -1.
         -4    1    6    6    0  503  0.27303683862E+03 -0.41058286123E+03 -0.15436786574E+02  0.49332108768E+03  0.00000000000E+00 0.  1.
<mgrwt>
<rscale>  0 0.97502196E+03</rscale>
<asrwt>0</asrwt>
<pdfrwt beam="1">  1        1 0.13048973E+00 0.97502196E+03</pdfrwt>
<pdfrwt beam="2">  1       -1 0.19012594E+00 0.97502196E+03</pdfrwt>
<totfact> 0.35673968E+00</totfact>
</mgrwt>
</event>
<event>
12    1  0.1444206E-007  0.5547035E+03  0.7818608E-02  0.1000411E+00
         -2   -1    0    0    0  501 -0.00000000000E+00  0.00000000000E+00  0.26878727373E+03  0.26878727373E+03  0.00000000000E+00 0.  1.
          2   -1    0    0  501    0  0.00000000000E+00 -0.00000000000E+00 -0.12812407205E+04  0.12812407205E+04  0.00000000000E+00 0. -1.
         23    2    1    2    0    0 -0.12837224175E+03  0.38928810085E+03 -0.21857278726E+03  0.47381616777E+03  0.93290083055E+02 0.  0.
    5000000    2    1    2    0    0  0.12837224175E+03 -0.38928810085E+03 -0.79388065947E+03  0.10762118264E+04  0.59996727904E+03 0.  0.
         23    2    4    4    0    0 -0.12863771862E+03  0.77851736064E+02 -0.27544506500E+03  0.32720459795E+03  0.92651549510E+02 0.  0.
         23    2    4    4    0    0  0.25700996037E+03 -0.46713983691E+03 -0.51843559447E+03  0.74900722847E+03  0.89233489913E+02 0.  0.
          4    1    3    3  502    0 -0.79453806688E+02  0.10626069702E+03 -0.79738557705E+02  0.15479819351E+03  0.00000000000E+00 0. -1.
         -4    1    3    3    0  502 -0.48918435062E+02  0.28302740383E+03 -0.13883422955E+03  0.31901797426E+03  0.00000000000E+00 0.  1.
         13    1    5    5    0    0 -0.32938376245E+02  0.42957695193E+02 -0.17870839966E+03  0.18672705298E+03  0.00000000000E+00 0. -1.
        -13    1    5    5    0    0 -0.95699342374E+02  0.34894040871E+02 -0.96736665337E+02  0.14047754497E+03  0.00000000000E+00 0.  1.
          1    1    6    6  503    0  0.11337002655E+03 -0.18679863448E+03 -0.27300512743E+03  0.34968313137E+03  0.00000000000E+00 0. -1.
         -1    1    6    6    0  503  0.14363993382E+03 -0.28034120243E+03 -0.24543046704E+03  0.39932409709E+03  0.00000000000E+00 0.  1.
<mgrwt>
<rscale>  0 0.55470351E+03</rscale>
<asrwt>0</asrwt>
<pdfrwt beam="1">  1        2 0.19711396E+00 0.55470351E+03</pdfrwt>
<pdfrwt beam="2">  1       -2 0.41351888E-01 0.55470351E+03</pdfrwt>
<totfact> 0.97276693E+01</totfact>
</mgrwt>
</event>
<event>
12    1  0.1444206E-007  0.9745677E+03  0.7818608E-02  0.9336887E-01
         -1   -1    0    0    0  501 -0.00000000000E+00  0.00000000000E+00  0.36576378863E+03  0.36576378863E+03  0.00000000000E+00 0.  1.
          1   -1    0    0  501    0  0.00000000000E+00 -0.00000000000E+00 -0.26775121067E+04  0.26775121067E+04  0.00000000000E+00 0. -1.
         23    2    1    2    0    0  0.47340273146E+03 -0.76075216316E+03 -0.10460624915E+04  0.13804632063E+04  0.92617104599E+02 0.  0.
    5000000    2    1    2    0    0 -0.47340273146E+03  0.76075216316E+03 -0.12656858266E+04  0.16628126891E+04  0.60010951267E+03 0.  0.
         23    2    4    4    0    0  0.52343182492E+02  0.39587870374E+03 -0.66039469511E+03  0.77711435225E+03  0.91245856383E+02 0.  0.
         23    2    4    4    0    0 -0.52574591395E+03  0.36487345941E+03 -0.60529113153E+03  0.88569833680E+03  0.92427173941E+02 0.  0.
          1    1    3    3  502    0  0.30448166731E+03 -0.51785606395E+03 -0.63658493413E+03  0.87528530609E+03  0.00000000000E+00 0. -1.
         -1    1    3    3    0  502  0.16892106415E+03 -0.24289609920E+03 -0.40947755733E+03  0.50517790022E+03  0.00000000000E+00 0.  1.
         11    1    5    5    0    0  0.54568111418E+02  0.13135920126E+03 -0.18867388877E+03  0.23628532507E+03  0.00000000000E+00 0.  1.
        -11    1    5    5    0    0 -0.22249289261E+01  0.26451950248E+03 -0.47172080635E+03  0.54082902718E+03  0.00000000000E+00 0. -1.
          3    1    6    6  503    0 -0.24053044384E+03  0.11512813562E+03 -0.22804848165E+03  0.35087817260E+03  0.00000000000E+00 0. -1.
         -3    1    6    6    0  503 -0.28521547011E+03  0.24974532379E+03 -0.37724264987E+03  0.53482016420E+03  0.00000000000E+00 0.  1.
<mgrwt>
<rscale>  0 0.97456772E+03</rscale>
<asrwt>0</asrwt>
<pdfrwt beam="1">  1        1 0.41192492E+00 0.97456772E+03</pdfrwt>
<pdfrwt beam="2">  1       -1 0.56271354E-01 0.97456772E+03</pdfrwt>
<totfact> 0.33358392E+00</totfact>
</mgrwt>
</event>
<event>
12    1  0.1444206E-007  0.4360766E+03  0.7818608E-02  0.1031957E+00
          2   -1    0    0  501    0  0.00000000000E+00  0.00000000000E+00  0.23211197656E+04  0.23211197656E+04  0.00000000000E+00 0. -1.
         -2   -1    0    0    0  501 -0.00000000000E+00 -0.00000000000E+00 -0.72372930188E+03  0.72372930188E+03  0.00000000000E+00 0.  1.
         23    2    1    2    0    0 -0.18692862586E+03 -0.16027758034E+03  0.21670822572E+04  0.21821579598E+04  0.70261213525E+02 0.  0.
    5000000    2    1    2    0    0  0.18692862586E+03  0.16027758034E+03 -0.56969179345E+03  0.86269110772E+03  0.59921281184E+03 0.  0.
         23    2    4    4    0    0 -0.13686849555E+03 -0.12383224768E+03 -0.16102908673E+03  0.26169153113E+03  0.92112323026E+02 0.  0.
         23    2    4    4    0    0  0.32379712141E+03  0.28410982802E+03 -0.40866270672E+03  0.60099957658E+03  0.92910241513E+02 0.  0.
          4    1    3    3  502    0 -0.14994849063E+03 -0.13177338960E+03  0.14668512731E+04  0.14803720592E+04  0.00000000000E+00 0.  1.
         -4    1    3    3    0  502 -0.36980135235E+02 -0.28504190740E+02  0.70023098409E+03  0.70178590067E+03  0.00000000000E+00 0. -1.
         13    1    5    5    0    0 -0.11751962327E+03 -0.12938295774E+03 -0.10921231384E+03  0.20610225885E+03  0.00000000000E+00 0.  1.
        -13    1    5    5    0    0 -0.19348872283E+02  0.55507100605E+01 -0.51816772888E+02  0.55589272286E+02  0.00000000000E+00 0. -1.
          1    1    6    6  503    0  0.24715656005E+03  0.21026371319E+03 -0.35783789354E+03  0.48305812519E+03  0.00000000000E+00 0. -1.
         -1    1    6    6    0  503  0.76640561361E+02  0.73846114834E+02 -0.50824813175E+02  0.11794145139E+03  0.00000000000E+00 0.  1.
<mgrwt>
<rscale>  0 0.43607663E+03</rscale>
<asrwt>0</asrwt>
<pdfrwt beam="1">  1        2 0.35709535E+00 0.43607663E+03</pdfrwt>
<pdfrwt beam="2">  1       -2 0.11134297E+00 0.43607663E+03</pdfrwt>
<totfact> 0.31743172E+00</totfact>
</mgrwt>
</event>
<event>
12    1  0.1444206E-007  0.9547261E+03  0.7818608E-02  0.9359643E-01
         -2   -1    0    0    0  501 -0.00000000000E+00  0.00000000000E+00  0.15310355245E+04  0.15310355245E+04  0.00000000000E+00 0.  1.
          2   -1    0    0  501    0  0.00000000000E+00 -0.00000000000E+00 -0.61340752809E+03  0.61340752809E+03  0.00000000000E+00 0. -1.
         23    2    1    2    0    0 -0.81349114485E+03  0.30430671442E+03  0.31354586638E+03  0.92807441849E+03  0.92955348155E+02 0.  0.
    5000000    2    1    2    0    0  0.81349114485E+03 -0.30430671442E+03  0.60408213004E+03  0.12163686341E+04  0.60022247127E+03 0.  0.
         23    2    4    4    0    0  0.25235243586E+03 -0.39366616541E+03  0.22299601415E+03  0.52576411513E+03  0.89698833651E+02 0.  0.
         23    2    4    4    0    0  0.56113870899E+03  0.89359450990E+02  0.38108611590E+03  0.69060451898E+03  0.94054301887E+02 0.  0.
          3    1    3    3  502    0 -0.18527221130E+03  0.68763501117E+02  0.11380917378E+03  0.22804986166E+03  0.00000000000E+00 0. -1.
         -3    1    3    3    0  502 -0.62821893355E+03  0.23554321330E+03  0.19973669260E+03  0.70002455684E+03  0.00000000000E+00 0.  1.
         11    1    5    5    0    0  0.24041698957E+02 -0.86163005470E+02  0.17595005897E+02  0.91168256717E+02  0.00000000000E+00 0. -1.
        -11    1    5    5    0    0  0.22831073690E+03 -0.30750315994E+03  0.20540100825E+03  0.43459585841E+03  0.00000000000E+00 0.  1.
          4    1    6    6  503    0  0.27486728738E+03  0.52294414774E+02  0.13217637793E+03  0.30944680701E+03  0.00000000000E+00 0. -1.
         -4    1    6    6    0  503  0.28627142161E+03  0.37065036215E+02  0.24890973796E+03  0.38115771197E+03  0.00000000000E+00 0.  1.
<mgrwt>
<rscale>  0 0.95472609E+03</rscale>
<asrwt>0</asrwt>
<pdfrwt beam="1">  1        2 0.94370389E-01 0.95472609E+03</pdfrwt>
<pdfrwt beam="2">  1       -2 0.23554393E+00 0.95472609E+03</pdfrwt>
<totfact> 0.38190910E+00</totfact>
</mgrwt>
</event>
<event>
12    1  0.1444206E-007  0.5366707E+03  0.7818608E-02  0.1004627E+00
          1   -1    0    0  501    0  0.00000000000E+00  0.00000000000E+00  0.27219647498E+04  0.27219647498E+04  0.00000000000E+00 0. -1.
         -1   -1    0    0    0  501 -0.00000000000E+00 -0.00000000000E+00 -0.21682691711E+03  0.21682691711E+03  0.00000000000E+00 0.  1.
         23    2    1    2    0    0 -0.38823705705E+03  0.15410589818E+03  0.20122526904E+04  0.20570882575E+04  0.89300440171E+02 0.  0.
    5000000    2    1    2    0    0  0.38823705705E+03 -0.15410589818E+03  0.49288514222E+03  0.88170340938E+03  0.59999041524E+03 0.  0.
         23    2    4    4    0    0  0.36613671607E+03 -0.30978805263E+03  0.18185886425E+03  0.52086125357E+03  0.90548697155E+02 0.  0.
         23    2    4    4    0    0  0.22100340974E+02  0.15568215445E+03  0.31102627797E+03  0.36084215582E+03  0.93511269587E+02 0.  0.
          3    1    3    3  502    0 -0.22849074562E+03  0.13656084461E+03  0.12883074122E+04  0.13155200011E+04  0.00000000000E+00 0. -1.
         -3    1    3    3    0  502 -0.15974631143E+03  0.17545053567E+02  0.72394527829E+03  0.74156825638E+03  0.00000000000E+00 0.  1.
         13    1    5    5    0    0  0.59379435712E+02 -0.43287322608E+02 -0.49000560572E+01  0.73645911179E+02  0.00000000000E+00 0.  1.
        -13    1    5    5    0    0  0.30675728036E+03 -0.26650073002E+03  0.18675892030E+03  0.44721534239E+03  0.00000000000E+00 0. -1.
          2    1    6    6  503    0 -0.13637721635E+02  0.96609626725E+02  0.25121224494E+03  0.26949396920E+03  0.00000000000E+00 0. -1.
         -2    1    6    6    0  503  0.35738062609E+02  0.59072527721E+02  0.59814033035E+02  0.91348186618E+02  0.00000000000E+00 0.  1.
<mgrwt>
<rscale>  0 0.53667068E+03</rscale>
<asrwt>0</asrwt>
<pdfrwt beam="1">  1        1 0.41876378E+00 0.53667068E+03</pdfrwt>
<pdfrwt beam="2">  1       -1 0.33357989E-01 0.53667068E+03</pdfrwt>
<totfact> 0.88474236E+00</totfact>
</mgrwt>
</event>
<event>
12    1  0.1444206E-007  0.1402263E+04  0.7818608E-02  0.8952182E-01
          2   -1    0    0  501    0  0.00000000000E+00  0.00000000000E+00  0.26480940238E+04  0.26480940238E+04  0.00000000000E+00 0.  1.
         -2   -1    0    0    0  501 -0.00000000000E+00 -0.00000000000E+00 -0.80054709439E+03  0.80054709439E+03  0.00000000000E+00 0. -1.
         23    2    1    2    0    0  0.12482841633E+04 -0.49279988392E+03  0.13262033475E+04  0.18888909951E+04  0.89603539693E+02 0.  0.
    5000000    2    1    2    0    0 -0.12482841633E+04  0.49279988392E+03  0.52134358197E+03  0.15597501232E+04  0.59996353075E+03 0.  0.
         23    2    4    4    0    0 -0.98559755610E+03  0.11908400708E+03  0.42289245635E+03  0.10837140551E+04  0.10007287477E+03 0.  0.
         23    2    4    4    0    0 -0.26268660724E+03  0.37371587684E+03  0.98451125616E+02  0.47603606806E+03  0.90828980706E+02 0.  0.
          1    1    3    3  502    0  0.80941179050E+03 -0.28229249981E+03  0.88152303339E+03  0.12296013014E+04  0.00000000000E+00 0. -1.
         -1    1    3    3    0  502  0.43887237283E+03 -0.21050738412E+03  0.44468031407E+03  0.65928969363E+03  0.00000000000E+00 0.  1.
         11    1    5    5    0    0 -0.20667234837E+03  0.51527797907E+02  0.12545283799E+03  0.24719827689E+03  0.00000000000E+00 0. -1.
        -11    1    5    5    0    0 -0.77892520773E+03  0.67556209178E+02  0.29743961836E+03  0.83651577822E+03  0.00000000000E+00 0.  1.
          4    1    6    6  503    0 -0.74539983188E+02  0.18395050720E+03  0.44985351771E+02  0.20351334125E+03  0.00000000000E+00 0.  1.
         -4    1    6    6    0  503 -0.18814662405E+03  0.18976536964E+03  0.53465773845E+02  0.27252272681E+03  0.00000000000E+00 0. -1.
<mgrwt>
<rscale>  0 0.14022634E+04</rscale>
<asrwt>0</asrwt>
<pdfrwt beam="1">  1        2 0.40739908E+00 0.14022634E+04</pdfrwt>
<pdfrwt beam="2">  1       -2 0.12316109E+00 0.14022634E+04</pdfrwt>
<totfact> 0.13611738E+00</totfact>
</mgrwt>
</event>
<event>
12    1  0.1444206E-007  0.6603525E+03  0.7818608E-02  0.9787545E-01
         -1   -1    0    0    0  501 -0.00000000000E+00  0.00000000000E+00  0.19308545655E+04  0.19308545655E+04  0.00000000000E+00 0.  1.
          1   -1    0    0  501    0  0.00000000000E+00 -0.00000000000E+00 -0.29790400847E+03  0.29790400847E+03  0.00000000000E+00 0. -1.
         23    2    1    2    0    0 -0.50289658590E+03 -0.25543117815E+03  0.25718461469E+03  0.62566842082E+03  0.84658040971E+02 0.  0.
    5000000    2    1    2    0    0  0.50289658590E+03  0.25543117815E+03  0.13757659424E+04  0.16030901532E+04  0.59917947908E+03 0.  0.
         23    2    4    4    0    0  0.19380006702E+03 -0.13606084486E+03  0.20406969395E+03  0.32617241656E+03  0.93128866932E+02 0.  0.
         23    2    4    4    0    0  0.30909651887E+03  0.39149202301E+03  0.11716962484E+04  0.12769177366E+04  0.94022047775E+02 0.  0.
          3    1    3    3  502    0 -0.16400251721E+03 -0.43654333597E+02  0.59657365519E+02  0.17989310090E+03  0.00000000000E+00 0. -1.
         -3    1    3    3    0  502 -0.33889406869E+03 -0.21177684455E+03  0.19752724917E+03  0.44577531991E+03  0.00000000000E+00 0.  1.
         13    1    5    5    0    0  0.18951873883E+01 -0.29214003628E+02  0.49789002595E+02  0.57758068896E+02  0.00000000000E+00 0.  1.
        -13    1    5    5    0    0  0.19190487963E+03 -0.10684684123E+03  0.15428069135E+03  0.26841434766E+03  0.00000000000E+00 0. -1.
          3    1    6    6  503    0  0.23731304593E+03  0.33770666287E+03  0.88502547019E+03  0.97654152743E+03  0.00000000000E+00 0. -1.
         -3    1    6    6    0  503  0.71783472945E+02  0.53785360134E+02  0.28667077822E+03  0.30037620918E+03  0.00000000000E+00 0.  1.
<mgrwt>
<rscale>  0 0.66035250E+03</rscale>
<asrwt>0</asrwt>
<pdfrwt beam="1">  1        1 0.45831387E-01 0.66035250E+03</pdfrwt>
<pdfrwt beam="2">  1       -1 0.29705454E+00 0.66035250E+03</pdfrwt>
<totfact> 0.32462059E+00</totfact>
</mgrwt>
</event>
<event>
12    1  0.1444206E-007  0.4898822E+03  0.7818608E-02  0.1016454E+00
         -2   -1    0    0    0  501 -0.00000000000E+00  0.00000000000E+00  0.65163816608E+03  0.65163816608E+03  0.00000000000E+00 0.  1.
          2   -1    0    0  501    0  0.00000000000E+00 -0.00000000000E+00 -0.43883565241E+03  0.43883565241E+03  0.00000000000E+00 0. -1.
         23    2    1    2    0    0 -0.32021223507E+02 -0.35344881959E+03  0.12710639404E+03  0.38786782623E+03  0.91290680789E+02 0.  0.
    5000000    2    1    2    0    0  0.32021223507E+02  0.35344881959E+03  0.85696119631E+02  0.70260599225E+03  0.60029986557E+03 0.  0.
         23    2    4    4    0    0  0.13880020105E+03  0.44555214107E+03  0.18145910497E+03  0.50890284174E+03  0.90953226068E+02 0.  0.
         23    2    4    4    0    0 -0.10677897755E+03 -0.92103321478E+02 -0.95762985340E+02  0.19370315051E+03  0.92008637000E+02 0.  0.
          3    1    3    3  502    0 -0.61756743074E+02 -0.28281538095E+03  0.10715937691E+03  0.30867712432E+03  0.00000000000E+00 0. -1.
         -3    1    3    3    0  502  0.29735519567E+02 -0.70633438637E+02  0.19947017131E+02  0.79190701917E+02  0.00000000000E+00 0.  1.
         13    1    5    5    0    0  0.50568778751E+02  0.24617880483E+03  0.13756043674E+03  0.28650319210E+03  0.00000000000E+00 0.  1.
        -13    1    5    5    0    0  0.88231422303E+02  0.19937333624E+03  0.43898668230E+02  0.22239964964E+03  0.00000000000E+00 0. -1.
          1    1    6    6  503    0 -0.56986620663E+02 -0.29057578397E+02 -0.93558513035E+02  0.11333584234E+03  0.00000000000E+00 0. -1.
         -1    1    6    6    0  503 -0.49792356884E+02 -0.63045743081E+02 -0.22044723053E+01  0.80367308172E+02  0.00000000000E+00 0.  1.
<mgrwt>
<rscale>  0 0.48988219E+03</rscale>
<asrwt>0</asrwt>
<pdfrwt beam="1">  1        2 0.67513177E-01 0.48988219E+03</pdfrwt>
<pdfrwt beam="2">  1       -2 0.10025203E+00 0.48988219E+03</pdfrwt>
<totfact> 0.60579194E+01</totfact>
</mgrwt>
</event>
<event>
12    1  0.1444206E-007  0.6737459E+03  0.7818608E-02  0.9763214E-01
          2   -1    0    0  501    0  0.00000000000E+00  0.00000000000E+00  0.61219693957E+03  0.61219693957E+03  0.00000000000E+00 0. -1.
         -2   -1    0    0    0  501 -0.00000000000E+00 -0.00000000000E+00 -0.78016343340E+03  0.78016343340E+03  0.00000000000E+00 0.  1.
         23    2    1    2    0    0  0.53685808168E+03 -0.86652342823E+02  0.50659095027E+02  0.55369288890E+03  0.91017816504E+02 0.  0.
    5000000    2    1    2    0    0 -0.53685808168E+03  0.86652342823E+02 -0.21862558886E+03  0.83866748408E+03  0.59986729562E+03 0.  0.
         23    2    4    4    0    0 -0.63866393502E+03 -0.74833138735E+01 -0.19494005530E+03  0.67266564660E+03  0.80807333007E+02 0.  0.
         23    2    4    4    0    0  0.10180585334E+03  0.94135656696E+02 -0.23685533561E+02  0.16600183748E+03  0.88145628986E+02 0.  0.
          2    1    3    3  502    0  0.12037448128E+03 -0.54721840307E+02 -0.48323926420E+01  0.13231722325E+03  0.00000000000E+00 0. -1.
         -2    1    3    3    0  502  0.41648360040E+03 -0.31930502516E+02  0.55491487669E+02  0.42137566565E+03  0.00000000000E+00 0.  1.
         13    1    5    5    0    0 -0.58999412277E+02  0.16179870787E+02 -0.36633435538E+02  0.71307274994E+02  0.00000000000E+00 0.  1.
        -13    1    5    5    0    0 -0.57966452275E+03 -0.23663184660E+02 -0.15830661976E+03  0.60135837161E+03  0.00000000000E+00 0. -1.
          3    1    6    6  503    0  0.64036213455E+02  0.11074763071E+02  0.15321861935E+02  0.66768603879E+02  0.00000000000E+00 0. -1.
         -3    1    6    6    0  503  0.37769639887E+02  0.83060893625E+02 -0.39007395496E+02  0.99233233599E+02  0.00000000000E+00 0.  1.
<mgrwt>
<rscale>  0 0.67374585E+03</rscale>
<asrwt>0</asrwt>
<pdfrwt beam="1">  1        2 0.94184146E-01 0.67374585E+03</pdfrwt>
<pdfrwt beam="2">  1       -2 0.12002514E+00 0.67374585E+03</pdfrwt>
<totfact> 0.26198418E+01</totfact>
</mgrwt>
</event>
<event>
12    1  0.1444206E-007  0.8398483E+03  0.7818608E-02  0.9504064E-01
          2   -1    0    0  501    0  0.00000000000E+00  0.00000000000E+00  0.40822842378E+04  0.40822842378E+04  0.00000000000E+00 0.  1.
         -2   -1    0    0    0  501 -0.00000000000E+00 -0.00000000000E+00 -0.24683833070E+03  0.24683833070E+03  0.00000000000E+00 0. -1.
         23    2    1    2    0    0 -0.76309770017E+03 -0.22065715587E+03  0.27150653816E+04  0.28304034203E+04  0.92713617279E+02 0.  0.
    5000000    2    1    2    0    0  0.76309770017E+03  0.22065715587E+03  0.11203805255E+04  0.14987191482E+04  0.59991572976E+03 0.  0.
         23    2    4    4    0    0  0.48814763335E+03 -0.35347926716E+02  0.27515125495E+03  0.56932684195E+03  0.94272222807E+02 0.  0.
         23    2    4    4    0    0  0.27495006681E+03  0.25600508258E+03  0.84522927050E+03  0.92939230621E+03  0.90671922770E+02 0.  0.
          2    1    3    3  502    0 -0.34628061130E+03 -0.53011653027E+02  0.12185174486E+04  0.12678743114E+04  0.00000000000E+00 0. -1.
         -2    1    3    3    0  502 -0.41681708887E+03 -0.16764550284E+03  0.14965479330E+04  0.15625291089E+04  0.00000000000E+00 0.  1.
         11    1    5    5    0    0  0.24233784530E+03 -0.64730934956E+02  0.13543126120E+03  0.28506025979E+03  0.00000000000E+00 0. -1.
        -11    1    5    5    0    0  0.24580978806E+03  0.29383008239E+02  0.13971999376E+03  0.28426658216E+03  0.00000000000E+00 0.  1.
          2    1    6    6  503    0  0.15842429586E+03  0.10130791173E+03  0.48914539770E+03  0.52404653475E+03  0.00000000000E+00 0. -1.
         -2    1    6    6    0  503  0.11652577096E+03  0.15469717085E+03  0.35608387280E+03  0.40534577145E+03  0.00000000000E+00 0.  1.
<mgrwt>
<rscale>  0 0.83984833E+03</rscale>
<asrwt>0</asrwt>
<pdfrwt beam="1">  1        2 0.62804367E+00 0.83984833E+03</pdfrwt>
<pdfrwt beam="2">  1       -2 0.37975131E-01 0.83984833E+03</pdfrwt>
<totfact> 0.20906704E+00</totfact>
</mgrwt>
</event>
<event>
12    1  0.1444206E-007  0.4838128E+03  0.7818608E-02  0.1018093E+00
         -1   -1    0    0    0  501 -0.00000000000E+00  0.00000000000E+00  0.43213625849E+03  0.43213625849E+03  0.00000000000E+00 0.  1.
          1   -1    0    0  501    0  0.00000000000E+00 -0.00000000000E+00 -0.67885297151E+03  0.67885297151E+03  0.00000000000E+00 0. -1.
         23    2    1    2    0    0  0.15437663596E+03  0.33328532412E+03 -0.58530215809E+02  0.38270813921E+03  0.90158086999E+02 0.  0.
    5000000    2    1    2    0    0 -0.15437663596E+03 -0.33328532412E+03 -0.18818649722E+03  0.72828109080E+03  0.60005661106E+03 0.  0.
         23    2    4    4    0    0 -0.22232168188E+03 -0.41582588333E+03  0.16743028141E+02  0.48151402019E+03  0.96111014754E+02 0.  0.
         23    2    4    4    0    0  0.67945045929E+02  0.82540559217E+02 -0.20492952536E+03  0.24676707061E+03  0.86419925897E+02 0.  0.
          1    1    3    3  502    0  0.38613283502E+02  0.18356131530E+03 -0.12864897348E+02  0.18801927487E+03  0.00000000000E+00 0. -1.
         -1    1    3    3    0  502  0.11576335245E+03  0.14972400881E+03 -0.45665318461E+02  0.19468886434E+03  0.00000000000E+00 0.  1.
         13    1    5    5    0    0 -0.95823047512E+02 -0.19719108918E+03 -0.39411432693E+02  0.22275467024E+03  0.00000000000E+00 0. -1.
        -13    1    5    5    0    0 -0.12649863437E+03 -0.21863479416E+03  0.56154460834E+02  0.25875934995E+03  0.00000000000E+00 0.  1.
          1    1    6    6  503    0  0.73414328278E+02  0.57296749874E+02 -0.19979412027E+03  0.22043201138E+03  0.00000000000E+00 0. -1.
         -1    1    6    6    0  503 -0.54692823492E+01  0.25243809343E+02 -0.51354050842E+01  0.26335059236E+02  0.00000000000E+00 0.  1.
<mgrwt>
<rscale>  0 0.48381279E+03</rscale>
<asrwt>0</asrwt>
<pdfrwt beam="1">  1        1 0.10443892E+00 0.48381279E+03</pdfrwt>
<pdfrwt beam="2">  1       -1 0.66482502E-01 0.48381279E+03</pdfrwt>
<totfact> 0.68607161E+01</totfact>
</mgrwt>
</event>
<event>
12    1  0.1444206E-007  0.7688108E+03  0.7818608E-02  0.9606293E-01
         -2   -1    0    0    0  501 -0.00000000000E+00  0.00000000000E+00  0.28162551459E+03  0.28162551459E+03  0.00000000000E+00 0. -1.
          2   -1    0    0  501    0  0.00000000000E+00 -0.00000000000E+00 -0.24101568661E+04  0.24101568661E+04  0.00000000000E+00 0.  1.
         23    2    1    2    0    0 -0.16440958073E+03  0.69275593393E+03 -0.94656273963E+03  0.11871097067E+04  0.79417514073E+02 0.  0.
    5000000    2    1    2    0    0  0.16440958073E+03 -0.69275593393E+03 -0.11819686119E+04  0.15046726740E+04  0.60004063368E+03 0.  0.
         23    2    4    4    0    0  0.26430022083E+03 -0.58114856792E+03 -0.11550651873E+04  0.13229591852E+04  0.91962786295E+02 0.  0.
         23    2    4    4    0    0 -0.99890640098E+02 -0.11160736601E+03 -0.26903424601E+02  0.18171348878E+03  0.99305858953E+02 0.  0.
          2    1    3    3  502    0 -0.12052954410E+03  0.39875676076E+03 -0.50216471822E+03  0.65245975314E+03  0.00000000000E+00 0. -1.
         -2    1    3    3    0  502 -0.43880036627E+02  0.29399917317E+03 -0.44439802141E+03  0.53464995359E+03  0.00000000000E+00 0.  1.
         13    1    5    5    0    0  0.25564252601E+02 -0.13513195855E+02 -0.60722267450E+02  0.67255715278E+02  0.00000000000E+00 0. -1.
        -13    1    5    5    0    0  0.23873596822E+03 -0.56763537206E+03 -0.10943429199E+04  0.12557034699E+04  0.00000000000E+00 0.  1.
          2    1    6    6  503    0  0.96297112222E+01  0.11040060881E+02  0.19256369228E+01  0.14775735516E+02  0.00000000000E+00 0. -1.
         -2    1    6    6    0  503 -0.10952035132E+03 -0.12264742689E+03 -0.28829061524E+02  0.16693775326E+03  0.00000000000E+00 0.  1.
<mgrwt>
<rscale>  0 0.76881084E+03</rscale>
<asrwt>0</asrwt>
<pdfrwt beam="1">  1        2 0.37079338E+00 0.76881084E+03</pdfrwt>
<pdfrwt beam="2">  1       -2 0.43327001E-01 0.76881084E+03</pdfrwt>
<totfact> 0.20615208E+01</totfact>
</mgrwt>
</event>
<event>
12    1  0.1444206E-007  0.5591765E+03  0.7818608E-02  0.9993920E-01
         -2   -1    0    0    0  501 -0.00000000000E+00  0.00000000000E+00  0.23049686235E+03  0.23049686235E+03  0.00000000000E+00 0. -1.
          2   -1    0    0  501    0  0.00000000000E+00 -0.00000000000E+00 -0.17751131538E+04  0.17751131538E+04  0.00000000000E+00 0.  1.
         23    2    1    2    0    0 -0.32647157624E+03 -0.37261370296E+03 -0.58011997494E+03  0.76637038341E+03  0.73210091614E+02 0.  0.
    5000000    2    1    2    0    0  0.32647157624E+03  0.37261370296E+03 -0.96449631655E+03  0.12392396328E+04  0.60003088345E+03 0.  0.
         23    2    4    4    0    0  0.10416349466E+02  0.27908871777E+03 -0.10123354868E+03  0.31091959795E+03  0.91781001803E+02 0.  0.
         23    2    4    4    0    0  0.31605522677E+03  0.93524985195E+02 -0.86326276787E+03  0.92832003483E+03  0.88981185936E+02 0.  0.
          3    1    3    3  502    0 -0.19512450753E+03 -0.21609690223E+03 -0.28505374325E+03  0.40746420840E+03  0.00000000000E+00 0. -1.
         -3    1    3    3    0  502 -0.13134706871E+03 -0.15651680073E+03 -0.29506623170E+03  0.35890617501E+03  0.00000000000E+00 0.  1.
         11    1    5    5    0    0  0.35835585713E+02  0.25699226776E+03 -0.81964971831E+02  0.27211665054E+03  0.00000000000E+00 0. -1.
        -11    1    5    5    0    0 -0.25419236247E+02  0.22096450003E+02 -0.19268576852E+02  0.38802947414E+02  0.00000000000E+00 0.  1.
          1    1    6    6  503    0  0.37434080982E+02  0.13955348066E+02 -0.20869986504E+03  0.21248928402E+03  0.00000000000E+00 0. -1.
         -1    1    6    6    0  503  0.27862114579E+03  0.79569637129E+02 -0.65456290283E+03  0.71583075081E+03  0.00000000000E+00 0.  1.
<mgrwt>
<rscale>  0 0.55917651E+03</rscale>
<asrwt>0</asrwt>
<pdfrwt beam="1">  1        2 0.27309433E+00 0.55917651E+03</pdfrwt>
<pdfrwt beam="2">  1       -2 0.35461056E-01 0.55917651E+03</pdfrwt>
<totfact> 0.69789871E+01</totfact>
</mgrwt>
</event>
<event>
12    1  0.1444206E-007  0.4961853E+03  0.7818608E-02  0.1014779E+00
         -1   -1    0    0    0  501 -0.00000000000E+00  0.00000000000E+00  0.47382067694E+03  0.47382067694E+03  0.00000000000E+00 0.  1.
          1   -1    0    0  501    0  0.00000000000E+00 -0.00000000000E+00 -0.60858891687E+03  0.60858891687E+03  0.00000000000E+00 0. -1.
         23    2    1    2    0    0  0.22159030354E+03  0.27115912559E+03 -0.13967004363E+03  0.38758205111E+03  0.89903232669E+02 0.  0.
    5000000    2    1    2    0    0 -0.22159030354E+03 -0.27115912559E+03  0.49018036998E+01  0.69482754269E+03  0.60010978362E+03 0.  0.
         23    2    4    4    0    0  0.15699709579E+03  0.12438466471E+02  0.94436135176E+02  0.20480772543E+03  0.90692983373E+02 0.  0.
         23    2    4    4    0    0 -0.37858739933E+03 -0.28359759206E+03 -0.89534331476E+02  0.49001981726E+03  0.91361981382E+02 0.  0.
          3    1    3    3  502    0  0.59977849633E+02  0.38309424597E+02  0.95677204010E+00  0.71174924463E+02  0.00000000000E+00 0. -1.
         -3    1    3    3    0  502  0.16161245391E+03  0.23284970099E+03 -0.14062681567E+03  0.31640712665E+03  0.00000000000E+00 0.  1.
         13    1    5    5    0    0  0.12854514052E+03  0.18677108516E+02  0.11138121421E+03  0.17110950416E+03  0.00000000000E+00 0.  1.
        -13    1    5    5    0    0  0.28451955272E+02 -0.62386420449E+01 -0.16945079035E+02  0.33698221271E+02  0.00000000000E+00 0. -1.
          2    1    6    6  503    0 -0.21890812503E+03 -0.20838805794E+03 -0.82863200665E+02  0.31338899138E+03  0.00000000000E+00 0. -1.
         -2    1    6    6    0  503 -0.15967927431E+03 -0.75209534121E+02 -0.66711308107E+01  0.17663082588E+03  0.00000000000E+00 0.  1.
<mgrwt>
<rscale>  0 0.49618526E+03</rscale>
<asrwt>0</asrwt>
<pdfrwt beam="1">  1        1 0.93629064E-01 0.49618526E+03</pdfrwt>
<pdfrwt beam="2">  1       -1 0.72895489E-01 0.49618526E+03</pdfrwt>
<totfact> 0.66602994E+01</totfact>
</mgrwt>
</event>
<event>
12    1  0.1444206E-007  0.8041789E+03  0.7818608E-02  0.9553988E-01
          1   -1    0    0  501    0  0.00000000000E+00  0.00000000000E+00  0.20335913800E+04  0.20335913800E+04  0.00000000000E+00 0. -1.
         -1   -1    0    0    0  501 -0.00000000000E+00 -0.00000000000E+00 -0.33391421275E+03  0.33391421275E+03  0.00000000000E+00 0.  1.
         23    2    1    2    0    0 -0.64066039486E+03  0.30921284542E+03  0.72455886848E+03  0.10195407677E+04  0.91757821407E+02 0.  0.
    5000000    2    1    2    0    0  0.64066039486E+03 -0.30921284542E+03  0.97511829873E+03  0.13479648250E+04  0.60007928445E+03 0.  0.
         23    2    4    4    0    0 -0.76822406208E+02 -0.53989136917E+02  0.29393015073E+03  0.32202995898E+03  0.92151245087E+02 0.  0.
         23    2    4    4    0    0  0.71748280107E+03 -0.25522370850E+03  0.68118814800E+03  0.10259348660E+04  0.92759609485E+02 0.  0.
          1    1    3    3  502    0 -0.34622888604E+03  0.14718471037E+03  0.44232350776E+03  0.58067879763E+03  0.00000000000E+00 0. -1.
         -1    1    3    3    0  502 -0.29443150883E+03  0.16202813505E+03  0.28223536071E+03  0.43886197007E+03  0.00000000000E+00 0.  1.
         11    1    5    5    0    0  0.16398848844E+02  0.84375710638E+01  0.29595884775E+02  0.34871639544E+02  0.00000000000E+00 0.  1.
        -11    1    5    5    0    0 -0.93221255051E+02 -0.62426707981E+02  0.26433426595E+03  0.28715831943E+03  0.00000000000E+00 0. -1.
          3    1    6    6  503    0  0.69154109640E+03 -0.22880075537E+03  0.63199789765E+03  0.96436518825E+03  0.00000000000E+00 0. -1.
         -3    1    6    6    0  503  0.25941704676E+02 -0.26422953128E+02  0.49190250351E+02  0.61569677790E+02  0.00000000000E+00 0.  1.
<mgrwt>
<rscale>  0 0.80417890E+03</rscale>
<asrwt>0</asrwt>
<pdfrwt beam="1">  1        1 0.31286020E+00 0.80417890E+03</pdfrwt>
<pdfrwt beam="2">  1       -1 0.51371419E-01 0.80417890E+03</pdfrwt>
<totfact> 0.11177892E+01</totfact>
</mgrwt>
</event>
<event>
12    1  0.1444206E-007  0.3709538E+03  0.7818608E-02  0.1054329E+00
          2   -1    0    0  501    0  0.00000000000E+00  0.00000000000E+00  0.20679178352E+04  0.20679178352E+04  0.00000000000E+00 0. -1.
         -2   -1    0    0    0  501 -0.00000000000E+00 -0.00000000000E+00 -0.91293654236E+02  0.91293654236E+02  0.00000000000E+00 0.  1.
         23    2    1    2    0    0 -0.19599194292E+03 -0.34512755194E+02  0.71879324207E+03  0.75146025487E+03  0.91786806427E+02 0.  0.
    5000000    2    1    2    0    0  0.19599194292E+03  0.34512755194E+02  0.12578309389E+04  0.14077512346E+04  0.60001741279E+03 0.  0.
         23    2    4    4    0    0  0.31775195501E+03 -0.78751206655E+02  0.37739449426E+03  0.50729435339E+03  0.88050549247E+02 0.  0.
         23    2    4    4    0    0 -0.12176001209E+03  0.11326396185E+03  0.88043644467E+03  0.90045688122E+03  0.89442921626E+02 0.  0.
          1    1    3    3  502    0 -0.96604517234E+02 -0.59821001251E+02  0.31574050440E+03  0.33556378091E+03  0.00000000000E+00 0.  1.
         -1    1    3    3    0  502 -0.99387425685E+02  0.25308246057E+02  0.40305273767E+03  0.41589647395E+03  0.00000000000E+00 0. -1.
         13    1    5    5    0    0  0.77719337933E+02 -0.57709062779E+02  0.89097943102E+02  0.13156395738E+03  0.00000000000E+00 0. -1.
        -13    1    5    5    0    0  0.24003261708E+03 -0.21042143876E+02  0.28829655116E+03  0.37573039602E+03  0.00000000000E+00 0.  1.
          3    1    6    6  503    0 -0.84941207759E+02  0.19383890544E+02  0.45110646344E+03  0.45944290760E+03  0.00000000000E+00 0. -1.
         -3    1    6    6    0  503 -0.36818804332E+02  0.93880071305E+02  0.42932998123E+03  0.44101397362E+03  0.00000000000E+00 0.  1.
<mgrwt>
<rscale>  0 0.37095380E+03</rscale>
<asrwt>0</asrwt>
<pdfrwt beam="1">  1        2 0.31814117E+00 0.37095380E+03</pdfrwt>
<pdfrwt beam="2">  1       -2 0.14045179E-01 0.37095380E+03</pdfrwt>
<totfact> 0.25714645E+02</totfact>
</mgrwt>
</event>
<event>
12    1  0.1444206E-007  0.5123374E+03  0.7818608E-02  0.1010608E+00
         -1   -1    0    0    0  501 -0.00000000000E+00  0.00000000000E+00  0.39577061377E+03  0.39577061377E+03  0.00000000000E+00 0.  1.
          1   -1    0    0  501    0  0.00000000000E+00 -0.00000000000E+00 -0.11783044104E+04  0.11783044104E+04  0.00000000000E+00 0. -1.
         23    2    1    2    0    0 -0.28920660280E+03 -0.30622450178E+03 -0.71827770420E+03  0.83760528826E+03  0.90806684621E+02 0.  0.
    5000000    2    1    2    0    0  0.28920660280E+03  0.30622450178E+03 -0.64256092411E+02  0.73646973590E+03  0.60070368893E+03 0.  0.
         23    2    4    4    0    0 -0.94166842600E+02  0.39026635733E+02 -0.20283609784E+03  0.24104431878E+03  0.81051887635E+02 0.  0.
         23    2    4    4    0    0  0.38337344540E+03  0.26719786605E+03  0.13858000543E+03  0.49542541712E+03  0.88724448509E+02 0.  0.
          4    1    3    3  502    0 -0.88130019004E+02 -0.41013515629E+02 -0.14103922087E+03  0.17129235400E+03  0.00000000000E+00 0. -1.
         -4    1    3    3    0  502 -0.20107658380E+03 -0.26521098616E+03 -0.57723848333E+03  0.66631293426E+03  0.00000000000E+00 0.  1.
         13    1    5    5    0    0 -0.16993467716E+02  0.39594543973E+02 -0.12153389265E+03  0.12894569756E+03  0.00000000000E+00 0. -1.
        -13    1    5    5    0    0 -0.77173374885E+02 -0.56790823987E+00 -0.81302205189E+02  0.11209862122E+03  0.00000000000E+00 0.  1.
          3    1    6    6  503    0  0.69397539714E+02  0.90697441604E+02  0.18116655783E+02  0.11562983027E+03  0.00000000000E+00 0. -1.
         -3    1    6    6    0  503  0.31397590569E+03  0.17650042445E+03  0.12046334964E+03  0.37979558685E+03  0.00000000000E+00 0.  1.
<mgrwt>
<rscale>  0 0.51233737E+03</rscale>
<asrwt>0</asrwt>
<pdfrwt beam="1">  1        1 0.18127760E+00 0.51233737E+03</pdfrwt>
<pdfrwt beam="2">  1       -1 0.60887787E-01 0.51233737E+03</pdfrwt>
<totfact> 0.32225024E+01</totfact>
</mgrwt>
</event>
<event>
12    1  0.1444206E-007  0.1229306E+04  0.7818608E-02  0.9087585E-01
          2   -1    0    0  501    0  0.00000000000E+00  0.00000000000E+00  0.23825175480E+04  0.23825175480E+04  0.00000000000E+00 0.  1.
         -2   -1    0    0    0  501 -0.00000000000E+00 -0.00000000000E+00 -0.84436023075E+03  0.84436023075E+03  0.00000000000E+00 0. -1.
         23    2    1    2    0    0  0.10753854257E+04  0.54105694511E+03  0.30644884745E+02  0.12068964712E+04  0.80396216834E+02 0.  0.
    5000000    2    1    2    0    0 -0.10753854257E+04 -0.54105694511E+03  0.15075124325E+04  0.20199813076E+04  0.59877735186E+03 0.  0.
         23    2    4    4    0    0 -0.10447882914E+04 -0.42691669681E+03  0.14908820410E+04  0.18722189105E+04  0.92919045351E+02 0.  0.
         23    2    4    4    0    0 -0.30597134265E+02 -0.11414024829E+03  0.16630391559E+02  0.14776239704E+03  0.87137679267E+02 0.  0.
          1    1    3    3  502    0  0.76667932652E+03  0.41939108728E+03  0.25761841002E+01  0.87389513703E+03  0.00000000000E+00 0. -1.
         -1    1    3    3    0  502  0.30870609915E+03  0.12166585783E+03  0.28068700644E+02  0.33300133419E+03  0.00000000000E+00 0.  1.
         13    1    5    5    0    0 -0.16181556697E+03 -0.87391883303E+02  0.19842870895E+03  0.27054680097E+03  0.00000000000E+00 0. -1.
        -13    1    5    5    0    0 -0.88297272443E+03 -0.33952481351E+03  0.12924533320E+04  0.16016721096E+04  0.00000000000E+00 0.  1.
          1    1    6    6  503    0 -0.34586509137E+02 -0.64421300762E+02 -0.30419876213E+02  0.79194062120E+02  0.00000000000E+00 0. -1.
         -1    1    6    6    0  503  0.39893748725E+01 -0.49718947533E+02  0.47050267772E+02  0.68568334916E+02  0.00000000000E+00 0.  1.
<mgrwt>
<rscale>  0 0.12293063E+04</rscale>
<asrwt>0</asrwt>
<pdfrwt beam="1">  1        2 0.36654116E+00 0.12293063E+04</pdfrwt>
<pdfrwt beam="2">  1       -2 0.12990158E+00 0.12293063E+04</pdfrwt>
<totfact> 0.17258598E+00</totfact>
</mgrwt>
</event>
<event>
12    1  0.1444206E-007  0.6112465E+03  0.7818608E-02  0.9882344E-01
         -2   -1    0    0    0  501 -0.00000000000E+00  0.00000000000E+00  0.24195696214E+03  0.24195696214E+03  0.00000000000E+00 0.  1.
          2   -1    0    0  501    0  0.00000000000E+00 -0.00000000000E+00 -0.21459794669E+04  0.21459794669E+04  0.00000000000E+00 0. -1.
         23    2    1    2    0    0  0.58870402191E+03  0.34187278854E+02 -0.72244401169E+03  0.93715243890E+03  0.92672262707E+02 0.  0.
    5000000    2    1    2    0    0 -0.58870402191E+03 -0.34187278854E+02 -0.11815784931E+04  0.14507839901E+04  0.60075390574E+03 0.  0.
         23    2    4    4    0    0 -0.18807085292E+03  0.47189621684E+02 -0.17686439979E+02  0.21364290746E+03  0.87937339263E+02 0.  0.
         23    2    4    4    0    0 -0.40063316899E+03 -0.81376900538E+02 -0.11638920531E+04  0.12371410827E+04  0.93510486752E+02 0.  0.
          3    1    3    3  502    0  0.28246191897E+03  0.61433923099E+02 -0.36758571136E+03  0.46763032170E+03  0.00000000000E+00 0. -1.
         -3    1    3    3    0  502  0.30624210294E+03 -0.27246644244E+02 -0.35485830032E+03  0.46952211720E+03  0.00000000000E+00 0.  1.
         13    1    5    5    0    0 -0.92558950001E+02 -0.20756947907E+02  0.14927633285E+01  0.94869586560E+02  0.00000000000E+00 0.  1.
        -13    1    5    5    0    0 -0.95511902917E+02  0.67946569591E+02 -0.19179203307E+02  0.11877332090E+03  0.00000000000E+00 0. -1.
          1    1    6    6  503    0 -0.14295822939E+03  0.23167835634E+01 -0.50153949056E+03  0.52152112462E+03  0.00000000000E+00 0. -1.
         -1    1    6    6    0  503 -0.25767493961E+03 -0.83693684101E+02 -0.66235256253E+03  0.71561995804E+03  0.00000000000E+00 0.  1.
<mgrwt>
<rscale>  0 0.61124646E+03</rscale>
<asrwt>0</asrwt>
<pdfrwt beam="1">  1        2 0.33015067E+00 0.61124646E+03</pdfrwt>
<pdfrwt beam="2">  1       -2 0.37224150E-01 0.61124646E+03</pdfrwt>
<totfact> 0.39744127E+01</totfact>
</mgrwt>
</event>
<event>
12    1  0.1444206E-007  0.6815402E+03  0.7818608E-02  0.9749332E-01
          2   -1    0    0  501    0  0.00000000000E+00  0.00000000000E+00  0.14989525264E+04  0.14989525264E+04  0.00000000000E+00 0. -1.
         -2   -1    0    0    0  501 -0.00000000000E+00 -0.00000000000E+00 -0.36439446639E+03  0.36439446639E+03  0.00000000000E+00 0.  1.
         23    2    1    2    0    0 -0.16554426691E+03  0.52720082529E+03  0.81035711919E+03  0.98552741408E+03  0.96124964451E+02 0.  0.
    5000000    2    1    2    0    0  0.16554426691E+03 -0.52720082529E+03  0.32420094079E+03  0.87781957867E+03  0.60009611580E+03 0.  0.
         23    2    4    4    0    0 -0.18219764480E+03 -0.34849047291E+03  0.90541965136E+02  0.41312370712E+03  0.88497222886E+02 0.  0.
         23    2    4    4    0    0  0.34774191171E+03 -0.17871035238E+03  0.23365897566E+03  0.46469587155E+03  0.92108137117E+02 0.  0.
          4    1    3    3  502    0 -0.56542061417E+02  0.33380551004E+03  0.50563214845E+03  0.60851211392E+03  0.00000000000E+00 0.  1.
         -4    1    3    3    0  502 -0.10900220549E+03  0.19339531525E+03  0.30472497074E+03  0.37701530016E+03  0.00000000000E+00 0. -1.
         11    1    5    5    0    0 -0.13649775197E+03 -0.17281063602E+03  0.66335438137E+02  0.22999030973E+03  0.00000000000E+00 0. -1.
        -11    1    5    5    0    0 -0.45699892831E+02 -0.17567983689E+03  0.24206526999E+02  0.18313339740E+03  0.00000000000E+00 0.  1.
          4    1    6    6  503    0  0.72567333397E+02  0.18009966607E+00  0.54628187977E+02  0.90831102789E+02  0.00000000000E+00 0. -1.
         -4    1    6    6    0  503  0.27517457831E+03 -0.17889045205E+03  0.17903078768E+03  0.37386476876E+03  0.00000000000E+00 0.  1.
<mgrwt>
<rscale>  0 0.68154023E+03</rscale>
<asrwt>0</asrwt>
<pdfrwt beam="1">  1        2 0.23060808E+00 0.68154023E+03</pdfrwt>
<pdfrwt beam="2">  1       -2 0.56060688E-01 0.68154023E+03</pdfrwt>
<totfact> 0.39139261E+01</totfact>
</mgrwt>
</event>
<event>
12    1  0.1645390E-007  0.1562359E+04  0.7818608E-02  0.8844012E-01
         -1   -1    0    0    0  501 -0.00000000000E+00  0.00000000000E+00  0.11692038407E+04  0.11692038407E+04  0.00000000000E+00 0.  1.
          1   -1    0    0  501    0  0.00000000000E+00 -0.00000000000E+00 -0.21389758876E+04  0.21389758876E+04  0.00000000000E+00 0. -1.
         23    2    1    2    0    0 -0.53697867552E+03  0.14177200162E+04 -0.62135418112E+03  0.16409955130E+04  0.92244853288E+02 0.  0.
    5000000    2    1    2    0    0  0.53697867552E+03 -0.14177200162E+04 -0.34841786578E+03  0.16671842154E+04  0.59986003078E+03 0.  0.
         23    2    4    4    0    0  0.54389983517E+02 -0.86046237844E+03 -0.56582813283E+02  0.86907509916E+03  0.93467310862E+02 0.  0.
         23    2    4    4    0    0  0.48258869200E+03 -0.55725763776E+03 -0.29183505250E+03  0.79810911622E+03  0.91556228858E+02 0.  0.
          4    1    3    3  502    0 -0.24131194166E+03  0.66507385849E+03 -0.33858189858E+03  0.78434201244E+03  0.00000000000E+00 0.  1.
         -4    1    3    3    0  502 -0.29566673385E+03  0.75264615771E+03 -0.28277228253E+03  0.85665350054E+03  0.00000000000E+00 0. -1.
         11    1    5    5    0    0  0.75763983436E+02 -0.61013599321E+03 -0.60638811420E+02  0.61780512854E+03  0.00000000000E+00 0. -1.
        -11    1    5    5    0    0 -0.21373999919E+02 -0.25032638523E+03  0.40559981366E+01  0.25126997062E+03  0.00000000000E+00 0.  1.
          2    1    6    6  503    0  0.31594215507E+03 -0.42609726684E+03 -0.19789234717E+03  0.56616226228E+03  0.00000000000E+00 0. -1.
         -2    1    6    6    0  503  0.16664653693E+03 -0.13116037092E+03 -0.93942705328E+02  0.23194685394E+03  0.00000000000E+00 0.  1.
<mgrwt>
<rscale>  0 0.15623590E+04</rscale>
<asrwt>0</asrwt>
<pdfrwt beam="1">  1        1 0.32907321E+00 0.15623590E+04</pdfrwt>
<pdfrwt beam="2">  1       -1 0.17987752E+00 0.15623590E+04</pdfrwt>
<totfact> 0.47014361E-01</totfact>
</mgrwt>
</event>
<event>
12    1  0.1444206E-007  0.1243073E+04  0.7818608E-02  0.9075968E-01
          2   -1    0    0  501    0  0.00000000000E+00  0.00000000000E+00  0.20349209517E+04  0.20349209517E+04  0.00000000000E+00 0. -1.
         -2   -1    0    0    0  501 -0.00000000000E+00 -0.00000000000E+00 -0.94444677751E+03  0.94444677751E+03  0.00000000000E+00 0.  1.
         23    2    1    2    0    0 -0.10385608034E+04  0.59613147839E+03 -0.75745051426E+02  0.12034793643E+04  0.92973037095E+02 0.  0.
    5000000    2    1    2    0    0  0.10385608034E+04 -0.59613147839E+03  0.11662192256E+04  0.17758883648E+04  0.59977572497E+03 0.  0.
         23    2    4    4    0    0  0.22584242763E+03  0.60961434546E+02  0.75685422015E+02  0.26279593023E+03  0.92802581976E+02 0.  0.
         23    2    4    4    0    0  0.81271837581E+03 -0.65709291294E+03  0.10905338036E+04  0.15130924346E+04  0.88895918452E+02 0.  0.
          2    1    3    3  502    0 -0.53038135191E+02  0.56408442977E+02 -0.27562666997E+01  0.77476146199E+02  0.00000000000E+00 0. -1.
         -2    1    3    3    0  502 -0.98552266824E+03  0.53972303542E+03 -0.72988784726E+02  0.11260032181E+04  0.00000000000E+00 0.  1.
         13    1    5    5    0    0  0.49515651801E+02  0.29709960506E+02  0.59622812357E+02  0.83002176357E+02  0.00000000000E+00 0.  1.
        -13    1    5    5    0    0  0.17632677583E+03  0.31251474040E+02  0.16062609658E+02  0.17979375387E+03  0.00000000000E+00 0. -1.
          1    1    6    6  503    0  0.38809200286E+03 -0.36590993823E+03  0.52862155462E+03  0.75096353679E+03  0.00000000000E+00 0. -1.
         -1    1    6    6    0  503  0.42462637295E+03 -0.29118297471E+03  0.56191224895E+03  0.76212889782E+03  0.00000000000E+00 0.  1.
<mgrwt>
<rscale>  0 0.12430732E+04</rscale>
<asrwt>0</asrwt>
<pdfrwt beam="1">  1        2 0.31306476E+00 0.12430732E+04</pdfrwt>
<pdfrwt beam="2">  1       -2 0.14529951E+00 0.12430732E+04</pdfrwt>
<totfact> 0.20181274E+00</totfact>
</mgrwt>
</event>
<event>
12    1  0.1444206E-007  0.7869879E+03  0.7818608E-02  0.9579045E-01
          2   -1    0    0  501    0  0.00000000000E+00  0.00000000000E+00  0.29998884088E+04  0.29998884088E+04  0.00000000000E+00 0. -1.
         -2   -1    0    0    0  501 -0.00000000000E+00 -0.00000000000E+00 -0.22867487504E+03  0.22867487504E+03  0.00000000000E+00 0.  1.
         23    2    1    2    0    0 -0.70825647691E+03  0.97401522924E+02  0.12934200666E+04  0.14807945784E+04  0.93288911926E+02 0.  0.
    5000000    2    1    2    0    0  0.70825647691E+03 -0.97401522924E+02  0.14777934672E+04  0.17477687054E+04  0.59975630239E+03 0.  0.
         23    2    4    4    0    0  0.11347733834E+03 -0.21480746842E+03  0.18480381815E+03  0.31684460777E+03  0.84962929963E+02 0.  0.
         23    2    4    4    0    0  0.59477913857E+03  0.11740594549E+03  0.12929896490E+04  0.14309240976E+04  0.90416597004E+02 0.  0.
          4    1    3    3  502    0 -0.38170998899E+03  0.71788452018E+02  0.61390130549E+03  0.72645090021E+03  0.00000000000E+00 0.  1.
         -4    1    3    3    0  502 -0.32654648791E+03  0.25613070906E+02  0.67951876110E+03  0.75434367821E+03  0.00000000000E+00 0. -1.
         13    1    5    5    0    0  0.77802554630E+02 -0.84170176225E+02  0.47739022112E+02  0.12416469025E+03  0.00000000000E+00 0. -1.
        -13    1    5    5    0    0  0.35674783711E+02 -0.13063729219E+03  0.13706479604E+03  0.19267991752E+03  0.00000000000E+00 0.  1.
          4    1    6    6  503    0  0.29588215902E+03  0.81743078495E+02  0.56172367684E+03  0.64012629382E+03  0.00000000000E+00 0. -1.
         -4    1    6    6    0  503  0.29889697955E+03  0.35662866999E+02  0.73126597218E+03  0.79079780382E+03  0.00000000000E+00 0.  1.
<mgrwt>
<rscale>  0 0.78698791E+03</rscale>
<asrwt>0</asrwt>
<pdfrwt beam="1">  1        2 0.46152127E+00 0.78698791E+03</pdfrwt>
<pdfrwt beam="2">  1       -2 0.35180752E-01 0.78698791E+03</pdfrwt>
<totfact> 0.13932253E+01</totfact>
</mgrwt>
</event>
<event>
12    1  0.1444206E-007  0.7192064E+03  0.7818608E-02  0.9684939E-01
         -1   -1    0    0    0  501 -0.00000000000E+00  0.00000000000E+00  0.29050037275E+03  0.29050037275E+03  0.00000000000E+00 0.  1.
          1   -1    0    0  501    0  0.00000000000E+00 -0.00000000000E+00 -0.24331755875E+04  0.24331755875E+04  0.00000000000E+00 0. -1.
         23    2    1    2    0    0  0.60513505445E+03 -0.14048301480E+03 -0.15605235827E+04  0.16821160875E+04  0.91415360411E+02 0.  0.
    5000000    2    1    2    0    0 -0.60513505445E+03  0.14048301480E+03 -0.58215163207E+03  0.10415598728E+04  0.60001877825E+03 0.  0.
         23    2    4    4    0    0  0.87602393590E+02  0.58092549365E+02 -0.19845241906E+03  0.24019305977E+03  0.85208096325E+02 0.  0.
         23    2    4    4    0    0 -0.69273744804E+03  0.82390465438E+02 -0.38369921302E+03  0.80136681299E+03  0.91051206381E+02 0.  0.
          2    1    3    3  502    0  0.31570448552E+03 -0.27016785800E+02 -0.76743595788E+03  0.83027536296E+03  0.00000000000E+00 0. -1.
         -2    1    3    3    0  502  0.28943056893E+03 -0.11346622900E+03 -0.79308762480E+03  0.85184072453E+03  0.00000000000E+00 0.  1.
         13    1    5    5    0    0  0.74231598046E+02  0.57366763640E+02 -0.87023196631E+02  0.12796215249E+03  0.00000000000E+00 0.  1.
        -13    1    5    5    0    0  0.13370795544E+02  0.72578572482E+00 -0.11142922243E+03  0.11223090728E+03  0.00000000000E+00 0. -1.
          3    1    6    6  503    0 -0.35748512403E+03 -0.30693477692E+01 -0.20043741480E+03  0.40985386670E+03  0.00000000000E+00 0.  1.
         -3    1    6    6    0  503 -0.33525232401E+03  0.85459813207E+02 -0.18326179822E+03  0.39151294629E+03  0.00000000000E+00 0. -1.
<mgrwt>
<rscale>  0 0.71920637E+03</rscale>
<asrwt>0</asrwt>
<pdfrwt beam="1">  1        1 0.37433471E+00 0.71920637E+03</pdfrwt>
<pdfrwt beam="2">  1       -1 0.44692365E-01 0.71920637E+03</pdfrwt>
<totfact> 0.79238604E+00</totfact>
</mgrwt>
</event>
<event>
12    1  0.1444206E-007  0.1045135E+04  0.7818608E-02  0.9260381E-01
          1   -1    0    0  501    0  0.00000000000E+00  0.00000000000E+00  0.20499464327E+04  0.20499464327E+04  0.00000000000E+00 0. -1.
         -1   -1    0    0    0  501 -0.00000000000E+00 -0.00000000000E+00 -0.63980778139E+03  0.63980778139E+03  0.00000000000E+00 0.  1.
         23    2    1    2    0    0 -0.99877337735E+03 -0.27980465485E+03  0.94006393237E+03  0.14027339544E+04  0.90019140969E+02 0.  0.
    5000000    2    1    2    0    0  0.99877337735E+03  0.27980465485E+03  0.47007471896E+03  0.12870202597E+04  0.59967658226E+03 0.  0.
         23    2    4    4    0    0  0.77948274610E+03  0.15409672525E+03  0.58822305396E+03  0.99280791967E+03  0.91225281354E+02 0.  0.
         23    2    4    4    0    0  0.21929063125E+03  0.12570792960E+03 -0.11814833500E+03  0.29421234003E+03  0.93332777986E+02 0.  0.
          2    1    3    3  502    0 -0.58556617088E+03 -0.16363326826E+03  0.49069987921E+03  0.78131297085E+03  0.00000000000E+00 0. -1.
         -2    1    3    3    0  502 -0.41320720647E+03 -0.11617138658E+03  0.44936405316E+03  0.62142098356E+03  0.00000000000E+00 0.  1.
         13    1    5    5    0    0  0.37254267344E+03  0.82215781231E+02  0.33812154547E+03  0.50977804752E+03  0.00000000000E+00 0. -1.
        -13    1    5    5    0    0  0.40694007266E+03  0.71880944018E+02  0.25010150849E+03  0.48302987216E+03  0.00000000000E+00 0.  1.
          1    1    6    6  503    0  0.59940354953E+01  0.18750123699E+02 -0.37478036791E+02  0.42333188422E+02  0.00000000000E+00 0. -1.
         -1    1    6    6    0  503  0.21329659575E+03  0.10695780590E+03 -0.80670298207E+02  0.25187915161E+03  0.00000000000E+00 0.  1.
<mgrwt>
<rscale>  0 0.10451349E+04</rscale>
<asrwt>0</asrwt>
<pdfrwt beam="1">  1        1 0.31537637E+00 0.10451349E+04</pdfrwt>
<pdfrwt beam="2">  1       -1 0.98431967E-01 0.10451349E+04</pdfrwt>
<totfact> 0.27386230E+00</totfact>
</mgrwt>
</event>
<event>
12    1  0.1444206E-007  0.4027484E+03  0.7818608E-02  0.1042832E+00
         -1   -1    0    0    0  501 -0.00000000000E+00  0.00000000000E+00  0.28169032591E+03  0.28169032591E+03  0.00000000000E+00 0.  1.
          1   -1    0    0  501    0  0.00000000000E+00 -0.00000000000E+00 -0.12599739908E+04  0.12599739908E+04  0.00000000000E+00 0. -1.
         23    2    1    2    0    0  0.33650171591E+03  0.81089809987E+02 -0.71722426139E+03  0.80165227930E+03  0.91797460162E+02 0.  0.
    5000000    2    1    2    0    0 -0.33650171591E+03 -0.81089809987E+02 -0.26105940350E+03  0.74001203741E+03  0.59971396620E+03 0.  0.
         23    2    4    4    0    0 -0.14689631516E+03  0.93397294186E+02 -0.39084041887E+03  0.43747371833E+03  0.91243844919E+02 0.  0.
         23    2    4    4    0    0 -0.18960540075E+03 -0.17448710417E+03  0.12978101537E+03  0.30253831908E+03  0.91051441736E+02 0.  0.
          3    1    3    3  502    0  0.24999045669E+03  0.24069096463E+02 -0.45520363394E+03  0.51988931341E+03  0.00000000000E+00 0. -1.
         -3    1    3    3    0  502  0.86511259216E+02  0.57020713524E+02 -0.26202062744E+03  0.28176296589E+03  0.00000000000E+00 0.  1.
         13    1    5    5    0    0 -0.12989703555E+03  0.97157029830E+02 -0.26697982108E+03  0.31239550758E+03  0.00000000000E+00 0.  1.
        -13    1    5    5    0    0 -0.16999279606E+02 -0.37597356438E+01 -0.12386059779E+03  0.12507821075E+03  0.00000000000E+00 0. -1.
          3    1    6    6  503    0 -0.12874913263E+03 -0.61281452456E+02  0.49193782215E+02  0.15083694434E+03  0.00000000000E+00 0.  1.
         -3    1    6    6    0  503 -0.60856268121E+02 -0.11320565172E+03  0.80587233156E+02  0.15170137474E+03  0.00000000000E+00 0. -1.
<mgrwt>
<rscale>  0 0.40274842E+03</rscale>
<asrwt>0</asrwt>
<pdfrwt beam="1">  1        1 0.19384215E+00 0.40274842E+03</pdfrwt>
<pdfrwt beam="2">  1       -1 0.43336973E-01 0.40274842E+03</pdfrwt>
<totfact> 0.54659564E+01</totfact>
</mgrwt>
</event>
<event>
12    1  0.1516538E-007  0.1216354E+04  0.7818608E-02  0.9098661E-01
          2   -1    0    0  501    0  0.00000000000E+00  0.00000000000E+00  0.16293380012E+04  0.16293380012E+04  0.00000000000E+00 0. -1.
         -2   -1    0    0    0  501 -0.00000000000E+00 -0.00000000000E+00 -0.92266425746E+03  0.92266425746E+03  0.00000000000E+00 0.  1.
         23    2    1    2    0    0  0.39778496453E+03  0.10791323179E+04  0.29144253443E+03  0.11899464993E+04  0.90964183640E+02 0.  0.
    5000000    2    1    2    0    0 -0.39778496453E+03 -0.10791323179E+04  0.41523120931E+03  0.13620557594E+04  0.60001624717E+03 0.  0.
         23    2    4    4    0    0  0.77775107778E+02 -0.58828082636E+03  0.11812519930E+03  0.61089318988E+03  0.84342330274E+02 0.  0.
         23    2    4    4    0    0 -0.47556007231E+03 -0.49085149156E+03  0.29710601001E+03  0.75116256949E+03  0.94237229820E+02 0.  0.
          4    1    3    3  502    0  0.14700127820E+03  0.40644541568E+03  0.15511460304E+03  0.45920343182E+03  0.00000000000E+00 0. -1.
         -4    1    3    3    0  502  0.25078368633E+03  0.67268690224E+03  0.13632793140E+03  0.73074306747E+03  0.00000000000E+00 0.  1.
         13    1    5    5    0    0  0.37132112039E+02 -0.42862448645E+03  0.11809963294E+03  0.44614489511E+03  0.00000000000E+00 0. -1.
        -13    1    5    5    0    0  0.40642995739E+02 -0.15965633991E+03  0.25566358659E-01  0.16474829477E+03  0.00000000000E+00 0.  1.
          1    1    6    6  503    0 -0.16898401577E+03 -0.22785296419E+03  0.92546203213E+02  0.29839130450E+03  0.00000000000E+00 0. -1.
         -1    1    6    6    0  503 -0.30657605654E+03 -0.26299852737E+03  0.20455980680E+03  0.45277126499E+03  0.00000000000E+00 0.  1.
<mgrwt>
<rscale>  0 0.12163540E+04</rscale>
<asrwt>0</asrwt>
<pdfrwt beam="1">  1        2 0.25066738E+00 0.12163540E+04</pdfrwt>
<pdfrwt beam="2">  1       -2 0.14194835E+00 0.12163540E+04</pdfrwt>
<totfact> 0.36130647E+00</totfact>
</mgrwt>
</event>
<event>
12    1  0.1444206E-007  0.1073494E+04  0.7818608E-02  0.9231419E-01
         -2   -1    0    0    0  501 -0.00000000000E+00  0.00000000000E+00  0.10851524092E+04  0.10851524092E+04  0.00000000000E+00 0.  1.
          2   -1    0    0  501    0  0.00000000000E+00 -0.00000000000E+00 -0.20786503339E+04  0.20786503339E+04  0.00000000000E+00 0. -1.
         23    2    1    2    0    0  0.23753070924E+02  0.99634834607E+03  0.61790589592E+03  0.11761116405E+04  0.90314227512E+02 0.  0.
    5000000    2    1    2    0    0 -0.23753070924E+02 -0.99634834607E+03 -0.16114038206E+04  0.19876911025E+04  0.60084890853E+03 0.  0.
         23    2    4    4    0    0 -0.29335736486E+03 -0.47650602090E+03 -0.87169670638E+03  0.10397837319E+04  0.90435223741E+02 0.  0.
         23    2    4    4    0    0  0.26960429394E+03 -0.51984232517E+03 -0.73970711425E+03  0.94790737066E+03  0.91865391368E+02 0.  0.
          2    1    3    3  502    0  0.30133536965E+02  0.43565850151E+03  0.31806311198E+03  0.54025040786E+03  0.00000000000E+00 0.  1.
         -2    1    3    3    0  502 -0.63804660415E+01  0.56068984456E+03  0.29984278394E+03  0.63586123267E+03  0.00000000000E+00 0. -1.
         13    1    5    5    0    0 -0.41890739124E+02 -0.98177591529E+02 -0.11270275184E+03  0.15522752261E+03  0.00000000000E+00 0. -1.
        -13    1    5    5    0    0 -0.25146662574E+03 -0.37832842937E+03 -0.75899395454E+03  0.88455620928E+03  0.00000000000E+00 0.  1.
          2    1    6    6  503    0  0.11303651609E+03 -0.28180814708E+03 -0.32506328071E+03  0.44481369381E+03  0.00000000000E+00 0. -1.
         -2    1    6    6    0  503  0.15656777785E+03 -0.23803417809E+03 -0.41464383354E+03  0.50309367685E+03  0.00000000000E+00 0.  1.
<mgrwt>
<rscale>  0 0.10734936E+04</rscale>
<asrwt>0</asrwt>
<pdfrwt beam="1">  1        2 0.31979236E+00 0.10734936E+04</pdfrwt>
<pdfrwt beam="2">  1       -2 0.16694653E+00 0.10734936E+04</pdfrwt>
<totfact> 0.13380426E+00</totfact>
</mgrwt>
</event>
<event>
12    1  0.1444206E-007  0.6375532E+03  0.7818608E-02  0.9830419E-01
          2   -1    0    0  501    0  0.00000000000E+00  0.00000000000E+00  0.11802958838E+04  0.11802958838E+04  0.00000000000E+00 0.  1.
         -2   -1    0    0    0  501 -0.00000000000E+00 -0.00000000000E+00 -0.36298895846E+03  0.36298895846E+03  0.00000000000E+00 0. -1.
         23    2    1    2    0    0 -0.21231834455E+03 -0.46249397574E+03  0.25720783860E+03  0.57747655944E+03  0.91343020741E+02 0.  0.
    5000000    2    1    2    0    0  0.21231834455E+03  0.46249397574E+03  0.56009908672E+03  0.96580828279E+03  0.60007907407E+03 0.  0.
         23    2    4    4    0    0  0.67707478554E+02 -0.12648725244E+03  0.16541956335E+03  0.23774235401E+03  0.92598419363E+02 0.  0.
         23    2    4    4    0    0  0.14461086600E+03  0.58898122817E+03  0.39467952337E+03  0.72806592878E+03  0.80603230568E+02 0.  0.
          1    1    3    3  502    0 -0.14757517331E+02 -0.28473393453E+02  0.45642518577E+02  0.55783133245E+02  0.00000000000E+00 0. -1.
         -1    1    3    3    0  502 -0.19756082722E+03 -0.43402058228E+03  0.21156532002E+03  0.52169342619E+03  0.00000000000E+00 0.  1.
         13    1    5    5    0    0  0.46781473456E+02 -0.20481424491E+02  0.16331490486E+02  0.53616346289E+02  0.00000000000E+00 0. -1.
        -13    1    5    5    0    0  0.20926005098E+02 -0.10600582795E+03  0.14908807286E+03  0.18412600772E+03  0.00000000000E+00 0.  1.
          1    1    6    6  503    0  0.10273607850E+03  0.46398037531E+03  0.26972748332E+03  0.54642968967E+03  0.00000000000E+00 0. -1.
         -1    1    6    6    0  503  0.41874787499E+02  0.12500085286E+03  0.12495204004E+03  0.18163623910E+03  0.00000000000E+00 0.  1.
<mgrwt>
<rscale>  0 0.63755320E+03</rscale>
<asrwt>0</asrwt>
<pdfrwt beam="1">  1        2 0.18158398E+00 0.63755320E+03</pdfrwt>
<pdfrwt beam="2">  1       -2 0.55844456E-01 0.63755320E+03</pdfrwt>
<totfact> 0.60274392E+01</totfact>
</mgrwt>
</event>
<event>
12    1  0.1444206E-007  0.3715068E+03  0.7818608E-02  0.1054118E+00
         -2   -1    0    0    0  501 -0.00000000000E+00  0.00000000000E+00  0.89257191051E+03  0.89257191051E+03  0.00000000000E+00 0.  1.
          2   -1    0    0  501    0  0.00000000000E+00 -0.00000000000E+00 -0.21142534115E+03  0.21142534115E+03  0.00000000000E+00 0. -1.
         23    2    1    2    0    0  0.81626526647E+02  0.77782813507E+02 -0.48149244357E+02  0.15283885661E+03  0.91259577187E+02 0.  0.
    5000000    2    1    2    0    0 -0.81626526647E+02 -0.77782813507E+02  0.72929581372E+03  0.95115839505E+03  0.60009736930E+03 0.  0.
         23    2    4    4    0    0 -0.32285615881E+03  0.15463589113E+02  0.39182475913E+03  0.51610001473E+03  0.91418605681E+02 0.  0.
         23    2    4    4    0    0  0.24122963217E+03 -0.93246402620E+02  0.33747105459E+03  0.43505838032E+03  0.92208755355E+02 0.  0.
          1    1    3    3  502    0 -0.18907769025E+01  0.55091575209E+02 -0.29527794848E+01  0.55203039799E+02  0.00000000000E+00 0. -1.
         -1    1    3    3    0  502  0.83517303549E+02  0.22691238298E+02 -0.45196464873E+02  0.97635816812E+02  0.00000000000E+00 0.  1.
         11    1    5    5    0    0 -0.65505580491E+02 -0.33805062905E+02  0.79394763918E+02  0.10833878295E+03  0.00000000000E+00 0. -1.
        -11    1    5    5    0    0 -0.25735057832E+03  0.49268652017E+02  0.31242999521E+03  0.40776123178E+03  0.00000000000E+00 0.  1.
          2    1    6    6  503    0  0.21550768171E+02 -0.30122882927E+02  0.94377554045E+02  0.10138513891E+03  0.00000000000E+00 0. -1.
         -2    1    6    6    0  503  0.21967886400E+03 -0.63123519693E+02  0.24309350054E+03  0.33367324141E+03  0.00000000000E+00 0.  1.
<mgrwt>
<rscale>  0 0.37150679E+03</rscale>
<asrwt>0</asrwt>
<pdfrwt beam="1">  1        2 0.32526976E-01 0.37150679E+03</pdfrwt>
<pdfrwt beam="2">  1       -2 0.13731875E+00 0.37150679E+03</pdfrwt>
<totfact> 0.63549169E+01</totfact>
</mgrwt>
</event>
<event>
12    1  0.1444206E-007  0.4363930E+03  0.7818608E-02  0.1031859E+00
          2   -1    0    0  501    0  0.00000000000E+00  0.00000000000E+00  0.76632647655E+03  0.76632647655E+03  0.00000000000E+00 0.  1.
         -2   -1    0    0    0  501 -0.00000000000E+00 -0.00000000000E+00 -0.28456214336E+03  0.28456214336E+03  0.00000000000E+00 0. -1.
         23    2    1    2    0    0 -0.24133473247E+03 -0.39958920034E+02  0.25455276597E+02  0.25828247668E+03  0.78884081216E+02 0.  0.
    5000000    2    1    2    0    0  0.24133473247E+03  0.39958920034E+02  0.45630905660E+03  0.79260614323E+03  0.60013946277E+03 0.  0.
         23    2    4    4    0    0  0.12859954212E+03  0.30008147860E+03  0.17263331598E+03  0.38045268171E+03  0.91407030397E+02 0.  0.
         23    2    4    4    0    0  0.11273519034E+03 -0.26012255856E+03  0.28367574062E+03  0.41215346152E+03  0.95003060021E+02 0.  0.
          2    1    3    3  502    0 -0.12837193913E+03  0.63098608135E+01 -0.15650133950E+02  0.12947623640E+03  0.00000000000E+00 0. -1.
         -2    1    3    3    0  502 -0.11296279334E+03 -0.46268780847E+02  0.41105410546E+02  0.12880624028E+03  0.00000000000E+00 0.  1.
         11    1    5    5    0    0  0.12641291317E+03  0.18911714344E+03  0.10558264936E+03  0.25078519575E+03  0.00000000000E+00 0. -1.
        -11    1    5    5    0    0  0.21866289496E+01  0.11096433515E+03  0.67050666622E+02  0.12966748596E+03  0.00000000000E+00 0.  1.
          4    1    6    6  503    0  0.24457267201E+02 -0.45493187185E+02  0.11246380178E+03  0.12375740265E+03  0.00000000000E+00 0.  1.
         -4    1    6    6    0  503  0.88277923143E+02 -0.21462937138E+03  0.17121193884E+03  0.28839605887E+03  0.00000000000E+00 0. -1.
<mgrwt>
<rscale>  0 0.43639300E+03</rscale>
<asrwt>0</asrwt>
<pdfrwt beam="1">  1        2 0.11789638E+00 0.43639300E+03</pdfrwt>
<pdfrwt beam="2">  1       -2 0.43778792E-01 0.43639300E+03</pdfrwt>
<totfact> 0.18603213E+02</totfact>
</mgrwt>
</event>
<event>
12    1  0.1444206E-007  0.5726285E+03  0.7818608E-02  0.9963879E-01
         -2   -1    0    0    0  501 -0.00000000000E+00  0.00000000000E+00  0.71215415551E+03  0.71215415551E+03  0.00000000000E+00 0. -1.
          2   -1    0    0  501    0  0.00000000000E+00 -0.00000000000E+00 -0.57990458481E+03  0.57990458481E+03  0.00000000000E+00 0.  1.
         23    2    1    2    0    0 -0.37562603651E+03 -0.32059872942E+03 -0.97767113572E+01  0.50204814843E+03  0.89879333806E+02 0.  0.
    5000000    2    1    2    0    0  0.37562603651E+03  0.32059872942E+03  0.14202628206E+03  0.79001059188E+03  0.60005566898E+03 0.  0.
         23    2    4    4    0    0  0.49667727809E+02 -0.93035837603E+02 -0.12931762394E+03  0.19066194400E+03  0.92230031791E+02 0.  0.
         23    2    4    4    0    0  0.32595830870E+03  0.41363456703E+03  0.27134390600E+03  0.59934864788E+03  0.90823523084E+02 0.  0.
          3    1    3    3  502    0 -0.19485548538E+03 -0.11367071676E+03  0.15506986106E+02  0.22611978828E+03  0.00000000000E+00 0. -1.
         -3    1    3    3    0  502 -0.18077055113E+03 -0.20692801266E+03 -0.25283697463E+02  0.27592836015E+03  0.00000000000E+00 0.  1.
         13    1    5    5    0    0  0.36482545468E+02 -0.96632712786E+02 -0.13952957858E+03  0.17360115381E+03  0.00000000000E+00 0. -1.
        -13    1    5    5    0    0  0.13185182341E+02  0.35968751822E+01  0.10211954641E+02  0.17060790193E+02  0.00000000000E+00 0.  1.
          1    1    6    6  503    0  0.29962583767E+03  0.36143285663E+03  0.20905865996E+03  0.51392107930E+03  0.00000000000E+00 0. -1.
         -1    1    6    6    0  503  0.26332471033E+02  0.52201710398E+02  0.62285246037E+02  0.85427568578E+02  0.00000000000E+00 0.  1.
<mgrwt>
<rscale>  0 0.57262855E+03</rscale>
<asrwt>0</asrwt>
<pdfrwt beam="1">  1        2 0.89216090E-01 0.57262855E+03</pdfrwt>
<pdfrwt beam="2">  1       -2 0.10956218E+00 0.57262855E+03</pdfrwt>
<totfact> 0.35259761E+01</totfact>
</mgrwt>
</event>
<event>
12    1  0.1444206E-007  0.5368155E+03  0.7818608E-02  0.1004593E+00
         -1   -1    0    0    0  501 -0.00000000000E+00  0.00000000000E+00  0.62827571260E+03  0.62827571260E+03  0.00000000000E+00 0.  1.
          1   -1    0    0  501    0  0.00000000000E+00 -0.00000000000E+00 -0.73308101203E+03  0.73308101203E+03  0.00000000000E+00 0. -1.
         23    2    1    2    0    0 -0.25223543690E+03 -0.45599811121E+03  0.10490067544E+03  0.53943009079E+03  0.91780597580E+02 0.  0.
    5000000    2    1    2    0    0  0.25223543690E+03  0.45599811121E+03 -0.20970597488E+03  0.82192663384E+03  0.60002483487E+03 0.  0.
         23    2    4    4    0    0  0.66081274919E+02  0.26153340386E+03 -0.39137536954E+03  0.48390635282E+03  0.90687497391E+02 0.  0.
         23    2    4    4    0    0  0.18615416198E+03  0.19446470735E+03  0.18166939466E+03  0.33802028102E+03  0.93723246846E+02 0.  0.
          1    1    3    3  502    0 -0.95547746519E+02 -0.11518049069E+03  0.61578241511E+02  0.16182644137E+03  0.00000000000E+00 0. -1.
         -1    1    3    3    0  502 -0.15668769038E+03 -0.34081762052E+03  0.43322433932E+02  0.37760364942E+03  0.00000000000E+00 0.  1.
         11    1    5    5    0    0  0.77535780764E+02  0.18057419201E+03 -0.22649104653E+03  0.29986168524E+03  0.00000000000E+00 0.  1.
        -11    1    5    5    0    0 -0.11454505845E+02  0.80959211856E+02 -0.16488432301E+03  0.18404466758E+03  0.00000000000E+00 0. -1.
          1    1    6    6  503    0  0.15294366998E+03  0.14329468619E+03  0.90415964942E+02  0.22825463849E+03  0.00000000000E+00 0. -1.
         -1    1    6    6    0  503  0.33210492003E+02  0.51170021152E+02  0.91253429722E+02  0.10976564253E+03  0.00000000000E+00 0.  1.
<mgrwt>
<rscale>  0 0.53681546E+03</rscale>
<asrwt>0</asrwt>
<pdfrwt beam="1">  1        1 0.11278169E+00 0.53681546E+03</pdfrwt>
<pdfrwt beam="2">  1       -1 0.96657802E-01 0.53681546E+03</pdfrwt>
<totfact> 0.27532322E+01</totfact>
</mgrwt>
</event>
<event>
12    1  0.1444206E-007  0.1006570E+04  0.7818608E-02  0.9301368E-01
          1   -1    0    0  501    0  0.00000000000E+00  0.00000000000E+00  0.21601594565E+04  0.21601594565E+04  0.00000000000E+00 0. -1.
         -1   -1    0    0    0  501 -0.00000000000E+00 -0.00000000000E+00 -0.53775959781E+03  0.53775959781E+03  0.00000000000E+00 0.  1.
         23    2    1    2    0    0  0.86951795831E+03 -0.30580544814E+03  0.12091172759E+04  0.15230550554E+04  0.90297634257E+02 0.  0.
    5000000    2    1    2    0    0 -0.86951795831E+03  0.30580544814E+03  0.41328258279E+03  0.11748639990E+04  0.59993705581E+03 0.  0.
         23    2    4    4    0    0 -0.19558115273E+03 -0.16586631704E+03  0.89656189093E+02  0.28613429212E+03  0.89838624528E+02 0.  0.
         23    2    4    4    0    0 -0.67393680558E+03  0.47167176517E+03  0.32362639370E+03  0.88872970686E+03  0.91876967587E+02 0.  0.
          4    1    3    3  502    0  0.78692484565E+03 -0.30372901566E+03  0.11035627337E+04  0.13890114236E+04  0.00000000000E+00 0.  1.
         -4    1    3    3    0  502  0.82593112663E+02 -0.20764324773E+01  0.10555454222E+03  0.13404363176E+03  0.00000000000E+00 0. -1.
         11    1    5    5    0    0 -0.19853127657E+03 -0.15649543445E+03  0.10001182012E+03  0.27185998776E+03  0.00000000000E+00 0. -1.
        -11    1    5    5    0    0  0.29501238395E+01 -0.93708825828E+01 -0.10355631030E+02  0.14274304364E+02  0.00000000000E+00 0.  1.
          4    1    6    6  503    0 -0.36907431436E+03  0.22512532318E+03  0.20933689200E+03  0.48033237973E+03  0.00000000000E+00 0. -1.
         -4    1    6    6    0  503 -0.30486249122E+03  0.24654644199E+03  0.11428950170E+03  0.40839732713E+03  0.00000000000E+00 0.  1.
<mgrwt>
<rscale>  0 0.10065701E+04</rscale>
<asrwt>0</asrwt>
<pdfrwt beam="1">  1        1 0.33233222E+00 0.10065701E+04</pdfrwt>
<pdfrwt beam="2">  1       -1 0.82732247E-01 0.10065701E+04</pdfrwt>
<totfact> 0.34088964E+00</totfact>
</mgrwt>
</event>
<event>
12    1  0.1444206E-007  0.1340912E+04  0.7818608E-02  0.8997736E-01
         -2   -1    0    0    0  501 -0.00000000000E+00  0.00000000000E+00  0.12276997151E+04  0.12276997151E+04  0.00000000000E+00 0.  1.
          2   -1    0    0  501    0  0.00000000000E+00 -0.00000000000E+00 -0.15254663175E+04  0.15254663175E+04  0.00000000000E+00 0. -1.
         23    2    1    2    0    0  0.96355943297E+03 -0.83787952530E+03 -0.39318300238E+03  0.13391680224E+04  0.91045259043E+02 0.  0.
    5000000    2    1    2    0    0 -0.96355943297E+03  0.83787952530E+03  0.95416399933E+02  0.14139980102E+04  0.59983097919E+03 0.  0.
         23    2    4    4    0    0 -0.85846683595E+03  0.40410466992E+03  0.19078204108E+02  0.95337505113E+03  0.91072046067E+02 0.  0.
         23    2    4    4    0    0 -0.10509259703E+03  0.43377485538E+03  0.76338195825E+02  0.46062295904E+03  0.84503911985E+02 0.  0.
          1    1    3    3  502    0  0.86516909099E+03 -0.75784693289E+03 -0.32507883946E+03  0.11952095137E+04  0.00000000000E+00 0. -1.
         -1    1    3    3    0  502  0.98390341988E+02 -0.80032592405E+02 -0.68104162912E+02  0.14395850878E+03  0.00000000000E+00 0.  1.
         13    1    5    5    0    0 -0.30408383780E+03  0.11152531237E+03 -0.25817543524E+02  0.32491756072E+03  0.00000000000E+00 0. -1.
        -13    1    5    5    0    0 -0.55438299815E+03  0.29257935755E+03  0.44895747632E+02  0.62845749041E+03  0.00000000000E+00 0.  1.
          2    1    6    6  503    0  0.14032938118E+02  0.67379651119E+02  0.72941566913E+01  0.69210876739E+02  0.00000000000E+00 0. -1.
         -2    1    6    6    0  503 -0.11912553515E+03  0.36639520426E+03  0.69044039134E+02  0.39141208230E+03  0.00000000000E+00 0.  1.
<mgrwt>
<rscale>  0 0.13409119E+04</rscale>
<asrwt>0</asrwt>
<pdfrwt beam="1">  1        2 0.23468713E+00 0.13409119E+04</pdfrwt>
<pdfrwt beam="2">  1       -2 0.18887688E+00 0.13409119E+04</pdfrwt>
<totfact> 0.18526309E+00</totfact>
</mgrwt>
</event>
<event>
12    1  0.1444206E-007  0.2182826E+04  0.7818608E-02  0.8525610E-01
         -2   -1    0    0    0  501 -0.00000000000E+00  0.00000000000E+00  0.29289823884E+04  0.29289823884E+04  0.00000000000E+00 0.  1.
          2   -1    0    0  501    0  0.00000000000E+00 -0.00000000000E+00 -0.16317047257E+04  0.16317047257E+04  0.00000000000E+00 0. -1.
         23    2    1    2    0    0  0.72521701630E+03  0.20172403995E+04  0.59698840187E+03  0.22270848986E+04  0.91178085938E+02 0.  0.
    5000000    2    1    2    0    0 -0.72521701630E+03 -0.20172403995E+04  0.70028926079E+03  0.23336022155E+04  0.60007974562E+03 0.  0.
         23    2    4    4    0    0 -0.66119342051E+03 -0.99974998960E+03  0.40337336407E+03  0.12678818577E+04  0.90208388034E+02 0.  0.
         23    2    4    4    0    0 -0.64023595787E+02 -0.10174904099E+04  0.29691589672E+03  0.10657203578E+04  0.90637056972E+02 0.  0.
          4    1    3    3  502    0  0.11353829421E+03  0.29018072911E+03  0.11927409632E+03  0.33364968134E+03  0.00000000000E+00 0. -1.
         -4    1    3    3    0  502  0.61167872209E+03  0.17270596704E+04  0.47771430554E+03  0.18934352173E+04  0.00000000000E+00 0.  1.
         13    1    5    5    0    0 -0.16095319583E+03 -0.21001859968E+03  0.55083411840E+02  0.27027379769E+03  0.00000000000E+00 0. -1.
        -13    1    5    5    0    0 -0.50024022468E+03 -0.78973138992E+03  0.34828995223E+03  0.99760806003E+03  0.00000000000E+00 0.  1.
          1    1    6    6  503    0  0.16047436018E+02 -0.31245144511E+03  0.11363405268E+03  0.33286051686E+03  0.00000000000E+00 0. -1.
         -1    1    6    6    0  503 -0.80071031805E+02 -0.70503896483E+03  0.18328184403E+03  0.73285984090E+03  0.00000000000E+00 0.  1.
<mgrwt>
<rscale>  0 0.21828265E+04</rscale>
<asrwt>0</asrwt>
<pdfrwt beam="1">  1        2 0.25103150E+00 0.21828265E+04</pdfrwt>
<pdfrwt beam="2">  1       -2 0.45061267E+00 0.21828265E+04</pdfrwt>
<totfact> 0.32132349E-02</totfact>
</mgrwt>
</event>
<event>
12    1  0.1444206E-007  0.1714076E+04  0.7818608E-02  0.8753377E-01
          2   -1    0    0  501    0  0.00000000000E+00  0.00000000000E+00  0.19093753908E+04  0.19093753908E+04  0.00000000000E+00 0. -1.
         -2   -1    0    0    0  501 -0.00000000000E+00 -0.00000000000E+00 -0.16073807178E+04  0.16073807178E+04  0.00000000000E+00 0.  1.
         23    2    1    2    0    0  0.92424601194E+03 -0.14113638331E+04 -0.56060245219E+02  0.16906269882E+04  0.94330813284E+02 0.  0.
    5000000    2    1    2    0    0 -0.92424601194E+03  0.14113638331E+04  0.35805491821E+03  0.18261291204E+04  0.60030465599E+03 0.  0.
         23    2    4    4    0    0 -0.98234257389E+02  0.48845496086E+03  0.28424237405E+03  0.58193253296E+03  0.98048598165E+02 0.  0.
         23    2    4    4    0    0 -0.82601175455E+03  0.92290887223E+03  0.73812544159E+02  0.12441965874E+04  0.92307374780E+02 0.  0.
          4    1    3    3  502    0  0.74124457449E+03 -0.11802595814E+04 -0.70353395384E+02  0.13954948223E+04  0.00000000000E+00 0. -1.
         -4    1    3    3    0  502  0.18300143744E+03 -0.23110425167E+03  0.14293150165E+02  0.29513216596E+03  0.00000000000E+00 0.  1.
         13    1    5    5    0    0 -0.68597299530E+02  0.40070919457E+03  0.18648584024E+03  0.44726995956E+03  0.00000000000E+00 0.  1.
        -13    1    5    5    0    0 -0.29636957859E+02  0.87745766291E+02  0.97756533809E+02  0.13466257340E+03  0.00000000000E+00 0. -1.
          2    1    6    6  503    0 -0.61052136008E+03  0.63520469467E+03  0.80247907490E+02  0.88468133353E+03  0.00000000000E+00 0. -1.
         -2    1    6    6    0  503 -0.21549039447E+03  0.28770417756E+03 -0.64353633312E+01  0.35951525391E+03  0.00000000000E+00 0.  1.
<mgrwt>
<rscale>  0 0.17140761E+04</rscale>
<asrwt>0</asrwt>
<pdfrwt beam="1">  1        2 0.29375006E+00 0.17140761E+04</pdfrwt>
<pdfrwt beam="2">  1       -2 0.24728934E+00 0.17140761E+04</pdfrwt>
<totfact> 0.46003638E-01</totfact>
</mgrwt>
</event>
<event>
12    1  0.1444206E-007  0.6803591E+03  0.7818608E-02  0.9751423E-01
          2   -1    0    0  501    0  0.00000000000E+00  0.00000000000E+00  0.12530746119E+04  0.12530746119E+04  0.00000000000E+00 0. -1.
         -2   -1    0    0    0  501 -0.00000000000E+00 -0.00000000000E+00 -0.49757774468E+03  0.49757774468E+03  0.00000000000E+00 0.  1.
         23    2    1    2    0    0  0.54022779961E+03  0.12529615693E+03  0.74536910549E+03  0.93358081752E+03  0.91939311624E+02 0.  0.
    5000000    2    1    2    0    0 -0.54022779961E+03 -0.12529615693E+03  0.10127761746E+02  0.81707153906E+03  0.59996510396E+03 0.  0.
         23    2    4    4    0    0 -0.65001633383E+03 -0.79043395330E+02  0.38944467064E+02  0.66310352486E+03  0.97059366212E+02 0.  0.
         23    2    4    4    0    0  0.10978853422E+03 -0.46252761599E+02 -0.28816705318E+02  0.15396801420E+03  0.93182115717E+02 0.  0.
          1    1    3    3  502    0  0.29851233423E+03  0.34742231555E+02  0.34884648220E+03  0.46044598433E+03  0.00000000000E+00 0. -1.
         -1    1    3    3    0  502  0.24171546538E+03  0.90553925374E+02  0.39652262328E+03  0.47313483319E+03  0.00000000000E+00 0.  1.
         11    1    5    5    0    0 -0.47118708306E+03 -0.10059756134E+03  0.31121893410E+02  0.48281022031E+03  0.00000000000E+00 0.  1.
        -11    1    5    5    0    0 -0.17882925078E+03  0.21554166014E+02  0.78225736537E+01  0.18029330455E+03  0.00000000000E+00 0. -1.
          2    1    6    6  503    0  0.91897432440E+02 -0.14624514158E+01 -0.45986387660E+02  0.10277171159E+03  0.00000000000E+00 0. -1.
         -2    1    6    6    0  503  0.17891101782E+02 -0.44790310183E+02  0.17169682342E+02  0.51196302611E+02  0.00000000000E+00 0.  1.
<mgrwt>
<rscale>  0 0.68035909E+03</rscale>
<asrwt>0</asrwt>
<pdfrwt beam="1">  1        2 0.19278071E+00 0.68035909E+03</pdfrwt>
<pdfrwt beam="2">  1       -2 0.76550423E-01 0.68035909E+03</pdfrwt>
<totfact> 0.27616605E+01</totfact>
</mgrwt>
</event>
<event>
12    1  0.1444206E-007  0.7421244E+03  0.7818608E-02  0.9647788E-01
         -2   -1    0    0    0  501 -0.00000000000E+00  0.00000000000E+00  0.90936769950E+03  0.90936769950E+03  0.00000000000E+00 0.  1.
          2   -1    0    0  501    0  0.00000000000E+00 -0.00000000000E+00 -0.11042405055E+04  0.11042405055E+04  0.00000000000E+00 0. -1.
         23    2    1    2    0    0 -0.61267826563E+03 -0.37769844507E+03 -0.64786718578E+03  0.97269917379E+03  0.91547909305E+02 0.  0.
    5000000    2    1    2    0    0  0.61267826563E+03  0.37769844507E+03  0.45299437976E+03  0.10409090312E+04  0.60021407068E+03 0.  0.
         23    2    4    4    0    0  0.38354456605E+03  0.35990109765E+03  0.10150048151E+02  0.53401194137E+03  0.91817731518E+02 0.  0.
         23    2    4    4    0    0  0.22913369958E+03  0.17797347423E+02  0.44284433161E+03  0.50689708987E+03  0.89524073962E+02 0.  0.
          1    1    3    3  502    0 -0.12796731664E+03 -0.10450749463E+03 -0.10767695117E+03  0.19720998041E+03  0.00000000000E+00 0. -1.
         -1    1    3    3    0  502 -0.48471094899E+03 -0.27319095044E+03 -0.54019023461E+03  0.77548919337E+03  0.00000000000E+00 0.  1.
         13    1    5    5    0    0  0.22404580223E+03  0.24053557003E+03 -0.32373120867E+02  0.33030576880E+03  0.00000000000E+00 0. -1.
        -13    1    5    5    0    0  0.15949876381E+03  0.11936552762E+03  0.42523169018E+02  0.20370617257E+03  0.00000000000E+00 0.  1.
          1    1    6    6  503    0  0.16843313325E+03  0.34091583986E+02  0.38443594783E+03  0.42109732184E+03  0.00000000000E+00 0. -1.
         -1    1    6    6    0  503  0.60700566334E+02 -0.16294236563E+02  0.58408383777E+02  0.85799768029E+02  0.00000000000E+00 0.  1.
<mgrwt>
<rscale>  0 0.74212442E+03</rscale>
<asrwt>0</asrwt>
<pdfrwt beam="1">  1        2 0.16988315E+00 0.74212442E+03</pdfrwt>
<pdfrwt beam="2">  1       -2 0.13990272E+00 0.74212442E+03</pdfrwt>
<totfact> 0.79494906E+00</totfact>
</mgrwt>
</event>
<event>
12    1  0.1444206E-007  0.2248120E+03  0.7818608E-02  0.1130346E+00
         -2   -1    0    0    0  501 -0.00000000000E+00  0.00000000000E+00  0.27193545277E+03  0.27193545277E+03  0.00000000000E+00 0. -1.
          2   -1    0    0  501    0  0.00000000000E+00 -0.00000000000E+00 -0.79625662781E+03  0.79625662781E+03  0.00000000000E+00 0.  1.
         23    2    1    2    0    0  0.18245150299E+03 -0.64509590337E+02  0.44004920863E+02  0.21936235037E+03  0.93452498683E+02 0.  0.
    5000000    2    1    2    0    0 -0.18245150299E+03  0.64509590337E+02 -0.56832609590E+03  0.84882973022E+03  0.60005609857E+03 0.  0.
         23    2    4    4    0    0 -0.85755036679E+02  0.19960087289E+02  0.10333260030E+03  0.16270038599E+03  0.89674176410E+02 0.  0.
         23    2    4    4    0    0 -0.96696466308E+02  0.44549503048E+02 -0.67165869620E+03  0.68612934423E+03  0.91176795387E+02 0.  0.
          3    1    3    3  502    0  0.38446106320E+02 -0.12411120991E+02  0.52195256300E+02  0.66003665017E+02  0.00000000000E+00 0. -1.
         -3    1    3    3    0  502  0.14400539667E+03 -0.52098469346E+02 -0.81903354366E+01  0.15335868535E+03  0.00000000000E+00 0.  1.
         13    1    5    5    0    0  0.74005293487E+01  0.23678733324E+02  0.48668215169E+02  0.54626416817E+02  0.00000000000E+00 0. -1.
        -13    1    5    5    0    0 -0.93155566028E+02 -0.37186460353E+01  0.54664385131E+02  0.10807396917E+03  0.00000000000E+00 0.  1.
          1    1    6    6  503    0 -0.16767659637E+02 -0.26330873953E+02 -0.20752801266E+03  0.20986268218E+03  0.00000000000E+00 0. -1.
         -1    1    6    6    0  503 -0.79928806671E+02  0.70880377001E+02 -0.46413068354E+03  0.47626666205E+03  0.00000000000E+00 0.  1.
<mgrwt>
<rscale>  0 0.22481202E+03</rscale>
<asrwt>0</asrwt>
<pdfrwt beam="1">  1        2 0.12250102E+00 0.22481202E+03</pdfrwt>
<pdfrwt beam="2">  1       -2 0.41836224E-01 0.22481202E+03</pdfrwt>
<totfact> 0.19821981E+02</totfact>
</mgrwt>
</event>
<event>
12    1  0.1444206E-007  0.1129286E+04  0.7818608E-02  0.9177108E-01
         -2   -1    0    0    0  501 -0.00000000000E+00  0.00000000000E+00  0.56623975467E+03  0.56623975467E+03  0.00000000000E+00 0. -1.
          2   -1    0    0  501    0  0.00000000000E+00 -0.00000000000E+00 -0.25531225657E+04  0.25531225657E+04  0.00000000000E+00 0.  1.
         23    2    1    2    0    0 -0.49057366348E+03 -0.94959727874E+03 -0.47636174913E+03  0.11740989331E+04  0.95865936028E+02 0.  0.
    5000000    2    1    2    0    0  0.49057366348E+03  0.94959727874E+03 -0.15105210619E+04  0.19452633872E+04  0.59998187988E+03 0.  0.
         23    2    4    4    0    0  0.49855547121E+03  0.99843485894E+03 -0.13503396279E+04  0.17541968053E+04  0.91430823678E+02 0.  0.
         23    2    4    4    0    0 -0.79818077360E+01 -0.48837580195E+02 -0.16018143398E+03  0.19106658195E+03  0.91648941367E+02 0.  0.
          1    1    3    3  502    0 -0.33770377372E+03 -0.55489201372E+03 -0.27552655129E+03  0.70559468971E+03  0.00000000000E+00 0. -1.
         -1    1    3    3    0  502 -0.15286988975E+03 -0.39470526502E+03 -0.20083519784E+03  0.46850424344E+03  0.00000000000E+00 0.  1.
         11    1    5    5    0    0  0.35764177953E+03  0.65493916353E+03 -0.84872646291E+03  0.11301281163E+04  0.00000000000E+00 0. -1.
        -11    1    5    5    0    0  0.14091369168E+03  0.34349569541E+03 -0.50161316503E+03  0.62406868901E+03  0.00000000000E+00 0.  1.
          3    1    6    6  503    0 -0.10988685581E+02  0.65221313078E+01  0.72519738440E+01  0.14692873518E+02  0.00000000000E+00 0. -1.
         -3    1    6    6    0  503  0.30068778449E+01 -0.55359711503E+02 -0.16743340782E+03  0.17637370843E+03  0.00000000000E+00 0.  1.
<mgrwt>
<rscale>  0 0.11292862E+04</rscale>
<asrwt>0</asrwt>
<pdfrwt beam="1">  1        2 0.39278809E+00 0.11292862E+04</pdfrwt>
<pdfrwt beam="2">  1       -2 0.87113807E-01 0.11292862E+04</pdfrwt>
<totfact> 0.36709525E+00</totfact>
</mgrwt>
</event>
<event>
12    1  0.1444206E-007  0.2557032E+03  0.7818608E-02  0.1109753E+00
          1   -1    0    0  501    0  0.00000000000E+00  0.00000000000E+00  0.15686119771E+04  0.15686119771E+04  0.00000000000E+00 0. -1.
         -1   -1    0    0    0  501 -0.00000000000E+00 -0.00000000000E+00 -0.13864566633E+03  0.13864566633E+03  0.00000000000E+00 0.  1.
         23    2    1    2    0    0 -0.18893880455E+03  0.10837474660E+03  0.69430947246E+03  0.73337621486E+03  0.91280180803E+02 0.  0.
    5000000    2    1    2    0    0  0.18893880455E+03 -0.10837474660E+03  0.73565683834E+03  0.97388142860E+03  0.59984255902E+03 0.  0.
         23    2    4    4    0    0  0.63189748523E+02 -0.28887708562E+01  0.77417741626E+03  0.78213007776E+03  0.91517743534E+02 0.  0.
         23    2    4    4    0    0  0.12574905602E+03 -0.10548597575E+03 -0.38520577920E+02  0.19175135083E+03  0.91348943362E+02 0.  0.
          4    1    3    3  502    0 -0.10910374088E+03  0.10148083976E+03  0.36042410824E+03  0.39000964720E+03  0.00000000000E+00 0.  1.
         -4    1    3    3    0  502 -0.79835063669E+02  0.68939068457E+01  0.33388536422E+03  0.34336656765E+03  0.00000000000E+00 0. -1.
         11    1    5    5    0    0 -0.14356391141E+01 -0.36024906467E+02  0.34174076069E+03  0.34363731238E+03  0.00000000000E+00 0.  1.
        -11    1    5    5    0    0  0.64625387637E+02  0.33136135610E+02  0.43243665557E+03  0.43849276538E+03  0.00000000000E+00 0. -1.
          3    1    6    6  503    0  0.13090751340E+03 -0.10595288313E+03 -0.16601758014E+02  0.16922886538E+03  0.00000000000E+00 0. -1.
         -3    1    6    6    0  503 -0.51584573797E+01  0.46690737861E+00 -0.21918819906E+02  0.22522485456E+02  0.00000000000E+00 0.  1.
<mgrwt>
<rscale>  0 0.25570322E+03</rscale>
<asrwt>0</asrwt>
<pdfrwt beam="1">  1        1 0.24132491E+00 0.25570322E+03</pdfrwt>
<pdfrwt beam="2">  1       -1 0.21330104E-01 0.25570322E+03</pdfrwt>
<totfact> 0.11838176E+02</totfact>
</mgrwt>
</event>
<event>
12    1  0.1444206E-007  0.8824419E+03  0.7818608E-02  0.9447800E-01
         -1   -1    0    0    0  501 -0.00000000000E+00  0.00000000000E+00  0.50458256977E+03  0.50458256977E+03  0.00000000000E+00 0.  1.
          1   -1    0    0  501    0  0.00000000000E+00 -0.00000000000E+00 -0.26365304330E+04  0.26365304330E+04  0.00000000000E+00 0. -1.
         23    2    1    2    0    0  0.74012254967E+03 -0.27284351361E+03 -0.19863321384E+04  0.21392259774E+04  0.92452403830E+02 0.  0.
    5000000    2    1    2    0    0 -0.74012254967E+03  0.27284351361E+03 -0.14561572488E+03  0.10018870254E+04  0.60029051372E+03 0.  0.
         23    2    4    4    0    0 -0.18815826046E+03  0.36457984241E+03 -0.11032080020E+03  0.43390076484E+03  0.88188447622E+02 0.  0.
         23    2    4    4    0    0 -0.55196428921E+03 -0.91736328805E+02 -0.35294924678E+02  0.56798626056E+03  0.91008405603E+02 0.  0.
          1    1    3    3  502    0  0.41113264060E+03 -0.12431103664E+03 -0.97531628279E+03  0.10657040553E+04  0.00000000000E+00 0. -1.
         -1    1    3    3    0  502  0.32898990907E+03 -0.14853247697E+03 -0.10110158556E+04  0.10735219221E+04  0.00000000000E+00 0.  1.
         13    1    5    5    0    0 -0.75068544557E+02  0.20384985117E+03 -0.93992422224E+02  0.23669521254E+03  0.00000000000E+00 0. -1.
        -13    1    5    5    0    0 -0.11308971591E+03  0.16072999124E+03 -0.16328377975E+02  0.19720555230E+03  0.00000000000E+00 0.  1.
          1    1    6    6  503    0 -0.94101769728E+02 -0.29201179059E+02 -0.38711128676E+02  0.10586030138E+03  0.00000000000E+00 0. -1.
         -1    1    6    6    0  503 -0.45786251948E+03 -0.62535149747E+02  0.34162039979E+01  0.46212595918E+03  0.00000000000E+00 0.  1.
<mgrwt>
<rscale>  0 0.88244189E+03</rscale>
<asrwt>0</asrwt>
<pdfrwt beam="1">  1        1 0.40562005E+00 0.88244189E+03</pdfrwt>
<pdfrwt beam="2">  1       -1 0.77628090E-01 0.88244189E+03</pdfrwt>
<totfact> 0.18825014E+00</totfact>
</mgrwt>
</event>
<event>
12    1  0.1444206E-007  0.5359469E+03  0.7818608E-02  0.1004800E+00
         -1   -1    0    0    0  501 -0.00000000000E+00  0.00000000000E+00  0.21670389502E+03  0.21670389502E+03  0.00000000000E+00 0.  1.
          1   -1    0    0  501    0  0.00000000000E+00 -0.00000000000E+00 -0.13784719245E+04  0.13784719245E+04  0.00000000000E+00 0. -1.
         23    2    1    2    0    0  0.51867397568E+01  0.36760234951E+03 -0.45734966552E+03  0.59957715549E+03  0.12314893096E+03 0.  0.
    5000000    2    1    2    0    0 -0.51867397568E+01 -0.36760234951E+03 -0.70441836391E+03  0.99559866399E+03  0.59987755308E+03 0.  0.
         23    2    4    4    0    0  0.27788289949E+03 -0.24361339097E+03 -0.38245931098E+03  0.53940276530E+03  0.90076792632E+02 0.  0.
         23    2    4    4    0    0 -0.28306963925E+03 -0.12398895854E+03 -0.32195905293E+03  0.45619589869E+03  0.94632889177E+02 0.  0.
          1    1    3    3  502    0 -0.27941935705E+02  0.27656694952E+03 -0.26422351175E+03  0.38351544102E+03  0.00000000000E+00 0. -1.
         -1    1    3    3    0  502  0.33128675462E+02  0.91035399991E+02 -0.19312615377E+03  0.21606171447E+03  0.00000000000E+00 0.  1.
         13    1    5    5    0    0  0.19316535945E+03 -0.12425074427E+03 -0.27218960322E+03  0.35614362783E+03  0.00000000000E+00 0. -1.
        -13    1    5    5    0    0  0.84717540036E+02 -0.11936264669E+03 -0.11026970776E+03  0.18325913747E+03  0.00000000000E+00 0.  1.
          1    1    6    6  503    0 -0.14620906787E+03 -0.16830101010E+02 -0.17429029797E+03  0.22811718873E+03  0.00000000000E+00 0. -1.
         -1    1    6    6    0  503 -0.13686057138E+03 -0.10715885753E+03 -0.14766875495E+03  0.22807870996E+03  0.00000000000E+00 0.  1.
<mgrwt>
<rscale>  0 0.53594693E+03</rscale>
<asrwt>0</asrwt>
<pdfrwt beam="1">  1        1 0.21207260E+00 0.53594693E+03</pdfrwt>
<pdfrwt beam="2">  1       -1 0.33339061E-01 0.53594693E+03</pdfrwt>
<totfact> 0.70722774E+01</totfact>
</mgrwt>
</event>
<event>
12    1  0.1444206E-007  0.8288932E+03  0.7818608E-02  0.9519112E-01
          2   -1    0    0  501    0  0.00000000000E+00  0.00000000000E+00  0.37497402704E+03  0.37497402704E+03  0.00000000000E+00 0. -1.
         -2   -1    0    0    0  501 -0.00000000000E+00 -0.00000000000E+00 -0.20813345348E+04  0.20813345348E+04  0.00000000000E+00 0.  1.
         23    2    1    2    0    0 -0.77489306122E+03  0.70861691165E+02 -0.79720727491E+03  0.11174867875E+04  0.88071819712E+02 0.  0.
    5000000    2    1    2    0    0  0.77489306122E+03 -0.70861691165E+02 -0.90915323286E+03  0.13388217744E+04  0.60033616174E+03 0.  0.
         23    2    4    4    0    0  0.47625466873E+02 -0.13618831087E+03 -0.62989051455E+00  0.17017931318E+03  0.90250544380E+02 0.  0.
         23    2    4    4    0    0  0.72726759434E+03  0.65326619702E+02 -0.90852334235E+03  0.11686424612E+04  0.84408633831E+02 0.  0.
          3    1    3    3  502    0 -0.11557978371E+03  0.28437357851E+02 -0.86578796048E+02  0.14718443413E+03  0.00000000000E+00 0. -1.
         -3    1    3    3    0  502 -0.65931327750E+03  0.42424333314E+02 -0.71062847886E+03  0.97030235335E+03  0.00000000000E+00 0.  1.
         13    1    5    5    0    0  0.16290749653E+02 -0.16034731695E+02  0.34271750486E+02  0.41195315586E+02  0.00000000000E+00 0.  1.
        -13    1    5    5    0    0  0.31334717219E+02 -0.12015357917E+03 -0.34901641001E+02  0.12898399759E+03  0.00000000000E+00 0. -1.
          1    1    6    6  503    0  0.40576572680E+03  0.18796652009E+02 -0.56480693547E+03  0.69570540714E+03  0.00000000000E+00 0. -1.
         -1    1    6    6    0  503  0.32150186755E+03  0.46529967693E+02 -0.34371640688E+03  0.47293705405E+03  0.00000000000E+00 0.  1.
<mgrwt>
<rscale>  0 0.82889322E+03</rscale>
<asrwt>0</asrwt>
<pdfrwt beam="1">  1        2 0.57688313E-01 0.82889322E+03</pdfrwt>
<pdfrwt beam="2">  1       -2 0.32020531E+00 0.82889322E+03</pdfrwt>
<totfact> 0.21106185E+00</totfact>
</mgrwt>
</event>
<event>
12    1  0.1444206E-007  0.7630922E+03  0.7818608E-02  0.9615032E-01
          2   -1    0    0  501    0  0.00000000000E+00  0.00000000000E+00  0.92074255491E+03  0.92074255491E+03  0.00000000000E+00 0.  1.
         -2   -1    0    0    0  501 -0.00000000000E+00 -0.00000000000E+00 -0.71881360847E+03  0.71881360847E+03  0.00000000000E+00 0. -1.
         23    2    1    2    0    0  0.60091151504E+03 -0.35846475603E+03  0.91843070359E+02  0.71114724351E+03  0.87770280550E+02 0.  0.
    5000000    2    1    2    0    0 -0.60091151504E+03  0.35846475603E+03  0.11008587608E+03  0.92840891988E+03  0.60019379552E+03 0.  0.
         23    2    4    4    0    0 -0.43106191345E+03  0.44215108790E+03  0.25366770501E+03  0.67349064224E+03  0.89052697094E+02 0.  0.
         23    2    4    4    0    0 -0.16984960159E+03 -0.83686331872E+02 -0.14358182893E+03  0.25491827764E+03  0.92278368937E+02 0.  0.
          4    1    3    3  502    0  0.16606921574E+03 -0.86005895014E+02 -0.12730308242E+02  0.18745148477E+03  0.00000000000E+00 0. -1.
         -4    1    3    3    0  502  0.43484229930E+03 -0.27245886101E+03  0.10457337860E+03  0.52369575873E+03  0.00000000000E+00 0.  1.
         11    1    5    5    0    0 -0.16975921702E+03  0.15826275305E+03  0.50854639153E+02  0.23759521268E+03  0.00000000000E+00 0. -1.
        -11    1    5    5    0    0 -0.26130269643E+03  0.28388833485E+03  0.20281306586E+03  0.43589542956E+03  0.00000000000E+00 0.  1.
          4    1    6    6  503    0 -0.16531472756E+03 -0.48037289173E+02 -0.10258246843E+03  0.20039886010E+03  0.00000000000E+00 0. -1.
         -4    1    6    6    0  503 -0.45348740324E+01 -0.35649042699E+02 -0.40999360504E+02  0.54519417546E+02  0.00000000000E+00 0.  1.
<mgrwt>
<rscale>  0 0.76309219E+03</rscale>
<asrwt>0</asrwt>
<pdfrwt beam="1">  1        2 0.14165270E+00 0.76309219E+03</pdfrwt>
<pdfrwt beam="2">  1       -2 0.11058671E+00 0.76309219E+03</pdfrwt>
<totfact> 0.18680736E+01</totfact>
</mgrwt>
</event>
<event>
12    1  0.1444206E-007  0.6825788E+03  0.7818608E-02  0.9747497E-01
         -1   -1    0    0    0  501 -0.00000000000E+00  0.00000000000E+00  0.22747826848E+03  0.22747826848E+03  0.00000000000E+00 0.  1.
          1   -1    0    0  501    0  0.00000000000E+00 -0.00000000000E+00 -0.20824536490E+04  0.20824536490E+04  0.00000000000E+00 0. -1.
         23    2    1    2    0    0  0.15796798598E+03  0.53002358611E+03 -0.72287264102E+03  0.91441247267E+03  0.87900105909E+02 0.  0.
    5000000    2    1    2    0    0 -0.15796798598E+03 -0.53002358611E+03 -0.11321027395E+04  0.13955194448E+04  0.59994918250E+03 0.  0.
         23    2    4    4    0    0 -0.37322404917E+03 -0.36763543695E+03 -0.73290785687E+03  0.90551766153E+03  0.91412818020E+02 0.  0.
         23    2    4    4    0    0  0.21525606319E+03 -0.16238814915E+03 -0.39919488260E+03  0.49000178323E+03  0.89666657972E+02 0.  0.
          4    1    3    3  502    0  0.10985922627E+03  0.26636709992E+03 -0.42790476045E+03  0.51587107453E+03  0.00000000000E+00 0.  1.
         -4    1    3    3    0  502  0.48108759713E+02  0.26365648618E+03 -0.29496788057E+03  0.39854139815E+03  0.00000000000E+00 0. -1.
         11    1    5    5    0    0 -0.13018679431E+03 -0.15002431581E+03 -0.35045273954E+03  0.40283125425E+03  0.00000000000E+00 0.  1.
        -11    1    5    5    0    0 -0.24303725486E+03 -0.21761112114E+03 -0.38245511732E+03  0.50268640728E+03  0.00000000000E+00 0. -1.
          2    1    6    6  503    0  0.15952277563E+03 -0.16347747886E+03 -0.32114960727E+03  0.39409322792E+03  0.00000000000E+00 0. -1.
         -2    1    6    6    0  503  0.55733287562E+02  0.10893297094E+01 -0.78045275327E+02  0.95908555314E+02  0.00000000000E+00 0.  1.
<mgrwt>
<rscale>  0 0.68257882E+03</rscale>
<asrwt>0</asrwt>
<pdfrwt beam="1">  1        1 0.32037748E+00 0.68257882E+03</pdfrwt>
<pdfrwt beam="2">  1       -1 0.34996657E-01 0.68257882E+03</pdfrwt>
<totfact> 0.21382856E+01</totfact>
</mgrwt>
</event>
<event>
12    1  0.1444206E-007  0.5809158E+03  0.7818608E-02  0.9945810E-01
          2   -1    0    0  501    0  0.00000000000E+00  0.00000000000E+00  0.28599680969E+04  0.28599680969E+04  0.00000000000E+00 0. -1.
         -2   -1    0    0    0  501 -0.00000000000E+00 -0.00000000000E+00 -0.22860078832E+03  0.22860078832E+03  0.00000000000E+00 0.  1.
         23    2    1    2    0    0  0.16231836540E+03 -0.44139219944E+03  0.16464776013E+03  0.50674200367E+03  0.92218479154E+02 0.  0.
    5000000    2    1    2    0    0 -0.16231836540E+03  0.44139219944E+03  0.24667195485E+04  0.25818268816E+04  0.59995865696E+03 0.  0.
         23    2    4    4    0    0  0.89840375587E+02 -0.58536166656E+02  0.98880385083E+03  0.99871712487E+03  0.90581809475E+02 0.  0.
         23    2    4    4    0    0 -0.25215874098E+03  0.49992836610E+03  0.14779156977E+04  0.15831097567E+04  0.92137345832E+02 0.  0.
          3    1    3    3  502    0  0.90551737869E+02 -0.15432433181E+03  0.95694820768E+02  0.20291159489E+03  0.00000000000E+00 0. -1.
         -3    1    3    3    0  502  0.71766627527E+02 -0.28706786763E+03  0.68952939362E+02  0.30383040878E+03  0.00000000000E+00 0.  1.
         11    1    5    5    0    0  0.64159288677E+02 -0.20995239599E+01  0.71993525750E+03  0.72279153102E+03  0.00000000000E+00 0. -1.
        -11    1    5    5    0    0  0.25681086910E+02 -0.56436642696E+02  0.26886859333E+03  0.27592559385E+03  0.00000000000E+00 0.  1.
          4    1    6    6  503    0 -0.14138386376E+03  0.31423507145E+03  0.10218459944E+04  0.10783794848E+04  0.00000000000E+00 0. -1.
         -4    1    6    6    0  503 -0.11077487723E+03  0.18569329465E+03  0.45606970329E+03  0.50473027189E+03  0.00000000000E+00 0.  1.
<mgrwt>
<rscale>  0 0.58091581E+03</rscale>
<asrwt>0</asrwt>
<pdfrwt beam="1">  1        2 0.43999507E+00 0.58091581E+03</pdfrwt>
<pdfrwt beam="2">  1       -2 0.35169354E-01 0.58091581E+03</pdfrwt>
<totfact> 0.17593036E+01</totfact>
</mgrwt>
</event>
<event>
12    1  0.1444206E-007  0.7033746E+03  0.7818608E-02  0.9711479E-01
          2   -1    0    0  501    0  0.00000000000E+00  0.00000000000E+00  0.20463137550E+04  0.20463137550E+04  0.00000000000E+00 0. -1.
         -2   -1    0    0    0  501 -0.00000000000E+00 -0.00000000000E+00 -0.30126825707E+03  0.30126825707E+03  0.00000000000E+00 0.  1.
         23    2    1    2    0    0 -0.50465732504E+03  0.30454043038E+03  0.12144499427E+04  0.13529601656E+04  0.90491197796E+02 0.  0.
    5000000    2    1    2    0    0  0.50465732504E+03 -0.30454043038E+03  0.53059555529E+03  0.99462184654E+03  0.60026417923E+03 0.  0.
         23    2    4    4    0    0  0.61476010297E+03 -0.16893341478E+03  0.40175392445E+03  0.75903584730E+03  0.90888496688E+02 0.  0.
         23    2    4    4    0    0 -0.11010277793E+03 -0.13560701560E+03  0.12884163084E+03  0.23558599925E+03  0.91589916567E+02 0.  0.
          3    1    3    3  502    0 -0.36408489539E+03  0.19965743424E+03  0.93460680848E+03  0.10226977992E+04  0.00000000000E+00 0. -1.
         -3    1    3    3    0  502 -0.14057242965E+03  0.10488299614E+03  0.27984313421E+03  0.33026236634E+03  0.00000000000E+00 0.  1.
         11    1    5    5    0    0  0.54251343582E+03 -0.14123433678E+03  0.38442943579E+03  0.67974550902E+03  0.00000000000E+00 0.  1.
        -11    1    5    5    0    0  0.72246667151E+02 -0.27699077997E+02  0.17324488666E+02  0.79290338275E+02  0.00000000000E+00 0. -1.
          1    1    6    6  503    0 -0.60708655778E+02 -0.10100731613E+03  0.33054248166E+02  0.12239527001E+03  0.00000000000E+00 0. -1.
         -1    1    6    6    0  503 -0.49394122149E+02 -0.34599699468E+02  0.95787382675E+02  0.11319072924E+03  0.00000000000E+00 0.  1.
<mgrwt>
<rscale>  0 0.70337459E+03</rscale>
<asrwt>0</asrwt>
<pdfrwt beam="1">  1        2 0.31481749E+00 0.70337459E+03</pdfrwt>
<pdfrwt beam="2">  1       -2 0.46348964E-01 0.70337459E+03</pdfrwt>
<totfact> 0.28905594E+01</totfact>
</mgrwt>
</event>
<event>
12    1  0.1444206E-007  0.5047219E+03  0.7818608E-02  0.1012554E+00
         -1   -1    0    0    0  501 -0.00000000000E+00  0.00000000000E+00  0.55540204950E+03  0.55540204950E+03  0.00000000000E+00 0.  1.
          1   -1    0    0  501    0  0.00000000000E+00 -0.00000000000E+00 -0.48906284021E+03  0.48906284021E+03  0.00000000000E+00 0. -1.
         23    2    1    2    0    0  0.16521794462E+03  0.29762975857E+03  0.13617416553E+02  0.35267989929E+03  0.91198875660E+02 0.  0.
    5000000    2    1    2    0    0 -0.16521794462E+03 -0.29762975857E+03  0.52721792739E+02  0.69178499042E+03  0.59992203088E+03 0.  0.
         23    2    4    4    0    0 -0.36536615962E+03 -0.25488198819E+03 -0.22645018705E+02  0.45517815533E+03  0.90648208573E+02 0.  0.
         23    2    4    4    0    0  0.20014821501E+03 -0.42747770375E+02  0.75366811444E+02  0.23660683509E+03  0.91738532256E+02 0.  0.
          1    1    3    3  502    0  0.66288459709E+02  0.65786942794E+02 -0.27328011969E+02  0.97308283157E+02  0.00000000000E+00 0. -1.
         -1    1    3    3    0  502  0.98929484907E+02  0.23184281577E+03  0.40945428521E+02  0.25537161613E+03  0.00000000000E+00 0.  1.
         13    1    5    5    0    0 -0.62726049849E+02 -0.82844547747E+02  0.15153926662E+02  0.10501151325E+03  0.00000000000E+00 0.  1.
        -13    1    5    5    0    0 -0.30264010977E+03 -0.17203744044E+03 -0.37798945367E+02  0.35016664208E+03  0.00000000000E+00 0. -1.
          1    1    6    6  503    0  0.12680243752E+03  0.50193467518E+00  0.62835029874E+01  0.12695901902E+03  0.00000000000E+00 0. -1.
         -1    1    6    6    0  503  0.73345777484E+02 -0.43249705050E+02  0.69083308456E+02  0.10964781607E+03  0.00000000000E+00 0.  1.
<mgrwt>
<rscale>  0 0.50472194E+03</rscale>
<asrwt>0</asrwt>
<pdfrwt beam="1">  1        1 0.75240437E-01 0.50472194E+03</pdfrwt>
<pdfrwt beam="2">  1       -1 0.85446469E-01 0.50472194E+03</pdfrwt>
<totfact> 0.64574048E+01</totfact>
</mgrwt>
</event>
<event>
12    1  0.1444206E-007  0.6772912E+03  0.7818608E-02  0.9756875E-01
         -2   -1    0    0    0  501 -0.00000000000E+00  0.00000000000E+00  0.19662450030E+03  0.19662450030E+03  0.00000000000E+00 0.  1.
          2   -1    0    0  501    0  0.00000000000E+00 -0.00000000000E+00 -0.24037516709E+04  0.24037516709E+04  0.00000000000E+00 0. -1.
         23    2    1    2    0    0 -0.39791545072E+03 -0.37306430781E+03 -0.10625857300E+04  0.11976826639E+04  0.88553068940E+02 0.  0.
    5000000    2    1    2    0    0  0.39791545072E+03  0.37306430781E+03 -0.11445414406E+04  0.14026935074E+04  0.60005023342E+03 0.  0.
         23    2    4    4    0    0  0.28400578345E+03  0.52559411790E+03 -0.84959057639E+03  0.10425717607E+04  0.90792438943E+02 0.  0.
         23    2    4    4    0    0  0.11390966727E+03 -0.15252981008E+03 -0.29495086423E+03  0.36012174665E+03  0.80317525077E+02 0.  0.
          1    1    3    3  502    0 -0.10326039780E+03 -0.15402553404E+03 -0.35476511075E+03  0.40030595636E+03  0.00000000000E+00 0. -1.
         -1    1    3    3    0  502 -0.29465505292E+03 -0.21903877378E+03 -0.70782061925E+03  0.79737670751E+03  0.00000000000E+00 0.  1.
         11    1    5    5    0    0  0.17350664151E+03  0.39026449296E+03 -0.55870786435E+03  0.70325344421E+03  0.00000000000E+00 0. -1.
        -11    1    5    5    0    0  0.11049914194E+03  0.13532962494E+03 -0.29088271204E+03  0.33931831651E+03  0.00000000000E+00 0.  1.
          1    1    6    6  503    0  0.69760725294E+02 -0.13636456619E+03 -0.18264417096E+03  0.23837102779E+03  0.00000000000E+00 0. -1.
         -1    1    6    6    0  503  0.44148941973E+02 -0.16165243896E+02 -0.11230669327E+03  0.12175071885E+03  0.00000000000E+00 0.  1.
<mgrwt>
<rscale>  0 0.67729119E+03</rscale>
<asrwt>0</asrwt>
<pdfrwt beam="1">  1        2 0.36980792E+00 0.67729119E+03</pdfrwt>
<pdfrwt beam="2">  1       -2 0.30249926E-01 0.67729119E+03</pdfrwt>
<totfact> 0.41933166E+01</totfact>
</mgrwt>
</event>
<event>
12    1  0.1444206E-007  0.3338825E+03  0.7818608E-02  0.1069432E+00
         -2   -1    0    0    0  501 -0.00000000000E+00  0.00000000000E+00  0.47867152157E+02  0.47867152157E+02  0.00000000000E+00 0.  1.
          2   -1    0    0  501    0  0.00000000000E+00 -0.00000000000E+00 -0.31556488502E+04  0.31556488502E+04  0.00000000000E+00 0. -1.
         23    2    1    2    0    0 -0.37015282435E+01  0.10176690373E+03 -0.28562905543E+03  0.31648817560E+03  0.90612383180E+02 0.  0.
    5000000    2    1    2    0    0  0.37015282435E+01 -0.10176690373E+03 -0.28221526426E+04  0.28870278268E+04  0.60001160841E+03 0.  0.
         23    2    4    4    0    0  0.23005439249E+03 -0.16627049032E+03 -0.21127419610E+04  0.21340453115E+04  0.99498234564E+02 0.  0.
         23    2    4    4    0    0 -0.22635286425E+03  0.64503586594E+02 -0.70941068167E+03  0.75298251523E+03  0.91229497020E+02 0.  0.
          2    1    3    3  502    0 -0.32165627421E+02  0.16848869442E+02 -0.14720243753E+03  0.15161487264E+03  0.00000000000E+00 0. -1.
         -2    1    3    3    0  502  0.28464099177E+02  0.84918034287E+02 -0.13842661790E+03  0.16487330297E+03  0.00000000000E+00 0.  1.
         11    1    5    5    0    0 -0.88294058008E+01  0.10026210887E+01 -0.48806191873E+02  0.49608547862E+02  0.00000000000E+00 0. -1.
        -11    1    5    5    0    0  0.23888379829E+03 -0.16727311141E+03 -0.20639357691E+04  0.20844367637E+04  0.00000000000E+00 0.  1.
          4    1    6    6  503    0 -0.31888798826E+02 -0.95575441825E+01 -0.40357499089E+02  0.52316057517E+02  0.00000000000E+00 0. -1.
         -4    1    6    6    0  503 -0.19446406542E+03  0.74061130777E+02 -0.66905318259E+03  0.70066645771E+03  0.00000000000E+00 0.  1.
<mgrwt>
<rscale>  0 0.33388255E+03</rscale>
<asrwt>0</asrwt>
<pdfrwt beam="1">  1        2 0.48548449E+00 0.33388255E+03</pdfrwt>
<pdfrwt beam="2">  1       -2 0.73641764E-02 0.33388255E+03</pdfrwt>
<totfact> 0.17762424E+02</totfact>
</mgrwt>
</event>
<event>
12    1  0.1444206E-007  0.2020003E+04  0.7818608E-02  0.8597325E-01
         -2   -1    0    0    0  501 -0.00000000000E+00  0.00000000000E+00  0.11390528365E+04  0.11390528365E+04  0.00000000000E+00 0.  1.
          2   -1    0    0  501    0  0.00000000000E+00 -0.00000000000E+00 -0.40663746095E+04  0.40663746095E+04  0.00000000000E+00 0. -1.
         23    2    1    2    0    0  0.19917707822E+04 -0.68686093936E+01 -0.59619144537E+03  0.20810739175E+04  0.90699414402E+02 0.  0.
    5000000    2    1    2    0    0 -0.19917707822E+04  0.68686093936E+01 -0.23311303277E+04  0.31243535285E+04  0.60018192227E+03 0.  0.
         23    2    4    4    0    0 -0.79066601953E+02  0.10360389148E+03 -0.23496162483E+03  0.28364189289E+03  0.90887096914E+02 0.  0.
         23    2    4    4    0    0 -0.19127041802E+04 -0.96735282090E+02 -0.20961687029E+04  0.28407116356E+04  0.89018930337E+02 0.  0.
          4    1    3    3  502    0  0.12935687184E+04  0.33172614835E+02 -0.36466163295E+03  0.13443952388E+04  0.00000000000E+00 0. -1.
         -4    1    3    3    0  502  0.69820206384E+03 -0.40041224229E+02 -0.23152981241E+03  0.73667867868E+03  0.00000000000E+00 0.  1.
         13    1    5    5    0    0 -0.39893518443E+01  0.49853569403E+01  0.83906823568E+01  0.10543825794E+02  0.00000000000E+00 0.  1.
        -13    1    5    5    0    0 -0.75077250108E+02  0.98618534543E+02 -0.24335230719E+03  0.27309806710E+03  0.00000000000E+00 0. -1.
          3    1    6    6  503    0 -0.88507915701E+03 -0.11137600341E+02 -0.92529908412E+03  0.12804950431E+04  0.00000000000E+00 0. -1.
         -3    1    6    6    0  503 -0.10276250232E+04 -0.85597681749E+02 -0.11708696187E+04  0.15602165925E+04  0.00000000000E+00 0.  1.
<mgrwt>
<rscale>  0 0.20200029E+04</rscale>
<asrwt>0</asrwt>
<pdfrwt beam="1">  1        2 0.62559610E+00 0.20200029E+04</pdfrwt>
<pdfrwt beam="2">  1       -2 0.17523890E+00 0.20200029E+04</pdfrwt>
<totfact> 0.53101972E-02</totfact>
</mgrwt>
</event>
<event>
12    1  0.1444206E-007  0.6992097E+03  0.7818608E-02  0.9718585E-01
         -2   -1    0    0    0  501 -0.00000000000E+00  0.00000000000E+00  0.60537899188E+03  0.60537899188E+03  0.00000000000E+00 0.  1.
          2   -1    0    0  501    0  0.00000000000E+00 -0.00000000000E+00 -0.14373381769E+04  0.14373381769E+04  0.00000000000E+00 0. -1.
         23    2    1    2    0    0  0.18777311609E+03  0.54484587945E+03  0.28702592858E+03  0.64826395284E+03  0.75805629027E+02 0.  0.
    5000000    2    1    2    0    0 -0.18777311609E+03 -0.54484587945E+03 -0.11189851136E+04  0.13944532159E+04  0.60021355491E+03 0.  0.
         23    2    4    4    0    0  0.19114194299E+03 -0.30307260529E+03 -0.44147982880E+03  0.57589245760E+03  0.91429957001E+02 0.  0.
         23    2    4    4    0    0 -0.37891505908E+03 -0.24177327416E+03 -0.67750528479E+03  0.81856075833E+03  0.94854446712E+02 0.  0.
          3    1    3    3  502    0  0.17466355047E+03  0.46226470003E+03  0.21919178059E+03  0.54059323473E+03  0.00000000000E+00 0. -1.
         -3    1    3    3    0  502  0.13109565625E+02  0.82581179424E+02  0.67834147984E+02  0.10767071811E+03  0.00000000000E+00 0.  1.
         11    1    5    5    0    0  0.75406801024E+02 -0.18112336866E+03 -0.18802290247E+03  0.27174339398E+03  0.00000000000E+00 0. -1.
        -11    1    5    5    0    0  0.11573514196E+03 -0.12194923663E+03 -0.25345692633E+03  0.30414906362E+03  0.00000000000E+00 0.  1.
          4    1    6    6  503    0 -0.27826695907E+03 -0.13396414017E+03 -0.41282007239E+03  0.51555727473E+03  0.00000000000E+00 0.  1.
         -4    1    6    6    0  503 -0.10064810001E+03 -0.10780913399E+03 -0.26468521240E+03  0.30300348360E+03  0.00000000000E+00 0. -1.
<mgrwt>
<rscale>  0 0.69920974E+03</rscale>
<asrwt>0</asrwt>
<pdfrwt beam="1">  1        2 0.22112895E+00 0.69920974E+03</pdfrwt>
<pdfrwt beam="2">  1       -2 0.93135231E-01 0.69920974E+03</pdfrwt>
<totfact> 0.13853384E+01</totfact>
</mgrwt>
</event>
<event>
12    1  0.1444206E-007  0.1181291E+04  0.7818608E-02  0.9129392E-01
          2   -1    0    0  501    0  0.00000000000E+00  0.00000000000E+00  0.23592127693E+04  0.23592127693E+04  0.00000000000E+00 0. -1.
         -2   -1    0    0    0  501 -0.00000000000E+00 -0.00000000000E+00 -0.78275083110E+03  0.78275083110E+03  0.00000000000E+00 0.  1.
         23    2    1    2    0    0  0.11514355188E+04 -0.67619239484E+02  0.14211840788E+04  0.18325847008E+04  0.90699417175E+02 0.  0.
    5000000    2    1    2    0    0 -0.11514355188E+04  0.67619239484E+02  0.15527785941E+03  0.13093788996E+04  0.59998814451E+03 0.  0.
         23    2    4    4    0    0 -0.66968809024E+03 -0.12349322644E+03 -0.14666616385E+03  0.70269951470E+03  0.92427967387E+02 0.  0.
         23    2    4    4    0    0 -0.48174742857E+03  0.19111246592E+03  0.30194402327E+03  0.60667938490E+03  0.91022652701E+02 0.  0.
          4    1    3    3  502    0  0.56833412528E+03 -0.69147696128E+02  0.74837393744E+03  0.94225720060E+03  0.00000000000E+00 0. -1.
         -4    1    3    3    0  502  0.58310139353E+03  0.15284566438E+01  0.67281014138E+03  0.89032750023E+03  0.00000000000E+00 0.  1.
         13    1    5    5    0    0 -0.47505755587E+03 -0.45749596859E+02 -0.91056016555E+02  0.48586408094E+03  0.00000000000E+00 0. -1.
        -13    1    5    5    0    0 -0.19463053437E+03 -0.77743629578E+02 -0.55610147299E+02  0.21683543376E+03  0.00000000000E+00 0.  1.
          1    1    6    6  503    0 -0.29565282188E+03  0.94194035364E+02  0.22462840216E+03  0.38306791361E+03  0.00000000000E+00 0. -1.
         -1    1    6    6    0  503 -0.18609460670E+03  0.96918430557E+02  0.77315621108E+02  0.22361147129E+03  0.00000000000E+00 0.  1.
<mgrwt>
<rscale>  0 0.11812911E+04</rscale>
<asrwt>0</asrwt>
<pdfrwt beam="1">  1        2 0.36295581E+00 0.11812911E+04</pdfrwt>
<pdfrwt beam="2">  1       -2 0.12042321E+00 0.11812911E+04</pdfrwt>
<totfact> 0.21668646E+00</totfact>
</mgrwt>
</event>
<event>
12    1  0.1444206E-007  0.5809089E+03  0.7818608E-02  0.9945825E-01
         -1   -1    0    0    0  501 -0.00000000000E+00  0.00000000000E+00  0.51279771529E+03  0.51279771529E+03  0.00000000000E+00 0.  1.
          1   -1    0    0  501    0  0.00000000000E+00 -0.00000000000E+00 -0.94164806779E+03  0.94164806779E+03  0.00000000000E+00 0. -1.
         23    2    1    2    0    0  0.52332225526E+03  0.45145047625E+02  0.31763874582E+02  0.53350546967E+03  0.87834413919E+02 0.  0.
    5000000    2    1    2    0    0 -0.52332225526E+03 -0.45145047625E+02 -0.46061422709E+03  0.92094031341E+03  0.60005111156E+03 0.  0.
         23    2    4    4    0    0 -0.26142422225E+02 -0.11642443757E+03  0.84993882307E+02  0.17362670826E+03  0.93189043825E+02 0.  0.
         23    2    4    4    0    0 -0.49717983303E+03  0.71279389948E+02 -0.54560810940E+03  0.74731360514E+03  0.92308599733E+02 0.  0.
          4    1    3    3  502    0  0.74910920835E+02  0.20868892304E+02  0.32898174808E+02  0.84436050548E+02  0.00000000000E+00 0. -1.
         -4    1    3    3    0  502  0.44841133442E+03  0.24276155321E+02 -0.11343002258E+01  0.44906941912E+03  0.00000000000E+00 0.  1.
         13    1    5    5    0    0 -0.34805068284E+02 -0.82714263483E+02  0.91824147199E+01  0.90207310690E+02  0.00000000000E+00 0. -1.
        -13    1    5    5    0    0  0.86626460589E+01 -0.33710174090E+02  0.75811467587E+02  0.83419397575E+02  0.00000000000E+00 0.  1.
          4    1    6    6  503    0 -0.11421300873E+03  0.55919113502E+02 -0.14582320425E+03  0.19348376034E+03  0.00000000000E+00 0. -1.
         -4    1    6    6    0  503 -0.38296682430E+03  0.15360276446E+02 -0.39978490515E+03  0.55382984480E+03  0.00000000000E+00 0.  1.
<mgrwt>
<rscale>  0 0.58090890E+03</rscale>
<asrwt>0</asrwt>
<pdfrwt beam="1">  1        1 0.14486893E+00 0.58090890E+03</pdfrwt>
<pdfrwt beam="2">  1       -1 0.78891957E-01 0.58090890E+03</pdfrwt>
<totfact> 0.28377848E+01</totfact>
</mgrwt>
</event>
<event>
12    1  0.1444206E-007  0.9382590E+03  0.7818608E-02  0.9378980E-01
          2   -1    0    0  501    0  0.00000000000E+00  0.00000000000E+00  0.27795235472E+04  0.27795235472E+04  0.00000000000E+00 0. -1.
         -2   -1    0    0    0  501 -0.00000000000E+00 -0.00000000000E+00 -0.45187947438E+03  0.45187947438E+03  0.00000000000E+00 0.  1.
         23    2    1    2    0    0 -0.14014397379E+03  0.92105849778E+03  0.17428051358E+04  0.19783752665E+04  0.92789352888E+02 0.  0.
    5000000    2    1    2    0    0  0.14014397379E+03 -0.92105849778E+03  0.58483893696E+03  0.12530277550E+04  0.60004406751E+03 0.  0.
         23    2    4    4    0    0  0.15159816941E+03 -0.75473839981E+03  0.68840848146E+03  0.10367748622E+04  0.91563204236E+02 0.  0.
         23    2    4    4    0    0 -0.11454195626E+02 -0.16632009798E+03 -0.10356954450E+03  0.21625289285E+03  0.90802475352E+02 0.  0.
          4    1    3    3  502    0 -0.83326161312E+02  0.50040410235E+03  0.85162579960E+03  0.99126889256E+03  0.00000000000E+00 0.  1.
         -4    1    3    3    0  502 -0.56817812474E+02  0.42065439543E+03  0.89117933622E+03  0.98710637396E+03  0.00000000000E+00 0. -1.
         11    1    5    5    0    0  0.10038826137E+03 -0.55712094988E+03  0.45188476924E+03  0.72433514377E+03  0.00000000000E+00 0.  1.
        -11    1    5    5    0    0  0.51209908047E+02 -0.19761744992E+03  0.23652371222E+03  0.31243971841E+03  0.00000000000E+00 0. -1.
          4    1    6    6  503    0 -0.26919690447E+02 -0.46759709979E+02  0.47741708951E+01  0.54165791038E+02  0.00000000000E+00 0. -1.
         -4    1    6    6    0  503  0.15465494821E+02 -0.11956038800E+03 -0.10834371540E+03  0.16208710181E+03  0.00000000000E+00 0.  1.
<mgrwt>
<rscale>  0 0.93825905E+03</rscale>
<asrwt>0</asrwt>
<pdfrwt beam="1">  1        2 0.42761899E+00 0.93825905E+03</pdfrwt>
<pdfrwt beam="2">  1       -2 0.69519921E-01 0.93825905E+03</pdfrwt>
<totfact> 0.46065894E+00</totfact>
</mgrwt>
</event>
<event>
12    1  0.1444206E-007  0.5687898E+03  0.7818608E-02  0.9972360E-01
         -2   -1    0    0    0  501 -0.00000000000E+00  0.00000000000E+00  0.58805124462E+03  0.58805124462E+03  0.00000000000E+00 0.  1.
          2   -1    0    0  501    0  0.00000000000E+00 -0.00000000000E+00 -0.79855699970E+03  0.79855699970E+03  0.00000000000E+00 0. -1.
         23    2    1    2    0    0  0.22422501719E+03  0.46185902605E+03  0.11243523826E+03  0.53345901244E+03  0.91357631729E+02 0.  0.
    5000000    2    1    2    0    0 -0.22422501719E+03 -0.46185902605E+03 -0.32294099334E+03  0.85314923188E+03  0.59998509015E+03 0.  0.
         23    2    4    4    0    0 -0.98474800020E+02  0.49101613958E+01 -0.33458622572E+03  0.36104543085E+03  0.93190475752E+02 0.  0.
         23    2    4    4    0    0 -0.12575021717E+03 -0.46676918745E+03  0.11645232377E+02  0.49210380103E+03  0.91345213823E+02 0.  0.
          1    1    3    3  502    0  0.13888464655E+03  0.19135112962E+03  0.70486319504E+02  0.24672357222E+03  0.00000000000E+00 0. -1.
         -1    1    3    3    0  502  0.85340370641E+02  0.27050789643E+03  0.41948918752E+02  0.28673544022E+03  0.00000000000E+00 0.  1.
         13    1    5    5    0    0 -0.59829951226E+02 -0.39032142535E+02 -0.23415538304E+03  0.24480987444E+03  0.00000000000E+00 0. -1.
        -13    1    5    5    0    0 -0.38644848794E+02  0.43942303931E+02 -0.10043084267E+03  0.11623555641E+03  0.00000000000E+00 0.  1.
          3    1    6    6  503    0 -0.42663122714E+02 -0.27846708392E+03  0.39269306757E+02  0.28444004170E+03  0.00000000000E+00 0. -1.
         -3    1    6    6    0  503 -0.83087094455E+02 -0.18830210353E+03 -0.27624074380E+02  0.20766375934E+03  0.00000000000E+00 0.  1.
<mgrwt>
<rscale>  0 0.56878984E+03</rscale>
<asrwt>0</asrwt>
<pdfrwt beam="1">  1        2 0.12285492E+00 0.56878984E+03</pdfrwt>
<pdfrwt beam="2">  1       -2 0.90469423E-01 0.56878984E+03</pdfrwt>
<totfact> 0.37208978E+01</totfact>
</mgrwt>
</event>
<event>
12    1  0.1444206E-007  0.1153599E+04  0.7818608E-02  0.9154470E-01
         -1   -1    0    0    0  501 -0.00000000000E+00  0.00000000000E+00  0.18108728271E+04  0.18108728271E+04  0.00000000000E+00 0.  1.
          1   -1    0    0  501    0  0.00000000000E+00 -0.00000000000E+00 -0.79300310577E+03  0.79300310577E+03  0.00000000000E+00 0. -1.
         23    2    1    2    0    0  0.10397659194E+04  0.32723982022E+03  0.19858237694E+03  0.11143970765E+04  0.11936002933E+03 0.  0.
    5000000    2    1    2    0    0 -0.10397659194E+04 -0.32723982022E+03  0.81928734436E+03  0.14894788563E+04  0.59926325064E+03 0.  0.
         23    2    4    4    0    0  0.27611664808E+02 -0.78077394193E+02  0.82033312050E+01  0.12291977345E+03  0.90462658290E+02 0.  0.
         23    2    4    4    0    0 -0.10673775843E+04 -0.24916242603E+03  0.81108401316E+03  0.13665590829E+04  0.90827466211E+02 0.  0.
          2    1    3    3  502    0  0.45755380496E+03  0.82178107018E+02  0.84843600963E+02  0.47255387241E+03  0.00000000000E+00 0.  1.
         -2    1    3    3    0  502  0.58221211449E+03  0.24506171321E+03  0.11373877598E+03  0.64184320414E+03  0.00000000000E+00 0. -1.
         11    1    5    5    0    0  0.45124337727E+01  0.14669836328E+02 -0.18153220417E+02  0.23771949183E+02  0.00000000000E+00 0. -1.
        -11    1    5    5    0    0  0.23099231035E+02 -0.92747230521E+02  0.26356551622E+02  0.99147824268E+02  0.00000000000E+00 0.  1.
          3    1    6    6  503    0 -0.41208037847E+03 -0.51719267667E+02  0.29652018798E+03  0.51030318718E+03  0.00000000000E+00 0. -1.
         -3    1    6    6    0  503 -0.65529720578E+03 -0.19744315836E+03  0.51456382517E+03  0.85625589567E+03  0.00000000000E+00 0.  1.
<mgrwt>
<rscale>  0 0.11535992E+04</rscale>
<asrwt>0</asrwt>
<pdfrwt beam="1">  1        1 0.12200048E+00 0.11535992E+04</pdfrwt>
<pdfrwt beam="2">  1       -1 0.27859582E+00 0.11535992E+04</pdfrwt>
<totfact> 0.10099482E+00</totfact>
</mgrwt>
</event>
<event>
12    1  0.1444206E-007  0.9322421E+03  0.7818608E-02  0.9386151E-01
          2   -1    0    0  501    0  0.00000000000E+00  0.00000000000E+00  0.49824366335E+03  0.49824366335E+03  0.00000000000E+00 0.  1.
         -2   -1    0    0    0  501 -0.00000000000E+00 -0.00000000000E+00 -0.24047496442E+04  0.24047496442E+04  0.00000000000E+00 0. -1.
         23    2    1    2    0    0  0.91006871108E+03 -0.12357672519E+03 -0.14416288853E+04  0.17118752768E+04  0.93417635290E+02 0.  0.
    5000000    2    1    2    0    0 -0.91006871108E+03  0.12357672519E+03 -0.46487709551E+03  0.11911180307E+04  0.59929557249E+03 0.  0.
         23    2    4    4    0    0 -0.33634992645E+03  0.11866302280E+03 -0.48668112778E+03  0.60973314320E+03  0.87771292453E+02 0.  0.
         23    2    4    4    0    0 -0.57371878462E+03  0.49137023811E+01  0.21804032268E+02  0.58138488748E+03  0.91408879604E+02 0.  0.
          1    1    3    3  502    0  0.73455388423E+03 -0.62041613106E+02 -0.11520317490E+04  0.13676972331E+04  0.00000000000E+00 0. -1.
         -1    1    3    3    0  502  0.17551482684E+03 -0.61535112081E+02 -0.28959713627E+03  0.34417804374E+03  0.00000000000E+00 0.  1.
         11    1    5    5    0    0 -0.25022041442E+03  0.53233619918E+02 -0.30279942348E+03  0.39639824034E+03  0.00000000000E+00 0.  1.
        -11    1    5    5    0    0 -0.86129512028E+02  0.65429402887E+02 -0.18388170429E+03  0.21333490286E+03  0.00000000000E+00 0. -1.
          1    1    6    6  503    0 -0.27175169656E+03  0.34481549606E+02 -0.22068680013E+02  0.27481810072E+03  0.00000000000E+00 0. -1.
         -1    1    6    6    0  503 -0.30196708806E+03 -0.29567847225E+02  0.43872712281E+02  0.30656678676E+03  0.00000000000E+00 0.  1.
<mgrwt>
<rscale>  0 0.93224206E+03</rscale>
<asrwt>0</asrwt>
<pdfrwt beam="1">  1        2 0.76652873E-01 0.93224206E+03</pdfrwt>
<pdfrwt beam="2">  1       -2 0.36996147E+00 0.93224206E+03</pdfrwt>
<totfact> 0.73776163E-01</totfact>
</mgrwt>
</event>
<event>
12    1  0.1444206E-007  0.1887343E+04  0.7818608E-02  0.8661182E-01
          1   -1    0    0  501    0  0.00000000000E+00  0.00000000000E+00  0.16346567103E+04  0.16346567103E+04  0.00000000000E+00 0. -1.
         -1   -1    0    0    0  501 -0.00000000000E+00 -0.00000000000E+00 -0.23549702347E+04  0.23549702347E+04  0.00000000000E+00 0.  1.
         23    2    1    2    0    0  0.18555565943E+04 -0.71964280460E+02 -0.82789146480E+03  0.20351799036E+04  0.91015548349E+02 0.  0.
    5000000    2    1    2    0    0 -0.18555565943E+04  0.71964280460E+02  0.10757794040E+03  0.19544470415E+04  0.60001757670E+03 0.  0.
         23    2    4    4    0    0 -0.12268128803E+04 -0.16644368183E+03  0.23796132654E+03  0.12640375532E+04  0.91607862686E+02 0.  0.
         23    2    4    4    0    0 -0.62874371399E+03  0.23840796229E+03 -0.13038338614E+03  0.69040948826E+03  0.86651138042E+02 0.  0.
          4    1    3    3  502    0  0.36381281372E+03 -0.24095636913E+01 -0.12528555996E+03  0.38478830668E+03  0.00000000000E+00 0.  1.
         -4    1    3    3    0  502  0.14917437806E+04 -0.69554716769E+02 -0.70260590484E+03  0.16503915969E+04  0.00000000000E+00 0. -1.
         11    1    5    5    0    0 -0.36624891830E+03 -0.81772625842E+02  0.44053183949E+02  0.37784350664E+03  0.00000000000E+00 0.  1.
        -11    1    5    5    0    0 -0.86056396202E+03 -0.84671055984E+02  0.19390814259E+03  0.88619404659E+03  0.00000000000E+00 0. -1.
          4    1    6    6  503    0 -0.61004851827E+03  0.21340958745E+03 -0.12970632671E+03  0.65918629980E+03  0.00000000000E+00 0. -1.
         -4    1    6    6    0  503 -0.18695195724E+02  0.24998374838E+02 -0.67705942604E+00  0.31223188453E+02  0.00000000000E+00 0.  1.
<mgrwt>
<rscale>  0 0.18873432E+04</rscale>
<asrwt>0</asrwt>
<pdfrwt beam="1">  1        1 0.25148565E+00 0.18873432E+04</pdfrwt>
<pdfrwt beam="2">  1       -1 0.36230311E+00 0.18873432E+04</pdfrwt>
<totfact> 0.61449744E-02</totfact>
</mgrwt>
</event>
<event>
12    1  0.1444206E-007  0.1161986E+04  0.7818608E-02  0.9146797E-01
         -2   -1    0    0    0  501 -0.00000000000E+00  0.00000000000E+00  0.20363939214E+04  0.20363939214E+04  0.00000000000E+00 0. -1.
          2   -1    0    0  501    0  0.00000000000E+00 -0.00000000000E+00 -0.28088907798E+04  0.28088907798E+04  0.00000000000E+00 0.  1.
         23    2    1    2    0    0  0.22186045609E+03 -0.10956419534E+04  0.17172091288E+04  0.20509331184E+04  0.88691104045E+02 0.  0.
    5000000    2    1    2    0    0 -0.22186045609E+03  0.10956419534E+04 -0.24897059872E+04  0.27943515829E+04  0.60009292108E+03 0.  0.
         23    2    4    4    0    0  0.32475290081E+02 -0.18234842711E+02 -0.79419832613E+02  0.12542148529E+03  0.89643099044E+02 0.  0.
         23    2    4    4    0    0 -0.25433574617E+03  0.11138767961E+04 -0.24102861546E+04  0.26689300976E+04  0.91106147097E+02 0.  0.
          2    1    3    3  502    0  0.12823583217E+03 -0.68910805660E+03  0.99943307503E+03  0.12207296235E+04  0.00000000000E+00 0. -1.
         -2    1    3    3    0  502  0.93624623919E+02 -0.40653389681E+03  0.71777605376E+03  0.83020349482E+03  0.00000000000E+00 0.  1.
         11    1    5    5    0    0 -0.13353446170E+02 -0.89267755053E+01  0.13769515821E+02  0.21156592625E+02  0.00000000000E+00 0. -1.
        -11    1    5    5    0    0  0.45828736252E+02 -0.93080672054E+01 -0.93189348434E+02  0.10426489267E+03  0.00000000000E+00 0.  1.
          2    1    6    6  503    0 -0.24438750502E+03  0.10314539611E+04 -0.21779735721E+04  0.24222286034E+04  0.00000000000E+00 0. -1.
         -2    1    6    6    0  503 -0.99482411576E+01  0.82422835018E+02 -0.23231258251E+03  0.24670149418E+03  0.00000000000E+00 0.  1.
<mgrwt>
<rscale>  0 0.11619861E+04</rscale>
<asrwt>0</asrwt>
<pdfrwt beam="1">  1        2 0.43213705E+00 0.11619861E+04</pdfrwt>
<pdfrwt beam="2">  1       -2 0.31329137E+00 0.11619861E+04</pdfrwt>
<totfact> 0.59776539E-02</totfact>
</mgrwt>
</event>
<event>
12    1  0.1444206E-007  0.6784633E+03  0.7818608E-02  0.9754789E-01
         -2   -1    0    0    0  501 -0.00000000000E+00  0.00000000000E+00  0.12278794602E+04  0.12278794602E+04  0.00000000000E+00 0.  1.
          2   -1    0    0  501    0  0.00000000000E+00 -0.00000000000E+00 -0.11529852305E+04  0.11529852305E+04  0.00000000000E+00 0. -1.
         23    2    1    2    0    0 -0.68746937673E+02  0.55672715418E+03  0.99613188514E+03  0.11466407917E+04  0.88516139525E+02 0.  0.
    5000000    2    1    2    0    0  0.68746937673E+02 -0.55672715418E+03 -0.92123765547E+03  0.12342238990E+04  0.59996545688E+03 0.  0.
         23    2    4    4    0    0 -0.23766141946E+03 -0.30049151786E+03 -0.32486589210E+03  0.51061593277E+03  0.91720664738E+02 0.  0.
         23    2    4    4    0    0  0.30640835714E+03 -0.25623563632E+03 -0.59637176337E+03  0.72360796626E+03  0.91686564196E+02 0.  0.
          2    1    3    3  502    0  0.15864510316E+02  0.20764412803E+03  0.34363888669E+03  0.40181519513E+03  0.00000000000E+00 0. -1.
         -2    1    3    3    0  502 -0.84611447989E+02  0.34908302615E+03  0.65249299846E+03  0.74482559657E+03  0.00000000000E+00 0.  1.
         13    1    5    5    0    0 -0.20347533978E+03 -0.24499236985E+03 -0.30854082099E+03  0.44341956813E+03  0.00000000000E+00 0.  1.
        -13    1    5    5    0    0 -0.34186079679E+02 -0.55499148017E+02 -0.16325071115E+02  0.67196364643E+02  0.00000000000E+00 0. -1.
          1    1    6    6  503    0  0.22410408746E+03 -0.14298295276E+03 -0.43674319958E+03  0.51128405918E+03  0.00000000000E+00 0. -1.
         -1    1    6    6    0  503  0.82304269675E+02 -0.11325268356E+03 -0.15962856379E+03  0.21232390708E+03  0.00000000000E+00 0.  1.
<mgrwt>
<rscale>  0 0.67846330E+03</rscale>
<asrwt>0</asrwt>
<pdfrwt beam="1">  1        2 0.17738235E+00 0.67846330E+03</pdfrwt>
<pdfrwt beam="2">  1       -2 0.18890453E+00 0.67846330E+03</pdfrwt>
<totfact> 0.33039215E+00</totfact>
</mgrwt>
</event>
<event>
12    1  0.1444206E-007  0.9119718E+03  0.7818608E-02  0.9410739E-01
         -2   -1    0    0    0  501 -0.00000000000E+00  0.00000000000E+00  0.61027418520E+03  0.61027418520E+03  0.00000000000E+00 0.  1.
          2   -1    0    0  501    0  0.00000000000E+00 -0.00000000000E+00 -0.22630022269E+04  0.22630022269E+04  0.00000000000E+00 0. -1.
         23    2    1    2    0    0  0.58243116762E+02 -0.85228340916E+03  0.66638154334E+02  0.86178138716E+03  0.91908897657E+02 0.  0.
    5000000    2    1    2    0    0 -0.58243116762E+02  0.85228340916E+03 -0.17193661961E+04  0.20114950250E+04  0.60009403354E+03 0.  0.
         23    2    4    4    0    0 -0.17325857438E+03  0.97746731368E+02 -0.15549810405E+03  0.26891801765E+03  0.92543410153E+02 0.  0.
         23    2    4    4    0    0  0.11501545762E+03  0.75453667779E+03 -0.15638680920E+04  0.17425770073E+04  0.91307521979E+02 0.  0.
          2    1    3    3  502    0  0.20833780977E+02 -0.58270604485E+03  0.67889066148E+01  0.58311788721E+03  0.00000000000E+00 0. -1.
         -2    1    3    3    0  502  0.37409335784E+02 -0.26957736431E+03  0.59849247719E+02  0.27866349995E+03  0.00000000000E+00 0.  1.
         11    1    5    5    0    0  0.33876167558E+01  0.15681999517E+01 -0.33438869361E+02  0.33646592436E+02  0.00000000000E+00 0. -1.
        -11    1    5    5    0    0 -0.17664619114E+03  0.96178531417E+02 -0.12205923469E+03  0.23527142522E+03  0.00000000000E+00 0.  1.
          2    1    6    6  503    0  0.28682681130E+02  0.11602966698E+03 -0.18003167923E+03  0.21609485265E+03  0.00000000000E+00 0. -1.
         -2    1    6    6    0  503  0.86332776492E+02  0.63850701081E+03 -0.13838364128E+04  0.15264821546E+04  0.00000000000E+00 0.  1.
<mgrwt>
<rscale>  0 0.91197184E+03</rscale>
<asrwt>0</asrwt>
<pdfrwt beam="1">  1        2 0.34815419E+00 0.91197184E+03</pdfrwt>
<pdfrwt beam="2">  1       -2 0.93888335E-01 0.91197184E+03</pdfrwt>
<totfact> 0.46349744E+00</totfact>
</mgrwt>
</event>
<event>
12    1  0.1444206E-007  0.1215398E+04  0.7818608E-02  0.9099485E-01
         -2   -1    0    0    0  501 -0.00000000000E+00  0.00000000000E+00  0.74412820211E+03  0.74412820211E+03  0.00000000000E+00 0.  1.
          2   -1    0    0  501    0  0.00000000000E+00 -0.00000000000E+00 -0.22274013298E+04  0.22274013298E+04  0.00000000000E+00 0. -1.
         23    2    1    2    0    0 -0.11868852077E+04 -0.18790710137E+03 -0.49048504957E+03  0.13012168668E+04  0.92650826134E+02 0.  0.
    5000000    2    1    2    0    0  0.11868852077E+04  0.18790710137E+03 -0.99278807810E+03  0.16703126651E+04  0.60025882444E+03 0.  0.
         23    2    4    4    0    0  0.10460489098E+04  0.17823551415E+03 -0.55778246127E+03  0.12028487745E+04  0.98679683951E+02 0.  0.
         23    2    4    4    0    0  0.14083629784E+03  0.96715872266E+01 -0.43500561683E+03  0.46746389059E+03  0.96768796345E+02 0.  0.
          2    1    3    3  502    0 -0.40973720304E+03 -0.45996122241E+02 -0.12555907936E+03  0.43100498980E+03  0.00000000000E+00 0. -1.
         -2    1    3    3    0  502 -0.77714800462E+03 -0.14191097913E+03 -0.36492597021E+03  0.87021187697E+03  0.00000000000E+00 0.  1.
         13    1    5    5    0    0  0.24074181707E+03  0.80292642286E+02 -0.11474015530E+03  0.27851182045E+03  0.00000000000E+00 0. -1.
        -13    1    5    5    0    0  0.80530709276E+03  0.97942871862E+02 -0.44304230597E+03  0.92433695408E+03  0.00000000000E+00 0.  1.
          4    1    6    6  503    0  0.86658053286E+01  0.28657575906E+02 -0.14689699274E+03  0.14991690804E+03  0.00000000000E+00 0. -1.
         -4    1    6    6    0  503  0.13217049251E+03 -0.18985988679E+02 -0.28810862409E+03  0.31754698256E+03  0.00000000000E+00 0.  1.
<mgrwt>
<rscale>  0 0.12153977E+04</rscale>
<asrwt>0</asrwt>
<pdfrwt beam="1">  1        2 0.34267712E+00 0.12153977E+04</pdfrwt>
<pdfrwt beam="2">  1       -2 0.11448126E+00 0.12153977E+04</pdfrwt>
<totfact> 0.29027513E+00</totfact>
</mgrwt>
</event>
<event>
12    1  0.1444206E-007  0.1027665E+04  0.7818608E-02  0.9278712E-01
         -2   -1    0    0    0  501 -0.00000000000E+00  0.00000000000E+00  0.53319364681E+03  0.53319364681E+03  0.00000000000E+00 0.  1.
          2   -1    0    0  501    0  0.00000000000E+00 -0.00000000000E+00 -0.21043616717E+04  0.21043616717E+04  0.00000000000E+00 0. -1.
         23    2    1    2    0    0 -0.86264702196E+03 -0.39510359834E+03 -0.46066922066E+03  0.10585108151E+04  0.89231591009E+02 0.  0.
    5000000    2    1    2    0    0  0.86264702196E+03  0.39510359834E+03 -0.11104988043E+04  0.15790445035E+04  0.59992267151E+03 0.  0.
         23    2    4    4    0    0  0.10363852466E+03  0.32423935197E+03 -0.30830150345E+03  0.46853749497E+03  0.92765650972E+02 0.  0.
         23    2    4    4    0    0  0.75900849730E+03  0.70864246372E+02 -0.80219730083E+03  0.11105070085E+04  0.92680451807E+02 0.  0.
          1    1    3    3  502    0 -0.70857756672E+03 -0.30725762903E+03 -0.40816234185E+03  0.87354788990E+03  0.00000000000E+00 0. -1.
         -1    1    3    3    0  502 -0.15406945524E+03 -0.87845969307E+02 -0.52506878811E+02  0.18496292516E+03  0.00000000000E+00 0.  1.
         13    1    5    5    0    0  0.25224389560E+02  0.39865199022E+02 -0.84818639697E+01  0.47931679901E+02  0.00000000000E+00 0. -1.
        -13    1    5    5    0    0  0.78414135099E+02  0.28437415295E+03 -0.29981963948E+03  0.42060581507E+03  0.00000000000E+00 0.  1.
          4    1    6    6  503    0  0.63101150210E+03  0.42882206591E+02 -0.61636465651E+03  0.88313067505E+03  0.00000000000E+00 0. -1.
         -4    1    6    6    0  503  0.12799699520E+03  0.27982039780E+02 -0.18583264432E+03  0.22737633347E+03  0.00000000000E+00 0.  1.
<mgrwt>
<rscale>  0 0.10276651E+04</rscale>
<asrwt>0</asrwt>
<pdfrwt beam="1">  1        2 0.32374795E+00 0.10276651E+04</pdfrwt>
<pdfrwt beam="2">  1       -2 0.82029792E-01 0.10276651E+04</pdfrwt>
<totfact> 0.76340125E+00</totfact>
</mgrwt>
</event>
<event>
12    1  0.1444206E-007  0.1377458E+04  0.7818608E-02  0.8970299E-01
         -1   -1    0    0    0  501 -0.00000000000E+00  0.00000000000E+00  0.13778020027E+04  0.13778020027E+04  0.00000000000E+00 0.  1.
          1   -1    0    0  501    0  0.00000000000E+00 -0.00000000000E+00 -0.14921008643E+04  0.14921008643E+04  0.00000000000E+00 0. -1.
         23    2    1    2    0    0 -0.94999887788E+03 -0.98632375517E+03 -0.65890826744E+02  0.13740424512E+04  0.91206572067E+02 0.  0.
    5000000    2    1    2    0    0  0.94999887788E+03  0.98632375517E+03 -0.48408034829E+02  0.14958604158E+04  0.59993551954E+03 0.  0.
         23    2    4    4    0    0  0.62686121500E+03  0.72236490090E+03 -0.29062863836E+03  0.10035745519E+04  0.89055279636E+02 0.  0.
         23    2    4    4    0    0  0.32313766289E+03  0.26395885427E+03  0.24222060353E+03  0.49228586388E+03  0.97889351178E+02 0.  0.
          3    1    3    3  502    0 -0.56933759691E+03 -0.61637715156E+03  0.54874831159E+00  0.83908664234E+03  0.00000000000E+00 0. -1.
         -3    1    3    3    0  502 -0.38066128098E+03 -0.36994660361E+03 -0.66439575056E+02  0.53495580891E+03  0.00000000000E+00 0.  1.
         13    1    5    5    0    0  0.33708853441E+03  0.32636106467E+03 -0.12319920742E+03  0.48509614436E+03  0.00000000000E+00 0. -1.
        -13    1    5    5    0    0  0.28977268059E+03  0.39600383623E+03 -0.16742943094E+03  0.51847840753E+03  0.00000000000E+00 0.  1.
          1    1    6    6  503    0  0.13493942230E+03  0.60226402557E+02  0.11448974161E+03  0.18693252309E+03  0.00000000000E+00 0. -1.
         -1    1    6    6    0  503  0.18819824058E+03  0.20373245171E+03  0.12773086192E+03  0.30535334078E+03  0.00000000000E+00 0.  1.
<mgrwt>
<rscale>  0 0.13774582E+04</rscale>
<asrwt>0</asrwt>
<pdfrwt beam="1">  1        1 0.22955398E+00 0.13774582E+04</pdfrwt>
<pdfrwt beam="2">  1       -1 0.21196954E+00 0.13774582E+04</pdfrwt>
<totfact> 0.79244174E-01</totfact>
</mgrwt>
</event>
<event>
12    1  0.1444206E-007  0.2299008E+04  0.7818608E-02  0.8478312E-01
          2   -1    0    0  501    0  0.00000000000E+00  0.00000000000E+00  0.22376557666E+04  0.22376557666E+04  0.00000000000E+00 0.  1.
         -2   -1    0    0    0  501 -0.00000000000E+00 -0.00000000000E+00 -0.24418850827E+04  0.24418850827E+04  0.00000000000E+00 0. -1.
         23    2    1    2    0    0  0.21976549711E+04  0.66806693836E+03 -0.17458259879E+03  0.23053411034E+04  0.90098354028E+02 0.  0.
    5000000    2    1    2    0    0 -0.21976549711E+04 -0.66806693836E+03 -0.29646717377E+02  0.23741997459E+04  0.59995391447E+03 0.  0.
         23    2    4    4    0    0 -0.84004410472E+03 -0.24345566979E+03  0.26729376569E+03  0.91821464943E+03  0.82020876762E+02 0.  0.
         23    2    4    4    0    0 -0.13576108663E+04 -0.42461126857E+03 -0.29694048306E+03  0.14559850964E+04  0.91197350687E+02 0.  0.
          2    1    3    3  502    0  0.11885042149E+04  0.39851450958E+03 -0.12258969962E+03  0.12595174940E+04  0.00000000000E+00 0. -1.
         -2    1    3    3    0  502  0.10091507562E+04  0.26955242878E+03 -0.51992899171E+02  0.10458236095E+04  0.00000000000E+00 0.  1.
         13    1    5    5    0    0 -0.67613972989E+03 -0.18373608424E+03  0.18135363652E+03  0.72374928288E+03  0.00000000000E+00 0.  1.
        -13    1    5    5    0    0 -0.16390437483E+03 -0.59719585550E+02  0.85940129171E+02  0.19446536656E+03  0.00000000000E+00 0. -1.
          3    1    6    6  503    0 -0.42052741524E+03 -0.91934996262E+02 -0.71340073662E+02  0.43633101725E+03  0.00000000000E+00 0. -1.
         -3    1    6    6    0  503 -0.93708345110E+03 -0.33267627231E+03 -0.22560040940E+03  0.10196540792E+04  0.00000000000E+00 0.  1.
<mgrwt>
<rscale>  0 0.22990078E+04</rscale>
<asrwt>0</asrwt>
<pdfrwt beam="1">  1        2 0.34425474E+00 0.22990078E+04</pdfrwt>
<pdfrwt beam="2">  1       -2 0.37567463E+00 0.22990078E+04</pdfrwt>
<totfact> 0.45151469E-02</totfact>
</mgrwt>
</event>
<event>
12    1  0.1444206E-007  0.5090827E+03  0.7818608E-02  0.1011435E+00
         -2   -1    0    0    0  501 -0.00000000000E+00  0.00000000000E+00  0.20307914275E+03  0.20307914275E+03  0.00000000000E+00 0.  1.
          2   -1    0    0  501    0  0.00000000000E+00 -0.00000000000E+00 -0.20174091650E+04  0.20174091650E+04  0.00000000000E+00 0. -1.
         23    2    1    2    0    0 -0.11511513282E+03  0.44784895594E+03 -0.40971959353E+03  0.62465196353E+03  0.92194083733E+02 0.  0.
    5000000    2    1    2    0    0  0.11511513282E+03 -0.44784895594E+03 -0.14046104287E+04  0.15958363442E+04  0.59995249805E+03 0.  0.
         23    2    4    4    0    0  0.14700604717E+03 -0.42080126080E+03 -0.14227865420E+04  0.14936676597E+04  0.89649620393E+02 0.  0.
         23    2    4    4    0    0 -0.31890914347E+02 -0.27047695139E+02  0.18176113304E+02  0.10216868453E+03  0.91430086807E+02 0.  0.
          1    1    3    3  502    0 -0.24291396479E+02  0.16195278234E+02 -0.15480926931E+02  0.33045696824E+02  0.00000000000E+00 0. -1.
         -1    1    3    3    0  502 -0.90823736345E+02  0.43165367771E+03 -0.39423866660E+03  0.59160626671E+03  0.00000000000E+00 0.  1.
         13    1    5    5    0    0  0.97481135900E+02 -0.32744218911E+03 -0.96038528381E+03  0.10193433437E+04  0.00000000000E+00 0.  1.
        -13    1    5    5    0    0  0.49524911272E+02 -0.93359071692E+02 -0.46240125820E+03  0.47432431593E+03  0.00000000000E+00 0. -1.
          4    1    6    6  503    0 -0.34836500294E+02 -0.58964452070E+02  0.12445399839E+02  0.69608019206E+02  0.00000000000E+00 0.  1.
         -4    1    6    6    0  503  0.29455859464E+01  0.31916756931E+02  0.57307134644E+01  0.32560665324E+02  0.00000000000E+00 0. -1.
<mgrwt>
<rscale>  0 0.50908275E+03</rscale>
<asrwt>0</asrwt>
<pdfrwt beam="1">  1        2 0.31037065E+00 0.50908275E+03</pdfrwt>
<pdfrwt beam="2">  1       -2 0.31242944E-01 0.50908275E+03</pdfrwt>
<totfact> 0.66052090E+01</totfact>
</mgrwt>
</event>
<event>
12    1  0.1444206E-007  0.6574873E+03  0.7818608E-02  0.9792830E-01
         -1   -1    0    0    0  501 -0.00000000000E+00  0.00000000000E+00  0.65448251109E+03  0.65448251109E+03  0.00000000000E+00 0.  1.
          1   -1    0    0  501    0  0.00000000000E+00 -0.00000000000E+00 -0.21797642671E+04  0.21797642671E+04  0.00000000000E+00 0. -1.
         23    2    1    2    0    0 -0.52210428975E+03  0.79109138419E+02  0.45240631876E+03  0.70114742799E+03  0.89917147217E+02 0.  0.
    5000000    2    1    2    0    0  0.52210428975E+03 -0.79109138419E+02 -0.19776880747E+04  0.21330993502E+04  0.60000964290E+03 0.  0.
         23    2    4    4    0    0  0.46892973532E+03 -0.29192978105E+03 -0.13325902017E+04  0.14453730837E+04  0.90490948310E+02 0.  0.
         23    2    4    4    0    0  0.53174554434E+02  0.21282064263E+03 -0.64509787308E+03  0.68772626649E+03  0.93252306165E+02 0.  0.
          3    1    3    3  502    0 -0.62793031116E+02  0.40026316552E+02  0.70138490283E+02  0.10229603410E+03  0.00000000000E+00 0. -1.
         -3    1    3    3    0  502 -0.45931125864E+03  0.39082821867E+02  0.38226782848E+03  0.59885139389E+03  0.00000000000E+00 0.  1.
         11    1    5    5    0    0  0.11081166200E+03 -0.94443830036E+02 -0.26915295123E+03  0.30601008582E+03  0.00000000000E+00 0. -1.
        -11    1    5    5    0    0  0.35811807332E+03 -0.19748595101E+03 -0.10634372504E+04  0.11393629978E+04  0.00000000000E+00 0.  1.
          3    1    6    6  503    0  0.61398436630E+02  0.15739797489E+03 -0.36673073380E+03  0.40377632624E+03  0.00000000000E+00 0. -1.
         -3    1    6    6    0  503 -0.82238821958E+01  0.55422667738E+02 -0.27836713928E+03  0.28394994026E+03  0.00000000000E+00 0.  1.
<mgrwt>
<rscale>  0 0.65748731E+03</rscale>
<asrwt>0</asrwt>
<pdfrwt beam="1">  1        1 0.33534835E+00 0.65748731E+03</pdfrwt>
<pdfrwt beam="2">  1       -1 0.10068962E+00 0.65748731E+03</pdfrwt>
<totfact> 0.22748241E+00</totfact>
</mgrwt>
</event>
<event>
12    1  0.1444206E-007  0.5337352E+03  0.7818608E-02  0.1005330E+00
         -2   -1    0    0    0  501 -0.00000000000E+00  0.00000000000E+00  0.18882747870E+03  0.18882747870E+03  0.00000000000E+00 0.  1.
          2   -1    0    0  501    0  0.00000000000E+00 -0.00000000000E+00 -0.21637078832E+04  0.21637078832E+04  0.00000000000E+00 0. -1.
         23    2    1    2    0    0 -0.38500269282E+03  0.30702403554E+03 -0.84465243804E+03  0.98146882017E+03  0.85746556758E+02 0.  0.
    5000000    2    1    2    0    0  0.38500269282E+03 -0.30702403554E+03 -0.11302279665E+04  0.13710665418E+04  0.59993114092E+03 0.  0.
         23    2    4    4    0    0  0.34624548878E+03 -0.15543033141E+03 -0.11244735023E+04  0.11903190564E+04  0.91511049946E+02 0.  0.
         23    2    4    4    0    0  0.38757204036E+02 -0.15159370413E+03 -0.57544641981E+01  0.18074748536E+03  0.90298214878E+02 0.  0.
          3    1    3    3  502    0 -0.10872181337E+03  0.44785134296E+02 -0.23092663372E+03  0.25913944338E+03  0.00000000000E+00 0. -1.
         -3    1    3    3    0  502 -0.27628087945E+03  0.26223890124E+03 -0.61372580432E+03  0.72232937678E+03  0.00000000000E+00 0.  1.
         13    1    5    5    0    0  0.15342247666E+03 -0.24820499198E+02 -0.51164108609E+03  0.53472527011E+03  0.00000000000E+00 0.  1.
        -13    1    5    5    0    0  0.19282301212E+03 -0.13060983221E+03 -0.61283241620E+03  0.65559378629E+03  0.00000000000E+00 0. -1.
          3    1    6    6  503    0  0.68489025198E+02 -0.10805949325E+03 -0.37151026451E+01  0.12798985367E+03  0.00000000000E+00 0. -1.
         -3    1    6    6    0  503 -0.29731821162E+02 -0.43534210879E+02 -0.20393615530E+01  0.52757631695E+02  0.00000000000E+00 0.  1.
<mgrwt>
<rscale>  0 0.53373522E+03</rscale>
<asrwt>0</asrwt>
<pdfrwt beam="1">  1        2 0.33287817E+00 0.53373522E+03</pdfrwt>
<pdfrwt beam="2">  1       -2 0.29050379E-01 0.53373522E+03</pdfrwt>
<totfact> 0.62694443E+01</totfact>
</mgrwt>
</event>
<event>
12    1  0.1444206E-007  0.7038622E+03  0.7818608E-02  0.9710650E-01
          2   -1    0    0  501    0  0.00000000000E+00  0.00000000000E+00  0.25292866165E+04  0.25292866165E+04  0.00000000000E+00 0. -1.
         -2   -1    0    0    0  501 -0.00000000000E+00 -0.00000000000E+00 -0.20725904797E+03  0.20725904797E+03  0.00000000000E+00 0.  1.
         23    2    1    2    0    0  0.57333381137E+03  0.16172970888E+03  0.96394438461E+03  0.11367605822E+04  0.90375254102E+02 0.  0.
    5000000    2    1    2    0    0 -0.57333381137E+03 -0.16172970888E+03  0.13580831839E+04  0.15997850823E+04  0.60004517926E+03 0.  0.
         23    2    4    4    0    0 -0.14019919087E+03 -0.30405565527E+03  0.80766010391E+03  0.87908086196E+03  0.91447601315E+02 0.  0.
         23    2    4    4    0    0 -0.43313462050E+03  0.14232594639E+03  0.55042308001E+03  0.72070422035E+03  0.92664619698E+02 0.  0.
          2    1    3    3  502    0  0.17792652301E+03  0.79503612944E+02  0.25625136456E+03  0.32193700300E+03  0.00000000000E+00 0.  1.
         -2    1    3    3    0  502  0.39540728836E+03  0.82226095938E+02  0.70769302004E+03  0.81482357916E+03  0.00000000000E+00 0. -1.
         13    1    5    5    0    0 -0.15111461985E+03 -0.28377268896E+03  0.72138741480E+03  0.78978628094E+03  0.00000000000E+00 0. -1.
        -13    1    5    5    0    0  0.10915428977E+02 -0.20282966304E+02  0.86272689114E+02  0.89294581016E+02  0.00000000000E+00 0.  1.
          2    1    6    6  503    0 -0.31473872471E+03  0.60442917102E+02  0.39898157059E+03  0.51176176560E+03  0.00000000000E+00 0. -1.
         -2    1    6    6    0  503 -0.11839589579E+03  0.81883029285E+02  0.15144150942E+03  0.20894245476E+03  0.00000000000E+00 0.  1.
<mgrwt>
<rscale>  0 0.70386220E+03</rscale>
<asrwt>0</asrwt>
<pdfrwt beam="1">  1        2 0.38912100E+00 0.70386220E+03</pdfrwt>
<pdfrwt beam="2">  1       -2 0.31886009E-01 0.70386220E+03</pdfrwt>
<totfact> 0.32167827E+01</totfact>
</mgrwt>
</event>
<event>
12    1  0.1444206E-007  0.8397061E+03  0.7818608E-02  0.9504258E-01
         -1   -1    0    0    0  501 -0.00000000000E+00  0.00000000000E+00  0.93690171325E+03  0.93690171325E+03  0.00000000000E+00 0.  1.
          1   -1    0    0  501    0  0.00000000000E+00 -0.00000000000E+00 -0.82960330751E+03  0.82960330751E+03  0.00000000000E+00 0. -1.
         23    2    1    2    0    0  0.27826862225E+03  0.72331265655E+03  0.10169267975E+03  0.78631225165E+03  0.85620854470E+02 0.  0.
    5000000    2    1    2    0    0 -0.27826862225E+03 -0.72331265655E+03  0.56057259883E+01  0.98019276910E+03  0.60010983593E+03 0.  0.
         23    2    4    4    0    0  0.11690043733E+03 -0.25885930144E+03 -0.16498239015E+03  0.34099817157E+03  0.91579002855E+02 0.  0.
         23    2    4    4    0    0 -0.39516905959E+03 -0.46445335512E+03  0.17058811614E+03  0.63919459753E+03  0.87143120277E+02 0.  0.
          1    1    3    3  502    0  0.14803824755E+03  0.44102708854E+03  0.23767228841E+02  0.46581659130E+03  0.00000000000E+00 0. -1.
         -1    1    3    3    0  502  0.13023037471E+03  0.28228556801E+03  0.77925450909E+02  0.32049566035E+03  0.00000000000E+00 0.  1.
         11    1    5    5    0    0  0.88616755801E+02 -0.24638229484E+03 -0.16608201518E+03  0.31006515507E+03  0.00000000000E+00 0. -1.
        -11    1    5    5    0    0  0.28283681533E+02 -0.12477006594E+02  0.10996250310E+01  0.30933016500E+02  0.00000000000E+00 0.  1.
          2    1    6    6  503    0 -0.31939255099E+03 -0.35603296453E+03  0.97738615803E+02  0.48818429970E+03  0.00000000000E+00 0. -1.
         -2    1    6    6    0  503 -0.75776508596E+02 -0.10842039059E+03  0.72849500339E+02  0.15101029783E+03  0.00000000000E+00 0.  1.
<mgrwt>
<rscale>  0 0.83970607E+03</rscale>
<asrwt>0</asrwt>
<pdfrwt beam="1">  1        1 0.12763128E+00 0.83970607E+03</pdfrwt>
<pdfrwt beam="2">  1       -1 0.14413872E+00 0.83970607E+03</pdfrwt>
<totfact> 0.82562049E+00</totfact>
</mgrwt>
</event>
<event>
12    1  0.1444206E-007  0.3978537E+03  0.7818608E-02  0.1044525E+00
         -2   -1    0    0    0  501 -0.00000000000E+00  0.00000000000E+00  0.84001743654E+02  0.84001743654E+02  0.00000000000E+00 0.  1.
          2   -1    0    0  501    0  0.00000000000E+00 -0.00000000000E+00 -0.29535917821E+04  0.29535917821E+04  0.00000000000E+00 0. -1.
         23    2    1    2    0    0 -0.17160314813E+03  0.15646321111E+02 -0.14777982145E+03  0.24512174887E+03  0.92484313953E+02 0.  0.
    5000000    2    1    2    0    0  0.17160314813E+03 -0.15646321111E+02 -0.27218102170E+04  0.27924717769E+04  0.59996276513E+03 0.  0.
         23    2    4    4    0    0 -0.22884176008E+02  0.25741705475E+03 -0.10663741745E+04  0.11009883425E+04  0.90742628603E+02 0.  0.
         23    2    4    4    0    0  0.19448732414E+03 -0.27306337586E+03 -0.16554360424E+04  0.16914834343E+04  0.90877893851E+02 0.  0.
          3    1    3    3  502    0 -0.13221224327E+02 -0.21336043625E+02  0.39414905653E+00  0.25103443663E+02  0.00000000000E+00 0. -1.
         -3    1    3    3    0  502 -0.15838192380E+03  0.36982364736E+02 -0.14817397051E+03  0.22001830521E+03  0.00000000000E+00 0.  1.
         11    1    5    5    0    0 -0.32422270437E+01  0.21655279325E+03 -0.72624457280E+03  0.75785011963E+03  0.00000000000E+00 0. -1.
        -11    1    5    5    0    0 -0.19641948964E+02  0.40864261499E+02 -0.34012960173E+03  0.34313822288E+03  0.00000000000E+00 0.  1.
          3    1    6    6  503    0  0.88693363113E+02 -0.19608749960E+03 -0.95723924882E+03  0.98113393563E+03  0.00000000000E+00 0. -1.
         -3    1    6    6    0  503  0.10579396103E+03 -0.76975876257E+02 -0.69819679361E+03  0.71034949871E+03  0.00000000000E+00 0.  1.
<mgrwt>
<rscale>  0 0.39785368E+03</rscale>
<asrwt>0</asrwt>
<pdfrwt beam="1">  1        2 0.45439866E+00 0.39785368E+03</pdfrwt>
<pdfrwt beam="2">  1       -2 0.12923347E-01 0.39785368E+03</pdfrwt>
<totfact> 0.93911048E+01</totfact>
</mgrwt>
</event>
<event>
12    1  0.1444206E-007  0.3084982E+03  0.7818608E-02  0.1081068E+00
          1   -1    0    0  501    0  0.00000000000E+00  0.00000000000E+00  0.15124825298E+04  0.15124825298E+04  0.00000000000E+00 0. -1.
         -1   -1    0    0    0  501 -0.00000000000E+00 -0.00000000000E+00 -0.15006538152E+03  0.15006538152E+03  0.00000000000E+00 0.  1.
         23    2    1    2    0    0  0.26647799658E+03  0.19591835571E+02  0.54180605714E+03  0.61147071708E+03  0.94595304352E+02 0.  0.
    5000000    2    1    2    0    0 -0.26647799658E+03 -0.19591835571E+02  0.82061109110E+03  0.10510771942E+04  0.59997195158E+03 0.  0.
         23    2    4    4    0    0 -0.32358689731E+02 -0.39560723267E+01 -0.74257646872E+02  0.12139203808E+03  0.90327700512E+02 0.  0.
         23    2    4    4    0    0 -0.23411930684E+03 -0.15635763244E+02  0.89486873797E+03  0.92968515614E+03  0.92022303917E+02 0.  0.
          2    1    3    3  502    0  0.42058828969E+02  0.21800876063E+02  0.17636307258E+03  0.18261477667E+03  0.00000000000E+00 0.  1.
         -2    1    3    3    0  502  0.22441916761E+03 -0.22090404919E+01  0.36544298457E+03  0.42885594040E+03  0.00000000000E+00 0. -1.
         13    1    5    5    0    0 -0.35166687590E+02 -0.42786625400E+02 -0.54625066269E+02  0.77790032100E+02  0.00000000000E+00 0. -1.
        -13    1    5    5    0    0  0.28079978592E+01  0.38830553074E+02 -0.19632580603E+02  0.43602005976E+02  0.00000000000E+00 0.  1.
          2    1    6    6  503    0 -0.31986733865E+02  0.29782048878E+02  0.12462382630E+03  0.13206520988E+03  0.00000000000E+00 0.  1.
         -2    1    6    6    0  503 -0.20213257298E+03 -0.45417812122E+02  0.77024491167E+03  0.79761994626E+03  0.00000000000E+00 0. -1.
<mgrwt>
<rscale>  0 0.30849824E+03</rscale>
<asrwt>0</asrwt>
<pdfrwt beam="1">  1        1 0.23268961E+00 0.30849824E+03</pdfrwt>
<pdfrwt beam="2">  1       -1 0.23086983E-01 0.30849824E+03</pdfrwt>
<totfact> 0.11173657E+02</totfact>
</mgrwt>
</event>
<event>
12    1  0.1444206E-007  0.5530540E+03  0.7818608E-02  0.1000790E+00
         -2   -1    0    0    0  501 -0.00000000000E+00  0.00000000000E+00  0.34905172665E+03  0.34905172665E+03  0.00000000000E+00 0. -1.
          2   -1    0    0  501    0  0.00000000000E+00 -0.00000000000E+00 -0.11093299270E+04  0.11093299270E+04  0.00000000000E+00 0.  1.
         23    2    1    2    0    0  0.85777852037E+02 -0.41870943024E+03 -0.52897716840E+03  0.68636206802E+03  0.92739510770E+02 0.  0.
    5000000    2    1    2    0    0 -0.85777852037E+02  0.41870943024E+03 -0.23130103198E+03  0.77201958566E+03  0.59986552358E+03 0.  0.
         23    2    4    4    0    0  0.76001895803E+02  0.47993094709E+03 -0.33957083069E+02  0.49538213451E+03  0.90224018770E+02 0.  0.
         23    2    4    4    0    0 -0.16177974784E+03 -0.61221516855E+02 -0.19734394891E+03  0.27663745115E+03  0.87537901886E+02 0.  0.
          2    1    3    3  502    0 -0.15837250836E+02 -0.25865051001E+02 -0.24793676705E+02  0.39173278927E+02  0.00000000000E+00 0.  1.
         -2    1    3    3    0  502  0.10161510287E+03 -0.39284437924E+03 -0.50418349170E+03  0.64718878909E+03  0.00000000000E+00 0. -1.
         13    1    5    5    0    0  0.50203027205E+02  0.14067230450E+03 -0.41637963648E+02  0.15505728365E+03  0.00000000000E+00 0.  1.
        -13    1    5    5    0    0  0.25798868597E+02  0.33925864259E+03  0.76808805792E+01  0.34032485087E+03  0.00000000000E+00 0. -1.
          4    1    6    6  503    0 -0.65956116296E+02  0.13354750239E+01 -0.26685057923E+02  0.71162385337E+02  0.00000000000E+00 0. -1.
         -4    1    6    6    0  503 -0.95823631543E+02 -0.62556991879E+02 -0.17065889099E+03  0.20547506581E+03  0.00000000000E+00 0.  1.
<mgrwt>
<rscale>  0 0.55305398E+03</rscale>
<asrwt>0</asrwt>
<pdfrwt beam="1">  1        2 0.17066614E+00 0.55305398E+03</pdfrwt>
<pdfrwt beam="2">  1       -2 0.53700266E-01 0.55305398E+03</pdfrwt>
<totfact> 0.72727061E+01</totfact>
</mgrwt>
</event>
<event>
12    1  0.1444206E-007  0.3809288E+03  0.7818608E-02  0.1050591E+00
         -1   -1    0    0    0  501 -0.00000000000E+00  0.00000000000E+00  0.10463855726E+04  0.10463855726E+04  0.00000000000E+00 0.  1.
          1   -1    0    0  501    0  0.00000000000E+00 -0.00000000000E+00 -0.21271682647E+03  0.21271682647E+03  0.00000000000E+00 0. -1.
         23    2    1    2    0    0 -0.14842486846E+03 -0.22116186458E+03  0.31396597180E+03  0.42175762220E+03  0.91445877517E+02 0.  0.
    5000000    2    1    2    0    0  0.14842486846E+03  0.22116186458E+03  0.51970277432E+03  0.83734477686E+03  0.60009398412E+03 0.  0.
         23    2    4    4    0    0 -0.26218940157E+02  0.28933718285E+03  0.31370147314E+02  0.30602139633E+03  0.90893182709E+02 0.  0.
         23    2    4    4    0    0  0.17464380862E+03 -0.68175318277E+02  0.48833262701E+03  0.53132338053E+03  0.93206470743E+02 0.  0.
          3    1    3    3  502    0 -0.14402487163E+03 -0.21232997347E+03  0.25416061550E+03  0.36114373836E+03  0.00000000000E+00 0. -1.
         -3    1    3    3    0  502 -0.43999968339E+01 -0.88318911051E+01  0.59805356300E+02  0.60613883845E+02  0.00000000000E+00 0.  1.
         13    1    5    5    0    0 -0.54836709057E+02  0.21380253617E+03  0.40762204165E+01  0.22076051437E+03  0.00000000000E+00 0.  1.
        -13    1    5    5    0    0  0.28617768899E+02  0.75534646688E+02  0.27293926897E+02  0.85260881959E+02  0.00000000000E+00 0. -1.
          4    1    6    6  503    0  0.88315203959E+02 -0.79649228628E+01  0.12643198960E+03  0.15442818150E+03  0.00000000000E+00 0. -1.
         -4    1    6    6    0  503  0.86328604661E+02 -0.60210395414E+02  0.36190063741E+03  0.37689519904E+03  0.00000000000E+00 0.  1.
<mgrwt>
<rscale>  0 0.38092883E+03</rscale>
<asrwt>0</asrwt>
<pdfrwt beam="1">  1        1 0.32725666E-01 0.38092883E+03</pdfrwt>
<pdfrwt beam="2">  1       -1 0.16098239E+00 0.38092883E+03</pdfrwt>
<totfact> 0.41945662E+01</totfact>
</mgrwt>
</event>
<event>
12    1  0.1444206E-007  0.2170338E+04  0.7818608E-02  0.8530876E-01
          2   -1    0    0  501    0  0.00000000000E+00  0.00000000000E+00  0.33298211944E+04  0.33298211944E+04  0.00000000000E+00 0. -1.
         -2   -1    0    0    0  501 -0.00000000000E+00 -0.00000000000E+00 -0.18519149445E+04  0.18519149445E+04  0.00000000000E+00 0.  1.
         23    2    1    2    0    0 -0.59543686694E+02  0.21312292494E+04 -0.52267212631E+03  0.21970970579E+04  0.91464561900E+02 0.  0.
    5000000    2    1    2    0    0  0.59543686694E+02 -0.21312292494E+04  0.20005783762E+04  0.29846390810E+04  0.60006086380E+03 0.  0.
         23    2    4    4    0    0 -0.13341794785E+03 -0.16104175778E+03  0.27334481579E+03  0.35586819701E+03  0.90498556680E+02 0.  0.
         23    2    4    4    0    0  0.19296163455E+03 -0.19701874916E+04  0.17272335604E+04  0.26287708840E+04  0.90706359666E+02 0.  0.
          2    1    3    3  502    0 -0.44280107772E+02  0.62890561764E+03 -0.12158566318E+03  0.64207949456E+03  0.00000000000E+00 0. -1.
         -2    1    3    3    0  502 -0.15263578922E+02  0.15023236317E+04 -0.40108646313E+03  0.15550175633E+04  0.00000000000E+00 0.  1.
         13    1    5    5    0    0 -0.88603067049E+02 -0.37782671675E+02  0.10547765448E+03  0.14284106330E+03  0.00000000000E+00 0.  1.
        -13    1    5    5    0    0 -0.44814880804E+02 -0.12325908610E+03  0.16786716131E+03  0.21302713371E+03  0.00000000000E+00 0. -1.
          1    1    6    6  503    0  0.10216467778E+03 -0.13030224927E+04  0.11856371617E+04  0.17646644772E+04  0.00000000000E+00 0. -1.
         -1    1    6    6    0  503  0.90796956764E+02 -0.66716499890E+03  0.54159639868E+03  0.86410640675E+03  0.00000000000E+00 0.  1.
<mgrwt>
<rscale>  0 0.21703381E+04</rscale>
<asrwt>0</asrwt>
<pdfrwt beam="1">  1        2 0.51228018E+00 0.21703381E+04</pdfrwt>
<pdfrwt beam="2">  1       -2 0.28490999E+00 0.21703381E+04</pdfrwt>
<totfact> 0.36356213E-02</totfact>
</mgrwt>
</event>
<event>
12    1  0.1444206E-007  0.1209201E+04  0.7818608E-02  0.9104841E-01
         -1   -1    0    0    0  501 -0.00000000000E+00  0.00000000000E+00  0.12770876212E+04  0.12770876212E+04  0.00000000000E+00 0.  1.
          1   -1    0    0  501    0  0.00000000000E+00 -0.00000000000E+00 -0.42379254717E+04  0.42379254717E+04  0.00000000000E+00 0. -1.
         23    2    1    2    0    0  0.73162392734E+03  0.95366954337E+03  0.84948018299E+03  0.14747770097E+04  0.92690226715E+02 0.  0.
    5000000    2    1    2    0    0 -0.73162392734E+03 -0.95366954337E+03 -0.38103180336E+04  0.40402360832E+04  0.60018740562E+03 0.  0.
         23    2    4    4    0    0 -0.28321370517E+03 -0.36441780702E+03 -0.23917828706E+04  0.24375432520E+04  0.89339041807E+02 0.  0.
         23    2    4    4    0    0 -0.44841022217E+03 -0.58925173635E+03 -0.14185351630E+04  0.16026928312E+04  0.89960915958E+02 0.  0.
          2    1    3    3  502    0  0.41489729981E+03  0.47685444760E+03  0.47636875339E+03  0.79149044391E+03  0.00000000000E+00 0. -1.
         -2    1    3    3    0  502  0.31672662753E+03  0.47681509576E+03  0.37311142960E+03  0.68328656582E+03  0.00000000000E+00 0.  1.
         11    1    5    5    0    0 -0.78896199668E+02 -0.16856950213E+03 -0.87388351471E+03  0.89348345516E+03  0.00000000000E+00 0.  1.
        -11    1    5    5    0    0 -0.20431750551E+03 -0.19584830489E+03 -0.15178993559E+04  0.15440597968E+04  0.00000000000E+00 0. -1.
          4    1    6    6  503    0 -0.31443148132E+03 -0.34965060373E+03 -0.93814835575E+03  0.10494022291E+04  0.00000000000E+00 0. -1.
         -4    1    6    6    0  503 -0.13397874085E+03 -0.23960113262E+03 -0.48038680720E+03  0.55329060202E+03  0.00000000000E+00 0.  1.
<mgrwt>
<rscale>  0 0.12092011E+04</rscale>
<asrwt>0</asrwt>
<pdfrwt beam="1">  1        1 0.65198853E+00 0.12092011E+04</pdfrwt>
<pdfrwt beam="2">  1       -1 0.19647502E+00 0.12092011E+04</pdfrwt>
<totfact> 0.94152574E-03</totfact>
</mgrwt>
</event>
<event>
12    1  0.1444206E-007  0.9550944E+03  0.7818608E-02  0.9359216E-01
         -1   -1    0    0    0  501 -0.00000000000E+00  0.00000000000E+00  0.63578170862E+03  0.63578170862E+03  0.00000000000E+00 0.  1.
          1   -1    0    0  501    0  0.00000000000E+00 -0.00000000000E+00 -0.17949553359E+04  0.17949553359E+04  0.00000000000E+00 0. -1.
         23    2    1    2    0    0  0.85863725980E+03 -0.38092725633E+03 -0.21020356689E+03  0.96681770748E+03  0.90484371253E+02 0.  0.
    5000000    2    1    2    0    0 -0.85863725980E+03  0.38092725633E+03 -0.94897006040E+03  0.14639193371E+04  0.60012676271E+03 0.  0.
         23    2    4    4    0    0 -0.74215353207E+03  0.25083930542E+03 -0.40712411762E+03  0.88743534377E+03  0.89884481051E+02 0.  0.
         23    2    4    4    0    0 -0.11648372773E+03  0.13008795091E+03 -0.54184594279E+03  0.57648399328E+03  0.90804377608E+02 0.  0.
          2    1    3    3  502    0  0.49036993357E+03 -0.20127588804E+03 -0.16182031165E+03  0.55422059518E+03  0.00000000000E+00 0. -1.
         -2    1    3    3    0  502  0.36826732623E+03 -0.17965136829E+03 -0.48383255239E+02  0.41259711230E+03  0.00000000000E+00 0.  1.
         11    1    5    5    0    0 -0.21018795095E+03  0.92880048057E+02 -0.15978212937E+03  0.27988570331E+03  0.00000000000E+00 0.  1.
        -11    1    5    5    0    0 -0.53196558111E+03  0.15795925736E+03 -0.24734198825E+03  0.60754964046E+03  0.00000000000E+00 0. -1.
          3    1    6    6  503    0 -0.80573662850E+02  0.12593036705E+03 -0.33986291495E+03  0.37129149391E+03  0.00000000000E+00 0. -1.
         -3    1    6    6    0  503 -0.35910064885E+02  0.41575838581E+01 -0.20198302783E+03  0.20519249937E+03  0.00000000000E+00 0.  1.
<mgrwt>
<rscale>  0 0.95509442E+03</rscale>
<asrwt>0</asrwt>
<pdfrwt beam="1">  1        1 0.27614697E+00 0.95509442E+03</pdfrwt>
<pdfrwt beam="2">  1       -1 0.97812572E-01 0.95509442E+03</pdfrwt>
<totfact> 0.41767059E+00</totfact>
</mgrwt>
</event>
<event>
12    1  0.1444206E-007  0.4567687E+03  0.7818608E-02  0.1025723E+00
         -2   -1    0    0    0  501 -0.00000000000E+00  0.00000000000E+00  0.28939003758E+03  0.28939003758E+03  0.00000000000E+00 0.  1.
          2   -1    0    0  501    0  0.00000000000E+00 -0.00000000000E+00 -0.13835463017E+04  0.13835463017E+04  0.00000000000E+00 0. -1.
         23    2    1    2    0    0  0.15002086999E+03  0.27764201004E+03 -0.91383467051E+03  0.97138025107E+03  0.94310338556E+02 0.  0.
    5000000    2    1    2    0    0 -0.15002086999E+03 -0.27764201004E+03 -0.18032159356E+03  0.70155608816E+03  0.60006143066E+03 0.  0.
         23    2    4    4    0    0 -0.12407574117E+03  0.12209630242E+03  0.84962969103E+02  0.21312935019E+03  0.88899477955E+02 0.  0.
         23    2    4    4    0    0 -0.25945128819E+02 -0.39973831246E+03 -0.26528456266E+03  0.48842673797E+03  0.87868714682E+02 0.  0.
          3    1    3    3  502    0  0.38914097993E+02  0.15384843745E+03 -0.52498001306E+03  0.54844112067E+03  0.00000000000E+00 0. -1.
         -3    1    3    3    0  502  0.11110677200E+03  0.12379357259E+03 -0.38885465745E+03  0.42293913040E+03  0.00000000000E+00 0.  1.
         11    1    5    5    0    0 -0.13454131883E+01  0.40061856203E+02  0.44853921678E+02  0.60155105760E+02  0.00000000000E+00 0.  1.
        -11    1    5    5    0    0 -0.12273032798E+03  0.82034446220E+02  0.40109047426E+02  0.15297424443E+03  0.00000000000E+00 0. -1.
          1    1    6    6  503    0 -0.17806630897E+02 -0.17364999320E+03 -0.64985166652E+02  0.18626451118E+03  0.00000000000E+00 0. -1.
         -1    1    6    6    0  503 -0.81384979217E+01 -0.22608831926E+03 -0.20029939601E+03  0.30216222679E+03  0.00000000000E+00 0.  1.
<mgrwt>
<rscale>  0 0.45676874E+03</rscale>
<asrwt>0</asrwt>
<pdfrwt beam="1">  1        2 0.21285328E+00 0.45676874E+03</pdfrwt>
<pdfrwt beam="2">  1       -2 0.44521544E-01 0.45676874E+03</pdfrwt>
<totfact> 0.74620110E+01</totfact>
</mgrwt>
</event>
<event>
12    1  0.1444206E-007  0.5433012E+03  0.7818608E-02  0.1003056E+00
          2   -1    0    0  501    0  0.00000000000E+00  0.00000000000E+00  0.37587869508E+03  0.37587869508E+03  0.00000000000E+00 0. -1.
         -2   -1    0    0    0  501 -0.00000000000E+00 -0.00000000000E+00 -0.10069170814E+04  0.10069170814E+04  0.00000000000E+00 0.  1.
         23    2    1    2    0    0  0.32536917851E+03 -0.32792035739E+03 -0.28295701076E+03  0.54931658238E+03  0.91033920192E+02 0.  0.
    5000000    2    1    2    0    0 -0.32536917851E+03  0.32792035739E+03 -0.34808137558E+03  0.83347919412E+03  0.60010837346E+03 0.  0.
         23    2    4    4    0    0 -0.10878360374E+03 -0.73944079888E+02  0.98034025500E+02  0.18773163945E+03  0.91273757998E+02 0.  0.
         23    2    4    4    0    0 -0.21658557476E+03  0.40186443728E+03 -0.44611540108E+03  0.64574755468E+03  0.97809080084E+02 0.  0.
          1    1    3    3  502    0  0.25585998629E+03 -0.22344719233E+03 -0.16728184504E+03  0.37865049323E+03  0.00000000000E+00 0. -1.
         -1    1    3    3    0  502  0.69509192214E+02 -0.10447316507E+03 -0.11567516572E+03  0.17066608915E+03  0.00000000000E+00 0.  1.
         13    1    5    5    0    0 -0.98389723372E+02 -0.92618130467E+02  0.96997921733E+02  0.16633476058E+03  0.00000000000E+00 0. -1.
        -13    1    5    5    0    0 -0.10393880372E+02  0.18674050579E+02  0.10361037675E+01  0.21396878866E+02  0.00000000000E+00 0.  1.
          1    1    6    6  503    0 -0.20254006062E+03  0.40279492747E+03 -0.42046012272E+03  0.61648434250E+03  0.00000000000E+00 0. -1.
         -1    1    6    6    0  503 -0.14045514142E+02 -0.93049018291E+00 -0.25655278357E+02  0.29263212179E+02  0.00000000000E+00 0.  1.
<mgrwt>
<rscale>  0 0.54330120E+03</rscale>
<asrwt>0</asrwt>
<pdfrwt beam="1">  1        2 0.57827492E-01 0.54330120E+03</pdfrwt>
<pdfrwt beam="2">  1       -2 0.15491032E+00 0.54330120E+03</pdfrwt>
<totfact> 0.24211398E+01</totfact>
</mgrwt>
</event>
<event>
12    1  0.1444206E-007  0.9346339E+03  0.7818608E-02  0.9383294E-01
         -1   -1    0    0    0  501 -0.00000000000E+00  0.00000000000E+00  0.47245570408E+03  0.47245570408E+03  0.00000000000E+00 0.  1.
          1   -1    0    0  501    0  0.00000000000E+00 -0.00000000000E+00 -0.19493554371E+04  0.19493554371E+04  0.00000000000E+00 0. -1.
         23    2    1    2    0    0  0.58788069154E+03  0.63166691199E+03 -0.69318780354E+03  0.11107539380E+04  0.93049366259E+02 0.  0.
    5000000    2    1    2    0    0 -0.58788069154E+03 -0.63166691199E+03 -0.78371192947E+03  0.13110572032E+04  0.60004983666E+03 0.  0.
         23    2    4    4    0    0 -0.14398249966E+03 -0.52142994575E+03 -0.25156325329E+03  0.60323540087E+03  0.89379695220E+02 0.  0.
         23    2    4    4    0    0 -0.44389819188E+03 -0.11023696624E+03 -0.53214867618E+03  0.70782180233E+03  0.92906925568E+02 0.  0.
          4    1    3    3  502    0  0.20537397322E+03  0.28742551991E+03 -0.27636410419E+03  0.44851869131E+03  0.00000000000E+00 0. -1.
         -4    1    3    3    0  502  0.38250671832E+03  0.34424139208E+03 -0.41682369936E+03  0.66223524667E+03  0.00000000000E+00 0.  1.
         11    1    5    5    0    0 -0.70712183914E+02 -0.34484306659E+03 -0.12319406833E+03  0.37295272086E+03  0.00000000000E+00 0. -1.
        -11    1    5    5    0    0 -0.73270315751E+02 -0.17658687916E+03 -0.12836918496E+03  0.23028268000E+03  0.00000000000E+00 0.  1.
          4    1    6    6  503    0 -0.26660333587E+03 -0.52303328856E+02 -0.37991108978E+03  0.46706039550E+03  0.00000000000E+00 0.  1.
         -4    1    6    6    0  503 -0.17729485601E+03 -0.57933637385E+02 -0.15223758641E+03  0.24076140684E+03  0.00000000000E+00 0. -1.
<mgrwt>
<rscale>  0 0.93463385E+03</rscale>
<asrwt>0</asrwt>
<pdfrwt beam="1">  1        1 0.29990084E+00 0.93463385E+03</pdfrwt>
<pdfrwt beam="2">  1       -1 0.72685492E-01 0.93463385E+03</pdfrwt>
<totfact> 0.62751260E+00</totfact>
</mgrwt>
</event>
<event>
12    1  0.1444206E-007  0.7834556E+03  0.7818608E-02  0.9584278E-01
          2   -1    0    0  501    0  0.00000000000E+00  0.00000000000E+00  0.15890973859E+04  0.15890973859E+04  0.00000000000E+00 0. -1.
         -2   -1    0    0    0  501 -0.00000000000E+00 -0.00000000000E+00 -0.39544101775E+03  0.39544101775E+03  0.00000000000E+00 0.  1.
         23    2    1    2    0    0  0.78392303637E+02 -0.67105904338E+03  0.51920935242E+03  0.85679465966E+03  0.89739312467E+02 0.  0.
    5000000    2    1    2    0    0 -0.78392303637E+02  0.67105904338E+03  0.67444701574E+03  0.11277437440E+04  0.60038452853E+03 0.  0.
         23    2    4    4    0    0  0.23823695634E+03  0.40654204140E+03  0.39126071666E+03  0.62016802314E+03  0.97417399556E+02 0.  0.
         23    2    4    4    0    0 -0.31662925997E+03  0.26451700199E+03  0.28318629907E+03  0.50757572085E+03  0.84942920847E+02 0.  0.
          2    1    3    3  502    0  0.39213589026E+02 -0.28308917249E+03  0.27548574074E+03  0.39695034765E+03  0.00000000000E+00 0. -1.
         -2    1    3    3    0  502  0.39178714611E+02 -0.38796987089E+03  0.24372361168E+03  0.45984431201E+03  0.00000000000E+00 0.  1.
         11    1    5    5    0    0  0.16565308961E+03  0.34441528257E+03  0.28158303550E+03  0.47471237486E+03  0.00000000000E+00 0.  1.
        -11    1    5    5    0    0  0.72583866723E+02  0.62126758825E+02  0.10967768116E+03  0.14545564828E+03  0.00000000000E+00 0. -1.
          3    1    6    6  503    0 -0.20949405231E+03  0.15818496311E+03  0.22522364088E+03  0.34588427099E+03  0.00000000000E+00 0. -1.
         -3    1    6    6    0  503 -0.10713520767E+03  0.10633203887E+03  0.57962658190E+02  0.16169144986E+03  0.00000000000E+00 0.  1.
<mgrwt>
<rscale>  0 0.78345556E+03</rscale>
<asrwt>0</asrwt>
<pdfrwt beam="1">  1        2 0.24447652E+00 0.78345556E+03</pdfrwt>
<pdfrwt beam="2">  1       -2 0.60837081E-01 0.78345556E+03</pdfrwt>
<totfact> 0.29039035E+01</totfact>
</mgrwt>
</event>
<event>
12    1  0.1444206E-007  0.5160493E+03  0.7818608E-02  0.1009673E+00
         -1   -1    0    0    0  501 -0.00000000000E+00  0.00000000000E+00  0.72637080205E+03  0.72637080205E+03  0.00000000000E+00 0.  1.
          1   -1    0    0  501    0  0.00000000000E+00 -0.00000000000E+00 -0.48025658598E+03  0.48025658598E+03  0.00000000000E+00 0. -1.
         23    2    1    2    0    0 -0.28092381807E+03  0.27371849237E+03  0.27777151368E+03  0.48911254300E+03  0.90741728449E+02 0.  0.
    5000000    2    1    2    0    0  0.28092381807E+03 -0.27371849237E+03 -0.31657297610E+02  0.71751484503E+03  0.59998780298E+03 0.  0.
         23    2    4    4    0    0  0.39750214308E+03 -0.95580810014E+02 -0.16530490309E+03  0.45007971555E+03  0.90013301049E+02 0.  0.
         23    2    4    4    0    0 -0.11657832501E+03 -0.17813768236E+03  0.13364760548E+03  0.26743512948E+03  0.91303484549E+02 0.  0.
          2    1    3    3  502    0 -0.84897800400E+02  0.75658216604E+02  0.13332579446E+03  0.17523575468E+03  0.00000000000E+00 0.  1.
         -2    1    3    3    0  502 -0.19602601767E+03  0.19806027577E+03  0.14444571922E+03  0.31387678831E+03  0.00000000000E+00 0. -1.
         13    1    5    5    0    0  0.89749974123E+02  0.10867054273E+02 -0.57115790123E+02  0.10693626235E+03  0.00000000000E+00 0.  1.
        -13    1    5    5    0    0  0.30775216896E+03 -0.10644786429E+03 -0.10818911297E+03  0.34314345320E+03  0.00000000000E+00 0. -1.
          1    1    6    6  503    0 -0.85251506066E+02 -0.67668248770E+02  0.30379085647E+02  0.11300309740E+03  0.00000000000E+00 0. -1.
         -1    1    6    6    0  503 -0.31326818946E+02 -0.11046943359E+03  0.10326851983E+03  0.15443203207E+03  0.00000000000E+00 0.  1.
<mgrwt>
<rscale>  0 0.51604927E+03</rscale>
<asrwt>0</asrwt>
<pdfrwt beam="1">  1        1 0.73885629E-01 0.51604927E+03</pdfrwt>
<pdfrwt beam="2">  1       -1 0.11174935E+00 0.51604927E+03</pdfrwt>
<totfact> 0.36158006E+01</totfact>
</mgrwt>
</event>
<event>
12    1  0.1444206E-007  0.4085537E+03  0.7818608E-02  0.1040857E+00
         -2   -1    0    0    0  501 -0.00000000000E+00  0.00000000000E+00  0.75687529235E+03  0.75687529235E+03  0.00000000000E+00 0. -1.
          2   -1    0    0  501    0  0.00000000000E+00 -0.00000000000E+00 -0.45919590215E+03  0.45919590215E+03  0.00000000000E+00 0.  1.
         23    2    1    2    0    0  0.27140447356E+03 -0.27264145848E+03  0.31086360190E+03  0.50328164794E+03  0.93072471832E+02 0.  0.
    5000000    2    1    2    0    0 -0.27140447356E+03  0.27264145848E+03 -0.13184211693E+02  0.71278954656E+03  0.59991779528E+03 0.  0.
         23    2    4    4    0    0 -0.10905533415E+03  0.17704126022E+03  0.27523161949E+03  0.35663863463E+03  0.90564880694E+02 0.  0.
         23    2    4    4    0    0 -0.16234913941E+03  0.95600198262E+02 -0.28841583119E+03  0.35615091193E+03  0.90350093612E+02 0.  0.
          1    1    3    3  502    0  0.12233244677E+03 -0.13376172576E+03  0.20511427716E+03  0.27373215651E+03  0.00000000000E+00 0. -1.
         -1    1    3    3    0  502  0.14907202679E+03 -0.13887973273E+03  0.10574932474E+03  0.22954949143E+03  0.00000000000E+00 0.  1.
         11    1    5    5    0    0 -0.11605425149E+03  0.12470650364E+03  0.18055929553E+03  0.24823770975E+03  0.00000000000E+00 0. -1.
        -11    1    5    5    0    0  0.69989173441E+01  0.52334756579E+02  0.94672323960E+02  0.10840092488E+03  0.00000000000E+00 0.  1.
          4    1    6    6  503    0 -0.16355515426E+03  0.10831871697E+03 -0.27038513569E+03  0.33405292175E+03  0.00000000000E+00 0. -1.
         -4    1    6    6    0  503  0.12060148482E+01 -0.12718518704E+02 -0.18030695495E+02  0.22097990178E+02  0.00000000000E+00 0.  1.
<mgrwt>
<rscale>  0 0.40855374E+03</rscale>
<asrwt>0</asrwt>
<pdfrwt beam="1">  1        2 0.70645524E-01 0.40855374E+03</pdfrwt>
<pdfrwt beam="2">  1       -2 0.11644235E+00 0.40855374E+03</pdfrwt>
<totfact> 0.40580687E+01</totfact>
</mgrwt>
</event>
<event>
12    1  0.1444206E-007  0.6549888E+03  0.7818608E-02  0.9797463E-01
          1   -1    0    0  501    0  0.00000000000E+00  0.00000000000E+00  0.92121193260E+03  0.92121193260E+03  0.00000000000E+00 0. -1.
         -1   -1    0    0    0  501 -0.00000000000E+00 -0.00000000000E+00 -0.50996904315E+03  0.50996904315E+03  0.00000000000E+00 0.  1.
         23    2    1    2    0    0  0.59093071240E+02  0.52652402879E+03  0.31886552005E+03  0.62532929010E+03  0.92962127900E+02 0.  0.
    5000000    2    1    2    0    0 -0.59093071240E+02 -0.52652402879E+03  0.92377369405E+02  0.80585168564E+03  0.60011983547E+03 0.  0.
         23    2    4    4    0    0 -0.27096402379E+03 -0.47603879851E+03  0.86935496449E+01  0.55567675777E+03  0.93094798171E+02 0.  0.
         23    2    4    4    0    0  0.21187095255E+03 -0.50485230276E+02  0.83683819760E+02  0.25017492787E+03  0.90257707914E+02 0.  0.
          4    1    3    3  502    0  0.70348761270E+02  0.49880386404E+03  0.28015083611E+03  0.57640153883E+03  0.00000000000E+00 0.  1.
         -4    1    3    3    0  502 -0.11255690030E+02  0.27720164744E+02  0.38714683944E+02  0.48927751270E+02  0.00000000000E+00 0. -1.
         11    1    5    5    0    0 -0.83985889595E+02 -0.23385339596E+03  0.21794136795E+02  0.24943140310E+03  0.00000000000E+00 0.  1.
        -11    1    5    5    0    0 -0.18697813419E+03 -0.24218540255E+03 -0.13100587150E+02  0.30624535467E+03  0.00000000000E+00 0. -1.
          2    1    6    6  503    0  0.69276207149E+02 -0.37284322605E+02 -0.96174086195E+01  0.79257858523E+02  0.00000000000E+00 0. -1.
         -2    1    6    6    0  503  0.14259474540E+03 -0.13200907671E+02  0.93301228379E+02  0.17091706935E+03  0.00000000000E+00 0.  1.
<mgrwt>
<rscale>  0 0.65498879E+03</rscale>
<asrwt>0</asrwt>
<pdfrwt beam="1">  1        1 0.14172491E+00 0.65498879E+03</pdfrwt>
<pdfrwt beam="2">  1       -1 0.78456776E-01 0.65498879E+03</pdfrwt>
<totfact> 0.29510336E+01</totfact>
</mgrwt>
</event>
<event>
12    1  0.1444206E-007  0.1218845E+04  0.7818608E-02  0.9096520E-01
          2   -1    0    0  501    0  0.00000000000E+00  0.00000000000E+00  0.30597087836E+04  0.30597087836E+04  0.00000000000E+00 0. -1.
         -2   -1    0    0    0  501 -0.00000000000E+00 -0.00000000000E+00 -0.62811681132E+03  0.62811681132E+03  0.00000000000E+00 0.  1.
         23    2    1    2    0    0  0.63077015429E+03 -0.10365602001E+04  0.18506170646E+04  0.22147724486E+04  0.90030234929E+02 0.  0.
    5000000    2    1    2    0    0 -0.63077015429E+03  0.10365602001E+04  0.58097490764E+03  0.14730531463E+04  0.60002141003E+03 0.  0.
         23    2    4    4    0    0 -0.36770152633E+03  0.55233813309E+03  0.30220246365E+01  0.66979208856E+03  0.91271482622E+02 0.  0.
         23    2    4    4    0    0 -0.26306862797E+03  0.48422206703E+03  0.57795288301E+03  0.80326105774E+03  0.86733377002E+02 0.  0.
          3    1    3    3  502    0  0.22908119885E+03 -0.41873891448E+03  0.65894447491E+03  0.81365121225E+03  0.00000000000E+00 0. -1.
         -3    1    3    3    0  502  0.40168895544E+03 -0.61782128564E+03  0.11916725897E+04  0.14011212364E+04  0.00000000000E+00 0.  1.
         11    1    5    5    0    0 -0.35974230232E+03  0.50293849727E+03 -0.86398444588E+01  0.61841434575E+03  0.00000000000E+00 0.  1.
        -11    1    5    5    0    0 -0.79592240047E+01  0.49399635814E+02  0.11661869095E+02  0.51377742809E+02  0.00000000000E+00 0. -1.
          3    1    6    6  503    0  0.13339271266E+01  0.26011226039E+02  0.47054814087E+02  0.53782141743E+02  0.00000000000E+00 0. -1.
         -3    1    6    6    0  503 -0.26440255509E+03  0.45821084099E+03  0.53089806892E+03  0.74947891600E+03  0.00000000000E+00 0.  1.
<mgrwt>
<rscale>  0 0.12188446E+04</rscale>
<asrwt>0</asrwt>
<pdfrwt beam="1">  1        2 0.47072442E+00 0.12188446E+04</pdfrwt>
<pdfrwt beam="2">  1       -2 0.96633358E-01 0.12188446E+04</pdfrwt>
<totfact> 0.14147950E+00</totfact>
</mgrwt>
</event>
<event>
12    1  0.1444206E-007  0.3806019E+03  0.7818608E-02  0.1050712E+00
          1   -1    0    0  501    0  0.00000000000E+00  0.00000000000E+00  0.99069823432E+03  0.99069823432E+03  0.00000000000E+00 0. -1.
         -1   -1    0    0    0  501 -0.00000000000E+00 -0.00000000000E+00 -0.30585214758E+03  0.30585214758E+03  0.00000000000E+00 0.  1.
         23    2    1    2    0    0  0.25514172588E+03  0.17266211895E+03 -0.18269137985E+02  0.32220347658E+03  0.92584077010E+02 0.  0.
    5000000    2    1    2    0    0 -0.25514172588E+03 -0.17266211895E+03  0.70311522473E+03  0.97434690531E+03  0.60005946792E+03 0.  0.
         23    2    4    4    0    0  0.36438113779E+02 -0.10592815642E+03  0.63827360713E+03  0.65449806758E+03  0.91793313774E+02 0.  0.
         23    2    4    4    0    0 -0.29157983966E+03 -0.66733962532E+02  0.64841617606E+02  0.31984883774E+03  0.92879593974E+02 0.  0.
          2    1    3    3  502    0  0.15205776007E+03  0.74440750282E+02  0.29837165541E+02  0.17191057020E+03  0.00000000000E+00 0. -1.
         -2    1    3    3    0  502  0.10308396581E+03  0.98221368664E+02 -0.48106303527E+02  0.15029290638E+03  0.00000000000E+00 0.  1.
         13    1    5    5    0    0 -0.62098308776E+01  0.10639684157E+02  0.15676066815E+03  0.15724398863E+03  0.00000000000E+00 0.  1.
        -13    1    5    5    0    0  0.42647944657E+02 -0.11656784057E+03  0.48151293897E+03  0.49725407895E+03  0.00000000000E+00 0. -1.
          1    1    6    6  503    0 -0.19819545457E+03 -0.88701696413E+02  0.40637050397E+02  0.22090902884E+03  0.00000000000E+00 0. -1.
         -1    1    6    6    0  503 -0.93384385093E+02  0.21967733881E+02  0.24204567209E+02  0.98939808899E+02  0.00000000000E+00 0.  1.
<mgrwt>
<rscale>  0 0.38060192E+03</rscale>
<asrwt>0</asrwt>
<pdfrwt beam="1">  1        1 0.15241511E+00 0.38060192E+03</pdfrwt>
<pdfrwt beam="2">  1       -1 0.47054177E-01 0.38060192E+03</pdfrwt>
<totfact> 0.74089358E+01</totfact>
</mgrwt>
</event>
<event>
12    1  0.1444206E-007  0.9368640E+03  0.7818608E-02  0.9380638E-01
         -2   -1    0    0    0  501 -0.00000000000E+00  0.00000000000E+00  0.47337618196E+03  0.47337618196E+03  0.00000000000E+00 0.  1.
          2   -1    0    0  501    0  0.00000000000E+00 -0.00000000000E+00 -0.25517108377E+04  0.25517108377E+04  0.00000000000E+00 0. -1.
         23    2    1    2    0    0 -0.89197999855E+03 -0.14248668943E+03 -0.32599840686E+03  0.96439668986E+03  0.88629789926E+02 0.  0.
    5000000    2    1    2    0    0  0.89197999855E+03  0.14248668943E+03 -0.17523362489E+04  0.20606903298E+04  0.59985959333E+03 0.  0.
         23    2    4    4    0    0  0.84489542345E+03  0.20142032539E+03 -0.11359162849E+04  0.14329083021E+04  0.92206138605E+02 0.  0.
         23    2    4    4    0    0  0.47084575103E+02 -0.58933635968E+02 -0.61641996399E+03  0.62778202767E+03  0.91905231584E+02 0.  0.
          1    1    3    3  502    0 -0.88737284708E+03 -0.13476627004E+03 -0.32719527142E+03  0.95532678331E+03  0.00000000000E+00 0. -1.
         -1    1    3    3    0  502 -0.46071514764E+01 -0.77204193815E+01  0.11968645549E+01  0.90699065549E+01  0.00000000000E+00 0.  1.
         13    1    5    5    0    0  0.28814323156E+03  0.80933170970E+02 -0.32386448730E+03  0.44098175267E+03  0.00000000000E+00 0. -1.
        -13    1    5    5    0    0  0.55675219189E+03  0.12048715442E+03 -0.81205179756E+03  0.99192654944E+03  0.00000000000E+00 0.  1.
          1    1    6    6  503    0 -0.14049437606E+02 -0.24093165909E+02 -0.52130782124E+02  0.59122633444E+02  0.00000000000E+00 0. -1.
         -1    1    6    6    0  503  0.61134012708E+02 -0.34840470059E+02 -0.56428918187E+03  0.56865939422E+03  0.00000000000E+00 0.  1.
<mgrwt>
<rscale>  0 0.93686396E+03</rscale>
<asrwt>0</asrwt>
<pdfrwt beam="1">  1        2 0.39257089E+00 0.93686396E+03</pdfrwt>
<pdfrwt beam="2">  1       -2 0.72827106E-01 0.93686396E+03</pdfrwt>
<totfact> 0.56492059E+00</totfact>
</mgrwt>
</event>
<event>
12    1  0.1444206E-007  0.1391597E+04  0.7818608E-02  0.8959924E-01
          2   -1    0    0  501    0  0.00000000000E+00  0.00000000000E+00  0.20127249557E+04  0.20127249557E+04  0.00000000000E+00 0. -1.
         -2   -1    0    0    0  501 -0.00000000000E+00 -0.00000000000E+00 -0.12338512367E+04  0.12338512367E+04  0.00000000000E+00 0.  1.
         23    2    1    2    0    0  0.24566219528E+03 -0.13654829192E+04 -0.25701125144E+03  0.14141618737E+04  0.94368982961E+02 0.  0.
    5000000    2    1    2    0    0 -0.24566219528E+03  0.13654829192E+04  0.10358849705E+04  0.18324143187E+04  0.59982584692E+03 0.  0.
         23    2    4    4    0    0 -0.22939327517E+03  0.96421786572E+03  0.39622765835E+03  0.10712169909E+04  0.90399762699E+02 0.  0.
         23    2    4    4    0    0 -0.16268920109E+02  0.40126505345E+03  0.63965731211E+03  0.76119732780E+03  0.94771166645E+02 0.  0.
          1    1    3    3  502    0  0.20845426711E+03 -0.11472987137E+04 -0.18045862685E+03  0.11799630655E+04  0.00000000000E+00 0. -1.
         -1    1    3    3    0  502  0.37207928176E+02 -0.21818420549E+03 -0.76552624594E+02  0.23419880823E+03  0.00000000000E+00 0.  1.
         11    1    5    5    0    0 -0.15378609391E+03  0.72293869672E+03  0.25667718811E+03  0.78241529944E+03  0.00000000000E+00 0.  1.
        -11    1    5    5    0    0 -0.75607181260E+02  0.24127916899E+03  0.13955047024E+03  0.28880169146E+03  0.00000000000E+00 0. -1.
          3    1    6    6  503    0  0.30431598437E+01  0.32900470709E+03  0.45105230920E+03  0.55830237662E+03  0.00000000000E+00 0. -1.
         -3    1    6    6    0  503 -0.19312079953E+02  0.72260346355E+02  0.18860500292E+03  0.20289495117E+03  0.00000000000E+00 0.  1.
<mgrwt>
<rscale>  0 0.13915971E+04</rscale>
<asrwt>0</asrwt>
<pdfrwt beam="1">  1        2 0.30964999E+00 0.13915971E+04</pdfrwt>
<pdfrwt beam="2">  1       -2 0.18982327E+00 0.13915971E+04</pdfrwt>
<totfact> 0.97113567E-01</totfact>
</mgrwt>
</event>
<event>
12    1  0.1444206E-007  0.9387292E+03  0.7818608E-02  0.9378422E-01
         -2   -1    0    0    0  501 -0.00000000000E+00  0.00000000000E+00  0.71195226754E+03  0.71195226754E+03  0.00000000000E+00 0.  1.
          2   -1    0    0  501    0  0.00000000000E+00 -0.00000000000E+00 -0.14974056811E+04  0.14974056811E+04  0.00000000000E+00 0. -1.
         23    2    1    2    0    0 -0.72524253583E+03 -0.51405392194E+03 -0.69676130036E+03  0.11331155362E+04  0.90809350797E+02 0.  0.
    5000000    2    1    2    0    0  0.72524253583E+03  0.51405392194E+03 -0.88692113170E+02  0.10762424124E+04  0.60016936690E+03 0.  0.
         23    2    4    4    0    0  0.17058109246E+03  0.37188128272E+03 -0.23354823303E+03  0.47950547655E+03  0.89370729805E+02 0.  0.
         23    2    4    4    0    0  0.55466144337E+03  0.14217263922E+03  0.14485611986E+03  0.59673693589E+03  0.85142815859E+02 0.  0.
          1    1    3    3  502    0 -0.32911917283E+03 -0.23088551498E+03 -0.37271459885E+03  0.54821868186E+03  0.00000000000E+00 0. -1.
         -1    1    3    3    0  502 -0.39612336301E+03 -0.28316840696E+03 -0.32404670151E+03  0.58489685431E+03  0.00000000000E+00 0.  1.
         13    1    5    5    0    0  0.95429360965E+02  0.23129317627E+03 -0.92840912371E+02  0.26687587252E+03  0.00000000000E+00 0. -1.
        -13    1    5    5    0    0  0.75151731494E+02  0.14058810645E+03 -0.14070732066E+03  0.21262960403E+03  0.00000000000E+00 0.  1.
          4    1    6    6  503    0  0.10774323293E+03  0.63584496488E+02  0.30122591103E+02  0.12868163400E+03  0.00000000000E+00 0. -1.
         -4    1    6    6    0  503  0.44691821045E+03  0.78588142728E+02  0.11473352876E+03  0.46805530189E+03  0.00000000000E+00 0.  1.
<mgrwt>
<rscale>  0 0.93872923E+03</rscale>
<asrwt>0</asrwt>
<pdfrwt beam="1">  1        2 0.23037010E+00 0.93872923E+03</pdfrwt>
<pdfrwt beam="2">  1       -2 0.10953112E+00 0.93872923E+03</pdfrwt>
<totfact> 0.84659332E+00</totfact>
</mgrwt>
</event>
<event>
12    1  0.1444206E-007  0.9386932E+03  0.7818608E-02  0.9378465E-01
          2   -1    0    0  501    0  0.00000000000E+00  0.00000000000E+00  0.40324403153E+04  0.40324403153E+04  0.00000000000E+00 0.  1.
         -2   -1    0    0    0  501 -0.00000000000E+00 -0.00000000000E+00 -0.27557650960E+03  0.27557650960E+03  0.00000000000E+00 0. -1.
         23    2    1    2    0    0  0.55123442704E+03  0.71154395314E+03  0.24499825260E+04  0.26115699518E+04  0.87914987303E+02 0.  0.
    5000000    2    1    2    0    0 -0.55123442704E+03 -0.71154395314E+03  0.13068812797E+04  0.16964468731E+04  0.59986592087E+03 0.  0.
         23    2    4    4    0    0 -0.48484300823E+03 -0.35477436200E+03  0.11275138634E+04  0.12806333070E+04  0.88298155516E+02 0.  0.
         23    2    4    4    0    0 -0.66391418812E+02 -0.35676959114E+03  0.17936741628E+03  0.41581356602E+03  0.95057298582E+02 0.  0.
          2    1    3    3  502    0  0.27270491255E+03  0.41885025473E+03  0.13103706132E+04  0.14024530827E+04  0.00000000000E+00 0. -1.
         -2    1    3    3    0  502  0.27852951449E+03  0.29269369841E+03  0.11396119127E+04  0.12091168691E+04  0.00000000000E+00 0.  1.
         11    1    5    5    0    0 -0.15133161552E+03 -0.12399146318E+03  0.28639201470E+03  0.34683645553E+03  0.00000000000E+00 0. -1.
        -11    1    5    5    0    0 -0.33351139270E+03 -0.23078289882E+03  0.84112184874E+03  0.93379685151E+03  0.00000000000E+00 0.  1.
          4    1    6    6  503    0 -0.86442593396E+02 -0.28723685075E+03  0.16387589587E+03  0.34180789872E+03  0.00000000000E+00 0. -1.
         -4    1    6    6    0  503  0.20051174584E+02 -0.69532740389E+02  0.15491520409E+02  0.74005667301E+02  0.00000000000E+00 0.  1.
<mgrwt>
<rscale>  0 0.93869324E+03</rscale>
<asrwt>0</asrwt>
<pdfrwt beam="1">  1        2 0.62037539E+00 0.93869324E+03</pdfrwt>
<pdfrwt beam="2">  1       -2 0.42396389E-01 0.93869324E+03</pdfrwt>
<totfact> 0.18130757E+00</totfact>
</mgrwt>
</event>
<event>
12    1  0.1444206E-007  0.5334650E+03  0.7818608E-02  0.1005395E+00
          1   -1    0    0  501    0  0.00000000000E+00  0.00000000000E+00  0.33261105790E+04  0.33261105790E+04  0.00000000000E+00 0. -1.
         -1   -1    0    0    0  501 -0.00000000000E+00 -0.00000000000E+00 -0.20047310533E+03  0.20047310533E+03  0.00000000000E+00 0.  1.
         23    2    1    2    0    0  0.27703401685E+03 -0.24652135463E+03  0.26474957317E+04  0.26744548208E+04  0.77164202104E+02 0.  0.
    5000000    2    1    2    0    0 -0.27703401685E+03  0.24652135463E+03  0.47814174191E+03  0.85212886351E+03  0.59998620809E+03 0.  0.
         23    2    4    4    0    0 -0.44170725228E+03  0.21377411342E+03  0.41929356887E+03  0.65189125102E+03  0.91380730831E+02 0.  0.
         23    2    4    4    0    0  0.16467323544E+03  0.32747241204E+02  0.58848173042E+02  0.20023761249E+03  0.91882194743E+02 0.  0.
          4    1    3    3  502    0  0.18112213112E+03 -0.20655074508E+03  0.19549342615E+04  0.19741419411E+04  0.00000000000E+00 0.  1.
         -4    1    3    3    0  502  0.95911885727E+02 -0.39970609551E+02  0.69256147021E+03  0.70031287970E+03  0.00000000000E+00 0. -1.
         13    1    5    5    0    0 -0.11610201119E+03  0.97507522238E+02  0.10294506718E+03  0.18326232769E+03  0.00000000000E+00 0. -1.
        -13    1    5    5    0    0 -0.32560524110E+03  0.11626659119E+03  0.31634850168E+03  0.46862892332E+03  0.00000000000E+00 0.  1.
          2    1    6    6  503    0  0.82244288085E+01  0.33505435096E+02  0.54657189655E+01  0.34930352045E+02  0.00000000000E+00 0. -1.
         -2    1    6    6    0  503  0.15644880663E+03 -0.75819389166E+00  0.53382454076E+02  0.16530726045E+03  0.00000000000E+00 0.  1.
<mgrwt>
<rscale>  0 0.53346500E+03</rscale>
<asrwt>0</asrwt>
<pdfrwt beam="1">  1        1 0.51170928E+00 0.53346500E+03</pdfrwt>
<pdfrwt beam="2">  1       -1 0.30842019E-01 0.53346500E+03</pdfrwt>
<totfact> 0.37550907E+00</totfact>
</mgrwt>
</event>
<event>
12    1  0.1444206E-007  0.8252837E+03  0.7818608E-02  0.9524124E-01
          2   -1    0    0  501    0  0.00000000000E+00  0.00000000000E+00  0.34682392424E+04  0.34682392424E+04  0.00000000000E+00 0. -1.
         -2   -1    0    0    0  501 -0.00000000000E+00 -0.00000000000E+00 -0.24352446942E+03  0.24352446942E+03  0.00000000000E+00 0.  1.
         23    2    1    2    0    0  0.68892067605E+03  0.39230173053E+03  0.18577649522E+04  0.20214632809E+04  0.80689732644E+02 0.  0.
    5000000    2    1    2    0    0 -0.68892067605E+03 -0.39230173053E+03  0.13669498208E+04  0.16903004309E+04  0.60004282217E+03 0.  0.
         23    2    4    4    0    0 -0.56266323896E+03 -0.17581857290E+03  0.48358345903E+03  0.76770320549E+03  0.89516248942E+02 0.  0.
         23    2    4    4    0    0 -0.12625743709E+03 -0.21648315763E+03  0.88336636179E+03  0.92259722542E+03  0.89686193225E+02 0.  0.
          4    1    3    3  502    0  0.11125241012E+03  0.37998738928E+02  0.32366380310E+03  0.34435339457E+03  0.00000000000E+00 0. -1.
         -4    1    3    3    0  502  0.57766826592E+03  0.35430299160E+03  0.15341011491E+04  0.16771098863E+04  0.00000000000E+00 0.  1.
         13    1    5    5    0    0 -0.21524547732E+03 -0.71884713394E+02  0.24320714344E+03  0.33263755372E+03  0.00000000000E+00 0. -1.
        -13    1    5    5    0    0 -0.34741776163E+03 -0.10393385950E+03  0.24037631559E+03  0.43506565176E+03  0.00000000000E+00 0.  1.
          2    1    6    6  503    0 -0.12504891564E+03 -0.13400350198E+03  0.63209341195E+03  0.65813087701E+03  0.00000000000E+00 0. -1.
         -2    1    6    6    0  503 -0.12085214517E+01 -0.82479655647E+02  0.25127294984E+03  0.26446634841E+03  0.00000000000E+00 0.  1.
<mgrwt>
<rscale>  0 0.82528366E+03</rscale>
<asrwt>0</asrwt>
<pdfrwt beam="1">  1        2 0.53357523E+00 0.82528366E+03</pdfrwt>
<pdfrwt beam="2">  1       -2 0.37465305E-01 0.82528366E+03</pdfrwt>
<totfact> 0.61279209E+00</totfact>
</mgrwt>
</event>
<event>
12    1  0.1444206E-007  0.1293975E+04  0.7818608E-02  0.9034356E-01
          1   -1    0    0  501    0  0.00000000000E+00  0.00000000000E+00  0.24819155975E+04  0.24819155975E+04  0.00000000000E+00 0. -1.
         -1   -1    0    0    0  501 -0.00000000000E+00 -0.00000000000E+00 -0.10185812743E+04  0.10185812743E+04  0.00000000000E+00 0.  1.
         23    2    1    2    0    0 -0.56951621496E+03  0.10964319915E+04 -0.29090369718E+03  0.12725076315E+04  0.90215742434E+02 0.  0.
    5000000    2    1    2    0    0  0.56951621496E+03 -0.10964319915E+04  0.17542380203E+04  0.22279892402E+04  0.60006098963E+03 0.  0.
         23    2    4    4    0    0  0.48070776660E+03 -0.35041375075E+03  0.94111005569E+03  0.11170559989E+04  0.90863712045E+02 0.  0.
         23    2    4    4    0    0  0.88808448366E+02 -0.74601824076E+03  0.81312796466E+03  0.11109332413E+04  0.92549574081E+02 0.  0.
          1    1    3    3  502    0 -0.18472886449E+03  0.44456304587E+03 -0.96756877592E+02  0.49104271554E+03  0.00000000000E+00 0. -1.
         -1    1    3    3    0  502 -0.38478735048E+03  0.65186894564E+03 -0.19414681959E+03  0.78146491599E+03  0.00000000000E+00 0.  1.
         13    1    5    5    0    0  0.25397688817E+03 -0.15835153129E+03  0.39807728902E+03  0.49804115816E+03  0.00000000000E+00 0.  1.
        -13    1    5    5    0    0  0.22673087843E+03 -0.19206221945E+03  0.54303276667E+03  0.61901484074E+03  0.00000000000E+00 0. -1.
          3    1    6    6  503    0  0.42883073981E+02 -0.17159138531E+03  0.24058348943E+03  0.29860170283E+03  0.00000000000E+00 0. -1.
         -3    1    6    6    0  503  0.45925374385E+02 -0.57442685545E+03  0.57254447523E+03  0.81233153847E+03  0.00000000000E+00 0.  1.
<mgrwt>
<rscale>  0 0.12939754E+04</rscale>
<asrwt>0</asrwt>
<pdfrwt beam="1">  1        1 0.38183317E+00 0.12939754E+04</pdfrwt>
<pdfrwt beam="2">  1       -1 0.15670481E+00 0.12939754E+04</pdfrwt>
<totfact> 0.42036189E-01</totfact>
</mgrwt>
</event>
<event>
12    1  0.1444206E-007  0.1869419E+04  0.7818608E-02  0.8670230E-01
         -2   -1    0    0    0  501 -0.00000000000E+00  0.00000000000E+00  0.12466068046E+04  0.12466068046E+04  0.00000000000E+00 0.  1.
          2   -1    0    0  501    0  0.00000000000E+00 -0.00000000000E+00 -0.38629803943E+04  0.38629803943E+04  0.00000000000E+00 0. -1.
         23    2    1    2    0    0 -0.74796309549E+03 -0.17067415563E+04 -0.25385169490E+04  0.31503930989E+04  0.92156631290E+02 0.  0.
    5000000    2    1    2    0    0  0.74796309549E+03  0.17067415563E+04 -0.77856640724E+02  0.19591941000E+04  0.59997027660E+03 0.  0.
         23    2    4    4    0    0  0.73162189688E+03  0.15267648163E+04  0.88147219131E+02  0.16975936383E+04  0.88163621706E+02 0.  0.
         23    2    4    4    0    0  0.16341198615E+02  0.17997674001E+03 -0.16600385985E+03  0.26160046175E+03  0.90657919587E+02 0.  0.
          3    1    3    3  502    0 -0.37147598882E+03 -0.79284819740E+03 -0.12607657127E+04  0.15349699856E+04  0.00000000000E+00 0. -1.
         -3    1    3    3    0  502 -0.37648710668E+03 -0.91389335890E+03 -0.12777512363E+04  0.16154231132E+04  0.00000000000E+00 0.  1.
         11    1    5    5    0    0  0.67897569237E+03  0.14489064606E+04  0.68475657612E+02  0.16015701165E+04  0.00000000000E+00 0.  1.
        -11    1    5    5    0    0  0.52646204509E+02  0.77858355742E+02  0.19671561519E+02  0.96023521809E+02  0.00000000000E+00 0. -1.
          4    1    6    6  503    0  0.15173976096E+02  0.14631685181E+03 -0.76153105994E+02  0.16564469876E+03  0.00000000000E+00 0.  1.
         -4    1    6    6    0  503  0.11672225191E+01  0.33659888203E+02 -0.89850753860E+02  0.95955762992E+02  0.00000000000E+00 0. -1.
<mgrwt>
<rscale>  0 0.18694187E+04</rscale>
<asrwt>0</asrwt>
<pdfrwt beam="1">  1        2 0.59430468E+00 0.18694187E+04</pdfrwt>
<pdfrwt beam="2">  1       -2 0.19178566E+00 0.18694187E+04</pdfrwt>
<totfact> 0.60263357E-02</totfact>
</mgrwt>
</event>
<event>
12    1  0.1444206E-007  0.6078426E+03  0.7818608E-02  0.9889267E-01
          2   -1    0    0  501    0  0.00000000000E+00  0.00000000000E+00  0.14332010021E+04  0.14332010021E+04  0.00000000000E+00 0. -1.
         -2   -1    0    0    0  501 -0.00000000000E+00 -0.00000000000E+00 -0.26407374111E+03  0.26407374111E+03  0.00000000000E+00 0.  1.
         23    2    1    2    0    0  0.41374817165E+03  0.19796196429E+03  0.35817946812E+03  0.58908008817E+03  0.91358251135E+02 0.  0.
    5000000    2    1    2    0    0 -0.41374817165E+03 -0.19796196429E+03  0.81094779288E+03  0.11081946551E+04  0.60006881427E+03 0.  0.
         23    2    4    4    0    0  0.11436219960E+03 -0.16255220869E+03  0.22741706675E+03  0.31546248958E+03  0.91083076581E+02 0.  0.
         23    2    4    4    0    0 -0.52811037125E+03 -0.35409755602E+02  0.58353072613E+03  0.79273216547E+03  0.88100867291E+02 0.  0.
          1    1    3    3  502    0  0.24888702603E+03  0.90234716316E+02  0.25125639370E+03  0.36498880960E+03  0.00000000000E+00 0. -1.
         -1    1    3    3    0  502  0.16486114562E+03  0.10772724797E+03  0.10692307442E+03  0.22409127858E+03  0.00000000000E+00 0.  1.
         13    1    5    5    0    0 -0.14686931674E+01 -0.70855492003E+02  0.71557296791E+02  0.10071298094E+03  0.00000000000E+00 0.  1.
        -13    1    5    5    0    0  0.11583089276E+03 -0.91696716684E+02  0.15585976996E+03  0.21474950864E+03  0.00000000000E+00 0. -1.
          1    1    6    6  503    0 -0.28589075840E+03  0.21139408842E+02  0.28621061441E+03  0.40508877563E+03  0.00000000000E+00 0.  1.
         -1    1    6    6    0  503 -0.24221961285E+03 -0.56549164443E+02  0.29732011173E+03  0.38764338984E+03  0.00000000000E+00 0. -1.
<mgrwt>
<rscale>  0 0.60784262E+03</rscale>
<asrwt>0</asrwt>
<pdfrwt beam="1">  1        2 0.22049246E+00 0.60784262E+03</pdfrwt>
<pdfrwt beam="2">  1       -2 0.40626730E-01 0.60784262E+03</pdfrwt>
<totfact> 0.82130556E+01</totfact>
</mgrwt>
</event>
<event>
12    1  0.1444206E-007  0.3203652E+03  0.7818608E-02  0.1075481E+00
          1   -1    0    0  501    0  0.00000000000E+00  0.00000000000E+00  0.17101982755E+04  0.17101982755E+04  0.00000000000E+00 0.  1.
         -1   -1    0    0    0  501 -0.00000000000E+00 -0.00000000000E+00 -0.12258124788E+03  0.12258124788E+03  0.00000000000E+00 0. -1.
         23    2    1    2    0    0 -0.29082953200E+02  0.24094291161E+03  0.34597809854E+03  0.43282554877E+03  0.93476233255E+02 0.  0.
    5000000    2    1    2    0    0  0.29082953200E+02 -0.24094291161E+03  0.12416389291E+04  0.13999539746E+04  0.59942021651E+03 0.  0.
         23    2    4    4    0    0  0.11607365139E+03 -0.35599222577E+02  0.20163637748E+02  0.15490365822E+03  0.94064732221E+02 0.  0.
         23    2    4    4    0    0 -0.86990698191E+02 -0.20534368903E+03  0.12214752913E+04  0.12450503164E+04  0.91733258820E+02 0.  0.
          2    1    3    3  502    0 -0.58651853334E+02  0.13557699049E+03  0.23012852486E+03  0.27345986580E+03  0.00000000000E+00 0.  1.
         -2    1    3    3    0  502  0.29568900134E+02  0.10536592112E+03  0.11584957368E+03  0.15936568297E+03  0.00000000000E+00 0. -1.
         13    1    5    5    0    0  0.10638626186E+03 -0.63605269295E+02  0.16023400876E+02  0.12498166414E+03  0.00000000000E+00 0. -1.
        -13    1    5    5    0    0  0.96873895306E+01  0.28006046717E+02  0.41402368715E+01  0.29921994085E+02  0.00000000000E+00 0.  1.
          4    1    6    6  503    0 -0.50671613260E+02 -0.52795412747E+02  0.58420504100E+03  0.58877032697E+03  0.00000000000E+00 0.  1.
         -4    1    6    6    0  503 -0.36319084931E+02 -0.15254827629E+03  0.63727025035E+03  0.65627998942E+03  0.00000000000E+00 0. -1.
<mgrwt>
<rscale>  0 0.32036519E+03</rscale>
<asrwt>0</asrwt>
<pdfrwt beam="1">  1        1 0.26310741E+00 0.32036519E+03</pdfrwt>
<pdfrwt beam="2">  1       -1 0.18858655E-01 0.32036519E+03</pdfrwt>
<totfact> 0.11507156E+02</totfact>
</mgrwt>
</event>
<event>
12    1  0.1444206E-007  0.6552345E+03  0.7818608E-02  0.9797006E-01
         -1   -1    0    0    0  501 -0.00000000000E+00  0.00000000000E+00  0.69500280736E+03  0.69500280736E+03  0.00000000000E+00 0.  1.
          1   -1    0    0  501    0  0.00000000000E+00 -0.00000000000E+00 -0.89507737368E+03  0.89507737368E+03  0.00000000000E+00 0. -1.
         23    2    1    2    0    0  0.28638829132E+03 -0.53483977871E+03 -0.37475215236E+03  0.71892928437E+03  0.91369020613E+02 0.  0.
    5000000    2    1    2    0    0 -0.28638829132E+03  0.53483977871E+03  0.17467758604E+03  0.87115089666E+03  0.60026642701E+03 0.  0.
         23    2    4    4    0    0 -0.35735028787E+03  0.35139006627E+03 -0.10282089231E+03  0.51977254664E+03  0.91745067598E+02 0.  0.
         23    2    4    4    0    0  0.70961996550E+02  0.18344971244E+03  0.27749847835E+03  0.35137835002E+03  0.88158592477E+02 0.  0.
          1    1    3    3  502    0  0.41875306042E+02 -0.15721972370E+03 -0.82051855331E+02  0.18221989392E+03  0.00000000000E+00 0. -1.
         -1    1    3    3    0  502  0.24451298528E+03 -0.37762005501E+03 -0.29270029703E+03  0.53670939045E+03  0.00000000000E+00 0.  1.
         11    1    5    5    0    0 -0.21114757084E+03  0.20567679903E+03 -0.14113002962E+02  0.29510238763E+03  0.00000000000E+00 0. -1.
        -11    1    5    5    0    0 -0.14620271703E+03  0.14571326724E+03 -0.88707889352E+02  0.22467015901E+03  0.00000000000E+00 0.  1.
          2    1    6    6  503    0  0.18898241809E+02  0.45437375779E+02  0.14492068128E+03  0.15304803992E+03  0.00000000000E+00 0. -1.
         -2    1    6    6    0  503  0.52063754741E+02  0.13801233666E+03  0.13257779708E+03  0.19833031011E+03  0.00000000000E+00 0.  1.
<mgrwt>
<rscale>  0 0.65523453E+03</rscale>
<asrwt>0</asrwt>
<pdfrwt beam="1">  1        1 0.13770421E+00 0.65523453E+03</pdfrwt>
<pdfrwt beam="2">  1       -1 0.10692351E+00 0.65523453E+03</pdfrwt>
<totfact> 0.15626010E+01</totfact>
</mgrwt>
</event>
<event>
12    1  0.1444206E-007  0.1723174E+04  0.7818608E-02  0.8748256E-01
         -2   -1    0    0    0  501 -0.00000000000E+00  0.00000000000E+00  0.15656049410E+04  0.15656049410E+04  0.00000000000E+00 0.  1.
          2   -1    0    0  501    0  0.00000000000E+00 -0.00000000000E+00 -0.19756234779E+04  0.19756234779E+04  0.00000000000E+00 0. -1.
         23    2    1    2    0    0 -0.15416027428E+04 -0.66465212138E+03 -0.50658830547E+03  0.17558331378E+04  0.89536795316E+02 0.  0.
    5000000    2    1    2    0    0  0.15416027428E+04  0.66465212138E+03  0.96569768615E+02  0.17853952811E+04  0.60000760882E+03 0.  0.
         23    2    4    4    0    0  0.39259846384E+03 -0.72233771252E+02 -0.33871408822E+02  0.41119187222E+03  0.92629433361E+02 0.  0.
         23    2    4    4    0    0  0.11490042789E+04  0.73688589263E+03  0.13044117744E+03  0.13742034089E+04  0.90600532458E+02 0.  0.
          3    1    3    3  502    0 -0.83609774819E+03 -0.40653060499E+03 -0.29469290713E+03  0.97527969672E+03  0.00000000000E+00 0. -1.
         -3    1    3    3    0  502 -0.70550499457E+03 -0.25812151639E+03 -0.21189539834E+03  0.78055344111E+03  0.00000000000E+00 0.  1.
         13    1    5    5    0    0  0.13861764824E+03 -0.10408780121E+02 -0.53754498135E+02  0.14903939471E+03  0.00000000000E+00 0.  1.
        -13    1    5    5    0    0  0.25398081560E+03 -0.61824991131E+02  0.19883089313E+02  0.26215247751E+03  0.00000000000E+00 0. -1.
          2    1    6    6  503    0  0.47120830734E+03  0.29844655939E+03  0.97982940257E+02  0.56631111088E+03  0.00000000000E+00 0. -1.
         -2    1    6    6    0  503  0.67779597157E+03  0.43843933324E+03  0.32458237180E+02  0.80789229800E+03  0.00000000000E+00 0.  1.
<mgrwt>
<rscale>  0 0.17231744E+04</rscale>
<asrwt>0</asrwt>
<pdfrwt beam="1">  1        2 0.30394207E+00 0.17231744E+04</pdfrwt>
<pdfrwt beam="2">  1       -2 0.24086230E+00 0.17231744E+04</pdfrwt>
<totfact> 0.46260565E-01</totfact>
</mgrwt>
</event>
<event>
12    1  0.1444206E-007  0.5882218E+03  0.7818608E-02  0.9930148E-01
         -2   -1    0    0    0  501 -0.00000000000E+00  0.00000000000E+00  0.70934206571E+03  0.70934206571E+03  0.00000000000E+00 0.  1.
          2   -1    0    0  501    0  0.00000000000E+00 -0.00000000000E+00 -0.12485994166E+04  0.12485994166E+04  0.00000000000E+00 0. -1.
         23    2    1    2    0    0 -0.47178868446E+03  0.70430621716E+02  0.47993951206E+03  0.68258386921E+03  0.89631289217E+02 0.  0.
    5000000    2    1    2    0    0  0.47178868446E+03 -0.70430621716E+02 -0.10191968630E+04  0.12753576131E+04  0.60019143663E+03 0.  0.
         23    2    4    4    0    0  0.18446038908E+03  0.20607206422E+03 -0.69618678868E+03  0.75483088891E+03  0.92748559774E+02 0.  0.
         23    2    4    4    0    0  0.28732829538E+03 -0.27650268593E+03 -0.32301007430E+03  0.52052672422E+03  0.87185307630E+02 0.  0.
          3    1    3    3  502    0 -0.28043338313E+03  0.61107992064E+02  0.34218291134E+03  0.44661640574E+03  0.00000000000E+00 0. -1.
         -3    1    3    3    0  502 -0.19135530133E+03  0.93226296516E+01  0.13775660072E+03  0.23596746346E+03  0.00000000000E+00 0.  1.
         11    1    5    5    0    0  0.11738499396E+03  0.62730755309E+02 -0.33661978839E+03  0.36197688656E+03  0.00000000000E+00 0.  1.
        -11    1    5    5    0    0  0.67075395124E+02  0.14334130891E+03 -0.35956700028E+03  0.39285400235E+03  0.00000000000E+00 0. -1.
          3    1    6    6  503    0  0.52895657160E+02 -0.99704752191E+02 -0.11148658498E+03  0.15864503391E+03  0.00000000000E+00 0. -1.
         -3    1    6    6    0  503  0.23443263822E+03 -0.17679793374E+03 -0.21152348933E+03  0.36188169030E+03  0.00000000000E+00 0.  1.
<mgrwt>
<rscale>  0 0.58822176E+03</rscale>
<asrwt>0</asrwt>
<pdfrwt beam="1">  1        2 0.19209222E+00 0.58822176E+03</pdfrwt>
<pdfrwt beam="2">  1       -2 0.10912955E+00 0.58822176E+03</pdfrwt>
<totfact> 0.12387416E+01</totfact>
</mgrwt>
</event>
<event>
12    1  0.1444206E-007  0.5288896E+03  0.7818608E-02  0.1006502E+00
         -1   -1    0    0    0  501 -0.00000000000E+00  0.00000000000E+00  0.15045990702E+03  0.15045990702E+03  0.00000000000E+00 0.  1.
          1   -1    0    0  501    0  0.00000000000E+00 -0.00000000000E+00 -0.29628285635E+04  0.29628285635E+04  0.00000000000E+00 0. -1.
         23    2    1    2    0    0 -0.29344190757E+03 -0.27517575621E+03 -0.19278855141E+04  0.19714049335E+04  0.88684872799E+02 0.  0.
    5000000    2    1    2    0    0  0.29344190757E+03  0.27517575621E+03 -0.88448314239E+03  0.11418835370E+04  0.59979807677E+03 0.  0.
         23    2    4    4    0    0  0.14540109818E+02  0.34716494937E+03 -0.70451134525E+03  0.79118008308E+03  0.94312095794E+02 0.  0.
         23    2    4    4    0    0  0.27890179775E+03 -0.71989193152E+02 -0.17997179714E+03  0.35070345389E+03  0.87375099901E+02 0.  0.
          3    1    3    3  502    0 -0.13139542187E+03 -0.72175880826E+02 -0.80818581356E+03  0.82197227684E+03  0.00000000000E+00 0. -1.
         -3    1    3    3    0  502 -0.16204648570E+03 -0.20299987539E+03 -0.11196997005E+04  0.11494326567E+04  0.00000000000E+00 0.  1.
         11    1    5    5    0    0  0.19832404356E+02  0.11562741703E+03 -0.15135872581E+03  0.19150062066E+03  0.00000000000E+00 0. -1.
        -11    1    5    5    0    0 -0.52922945375E+01  0.23153753233E+03 -0.55315261944E+03  0.59967946242E+03  0.00000000000E+00 0.  1.
          3    1    6    6  503    0  0.17860997979E+03 -0.51540917735E+01 -0.88494213559E+02  0.19939738057E+03  0.00000000000E+00 0. -1.
         -3    1    6    6    0  503  0.10029181796E+03 -0.66835101379E+02 -0.91477583576E+02  0.15130607332E+03  0.00000000000E+00 0.  1.
<mgrwt>
<rscale>  0 0.52888964E+03</rscale>
<asrwt>0</asrwt>
<pdfrwt beam="1">  1        1 0.45581977E+00 0.52888964E+03</pdfrwt>
<pdfrwt beam="2">  1       -1 0.23147679E-01 0.52888964E+03</pdfrwt>
<totfact> 0.11263531E+01</totfact>
</mgrwt>
</event>
<event>
12    1  0.1444206E-007  0.1191274E+04  0.7818608E-02  0.9120529E-01
          1   -1    0    0  501    0  0.00000000000E+00  0.00000000000E+00  0.14622986909E+04  0.14622986909E+04  0.00000000000E+00 0. -1.
         -1   -1    0    0    0  501 -0.00000000000E+00 -0.00000000000E+00 -0.13043153818E+04  0.13043153818E+04  0.00000000000E+00 0.  1.
         23    2    1    2    0    0  0.94081611505E+03 -0.65195093195E+03  0.72213651251E+03  0.13564669636E+04  0.91359185152E+02 0.  0.
    5000000    2    1    2    0    0 -0.94081611505E+03  0.65195093195E+03 -0.56415320339E+03  0.14101471091E+04  0.60005920742E+03 0.  0.
         23    2    4    4    0    0 -0.47602050274E+02 -0.68544409805E+02 -0.13045325986E+03  0.17997820058E+03  0.91705007336E+02 0.  0.
         23    2    4    4    0    0 -0.89321406478E+03  0.72049534175E+03 -0.43369994353E+03  0.12301689085E+04  0.90967024104E+02 0.  0.
          1    1    3    3  502    0  0.84690508293E+03 -0.59111202553E+03  0.68170456222E+03  0.12374905076E+04  0.00000000000E+00 0. -1.
         -1    1    3    3    0  502  0.93911032118E+02 -0.60838906423E+02  0.40431950292E+02  0.11897645604E+03  0.00000000000E+00 0.  1.
         11    1    5    5    0    0  0.29627789897E+01 -0.14223421143E+02 -0.97844168855E+02  0.98916960867E+02  0.00000000000E+00 0. -1.
        -11    1    5    5    0    0 -0.50564829264E+02 -0.54320988661E+02 -0.32609091003E+02  0.81061239712E+02  0.00000000000E+00 0.  1.
          1    1    6    6  503    0 -0.52184884599E+03  0.45823349979E+03 -0.29796841879E+03  0.75570453021E+03  0.00000000000E+00 0. -1.
         -1    1    6    6    0  503 -0.37136521879E+03  0.26226184197E+03 -0.13573152474E+03  0.47446437831E+03  0.00000000000E+00 0.  1.
<mgrwt>
<rscale>  0 0.11912736E+04</rscale>
<asrwt>0</asrwt>
<pdfrwt beam="1">  1        1 0.22496903E+00 0.11912736E+04</pdfrwt>
<pdfrwt beam="2">  1       -1 0.20066390E+00 0.11912736E+04</pdfrwt>
<totfact> 0.10150984E+00</totfact>
</mgrwt>
</event>
<event>
12    1  0.1444206E-007  0.8351227E+03  0.7818608E-02  0.9510525E-01
          2   -1    0    0  501    0  0.00000000000E+00  0.00000000000E+00  0.25462415161E+04  0.25462415161E+04  0.00000000000E+00 0. -1.
         -2   -1    0    0    0  501 -0.00000000000E+00 -0.00000000000E+00 -0.30890887754E+03  0.30890887754E+03  0.00000000000E+00 0.  1.
         23    2    1    2    0    0  0.28124474894E+03 -0.68042817199E+03  0.56697444966E+03  0.93365789692E+03  0.90420881847E+02 0.  0.
    5000000    2    1    2    0    0 -0.28124474894E+03  0.68042817199E+03  0.16703581889E+04  0.19214924967E+04  0.59996319024E+03 0.  0.
         23    2    4    4    0    0 -0.44871639266E+03  0.42524292540E+03  0.11961659505E+04  0.13500368963E+04  0.98023944468E+02 0.  0.
         23    2    4    4    0    0  0.16747164373E+03  0.25518524659E+03  0.47419223837E+03  0.57145560035E+03  0.92395685550E+02 0.  0.
          1    1    3    3  502    0  0.19220439981E+03 -0.54055091000E+03  0.46940666589E+03  0.74126947569E+03  0.00000000000E+00 0. -1.
         -1    1    3    3    0  502  0.89040349122E+02 -0.13987726199E+03  0.97567783773E+02  0.19238842123E+03  0.00000000000E+00 0.  1.
         11    1    5    5    0    0 -0.21232577643E+03  0.14720207367E+03  0.55744621076E+03  0.61440781548E+03  0.00000000000E+00 0. -1.
        -11    1    5    5    0    0 -0.23639061623E+03  0.27804085172E+03  0.63871973974E+03  0.73562908086E+03  0.00000000000E+00 0.  1.
          2    1    6    6  503    0  0.66363881168E+02  0.70194264811E+02  0.22620763216E+03  0.24597010466E+03  0.00000000000E+00 0. -1.
         -2    1    6    6    0  503  0.10110776256E+03  0.18499098178E+03  0.24798460621E+03  0.32548549569E+03  0.00000000000E+00 0.  1.
<mgrwt>
<rscale>  0 0.83512273E+03</rscale>
<asrwt>0</asrwt>
<pdfrwt beam="1">  1        2 0.39172945E+00 0.83512273E+03</pdfrwt>
<pdfrwt beam="2">  1       -2 0.47524444E-01 0.83512273E+03</pdfrwt>
<totfact> 0.14210296E+01</totfact>
</mgrwt>
</event>
<event>
12    1  0.1444206E-007  0.5562797E+03  0.7818608E-02  0.1000051E+00
         -2   -1    0    0    0  501 -0.00000000000E+00  0.00000000000E+00  0.33465422140E+03  0.33465422140E+03  0.00000000000E+00 0.  1.
          2   -1    0    0  501    0  0.00000000000E+00 -0.00000000000E+00 -0.13771409542E+04  0.13771409542E+04  0.00000000000E+00 0. -1.
         23    2    1    2    0    0 -0.46661651575E+03  0.19782216704E+03 -0.18093537480E+03  0.54591060595E+03  0.91739834813E+02 0.  0.
    5000000    2    1    2    0    0  0.46661651575E+03 -0.19782216704E+03 -0.86155135798E+03  0.11658845696E+04  0.60012624067E+03 0.  0.
         23    2    4    4    0    0  0.27425981115E+03  0.45617563112E+02 -0.77787276835E+03  0.83103403225E+03  0.90730992184E+02 0.  0.
         23    2    4    4    0    0  0.19235670460E+03 -0.24343973015E+03 -0.83678589635E+02  0.33485053739E+03  0.94121049769E+02 0.  0.
          1    1    3    3  502    0 -0.23641305194E+03  0.97230469591E+02 -0.42700925414E+02  0.25916840930E+03  0.00000000000E+00 0. -1.
         -1    1    3    3    0  502 -0.23020346380E+03  0.10059169745E+03 -0.13823444939E+03  0.28674219665E+03  0.00000000000E+00 0.  1.
         11    1    5    5    0    0  0.30646256886E+02  0.33912611678E+02 -0.17053293814E+03  0.17655237546E+03  0.00000000000E+00 0. -1.
        -11    1    5    5    0    0  0.24361355426E+03  0.11704951433E+02 -0.60733983021E+03  0.65448165679E+03  0.00000000000E+00 0.  1.
          3    1    6    6  503    0  0.12995050168E+03 -0.20529586543E+03 -0.31490882164E+02  0.24500041002E+03  0.00000000000E+00 0. -1.
         -3    1    6    6    0  503  0.62406202914E+02 -0.38143864721E+02 -0.52187707471E+02  0.89850127374E+02  0.00000000000E+00 0.  1.
<mgrwt>
<rscale>  0 0.55627974E+03</rscale>
<asrwt>0</asrwt>
<pdfrwt beam="1">  1        2 0.21186784E+00 0.55627974E+03</pdfrwt>
<pdfrwt beam="2">  1       -2 0.51485265E-01 0.55627974E+03</pdfrwt>
<totfact> 0.55418431E+01</totfact>
</mgrwt>
</event>
<event>
12    1  0.1444206E-007  0.8908610E+03  0.7818608E-02  0.9437078E-01
         -1   -1    0    0    0  501 -0.00000000000E+00  0.00000000000E+00  0.61471092328E+03  0.61471092328E+03  0.00000000000E+00 0.  1.
          1   -1    0    0  501    0  0.00000000000E+00 -0.00000000000E+00 -0.13227187155E+04  0.13227187155E+04  0.00000000000E+00 0. -1.
         23    2    1    2    0    0 -0.14095865484E+03  0.78649147206E+03 -0.31064390739E+03  0.86210683735E+03  0.91051544782E+02 0.  0.
    5000000    2    1    2    0    0  0.14095865484E+03 -0.78649147206E+03 -0.39736388480E+03  0.10753228014E+04  0.59998574338E+03 0.  0.
         23    2    4    4    0    0  0.33566633494E+03 -0.27341011103E+03 -0.16361097453E+03  0.47187771765E+03  0.92060046679E+02 0.  0.
         23    2    4    4    0    0 -0.19470768010E+03 -0.51308136103E+03 -0.23375291027E+03  0.60344508375E+03  0.91334453073E+02 0.  0.
          1    1    3    3  502    0 -0.11199719913E+03  0.62075657153E+03 -0.20416477163E+03  0.66299724561E+03  0.00000000000E+00 0. -1.
         -1    1    3    3    0  502 -0.28961455713E+02  0.16573490053E+03 -0.10647913576E+03  0.19910959174E+03  0.00000000000E+00 0.  1.
         13    1    5    5    0    0  0.15913889153E+03 -0.11598662727E+03 -0.12219644981E+03  0.23175430276E+03  0.00000000000E+00 0.  1.
        -13    1    5    5    0    0  0.17652744341E+03 -0.15742348376E+03 -0.41414524727E+02  0.24012341489E+03  0.00000000000E+00 0. -1.
          1    1    6    6  503    0 -0.24341842455E+02 -0.45555958034E+02  0.43094529817E+01  0.51830898039E+02  0.00000000000E+00 0. -1.
         -1    1    6    6    0  503 -0.17036583765E+03 -0.46752540300E+03 -0.23806236325E+03  0.55161418571E+03  0.00000000000E+00 0.  1.
<mgrwt>
<rscale>  0 0.89086101E+03</rscale>
<asrwt>0</asrwt>
<pdfrwt beam="1">  1        1 0.20349519E+00 0.89086101E+03</pdfrwt>
<pdfrwt beam="2">  1       -1 0.94570911E-01 0.89086101E+03</pdfrwt>
<totfact> 0.95855786E+00</totfact>
</mgrwt>
</event>
<event>
12    1  0.1444206E-007  0.6419116E+03  0.7818608E-02  0.9822076E-01
          2   -1    0    0  501    0  0.00000000000E+00  0.00000000000E+00  0.57007072670E+03  0.57007072670E+03  0.00000000000E+00 0. -1.
         -2   -1    0    0    0  501 -0.00000000000E+00 -0.00000000000E+00 -0.78158035966E+03  0.78158035966E+03  0.00000000000E+00 0.  1.
         23    2    1    2    0    0  0.25945291955E+03 -0.43633443494E+03  0.62086607110E+02  0.51949680820E+03  0.91206525914E+02 0.  0.
    5000000    2    1    2    0    0 -0.25945291955E+03  0.43633443494E+03 -0.27359624007E+03  0.83215427816E+03  0.59993523276E+03 0.  0.
         23    2    4    4    0    0  0.13689815425E+03  0.31692255209E+03 -0.16898712714E+03  0.39527107798E+03  0.92203943992E+02 0.  0.
         23    2    4    4    0    0 -0.39635107380E+03  0.11941188285E+03 -0.10460911293E+03  0.43688320018E+03  0.92576955164E+02 0.  0.
          1    1    3    3  502    0  0.13978659068E+02 -0.88312026268E+02  0.19282751492E+02  0.91467160216E+02  0.00000000000E+00 0. -1.
         -1    1    3    3    0  502  0.24547426048E+03 -0.34802240867E+03  0.42803855619E+02  0.42802964798E+03  0.00000000000E+00 0.  1.
         11    1    5    5    0    0 -0.70617078095E+01  0.50567029720E+02 -0.45139751571E+02  0.68150490708E+02  0.00000000000E+00 0. -1.
        -11    1    5    5    0    0  0.14395986206E+03  0.26635552237E+03 -0.12384737557E+03  0.32712058727E+03  0.00000000000E+00 0.  1.
          4    1    6    6  503    0 -0.25839285446E+03  0.90190202763E+02 -0.11190558419E+03  0.29567549727E+03  0.00000000000E+00 0. -1.
         -4    1    6    6    0  503 -0.13795821934E+03  0.29221680086E+02  0.72964712615E+01  0.14120770292E+03  0.00000000000E+00 0.  1.
<mgrwt>
<rscale>  0 0.64191156E+03</rscale>
<asrwt>0</asrwt>
<pdfrwt beam="1">  1        2 0.87703189E-01 0.64191156E+03</pdfrwt>
<pdfrwt beam="2">  1       -2 0.12024313E+00 0.64191156E+03</pdfrwt>
<totfact> 0.28492292E+01</totfact>
</mgrwt>
</event>
<event>
12    1  0.1444206E-007  0.3592741E+03  0.7818608E-02  0.1058872E+00
         -2   -1    0    0    0  501 -0.00000000000E+00  0.00000000000E+00  0.13886323169E+03  0.13886323169E+03  0.00000000000E+00 0.  1.
          2   -1    0    0  501    0  0.00000000000E+00 -0.00000000000E+00 -0.13871082576E+04  0.13871082576E+04  0.00000000000E+00 0. -1.
         23    2    1    2    0    0  0.12192993918E+03  0.89460474997E+02 -0.61826130915E+03  0.64295556487E+03  0.90965517414E+02 0.  0.
    5000000    2    1    2    0    0 -0.12192993918E+03 -0.89460474997E+02 -0.62998371680E+03  0.88301592445E+03  0.59997296000E+03 0.  0.
         23    2    4    4    0    0  0.83894395869E+02  0.17401786509E+03 -0.43688291113E+03  0.48635241858E+03  0.91386596349E+02 0.  0.
         23    2    4    4    0    0 -0.20582433505E+03 -0.26347834009E+03 -0.19310080567E+03  0.39666350586E+03  0.90936918461E+02 0.  0.
          1    1    3    3  502    0  0.76503734829E+02  0.75663249785E+01 -0.36315810515E+03  0.37120598063E+03  0.00000000000E+00 0. -1.
         -1    1    3    3    0  502  0.45426204350E+02  0.81894150018E+02 -0.25510320399E+03  0.27174958424E+03  0.00000000000E+00 0.  1.
         13    1    5    5    0    0 -0.11048609784E+01  0.84267502060E+02 -0.23474449002E+03  0.24941372901E+03  0.00000000000E+00 0. -1.
        -13    1    5    5    0    0  0.84999256848E+02  0.89750363033E+02 -0.20213842111E+03  0.23693868958E+03  0.00000000000E+00 0.  1.
          3    1    6    6  503    0 -0.11996327082E+03 -0.10292874172E+03 -0.12770113454E+03  0.20320701755E+03  0.00000000000E+00 0. -1.
         -3    1    6    6    0  503 -0.85861064225E+02 -0.16054959837E+03 -0.65399671129E+02  0.19345648831E+03  0.00000000000E+00 0.  1.
<mgrwt>
<rscale>  0 0.35927407E+03</rscale>
<asrwt>0</asrwt>
<pdfrwt beam="1">  1        2 0.21340127E+00 0.35927407E+03</pdfrwt>
<pdfrwt beam="2">  1       -2 0.21363574E-01 0.35927407E+03</pdfrwt>
<totfact> 0.29288614E+02</totfact>
</mgrwt>
</event>
<event>
12    1  0.1444206E-007  0.6778002E+03  0.7818608E-02  0.9755969E-01
          1   -1    0    0  501    0  0.00000000000E+00  0.00000000000E+00  0.57685022462E+03  0.57685022462E+03  0.00000000000E+00 0. -1.
         -1   -1    0    0    0  501 -0.00000000000E+00 -0.00000000000E+00 -0.10454068469E+04  0.10454068469E+04  0.00000000000E+00 0.  1.
         23    2    1    2    0    0 -0.55074164576E+03 -0.27335580019E+03 -0.44223033581E+03  0.76279601437E+03  0.90831358834E+02 0.  0.
    5000000    2    1    2    0    0  0.55074164576E+03  0.27335580019E+03 -0.26326286511E+02  0.85946105720E+03  0.59995039929E+03 0.  0.
         23    2    4    4    0    0  0.22404937628E+03  0.32630213133E+03  0.19535948574E+03  0.45092331126E+03  0.92169951969E+02 0.  0.
         23    2    4    4    0    0  0.32669226949E+03 -0.52946331138E+02 -0.22168577225E+03  0.40853774594E+03  0.90704770093E+02 0.  0.
          1    1    3    3  502    0 -0.40465051300E+03 -0.23677814314E+03 -0.30712521618E+03  0.56047464274E+03  0.00000000000E+00 0. -1.
         -1    1    3    3    0  502 -0.14609113276E+03 -0.36577657056E+02 -0.13510511964E+03  0.20232137163E+03  0.00000000000E+00 0.  1.
         13    1    5    5    0    0  0.12206918823E+03  0.24857721281E+03  0.14976634745E+03  0.31483563374E+03  0.00000000000E+00 0.  1.
        -13    1    5    5    0    0  0.10198018805E+03  0.77724918518E+02  0.45593138289E+02  0.13608767752E+03  0.00000000000E+00 0. -1.
          3    1    6    6  503    0  0.24602231906E+03 -0.42501949863E+02 -0.11634027718E+03  0.27544229398E+03  0.00000000000E+00 0. -1.
         -3    1    6    6    0  503  0.80669950429E+02 -0.10444381275E+02 -0.10534549507E+03  0.13309545197E+03  0.00000000000E+00 0.  1.
<mgrwt>
<rscale>  0 0.67780018E+03</rscale>
<asrwt>0</asrwt>
<pdfrwt beam="1">  1        1 0.88746189E-01 0.67780018E+03</pdfrwt>
<pdfrwt beam="2">  1       -1 0.16083182E+00 0.67780018E+03</pdfrwt>
<totfact> 0.10856419E+01</totfact>
</mgrwt>
</event>
<event>
12    1  0.1444206E-007  0.6746713E+03  0.7818608E-02  0.9761556E-01
         -2   -1    0    0    0  501 -0.00000000000E+00  0.00000000000E+00  0.80209558602E+03  0.80209558602E+03  0.00000000000E+00 0.  1.
          2   -1    0    0  501    0  0.00000000000E+00 -0.00000000000E+00 -0.13394416379E+04  0.13394416379E+04  0.00000000000E+00 0. -1.
         23    2    1    2    0    0 -0.61527733896E+03  0.20280330688E+03 -0.96083779703E+03  0.11623169625E+04  0.89866924173E+02 0.  0.
    5000000    2    1    2    0    0  0.61527733896E+03 -0.20280330688E+03  0.42349174510E+03  0.97922026145E+03  0.59985971456E+03 0.  0.
         23    2    4    4    0    0  0.24666032296E+03  0.38372534141E+02  0.45715992960E+03  0.52929919471E+03  0.94067369437E+02 0.  0.
         23    2    4    4    0    0  0.36861701600E+03 -0.24117584102E+03 -0.33668184498E+02  0.44992106674E+03  0.85153560529E+02 0.  0.
          1    1    3    3  502    0 -0.48803679313E+03  0.16445380586E+03 -0.69393070088E+03  0.86415553192E+03  0.00000000000E+00 0. -1.
         -1    1    3    3    0  502 -0.12724054582E+03  0.38349501015E+02 -0.26690709614E+03  0.29816143061E+03  0.00000000000E+00 0.  1.
         13    1    5    5    0    0  0.64405221170E+02  0.44991614877E+02  0.19223168152E+03  0.20766631240E+03  0.00000000000E+00 0. -1.
        -13    1    5    5    0    0  0.18225510179E+03 -0.66190807358E+01  0.26492824808E+03  0.32163288231E+03  0.00000000000E+00 0.  1.
          2    1    6    6  503    0  0.19701544336E+03 -0.12767428694E+03 -0.60497973774E+02  0.24243723579E+03  0.00000000000E+00 0. -1.
         -2    1    6    6    0  503  0.17160157263E+03 -0.11350155408E+03  0.26829789276E+02  0.20748383094E+03  0.00000000000E+00 0.  1.
<mgrwt>
<rscale>  0 0.67467128E+03</rscale>
<asrwt>0</asrwt>
<pdfrwt beam="1">  1        2 0.20606794E+00 0.67467128E+03</pdfrwt>
<pdfrwt beam="2">  1       -2 0.12339932E+00 0.67467128E+03</pdfrwt>
<totfact> 0.80244439E+00</totfact>
</mgrwt>
</event>
<event>
12    1  0.1444206E-007  0.3901427E+03  0.7818608E-02  0.1047247E+00
          2   -1    0    0  501    0  0.00000000000E+00  0.00000000000E+00  0.12709309065E+04  0.12709309065E+04  0.00000000000E+00 0. -1.
         -2   -1    0    0    0  501 -0.00000000000E+00 -0.00000000000E+00 -0.15434488386E+03  0.15434488386E+03  0.00000000000E+00 0.  1.
         23    2    1    2    0    0  0.13232998479E+03 -0.11190286690E+03  0.73609964110E+02  0.20955011674E+03  0.91974714541E+02 0.  0.
    5000000    2    1    2    0    0 -0.13232998479E+03  0.11190286690E+03  0.10429760586E+04  0.12157256737E+04  0.60013030113E+03 0.  0.
         23    2    4    4    0    0 -0.61572812975E+02 -0.22651325605E+03  0.31109814291E+03  0.40092122407E+03  0.94107953555E+02 0.  0.
         23    2    4    4    0    0 -0.70757171817E+02  0.33841612295E+03  0.73187791566E+03  0.81480444958E+03  0.93428892744E+02 0.  0.
          1    1    3    3  502    0  0.10116407128E+03 -0.12456398360E+03  0.71973499491E+02  0.17587080473E+03  0.00000000000E+00 0. -1.
         -1    1    3    3    0  502  0.31165913513E+02  0.12661116697E+02  0.16364646191E+01  0.33679312012E+02  0.00000000000E+00 0.  1.
         13    1    5    5    0    0 -0.47212698034E+02 -0.98231361901E+02  0.21132199888E+03  0.23777179506E+03  0.00000000000E+00 0.  1.
        -13    1    5    5    0    0 -0.14360114940E+02 -0.12828189415E+03  0.99776144031E+02  0.16314942901E+03  0.00000000000E+00 0. -1.
          2    1    6    6  503    0 -0.25626270120E+02  0.21815097152E+03  0.36392613226E+03  0.42507503083E+03  0.00000000000E+00 0. -1.
         -2    1    6    6    0  503 -0.45130901697E+02  0.12026515144E+03  0.36795178339E+03  0.38972941875E+03  0.00000000000E+00 0.  1.
<mgrwt>
<rscale>  0 0.39014268E+03</rscale>
<asrwt>0</asrwt>
<pdfrwt beam="1">  1        2 0.19552782E+00 0.39014268E+03</pdfrwt>
<pdfrwt beam="2">  1       -2 0.23745368E-01 0.39014268E+03</pdfrwt>
<totfact> 0.28146164E+02</totfact>
</mgrwt>
</event>
<event>
12    1  0.1444206E-007  0.1574157E+04  0.7818608E-02  0.8836583E-01
         -2   -1    0    0    0  501 -0.00000000000E+00  0.00000000000E+00  0.78081838004E+03  0.78081838004E+03  0.00000000000E+00 0.  1.
          2   -1    0    0  501    0  0.00000000000E+00 -0.00000000000E+00 -0.42391756351E+04  0.42391756351E+04  0.00000000000E+00 0. -1.
         23    2    1    2    0    0 -0.13395765683E+04 -0.78046169855E+03 -0.28577165956E+04  0.32524314110E+04  0.90443888076E+02 0.  0.
    5000000    2    1    2    0    0  0.13395765683E+04  0.78046169855E+03 -0.60064065947E+03  0.17675626042E+04  0.59993542383E+03 0.  0.
         23    2    4    4    0    0  0.29923772567E+03  0.36210618244E+03 -0.40210400403E+03  0.62503760354E+03  0.91215524748E+02 0.  0.
         23    2    4    4    0    0  0.10403388426E+04  0.41835551611E+03 -0.19853665544E+03  0.11425250007E+04  0.92845722966E+02 0.  0.
          4    1    3    3  502    0 -0.68638310286E+03 -0.45146263274E+03 -0.14965603725E+04  0.17072296920E+04  0.00000000000E+00 0. -1.
         -4    1    3    3    0  502 -0.65319346543E+03 -0.32899906581E+03 -0.13611562232E+04  0.15452017190E+04  0.00000000000E+00 0.  1.
         13    1    5    5    0    0  0.12434407226E+03  0.17107470151E+03 -0.12468303905E+03  0.24550735636E+03  0.00000000000E+00 0.  1.
        -13    1    5    5    0    0  0.17489365341E+03  0.19103148093E+03 -0.27742096497E+03  0.37953024717E+03  0.00000000000E+00 0. -1.
          3    1    6    6  503    0  0.93230627911E+03  0.34393990339E+03 -0.18286119704E+03  0.10104097548E+04  0.00000000000E+00 0. -1.
         -3    1    6    6    0  503  0.10803256352E+03  0.74415612715E+02 -0.15675458404E+02  0.13211524587E+03  0.00000000000E+00 0.  1.
<mgrwt>
<rscale>  0 0.15741571E+04</rscale>
<asrwt>0</asrwt>
<pdfrwt beam="1">  1        2 0.65218087E+00 0.15741571E+04</pdfrwt>
<pdfrwt beam="2">  1       -2 0.12012590E+00 0.15741571E+04</pdfrwt>
<totfact> 0.10935057E-01</totfact>
</mgrwt>
</event>
<event>
12    1  0.1444206E-007  0.1116710E+04  0.7818608E-02  0.9189057E-01
         -2   -1    0    0    0  501 -0.00000000000E+00  0.00000000000E+00  0.10208346213E+04  0.10208346213E+04  0.00000000000E+00 0.  1.
          2   -1    0    0  501    0  0.00000000000E+00 -0.00000000000E+00 -0.13222491168E+04  0.13222491168E+04  0.00000000000E+00 0. -1.
         23    2    1    2    0    0  0.10629808433E+04  0.20472891155E+03 -0.14498497717E+03  0.10955090130E+04  0.85306233443E+02 0.  0.
    5000000    2    1    2    0    0 -0.10629808433E+04 -0.20472891155E+03 -0.15642951834E+03  0.12475747252E+04  0.60010857372E+03 0.  0.
         23    2    4    4    0    0 -0.13492594865E+03  0.88706899691E+02 -0.19401797486E+03  0.26914739229E+03  0.93399242703E+02 0.  0.
         23    2    4    4    0    0 -0.92805489464E+03 -0.29343581124E+03  0.37588456520E+02  0.97842733288E+03  0.92285919186E+02 0.  0.
          4    1    3    3  502    0  0.53449947330E+03  0.14508039698E+03 -0.63546445169E+02  0.55747301212E+03  0.00000000000E+00 0. -1.
         -4    1    3    3    0  502  0.52848136999E+03  0.59648514565E+02 -0.81438532000E+02  0.53803600085E+03  0.00000000000E+00 0.  1.
         11    1    5    5    0    0 -0.26650758391E+02  0.49428901245E+02 -0.11929908730E+03  0.13185503946E+03  0.00000000000E+00 0. -1.
        -11    1    5    5    0    0 -0.10827519026E+03  0.39277998446E+02 -0.74718887562E+02  0.13729235283E+03  0.00000000000E+00 0.  1.
          2    1    6    6  503    0 -0.56756948971E+02 -0.38487964409E+02 -0.10240829438E+02  0.69336492906E+02  0.00000000000E+00 0. -1.
         -2    1    6    6    0  503 -0.87129794567E+03 -0.25494784683E+03  0.47829285958E+02  0.90909083997E+03  0.00000000000E+00 0.  1.
<mgrwt>
<rscale>  0 0.11167096E+04</rscale>
<asrwt>0</asrwt>
<pdfrwt beam="1">  1        2 0.20342294E+00 0.11167096E+04</pdfrwt>
<pdfrwt beam="2">  1       -2 0.15705148E+00 0.11167096E+04</pdfrwt>
<totfact> 0.41646701E+00</totfact>
</mgrwt>
</event>
<event>
12    1  0.1444206E-007  0.5756390E+03  0.7818608E-02  0.9957277E-01
         -1   -1    0    0    0  501 -0.00000000000E+00  0.00000000000E+00  0.28206930499E+03  0.28206930499E+03  0.00000000000E+00 0.  1.
          1   -1    0    0  501    0  0.00000000000E+00 -0.00000000000E+00 -0.16948276351E+04  0.16948276351E+04  0.00000000000E+00 0. -1.
         23    2    1    2    0    0  0.41657641690E+03  0.13099276681E+03 -0.10706081481E+04  0.11596647110E+04  0.89024823252E+02 0.  0.
    5000000    2    1    2    0    0 -0.41657641690E+03 -0.13099276681E+03 -0.34215018202E+03  0.81723222907E+03  0.60008895432E+03 0.  0.
         23    2    4    4    0    0 -0.50633237833E+03  0.24691758425E+02 -0.33612709957E+03  0.61523318829E+03  0.92456955525E+02 0.  0.
         23    2    4    4    0    0  0.89755961437E+02 -0.15568452523E+03 -0.60230824491E+01  0.20199904078E+03  0.92051784025E+02 0.  0.
          2    1    3    3  502    0  0.36770432264E+03  0.85414067064E+02 -0.87503156809E+03  0.95298597938E+03  0.00000000000E+00 0.  1.
         -2    1    3    3    0  502  0.48872094257E+02  0.45578699743E+02 -0.19557658001E+03  0.20667873164E+03  0.00000000000E+00 0. -1.
         13    1    5    5    0    0 -0.33789585372E+03  0.30201556576E+02 -0.27235667163E+03  0.43504470870E+03  0.00000000000E+00 0. -1.
        -13    1    5    5    0    0 -0.16843652461E+03 -0.55097981506E+01 -0.63770427938E+02  0.18018847959E+03  0.00000000000E+00 0.  1.
          1    1    6    6  503    0  0.10288330769E+03 -0.10568797467E+03  0.10129422688E+02  0.14784291730E+03  0.00000000000E+00 0. -1.
         -1    1    6    6    0  503 -0.13127346256E+02 -0.49996550563E+02 -0.16152505137E+02  0.54156123478E+02  0.00000000000E+00 0.  1.
<mgrwt>
<rscale>  0 0.57563902E+03</rscale>
<asrwt>0</asrwt>
<pdfrwt beam="1">  1        1 0.26074271E+00 0.57563902E+03</pdfrwt>
<pdfrwt beam="2">  1       -1 0.43395279E-01 0.57563902E+03</pdfrwt>
<totfact> 0.26741675E+01</totfact>
</mgrwt>
</event>
<event>
12    1  0.1444206E-007  0.8669221E+03  0.7818608E-02  0.9467902E-01
         -2   -1    0    0    0  501 -0.00000000000E+00  0.00000000000E+00  0.37951981877E+03  0.37951981877E+03  0.00000000000E+00 0.  1.
          2   -1    0    0  501    0  0.00000000000E+00 -0.00000000000E+00 -0.22522966329E+04  0.22522966329E+04  0.00000000000E+00 0. -1.
         23    2    1    2    0    0 -0.54227078208E+03  0.58541649318E+03 -0.54498012964E+03  0.97051844087E+03  0.90181099979E+02 0.  0.
    5000000    2    1    2    0    0  0.54227078208E+03 -0.58541649318E+03 -0.13277966845E+04  0.16612980108E+04  0.60008080604E+03 0.  0.
         23    2    4    4    0    0 -0.17757458906E+02 -0.28130407606E+03 -0.18297000792E+03  0.34771403308E+03  0.89329247445E+02 0.  0.
         23    2    4    4    0    0  0.56002824099E+03 -0.30411241712E+03 -0.11448266766E+04  0.13135839777E+04  0.93588216123E+02 0.  0.
          4    1    3    3  502    0 -0.24036957621E+03  0.30548066344E+03 -0.22545804457E+03  0.44936321474E+03  0.00000000000E+00 0. -1.
         -4    1    3    3    0  502 -0.30190120587E+03  0.27993582974E+03 -0.31952208506E+03  0.52115522613E+03  0.00000000000E+00 0.  1.
         13    1    5    5    0    0 -0.34358702145E+02 -0.57253981891E+02 -0.68149443371E+02  0.95409043006E+02  0.00000000000E+00 0.  1.
        -13    1    5    5    0    0  0.16601243239E+02 -0.22405009416E+03 -0.11482056455E+03  0.25230499007E+03  0.00000000000E+00 0. -1.
          1    1    6    6  503    0  0.18980347502E+03 -0.62223841801E+02 -0.40699986626E+03  0.45337187469E+03  0.00000000000E+00 0. -1.
         -1    1    6    6    0  503  0.37022476596E+03 -0.24188857532E+03 -0.73782681031E+03  0.86021210304E+03  0.00000000000E+00 0.  1.
<mgrwt>
<rscale>  0 0.86692212E+03</rscale>
<asrwt>0</asrwt>
<pdfrwt beam="1">  1        2 0.34650718E+00 0.86692212E+03</pdfrwt>
<pdfrwt beam="2">  1       -2 0.58387664E-01 0.86692212E+03</pdfrwt>
<totfact> 0.13551456E+01</totfact>
</mgrwt>
</event>
<event>
12    1  0.1444206E-007  0.2537287E+03  0.7818608E-02  0.1110971E+00
         -1   -1    0    0    0  501 -0.00000000000E+00  0.00000000000E+00  0.18590333611E+03  0.18590333611E+03  0.00000000000E+00 0.  1.
          1   -1    0    0  501    0  0.00000000000E+00 -0.00000000000E+00 -0.10889920202E+04  0.10889920202E+04  0.00000000000E+00 0. -1.
         23    2    1    2    0    0 -0.22331919332E+03 -0.27638156722E+02 -0.36485906574E+03  0.43805554936E+03  0.90195325053E+02 0.  0.
    5000000    2    1    2    0    0  0.22331919332E+03  0.27638156722E+02 -0.53822961835E+03  0.83683980695E+03  0.59997867513E+03 0.  0.
         23    2    4    4    0    0  0.14276505176E+03 -0.10848535318E+02  0.92143307254E+02  0.19333189525E+03  0.91582104825E+02 0.  0.
         23    2    4    4    0    0  0.80554141560E+02  0.38486692040E+02 -0.63037292560E+03  0.64350791170E+03  0.93606687282E+02 0.  0.
          4    1    3    3  502    0 -0.71169806044E+02 -0.45129548692E+02 -0.17410785664E+03  0.19343051259E+03  0.00000000000E+00 0. -1.
         -4    1    3    3    0  502 -0.15214938728E+03  0.17491391970E+02 -0.19075120910E+03  0.24462503677E+03  0.00000000000E+00 0.  1.
         13    1    5    5    0    0  0.12580362166E+03 -0.15040083951E+02  0.11040847808E+03  0.16805590552E+03  0.00000000000E+00 0. -1.
        -13    1    5    5    0    0  0.16961430105E+02  0.41915486331E+01 -0.18265170830E+02  0.25275989725E+02  0.00000000000E+00 0.  1.
          2    1    6    6  503    0  0.29084257504E+02 -0.28944450629E+02 -0.28121340247E+03  0.28419122609E+03  0.00000000000E+00 0. -1.
         -2    1    6    6    0  503  0.51469884056E+02  0.67431142670E+02 -0.34915952314E+03  0.35931668562E+03  0.00000000000E+00 0.  1.
<mgrwt>
<rscale>  0 0.25372871E+03</rscale>
<asrwt>0</asrwt>
<pdfrwt beam="1">  1        1 0.16753723E+00 0.25372871E+03</pdfrwt>
<pdfrwt beam="2">  1       -1 0.28600514E-01 0.25372871E+03</pdfrwt>
<totfact> 0.15454499E+02</totfact>
</mgrwt>
</event>
<event>
12    1  0.1444206E-007  0.5187247E+03  0.7818608E-02  0.1009004E+00
          2   -1    0    0  501    0  0.00000000000E+00  0.00000000000E+00  0.31190814198E+04  0.31190814198E+04  0.00000000000E+00 0.  1.
         -2   -1    0    0    0  501 -0.00000000000E+00 -0.00000000000E+00 -0.92006451681E+02  0.92006451681E+02  0.00000000000E+00 0. -1.
         23    2    1    2    0    0 -0.10966931281E+03 -0.33668835918E+03  0.12578356079E+04  0.13098679723E+04  0.90649208099E+02 0.  0.
    5000000    2    1    2    0    0  0.10966931281E+03  0.33668835918E+03  0.17692393603E+04  0.19012198992E+04  0.59920178738E+03 0.  0.
         23    2    4    4    0    0 -0.17215447065E+03  0.34079636052E+03  0.11335786637E+04  0.11997639442E+04  0.93024802024E+02 0.  0.
         23    2    4    4    0    0  0.28182378347E+03 -0.41080013469E+01  0.63566069657E+03  0.70145595509E+03  0.92381898485E+02 0.  0.
          3    1    3    3  502    0 -0.52929984150E+02 -0.27122497133E+03  0.88709586790E+03  0.92914134939E+03  0.00000000000E+00 0. -1.
         -3    1    3    3    0  502 -0.56739328663E+02 -0.65463387846E+02  0.37073973998E+03  0.38072662287E+03  0.00000000000E+00 0.  1.
         13    1    5    5    0    0 -0.94821031413E+02  0.22310464932E+03  0.58149625968E+03  0.63000366075E+03  0.00000000000E+00 0. -1.
        -13    1    5    5    0    0 -0.77333439242E+02  0.11769171120E+03  0.55208240403E+03  0.56976028340E+03  0.00000000000E+00 0.  1.
          1    1    6    6  503    0  0.16765854782E+03  0.33619807899E+02  0.30575713288E+03  0.35032428470E+03  0.00000000000E+00 0. -1.
         -1    1    6    6    0  503  0.11416523565E+03 -0.37727809246E+02  0.32990356368E+03  0.35113167039E+03  0.00000000000E+00 0.  1.
<mgrwt>
<rscale>  0 0.51872467E+03</rscale>
<asrwt>0</asrwt>
<pdfrwt beam="1">  1        2 0.47985860E+00 0.51872467E+03</pdfrwt>
<pdfrwt beam="2">  1       -2 0.14154841E-01 0.51872467E+03</pdfrwt>
<totfact> 0.62334672E+01</totfact>
</mgrwt>
</event>
<event>
12    1  0.1444206E-007  0.1482385E+04  0.7818608E-02  0.8896252E-01
          1   -1    0    0  501    0  0.00000000000E+00  0.00000000000E+00  0.36605650155E+04  0.36605650155E+04  0.00000000000E+00 0. -1.
         -1   -1    0    0    0  501 -0.00000000000E+00 -0.00000000000E+00 -0.12858916697E+04  0.12858916697E+04  0.00000000000E+00 0.  1.
         23    2    1    2    0    0 -0.14358151922E+04  0.16244417108E+03 -0.61428258404E+03  0.15727591510E+04  0.90966362070E+02 0.  0.
    5000000    2    1    2    0    0  0.14358151922E+04 -0.16244417108E+03  0.29889559298E+04  0.33736975341E+04  0.60002010485E+03 0.  0.
         23    2    4    4    0    0  0.83941500258E+03 -0.31502918228E+03  0.13761545029E+04  0.16450060278E+04  0.91556994880E+02 0.  0.
         23    2    4    4    0    0  0.59640018965E+03  0.15258501120E+03  0.16128014269E+04  0.17286915063E+04  0.90942341734E+02 0.  0.
          4    1    3    3  502    0 -0.88360746477E+02 -0.45357156767E+01 -0.20409009563E+02  0.90800451024E+02  0.00000000000E+00 0. -1.
         -4    1    3    3    0  502 -0.13474544457E+04  0.16697988676E+03 -0.59387357447E+03  0.14819587000E+04  0.00000000000E+00 0.  1.
         11    1    5    5    0    0  0.25832434983E+03 -0.78962450324E+02  0.48691336878E+03  0.55682238368E+03  0.00000000000E+00 0.  1.
        -11    1    5    5    0    0  0.58109065275E+03 -0.23606673195E+03  0.88924113415E+03  0.10881836441E+04  0.00000000000E+00 0. -1.
          3    1    6    6  503    0  0.22742570151E+03  0.10020772701E+03  0.69599363689E+03  0.73903395108E+03  0.00000000000E+00 0. -1.
         -3    1    6    6    0  503  0.36897448813E+03  0.52377284182E+02  0.91680779002E+03  0.98965755523E+03  0.00000000000E+00 0.  1.
<mgrwt>
<rscale>  0 0.14823850E+04</rscale>
<asrwt>0</asrwt>
<pdfrwt beam="1">  1        1 0.56316385E+00 0.14823850E+04</pdfrwt>
<pdfrwt beam="2">  1       -1 0.19782949E+00 0.14823850E+04</pdfrwt>
<totfact> 0.27680666E-02</totfact>
</mgrwt>
</event>
<event>
12    1  0.1444206E-007  0.1225653E+04  0.7818608E-02  0.9090694E-01
          2   -1    0    0  501    0  0.00000000000E+00  0.00000000000E+00  0.11136516108E+04  0.11136516108E+04  0.00000000000E+00 0. -1.
         -2   -1    0    0    0  501 -0.00000000000E+00 -0.00000000000E+00 -0.14068930099E+04  0.14068930099E+04  0.00000000000E+00 0.  1.
         23    2    1    2    0    0 -0.40824321787E+03  0.10945912739E+04  0.12050260105E+02  0.11720264755E+04  0.93318104656E+02 0.  0.
    5000000    2    1    2    0    0  0.40824321787E+03 -0.10945912739E+04 -0.30529165926E+03  0.13485181452E+04  0.60042119281E+03 0.  0.
         23    2    4    4    0    0 -0.21312087015E+02  0.31755203275E+02  0.42349557279E+01  0.10063636728E+03  0.92990029475E+02 0.  0.
         23    2    4    4    0    0  0.42955530489E+03 -0.11263464772E+04 -0.30952661499E+03  0.12478817779E+04  0.90708652081E+02 0.  0.
          2    1    3    3  502    0 -0.12684411344E+03  0.46934943423E+03  0.13576045114E+02  0.48637704461E+03  0.00000000000E+00 0. -1.
         -2    1    3    3    0  502 -0.28139910444E+03  0.62524183971E+03 -0.15257850083E+01  0.68564943092E+03  0.00000000000E+00 0.  1.
         11    1    5    5    0    0 -0.36221481539E+02  0.35759198340E+00  0.37774085402E+02  0.52335505394E+02  0.00000000000E+00 0.  1.
        -11    1    5    5    0    0  0.14909394524E+02  0.31397611291E+02 -0.33539129674E+02  0.48300861888E+02  0.00000000000E+00 0. -1.
          2    1    6    6  503    0  0.18322977059E+03 -0.36714658460E+03 -0.90022966039E+02  0.42008796440E+03  0.00000000000E+00 0. -1.
         -2    1    6    6    0  503  0.24632553430E+03 -0.75919989261E+03 -0.21950364895E+03  0.82779381351E+03  0.00000000000E+00 0.  1.
<mgrwt>
<rscale>  0 0.12256530E+04</rscale>
<asrwt>0</asrwt>
<pdfrwt beam="1">  1        2 0.17133102E+00 0.12256530E+04</pdfrwt>
<pdfrwt beam="2">  1       -2 0.21644508E+00 0.12256530E+04</pdfrwt>
<totfact> 0.21565783E+00</totfact>
</mgrwt>
</event>
<event>
12    1  0.1470429E-007  0.8283263E+03  0.7818608E-02  0.9519897E-01
         -2   -1    0    0    0  501 -0.00000000000E+00  0.00000000000E+00  0.61256360943E+03  0.61256360943E+03  0.00000000000E+00 0.  1.
          2   -1    0    0  501    0  0.00000000000E+00 -0.00000000000E+00 -0.14819069325E+04  0.14819069325E+04  0.00000000000E+00 0. -1.
         23    2    1    2    0    0 -0.17995119630E+03 -0.71487126040E+03  0.78188048892E+02  0.75225995907E+03  0.12789966002E+03 0.  0.
    5000000    2    1    2    0    0  0.17995119630E+03  0.71487126040E+03 -0.94753137198E+03  0.13422105829E+04  0.60024178121E+03 0.  0.
         23    2    4    4    0    0  0.27640836450E+02  0.73214143989E+03 -0.88615271703E+03  0.11533962103E+04  0.90890462819E+02 0.  0.
         23    2    4    4    0    0  0.15231035985E+03 -0.17270179488E+02 -0.61378654946E+02  0.18881437256E+03  0.91579600265E+02 0.  0.
          2    1    3    3  502    0 -0.17614713264E+03 -0.44956615755E+03  0.48595829380E+02  0.48528249194E+03  0.00000000000E+00 0.  1.
         -2    1    3    3    0  502 -0.38040636595E+01 -0.26530510285E+03  0.29592219512E+02  0.26697746713E+03  0.00000000000E+00 0. -1.
         13    1    5    5    0    0  0.52801284182E+02  0.26718543088E+03 -0.34272650689E+03  0.43776419293E+03  0.00000000000E+00 0.  1.
        -13    1    5    5    0    0 -0.25160447733E+02  0.46495600901E+03 -0.54342621014E+03  0.71563201739E+03  0.00000000000E+00 0. -1.
          1    1    6    6  503    0  0.10701509152E+03  0.23479163294E+02 -0.65672662901E+02  0.12773566289E+03  0.00000000000E+00 0. -1.
         -1    1    6    6    0  503  0.45295268326E+02 -0.40749342782E+02  0.42940079551E+01  0.61078709664E+02  0.00000000000E+00 0.  1.
<mgrwt>
<rscale>  0 0.82832634E+03</rscale>
<asrwt>0</asrwt>
<pdfrwt beam="1">  1        2 0.22798568E+00 0.82832634E+03</pdfrwt>
<pdfrwt beam="2">  1       -2 0.94240557E-01 0.82832634E+03</pdfrwt>
<totfact> 0.12517939E+01</totfact>
</mgrwt>
</event>
<event>
12    1  0.1444206E-007  0.4955659E+03  0.7818608E-02  0.1014943E+00
          2   -1    0    0  501    0  0.00000000000E+00  0.00000000000E+00  0.30026883811E+03  0.30026883811E+03  0.00000000000E+00 0. -1.
         -2   -1    0    0    0  501 -0.00000000000E+00 -0.00000000000E+00 -0.12331055521E+04  0.12331055521E+04  0.00000000000E+00 0.  1.
         23    2    1    2    0    0 -0.54564480958E+02  0.37688938499E+03 -0.67160134781E+03  0.77628962810E+03  0.80958787123E+02 0.  0.
    5000000    2    1    2    0    0  0.54564480958E+02 -0.37688938499E+03 -0.26123536616E+03  0.75708476211E+03  0.59992543652E+03 0.  0.
         23    2    4    4    0    0 -0.19680414541E+03 -0.20998598743E+03  0.59367541756E+02  0.30743601411E+03  0.90368197903E+02 0.  0.
         23    2    4    4    0    0  0.25136862637E+03 -0.16690339756E+03 -0.32060290792E+03  0.44964874799E+03  0.91404822450E+02 0.  0.
          4    1    3    3  502    0 -0.20331360668E+02  0.13639332868E+03 -0.16948741470E+03  0.21850054480E+03  0.00000000000E+00 0. -1.
         -4    1    3    3    0  502 -0.34233120290E+02  0.24049605630E+03 -0.50211393311E+03  0.55778908330E+03  0.00000000000E+00 0.  1.
         11    1    5    5    0    0 -0.97035394490E+02 -0.49870898651E+02 -0.17912528382E+01  0.10911545675E+03  0.00000000000E+00 0. -1.
        -11    1    5    5    0    0 -0.99768750920E+02 -0.16011508878E+03  0.61158794594E+02  0.19832055736E+03  0.00000000000E+00 0.  1.
          3    1    6    6  503    0  0.11575082363E+03 -0.12556555912E+03 -0.20425523585E+03  0.26624267911E+03  0.00000000000E+00 0. -1.
         -3    1    6    6    0  503  0.13561780274E+03 -0.41337838433E+02 -0.11634767207E+03  0.18340606888E+03  0.00000000000E+00 0.  1.
<mgrwt>
<rscale>  0 0.49556587E+03</rscale>
<asrwt>0</asrwt>
<pdfrwt beam="1">  1        2 0.46195206E-01 0.49556587E+03</pdfrwt>
<pdfrwt beam="2">  1       -2 0.18970855E+00 0.49556587E+03</pdfrwt>
<totfact> 0.17816343E+01</totfact>
</mgrwt>
</event>
<event>
12    1  0.1444206E-007  0.1024652E+04  0.7818608E-02  0.9281913E-01
         -1   -1    0    0    0  501 -0.00000000000E+00  0.00000000000E+00  0.65102883206E+03  0.65102883206E+03  0.00000000000E+00 0.  1.
          1   -1    0    0  501    0  0.00000000000E+00 -0.00000000000E+00 -0.17838174175E+04  0.17838174175E+04  0.00000000000E+00 0. -1.
         23    2    1    2    0    0  0.24889246813E+02 -0.94088893707E+03 -0.17180061323E+03  0.96196278143E+03  0.99827228904E+02 0.  0.
    5000000    2    1    2    0    0 -0.24889246813E+02  0.94088893707E+03 -0.96098797218E+03  0.14728834681E+04  0.59999696784E+03 0.  0.
         23    2    4    4    0    0  0.28804855133E+01  0.99712147305E+03 -0.82902530765E+03  0.12999749653E+04  0.91610155218E+02 0.  0.
         23    2    4    4    0    0 -0.27769732326E+02 -0.56232535973E+02 -0.13196266453E+03  0.17290850278E+03  0.92465936253E+02 0.  0.
          2    1    3    3  502    0 -0.37457494083E+02 -0.30031089568E+03 -0.44562785450E+02  0.30590119282E+03  0.00000000000E+00 0. -1.
         -2    1    3    3    0  502  0.62346740896E+02 -0.64057804140E+03 -0.12723782778E+03  0.65606158860E+03  0.00000000000E+00 0.  1.
         11    1    5    5    0    0 -0.74158849047E+01  0.64405696257E+03 -0.47883419711E+03  0.80258741250E+03  0.00000000000E+00 0. -1.
        -11    1    5    5    0    0  0.10296370418E+02  0.35306451047E+03 -0.35019111054E+03  0.49738755282E+03  0.00000000000E+00 0.  1.
          3    1    6    6  503    0 -0.26140881262E+01 -0.74570930785E+02 -0.11599429615E+03  0.13792147735E+03  0.00000000000E+00 0. -1.
         -3    1    6    6    0  503 -0.25155644200E+02  0.18338394812E+02 -0.15968368374E+02  0.34987025422E+02  0.00000000000E+00 0.  1.
<mgrwt>
<rscale>  0 0.10246521E+04</rscale>
<asrwt>0</asrwt>
<pdfrwt beam="1">  1        1 0.27443345E+00 0.10246521E+04</pdfrwt>
<pdfrwt beam="2">  1       -1 0.10015828E+00 0.10246521E+04</pdfrwt>
<totfact> 0.39893159E+00</totfact>
</mgrwt>
</event>
<event>
12    1  0.1444206E-007  0.9805358E+03  0.7818608E-02  0.9330154E-01
         -1   -1    0    0    0  501 -0.00000000000E+00  0.00000000000E+00  0.13030295713E+04  0.13030295713E+04  0.00000000000E+00 0.  1.
          1   -1    0    0  501    0  0.00000000000E+00 -0.00000000000E+00 -0.15596443918E+04  0.15596443918E+04  0.00000000000E+00 0. -1.
         23    2    1    2    0    0 -0.77704874842E+03  0.59142801851E+03  0.82884467298E+03  0.12840666178E+04  0.90839025549E+02 0.  0.
    5000000    2    1    2    0    0  0.77704874842E+03 -0.59142801851E+03 -0.10854594935E+04  0.15786073454E+04  0.60015579675E+03 0.  0.
         23    2    4    4    0    0  0.49241667939E+03 -0.33748137238E+03 -0.10137917884E+04  0.11800322315E+04  0.91293013486E+02 0.  0.
         23    2    4    4    0    0  0.28463206903E+03 -0.25394664613E+03 -0.71667705121E+02  0.39857511390E+03  0.90672750379E+02 0.  0.
          3    1    3    3  502    0 -0.60517755724E+03  0.46992085159E+03  0.69630414057E+03  0.10353284207E+04  0.00000000000E+00 0. -1.
         -3    1    3    3    0  502 -0.17187119118E+03  0.12150716692E+03  0.13254053241E+03  0.24873819711E+03  0.00000000000E+00 0.  1.
         13    1    5    5    0    0  0.56485246812E+02 -0.12863357144E+02 -0.13256776781E+03  0.14467294884E+03  0.00000000000E+00 0.  1.
        -13    1    5    5    0    0  0.43593143257E+03 -0.32461801523E+03 -0.88122402056E+03  0.10353592826E+04  0.00000000000E+00 0. -1.
          2    1    6    6  503    0  0.19924965771E+03 -0.19771763913E+03 -0.89863795787E+02  0.29473410511E+03  0.00000000000E+00 0. -1.
         -2    1    6    6    0  503  0.85382411326E+02 -0.56229006999E+02  0.18196090665E+02  0.10384100879E+03  0.00000000000E+00 0.  1.
<mgrwt>
<rscale>  0 0.98053584E+03</rscale>
<asrwt>0</asrwt>
<pdfrwt beam="1">  1        1 0.23994529E+00 0.98053584E+03</pdfrwt>
<pdfrwt beam="2">  1       -1 0.20046609E+00 0.98053584E+03</pdfrwt>
<totfact> 0.89838290E-01</totfact>
</mgrwt>
</event>
<event>
12    1  0.1444206E-007  0.1240466E+04  0.7818608E-02  0.9078156E-01
         -2   -1    0    0    0  501 -0.00000000000E+00  0.00000000000E+00  0.66640985964E+03  0.66640985964E+03  0.00000000000E+00 0.  1.
          2   -1    0    0  501    0  0.00000000000E+00 -0.00000000000E+00 -0.28798636853E+04  0.28798636853E+04  0.00000000000E+00 0. -1.
         23    2    1    2    0    0  0.10173133453E+03 -0.12314494571E+04 -0.16456014661E+04  0.20599156913E+04  0.91822872678E+02 0.  0.
    5000000    2    1    2    0    0 -0.10173133453E+03  0.12314494571E+04 -0.56785235952E+03  0.14863578536E+04  0.59998861400E+03 0.  0.
         23    2    4    4    0    0  0.48765478718E+00  0.37587735123E+03  0.92068139661E+02  0.39716825075E+03  0.89342353270E+02 0.  0.
         23    2    4    4    0    0 -0.10221898932E+03  0.85557210591E+03 -0.65992049918E+03  0.10891896029E+04  0.91578248522E+02 0.  0.
          3    1    3    3  502    0  0.76285411080E+02 -0.79294015766E+03 -0.98862385596E+03  0.12696261994E+04  0.00000000000E+00 0. -1.
         -3    1    3    3    0  502  0.25445923449E+02 -0.43850929948E+03 -0.65697761015E+03  0.79028949189E+03  0.00000000000E+00 0.  1.
         13    1    5    5    0    0 -0.27818652819E+02  0.24646677546E+03  0.92439456597E+02  0.26469756702E+03  0.00000000000E+00 0. -1.
        -13    1    5    5    0    0  0.28306307606E+02  0.12941057577E+03 -0.37131693618E+00  0.13247068373E+03  0.00000000000E+00 0.  1.
          2    1    6    6  503    0 -0.10998563631E+03  0.84009810783E+03 -0.63485980575E+03  0.10587297313E+04  0.00000000000E+00 0. -1.
         -2    1    6    6    0  503  0.77666469920E+01  0.15473998088E+02 -0.25060693427E+02  0.30459871591E+02  0.00000000000E+00 0.  1.
<mgrwt>
<rscale>  0 0.12404655E+04</rscale>
<asrwt>0</asrwt>
<pdfrwt beam="1">  1        2 0.44305594E+00 0.12404655E+04</pdfrwt>
<pdfrwt beam="2">  1       -2 0.10252460E+00 0.12404655E+04</pdfrwt>
<totfact> 0.15818981E+00</totfact>
</mgrwt>
</event>
<event>
12    1  0.1444206E-007  0.3755204E+03  0.7818608E-02  0.1052602E+00
          2   -1    0    0  501    0  0.00000000000E+00  0.00000000000E+00  0.75613772329E+03  0.75613772329E+03  0.00000000000E+00 0. -1.
         -2   -1    0    0    0  501 -0.00000000000E+00 -0.00000000000E+00 -0.39200758144E+03  0.39200758144E+03  0.00000000000E+00 0.  1.
         23    2    1    2    0    0 -0.32392183519E+03 -0.13889882948E+03 -0.11829332425E+01  0.36210990795E+03  0.83089987143E+02 0.  0.
    5000000    2    1    2    0    0  0.32392183519E+03  0.13889882948E+03  0.36531307509E+03  0.78603539678E+03  0.60014978299E+03 0.  0.
         23    2    4    4    0    0  0.23571391718E+03  0.15486331560E+03  0.51126156931E+03  0.59151186144E+03  0.94626596152E+02 0.  0.
         23    2    4    4    0    0  0.88207918007E+02 -0.15964486121E+02 -0.14594849422E+03  0.19452353534E+03  0.92211394191E+02 0.  0.
          3    1    3    3  502    0 -0.59709634985E+02 -0.54349194183E+02  0.22137595189E+02  0.83720657780E+02  0.00000000000E+00 0. -1.
         -3    1    3    3    0  502 -0.26421220020E+03 -0.84549635298E+02 -0.23320528431E+02  0.27838925017E+03  0.00000000000E+00 0.  1.
         11    1    5    5    0    0  0.16225683600E+03  0.68028205604E+02  0.37350488147E+03  0.41286924572E+03  0.00000000000E+00 0. -1.
        -11    1    5    5    0    0  0.73457081185E+02  0.86835109998E+02  0.13775668785E+03  0.17864261572E+03  0.00000000000E+00 0.  1.
          4    1    6    6  503    0  0.93501480075E+02 -0.82634180245E+01 -0.67734048885E+02  0.11575280658E+03  0.00000000000E+00 0. -1.
         -4    1    6    6    0  503 -0.52935620678E+01 -0.77010680970E+01 -0.78214445337E+02  0.78770728755E+02  0.00000000000E+00 0.  1.
<mgrwt>
<rscale>  0 0.37552043E+03</rscale>
<asrwt>0</asrwt>
<pdfrwt beam="1">  1        2 0.11632888E+00 0.37552043E+03</pdfrwt>
<pdfrwt beam="2">  1       -2 0.60308859E-01 0.37552043E+03</pdfrwt>
<totfact> 0.99453219E+01</totfact>
</mgrwt>
</event>
<event>
12    1  0.1444206E-007  0.9517870E+03  0.7818608E-02  0.9363064E-01
         -1   -1    0    0    0  501 -0.00000000000E+00  0.00000000000E+00  0.15940085748E+04  0.15940085748E+04  0.00000000000E+00 0.  1.
          1   -1    0    0  501    0  0.00000000000E+00 -0.00000000000E+00 -0.98169016865E+03  0.98169016865E+03  0.00000000000E+00 0. -1.
         23    2    1    2    0    0 -0.60123058090E+03 -0.61545091039E+03  0.11159133546E+04  0.14121501162E+04  0.92990867306E+02 0.  0.
    5000000    2    1    2    0    0  0.60123058090E+03  0.61545091039E+03 -0.50359494843E+03  0.11635486272E+04  0.59998291749E+03 0.  0.
         23    2    4    4    0    0 -0.75200967885E+01  0.37799016001E+03 -0.18402096696E+03  0.43053190367E+03  0.92525082435E+02 0.  0.
         23    2    4    4    0    0  0.60875067769E+03  0.23746075038E+03 -0.31957398146E+03  0.73301672353E+03  0.90669685073E+02 0.  0.
          3    1    3    3  502    0 -0.39506528336E+03 -0.45033463721E+03  0.72702628602E+03  0.94204303731E+03  0.00000000000E+00 0. -1.
         -3    1    3    3    0  502 -0.20616529754E+03 -0.16511627318E+03  0.38888706855E+03  0.47010707894E+03  0.00000000000E+00 0.  1.
         13    1    5    5    0    0 -0.15787992122E+02  0.26230830195E+02  0.51510461229E+01  0.31045940542E+02  0.00000000000E+00 0. -1.
        -13    1    5    5    0    0  0.82678953337E+01  0.35175932981E+03 -0.18917201309E+03  0.39948596313E+03  0.00000000000E+00 0.  1.
          3    1    6    6  503    0  0.23838149896E+03  0.13350623698E+03 -0.10631453974E+03  0.29317645833E+03  0.00000000000E+00 0. -1.
         -3    1    6    6    0  503  0.37036917872E+03  0.10395451340E+03 -0.21325944173E+03  0.43984026520E+03  0.00000000000E+00 0.  1.
<mgrwt>
<rscale>  0 0.95178704E+03</rscale>
<asrwt>0</asrwt>
<pdfrwt beam="1">  1        1 0.15102926E+00 0.95178704E+03</pdfrwt>
<pdfrwt beam="2">  1       -1 0.24523209E+00 0.95178704E+03</pdfrwt>
<totfact> 0.11890913E+00</totfact>
</mgrwt>
</event>
<event>
12    1  0.1444206E-007  0.7399609E+03  0.7818608E-02  0.9651233E-01
          1   -1    0    0  501    0  0.00000000000E+00  0.00000000000E+00  0.75210047598E+03  0.75210047598E+03  0.00000000000E+00 0. -1.
         -1   -1    0    0    0  501 -0.00000000000E+00 -0.00000000000E+00 -0.15939745237E+04  0.15939745237E+04  0.00000000000E+00 0.  1.
         23    2    1    2    0    0 -0.11648254008E+03  0.71896906124E+03  0.36011322526E+03  0.81791315045E+03  0.93891924590E+02 0.  0.
    5000000    2    1    2    0    0  0.11648254008E+03 -0.71896906124E+03 -0.12019872730E+04  0.15281618493E+04  0.60001711632E+03 0.  0.
         23    2    4    4    0    0  0.29757382477E+02 -0.29426877112E+03 -0.75473354157E+02  0.31756684880E+03  0.87594890264E+02 0.  0.
         23    2    4    4    0    0  0.86725157605E+02 -0.42470029012E+03 -0.11265139189E+04  0.12105950005E+04  0.92817327977E+02 0.  0.
          1    1    3    3  502    0 -0.77321970003E+02  0.42131239797E+03  0.16071286167E+03  0.45750568044E+03  0.00000000000E+00 0. -1.
         -1    1    3    3    0  502 -0.39160570079E+02  0.29765666327E+03  0.19940036359E+03  0.36040747001E+03  0.00000000000E+00 0.  1.
         13    1    5    5    0    0  0.53989472213E+02 -0.10919453118E+03 -0.30285161616E+02  0.12552091365E+03  0.00000000000E+00 0.  1.
        -13    1    5    5    0    0 -0.24232089736E+02 -0.18507423994E+03 -0.45188192541E+02  0.19204593515E+03  0.00000000000E+00 0. -1.
          1    1    6    6  503    0  0.22370442786E+02 -0.31431302790E+03 -0.77759544660E+03  0.83901596814E+03  0.00000000000E+00 0. -1.
         -1    1    6    6    0  503  0.64354714819E+02 -0.11038726222E+03 -0.34891847225E+03  0.37157903232E+03  0.00000000000E+00 0.  1.
<mgrwt>
<rscale>  0 0.73996092E+03</rscale>
<asrwt>0</asrwt>
<pdfrwt beam="1">  1        1 0.11570777E+00 0.73996092E+03</pdfrwt>
<pdfrwt beam="2">  1       -1 0.24522685E+00 0.73996092E+03</pdfrwt>
<totfact> 0.19145303E+00</totfact>
</mgrwt>
</event>
<event>
12    1  0.1444206E-007  0.7945048E+03  0.7818608E-02  0.9568005E-01
         -2   -1    0    0    0  501 -0.00000000000E+00  0.00000000000E+00  0.76493939932E+03  0.76493939932E+03  0.00000000000E+00 0.  1.
          2   -1    0    0  501    0  0.00000000000E+00 -0.00000000000E+00 -0.87092116891E+03  0.87092116891E+03  0.00000000000E+00 0. -1.
         23    2    1    2    0    0  0.68231777606E+03  0.13540929766E+03 -0.14591810892E+03  0.71620507873E+03  0.88115803733E+02 0.  0.
    5000000    2    1    2    0    0 -0.68231777606E+03 -0.13540929766E+03  0.39936339322E+02  0.91965548950E+03  0.60023169089E+03 0.  0.
         23    2    4    4    0    0  0.25524794573E+01  0.13479185088E+03  0.67000680655E+02  0.17715332686E+03  0.93374792075E+02 0.  0.
         23    2    4    4    0    0 -0.68487025552E+03 -0.27020114854E+03 -0.27064341333E+02  0.74250216264E+03  0.92309562841E+02 0.  0.
          3    1    3    3  502    0  0.22799572743E+03  0.33417984493E+02 -0.89366132021E+02  0.24715403894E+03  0.00000000000E+00 0. -1.
         -3    1    3    3    0  502  0.45432204863E+03  0.10199131317E+03 -0.56551976899E+02  0.46905103979E+03  0.00000000000E+00 0.  1.
         13    1    5    5    0    0  0.36807783474E+02  0.80174529309E+02  0.60421515767E+01  0.88426668318E+02  0.00000000000E+00 0.  1.
        -13    1    5    5    0    0 -0.34255304017E+02  0.54617321568E+02  0.60958529079E+02  0.88726658542E+02  0.00000000000E+00 0. -1.
          4    1    6    6  503    0 -0.42637540146E+03 -0.12770918945E+03  0.87054349572E+01  0.44517570086E+03  0.00000000000E+00 0. -1.
         -4    1    6    6    0  503 -0.25849485406E+03 -0.14249195909E+03 -0.35769776290E+02  0.29732646178E+03  0.00000000000E+00 0.  1.
<mgrwt>
<rscale>  0 0.79450476E+03</rscale>
<asrwt>0</asrwt>
<pdfrwt beam="1">  1        2 0.13398787E+00 0.79450476E+03</pdfrwt>
<pdfrwt beam="2">  1       -2 0.11768298E+00 0.79450476E+03</pdfrwt>
<totfact> 0.17290454E+01</totfact>
</mgrwt>
</event>
<event>
12    1  0.1444206E-007  0.1804621E+04  0.7818608E-02  0.8703846E-01
         -1   -1    0    0    0  501 -0.00000000000E+00  0.00000000000E+00  0.13922118084E+04  0.13922118084E+04  0.00000000000E+00 0.  1.
          1   -1    0    0  501    0  0.00000000000E+00 -0.00000000000E+00 -0.31209872346E+04  0.31209872346E+04  0.00000000000E+00 0. -1.
         23    2    1    2    0    0  0.17603708426E+04 -0.27556412593E+03  0.22908013534E+03  0.17988012129E+04  0.91471328998E+02 0.  0.
    5000000    2    1    2    0    0 -0.17603708426E+04  0.27556412593E+03 -0.19578555616E+04  0.27143978301E+04  0.59993006992E+03 0.  0.
         23    2    4    4    0    0 -0.47304033685E+03 -0.10048479739E+03 -0.80460941434E+03  0.94331589915E+03  0.92651072017E+02 0.  0.
         23    2    4    4    0    0 -0.12873305058E+04  0.37604892332E+03 -0.11532461473E+04  0.17710819310E+04  0.90121618295E+02 0.  0.
          3    1    3    3  502    0  0.15469247698E+04 -0.23315325059E+03  0.22977782674E+03  0.15811813721E+04  0.00000000000E+00 0. -1.
         -3    1    3    3    0  502  0.21344607282E+03 -0.42410875331E+02 -0.69769139682E+00  0.21761984083E+03  0.00000000000E+00 0.  1.
         11    1    5    5    0    0 -0.47388260854E+03 -0.99968071166E+02 -0.77628086809E+03  0.91497012415E+03  0.00000000000E+00 0.  1.
        -11    1    5    5    0    0  0.84227168336E+00 -0.51672622295E+00 -0.28328546252E+02  0.28345775000E+02  0.00000000000E+00 0. -1.
          1    1    6    6  503    0 -0.18727992128E+03  0.37895340572E+02 -0.12988839943E+03  0.23104290090E+03  0.00000000000E+00 0. -1.
         -1    1    6    6    0  503 -0.11000505845E+04  0.33815358274E+03 -0.10233577478E+04  0.15400390301E+04  0.00000000000E+00 0.  1.
<mgrwt>
<rscale>  0 0.18046213E+04</rscale>
<asrwt>0</asrwt>
<pdfrwt beam="1">  1        1 0.48015188E+00 0.18046213E+04</pdfrwt>
<pdfrwt beam="2">  1       -1 0.21418643E+00 0.18046213E+04</pdfrwt>
<totfact> 0.53468845E-02</totfact>
</mgrwt>
</event>
<event>
12    1  0.1444206E-007  0.7468302E+03  0.7818608E-02  0.9640336E-01
         -2   -1    0    0    0  501 -0.00000000000E+00  0.00000000000E+00  0.45318368114E+03  0.45318368114E+03  0.00000000000E+00 0.  1.
          2   -1    0    0  501    0  0.00000000000E+00 -0.00000000000E+00 -0.34233536181E+04  0.34233536181E+04  0.00000000000E+00 0. -1.
         23    2    1    2    0    0  0.56681808309E+03  0.25482963356E+03 -0.29452413689E+04  0.30122991193E+04  0.11523185975E+03 0.  0.
    5000000    2    1    2    0    0 -0.56681808309E+03 -0.25482963356E+03 -0.24928568037E+02  0.86423817993E+03  0.60005442809E+03 0.  0.
         23    2    4    4    0    0 -0.67599169951E+03 -0.22501113087E+03 -0.19088003010E+02  0.71842160550E+03  0.90390622137E+02 0.  0.
         23    2    4    4    0    0  0.10917361642E+03 -0.29818502691E+02 -0.58405650264E+01  0.14581657442E+03  0.91762408166E+02 0.  0.
          3    1    3    3  502    0  0.33922278557E+03  0.21328639327E+03 -0.18689651990E+04  0.19114377047E+04  0.00000000000E+00 0.  1.
         -3    1    3    3    0  502  0.22759529752E+03  0.41543240293E+02 -0.10762761699E+04  0.11008614146E+04  0.00000000000E+00 0. -1.
         13    1    5    5    0    0 -0.52601473968E+03 -0.13566054183E+03 -0.24277428295E+02  0.54376896058E+03  0.00000000000E+00 0. -1.
        -13    1    5    5    0    0 -0.14997695983E+03 -0.89350589042E+02  0.51894252848E+01  0.17465264492E+03  0.00000000000E+00 0.  1.
          1    1    6    6  503    0  0.73811760876E+02  0.25544015622E+02  0.85290263674E+01  0.78571095630E+02  0.00000000000E+00 0. -1.
         -1    1    6    6    0  503  0.35361855541E+02 -0.55362518313E+02 -0.14369591394E+02  0.67245478793E+02  0.00000000000E+00 0.  1.
<mgrwt>
<rscale>  0 0.74683018E+03</rscale>
<asrwt>0</asrwt>
<pdfrwt beam="1">  1        2 0.52666980E+00 0.74683018E+03</pdfrwt>
<pdfrwt beam="2">  1       -2 0.69720565E-01 0.74683018E+03</pdfrwt>
<totfact> 0.18697608E+00</totfact>
</mgrwt>
</event>
<event>
12    1  0.1444206E-007  0.5740971E+03  0.7818608E-02  0.9960653E-01
         -2   -1    0    0    0  501 -0.00000000000E+00  0.00000000000E+00  0.24479518112E+03  0.24479518112E+03  0.00000000000E+00 0.  1.
          2   -1    0    0  501    0  0.00000000000E+00 -0.00000000000E+00 -0.19670899492E+04  0.19670899492E+04  0.00000000000E+00 0. -1.
         23    2    1    2    0    0  0.41298478589E+03 -0.11790158677E+03 -0.12761317749E+04  0.13495718936E+04  0.91513777267E+02 0.  0.
    5000000    2    1    2    0    0 -0.41298478589E+03  0.11790158677E+03 -0.44616299318E+03  0.86231323676E+03  0.60005456774E+03 0.  0.
         23    2    4    4    0    0 -0.10784824762E+03  0.32110068788E+03 -0.28297860281E+03  0.45032227002E+03  0.89310475074E+02 0.  0.
         23    2    4    4    0    0 -0.30513653827E+03 -0.20319910111E+03 -0.16318439037E+03  0.41199096674E+03  0.93323253994E+02 0.  0.
          3    1    3    3  502    0  0.27850492941E+03 -0.10110748054E+03 -0.75365949520E+03  0.80980883734E+03  0.00000000000E+00 0. -1.
         -3    1    3    3    0  502  0.13447985648E+03 -0.16794106231E+02 -0.52247227972E+03  0.53976305624E+03  0.00000000000E+00 0.  1.
         13    1    5    5    0    0 -0.20196567436E+02  0.17517270714E+03 -0.11110768819E+03  0.20841856213E+03  0.00000000000E+00 0.  1.
        -13    1    5    5    0    0 -0.87651680188E+02  0.14592798074E+03 -0.17187091462E+03  0.24190370790E+03  0.00000000000E+00 0. -1.
          3    1    6    6  503    0 -0.12240385495E+03 -0.53454555114E+02 -0.18204215858E+02  0.13480165669E+03  0.00000000000E+00 0. -1.
         -3    1    6    6    0  503 -0.18273268331E+03 -0.14974454599E+03 -0.14498017451E+03  0.27718931005E+03  0.00000000000E+00 0.  1.
<mgrwt>
<rscale>  0 0.57409712E+03</rscale>
<asrwt>0</asrwt>
<pdfrwt beam="1">  1        2 0.30262923E+00 0.57409712E+03</pdfrwt>
<pdfrwt beam="2">  1       -2 0.37660796E-01 0.57409712E+03</pdfrwt>
<totfact> 0.48889830E+01</totfact>
</mgrwt>
</event>
<event>
12    1  0.1444206E-007  0.7632187E+03  0.7818608E-02  0.9614838E-01
         -1   -1    0    0    0  501 -0.00000000000E+00  0.00000000000E+00  0.78638368137E+03  0.78638368137E+03  0.00000000000E+00 0.  1.
          1   -1    0    0  501    0  0.00000000000E+00 -0.00000000000E+00 -0.76795244974E+03  0.76795244974E+03  0.00000000000E+00 0. -1.
         23    2    1    2    0    0 -0.79674847530E+02 -0.65272661689E+03  0.17853083069E+02  0.66413079642E+03  0.91383064407E+02 0.  0.
    5000000    2    1    2    0    0  0.79674847530E+02  0.65272661689E+03  0.57814855765E+00  0.89020533468E+03  0.60005423581E+03 0.  0.
         23    2    4    4    0    0  0.30857558726E+03  0.23523070380E+03 -0.59152707818E+02  0.40147209032E+03  0.84429967430E+02 0.  0.
         23    2    4    4    0    0 -0.22890073973E+03  0.41749591309E+03  0.59730856376E+02  0.48873324436E+03  0.92703952736E+02 0.  0.
          3    1    3    3  502    0 -0.37682911164E+02 -0.10080929953E+03  0.25350878373E+02  0.11056755266E+03  0.00000000000E+00 0. -1.
         -3    1    3    3    0  502 -0.41991936366E+02 -0.55191731735E+03 -0.74977953034E+01  0.55356324377E+03  0.00000000000E+00 0.  1.
         11    1    5    5    0    0  0.24267216759E+03  0.19626281002E+03 -0.13635889930E+02  0.31240167896E+03  0.00000000000E+00 0. -1.
        -11    1    5    5    0    0  0.65903419666E+02  0.38967893777E+02 -0.45516817888E+02  0.89070411360E+02  0.00000000000E+00 0.  1.
          3    1    6    6  503    0 -0.18575496908E+03  0.31972177196E+03  0.76437455566E+01  0.36984503086E+03  0.00000000000E+00 0. -1.
         -3    1    6    6    0  503 -0.43145770646E+02  0.97774141124E+02  0.52087110819E+02  0.11888821351E+03  0.00000000000E+00 0.  1.
<mgrwt>
<rscale>  0 0.76321866E+03</rscale>
<asrwt>0</asrwt>
<pdfrwt beam="1">  1        1 0.11814653E+00 0.76321866E+03</pdfrwt>
<pdfrwt beam="2">  1       -1 0.12098210E+00 0.76321866E+03</pdfrwt>
<totfact> 0.14709594E+01</totfact>
</mgrwt>
</event>
<event>
12    1  0.1518814E-007  0.1120899E+04  0.7818608E-02  0.9185058E-01
          2   -1    0    0  501    0  0.00000000000E+00  0.00000000000E+00  0.19034395761E+04  0.19034395761E+04  0.00000000000E+00 0.  1.
         -2   -1    0    0    0  501 -0.00000000000E+00 -0.00000000000E+00 -0.74108752320E+03  0.74108752320E+03  0.00000000000E+00 0. -1.
         23    2    1    2    0    0 -0.10426646797E+04  0.12154477896E+03  0.94553639783E+03  0.14158944875E+04  0.93783541498E+02 0.  0.
    5000000    2    1    2    0    0  0.10426646797E+04 -0.12154477896E+03  0.21681565506E+03  0.12286326118E+04  0.60050503657E+03 0.  0.
         23    2    4    4    0    0 -0.44265276250E+02 -0.28202046446E+02 -0.23375464438E+02  0.10780351467E+03  0.91216310667E+02 0.  0.
         23    2    4    4    0    0  0.10869299559E+04 -0.93342732517E+02  0.24019111950E+03  0.11208290971E+04  0.91850401640E+02 0.  0.
          3    1    3    3  502    0 -0.36510343056E+03  0.51345651971E+02  0.27411271656E+03  0.45942863686E+03  0.00000000000E+00 0. -1.
         -3    1    3    3    0  502 -0.67756124910E+03  0.70199126992E+02  0.67142368126E+03  0.95646585066E+03  0.00000000000E+00 0.  1.
         11    1    5    5    0    0 -0.29667400027E+02 -0.57372869887E+02  0.47072974401E+01  0.64760786534E+02  0.00000000000E+00 0. -1.
        -11    1    5    5    0    0 -0.14597876223E+02  0.29170823440E+02 -0.28082761878E+02  0.43042728133E+02  0.00000000000E+00 0.  1.
          2    1    6    6  503    0  0.21567670311E+03 -0.55147651151E+02  0.43241577308E+02  0.22677640463E+03  0.00000000000E+00 0. -1.
         -2    1    6    6    0  503  0.87125325280E+03 -0.38195081365E+02  0.19694954219E+03  0.89405269248E+03  0.00000000000E+00 0.  1.
<mgrwt>
<rscale>  0 0.11208995E+04</rscale>
<asrwt>0</asrwt>
<pdfrwt beam="1">  1        2 0.29283686E+00 0.11208995E+04</pdfrwt>
<pdfrwt beam="2">  1       -2 0.11401347E+00 0.11208995E+04</pdfrwt>
<totfact> 0.44824550E+00</totfact>
</mgrwt>
</event>
<event>
12    1  0.1444206E-007  0.7407178E+03  0.7818608E-02  0.9650026E-01
          2   -1    0    0  501    0  0.00000000000E+00  0.00000000000E+00  0.17018742812E+04  0.17018742812E+04  0.00000000000E+00 0. -1.
         -2   -1    0    0    0  501 -0.00000000000E+00 -0.00000000000E+00 -0.33137328233E+03  0.33137328233E+03  0.00000000000E+00 0.  1.
         23    2    1    2    0    0  0.20151026373E+02 -0.62429949845E+03  0.50302690531E+03  0.80747636328E+03  0.93947230784E+02 0.  0.
    5000000    2    1    2    0    0 -0.20151026373E+02  0.62429949845E+03  0.86747409360E+03  0.12257712003E+04  0.59987315721E+03 0.  0.
         23    2    4    4    0    0  0.20471435698E+03  0.56710389454E+03  0.67704663895E+03  0.91107315207E+03  0.90262627638E+02 0.  0.
         23    2    4    4    0    0 -0.22486538336E+03  0.57195603902E+02  0.19042745465E+03  0.31469804820E+03  0.94532895452E+02 0.  0.
          4    1    3    3  502    0 -0.33290772630E+01 -0.10421815627E+03  0.43182535308E+02  0.11285937359E+03  0.00000000000E+00 0. -1.
         -4    1    3    3    0  502  0.23480103636E+02 -0.52008134218E+03  0.45984437000E+03  0.69461698969E+03  0.00000000000E+00 0.  1.
         13    1    5    5    0    0  0.13084478320E+03  0.24873192312E+03  0.27864694606E+03  0.39576766848E+03  0.00000000000E+00 0. -1.
        -13    1    5    5    0    0  0.73869573788E+02  0.31837197143E+03  0.39839969289E+03  0.51530548359E+03  0.00000000000E+00 0.  1.
          2    1    6    6  503    0 -0.11567243965E+03  0.75257439318E+02  0.12458354704E+03  0.18591625980E+03  0.00000000000E+00 0.  1.
         -2    1    6    6    0  503 -0.10919294371E+03 -0.18061835416E+02  0.65843907608E+02  0.12878178840E+03  0.00000000000E+00 0. -1.
<mgrwt>
<rscale>  0 0.74071781E+03</rscale>
<asrwt>0</asrwt>
<pdfrwt beam="1">  1        2 0.26182681E+00 0.74071781E+03</pdfrwt>
<pdfrwt beam="2">  1       -2 0.50980506E-01 0.74071781E+03</pdfrwt>
<totfact> 0.36549562E+01</totfact>
</mgrwt>
</event>
<event>
12    1  0.1444206E-007  0.4916938E+03  0.7818608E-02  0.1015970E+00
         -2   -1    0    0    0  501 -0.00000000000E+00  0.00000000000E+00  0.12556778389E+03  0.12556778389E+03  0.00000000000E+00 0.  1.
          2   -1    0    0  501    0  0.00000000000E+00 -0.00000000000E+00 -0.38395355491E+04  0.38395355491E+04  0.00000000000E+00 0. -1.
         23    2    1    2    0    0  0.35976722268E+03  0.96928038628E+02 -0.27135841761E+04  0.27405020202E+04  0.89357386615E+02 0.  0.
    5000000    2    1    2    0    0 -0.35976722268E+03 -0.96928038628E+02 -0.10003835891E+04  0.12246013128E+04  0.60004462402E+03 0.  0.
         23    2    4    4    0    0  0.34624354848E+02  0.13274980792E+03 -0.55589793738E+03  0.57999349993E+03  0.92458562219E+02 0.  0.
         23    2    4    4    0    0 -0.39439157753E+03 -0.22967784655E+03 -0.44448565174E+03  0.64460781290E+03  0.98260410289E+02 0.  0.
          4    1    3    3  502    0  0.48690595806E+02 -0.13332004837E+02 -0.48347090932E+03  0.48609941024E+03  0.00000000000E+00 0. -1.
         -4    1    3    3    0  502  0.31107662688E+03  0.11026004347E+03 -0.22301132668E+04  0.22544026099E+04  0.00000000000E+00 0.  1.
         11    1    5    5    0    0  0.21301982693E+02  0.10192048086E+03 -0.23121565561E+03  0.25357886010E+03  0.00000000000E+00 0. -1.
        -11    1    5    5    0    0  0.13322372155E+02  0.30829327055E+02 -0.32468228176E+03  0.32641463983E+03  0.00000000000E+00 0.  1.
          4    1    6    6  503    0 -0.13709783059E+03 -0.13090282979E+03 -0.20840008641E+03  0.28171255211E+03  0.00000000000E+00 0. -1.
         -4    1    6    6    0  503 -0.25729374694E+03 -0.98775016759E+02 -0.23608556533E+03  0.36289526079E+03  0.00000000000E+00 0.  1.
<mgrwt>
<rscale>  0 0.49169379E+03</rscale>
<asrwt>0</asrwt>
<pdfrwt beam="1">  1        2 0.59069781E+00 0.49169379E+03</pdfrwt>
<pdfrwt beam="2">  1       -2 0.19318120E-01 0.49169379E+03</pdfrwt>
<totfact> 0.12093612E+01</totfact>
</mgrwt>
</event>
<event>
12    1  0.1444206E-007  0.7814042E+03  0.7818608E-02  0.9587331E-01
          1   -1    0    0  501    0  0.00000000000E+00  0.00000000000E+00  0.76242038522E+03  0.76242038522E+03  0.00000000000E+00 0. -1.
         -1   -1    0    0    0  501 -0.00000000000E+00 -0.00000000000E+00 -0.17520971373E+04  0.17520971373E+04  0.00000000000E+00 0.  1.
         23    2    1    2    0    0  0.65627084453E+03  0.12267644859E+03 -0.13800178955E+04  0.15356756604E+04  0.90052261131E+02 0.  0.
    5000000    2    1    2    0    0 -0.65627084453E+03 -0.12267644859E+03  0.39034114346E+03  0.97884186205E+03  0.60002020816E+03 0.  0.
         23    2    4    4    0    0 -0.71730402184E+03  0.14321042213E+02  0.30674990649E+03  0.78545318572E+03  0.90061367034E+02 0.  0.
         23    2    4    4    0    0  0.61033177301E+02 -0.13699749080E+03  0.83591236963E+02  0.19338867633E+03  0.88984965127E+02 0.  0.
          4    1    3    3  502    0  0.51223892790E+03  0.12427770006E+03 -0.11357089131E+04  0.12520656538E+04  0.00000000000E+00 0.  1.
         -4    1    3    3    0  502  0.14403191663E+03 -0.16012514757E+01 -0.24430898240E+03  0.28361000669E+03  0.00000000000E+00 0. -1.
         13    1    5    5    0    0 -0.27680298905E+03  0.12189907737E+02  0.16606789674E+03  0.32302791664E+03  0.00000000000E+00 0.  1.
        -13    1    5    5    0    0 -0.44050103279E+03  0.21311344766E+01  0.14068200975E+03  0.46242526908E+03  0.00000000000E+00 0. -1.
          4    1    6    6  503    0  0.77156281946E+02 -0.66769018362E+02  0.43395501201E+02  0.11087994941E+03  0.00000000000E+00 0. -1.
         -4    1    6    6    0  503 -0.16123104645E+02 -0.70228472438E+02  0.40195735762E+02  0.82508726919E+02  0.00000000000E+00 0.  1.
<mgrwt>
<rscale>  0 0.78140416E+03</rscale>
<asrwt>0</asrwt>
<pdfrwt beam="1">  1        1 0.11729545E+00 0.78140416E+03</pdfrwt>
<pdfrwt beam="2">  1       -1 0.26955340E+00 0.78140416E+03</pdfrwt>
<totfact> 0.12977295E+00</totfact>
</mgrwt>
</event>
<event>
12    1  0.1444206E-007  0.7696235E+03  0.7818608E-02  0.9605057E-01
          2   -1    0    0  501    0  0.00000000000E+00  0.00000000000E+00  0.32279970986E+04  0.32279970986E+04  0.00000000000E+00 0. -1.
         -2   -1    0    0    0  501 -0.00000000000E+00 -0.00000000000E+00 -0.29742758611E+03  0.29742758611E+03  0.00000000000E+00 0.  1.
         23    2    1    2    0    0 -0.68077938957E+03  0.58909850844E+01  0.31207403055E+03  0.75418430030E+03  0.88929619972E+02 0.  0.
    5000000    2    1    2    0    0  0.68077938957E+03 -0.58909850844E+01  0.26184954819E+04  0.27712403844E+04  0.59979946504E+03 0.  0.
         23    2    4    4    0    0  0.66728211166E+03 -0.15760922971E+03  0.23454679651E+04  0.24453122447E+04  0.90696818137E+02 0.  0.
         23    2    4    4    0    0  0.13497277911E+02  0.15171824463E+03  0.27302751681E+03  0.32592813970E+03  0.92111481643E+02 0.  0.
          1    1    3    3  502    0 -0.24842656904E+03  0.14639592460E+02  0.15965384150E+03  0.29566776452E+03  0.00000000000E+00 0. -1.
         -1    1    3    3    0  502 -0.43235282053E+03 -0.87486073754E+01  0.15242018905E+03  0.45851653578E+03  0.00000000000E+00 0.  1.
         11    1    5    5    0    0  0.36786621952E+03 -0.82671777951E+02  0.14465955718E+04  0.14949243883E+04  0.00000000000E+00 0. -1.
        -11    1    5    5    0    0  0.29941589214E+03 -0.74937451763E+02  0.89887239333E+03  0.95038785642E+03  0.00000000000E+00 0.  1.
          1    1    6    6  503    0 -0.16701817639E+02 -0.85388347544E+00  0.59211032409E+02  0.61527442564E+02  0.00000000000E+00 0.  1.
         -1    1    6    6    0  503  0.30199095549E+02  0.15257212811E+03  0.21381648440E+03  0.26440069714E+03  0.00000000000E+00 0. -1.
<mgrwt>
<rscale>  0 0.76962353E+03</rscale>
<asrwt>0</asrwt>
<pdfrwt beam="1">  1        2 0.49661491E+00 0.76962353E+03</pdfrwt>
<pdfrwt beam="2">  1       -2 0.45758092E-01 0.76962353E+03</pdfrwt>
<totfact> 0.60190410E+00</totfact>
</mgrwt>
</event>
<event>
12    1  0.1444206E-007  0.4645633E+03  0.7818608E-02  0.1023466E+00
         -1   -1    0    0    0  501 -0.00000000000E+00  0.00000000000E+00  0.49916951367E+03  0.49916951367E+03  0.00000000000E+00 0.  1.
          1   -1    0    0  501    0  0.00000000000E+00 -0.00000000000E+00 -0.59960014489E+03  0.59960014489E+03  0.00000000000E+00 0. -1.
         23    2    1    2    0    0  0.58196165084E+02  0.31648708796E+03  0.15872997292E+03  0.37034719792E+03  0.91711352765E+02 0.  0.
    5000000    2    1    2    0    0 -0.58196165084E+02 -0.31648708796E+03 -0.25916060414E+03  0.72842246064E+03  0.59990348553E+03 0.  0.
         23    2    4    4    0    0 -0.11785068881E+03 -0.43660215869E+03 -0.49224214211E+02  0.46241041335E+03  0.83006850831E+02 0.  0.
         23    2    4    4    0    0  0.59654523724E+02  0.12011507072E+03 -0.20993638993E+03  0.26601204729E+03  0.93288954726E+02 0.  0.
          3    1    3    3  502    0  0.65476705779E+02  0.27099732304E+03  0.10108490261E+03  0.29655506341E+03  0.00000000000E+00 0. -1.
         -3    1    3    3    0  502 -0.72805406952E+01  0.45489764920E+02  0.57645070305E+02  0.73792134512E+02  0.00000000000E+00 0.  1.
         13    1    5    5    0    0 -0.62690899656E+02 -0.30678633829E+03 -0.67095512027E+02  0.32023399881E+03  0.00000000000E+00 0.  1.
        -13    1    5    5    0    0 -0.55159789151E+02 -0.12981582040E+03  0.17871297816E+02  0.14217641454E+03  0.00000000000E+00 0. -1.
          3    1    6    6  503    0 -0.13664425269E+02  0.71687908426E+01 -0.70501072981E+02  0.72170003267E+02  0.00000000000E+00 0. -1.
         -3    1    6    6    0  503  0.73318948993E+02  0.11294627988E+03 -0.13943531695E+03  0.19384204403E+03  0.00000000000E+00 0.  1.
<mgrwt>
<rscale>  0 0.46456332E+03</rscale>
<asrwt>0</asrwt>
<pdfrwt beam="1">  1        1 0.92246176E-01 0.46456332E+03</pdfrwt>
<pdfrwt beam="2">  1       -1 0.76795310E-01 0.46456332E+03</pdfrwt>
<totfact> 0.61333249E+01</totfact>
</mgrwt>
</event>
<event>
12    1  0.1444206E-007  0.1565486E+04  0.7818608E-02  0.8842036E-01
         -1   -1    0    0    0  501 -0.00000000000E+00  0.00000000000E+00  0.10620659194E+04  0.10620659194E+04  0.00000000000E+00 0.  1.
          1   -1    0    0  501    0  0.00000000000E+00 -0.00000000000E+00 -0.25205599757E+04  0.25205599757E+04  0.00000000000E+00 0. -1.
         23    2    1    2    0    0 -0.14797217054E+04  0.48263959388E+03 -0.41060322800E+03  0.16125516816E+04  0.95971933919E+02 0.  0.
    5000000    2    1    2    0    0  0.14797217054E+04 -0.48263959388E+03 -0.10478908283E+04  0.19700742134E+04  0.60049972139E+03 0.  0.
         23    2    4    4    0    0  0.13969512252E+04 -0.43489155377E+03 -0.75595675310E+03  0.16493141668E+04  0.90350533337E+02 0.  0.
         23    2    4    4    0    0  0.82770480170E+02 -0.47748040115E+02 -0.29193407522E+03  0.32076004670E+03  0.92361656319E+02 0.  0.
          2    1    3    3  502    0 -0.38020507219E+03  0.11496006236E+03 -0.62776768496E+02  0.40213509610E+03  0.00000000000E+00 0. -1.
         -2    1    3    3    0  502 -0.10995166332E+04  0.36767953153E+03 -0.34782645950E+03  0.12104165855E+04  0.00000000000E+00 0.  1.
         11    1    5    5    0    0  0.63433439695E+03 -0.19630358577E+03 -0.39381759835E+03  0.77201523671E+03  0.00000000000E+00 0.  1.
        -11    1    5    5    0    0  0.76261682828E+03 -0.23858796800E+03 -0.36213915475E+03  0.87729893004E+03  0.00000000000E+00 0. -1.
          1    1    6    6  503    0 -0.15453461516E+01  0.93595505170E+01 -0.12399594459E+03  0.12435828704E+03  0.00000000000E+00 0. -1.
         -1    1    6    6    0  503  0.84315826321E+02 -0.57107590632E+02 -0.16793813064E+03  0.19640175966E+03  0.00000000000E+00 0.  1.
<mgrwt>
<rscale>  0 0.15654862E+04</rscale>
<asrwt>0</asrwt>
<pdfrwt beam="1">  1        1 0.38777845E+00 0.15654862E+04</pdfrwt>
<pdfrwt beam="2">  1       -1 0.16339476E+00 0.15654862E+04</pdfrwt>
<totfact> 0.34004917E-01</totfact>
</mgrwt>
</event>
<event>
12    1  0.1444206E-007  0.5286684E+03  0.7818608E-02  0.1006556E+00
          1   -1    0    0  501    0  0.00000000000E+00  0.00000000000E+00  0.21119744199E+04  0.21119744199E+04  0.00000000000E+00 0. -1.
         -1   -1    0    0    0  501 -0.00000000000E+00 -0.00000000000E+00 -0.14485781376E+03  0.14485781376E+03  0.00000000000E+00 0.  1.
         23    2    1    2    0    0 -0.38054658364E+03  0.19838234223E+02  0.78442874661E+03  0.87693170985E+03  0.92040791935E+02 0.  0.
    5000000    2    1    2    0    0  0.38054658364E+03 -0.19838234223E+02  0.11826878595E+04  0.13799005238E+04  0.60013800469E+03 0.  0.
         23    2    4    4    0    0 -0.83058295076E+02 -0.15369338193E+03  0.19839527323E+03  0.27950542970E+03  0.90786919556E+02 0.  0.
         23    2    4    4    0    0  0.46360487871E+03  0.13385514770E+03  0.98429258627E+03  0.11003950941E+04  0.95868574420E+02 0.  0.
          2    1    3    3  502    0 -0.12070942489E+03  0.49530427886E+02  0.26495974933E+03  0.29534335495E+03  0.00000000000E+00 0. -1.
         -2    1    3    3    0  502 -0.25983715875E+03 -0.29692193663E+02  0.51946899727E+03  0.58158835490E+03  0.00000000000E+00 0.  1.
         13    1    5    5    0    0 -0.71701870687E+02 -0.93313825372E+02  0.18057234024E+03  0.21553421614E+03  0.00000000000E+00 0. -1.
        -13    1    5    5    0    0 -0.11356424389E+02 -0.60379556555E+02  0.17822932994E+02  0.63971213566E+02  0.00000000000E+00 0.  1.
          1    1    6    6  503    0  0.15317023431E+03  0.15382130165E+02  0.39406980055E+03  0.42307060677E+03  0.00000000000E+00 0. -1.
         -1    1    6    6    0  503  0.31043464440E+03  0.11847301754E+03  0.59022278572E+03  0.67732448731E+03  0.00000000000E+00 0.  1.
<mgrwt>
<rscale>  0 0.52866835E+03</rscale>
<asrwt>0</asrwt>
<pdfrwt beam="1">  1        1 0.32491912E+00 0.52866835E+03</pdfrwt>
<pdfrwt beam="2">  1       -1 0.22285819E-01 0.52866835E+03</pdfrwt>
<totfact> 0.45596915E+01</totfact>
</mgrwt>
</event>
<event>
12    1  0.1444206E-007  0.4704231E+03  0.7818608E-02  0.1021801E+00
          2   -1    0    0  501    0  0.00000000000E+00  0.00000000000E+00  0.25042908643E+04  0.25042908643E+04  0.00000000000E+00 0. -1.
         -2   -1    0    0    0  501 -0.00000000000E+00 -0.00000000000E+00 -0.99567137995E+02  0.99567137995E+02  0.00000000000E+00 0.  1.
         23    2    1    2    0    0  0.88586279380E+02  0.26167889848E+03  0.11461376537E+04  0.11825581716E+04  0.92135407486E+02 0.  0.
    5000000    2    1    2    0    0 -0.88586279380E+02 -0.26167889848E+03  0.12585860726E+04  0.14212998306E+04  0.59977573443E+03 0.  0.
         23    2    4    4    0    0 -0.11916736753E+03 -0.43496223407E+03  0.87038216957E+03  0.98452620935E+03  0.91289261373E+02 0.  0.
         23    2    4    4    0    0  0.30581088151E+02  0.17328333559E+03  0.38820390301E+03  0.43677362126E+03  0.95428552200E+02 0.  0.
          1    1    3    3  502    0  0.10447983214E+03  0.18325268889E+03  0.80813179198E+03  0.83520930102E+03  0.00000000000E+00 0. -1.
         -1    1    3    3    0  502 -0.15893552763E+02  0.78426209588E+02  0.33800586171E+03  0.34734887061E+03  0.00000000000E+00 0.  1.
         11    1    5    5    0    0  0.11793537437E+02 -0.94673686284E+02  0.18949281961E+03  0.21215495065E+03  0.00000000000E+00 0.  1.
        -11    1    5    5    0    0 -0.13096090497E+03 -0.34028854778E+03  0.68088934996E+03  0.77237125870E+03  0.00000000000E+00 0. -1.
          3    1    6    6  503    0  0.53944477304E+02  0.12795879116E+03  0.33709654348E+03  0.36457857657E+03  0.00000000000E+00 0. -1.
         -3    1    6    6    0  503 -0.23363389153E+02  0.45324544432E+02  0.51107359530E+02  0.72195044697E+02  0.00000000000E+00 0.  1.
<mgrwt>
<rscale>  0 0.47042306E+03</rscale>
<asrwt>0</asrwt>
<pdfrwt beam="1">  1        2 0.38527547E+00 0.47042306E+03</pdfrwt>
<pdfrwt beam="2">  1       -2 0.15318023E-01 0.47042306E+03</pdfrwt>
<totfact> 0.12640202E+02</totfact>
</mgrwt>
</event>
<event>
12    1  0.1444206E-007  0.1721162E+04  0.7818608E-02  0.8749386E-01
          2   -1    0    0  501    0  0.00000000000E+00  0.00000000000E+00  0.30697558666E+04  0.30697558666E+04  0.00000000000E+00 0. -1.
         -2   -1    0    0    0  501 -0.00000000000E+00 -0.00000000000E+00 -0.10427106404E+04  0.10427106404E+04  0.00000000000E+00 0.  1.
         23    2    1    2    0    0 -0.16123478051E+04  0.56017638441E+03  0.61186197989E+03  0.18154529625E+04  0.89617802506E+02 0.  0.
    5000000    2    1    2    0    0  0.16123478051E+04 -0.56017638441E+03  0.14151832463E+04  0.22970135446E+04  0.60005381177E+03 0.  0.
         23    2    4    4    0    0  0.12047589025E+03 -0.84905165655E+02  0.38053274996E+03  0.41807329685E+03  0.90866828141E+02 0.  0.
         23    2    4    4    0    0  0.14918719148E+04 -0.47527121875E+03  0.10346504963E+04  0.18789402477E+04  0.91379774683E+02 0.  0.
          1    1    3    3  502    0 -0.12858084989E+04  0.45395034361E+03  0.52578288510E+03  0.14614451932E+04  0.00000000000E+00 0. -1.
         -1    1    3    3    0  502 -0.32653930616E+03  0.10622604080E+03  0.86079094792E+02  0.35400776936E+03  0.00000000000E+00 0.  1.
         13    1    5    5    0    0  0.48173088337E+02 -0.81458119459E+02  0.15919747292E+03  0.18520234083E+03  0.00000000000E+00 0.  1.
        -13    1    5    5    0    0  0.72302801916E+02 -0.34470461969E+01  0.22133527704E+03  0.23287095602E+03  0.00000000000E+00 0. -1.
          2    1    6    6  503    0  0.11277067568E+04 -0.31822881461E+03  0.76471979898E+03  0.13992099481E+04  0.00000000000E+00 0. -1.
         -2    1    6    6    0  503  0.36416515801E+03 -0.15704240414E+03  0.26993069736E+03  0.47973029963E+03  0.00000000000E+00 0.  1.
<mgrwt>
<rscale>  0 0.17211622E+04</rscale>
<asrwt>0</asrwt>
<pdfrwt beam="1">  1        2 0.47227013E+00 0.17211622E+04</pdfrwt>
<pdfrwt beam="2">  1       -2 0.16041702E+00 0.17211622E+04</pdfrwt>
<totfact> 0.36373609E-01</totfact>
</mgrwt>
</event>
<event>
12    1  0.1444206E-007  0.1293358E+04  0.7818608E-02  0.9034849E-01
         -1   -1    0    0    0  501 -0.00000000000E+00  0.00000000000E+00  0.91858220775E+03  0.91858220775E+03  0.00000000000E+00 0.  1.
          1   -1    0    0  501    0  0.00000000000E+00 -0.00000000000E+00 -0.19861588992E+04  0.19861588992E+04  0.00000000000E+00 0. -1.
         23    2    1    2    0    0  0.11557317749E+04  0.48293387862E+03 -0.21236782924E+03  0.12736921531E+04  0.90832479672E+02 0.  0.
    5000000    2    1    2    0    0 -0.11557317749E+04 -0.48293387862E+03 -0.85520886226E+03  0.16310489539E+04  0.59999785437E+03 0.  0.
         23    2    4    4    0    0 -0.47149350639E+02 -0.15005439113E+03  0.11334790695E+02  0.18230304436E+03  0.91468797624E+02 0.  0.
         23    2    4    4    0    0 -0.11085824243E+04 -0.33287948749E+03 -0.86654365295E+03  0.14487459095E+04  0.90570764226E+02 0.  0.
          4    1    3    3  502    0  0.63332429688E+03  0.22674328063E+03 -0.14305942975E+03  0.68773409162E+03  0.00000000000E+00 0. -1.
         -4    1    3    3    0  502  0.52240747802E+03  0.25619059799E+03 -0.69308399484E+02  0.58595806150E+03  0.00000000000E+00 0.  1.
         11    1    5    5    0    0  0.19119070893E+02 -0.30515692702E+02 -0.21224701006E+02  0.41799931886E+02  0.00000000000E+00 0.  1.
        -11    1    5    5    0    0 -0.66268421533E+02 -0.11953869843E+03  0.32559491701E+02  0.14050311247E+03  0.00000000000E+00 0. -1.
          1    1    6    6  503    0 -0.74597773153E+03 -0.25722475219E+03 -0.62394202553E+03  0.10059577527E+04  0.00000000000E+00 0. -1.
         -1    1    6    6    0  503 -0.36260469273E+03 -0.75654735303E+02 -0.24260162743E+03  0.44278815679E+03  0.00000000000E+00 0.  1.
<mgrwt>
<rscale>  0 0.12933584E+04</rscale>
<asrwt>0</asrwt>
<pdfrwt beam="1">  1        1 0.30556291E+00 0.12933584E+04</pdfrwt>
<pdfrwt beam="2">  1       -1 0.14132034E+00 0.12933584E+04</pdfrwt>
<totfact> 0.12106895E+00</totfact>
</mgrwt>
</event>
<event>
12    1  0.1444206E-007  0.1065816E+04  0.7818608E-02  0.9239166E-01
         -2   -1    0    0    0  501 -0.00000000000E+00  0.00000000000E+00  0.15292928079E+04  0.15292928079E+04  0.00000000000E+00 0.  1.
          2   -1    0    0  501    0  0.00000000000E+00 -0.00000000000E+00 -0.91486464959E+03  0.91486464959E+03  0.00000000000E+00 0. -1.
         23    2    1    2    0    0 -0.85089166541E+03  0.61607319708E+03  0.64099419838E+03  0.12341184845E+04  0.92801191048E+02 0.  0.
    5000000    2    1    2    0    0  0.85089166541E+03 -0.61607319708E+03 -0.26566040023E+02  0.12100389730E+04  0.59993812287E+03 0.  0.
         23    2    4    4    0    0  0.11330469520E+03 -0.38002504114E+01  0.17504958570E+03  0.22625498744E+03  0.87730074836E+02 0.  0.
         23    2    4    4    0    0  0.73758697022E+03 -0.61227294666E+03 -0.20161562572E+03  0.98378398557E+03  0.90936075748E+02 0.  0.
          3    1    3    3  502    0 -0.69092326374E+03  0.51716456868E+03  0.56344366541E+03  0.10306808000E+04  0.00000000000E+00 0. -1.
         -3    1    3    3    0  502 -0.15996840167E+03  0.98908628395E+02  0.77550532969E+02  0.20343768448E+03  0.00000000000E+00 0.  1.
         11    1    5    5    0    0  0.30018867538E+02  0.14923316796E+02  0.23456001859E+01  0.33605648821E+02  0.00000000000E+00 0. -1.
        -11    1    5    5    0    0  0.83285827659E+02 -0.18723567208E+02  0.17270398551E+03  0.19264933862E+03  0.00000000000E+00 0.  1.
          3    1    6    6  503    0  0.59141450820E+03 -0.52852831142E+03 -0.18537157072E+03  0.81454030945E+03  0.00000000000E+00 0. -1.
         -3    1    6    6    0  503  0.14617246201E+03 -0.83744635247E+02 -0.16244055003E+02  0.16924367612E+03  0.00000000000E+00 0.  1.
<mgrwt>
<rscale>  0 0.10658157E+04</rscale>
<asrwt>0</asrwt>
<pdfrwt beam="1">  1        2 0.14074841E+00 0.10658157E+04</pdfrwt>
<pdfrwt beam="2">  1       -2 0.23527582E+00 0.10658157E+04</pdfrwt>
<totfact> 0.22432841E+00</totfact>
</mgrwt>
</event>
<event>
12    1  0.1444206E-007  0.7622638E+03  0.7818608E-02  0.9616304E-01
          1   -1    0    0  501    0  0.00000000000E+00  0.00000000000E+00  0.57937783174E+03  0.57937783174E+03  0.00000000000E+00 0. -1.
         -1   -1    0    0    0  501 -0.00000000000E+00 -0.00000000000E+00 -0.12422336398E+04  0.12422336398E+04  0.00000000000E+00 0.  1.
         23    2    1    2    0    0 -0.12487347787E+03  0.67349995768E+03 -0.58589184565E+03  0.90779873936E+03  0.10785971407E+03 0.  0.
    5000000    2    1    2    0    0  0.12487347787E+03 -0.67349995768E+03 -0.76963962420E+02  0.91381273219E+03  0.59994556381E+03 0.  0.
         23    2    4    4    0    0 -0.15719967681E+03 -0.41242537852E+03  0.12792503538E+03  0.46885331680E+03  0.93017131538E+02 0.  0.
         23    2    4    4    0    0  0.28207315468E+03 -0.26107457916E+03 -0.20488899780E+03  0.44495941540E+03  0.91017467856E+02 0.  0.
          2    1    3    3  502    0 -0.64600386821E+02  0.35843503955E+03 -0.38149509026E+03  0.52743472719E+03  0.00000000000E+00 0. -1.
         -2    1    3    3    0  502 -0.60273091051E+02  0.31506491813E+03 -0.20439675539E+03  0.38036401217E+03  0.00000000000E+00 0.  1.
         13    1    5    5    0    0 -0.15439455411E+03 -0.29459959832E+03  0.10499413453E+03  0.34878413088E+03  0.00000000000E+00 0.  1.
        -13    1    5    5    0    0 -0.28051227021E+01 -0.11782578020E+03  0.22930900848E+02  0.12006918592E+03  0.00000000000E+00 0. -1.
          3    1    6    6  503    0  0.84688697883E+02 -0.43150960171E+02 -0.18497787658E+02  0.96831549926E+02  0.00000000000E+00 0. -1.
         -3    1    6    6    0  503  0.19738445680E+03 -0.21792361899E+03 -0.18639121014E+03  0.34812786547E+03  0.00000000000E+00 0.  1.
<mgrwt>
<rscale>  0 0.76226381E+03</rscale>
<asrwt>0</asrwt>
<pdfrwt beam="1">  1        1 0.89135051E-01 0.76226381E+03</pdfrwt>
<pdfrwt beam="2">  1       -1 0.19111287E+00 0.76226381E+03</pdfrwt>
<totfact> 0.64532084E+00</totfact>
</mgrwt>
</event>
<event>
12    1  0.1523802E-007  0.7867645E+03  0.7818608E-02  0.9579375E-01
          2   -1    0    0  501    0  0.00000000000E+00  0.00000000000E+00  0.24619578508E+04  0.24619578508E+04  0.00000000000E+00 0. -1.
         -2   -1    0    0    0  501 -0.00000000000E+00 -0.00000000000E+00 -0.40135214791E+03  0.40135214791E+03  0.00000000000E+00 0.  1.
         23    2    1    2    0    0 -0.71007123854E+03 -0.24294779803E+03  0.16566377252E+04  0.18209812454E+04  0.91100753469E+02 0.  0.
    5000000    2    1    2    0    0  0.71007123854E+03  0.24294779803E+03  0.40396797772E+03  0.10423287533E+04  0.60002858815E+03 0.  0.
         23    2    4    4    0    0  0.75242177539E+01  0.18947331650E+02 -0.10543823389E+03  0.14146770013E+03  0.92088402018E+02 0.  0.
         23    2    4    4    0    0  0.70254702078E+03  0.22400046638E+03  0.50940621161E+03  0.90086105318E+03  0.91145067651E+02 0.  0.
          3    1    3    3  502    0 -0.29325896938E+03 -0.10865889710E+03  0.79867205496E+03  0.85772060160E+03  0.00000000000E+00 0. -1.
         -3    1    3    3    0  502 -0.41681226916E+03 -0.13428890093E+03  0.85796567026E+03  0.96326064384E+03  0.00000000000E+00 0.  1.
         13    1    5    5    0    0 -0.20322399124E+02 -0.24571622792E+02 -0.10837828385E+02  0.33678228530E+02  0.00000000000E+00 0.  1.
        -13    1    5    5    0    0  0.27846616878E+02  0.43518954442E+02 -0.94600405505E+02  0.10778947161E+03  0.00000000000E+00 0. -1.
          1    1    6    6  503    0  0.50065823304E+03  0.18472777138E+03  0.32639595641E+03  0.62555362376E+03  0.00000000000E+00 0. -1.
         -1    1    6    6    0  503  0.20188878774E+03  0.39272695001E+02  0.18301025519E+03  0.27530742942E+03  0.00000000000E+00 0.  1.
<mgrwt>
<rscale>  0 0.78676453E+03</rscale>
<asrwt>0</asrwt>
<pdfrwt beam="1">  1        2 0.37876274E+00 0.78676453E+03</pdfrwt>
<pdfrwt beam="2">  1       -2 0.61746486E-01 0.78676453E+03</pdfrwt>
<totfact> 0.92939756E+00</totfact>
</mgrwt>
</event>
<event>
12    1  0.1444206E-007  0.1391477E+04  0.7818608E-02  0.8960011E-01
         -2   -1    0    0    0  501 -0.00000000000E+00  0.00000000000E+00  0.61582105603E+03  0.61582105603E+03  0.00000000000E+00 0. -1.
          2   -1    0    0  501    0  0.00000000000E+00 -0.00000000000E+00 -0.34642050326E+04  0.34642050326E+04  0.00000000000E+00 0.  1.
         23    2    1    2    0    0 -0.99242769191E+03  0.94704944146E+03 -0.99459229069E+03  0.16970912557E+04  0.95339065194E+02 0.  0.
    5000000    2    1    2    0    0  0.99242769191E+03 -0.94704944146E+03 -0.18537916859E+04  0.23829348329E+04  0.60001619558E+03 0.  0.
         23    2    4    4    0    0  0.87830736658E+03 -0.71158281825E+03 -0.10984645262E+04  0.15785555898E+04  0.86252521442E+02 0.  0.
         23    2    4    4    0    0  0.11412032533E+03 -0.23546662321E+03 -0.75532715966E+03  0.80437924305E+03  0.89659741377E+02 0.  0.
          4    1    3    3  502    0 -0.29735109842E+03  0.23523082266E+03 -0.30458268773E+03  0.48633509983E+03  0.00000000000E+00 0. -1.
         -4    1    3    3    0  502 -0.69507659349E+03  0.71181861880E+03 -0.69000960296E+03  0.12107561559E+04  0.00000000000E+00 0.  1.
         11    1    5    5    0    0  0.13234000829E+03 -0.69843400406E+02 -0.14251080634E+03  0.20664294882E+03  0.00000000000E+00 0. -1.
        -11    1    5    5    0    0  0.74596735829E+03 -0.64173941785E+03 -0.95595371985E+03  0.13719126410E+04  0.00000000000E+00 0.  1.
          1    1    6    6  503    0  0.27602366678E+02 -0.36810696063E+01 -0.10343782760E+03  0.10712061005E+03  0.00000000000E+00 0. -1.
         -1    1    6    6    0  503  0.86517958650E+02 -0.23178555360E+03 -0.65188933206E+03  0.69725863299E+03  0.00000000000E+00 0.  1.
<mgrwt>
<rscale>  0 0.13914771E+04</rscale>
<asrwt>0</asrwt>
<pdfrwt beam="1">  1        2 0.53295463E+00 0.13914771E+04</pdfrwt>
<pdfrwt beam="2">  1       -2 0.94741699E-01 0.13914771E+04</pdfrwt>
<totfact> 0.78762168E-01</totfact>
</mgrwt>
</event>
<event>
12    1  0.1444206E-007  0.4196934E+03  0.7818608E-02  0.1037166E+00
         -1   -1    0    0    0  501 -0.00000000000E+00  0.00000000000E+00  0.16366589563E+03  0.16366589563E+03  0.00000000000E+00 0.  1.
          1   -1    0    0  501    0  0.00000000000E+00 -0.00000000000E+00 -0.22157700181E+04  0.22157700181E+04  0.00000000000E+00 0. -1.
         23    2    1    2    0    0 -0.21420552303E+03  0.33257447740E+03 -0.11888110004E+04  0.12563018179E+04  0.92373556597E+02 0.  0.
    5000000    2    1    2    0    0  0.21420552303E+03 -0.33257447740E+03 -0.86329312212E+03  0.11231340958E+04  0.59972109638E+03 0.  0.
         23    2    4    4    0    0  0.67062525856E+02 -0.29677435208E+02  0.63121367719E+02  0.13340432279E+03  0.91838302147E+02 0.  0.
         23    2    4    4    0    0  0.14714299717E+03 -0.30289704219E+03 -0.92641448984E+03  0.98972977306E+03  0.89014251146E+02 0.  0.
          3    1    3    3  502    0 -0.65981698725E+02  0.16853042081E+03 -0.44716739253E+03  0.48240518680E+03  0.00000000000E+00 0. -1.
         -3    1    3    3    0  502 -0.14822382431E+03  0.16404405659E+03 -0.74164360782E+03  0.77389663110E+03  0.00000000000E+00 0.  1.
         11    1    5    5    0    0 -0.85130263885E+00  0.17722344703E+02  0.45353501846E+02  0.48700578514E+02  0.00000000000E+00 0. -1.
        -11    1    5    5    0    0  0.67913828495E+02 -0.47399779911E+02  0.17767865873E+02  0.84703744275E+02  0.00000000000E+00 0.  1.
          4    1    6    6  503    0  0.98777037749E+02 -0.20187396655E+03 -0.72780412167E+03  0.76171440913E+03  0.00000000000E+00 0. -1.
         -4    1    6    6    0  503  0.48365959426E+02 -0.10102307564E+03 -0.19861036817E+03  0.22801536393E+03  0.00000000000E+00 0.  1.
<mgrwt>
<rscale>  0 0.41969341E+03</rscale>
<asrwt>0</asrwt>
<pdfrwt beam="1">  1        1 0.34088772E+00 0.41969341E+03</pdfrwt>
<pdfrwt beam="2">  1       -1 0.25179367E-01 0.41969341E+03</pdfrwt>
<totfact> 0.32419215E+01</totfact>
</mgrwt>
</event>
<event>
12    1  0.1444206E-007  0.1186572E+04  0.7818608E-02  0.9124692E-01
          1   -1    0    0  501    0  0.00000000000E+00  0.00000000000E+00  0.11091929181E+04  0.11091929181E+04  0.00000000000E+00 0. -1.
         -1   -1    0    0    0  501 -0.00000000000E+00 -0.00000000000E+00 -0.16869936427E+04  0.16869936427E+04  0.00000000000E+00 0.  1.
         23    2    1    2    0    0  0.11064112675E+04 -0.32088384310E+03 -0.89169282237E+03  0.14596204476E+04  0.90903398993E+02 0.  0.
    5000000    2    1    2    0    0 -0.11064112675E+04  0.32088384310E+03  0.31389209782E+03  0.13365661132E+04  0.60063998549E+03 0.  0.
         23    2    4    4    0    0 -0.87870509609E+03  0.40284675760E+03  0.41852168642E+03  0.10573060192E+04  0.91254918737E+02 0.  0.
         23    2    4    4    0    0 -0.22770617141E+03 -0.81962914496E+02 -0.10462958860E+03  0.27926009398E+03  0.92037108982E+02 0.  0.
          2    1    3    3  502    0  0.25004779655E+03 -0.65943286915E+02 -0.24892320287E+03  0.35893617618E+03  0.00000000000E+00 0. -1.
         -2    1    3    3    0  502  0.85636347096E+03 -0.25494055619E+03 -0.64276961950E+03  0.11006842714E+04  0.00000000000E+00 0.  1.
         13    1    5    5    0    0 -0.40859491771E+03  0.18338167094E+03  0.14463667856E+03  0.47063617881E+03  0.00000000000E+00 0. -1.
        -13    1    5    5    0    0 -0.47011017838E+03  0.21946508667E+03  0.27388500786E+03  0.58666984038E+03  0.00000000000E+00 0.  1.
          1    1    6    6  503    0 -0.14687749235E+03 -0.91391235838E+02 -0.46117606326E+02  0.17903125247E+03  0.00000000000E+00 0. -1.
         -1    1    6    6    0  503 -0.80828679061E+02  0.94283213422E+01 -0.58511982270E+02  0.10022884151E+03  0.00000000000E+00 0.  1.
<mgrwt>
<rscale>  0 0.11865719E+04</rscale>
<asrwt>0</asrwt>
<pdfrwt beam="1">  1        1 0.17064507E+00 0.11865719E+04</pdfrwt>
<pdfrwt beam="2">  1       -1 0.25953748E+00 0.11865719E+04</pdfrwt>
<totfact> 0.74170229E-01</totfact>
</mgrwt>
</event>
<event>
12    1  0.1444206E-007  0.6339979E+03  0.7818608E-02  0.9837278E-01
          1   -1    0    0  501    0  0.00000000000E+00  0.00000000000E+00  0.48145718188E+03  0.48145718188E+03  0.00000000000E+00 0. -1.
         -1   -1    0    0    0  501 -0.00000000000E+00 -0.00000000000E+00 -0.95709666976E+03  0.95709666976E+03  0.00000000000E+00 0.  1.
         23    2    1    2    0    0 -0.42189586121E+03  0.25185777240E+03  0.50540769432E+02  0.50174774157E+03  0.88136096860E+02 0.  0.
    5000000    2    1    2    0    0  0.42189586121E+03 -0.25185777240E+03 -0.52618025731E+03  0.93680611007E+03  0.59942603335E+03 0.  0.
         23    2    4    4    0    0  0.54912794142E+03 -0.26627491113E+03 -0.45255619073E+03  0.76509398633E+03  0.90099266330E+02 0.  0.
         23    2    4    4    0    0 -0.12723208021E+03  0.14417138728E+02 -0.73624066579E+02  0.17171212375E+03  0.87571080487E+02 0.  0.
          4    1    3    3  502    0 -0.54823862078E+02  0.62406605445E+02 -0.12109068715E+02  0.83945635989E+02  0.00000000000E+00 0. -1.
         -4    1    3    3    0  502 -0.36707199913E+03  0.18945116696E+03  0.62649838147E+02  0.41780210558E+03  0.00000000000E+00 0.  1.
         11    1    5    5    0    0  0.23541627534E+03 -0.65384571834E+02 -0.18393786474E+03  0.30582528184E+03  0.00000000000E+00 0. -1.
        -11    1    5    5    0    0  0.31371166608E+03 -0.20089033930E+03 -0.26861832599E+03  0.45926870448E+03  0.00000000000E+00 0.  1.
          4    1    6    6  503    0 -0.49335687285E+02 -0.36997321105E+02 -0.25912960351E+02  0.66890158641E+02  0.00000000000E+00 0.  1.
         -4    1    6    6    0  503 -0.77896392929E+02  0.51414459834E+02 -0.47711106228E+02  0.10482196511E+03  0.00000000000E+00 0. -1.
<mgrwt>
<rscale>  0 0.63399789E+03</rscale>
<asrwt>0</asrwt>
<pdfrwt beam="1">  1        1 0.74070337E-01 0.63399789E+03</pdfrwt>
<pdfrwt beam="2">  1       -1 0.14724564E+00 0.63399789E+03</pdfrwt>
<totfact> 0.17827099E+01</totfact>
</mgrwt>
</event>
<event>
12    1  0.1444206E-007  0.1087631E+04  0.7818608E-02  0.9217332E-01
         -2   -1    0    0    0  501 -0.00000000000E+00  0.00000000000E+00  0.61832379689E+03  0.61832379689E+03  0.00000000000E+00 0. -1.
          2   -1    0    0  501    0  0.00000000000E+00 -0.00000000000E+00 -0.22287069921E+04  0.22287069921E+04  0.00000000000E+00 0.  1.
         23    2    1    2    0    0 -0.70714953889E+03 -0.71937604146E+03 -0.12712810428E+04  0.16253246656E+04  0.89232389650E+02 0.  0.
    5000000    2    1    2    0    0  0.70714953889E+03  0.71937604146E+03 -0.33910215239E+03  0.12217061234E+04  0.60001101893E+03 0.  0.
         23    2    4    4    0    0 -0.46790004563E+02 -0.20696469723E+02 -0.27545389326E+02  0.11593756693E+03  0.10032508443E+03 0.  0.
         23    2    4    4    0    0  0.75393954345E+03  0.74007251118E+03 -0.31155676306E+03  0.11057685565E+04  0.97592657989E+02 0.  0.
          3    1    3    3  502    0 -0.45037975683E+03 -0.40101528770E+03 -0.72901045257E+03  0.94610328521E+03  0.00000000000E+00 0. -1.
         -3    1    3    3    0  502 -0.25676978206E+03 -0.31836075376E+03 -0.54227059023E+03  0.67922138036E+03  0.00000000000E+00 0.  1.
         11    1    5    5    0    0  0.23907564127E+02  0.90339231131E+01  0.13549520232E+02  0.28927026944E+02  0.00000000000E+00 0. -1.
        -11    1    5    5    0    0 -0.70697568690E+02 -0.29730392837E+02 -0.41094909558E+02  0.87010539985E+02  0.00000000000E+00 0.  1.
          3    1    6    6  503    0  0.61982152185E+03  0.65687552858E+03 -0.26460615564E+03  0.94110604960E+03  0.00000000000E+00 0. -1.
         -3    1    6    6    0  503  0.13411802160E+03  0.83196982602E+02 -0.46950607420E+02  0.16466250687E+03  0.00000000000E+00 0.  1.
<mgrwt>
<rscale>  0 0.10876313E+04</rscale>
<asrwt>0</asrwt>
<pdfrwt beam="1">  1        2 0.34287800E+00 0.10876313E+04</pdfrwt>
<pdfrwt beam="2">  1       -2 0.95126738E-01 0.10876313E+04</pdfrwt>
<totfact> 0.45925019E+00</totfact>
</mgrwt>
</event>
<event>
12    1  0.1444206E-007  0.3130244E+03  0.7818608E-02  0.1078905E+00
         -1   -1    0    0    0  501 -0.00000000000E+00  0.00000000000E+00  0.94224461603E+02  0.94224461603E+02  0.00000000000E+00 0.  1.
          1   -1    0    0  501    0  0.00000000000E+00 -0.00000000000E+00 -0.23178273484E+04  0.23178273484E+04  0.00000000000E+00 0. -1.
         23    2    1    2    0    0  0.14501781015E+03 -0.22062605412E+03 -0.68676297570E+03  0.74124000724E+03  0.89929653251E+02 0.  0.
    5000000    2    1    2    0    0 -0.14501781015E+03  0.22062605412E+03 -0.15368399111E+04  0.16708118027E+04  0.60002428857E+03 0.  0.
         23    2    4    4    0    0 -0.11055844362E+03  0.31817206755E+02 -0.29864648075E+02  0.14901314377E+03  0.89875000473E+02 0.  0.
         23    2    4    4    0    0 -0.34459366532E+02  0.18880884736E+03 -0.15069752630E+04  0.15217986590E+04  0.89780211392E+02 0.  0.
          3    1    3    3  502    0  0.15344643177E+03 -0.17660435989E+03 -0.56753597245E+03  0.61386642471E+03  0.00000000000E+00 0. -1.
         -3    1    3    3    0  502 -0.84286216245E+01 -0.44021694231E+02 -0.11922700324E+03  0.12737358254E+03  0.00000000000E+00 0.  1.
         13    1    5    5    0    0 -0.63653020969E+02 -0.23573285121E+02  0.58312590175E+01  0.68127897602E+02  0.00000000000E+00 0. -1.
        -13    1    5    5    0    0 -0.46905422647E+02  0.55390491877E+02 -0.35695907092E+02  0.80885246165E+02  0.00000000000E+00 0.  1.
          3    1    6    6  503    0 -0.59418771582E+02  0.13107777283E+03 -0.11876764185E+04  0.11963641786E+04  0.00000000000E+00 0. -1.
         -3    1    6    6    0  503  0.24959405051E+02  0.57731074530E+02 -0.31929884453E+03  0.32543448033E+03  0.00000000000E+00 0.  1.
<mgrwt>
<rscale>  0 0.31302438E+03</rscale>
<asrwt>0</asrwt>
<pdfrwt beam="1">  1        1 0.35658881E+00 0.31302438E+03</pdfrwt>
<pdfrwt beam="2">  1       -1 0.14496072E-01 0.31302438E+03</pdfrwt>
<totfact> 0.70479627E+01</totfact>
</mgrwt>
</event>
<event>
12    1  0.1444206E-007  0.2350181E+04  0.7818608E-02  0.8458394E-01
          2   -1    0    0  501    0  0.00000000000E+00  0.00000000000E+00  0.28479840747E+04  0.28479840747E+04  0.00000000000E+00 0. -1.
         -2   -1    0    0    0  501 -0.00000000000E+00 -0.00000000000E+00 -0.25931186686E+04  0.25931186686E+04  0.00000000000E+00 0.  1.
         23    2    1    2    0    0 -0.22039767336E+04 -0.70114408107E+03 -0.12368693174E+04  0.26243266045E+04  0.90155168168E+02 0.  0.
    5000000    2    1    2    0    0  0.22039767336E+04  0.70114408107E+03  0.14917347235E+04  0.28167761388E+04  0.59986570698E+03 0.  0.
         23    2    4    4    0    0  0.53017780762E+03  0.43642053179E+03  0.41487668004E+03  0.80726105641E+03  0.89422398176E+02 0.  0.
         23    2    4    4    0    0  0.16737989260E+04  0.26472354928E+03  0.10768580434E+04  0.20095150824E+04  0.82741879518E+02 0.  0.
          2    1    3    3  502    0 -0.12542182795E+04 -0.43084135670E+03 -0.67184061834E+03  0.14866262421E+04  0.00000000000E+00 0. -1.
         -2    1    3    3    0  502 -0.94975845409E+03 -0.27030272437E+03 -0.56502869904E+03  0.11377003624E+04  0.00000000000E+00 0.  1.
         13    1    5    5    0    0  0.26025779655E+03  0.26893614511E+03  0.24093480257E+03  0.44509588843E+03  0.00000000000E+00 0. -1.
        -13    1    5    5    0    0  0.26992001107E+03  0.16748438668E+03  0.17394187748E+03  0.36216516798E+03  0.00000000000E+00 0.  1.
          2    1    6    6  503    0  0.36979922832E+03  0.46975584748E+02  0.19917683639E+03  0.42264593572E+03  0.00000000000E+00 0. -1.
         -2    1    6    6    0  503  0.13039996976E+04  0.21774796453E+03  0.87768120702E+03  0.15868691467E+04  0.00000000000E+00 0.  1.
<mgrwt>
<rscale>  0 0.23501810E+04</rscale>
<asrwt>0</asrwt>
<pdfrwt beam="1">  1        2 0.43815140E+00 0.23501810E+04</pdfrwt>
<pdfrwt beam="2">  1       -2 0.39894133E+00 0.23501810E+04</pdfrwt>
<totfact> 0.13827744E-02</totfact>
</mgrwt>
</event>
<event>
12    1  0.1444206E-007  0.1827302E+04  0.7818608E-02  0.8691914E-01
          2   -1    0    0  501    0  0.00000000000E+00  0.00000000000E+00  0.21623470879E+04  0.21623470879E+04  0.00000000000E+00 0.  1.
         -2   -1    0    0    0  501 -0.00000000000E+00 -0.00000000000E+00 -0.20423727267E+04  0.20423727267E+04  0.00000000000E+00 0. -1.
         23    2    1    2    0    0  0.11833116366E+04 -0.13352580305E+04  0.10841574875E+04  0.20898204167E+04  0.93869479016E+02 0.  0.
    5000000    2    1    2    0    0 -0.11833116366E+04  0.13352580305E+04 -0.96418312631E+03  0.21148993978E+04  0.60000827029E+03 0.  0.
         23    2    4    4    0    0 -0.98030586236E+03  0.71391264014E+03 -0.70268657846E+03  0.14045254932E+04  0.90843778325E+02 0.  0.
         23    2    4    4    0    0 -0.20300577428E+03  0.62134539032E+03 -0.26149654785E+03  0.71037390457E+03  0.94705867210E+02 0.  0.
          2    1    3    3  502    0  0.98525758570E+03 -0.11553877658E+04  0.90177348181E+03  0.17660262772E+04  0.00000000000E+00 0. -1.
         -2    1    3    3    0  502  0.19805405095E+03 -0.17987026471E+03  0.18238400573E+03  0.32379413949E+03  0.00000000000E+00 0.  1.
         13    1    5    5    0    0 -0.49524091236E+03  0.31509467239E+03 -0.30886926559E+03  0.66328608991E+03  0.00000000000E+00 0. -1.
        -13    1    5    5    0    0 -0.48506495000E+03  0.39881796775E+03 -0.39381731287E+03  0.74123940332E+03  0.00000000000E+00 0.  1.
          2    1    6    6  503    0 -0.12378052849E+03  0.38364979442E+03 -0.11111336279E+03  0.41815662541E+03  0.00000000000E+00 0. -1.
         -2    1    6    6    0  503 -0.79225245797E+02  0.23769559591E+03 -0.15038318507E+03  0.29221727916E+03  0.00000000000E+00 0.  1.
<mgrwt>
<rscale>  0 0.18273025E+04</rscale>
<asrwt>0</asrwt>
<pdfrwt beam="1">  1        2 0.33266878E+00 0.18273025E+04</pdfrwt>
<pdfrwt beam="2">  1       -2 0.31421119E+00 0.18273025E+04</pdfrwt>
<totfact> 0.12736085E-01</totfact>
</mgrwt>
</event>
<event>
12    1  0.2274727E-007  0.1775185E+04  0.7818608E-02  0.8719608E-01
         -1   -1    0    0    0  501 -0.00000000000E+00  0.00000000000E+00  0.14817900222E+04  0.14817900222E+04  0.00000000000E+00 0.  1.
          1   -1    0    0  501    0  0.00000000000E+00 -0.00000000000E+00 -0.21811872251E+04  0.21811872251E+04  0.00000000000E+00 0. -1.
         23    2    1    2    0    0  0.69721963310E+03 -0.15809763745E+04 -0.59954397552E+03  0.18311512348E+04  0.89779467197E+02 0.  0.
    5000000    2    1    2    0    0 -0.69721963310E+03  0.15809763745E+04 -0.99853227399E+02  0.18318260125E+04  0.60001196618E+03 0.  0.
         23    2    4    4    0    0 -0.37156608120E+03  0.25306401515E+03 -0.42909775540E+01  0.45860952055E+03  0.90562306697E+02 0.  0.
         23    2    4    4    0    0 -0.32565355190E+03  0.13279123593E+04 -0.95562249845E+02  0.13732164919E+04  0.84793397132E+02 0.  0.
          4    1    3    3  502    0  0.43768764682E+03 -0.89084271979E+03 -0.32598339471E+03  0.10447183358E+04  0.00000000000E+00 0. -1.
         -4    1    3    3    0  502  0.25953198628E+03 -0.69013365468E+03 -0.27356058081E+03  0.78643289898E+03  0.00000000000E+00 0.  1.
         11    1    5    5    0    0 -0.18728163623E+03  0.15442721003E+03  0.37017616501E+02  0.24554526751E+03  0.00000000000E+00 0.  1.
        -11    1    5    5    0    0 -0.18428444497E+03  0.98636805121E+02 -0.41308594055E+02  0.21306425304E+03  0.00000000000E+00 0. -1.
          2    1    6    6  503    0 -0.21348083190E+03  0.98754898346E+03 -0.45697939818E+02  0.10113927833E+04  0.00000000000E+00 0. -1.
         -2    1    6    6    0  503 -0.11217272000E+03  0.34036337586E+03 -0.49864310027E+02  0.36182370867E+03  0.00000000000E+00 0.  1.
<mgrwt>
<rscale>  0 0.17751849E+04</rscale>
<asrwt>0</asrwt>
<pdfrwt beam="1">  1        1 0.33556727E+00 0.17751849E+04</pdfrwt>
<pdfrwt beam="2">  1       -1 0.22796769E+00 0.17751849E+04</pdfrwt>
<totfact> 0.20004944E-01</totfact>
</mgrwt>
</event>
<event>
12    1  0.1444206E-007  0.7446663E+03  0.7818608E-02  0.9643755E-01
         -2   -1    0    0    0  501 -0.00000000000E+00  0.00000000000E+00  0.49783659686E+03  0.49783659686E+03  0.00000000000E+00 0.  1.
          2   -1    0    0  501    0  0.00000000000E+00 -0.00000000000E+00 -0.11276381609E+04  0.11276381609E+04  0.00000000000E+00 0. -1.
         23    2    1    2    0    0 -0.36654319524E+02  0.62448817823E+03 -0.29005034948E+03  0.69452859108E+03  0.83136843234E+02 0.  0.
    5000000    2    1    2    0    0  0.36654319524E+02 -0.62448817823E+03 -0.33975121458E+03  0.93094616671E+03  0.59991737231E+03 0.  0.
         23    2    4    4    0    0  0.20434595417E+03 -0.62985180563E+03 -0.28551784037E+03  0.72744676210E+03  0.95852952369E+02 0.  0.
         23    2    4    4    0    0 -0.16769163465E+03  0.53636273971E+01 -0.54233374209E+02  0.20349940461E+03  0.10159476348E+03 0.  0.
          3    1    3    3  502    0 -0.51337993507E+02  0.34498774171E+03 -0.13078131109E+03  0.37249950717E+03  0.00000000000E+00 0. -1.
         -3    1    3    3    0  502  0.14683673983E+02  0.27950043652E+03 -0.15926903839E+03  0.32202908391E+03  0.00000000000E+00 0.  1.
         13    1    5    5    0    0  0.19756906953E+03 -0.63138997720E+03 -0.27929077629E+03  0.71811571370E+03  0.00000000000E+00 0. -1.
        -13    1    5    5    0    0  0.67768846437E+01  0.15381715645E+01 -0.62270640846E+01  0.93310484057E+01  0.00000000000E+00 0.  1.
          1    1    6    6  503    0 -0.16425344800E+03 -0.20959183641E+02 -0.60380391041E+02  0.17625060052E+03  0.00000000000E+00 0. -1.
         -1    1    6    6    0  503 -0.34381866415E+01  0.26322811038E+02  0.61470168311E+01  0.27248804089E+02  0.00000000000E+00 0.  1.
<mgrwt>
<rscale>  0 0.74466626E+03</rscale>
<asrwt>0</asrwt>
<pdfrwt beam="1">  1        2 0.17348279E+00 0.74466626E+03</pdfrwt>
<pdfrwt beam="2">  1       -2 0.76590246E-01 0.74466626E+03</pdfrwt>
<totfact> 0.32506811E+01</totfact>
</mgrwt>
</event>
<event>
12    1  0.1444206E-007  0.9284151E+03  0.7818608E-02  0.9390742E-01
         -1   -1    0    0    0  501 -0.00000000000E+00  0.00000000000E+00  0.54359188307E+03  0.54359188307E+03  0.00000000000E+00 0.  1.
          1   -1    0    0  501    0  0.00000000000E+00 -0.00000000000E+00 -0.23426881204E+04  0.23426881204E+04  0.00000000000E+00 0. -1.
         23    2    1    2    0    0 -0.38669880404E+03  0.75211171339E+03 -0.16262804629E+04  0.18349900558E+04  0.84807820885E+02 0.  0.
    5000000    2    1    2    0    0  0.38669880404E+03 -0.75211171339E+03 -0.17281577442E+03  0.10512899476E+04  0.60011437882E+03 0.  0.
         23    2    4    4    0    0 -0.58978230832E+02 -0.46342232009E+03 -0.19437123960E+03  0.51376468303E+03  0.89080257489E+02 0.  0.
         23    2    4    4    0    0  0.44567703488E+03 -0.28868939330E+03  0.21555465183E+02  0.53752526462E+03  0.80617534090E+02 0.  0.
          3    1    3    3  502    0 -0.19163034727E+03  0.43864826883E+03 -0.98090388888E+03  0.10914700788E+04  0.00000000000E+00 0. -1.
         -3    1    3    3    0  502 -0.19506845678E+03  0.31346344455E+03 -0.64537657403E+03  0.74351997700E+03  0.00000000000E+00 0.  1.
         13    1    5    5    0    0 -0.11102561989E+02 -0.37383543473E+03 -0.15306449616E+03  0.40411005819E+03  0.00000000000E+00 0. -1.
        -13    1    5    5    0    0 -0.47875668842E+02 -0.89586885353E+02 -0.41306743444E+02  0.10965462484E+03  0.00000000000E+00 0.  1.
          3    1    6    6  503    0  0.37176937373E+02 -0.88652410751E+01 -0.14931203179E+02  0.41032401832E+02  0.00000000000E+00 0. -1.
         -3    1    6    6    0  503  0.40850009750E+03 -0.27982415222E+03  0.36486668362E+02  0.49649286278E+03  0.00000000000E+00 0.  1.
<mgrwt>
<rscale>  0 0.92841508E+03</rscale>
<asrwt>0</asrwt>
<pdfrwt beam="1">  1        1 0.36041355E+00 0.92841508E+03</pdfrwt>
<pdfrwt beam="2">  1       -1 0.83629521E-01 0.92841508E+03</pdfrwt>
<totfact> 0.25343563E+00</totfact>
</mgrwt>
</event>
<event>
12    1  0.1444206E-007  0.8353804E+03  0.7818608E-02  0.9510172E-01
         -1   -1    0    0    0  501 -0.00000000000E+00  0.00000000000E+00  0.11171128640E+04  0.11171128640E+04  0.00000000000E+00 0.  1.
          1   -1    0    0  501    0  0.00000000000E+00 -0.00000000000E+00 -0.10753057700E+04  0.10753057700E+04  0.00000000000E+00 0. -1.
         23    2    1    2    0    0 -0.16295953563E+03  0.79690575810E+03 -0.58169437559E+03  0.10042483667E+04  0.92367948068E+02 0.  0.
    5000000    2    1    2    0    0  0.16295953563E+03 -0.79690575810E+03  0.62350146956E+03  0.11881702673E+04  0.60114882013E+03 0.  0.
         23    2    4    4    0    0  0.21683425042E+02 -0.60885704073E+03  0.69310271600E+03  0.92723370060E+03  0.90520128334E+02 0.  0.
         23    2    4    4    0    0  0.14127611059E+03 -0.18804871737E+03 -0.69601246442E+02  0.26093656667E+03  0.89007296286E+02 0.  0.
          2    1    3    3  502    0 -0.78525564206E+02  0.32856047857E+03 -0.18792749600E+03  0.38656822951E+03  0.00000000000E+00 0. -1.
         -2    1    3    3    0  502 -0.84433971426E+02  0.46834527953E+03 -0.39376687959E+03  0.61768013717E+03  0.00000000000E+00 0.  1.
         11    1    5    5    0    0 -0.19479201654E+02 -0.11725748423E+03  0.96607683021E+02  0.15317245615E+03  0.00000000000E+00 0. -1.
        -11    1    5    5    0    0  0.41162626695E+02 -0.49159955650E+03  0.59649503298E+03  0.77406124445E+03  0.00000000000E+00 0.  1.
          1    1    6    6  503    0  0.42133384319E+02 -0.11276915218E+03 -0.63972448376E+02  0.13632526512E+03  0.00000000000E+00 0. -1.
         -1    1    6    6    0  503  0.99142726271E+02 -0.75279565186E+02 -0.56287980655E+01  0.12461130155E+03  0.00000000000E+00 0.  1.
<mgrwt>
<rscale>  0 0.83538043E+03</rscale>
<asrwt>0</asrwt>
<pdfrwt beam="1">  1        1 0.16543166E+00 0.83538043E+03</pdfrwt>
<pdfrwt beam="2">  1       -1 0.17186352E+00 0.83538043E+03</pdfrwt>
<totfact> 0.32382846E+00</totfact>
</mgrwt>
</event>
<event>
12    1  0.1444206E-007  0.8759056E+03  0.7818608E-02  0.9456212E-01
          1   -1    0    0  501    0  0.00000000000E+00  0.00000000000E+00  0.35534838969E+03  0.35534838969E+03  0.00000000000E+00 0. -1.
         -1   -1    0    0    0  501 -0.00000000000E+00 -0.00000000000E+00 -0.23104704895E+04  0.23104704895E+04  0.00000000000E+00 0.  1.
         23    2    1    2    0    0 -0.79763924129E+03  0.67838995167E+02 -0.76509463555E+03  0.11111728360E+04  0.92221372510E+02 0.  0.
    5000000    2    1    2    0    0  0.79763924129E+03 -0.67838995167E+02 -0.11900274643E+04  0.15546460432E+04  0.59994038494E+03 0.  0.
         23    2    4    4    0    0  0.65394883625E+03  0.14675185831E+03 -0.10438014849E+04  0.12444526260E+04  0.99777803554E+02 0.  0.
         23    2    4    4    0    0  0.14369040505E+03 -0.21459085348E+03 -0.14622597941E+03  0.31019341727E+03  0.90231658342E+02 0.  0.
          2    1    3    3  502    0 -0.49583024082E+03  0.40745945435E+01 -0.50423709656E+03  0.70719111956E+03  0.00000000000E+00 0.  1.
         -2    1    3    3    0  502 -0.30180900047E+03  0.63764400623E+02 -0.26085753899E+03  0.40398171642E+03  0.00000000000E+00 0. -1.
         11    1    5    5    0    0  0.23590371783E+03  0.16234825539E+02 -0.42504023915E+03  0.48638805345E+03  0.00000000000E+00 0. -1.
        -11    1    5    5    0    0  0.41804511841E+03  0.13051703277E+03 -0.61876124573E+03  0.75806457251E+03  0.00000000000E+00 0.  1.
          4    1    6    6  503    0  0.12741110977E+03 -0.11331797173E+03 -0.10013115906E+03  0.19773922884E+03  0.00000000000E+00 0. -1.
         -4    1    6    6    0  503  0.16279295281E+02 -0.10127288175E+03 -0.46094820349E+02  0.11245418843E+03  0.00000000000E+00 0.  1.
<mgrwt>
<rscale>  0 0.87590564E+03</rscale>
<asrwt>0</asrwt>
<pdfrwt beam="1">  1        1 0.54668984E-01 0.87590564E+03</pdfrwt>
<pdfrwt beam="2">  1       -1 0.35545699E+00 0.87590564E+03</pdfrwt>
<totfact> 0.10437015E+00</totfact>
</mgrwt>
</event>
<event>
12    1  0.1444206E-007  0.6261050E+03  0.7818608E-02  0.9852679E-01
         -2   -1    0    0    0  501 -0.00000000000E+00  0.00000000000E+00  0.70635392403E+03  0.70635392403E+03  0.00000000000E+00 0.  1.
          2   -1    0    0  501    0  0.00000000000E+00 -0.00000000000E+00 -0.94423321176E+03  0.94423321176E+03  0.00000000000E+00 0. -1.
         23    2    1    2    0    0 -0.54366806297E+03 -0.26796147926E+03  0.25670074091E+03  0.66467935868E+03  0.92331264556E+02 0.  0.
    5000000    2    1    2    0    0  0.54366806297E+03  0.26796147926E+03 -0.49458002864E+03  0.98590777710E+03  0.60002201889E+03 0.  0.
         23    2    4    4    0    0  0.12394006512E+03  0.10061996918E+03  0.11866538432E+03  0.21886446153E+03  0.91294365340E+02 0.  0.
         23    2    4    4    0    0  0.41972799785E+03  0.16734151008E+03 -0.61324541296E+03  0.76704331558E+03  0.90059637303E+02 0.  0.
          2    1    3    3  502    0 -0.42107492302E+03 -0.22772870596E+03  0.16485473036E+03  0.50630182346E+03  0.00000000000E+00 0. -1.
         -2    1    3    3    0  502 -0.12259313995E+03 -0.40232773301E+02  0.91846010549E+02  0.15837753523E+03  0.00000000000E+00 0.  1.
         13    1    5    5    0    0  0.88131478156E+02  0.11534829509E+03  0.92351813125E+02  0.17205012063E+03  0.00000000000E+00 0. -1.
        -13    1    5    5    0    0  0.35808586963E+02 -0.14728325906E+02  0.26313571197E+02  0.46814340895E+02  0.00000000000E+00 0.  1.
          1    1    6    6  503    0  0.20880579883E+03  0.35360856615E+02 -0.29188290286E+03  0.36061874714E+03  0.00000000000E+00 0. -1.
         -1    1    6    6    0  503  0.21092219902E+03  0.13198065346E+03 -0.32136251010E+03  0.40642456843E+03  0.00000000000E+00 0.  1.
<mgrwt>
<rscale>  0 0.62610502E+03</rscale>
<asrwt>0</asrwt>
<pdfrwt beam="1">  1        2 0.14526665E+00 0.62610502E+03</pdfrwt>
<pdfrwt beam="2">  1       -2 0.10866983E+00 0.62610502E+03</pdfrwt>
<totfact> 0.19096495E+01</totfact>
</mgrwt>
</event>
<event>
12    1  0.1444206E-007  0.1656558E+04  0.7818608E-02  0.8786537E-01
         -1   -1    0    0    0  501 -0.00000000000E+00  0.00000000000E+00  0.13820140098E+04  0.13820140098E+04  0.00000000000E+00 0.  1.
          1   -1    0    0  501    0  0.00000000000E+00 -0.00000000000E+00 -0.20840839901E+04  0.20840839901E+04  0.00000000000E+00 0. -1.
         23    2    1    2    0    0  0.13434198861E+04  0.88147702835E+03 -0.68664326028E+03  0.17508283424E+04  0.11019154152E+03 0.  0.
    5000000    2    1    2    0    0 -0.13434198861E+04 -0.88147702835E+03 -0.15426719972E+02  0.17152696575E+04  0.60011105003E+03 0.  0.
         23    2    4    4    0    0 -0.85989517981E+03 -0.24040240912E+03 -0.96760003675E+02  0.90315867738E+03  0.95499003370E+02 0.  0.
         23    2    4    4    0    0 -0.48352470632E+03 -0.64107461923E+03  0.81333283703E+02  0.81211098014E+03  0.90201618526E+02 0.  0.
          1    1    3    3  502    0  0.35599459296E+03  0.26621920581E+03 -0.14569677284E+03  0.46779521735E+03  0.00000000000E+00 0.  1.
         -1    1    3    3    0  502  0.98742529316E+03  0.61525782254E+03 -0.54094648744E+03  0.12830331251E+04  0.00000000000E+00 0. -1.
         11    1    5    5    0    0 -0.48112986680E+03 -0.18354351748E+03 -0.54968700654E+02  0.51787617206E+03  0.00000000000E+00 0. -1.
        -11    1    5    5    0    0 -0.37876531301E+03 -0.56858891642E+02 -0.41791303021E+02  0.38528250532E+03  0.00000000000E+00 0.  1.
          3    1    6    6  503    0 -0.48699811991E+03 -0.63558621924E+03  0.83969606713E+02  0.80510117733E+03  0.00000000000E+00 0. -1.
         -3    1    6    6    0  503  0.34734135929E+01 -0.54883999923E+01 -0.26363230097E+01  0.70098028128E+01  0.00000000000E+00 0.  1.
<mgrwt>
<rscale>  0 0.16565575E+04</rscale>
<asrwt>0</asrwt>
<pdfrwt beam="1">  1        1 0.32062830E+00 0.16565575E+04</pdfrwt>
<pdfrwt beam="2">  1       -1 0.21261754E+00 0.16565575E+04</pdfrwt>
<totfact> 0.29940273E-01</totfact>
</mgrwt>
</event>
<event>
12    1  0.1444206E-007  0.1038920E+04  0.7818608E-02  0.9266858E-01
         -2   -1    0    0    0  501 -0.00000000000E+00  0.00000000000E+00  0.73459643462E+03  0.73459643462E+03  0.00000000000E+00 0. -1.
          2   -1    0    0  501    0  0.00000000000E+00 -0.00000000000E+00 -0.15106351219E+04  0.15106351219E+04  0.00000000000E+00 0.  1.
         23    2    1    2    0    0  0.77066413569E+03  0.58220847895E+03 -0.36481006855E+03  0.10360783943E+04  0.86499306038E+02 0.  0.
    5000000    2    1    2    0    0 -0.77066413569E+03 -0.58220847895E+03 -0.41122861875E+03  0.12091531623E+04  0.60004372335E+03 0.  0.
         23    2    4    4    0    0 -0.18929614328E+03  0.94462407654E+02 -0.14187693278E+03  0.27257010923E+03  0.97001155010E+02 0.  0.
         23    2    4    4    0    0 -0.58136799242E+03 -0.67667088660E+03 -0.26935168597E+03  0.93658305303E+03  0.93622930476E+02 0.  0.
          3    1    3    3  502    0  0.45508001407E+03  0.29085769486E+03 -0.21160257450E+03  0.58006177895E+03  0.00000000000E+00 0. -1.
         -3    1    3    3    0  502  0.31558412162E+03  0.29135078409E+03 -0.15320749406E+03  0.45601661531E+03  0.00000000000E+00 0.  1.
         13    1    5    5    0    0 -0.32274194185E+02  0.33242116773E+02 -0.81119396414E+02  0.93418512150E+02  0.00000000000E+00 0. -1.
        -13    1    5    5    0    0 -0.15702194909E+03  0.61220290881E+02 -0.60757536364E+02  0.17915159708E+03  0.00000000000E+00 0.  1.
          3    1    6    6  503    0 -0.20230766753E+03 -0.27074893813E+03 -0.14305761459E+03  0.36701343427E+03  0.00000000000E+00 0. -1.
         -3    1    6    6    0  503 -0.37906032489E+03 -0.40592194848E+03 -0.12629407137E+03  0.56956961877E+03  0.00000000000E+00 0.  1.
<mgrwt>
<rscale>  0 0.10389203E+04</rscale>
<asrwt>0</asrwt>
<pdfrwt beam="1">  1        2 0.23240540E+00 0.10389203E+04</pdfrwt>
<pdfrwt beam="2">  1       -2 0.11301484E+00 0.10389203E+04</pdfrwt>
<totfact> 0.76299922E+00</totfact>
</mgrwt>
</event>
<event>
12    1  0.1444206E-007  0.6316595E+03  0.7818608E-02  0.9841816E-01
          1   -1    0    0  501    0  0.00000000000E+00  0.00000000000E+00  0.41505998017E+03  0.41505998017E+03  0.00000000000E+00 0. -1.
         -1   -1    0    0    0  501 -0.00000000000E+00 -0.00000000000E+00 -0.11659925024E+04  0.11659925024E+04  0.00000000000E+00 0.  1.
         23    2    1    2    0    0 -0.53956379823E+03  0.11990766062E+03 -0.42259153854E+03  0.70167948677E+03  0.90904093759E+02 0.  0.
    5000000    2    1    2    0    0  0.53956379823E+03 -0.11990766062E+03 -0.32834098371E+03  0.87937299582E+03  0.59998510378E+03 0.  0.
         23    2    4    4    0    0  0.54299210582E+03 -0.20725538849E+03 -0.70766616054E+02  0.59237197807E+03  0.90007907490E+02 0.  0.
         23    2    4    4    0    0 -0.34283075864E+01  0.87347727871E+02 -0.25757436766E+03  0.28700101775E+03  0.91562276400E+02 0.  0.
          3    1    3    3  502    0 -0.18607751675E+03 -0.14378447249E+01 -0.15198299146E+03  0.24026181414E+03  0.00000000000E+00 0. -1.
         -3    1    3    3    0  502 -0.35348628148E+03  0.12134550535E+03 -0.27060854708E+03  0.46141767263E+03  0.00000000000E+00 0.  1.
         13    1    5    5    0    0  0.87139999903E+02 -0.41711091975E+02 -0.45357693459E+02  0.10672635632E+03  0.00000000000E+00 0. -1.
        -13    1    5    5    0    0  0.45585210592E+03 -0.16554429652E+03 -0.25408922595E+02  0.48564562175E+03  0.00000000000E+00 0.  1.
          3    1    6    6  503    0  0.22522170204E+02 -0.73754768356E+01 -0.24537756922E+02  0.34113740985E+02  0.00000000000E+00 0. -1.
         -3    1    6    6    0  503 -0.25950477791E+02  0.94723204707E+02 -0.23303661074E+03  0.25288727677E+03  0.00000000000E+00 0.  1.
<mgrwt>
<rscale>  0 0.63165946E+03</rscale>
<asrwt>0</asrwt>
<pdfrwt beam="1">  1        1 0.63855382E-01 0.63165946E+03</pdfrwt>
<pdfrwt beam="2">  1       -1 0.17938346E+00 0.63165946E+03</pdfrwt>
<totfact> 0.12545639E+01</totfact>
</mgrwt>
</event>
<event>
12    1  0.1444206E-007  0.5947121E+03  0.7818608E-02  0.9916438E-01
          1   -1    0    0  501    0  0.00000000000E+00  0.00000000000E+00  0.30719455145E+04  0.30719455145E+04  0.00000000000E+00 0. -1.
         -1   -1    0    0    0  501 -0.00000000000E+00 -0.00000000000E+00 -0.22269072091E+03  0.22269072091E+03  0.00000000000E+00 0.  1.
         23    2    1    2    0    0  0.27720386685E+03 -0.47664361328E+03  0.21481365667E+04  0.22196683839E+04  0.91683734251E+02 0.  0.
    5000000    2    1    2    0    0 -0.27720386685E+03  0.47664361328E+03  0.70111822685E+03  0.10749678515E+04  0.59996499559E+03 0.  0.
         23    2    4    4    0    0 -0.15510341524E+03  0.19794536805E+02  0.53631227810E+03  0.56573637371E+03  0.89319044937E+02 0.  0.
         23    2    4    4    0    0 -0.12210045161E+03  0.45684907647E+03  0.16480594875E+03  0.50923147783E+03  0.92391007718E+02 0.  0.
          3    1    3    3  502    0  0.12530272206E+03 -0.23470738622E+03  0.85905444046E+03  0.89931243791E+03  0.00000000000E+00 0. -1.
         -3    1    3    3    0  502  0.15190114479E+03 -0.24193622706E+03  0.12890821263E+04  0.13203559460E+04  0.00000000000E+00 0.  1.
         13    1    5    5    0    0 -0.64585927624E+02 -0.23504663898E+01  0.96380524457E+02  0.11604340668E+03  0.00000000000E+00 0. -1.
        -13    1    5    5    0    0 -0.90517487619E+02  0.22145003195E+02  0.43993175365E+03  0.44969296703E+03  0.00000000000E+00 0.  1.
          2    1    6    6  503    0 -0.90957914674E+02  0.18396663794E+03  0.47947988433E+02  0.21075121758E+03  0.00000000000E+00 0. -1.
         -2    1    6    6    0  503 -0.31142536936E+02  0.27288243853E+03  0.11685796031E+03  0.29848026024E+03  0.00000000000E+00 0.  1.
<mgrwt>
<rscale>  0 0.59471209E+03</rscale>
<asrwt>0</asrwt>
<pdfrwt beam="1">  1        1 0.47260697E+00 0.59471209E+03</pdfrwt>
<pdfrwt beam="2">  1       -1 0.34260113E-01 0.59471209E+03</pdfrwt>
<totfact> 0.47180244E+00</totfact>
</mgrwt>
</event>
<event>
12    1  0.1444206E-007  0.2735977E+03  0.7818608E-02  0.1099238E+00
         -1   -1    0    0    0  501 -0.00000000000E+00  0.00000000000E+00  0.13811554466E+04  0.13811554466E+04  0.00000000000E+00 0.  1.
          1   -1    0    0  501    0  0.00000000000E+00 -0.00000000000E+00 -0.24936075861E+03  0.24936075861E+03  0.00000000000E+00 0. -1.
         23    2    1    2    0    0 -0.23897209714E+03  0.37278539430E+02 -0.68178757224E+02  0.26729312203E+03  0.91103882669E+02 0.  0.
    5000000    2    1    2    0    0  0.23897209714E+03 -0.37278539430E+02  0.11999734453E+04  0.13632230832E+04  0.59995295866E+03 0.  0.
         23    2    4    4    0    0  0.10220662601E+03  0.33286139792E+02  0.11738932566E+04  0.11821368780E+04  0.88702079229E+02 0.  0.
         23    2    4    4    0    0  0.13676547113E+03 -0.70564679222E+02  0.26080188656E+02  0.18108620525E+03  0.91803428298E+02 0.  0.
          3    1    3    3  502    0 -0.18810870465E+03  0.66681682340E+02 -0.56115524142E+02  0.20731686756E+03  0.00000000000E+00 0. -1.
         -3    1    3    3    0  502 -0.50863392490E+02 -0.29403142911E+02 -0.12063233082E+02  0.59976254476E+02  0.00000000000E+00 0.  1.
         13    1    5    5    0    0  0.62600952809E+02 -0.20802636283E+01  0.29178938715E+03  0.29843634705E+03  0.00000000000E+00 0. -1.
        -13    1    5    5    0    0  0.39605673202E+02  0.35366403420E+02  0.88210386945E+03  0.88370053091E+03  0.00000000000E+00 0.  1.
          4    1    6    6  503    0  0.34248596323E+02 -0.61274585375E+02  0.33701705890E+02  0.77867490924E+02  0.00000000000E+00 0. -1.
         -4    1    6    6    0  503  0.10251687480E+03 -0.92900938472E+01 -0.76215172346E+01  0.10321871433E+03  0.00000000000E+00 0.  1.
<mgrwt>
<rscale>  0 0.27359765E+03</rscale>
<asrwt>0</asrwt>
<pdfrwt beam="1">  1        1 0.38363194E-01 0.27359765E+03</pdfrwt>
<pdfrwt beam="2">  1       -1 0.21248545E+00 0.27359765E+03</pdfrwt>
<totfact> 0.15442992E+01</totfact>
</mgrwt>
</event>
<event>
12    1  0.1444206E-007  0.7580902E+03  0.7818608E-02  0.9622743E-01
         -2   -1    0    0    0  501 -0.00000000000E+00  0.00000000000E+00  0.21658802244E+04  0.21658802244E+04  0.00000000000E+00 0.  1.
          2   -1    0    0  501    0  0.00000000000E+00 -0.00000000000E+00 -0.31195725072E+03  0.31195725072E+03  0.00000000000E+00 0. -1.
         23    2    1    2    0    0  0.64651950832E+03 -0.51701511068E+02  0.37394020391E+03  0.75417458781E+03  0.91035772683E+02 0.  0.
    5000000    2    1    2    0    0 -0.64651950832E+03  0.51701511068E+02  0.14799827698E+04  0.17236628873E+04  0.60000352449E+03 0.  0.
         23    2    4    4    0    0 -0.18464990614E+03 -0.24820851572E+03  0.61115770487E+03  0.69091034202E+03  0.90223640898E+02 0.  0.
         23    2    4    4    0    0 -0.46186960218E+03  0.29991002678E+03  0.86882506489E+03  0.10327525453E+04  0.91930804565E+02 0.  0.
          1    1    3    3  502    0  0.49936302788E+03 -0.35173998396E+02  0.33047644911E+03  0.59984608626E+03  0.00000000000E+00 0. -1.
         -1    1    3    3    0  502  0.14715648044E+03 -0.16527512672E+02  0.43463754800E+02  0.15432850155E+03  0.00000000000E+00 0.  1.
         13    1    5    5    0    0 -0.30932243991E+01 -0.30917592412E+02  0.12018572666E+03  0.12413732094E+03  0.00000000000E+00 0.  1.
        -13    1    5    5    0    0 -0.18155668174E+03 -0.21729092330E+03  0.49097197821E+03  0.56677302108E+03  0.00000000000E+00 0. -1.
          2    1    6    6  503    0 -0.30437542433E+03  0.16694859915E+03  0.47610671663E+03  0.58923156680E+03  0.00000000000E+00 0.  1.
         -2    1    6    6    0  503 -0.15749417785E+03  0.13296142763E+03  0.39271834826E+03  0.44352097848E+03  0.00000000000E+00 0. -1.
<mgrwt>
<rscale>  0 0.75809017E+03</rscale>
<asrwt>0</asrwt>
<pdfrwt beam="1">  1        2 0.47993424E-01 0.75809017E+03</pdfrwt>
<pdfrwt beam="2">  1       -2 0.33321233E+00 0.75809017E+03</pdfrwt>
<totfact> 0.21813820E+00</totfact>
</mgrwt>
</event>
<event>
12    1  0.1444206E-007  0.3707044E+03  0.7818608E-02  0.1054424E+00
          3   -1    0    0  501    0  0.00000000000E+00  0.00000000000E+00  0.49534571964E+03  0.49534571964E+03  0.00000000000E+00 0. -1.
         -3   -1    0    0    0  501 -0.00000000000E+00 -0.00000000000E+00 -0.63783441631E+03  0.63783441631E+03  0.00000000000E+00 0.  1.
         23    2    1    2    0    0  0.63836402036E+02  0.12765810026E+03 -0.42199930657E+03  0.45604967710E+03  0.97602338371E+02 0.  0.
    5000000    2    1    2    0    0 -0.63836402036E+02 -0.12765810026E+03  0.27951060990E+03  0.67713045885E+03  0.60000650035E+03 0.  0.
         23    2    4    4    0    0 -0.22333687261E+03  0.15051523830E+03  0.11257238191E+03  0.30578736542E+03  0.91099813699E+02 0.  0.
         23    2    4    4    0    0  0.15950047058E+03 -0.27817333856E+03  0.16693822800E+03  0.37134309342E+03  0.84891193109E+02 0.  0.
          3    1    3    3  502    0  0.38472257527E+02  0.91902338360E+02 -0.38795720639E+03  0.40054581310E+03  0.00000000000E+00 0. -1.
         -3    1    3    3    0  502  0.25364144508E+02  0.35755761896E+02 -0.34042100174E+02  0.55503864007E+02  0.00000000000E+00 0.  1.
         13    1    5    5    0    0 -0.89838006585E+02  0.46861145211E+02  0.89522607286E+02  0.13520773489E+03  0.00000000000E+00 0. -1.
        -13    1    5    5    0    0 -0.13349886603E+03  0.10365409309E+03  0.23049774622E+02  0.17057963054E+03  0.00000000000E+00 0.  1.
          3    1    6    6  503    0  0.14422326092E+03 -0.19227800959E+03  0.95692444302E+02  0.25870490111E+03  0.00000000000E+00 0. -1.
         -3    1    6    6    0  503  0.15277209661E+02 -0.85895328966E+02  0.71245783695E+02  0.11263819231E+03  0.00000000000E+00 0.  1.
<mgrwt>
<rscale>  0 0.37070441E+03</rscale>
<asrwt>0</asrwt>
<pdfrwt beam="1">  1        3 0.76207034E-01 0.37070441E+03</pdfrwt>
<pdfrwt beam="2">  1       -3 0.98128372E-01 0.37070441E+03</pdfrwt>
<totfact> 0.38641291E+00</totfact>
</mgrwt>
</event>
<event>
12    1  0.1444206E-007  0.1164364E+04  0.7818608E-02  0.9144634E-01
          4   -1    0    0  501    0  0.00000000000E+00  0.00000000000E+00  0.12987543717E+04  0.12987543717E+04  0.00000000000E+00 0. -1.
         -4   -1    0    0    0  501 -0.00000000000E+00 -0.00000000000E+00 -0.12411099815E+04  0.12411099815E+04  0.00000000000E+00 0.  1.
         23    2    1    2    0    0 -0.29151535773E+03 -0.10810570933E+04  0.45025471783E+03  0.12100879909E+04  0.88983099076E+02 0.  0.
    5000000    2    1    2    0    0  0.29151535773E+03  0.10810570933E+04 -0.39261032757E+03  0.13297763623E+04  0.60041374208E+03 0.  0.
         23    2    4    4    0    0 -0.71592717607E+02  0.58456728848E+03 -0.38139065000E+03  0.70748413641E+03  0.90722342283E+02 0.  0.
         23    2    4    4    0    0  0.36310807534E+03  0.49648980484E+03 -0.11219677574E+02  0.62229222592E+03  0.93659663610E+02 0.  0.
          1    1    3    3  502    0 -0.60192991750E+02 -0.25483453317E+03  0.14563954102E+03  0.29962428383E+03  0.00000000000E+00 0. -1.
         -1    1    3    3    0  502 -0.23132236598E+03 -0.82622256014E+03  0.30461517681E+03  0.91046370704E+03  0.00000000000E+00 0.  1.
         11    1    5    5    0    0 -0.13614663497E+02  0.41151606361E+02 -0.43990647577E+01  0.43567941643E+02  0.00000000000E+00 0. -1.
        -11    1    5    5    0    0 -0.57978054110E+02  0.54341568212E+03 -0.37699158524E+03  0.66391619477E+03  0.00000000000E+00 0.  1.
          2    1    6    6  503    0  0.12022805464E+03  0.22244588081E+03 -0.35336950857E+02  0.25531481568E+03  0.00000000000E+00 0. -1.
         -2    1    6    6    0  503  0.24288002070E+03  0.27404392403E+03  0.24117273283E+02  0.36697741024E+03  0.00000000000E+00 0.  1.
<mgrwt>
<rscale>  0 0.11643639E+04</rscale>
<asrwt>0</asrwt>
<pdfrwt beam="1">  1        4 0.19980836E+00 0.11643639E+04</pdfrwt>
<pdfrwt beam="2">  1       -4 0.19094000E+00 0.11643639E+04</pdfrwt>
<totfact> 0.37763850E-02</totfact>
</mgrwt>
</event>
<event>
12    1  0.1444206E-007  0.4951903E+03  0.7818608E-02  0.1015042E+00
          2   -1    0    0  501    0  0.00000000000E+00  0.00000000000E+00  0.30016554552E+04  0.30016554552E+04  0.00000000000E+00 0. -1.
         -2   -1    0    0    0  501 -0.00000000000E+00 -0.00000000000E+00 -0.22295731626E+03  0.22295731626E+03  0.00000000000E+00 0.  1.
         23    2    1    2    0    0 -0.19608194711E+03  0.25551231068E+03  0.24418625760E+04  0.24647547691E+04  0.92674489511E+02 0.  0.
    5000000    2    1    2    0    0  0.19608194711E+03 -0.25551231068E+03  0.33683556291E+03  0.75985800229E+03  0.60015940908E+03 0.  0.
         23    2    4    4    0    0 -0.12466719080E+03  0.10232486352E+03  0.45855993823E+02  0.19072533943E+03  0.90890575825E+02 0.  0.
         23    2    4    4    0    0  0.32074913791E+03 -0.35783717420E+03  0.29097956909E+03  0.56913266286E+03  0.91188955491E+02 0.  0.
          2    1    3    3  502    0 -0.11205373220E+03  0.82919066990E+02  0.12140801216E+04  0.12220565257E+04  0.00000000000E+00 0. -1.
         -2    1    3    3    0  502 -0.84028214908E+02  0.17259324369E+03  0.12277824544E+04  0.12426982434E+04  0.00000000000E+00 0.  1.
         11    1    5    5    0    0 -0.96323000854E+02  0.30599041220E+02  0.13160999098E+00  0.10106650849E+03  0.00000000000E+00 0.  1.
        -11    1    5    5    0    0 -0.28344189946E+02  0.71725822299E+02  0.45724383832E+02  0.89658830937E+02  0.00000000000E+00 0. -1.
          4    1    6    6  503    0  0.12625434618E+03 -0.15302422196E+03  0.17230961284E+03  0.26276829168E+03  0.00000000000E+00 0. -1.
         -4    1    6    6    0  503  0.19449479173E+03 -0.20481295223E+03  0.11866995625E+03  0.30636437118E+03  0.00000000000E+00 0.  1.
<mgrwt>
<rscale>  0 0.49519034E+03</rscale>
<asrwt>0</asrwt>
<pdfrwt beam="1">  1        2 0.46179312E+00 0.49519034E+03</pdfrwt>
<pdfrwt beam="2">  1       -2 0.34301128E-01 0.49519034E+03</pdfrwt>
<totfact> 0.15488237E+01</totfact>
</mgrwt>
</event>
<event>
12    1  0.1444206E-007  0.1009325E+04  0.7818608E-02  0.9298377E-01
         -2   -1    0    0    0  501 -0.00000000000E+00  0.00000000000E+00  0.77244817039E+03  0.77244817039E+03  0.00000000000E+00 0.  1.
          2   -1    0    0  501    0  0.00000000000E+00 -0.00000000000E+00 -0.16381783019E+04  0.16381783019E+04  0.00000000000E+00 0. -1.
         23    2    1    2    0    0  0.77220957916E+03  0.54906951876E+03 -0.86863248090E+03  0.12886890344E+04  0.91717336730E+02 0.  0.
    5000000    2    1    2    0    0 -0.77220957916E+03 -0.54906951876E+03  0.29023493511E+01  0.11219374380E+04  0.60079132856E+03 0.  0.
         23    2    4    4    0    0 -0.85890462352E+02 -0.32871427923E+03  0.14664159758E+03  0.38132165900E+03  0.92044557595E+02 0.  0.
         23    2    4    4    0    0 -0.68631911681E+03 -0.22035523953E+03 -0.14373924823E+03  0.74061577896E+03  0.90886736523E+02 0.  0.
          2    1    3    3  502    0  0.56574896778E+03  0.38699008279E+03 -0.57348062068E+03  0.89370758138E+03  0.00000000000E+00 0. -1.
         -2    1    3    3    0  502  0.20646061139E+03  0.16207943598E+03 -0.29515186022E+03  0.39498145300E+03  0.00000000000E+00 0.  1.
         13    1    5    5    0    0 -0.82562193089E+02 -0.19531563101E+03  0.12496597535E+03  0.24613249773E+03  0.00000000000E+00 0. -1.
        -13    1    5    5    0    0 -0.33282692633E+01 -0.13339864823E+03  0.21675622233E+02  0.13518916127E+03  0.00000000000E+00 0.  1.
          1    1    6    6  503    0 -0.54705252483E+03 -0.20859958406E+03 -0.13334834921E+03  0.60046817870E+03  0.00000000000E+00 0. -1.
         -1    1    6    6    0  503 -0.13926659198E+03 -0.11755655477E+02 -0.10390899024E+02  0.14014760026E+03  0.00000000000E+00 0.  1.
<mgrwt>
<rscale>  0 0.10093245E+04</rscale>
<asrwt>0</asrwt>
<pdfrwt beam="1">  1        2 0.25202743E+00 0.10093245E+04</pdfrwt>
<pdfrwt beam="2">  1       -2 0.11883818E+00 0.10093245E+04</pdfrwt>
<totfact> 0.57415588E+00</totfact>
</mgrwt>
</event>
<event>
12    1  0.1444206E-007  0.4704229E+03  0.7818608E-02  0.1021801E+00
          1   -1    0    0  501    0  0.00000000000E+00  0.00000000000E+00  0.20522839969E+04  0.20522839969E+04  0.00000000000E+00 0. -1.
         -1   -1    0    0    0  501 -0.00000000000E+00 -0.00000000000E+00 -0.23519605034E+03  0.23519605034E+03  0.00000000000E+00 0.  1.
         23    2    1    2    0    0 -0.19258532928E+03  0.39680511746E+03  0.17287490985E+03  0.48262616839E+03  0.92189335929E+02 0.  0.
    5000000    2    1    2    0    0  0.19258532928E+03 -0.39680511746E+03  0.16442130367E+04  0.18048538788E+04  0.59959786827E+03 0.  0.
         23    2    4    4    0    0  0.20543897974E+03 -0.41098670411E+03  0.62621098170E+03  0.78258541671E+03  0.95835773566E+02 0.  0.
         23    2    4    4    0    0 -0.12853650459E+02  0.14181586649E+02  0.10180020550E+04  0.10222684621E+04  0.91314242920E+02 0.  0.
          3    1    3    3  502    0 -0.72090467637E+02  0.15846337953E+03  0.11705966046E+03  0.20978713565E+03  0.00000000000E+00 0. -1.
         -3    1    3    3    0  502 -0.12049486164E+03  0.23834173793E+03  0.55815249396E+02  0.27283903274E+03  0.00000000000E+00 0.  1.
         11    1    5    5    0    0 -0.43451062434E+00 -0.24225516457E+02  0.93791117327E+01  0.25981381487E+02  0.00000000000E+00 0.  1.
        -11    1    5    5    0    0  0.20587349036E+03 -0.38676118765E+03  0.61683186996E+03  0.75660403522E+03  0.00000000000E+00 0. -1.
          4    1    6    6  503    0  0.10668495128E+02  0.21068847412E+01  0.93694411611E+03  0.93700722114E+03  0.00000000000E+00 0. -1.
         -4    1    6    6    0  503 -0.23522145587E+02  0.12074701908E+02  0.81057938898E+02  0.85261241004E+02  0.00000000000E+00 0.  1.
<mgrwt>
<rscale>  0 0.47042291E+03</rscale>
<asrwt>0</asrwt>
<pdfrwt beam="1">  1        1 0.31573599E+00 0.47042291E+03</pdfrwt>
<pdfrwt beam="2">  1       -1 0.36184009E-01 0.47042291E+03</pdfrwt>
<totfact> 0.21955940E+01</totfact>
</mgrwt>
</event>
<event>
12    1  0.1444206E-007  0.4712931E+03  0.7818608E-02  0.1021556E+00
          1   -1    0    0  501    0  0.00000000000E+00  0.00000000000E+00  0.69188477262E+03  0.69188477262E+03  0.00000000000E+00 0. -1.
         -1   -1    0    0    0  501 -0.00000000000E+00 -0.00000000000E+00 -0.71028910636E+03  0.71028910636E+03  0.00000000000E+00 0.  1.
         23    2    1    2    0    0 -0.19183129941E+03  0.39401136436E+03 -0.36946412409E+03  0.58049159974E+03  0.91774482850E+02 0.  0.
    5000000    2    1    2    0    0  0.19183129941E+03 -0.39401136436E+03  0.35105979035E+03  0.82168227924E+03  0.59989548168E+03 0.  0.
         23    2    4    4    0    0 -0.15009133569E+02 -0.24552829454E+03 -0.11117911486E+03  0.28425175853E+03  0.89044085331E+02 0.  0.
         23    2    4    4    0    0  0.20684043298E+03 -0.14848306981E+03  0.46223890520E+03  0.53743052071E+03  0.10166893513E+03 0.  0.
          3    1    3    3  502    0 -0.89478871767E+02  0.23231225499E+03 -0.26026607905E+03  0.36015813779E+03  0.00000000000E+00 0. -1.
         -3    1    3    3    0  502 -0.10235242764E+03  0.16169910936E+03 -0.10919804504E+03  0.22033346195E+03  0.00000000000E+00 0.  1.
         13    1    5    5    0    0 -0.37860972339E+00 -0.11130901267E+03 -0.31771495366E+01  0.11135499057E+03  0.00000000000E+00 0.  1.
        -13    1    5    5    0    0 -0.14630523846E+02 -0.13421928188E+03 -0.10800196532E+03  0.17289676795E+03  0.00000000000E+00 0. -1.
          2    1    6    6  503    0  0.11180465837E+03 -0.64249776179E+02  0.32898905973E+03  0.35335834049E+03  0.00000000000E+00 0. -1.
         -2    1    6    6    0  503  0.95035774606E+02 -0.84233293635E+02  0.13324984547E+03  0.18407218022E+03  0.00000000000E+00 0.  1.
<mgrwt>
<rscale>  0 0.47129309E+03</rscale>
<asrwt>0</asrwt>
<pdfrwt beam="1">  1        1 0.10644381E+00 0.47129309E+03</pdfrwt>
<pdfrwt beam="2">  1       -1 0.10927525E+00 0.47129309E+03</pdfrwt>
<totfact> 0.22933578E+01</totfact>
</mgrwt>
</event>
<event>
12    1  0.1444206E-007  0.4569287E+03  0.7818608E-02  0.1025676E+00
          2   -1    0    0  501    0  0.00000000000E+00  0.00000000000E+00  0.26730967424E+04  0.26730967424E+04  0.00000000000E+00 0. -1.
         -2   -1    0    0    0  501 -0.00000000000E+00 -0.00000000000E+00 -0.91397590086E+02  0.91397590086E+02  0.00000000000E+00 0.  1.
         23    2    1    2    0    0 -0.26314671857E+03  0.59027688510E+02  0.12126266499E+04  0.12455783060E+04  0.90947572576E+02 0.  0.
    5000000    2    1    2    0    0  0.26314671857E+03 -0.59027688510E+02  0.13690725024E+04  0.15189160264E+04  0.60001326234E+03 0.  0.
         23    2    4    4    0    0  0.23706528964E+03  0.22932929311E+03  0.59222842031E+03  0.68474461538E+03  0.96689245768E+02 0.  0.
         23    2    4    4    0    0  0.26081428933E+02 -0.28835698162E+03  0.77684408211E+03  0.83417141106E+03  0.92332146785E+02 0.  0.
          1    1    3    3  502    0 -0.20821765887E+03  0.44098346551E+02  0.10872359684E+04  0.11078724243E+04  0.00000000000E+00 0. -1.
         -1    1    3    3    0  502 -0.54929059698E+02  0.14929341959E+02  0.12539068149E+03  0.13770588170E+03  0.00000000000E+00 0.  1.
         11    1    5    5    0    0  0.19759112574E+03  0.13234921602E+03  0.43663523530E+03  0.49720106261E+03  0.00000000000E+00 0. -1.
        -11    1    5    5    0    0  0.39474163899E+02  0.96980077081E+02  0.15559318501E+03  0.18754355277E+03  0.00000000000E+00 0.  1.
          1    1    6    6  503    0  0.23138791669E+02 -0.13679825616E+02  0.44292599493E+02  0.51810960989E+02  0.00000000000E+00 0. -1.
         -1    1    6    6    0  503  0.29426372639E+01 -0.27467715600E+03  0.73255148262E+03  0.78236045007E+03  0.00000000000E+00 0.  1.
<mgrwt>
<rscale>  0 0.45692874E+03</rscale>
<asrwt>0</asrwt>
<pdfrwt beam="1">  1        2 0.41124559E+00 0.45692874E+03</pdfrwt>
<pdfrwt beam="2">  1       -2 0.14061170E-01 0.45692874E+03</pdfrwt>
<totfact> 0.11741993E+02</totfact>
</mgrwt>
</event>
<event>
12    1  0.1444206E-007  0.4841517E+03  0.7818608E-02  0.1018000E+00
         -2   -1    0    0    0  501 -0.00000000000E+00  0.00000000000E+00  0.10544322335E+04  0.10544322335E+04  0.00000000000E+00 0.  1.
          2   -1    0    0  501    0  0.00000000000E+00 -0.00000000000E+00 -0.11517249636E+04  0.11517249636E+04  0.00000000000E+00 0. -1.
         23    2    1    2    0    0  0.27639796330E+03 -0.35427806277E+03 -0.95963506789E+03  0.10635602367E+04  0.91390008634E+02 0.  0.
    5000000    2    1    2    0    0 -0.27639796330E+03  0.35427806277E+03  0.86234233778E+03  0.11425969604E+04  0.59998727202E+03 0.  0.
         23    2    4    4    0    0 -0.21964778264E+03  0.94051040873E+02  0.23075053502E+02  0.25738795665E+03  0.92872791631E+02 0.  0.
         23    2    4    4    0    0 -0.56750180663E+02  0.26022702190E+03  0.83926728428E+03  0.88520900379E+03  0.91031423131E+02 0.  0.
          3    1    3    3  502    0  0.85095037692E+02 -0.71919695307E+02 -0.31730476994E+03  0.33629737590E+03  0.00000000000E+00 0. -1.
         -3    1    3    3    0  502  0.19130292561E+03 -0.28235836746E+03 -0.64233029795E+03  0.72726286079E+03  0.00000000000E+00 0.  1.
         11    1    5    5    0    0 -0.13150227010E+03  0.88273737185E+02  0.48191186972E+02  0.16555207707E+03  0.00000000000E+00 0. -1.
        -11    1    5    5    0    0 -0.88145512535E+02  0.57773036882E+01 -0.25116133470E+02  0.91835879581E+02  0.00000000000E+00 0.  1.
          1    1    6    6  503    0 -0.42533573641E+02  0.10582558236E+03  0.23284467971E+03  0.25927746457E+03  0.00000000000E+00 0. -1.
         -1    1    6    6    0  503 -0.14216607022E+02  0.15440143953E+03  0.60642260457E+03  0.62593153922E+03  0.00000000000E+00 0.  1.
<mgrwt>
<rscale>  0 0.48415166E+03</rscale>
<asrwt>0</asrwt>
<pdfrwt beam="1">  1        2 0.17718846E+00 0.48415166E+03</pdfrwt>
<pdfrwt beam="2">  1       -2 0.16222034E+00 0.48415166E+03</pdfrwt>
<totfact> 0.52586508E+00</totfact>
</mgrwt>
</event>
<event>
12    1  0.1444206E-007  0.6660655E+03  0.7818608E-02  0.9777092E-01
          2   -1    0    0  501    0  0.00000000000E+00  0.00000000000E+00  0.32729921771E+04  0.32729921771E+04  0.00000000000E+00 0. -1.
         -2   -1    0    0    0  501 -0.00000000000E+00 -0.00000000000E+00 -0.16306895158E+03  0.16306895158E+03  0.00000000000E+00 0.  1.
         23    2    1    2    0    0  0.55246472292E+03 -0.85262413717E+02  0.76463360542E+03  0.95159147992E+03  0.91514178365E+02 0.  0.
    5000000    2    1    2    0    0 -0.55246472292E+03  0.85262413717E+02  0.23452896201E+04  0.24844696488E+04  0.59976585782E+03 0.  0.
         23    2    4    4    0    0 -0.47843660533E+03  0.26320359880E+03  0.12329143322E+04  0.13514922720E+04  0.90971923770E+02 0.  0.
         23    2    4    4    0    0 -0.74028117593E+02 -0.17794118508E+03  0.11123752879E+04  0.11329773768E+04  0.95476319830E+02 0.  0.
          1    1    3    3  502    0  0.85053405791E+02 -0.45784217441E+02  0.11248163688E+03  0.14826461155E+03  0.00000000000E+00 0. -1.
         -1    1    3    3    0  502  0.46741131713E+03 -0.39478196276E+02  0.65215196854E+03  0.80332686836E+03  0.00000000000E+00 0.  1.
         13    1    5    5    0    0 -0.40514056177E+03  0.18620795499E+03  0.10315067111E+04  0.11237519176E+04  0.00000000000E+00 0. -1.
        -13    1    5    5    0    0 -0.73296043554E+02  0.76995643807E+02  0.20140762114E+03  0.22774035439E+03  0.00000000000E+00 0.  1.
          1    1    6    6  503    0 -0.87318381892E+02 -0.90233647522E+02  0.60289745531E+03  0.61583435482E+03  0.00000000000E+00 0. -1.
         -1    1    6    6    0  503  0.13290264299E+02 -0.87707537561E+02  0.50947783258E+03  0.51714302196E+03  0.00000000000E+00 0.  1.
<mgrwt>
<rscale>  0 0.66606550E+03</rscale>
<asrwt>0</asrwt>
<pdfrwt beam="1">  1        2 0.50353721E+00 0.66606550E+03</pdfrwt>
<pdfrwt beam="2">  1       -2 0.25087533E-01 0.66606550E+03</pdfrwt>
<totfact> 0.17950318E+01</totfact>
</mgrwt>
</event>
<event>
12    1  0.1444206E-007  0.4415319E+03  0.7818608E-02  0.1030278E+00
         -1   -1    0    0    0  501 -0.00000000000E+00  0.00000000000E+00  0.21733199789E+03  0.21733199789E+03  0.00000000000E+00 0.  1.
          1   -1    0    0  501    0  0.00000000000E+00 -0.00000000000E+00 -0.12820413978E+04  0.12820413978E+04  0.00000000000E+00 0. -1.
         23    2    1    2    0    0  0.18794692773E+03  0.20071584736E+03 -0.58899392164E+02  0.29634725843E+03  0.93496845719E+02 0.  0.
    5000000    2    1    2    0    0 -0.18794692773E+03 -0.20071584736E+03 -0.10058100078E+04  0.12030261373E+04  0.60000601350E+03 0.  0.
         23    2    4    4    0    0  0.12136532700E+03  0.10594132672E+03 -0.47425695277E+03  0.50936997147E+03  0.92655292764E+02 0.  0.
         23    2    4    4    0    0 -0.30931225473E+03 -0.30665717409E+03 -0.53155305499E+03  0.69365616580E+03  0.94326734017E+02 0.  0.
          2    1    3    3  502    0  0.13500475856E+03  0.18122158983E+03 -0.18063790929E+02  0.22670211731E+03  0.00000000000E+00 0.  1.
         -2    1    3    3    0  502  0.52942169170E+02  0.19494257537E+02 -0.40835601235E+02  0.69645141119E+02  0.00000000000E+00 0. -1.
         13    1    5    5    0    0  0.45523093657E+02  0.27442402932E+02 -0.56437232862E+02  0.77528051620E+02  0.00000000000E+00 0.  1.
        -13    1    5    5    0    0  0.75842233346E+02  0.78498923789E+02 -0.41781971991E+03  0.43184191985E+03  0.00000000000E+00 0. -1.
          1    1    6    6  503    0 -0.24704738265E+03 -0.27058425141E+03 -0.48542090078E+03  0.60817900103E+03  0.00000000000E+00 0. -1.
         -1    1    6    6    0  503 -0.62264872080E+02 -0.36072922677E+02 -0.46132154205E+02  0.85477164770E+02  0.00000000000E+00 0.  1.
<mgrwt>
<rscale>  0 0.44153186E+03</rscale>
<asrwt>0</asrwt>
<pdfrwt beam="1">  1        1 0.19723713E+00 0.44153186E+03</pdfrwt>
<pdfrwt beam="2">  1       -1 0.33435693E-01 0.44153186E+03</pdfrwt>
<totfact> 0.83242972E+01</totfact>
</mgrwt>
</event>
<event>
12    1  0.1444206E-007  0.7192978E+03  0.7818608E-02  0.9684788E-01
          2   -1    0    0  501    0  0.00000000000E+00  0.00000000000E+00  0.16122629432E+04  0.16122629432E+04  0.00000000000E+00 0. -1.
         -2   -1    0    0    0  501 -0.00000000000E+00 -0.00000000000E+00 -0.43193449260E+03  0.43193449260E+03  0.00000000000E+00 0.  1.
         23    2    1    2    0    0  0.29328115279E+03  0.53326428605E+03  0.36673310873E+02  0.61677628310E+03  0.93184860954E+02 0.  0.
    5000000    2    1    2    0    0 -0.29328115279E+03 -0.53326428605E+03  0.11436551397E+04  0.14274211527E+04  0.59933249140E+03 0.  0.
         23    2    4    4    0    0 -0.45816689760E+03 -0.42618912119E+03  0.91385251862E+03  0.11114409082E+04  0.92846074377E+02 0.  0.
         23    2    4    4    0    0  0.16488574481E+03 -0.10707516486E+03  0.22980262113E+03  0.31598024455E+03  0.91552555920E+02 0.  0.
          1    1    3    3  502    0  0.27709412185E+03  0.43820607676E+03  0.42287208020E+02  0.52018643392E+03  0.00000000000E+00 0. -1.
         -1    1    3    3    0  502  0.16187030938E+02  0.95058209286E+02 -0.56138971474E+01  0.96589849179E+02  0.00000000000E+00 0.  1.
         11    1    5    5    0    0 -0.10220499953E+03 -0.74440852262E+02  0.12910814459E+03  0.18071030799E+03  0.00000000000E+00 0. -1.
        -11    1    5    5    0    0 -0.35596189807E+03 -0.35174826892E+03  0.78474437403E+03  0.93073060020E+03  0.00000000000E+00 0.  1.
          1    1    6    6  503    0  0.29327232068E+02 -0.23456614815E+02  0.11128075331E+03  0.11744660649E+03  0.00000000000E+00 0. -1.
         -1    1    6    6    0  503  0.13555851274E+03 -0.83618550044E+02  0.11852186782E+03  0.19853363806E+03  0.00000000000E+00 0.  1.
<mgrwt>
<rscale>  0 0.71929781E+03</rscale>
<asrwt>0</asrwt>
<pdfrwt beam="1">  1        2 0.24804045E+00 0.71929781E+03</pdfrwt>
<pdfrwt beam="2">  1       -2 0.66451461E-01 0.71929781E+03</pdfrwt>
<totfact> 0.23528144E+01</totfact>
</mgrwt>
</event>
<event>
12    1  0.1444206E-007  0.6099928E+03  0.7818608E-02  0.9884888E-01
         -2   -1    0    0    0  501 -0.00000000000E+00  0.00000000000E+00  0.37928801163E+03  0.37928801163E+03  0.00000000000E+00 0. -1.
          2   -1    0    0  501    0  0.00000000000E+00 -0.00000000000E+00 -0.10791712054E+04  0.10791712054E+04  0.00000000000E+00 0.  1.
         23    2    1    2    0    0 -0.46950971295E+03 -0.59793853698E+02 -0.43606627358E+03  0.65000669145E+03  0.91324851392E+02 0.  0.
    5000000    2    1    2    0    0  0.46950971295E+03  0.59793853698E+02 -0.26381692015E+03  0.80845252554E+03  0.59998453580E+03 0.  0.
         23    2    4    4    0    0  0.29209923833E+03  0.30093381930E+03 -0.57004640207E+02  0.43320483378E+03  0.92378408567E+02 0.  0.
         23    2    4    4    0    0  0.17741047462E+03 -0.24113996561E+03 -0.20681227995E+03  0.37524769176E+03  0.91741765411E+02 0.  0.
          2    1    3    3  502    0 -0.28876545212E+03  0.78680345700E+01 -0.25303795929E+03  0.38402552148E+03  0.00000000000E+00 0. -1.
         -2    1    3    3    0  502 -0.18074426083E+03 -0.67661888268E+02 -0.18302831429E+03  0.26598116997E+03  0.00000000000E+00 0.  1.
         11    1    5    5    0    0  0.39142182624E+02  0.96626239299E+02 -0.11841478138E+02  0.10492359690E+03  0.00000000000E+00 0.  1.
        -11    1    5    5    0    0  0.25295705571E+03  0.20430758000E+03 -0.45163162069E+02  0.32828123688E+03  0.00000000000E+00 0. -1.
          2    1    6    6  503    0  0.10742979649E+03 -0.82946306278E+02 -0.60131920273E+02  0.14844897687E+03  0.00000000000E+00 0. -1.
         -2    1    6    6    0  503  0.69980678132E+02 -0.15819365933E+03 -0.14668035967E+03  0.22679871489E+03  0.00000000000E+00 0.  1.
<mgrwt>
<rscale>  0 0.60999283E+03</rscale>
<asrwt>0</asrwt>
<pdfrwt beam="1">  1        2 0.16602634E+00 0.60999283E+03</pdfrwt>
<pdfrwt beam="2">  1       -2 0.58352003E-01 0.60999283E+03</pdfrwt>
<totfact> 0.63456124E+01</totfact>
</mgrwt>
</event>
<event>
12    1  0.1444206E-007  0.6884667E+03  0.7818608E-02  0.9737162E-01
          2   -1    0    0  501    0  0.00000000000E+00  0.00000000000E+00  0.36460271810E+04  0.36460271810E+04  0.00000000000E+00 0. -1.
         -2   -1    0    0    0  501 -0.00000000000E+00 -0.00000000000E+00 -0.15464486126E+03  0.15464486126E+03  0.00000000000E+00 0.  1.
         23    2    1    2    0    0 -0.14582009966E+03  0.55081319151E+03  0.21359479550E+04  0.22125321433E+04  0.91466633986E+02 0.  0.
    5000000    2    1    2    0    0  0.14582009966E+03 -0.55081319151E+03  0.13554343647E+04  0.15881398990E+04  0.60027272821E+03 0.  0.
         23    2    4    4    0    0  0.31361350945E+03 -0.11433783695E+03  0.47933488984E+03  0.59089634207E+03  0.89274723149E+02 0.  0.
         23    2    4    4    0    0 -0.16779340979E+03 -0.43647535455E+03  0.87609947489E+03  0.99724355690E+03  0.90989331153E+02 0.  0.
          1    1    3    3  502    0 -0.10408608424E+03  0.23943748730E+03  0.88215966388E+03  0.91998363889E+03  0.00000000000E+00 0. -1.
         -1    1    3    3    0  502 -0.41734015420E+02  0.31137570420E+03  0.12537882911E+04  0.12925485044E+04  0.00000000000E+00 0.  1.
         11    1    5    5    0    0  0.16896835465E+03 -0.56794355493E+02  0.17903041829E+03  0.25264163228E+03  0.00000000000E+00 0.  1.
        -11    1    5    5    0    0  0.14464515480E+03 -0.57543481460E+02  0.30030447154E+03  0.33825470979E+03  0.00000000000E+00 0. -1.
          2    1    6    6  503    0 -0.76154913637E+02 -0.18208171915E+03  0.27877555204E+03  0.34156863400E+03  0.00000000000E+00 0.  1.
         -2    1    6    6    0  503 -0.91638496148E+02 -0.25439363540E+03  0.59732392286E+03  0.65567492290E+03  0.00000000000E+00 0. -1.
<mgrwt>
<rscale>  0 0.68846668E+03</rscale>
<asrwt>0</asrwt>
<pdfrwt beam="1">  1        2 0.56092719E+00 0.68846668E+03</pdfrwt>
<pdfrwt beam="2">  1       -2 0.23791520E-01 0.68846668E+03</pdfrwt>
<totfact> 0.11012408E+01</totfact>
</mgrwt>
</event>
<event>
12    1  0.2099181E-007  0.8002008E+03  0.7818608E-02  0.9559727E-01
         -2   -1    0    0    0  501 -0.00000000000E+00  0.00000000000E+00  0.40560213572E+03  0.40560213572E+03  0.00000000000E+00 0.  1.
          2   -1    0    0  501    0  0.00000000000E+00 -0.00000000000E+00 -0.21739473766E+04  0.21739473766E+04  0.00000000000E+00 0. -1.
         23    2    1    2    0    0 -0.51183421287E+03 -0.59724392024E+03 -0.12043151469E+04  0.14412777045E+04  0.90729745732E+02 0.  0.
    5000000    2    1    2    0    0  0.51183421287E+03  0.59724392024E+03 -0.56403009393E+03  0.11382718078E+04  0.59904774412E+03 0.  0.
         23    2    4    4    0    0  0.12136343987E+03  0.19832791907E+03 -0.51191562621E+03  0.56963463368E+03  0.91449218148E+02 0.  0.
         23    2    4    4    0    0  0.39047077299E+03  0.39891600117E+03 -0.52114467716E+02  0.56863717408E+03  0.95031139350E+02 0.  0.
          2    1    3    3  502    0 -0.20269905406E+03 -0.30556725049E+03 -0.56744412634E+03  0.67561163963E+03  0.00000000000E+00 0. -1.
         -2    1    3    3    0  502 -0.30913515881E+03 -0.29167666975E+03 -0.63687102056E+03  0.76566606489E+03  0.00000000000E+00 0.  1.
         11    1    5    5    0    0  0.12426969934E+03  0.12609145601E+03 -0.34635660879E+03  0.38897932324E+03  0.00000000000E+00 0.  1.
        -11    1    5    5    0    0 -0.29062594667E+01  0.72236463059E+02 -0.16555901742E+03  0.18065531044E+03  0.00000000000E+00 0. -1.
          2    1    6    6  503    0  0.15052689028E+03  0.17910879827E+03  0.21696916308E+02  0.23496608796E+03  0.00000000000E+00 0. -1.
         -2    1    6    6    0  503  0.23994388271E+03  0.21980720290E+03 -0.73811384024E+02  0.33367108611E+03  0.00000000000E+00 0.  1.
<mgrwt>
<rscale>  0 0.80020078E+03</rscale>
<asrwt>0</asrwt>
<pdfrwt beam="1">  1        2 0.33445345E+00 0.80020078E+03</pdfrwt>
<pdfrwt beam="2">  1       -2 0.62400328E-01 0.80020078E+03</pdfrwt>
<totfact> 0.13128352E+01</totfact>
</mgrwt>
</event>
<event>
12    1  0.1444206E-007  0.6621960E+03  0.7818608E-02  0.9784160E-01
          1   -1    0    0  501    0  0.00000000000E+00  0.00000000000E+00  0.82047335893E+03  0.82047335893E+03  0.00000000000E+00 0. -1.
         -1   -1    0    0    0  501 -0.00000000000E+00 -0.00000000000E+00 -0.66173614912E+03  0.66173614912E+03  0.00000000000E+00 0.  1.
         23    2    1    2    0    0  0.23298302053E+03  0.53317536778E+03  0.25188772881E+03  0.64091646538E+03  0.93645218825E+02 0.  0.
    5000000    2    1    2    0    0 -0.23298302053E+03 -0.53317536778E+03 -0.93150519000E+02  0.84129304267E+03  0.60044975127E+03 0.  0.
         23    2    4    4    0    0  0.83188195303E+02 -0.34952163364E+03 -0.23514837580E+03  0.43850329625E+03  0.88908570769E+02 0.  0.
         23    2    4    4    0    0 -0.31617121583E+03 -0.18365373414E+03  0.14199785680E+03  0.40278974642E+03  0.91560126181E+02 0.  0.
          4    1    3    3  502    0  0.20134087757E+03  0.37221001894E+03  0.15672135041E+03  0.45126492093E+03  0.00000000000E+00 0. -1.
         -4    1    3    3    0  502  0.31642142959E+02  0.16096534884E+03  0.95166378395E+02  0.18965154445E+03  0.00000000000E+00 0.  1.
         13    1    5    5    0    0  0.39919524865E+02 -0.30091910291E+03 -0.20807858182E+03  0.36802523171E+03  0.00000000000E+00 0. -1.
        -13    1    5    5    0    0  0.43268670438E+02 -0.48602530736E+02 -0.27069793981E+02  0.70478064542E+02  0.00000000000E+00 0.  1.
          3    1    6    6  503    0 -0.12571044537E+03 -0.47348341401E+02  0.93344717946E+02  0.16357939319E+03  0.00000000000E+00 0. -1.
         -3    1    6    6    0  503 -0.19046077046E+03 -0.13630539273E+03  0.48653138856E+02  0.23921035323E+03  0.00000000000E+00 0.  1.
<mgrwt>
<rscale>  0 0.66219600E+03</rscale>
<asrwt>0</asrwt>
<pdfrwt beam="1">  1        1 0.12622667E+00 0.66219600E+03</pdfrwt>
<pdfrwt beam="2">  1       -1 0.10180556E+00 0.66219600E+03</pdfrwt>
<totfact> 0.20168127E+01</totfact>
</mgrwt>
</event>
<event>
12    1  0.1444206E-007  0.1282851E+04  0.7818608E-02  0.9043276E-01
         -1   -1    0    0    0  501 -0.00000000000E+00  0.00000000000E+00  0.74236894206E+03  0.74236894206E+03  0.00000000000E+00 0.  1.
          1   -1    0    0  501    0  0.00000000000E+00 -0.00000000000E+00 -0.34485248184E+04  0.34485248184E+04  0.00000000000E+00 0. -1.
         23    2    1    2    0    0  0.12600971874E+04 -0.20251980389E+03 -0.24396225640E+04  0.27555967847E+04  0.11267738035E+03 0.  0.
    5000000    2    1    2    0    0 -0.12600971874E+04  0.20251980389E+03 -0.26653331236E+03  0.14352969758E+04  0.60014848948E+03 0.  0.
         23    2    4    4    0    0 -0.56937008358E+03  0.34496108705E+02 -0.40453472173E+03  0.70523477559E+03  0.91298817219E+02 0.  0.
         23    2    4    4    0    0 -0.69072710387E+03  0.16802369518E+03  0.13800140937E+03  0.73006220023E+03  0.92792958021E+02 0.  0.
          3    1    3    3  502    0  0.25662553934E+03 -0.55407993875E+02 -0.60008051186E+03  0.65499872820E+03  0.00000000000E+00 0. -1.
         -3    1    3    3    0  502  0.10034716481E+04 -0.14711181001E+03 -0.18395420521E+04  0.21005980565E+04  0.00000000000E+00 0.  1.
         13    1    5    5    0    0 -0.18192207847E+03  0.33664971473E+02 -0.17630066604E+03  0.25555996906E+03  0.00000000000E+00 0. -1.
        -13    1    5    5    0    0 -0.38744800510E+03  0.83113723198E+00 -0.22823405568E+03  0.44967480652E+03  0.00000000000E+00 0.  1.
          4    1    6    6  503    0 -0.59277779490E+03  0.11073506325E+03  0.10723508859E+03  0.61249255717E+03  0.00000000000E+00 0. -1.
         -4    1    6    6    0  503 -0.97949308963E+02  0.57288631933E+02  0.30766320776E+02  0.11756964306E+03  0.00000000000E+00 0.  1.
<mgrwt>
<rscale>  0 0.12828506E+04</rscale>
<asrwt>0</asrwt>
<pdfrwt beam="1">  1        1 0.53054227E+00 0.12828506E+04</pdfrwt>
<pdfrwt beam="2">  1       -1 0.11421061E+00 0.12828506E+04</pdfrwt>
<totfact> 0.18935533E-01</totfact>
</mgrwt>
</event>
<event>
12    1  0.1444206E-007  0.9159008E+03  0.7818608E-02  0.9405920E-01
         -1   -1    0    0    0  501 -0.00000000000E+00  0.00000000000E+00  0.60573022612E+03  0.60573022612E+03  0.00000000000E+00 0.  1.
          1   -1    0    0  501    0  0.00000000000E+00 -0.00000000000E+00 -0.18236367113E+04  0.18236367113E+04  0.00000000000E+00 0. -1.
         23    2    1    2    0    0  0.48508729441E+03  0.68115531779E+03 -0.11126834154E+04  0.13949434182E+04  0.92306592155E+02 0.  0.
    5000000    2    1    2    0    0 -0.48508729441E+03 -0.68115531779E+03 -0.10522306978E+03  0.10344235192E+04  0.59973150036E+03 0.  0.
         23    2    4    4    0    0  0.10818957058E+03 -0.12141916494E+03  0.64106729722E+02  0.19635956830E+03  0.89441659587E+02 0.  0.
         23    2    4    4    0    0 -0.59327686500E+03 -0.55973615284E+03 -0.16932979950E+03  0.83806395091E+03  0.91632993342E+02 0.  0.
          2    1    3    3  502    0  0.15338685755E+03  0.21049113794E+03 -0.41984675105E+03  0.49407017880E+03  0.00000000000E+00 0. -1.
         -2    1    3    3    0  502  0.33170043687E+03  0.47066417984E+03 -0.69283666435E+03  0.90087323940E+03  0.00000000000E+00 0.  1.
         13    1    5    5    0    0  0.10483589248E+03 -0.65171866907E+02  0.66004430711E+02  0.13998043243E+03  0.00000000000E+00 0. -1.
        -13    1    5    5    0    0  0.33536781009E+01 -0.56247298035E+02 -0.18977009885E+01  0.56379135875E+02  0.00000000000E+00 0.  1.
          3    1    6    6  503    0 -0.86207184914E+02 -0.87946199616E+02 -0.59609949068E+02  0.13681943862E+03  0.00000000000E+00 0. -1.
         -3    1    6    6    0  503 -0.50706968008E+03 -0.47178995323E+03 -0.10971985043E+03  0.70124451228E+03  0.00000000000E+00 0.  1.
<mgrwt>
<rscale>  0 0.91590077E+03</rscale>
<asrwt>0</asrwt>
<pdfrwt beam="1">  1        1 0.28055949E+00 0.91590077E+03</pdfrwt>
<pdfrwt beam="2">  1       -1 0.93189266E-01 0.91590077E+03</pdfrwt>
<totfact> 0.44792074E+00</totfact>
</mgrwt>
</event>
<event>
12    1  0.1444206E-007  0.7938615E+03  0.7818608E-02  0.9568945E-01
         -2   -1    0    0    0  501 -0.00000000000E+00  0.00000000000E+00  0.54567009584E+03  0.54567009584E+03  0.00000000000E+00 0.  1.
          2   -1    0    0  501    0  0.00000000000E+00 -0.00000000000E+00 -0.13366822104E+04  0.13366822104E+04  0.00000000000E+00 0. -1.
         23    2    1    2    0    0 -0.18145064841E+03  0.65790657921E+03 -0.17831871125E+02  0.68944193632E+03  0.96160299253E+02 0.  0.
    5000000    2    1    2    0    0  0.18145064841E+03 -0.65790657921E+03 -0.77318024345E+03  0.11929103699E+04  0.59955154661E+03 0.  0.
         23    2    4    4    0    0  0.72061413731E+02  0.88462760355E+02 -0.15142887502E+03  0.21118375507E+03  0.93001972551E+02 0.  0.
         23    2    4    4    0    0  0.10938923468E+03 -0.74636933957E+03 -0.62175136843E+03  0.98172661486E+03  0.90438854791E+02 0.  0.
          2    1    3    3  502    0 -0.85542765016E+02  0.16352989187E+03 -0.21776773823E+02  0.18583276907E+03  0.00000000000E+00 0. -1.
         -2    1    3    3    0  502 -0.95907883395E+02  0.49437668734E+03  0.39449026979E+01  0.50360916725E+03  0.00000000000E+00 0.  1.
         13    1    5    5    0    0  0.25398111565E+02  0.89650357639E+02 -0.67191600040E+02  0.11487803015E+03  0.00000000000E+00 0. -1.
        -13    1    5    5    0    0  0.46663302166E+02 -0.11875972837E+01 -0.84237274980E+02  0.96305724920E+02  0.00000000000E+00 0.  1.
          1    1    6    6  503    0  0.26476891906E+02 -0.48034570823E+03 -0.38985878170E+03  0.61921151063E+03  0.00000000000E+00 0. -1.
         -1    1    6    6    0  503  0.82912342773E+02 -0.26602363134E+03 -0.23189258673E+03  0.36251510423E+03  0.00000000000E+00 0.  1.
<mgrwt>
<rscale>  0 0.79386149E+03</rscale>
<asrwt>0</asrwt>
<pdfrwt beam="1">  1        2 0.20564342E+00 0.79386149E+03</pdfrwt>
<pdfrwt beam="2">  1       -2 0.83949246E-01 0.79386149E+03</pdfrwt>
<totfact> 0.19823242E+01</totfact>
</mgrwt>
</event>
<event>
12    1  0.1444206E-007  0.5715460E+03  0.7818608E-02  0.9966263E-01
         -3   -1    0    0    0  501 -0.00000000000E+00  0.00000000000E+00  0.11485232607E+04  0.11485232607E+04  0.00000000000E+00 0.  1.
          3   -1    0    0  501    0  0.00000000000E+00 -0.00000000000E+00 -0.33663760945E+03  0.33663760945E+03  0.00000000000E+00 0. -1.
         23    2    1    2    0    0  0.20687650229E+02  0.41766843103E+03  0.53127302664E+02  0.43129923432E+03  0.91222925220E+02 0.  0.
    5000000    2    1    2    0    0 -0.20687650229E+02 -0.41766843103E+03  0.75875834858E+03  0.10538616358E+04  0.60002934825E+03 0.  0.
         23    2    4    4    0    0  0.24241567921E+03 -0.34390773205E+03  0.35599320628E+03  0.55862555753E+03  0.91068440862E+02 0.  0.
         23    2    4    4    0    0 -0.26310332944E+03 -0.73760698988E+02  0.40276514230E+03  0.49523607829E+03  0.91515084626E+02 0.  0.
          1    1    3    3  502    0  0.56282920187E+02  0.28341189706E+03  0.30129591014E+02  0.29051310255E+03  0.00000000000E+00 0. -1.
         -1    1    3    3    0  502 -0.35595269958E+02  0.13425653397E+03  0.22997711650E+02  0.14078613177E+03  0.00000000000E+00 0.  1.
         13    1    5    5    0    0  0.40288595033E+02 -0.13043025881E+03  0.11400894179E+03  0.17785742074E+03  0.00000000000E+00 0. -1.
        -13    1    5    5    0    0  0.20212708417E+03 -0.21347747324E+03  0.24198426449E+03  0.38076813679E+03  0.00000000000E+00 0.  1.
          4    1    6    6  503    0 -0.86340113876E+02  0.13892232348E+02  0.90399942140E+02  0.12577662312E+03  0.00000000000E+00 0. -1.
         -4    1    6    6    0  503 -0.17676321556E+03 -0.87652931336E+02  0.31236520016E+03  0.36945945517E+03  0.00000000000E+00 0.  1.
<mgrwt>
<rscale>  0 0.57154596E+03</rscale>
<asrwt>0</asrwt>
<pdfrwt beam="1">  1        3 0.51790402E-01 0.57154596E+03</pdfrwt>
<pdfrwt beam="2">  1       -3 0.17669588E+00 0.57154596E+03</pdfrwt>
<totfact> 0.20203356E+00</totfact>
</mgrwt>
</event>
<event>
12    1  0.1444206E-007  0.4968114E+03  0.7818608E-02  0.1014615E+00
         -2   -1    0    0    0  501 -0.00000000000E+00  0.00000000000E+00  0.25422880585E+03  0.25422880585E+03  0.00000000000E+00 0.  1.
          2   -1    0    0  501    0  0.00000000000E+00 -0.00000000000E+00 -0.11052555975E+04  0.11052555975E+04  0.00000000000E+00 0. -1.
         23    2    1    2    0    0  0.34360153531E+03  0.24941693512E+02 -0.19500868870E+03  0.40607878153E+03  0.90484722444E+02 0.  0.
    5000000    2    1    2    0    0 -0.34360153531E+03 -0.24941693512E+02 -0.65601810294E+03  0.95340562180E+03  0.59994868544E+03 0.  0.
         23    2    4    4    0    0 -0.14421465788E+03  0.24703487517E+03 -0.46861173967E+03  0.55674235585E+03  0.92417482914E+02 0.  0.
         23    2    4    4    0    0 -0.19938687744E+03 -0.27197656869E+03 -0.18740636327E+03  0.39666326595E+03  0.92164096866E+02 0.  0.
          4    1    3    3  502    0  0.15290414979E+03  0.13194641857E+02 -0.36316471807E+02  0.15771069628E+03  0.00000000000E+00 0. -1.
         -4    1    3    3    0  502  0.19069738552E+03  0.11747051655E+02 -0.15869221689E+03  0.24836808525E+03  0.00000000000E+00 0.  1.
         13    1    5    5    0    0 -0.11442894263E+03  0.10679340510E+03 -0.22533235287E+03  0.27436013474E+03  0.00000000000E+00 0. -1.
        -13    1    5    5    0    0 -0.29785715249E+02  0.14024147007E+03 -0.24327938679E+03  0.28238222111E+03  0.00000000000E+00 0.  1.
          2    1    6    6  503    0 -0.56893294696E+02 -0.21097286739E+02 -0.39896564548E+02  0.72620096061E+02  0.00000000000E+00 0. -1.
         -2    1    6    6    0  503 -0.14249358274E+03 -0.25087928195E+03 -0.14750979872E+03  0.32404316989E+03  0.00000000000E+00 0.  1.
<mgrwt>
<rscale>  0 0.49681135E+03</rscale>
<asrwt>0</asrwt>
<pdfrwt beam="1">  1        2 0.17003932E+00 0.49681135E+03</pdfrwt>
<pdfrwt beam="2">  1       -2 0.39112124E-01 0.49681135E+03</pdfrwt>
<totfact> 0.13832526E+02</totfact>
</mgrwt>
</event>
<event>
12    1  0.1444206E-007  0.9287144E+03  0.7818608E-02  0.9390382E-01
         -1   -1    0    0    0  501 -0.00000000000E+00  0.00000000000E+00  0.92705076095E+03  0.92705076095E+03  0.00000000000E+00 0.  1.
          1   -1    0    0  501    0  0.00000000000E+00 -0.00000000000E+00 -0.10644394367E+04  0.10644394367E+04  0.00000000000E+00 0. -1.
         23    2    1    2    0    0  0.70138092768E+02 -0.83341597014E+03 -0.39640377851E+03  0.93007147896E+03  0.91626792063E+02 0.  0.
    5000000    2    1    2    0    0 -0.70138092768E+02  0.83341597014E+03  0.25901510279E+03  0.10614187187E+04  0.60001611771E+03 0.  0.
         23    2    4    4    0    0  0.20762552846E+03  0.63573647907E+03  0.19231678052E+03  0.70208630961E+03  0.93113968790E+02 0.  0.
         23    2    4    4    0    0 -0.27776362123E+03  0.19767949107E+03  0.66698322277E+02  0.35933240905E+03  0.91876566815E+02 0.  0.
          4    1    3    3  502    0  0.30015579738E+02 -0.20790925101E+03 -0.58789554279E+02  0.21813620372E+03  0.00000000000E+00 0. -1.
         -4    1    3    3    0  502  0.40122513030E+02 -0.62550671913E+03 -0.33761422423E+03  0.71193527524E+03  0.00000000000E+00 0.  1.
         13    1    5    5    0    0  0.31353719508E+02  0.14362599068E+03  0.80229513697E+02  0.16747613500E+03  0.00000000000E+00 0.  1.
        -13    1    5    5    0    0  0.17627180896E+03  0.49211048839E+03  0.11208726682E+03  0.53461017461E+03  0.00000000000E+00 0. -1.
          1    1    6    6  503    0 -0.54511805749E+02  0.84438830262E+02  0.37636160522E+02  0.10732163622E+03  0.00000000000E+00 0.  1.
         -1    1    6    6    0  503 -0.22325181548E+03  0.11324066080E+03  0.29062161754E+02  0.25201077283E+03  0.00000000000E+00 0. -1.
<mgrwt>
<rscale>  0 0.92871436E+03</rscale>
<asrwt>0</asrwt>
<pdfrwt beam="1">  1        1 0.16375991E+00 0.92871436E+03</pdfrwt>
<pdfrwt beam="2">  1       -1 0.14262319E+00 0.92871436E+03</pdfrwt>
<totfact> 0.54461189E+00</totfact>
</mgrwt>
</event>
<event>
12    1  0.1444206E-007  0.7767935E+03  0.7818608E-02  0.9594229E-01
          2   -1    0    0  501    0  0.00000000000E+00  0.00000000000E+00  0.20986802681E+04  0.20986802681E+04  0.00000000000E+00 0. -1.
         -2   -1    0    0    0  501 -0.00000000000E+00 -0.00000000000E+00 -0.31453640878E+03  0.31453640878E+03  0.00000000000E+00 0.  1.
         23    2    1    2    0    0 -0.59403534763E+03  0.32319956755E+03  0.51431920672E+03  0.85442602126E+03  0.90463388773E+02 0.  0.
    5000000    2    1    2    0    0  0.59403534763E+03 -0.32319956755E+03  0.12698246527E+04  0.15587906557E+04  0.60003142002E+03 0.  0.
         23    2    4    4    0    0 -0.73351326120E+02 -0.13239362623E+03  0.43020159147E+03  0.46544845441E+03  0.93061082596E+02 0.  0.
         23    2    4    4    0    0  0.66738667375E+03 -0.19080594132E+03  0.83962306118E+03  0.10933422013E+04  0.92835363181E+02 0.  0.
          4    1    3    3  502    0 -0.10114916645E+03  0.92885716379E+02  0.12188611886E+03  0.18361681882E+03  0.00000000000E+00 0. -1.
         -4    1    3    3    0  502 -0.49288618118E+03  0.23031385117E+03  0.39243308785E+03  0.67080920244E+03  0.00000000000E+00 0.  1.
         11    1    5    5    0    0  0.12632089563E+02 -0.58381810427E+02  0.10213938124E+03  0.11832353390E+03  0.00000000000E+00 0. -1.
        -11    1    5    5    0    0 -0.85983415682E+02 -0.74011815800E+02  0.32806221023E+03  0.34712492050E+03  0.00000000000E+00 0.  1.
          3    1    6    6  503    0  0.41691305888E+03 -0.77194860715E+02  0.47676381778E+03  0.63802765075E+03  0.00000000000E+00 0. -1.
         -3    1    6    6    0  503  0.25047361487E+03 -0.11361108061E+03  0.36285924341E+03  0.45531455051E+03  0.00000000000E+00 0.  1.
<mgrwt>
<rscale>  0 0.77679352E+03</rscale>
<asrwt>0</asrwt>
<pdfrwt beam="1">  1        2 0.32287388E+00 0.77679352E+03</pdfrwt>
<pdfrwt beam="2">  1       -2 0.48390218E-01 0.77679352E+03</pdfrwt>
<totfact> 0.24564021E+01</totfact>
</mgrwt>
</event>
<event>
12    1  0.1444206E-007  0.4345967E+03  0.7818608E-02  0.1032418E+00
         -1   -1    0    0    0  501 -0.00000000000E+00  0.00000000000E+00  0.61118689415E+03  0.61118689415E+03  0.00000000000E+00 0.  1.
          1   -1    0    0  501    0  0.00000000000E+00 -0.00000000000E+00 -0.37182099526E+03  0.37182099526E+03  0.00000000000E+00 0. -1.
         23    2    1    2    0    0  0.26963339124E+03  0.46982224403E+02  0.27390475933E+02  0.29029957974E+03  0.92812244565E+02 0.  0.
    5000000    2    1    2    0    0 -0.26963339124E+03 -0.46982224403E+02  0.21197542296E+03  0.69270830967E+03  0.60000143939E+03 0.  0.
         23    2    4    4    0    0  0.97218118921E+02  0.14283846131E+03  0.18333339646E+03  0.26922084182E+03  0.94944924772E+02 0.  0.
         23    2    4    4    0    0 -0.36685151016E+03 -0.18982068571E+03  0.28642026495E+02  0.42348746785E+03  0.88934506876E+02 0.  0.
          3    1    3    3  502    0  0.24619326566E+03  0.38323713454E+02 -0.52239012045E+01  0.24921300170E+03  0.00000000000E+00 0. -1.
         -3    1    3    3    0  502  0.23440125578E+02  0.86585109492E+01  0.32614377137E+02  0.41086578040E+02  0.00000000000E+00 0.  1.
         13    1    5    5    0    0  0.54855475277E+02  0.72592188366E+02  0.30854927632E+02  0.96076925111E+02  0.00000000000E+00 0. -1.
        -13    1    5    5    0    0  0.42362643644E+02  0.70246272939E+02  0.15247846883E+03  0.17314391671E+03  0.00000000000E+00 0.  1.
          4    1    6    6  503    0 -0.14359317225E+03 -0.12276035670E+03  0.26878817635E+01  0.18893472154E+03  0.00000000000E+00 0. -1.
         -4    1    6    6    0  503 -0.22325833791E+03 -0.67060329006E+02  0.25954144732E+02  0.23455274631E+03  0.00000000000E+00 0.  1.
<mgrwt>
<rscale>  0 0.43459666E+03</rscale>
<asrwt>0</asrwt>
<pdfrwt beam="1">  1        1 0.57203230E-01 0.43459666E+03</pdfrwt>
<pdfrwt beam="2">  1       -1 0.94028753E-01 0.43459666E+03</pdfrwt>
<totfact> 0.75945151E+01</totfact>
</mgrwt>
</event>
<event>
12    1  0.1444206E-007  0.7213322E+03  0.7818608E-02  0.9681431E-01
         -2   -1    0    0    0  501 -0.00000000000E+00  0.00000000000E+00  0.14574383333E+03  0.14574383333E+03  0.00000000000E+00 0.  1.
          2   -1    0    0  501    0  0.00000000000E+00 -0.00000000000E+00 -0.44881010053E+04  0.44881010053E+04  0.00000000000E+00 0. -1.
         23    2    1    2    0    0 -0.27050440238E+03 -0.62281188409E+03 -0.22898584198E+04  0.23902240676E+04  0.93017396892E+02 0.  0.
    5000000    2    1    2    0    0  0.27050440238E+03  0.62281188409E+03 -0.20524987522E+04  0.22436207710E+04  0.60001313457E+03 0.  0.
         23    2    4    4    0    0 -0.51606272376E+02  0.14890904665E+03 -0.10396084961E+03  0.21049651618E+03  0.93079608663E+02 0.  0.
         23    2    4    4    0    0  0.32211067476E+03  0.47390283744E+03 -0.19485379026E+04  0.20331242548E+04  0.91951572298E+02 0.  0.
          3    1    3    3  502    0 -0.15356719297E+03 -0.27103143112E+03 -0.93265820463E+03  0.98330679143E+03  0.00000000000E+00 0. -1.
         -3    1    3    3    0  502 -0.11693720941E+03 -0.35178045297E+03 -0.13572002151E+04  0.14069172762E+04  0.00000000000E+00 0.  1.
         11    1    5    5    0    0 -0.71644343997E+02  0.66147114783E+02 -0.48821697945E+02  0.10905003902E+03  0.00000000000E+00 0.  1.
        -11    1    5    5    0    0  0.20038071621E+02  0.82761931867E+02 -0.55139151669E+02  0.10144647716E+03  0.00000000000E+00 0. -1.
          2    1    6    6  503    0  0.12055852247E+03  0.24315154122E+03 -0.82058850718E+03  0.86430464968E+03  0.00000000000E+00 0. -1.
         -2    1    6    6    0  503  0.20155215229E+03  0.23075129622E+03 -0.11279493954E+04  0.11688196051E+04  0.00000000000E+00 0.  1.
<mgrwt>
<rscale>  0 0.72133225E+03</rscale>
<asrwt>0</asrwt>
<pdfrwt beam="1">  1        2 0.69047700E+00 0.72133225E+03</pdfrwt>
<pdfrwt beam="2">  1       -2 0.22422131E-01 0.72133225E+03</pdfrwt>
<totfact> 0.25139115E+00</totfact>
</mgrwt>
</event>
<event>
12    1  0.1444206E-007  0.6182172E+03  0.7818608E-02  0.9868316E-01
         -1   -1    0    0    0  501 -0.00000000000E+00  0.00000000000E+00  0.29466101028E+03  0.29466101028E+03  0.00000000000E+00 0.  1.
          1   -1    0    0  501    0  0.00000000000E+00 -0.00000000000E+00 -0.21941710098E+04  0.21941710098E+04  0.00000000000E+00 0. -1.
         23    2    1    2    0    0 -0.26109910712E+03 -0.50583413679E+03 -0.14202414228E+04  0.15329823439E+04  0.94383526240E+02 0.  0.
    5000000    2    1    2    0    0  0.26109910712E+03  0.50583413679E+03 -0.47926857669E+03  0.95584967615E+03  0.59992442616E+03 0.  0.
         23    2    4    4    0    0  0.58125192431E+02  0.41948062187E+03 -0.12764883860E+02  0.43238608386E+03  0.86326433605E+02 0.  0.
         23    2    4    4    0    0  0.20297391469E+03  0.86353514920E+02 -0.46650369283E+03  0.52346359228E+03  0.87938031791E+02 0.  0.
          3    1    3    3  502    0 -0.12833052325E+03 -0.27083068906E+03 -0.86854947823E+03  0.91880149187E+03  0.00000000000E+00 0. -1.
         -3    1    3    3    0  502 -0.13276858387E+03 -0.23500344773E+03 -0.55169194459E+03  0.61418085205E+03  0.00000000000E+00 0.  1.
         11    1    5    5    0    0  0.74055085598E+02  0.37271626422E+03 -0.27037162657E+02  0.38096269828E+03  0.00000000000E+00 0. -1.
        -11    1    5    5    0    0 -0.15929893167E+02  0.46764357654E+02  0.14272278796E+02  0.51423385587E+02  0.00000000000E+00 0.  1.
          4    1    6    6  503    0  0.15246425182E+03  0.10327416338E+03 -0.36603206951E+03  0.40974428222E+03  0.00000000000E+00 0. -1.
         -4    1    6    6    0  503  0.50509662869E+02 -0.16920648457E+02 -0.10047162332E+03  0.11371931006E+03  0.00000000000E+00 0.  1.
<mgrwt>
<rscale>  0 0.61821716E+03</rscale>
<asrwt>0</asrwt>
<pdfrwt beam="1">  1        1 0.33756479E+00 0.61821716E+03</pdfrwt>
<pdfrwt beam="2">  1       -1 0.45332460E-01 0.61821716E+03</pdfrwt>
<totfact> 0.11388607E+01</totfact>
</mgrwt>
</event>
<event>
12    1  0.1444206E-007  0.7902204E+03  0.7818608E-02  0.9574282E-01
          1   -1    0    0  501    0  0.00000000000E+00  0.00000000000E+00  0.14183753820E+04  0.14183753820E+04  0.00000000000E+00 0. -1.
         -1   -1    0    0    0  501 -0.00000000000E+00 -0.00000000000E+00 -0.56931889191E+03  0.56931889191E+03  0.00000000000E+00 0.  1.
         23    2    1    2    0    0  0.69563261363E+03 -0.32444059063E+03  0.14649487449E+03  0.78657549969E+03  0.89854540595E+02 0.  0.
    5000000    2    1    2    0    0 -0.69563261363E+03  0.32444059063E+03  0.70256161561E+03  0.12011187742E+04  0.59993921030E+03 0.  0.
         23    2    4    4    0    0 -0.69611452631E+03  0.25904055134E+03  0.33904663865E+03  0.82166132748E+03  0.92180653721E+02 0.  0.
         23    2    4    4    0    0  0.48191267168E+00  0.65400039290E+02  0.36351497696E+03  0.37945744674E+03  0.86990907769E+02 0.  0.
          3    1    3    3  502    0  0.30594236304E+03 -0.12435898387E+03  0.21085888613E+02  0.33092370884E+03  0.00000000000E+00 0. -1.
         -3    1    3    3    0  502  0.38969025059E+03 -0.20008160677E+03  0.12540898587E+03  0.45565179085E+03  0.00000000000E+00 0.  1.
         13    1    5    5    0    0 -0.52545346359E+02  0.41709548513E+02  0.13614503115E+02  0.68454762845E+02  0.00000000000E+00 0. -1.
        -13    1    5    5    0    0 -0.64356917995E+03  0.21733100283E+03  0.32543213553E+03  0.75320656463E+03  0.00000000000E+00 0.  1.
          1    1    6    6  503    0 -0.31408720272E+01  0.39023630595E+02  0.44243814174E+02  0.59078117053E+02  0.00000000000E+00 0. -1.
         -1    1    6    6    0  503  0.36227846989E+01  0.26376408694E+02  0.31927116278E+03  0.32037932968E+03  0.00000000000E+00 0.  1.
<mgrwt>
<rscale>  0 0.79022042E+03</rscale>
<asrwt>0</asrwt>
<pdfrwt beam="1">  1        1 0.21821160E+00 0.79022042E+03</pdfrwt>
<pdfrwt beam="2">  1       -1 0.87587522E-01 0.79022042E+03</pdfrwt>
<totfact> 0.98644580E+00</totfact>
</mgrwt>
</event>
<event>
12    1  0.1444206E-007  0.5623783E+03  0.7818608E-02  0.9986688E-01
         -2   -1    0    0    0  501 -0.00000000000E+00  0.00000000000E+00  0.30037402300E+03  0.30037402300E+03  0.00000000000E+00 0. -1.
          2   -1    0    0  501    0  0.00000000000E+00 -0.00000000000E+00 -0.12391525857E+04  0.12391525857E+04  0.00000000000E+00 0.  1.
         23    2    1    2    0    0  0.34360192111E+03 -0.27496339287E+03 -0.20287086525E+03  0.49310546641E+03  0.91264809396E+02 0.  0.
    5000000    2    1    2    0    0 -0.34360192111E+03  0.27496339287E+03 -0.73590769748E+03  0.10464211423E+04  0.59980823627E+03 0.  0.
         23    2    4    4    0    0  0.50172615346E+02  0.26332270114E+03 -0.50911734344E+03  0.58237267692E+03  0.90007383931E+02 0.  0.
         23    2    4    4    0    0 -0.39377453645E+03  0.11640691723E+02 -0.22679035404E+03  0.46404846541E+03  0.93344642582E+02 0.  0.
          2    1    3    3  502    0  0.95215152342E+02 -0.11019108045E+03 -0.10442059973E+03  0.17919726866E+03  0.00000000000E+00 0. -1.
         -2    1    3    3    0  502  0.24838676876E+03 -0.16477231241E+03 -0.98450265518E+02  0.31390819775E+03  0.00000000000E+00 0.  1.
         11    1    5    5    0    0 -0.22745694582E+02  0.59054144690E+02 -0.15055915180E+03  0.16331814602E+03  0.00000000000E+00 0.  1.
        -11    1    5    5    0    0  0.72918309929E+02  0.20426855645E+03 -0.35855819163E+03  0.41905453090E+03  0.00000000000E+00 0. -1.
          3    1    6    6  503    0 -0.12981162427E+03 -0.31085270693E+02 -0.45649202487E+02  0.14107161847E+03  0.00000000000E+00 0. -1.
         -3    1    6    6    0  503 -0.26396291219E+03  0.42725962416E+02 -0.18114115155E+03  0.32297684694E+03  0.00000000000E+00 0.  1.
<mgrwt>
<rscale>  0 0.56237828E+03</rscale>
<asrwt>0</asrwt>
<pdfrwt beam="1">  1        2 0.19063886E+00 0.56237828E+03</pdfrwt>
<pdfrwt beam="2">  1       -2 0.46211387E-01 0.56237828E+03</pdfrwt>
<totfact> 0.82533661E+01</totfact>
</mgrwt>
</event>
<event>
12    1  0.1444206E-007  0.8768261E+03  0.7818608E-02  0.9455023E-01
         -1   -1    0    0    0  501 -0.00000000000E+00  0.00000000000E+00  0.88962813353E+03  0.88962813353E+03  0.00000000000E+00 0.  1.
          1   -1    0    0  501    0  0.00000000000E+00 -0.00000000000E+00 -0.95484895570E+03  0.95484895570E+03  0.00000000000E+00 0. -1.
         23    2    1    2    0    0  0.47364191422E+03  0.65670727577E+03  0.10923938148E+03  0.82158915530E+03  0.86454546922E+02 0.  0.
    5000000    2    1    2    0    0 -0.47364191422E+03 -0.65670727577E+03 -0.17446020364E+03  0.10228879339E+04  0.60021850500E+03 0.  0.
         23    2    4    4    0    0 -0.54613755856E+03 -0.63438890431E+03 -0.39871504917E+02  0.84309854931E+03  0.92249185138E+02 0.  0.
         23    2    4    4    0    0  0.72495644336E+02 -0.22318371464E+02 -0.13458869873E+03  0.17978938462E+03  0.91958560467E+02 0.  0.
          2    1    3    3  502    0  0.21356134937E+03  0.26402774813E+03  0.71908044218E+01  0.33966278777E+03  0.00000000000E+00 0. -1.
         -2    1    3    3    0  502  0.26008056485E+03  0.39267952765E+03  0.10204857706E+03  0.48192636754E+03  0.00000000000E+00 0.  1.
         11    1    5    5    0    0 -0.10791393720E+03 -0.16224961630E+03 -0.40025770184E+02  0.19892817324E+03  0.00000000000E+00 0. -1.
        -11    1    5    5    0    0 -0.43822362136E+03 -0.47213928801E+03  0.15426526651E+00  0.64417037606E+03  0.00000000000E+00 0.  1.
          4    1    6    6  503    0  0.21787806694E+02 -0.43836687364E+02 -0.10809849037E+03  0.11866611690E+03  0.00000000000E+00 0. -1.
         -4    1    6    6    0  503  0.50707837642E+02  0.21518315900E+02 -0.26490208354E+02  0.61123267715E+02  0.00000000000E+00 0.  1.
<mgrwt>
<rscale>  0 0.87682610E+03</rscale>
<asrwt>0</asrwt>
<pdfrwt beam="1">  1        1 0.14689984E+00 0.87682610E+03</pdfrwt>
<pdfrwt beam="2">  1       -1 0.13686587E+00 0.87682610E+03</pdfrwt>
<totfact> 0.74248207E+00</totfact>
</mgrwt>
</event>
<event>
12    1  0.1444206E-007  0.5376978E+03  0.7818608E-02  0.1004382E+00
         -1   -1    0    0    0  501 -0.00000000000E+00  0.00000000000E+00  0.17912244336E+03  0.17912244336E+03  0.00000000000E+00 0.  1.
          1   -1    0    0  501    0  0.00000000000E+00 -0.00000000000E+00 -0.19609678155E+04  0.19609678155E+04  0.00000000000E+00 0. -1.
         23    2    1    2    0    0  0.15958075913E+03  0.40399977718E+03 -0.63526477793E+03  0.77501020677E+03  0.91638659260E+02 0.  0.
    5000000    2    1    2    0    0 -0.15958075913E+03 -0.40399977718E+03 -0.11465805942E+04  0.13650800521E+04  0.60009553486E+03 0.  0.
         23    2    4    4    0    0 -0.29881043823E+02  0.85748933310E+02 -0.24858646343E+02  0.13100277889E+03  0.91093465381E+02 0.  0.
         23    2    4    4    0    0 -0.12969971531E+03 -0.48974871049E+03 -0.11217219479E+04  0.12340772732E+04  0.89502918027E+02 0.  0.
          4    1    3    3  502    0  0.63678178725E+02  0.21505326265E+03 -0.25422638726E+03  0.33901898501E+03  0.00000000000E+00 0.  1.
         -4    1    3    3    0  502  0.95902580404E+02  0.18894651453E+03 -0.38103839067E+03  0.43599122176E+03  0.00000000000E+00 0. -1.
         11    1    5    5    0    0  0.28955290560E+02  0.53590546963E+02 -0.18451803499E+02  0.63646088863E+02  0.00000000000E+00 0. -1.
        -11    1    5    5    0    0 -0.58836334383E+02  0.32158386347E+02 -0.64068428446E+01  0.67356690026E+02  0.00000000000E+00 0.  1.
          4    1    6    6  503    0 -0.45883802404E+02 -0.30439131194E+03 -0.74145831848E+03  0.80281992510E+03  0.00000000000E+00 0. -1.
         -4    1    6    6    0  503 -0.83815912903E+02 -0.18535739855E+03 -0.38026362942E+03  0.43125734813E+03  0.00000000000E+00 0.  1.
<mgrwt>
<rscale>  0 0.53769777E+03</rscale>
<asrwt>0</asrwt>
<pdfrwt beam="1">  1        1 0.30168734E+00 0.53769777E+03</pdfrwt>
<pdfrwt beam="2">  1       -1 0.27557300E-01 0.53769777E+03</pdfrwt>
<totfact> 0.40018790E+01</totfact>
</mgrwt>
</event>
<event>
12    1  0.1444206E-007  0.6706467E+03  0.7818608E-02  0.9768790E-01
         -1   -1    0    0    0  501 -0.00000000000E+00  0.00000000000E+00  0.99649866654E+03  0.99649866654E+03  0.00000000000E+00 0.  1.
          1   -1    0    0  501    0  0.00000000000E+00 -0.00000000000E+00 -0.12341269785E+04  0.12341269785E+04  0.00000000000E+00 0. -1.
         23    2    1    2    0    0 -0.62650927808E+03 -0.14734129992E+03 -0.91347486102E+03  0.11212136320E+04  0.91980175976E+02 0.  0.
    5000000    2    1    2    0    0  0.62650927808E+03  0.14734129992E+03  0.67584654903E+03  0.11094120130E+04  0.59983591309E+03 0.  0.
         23    2    4    4    0    0  0.30409120797E+03  0.16887010140E+03  0.68529676052E+03  0.77387103285E+03  0.90863367693E+02 0.  0.
         23    2    4    4    0    0  0.32241807011E+03 -0.21528801481E+02 -0.94502114911E+01  0.33554098018E+03  0.89897395156E+02 0.  0.
          1    1    3    3  502    0 -0.20116979812E+03 -0.92990840111E+01 -0.32061169085E+03  0.37861275328E+03  0.00000000000E+00 0. -1.
         -1    1    3    3    0  502 -0.42533947996E+03 -0.13804221591E+03 -0.59286317017E+03  0.74260087876E+03  0.00000000000E+00 0.  1.
         13    1    5    5    0    0  0.20474844478E+03  0.15651199174E+03  0.45857245462E+03  0.52602911073E+03  0.00000000000E+00 0.  1.
        -13    1    5    5    0    0  0.99342763194E+02  0.12358109656E+02  0.22672430590E+03  0.24784192212E+03  0.00000000000E+00 0. -1.
          4    1    6    6  503    0  0.15442078586E+03 -0.54397253660E+02 -0.13808171588E+02  0.16430309161E+03  0.00000000000E+00 0. -1.
         -4    1    6    6    0  503  0.16799728426E+03  0.32868452178E+02  0.43579600973E+01  0.17123788857E+03  0.00000000000E+00 0.  1.
<mgrwt>
<rscale>  0 0.67064671E+03</rscale>
<asrwt>0</asrwt>
<pdfrwt beam="1">  1        1 0.18986569E+00 0.67064671E+03</pdfrwt>
<pdfrwt beam="2">  1       -1 0.15330749E+00 0.67064671E+03</pdfrwt>
<totfact> 0.35038567E+00</totfact>
</mgrwt>
</event>
<event>
12    1  0.1444206E-007  0.3209627E+03  0.7818608E-02  0.1075207E+00
         -2   -1    0    0    0  501 -0.00000000000E+00  0.00000000000E+00  0.14417904538E+03  0.14417904538E+03  0.00000000000E+00 0.  1.
          2   -1    0    0  501    0  0.00000000000E+00 -0.00000000000E+00 -0.14119021124E+04  0.14119021124E+04  0.00000000000E+00 0. -1.
         23    2    1    2    0    0  0.42869632355E+02  0.22894147544E+03 -0.46914429243E+03  0.53032568957E+03  0.83047970131E+02 0.  0.
    5000000    2    1    2    0    0 -0.42869632355E+02 -0.22894147544E+03 -0.79857877455E+03  0.10257554682E+04  0.60016182548E+03 0.  0.
         23    2    4    4    0    0 -0.17751560002E+03 -0.14358984383E+03 -0.44146008435E+02  0.24923534485E+03  0.89663568729E+02 0.  0.
         23    2    4    4    0    0  0.13464596767E+03 -0.85351631609E+02 -0.75443276612E+03  0.77652012332E+03  0.91652963431E+02 0.  0.
          3    1    3    3  502    0  0.14103268214E+02  0.94001850052E+01 -0.87291797761E+02  0.88922008574E+02  0.00000000000E+00 0. -1.
         -3    1    3    3    0  502  0.28766364141E+02  0.21954129044E+03 -0.38185249467E+03  0.44140368100E+03  0.00000000000E+00 0.  1.
         11    1    5    5    0    0 -0.15749759022E+03 -0.82230605442E+02 -0.14656866314E+02  0.17827559319E+03  0.00000000000E+00 0. -1.
        -11    1    5    5    0    0 -0.20018009801E+02 -0.61359238389E+02 -0.29489142121E+02  0.70959751656E+02  0.00000000000E+00 0.  1.
          1    1    6    6  503    0  0.53973760887E+02 -0.20131335386E+02 -0.47449335993E+03  0.47797739083E+03  0.00000000000E+00 0. -1.
         -1    1    6    6    0  503  0.80672206783E+02 -0.65220296223E+02 -0.27993940619E+03  0.29854273249E+03  0.00000000000E+00 0.  1.
<mgrwt>
<rscale>  0 0.32096269E+03</rscale>
<asrwt>0</asrwt>
<pdfrwt beam="1">  1        2 0.21721571E+00 0.32096269E+03</pdfrwt>
<pdfrwt beam="2">  1       -2 0.22181392E-01 0.32096269E+03</pdfrwt>
<totfact> 0.26724244E+02</totfact>
</mgrwt>
</event>
<event>
12    1  0.1444206E-007  0.6332235E+03  0.7818608E-02  0.9838779E-01
          2   -1    0    0  501    0  0.00000000000E+00  0.00000000000E+00  0.82045050701E+03  0.82045050701E+03  0.00000000000E+00 0. -1.
         -2   -1    0    0    0  501 -0.00000000000E+00 -0.00000000000E+00 -0.50938534562E+03  0.50938534562E+03  0.00000000000E+00 0.  1.
         23    2    1    2    0    0 -0.32054484734E+03  0.37786976690E+03  0.36002423211E+02  0.50402678489E+03  0.84925058207E+02 0.  0.
    5000000    2    1    2    0    0  0.32054484734E+03 -0.37786976690E+03  0.27506273818E+03  0.82580906774E+03  0.60063844909E+03 0.  0.
         23    2    4    4    0    0  0.46932448172E+03 -0.17759945298E+03  0.14529725376E+03  0.53024495285E+03  0.90782064477E+02 0.  0.
         23    2    4    4    0    0 -0.14877963437E+03 -0.20027031392E+03  0.12976548442E+03  0.29556411489E+03  0.90969702766E+02 0.  0.
          4    1    3    3  502    0 -0.13768984273E+03  0.20874100965E+03  0.48130519312E+02  0.25465240778E+03  0.00000000000E+00 0.  1.
         -4    1    3    3    0  502 -0.18285500461E+03  0.16912875725E+03 -0.12128096102E+02  0.24937437710E+03  0.00000000000E+00 0. -1.
         13    1    5    5    0    0  0.12285557378E+03 -0.16242874854E+02  0.81831478022E+01  0.12419455262E+03  0.00000000000E+00 0.  1.
        -13    1    5    5    0    0  0.34646890794E+03 -0.16135657812E+03  0.13711410596E+03  0.40605040022E+03  0.00000000000E+00 0. -1.
          1    1    6    6  503    0 -0.10074858492E+03 -0.70937190157E+02  0.88008403859E+02  0.15141942234E+03  0.00000000000E+00 0. -1.
         -1    1    6    6    0  503 -0.48031049452E+02 -0.12933312377E+03  0.41757080562E+02  0.14414469255E+03  0.00000000000E+00 0.  1.
<mgrwt>
<rscale>  0 0.63322346E+03</rscale>
<asrwt>0</asrwt>
<pdfrwt beam="1">  1        2 0.12622316E+00 0.63322346E+03</pdfrwt>
<pdfrwt beam="2">  1       -2 0.78366976E-01 0.63322346E+03</pdfrwt>
<totfact> 0.49381954E+01</totfact>
</mgrwt>
</event>
<event>
12    1  0.1444206E-007  0.1642378E+04  0.7818608E-02  0.8794928E-01
          1   -1    0    0  501    0  0.00000000000E+00  0.00000000000E+00  0.34101271866E+04  0.34101271866E+04  0.00000000000E+00 0. -1.
         -1   -1    0    0    0  501 -0.00000000000E+00 -0.00000000000E+00 -0.86344481130E+03  0.86344481130E+03  0.00000000000E+00 0.  1.
         23    2    1    2    0    0 -0.40655684136E+03 -0.15647158218E+04  0.17163215728E+04  0.23595779531E+04  0.90687965906E+02 0.  0.
    5000000    2    1    2    0    0  0.40655684136E+03  0.15647158218E+04  0.83036080245E+03  0.19139940448E+04  0.60020835795E+03 0.  0.
         23    2    4    4    0    0  0.17805109403E+03  0.19261103794E+03 -0.24206894356E+02  0.27896066531E+03  0.91825241803E+02 0.  0.
         23    2    4    4    0    0  0.22850574733E+03  0.13721047839E+04  0.85456769681E+03  0.16350333795E+04  0.90342620637E+02 0.  0.
          2    1    3    3  502    0 -0.26378402555E+03 -0.10399901238E+04  0.11999424438E+04  0.16096655982E+04  0.00000000000E+00 0. -1.
         -2    1    3    3    0  502 -0.14277281581E+03 -0.52472569798E+03  0.51637912905E+03  0.74991235487E+03  0.00000000000E+00 0.  1.
         13    1    5    5    0    0  0.15747307550E+02 -0.88349636198E+01 -0.80273471878E+01  0.19760379048E+02  0.00000000000E+00 0.  1.
        -13    1    5    5    0    0  0.16230378648E+03  0.20144600156E+03 -0.16179547169E+02  0.25920028626E+03  0.00000000000E+00 0. -1.
          3    1    6    6  503    0  0.16962664428E+03  0.93995360474E+03  0.53928580123E+03  0.10968660597E+04  0.00000000000E+00 0. -1.
         -3    1    6    6    0  503  0.58879103048E+02  0.43215117912E+03  0.31528189558E+03  0.53816731977E+03  0.00000000000E+00 0.  1.
<mgrwt>
<rscale>  0 0.16423780E+04</rscale>
<asrwt>0</asrwt>
<pdfrwt beam="1">  1        1 0.52463495E+00 0.16423780E+04</pdfrwt>
<pdfrwt beam="2">  1       -1 0.13283766E+00 0.16423780E+04</pdfrwt>
<totfact> 0.13270583E-01</totfact>
</mgrwt>
</event>
<event>
12    1  0.1444206E-007  0.1297452E+04  0.7818608E-02  0.9031588E-01
         -1   -1    0    0    0  501 -0.00000000000E+00  0.00000000000E+00  0.22743884004E+04  0.22743884004E+04  0.00000000000E+00 0.  1.
          1   -1    0    0  501    0  0.00000000000E+00 -0.00000000000E+00 -0.93574156436E+03  0.93574156436E+03  0.00000000000E+00 0. -1.
         23    2    1    2    0    0  0.70616889056E+03  0.10701354190E+04  0.35066056901E+02  0.12857413135E+04  0.89648089373E+02 0.  0.
    5000000    2    1    2    0    0 -0.70616889056E+03 -0.10701354190E+04  0.13035807791E+04  0.19243886512E+04  0.60007042605E+03 0.  0.
         23    2    4    4    0    0 -0.65904904170E+03 -0.81830917730E+03  0.71103644287E+03  0.12719461899E+04  0.91097408236E+02 0.  0.
         23    2    4    4    0    0 -0.47119848851E+02 -0.25182624172E+03  0.59254433624E+03  0.65244246135E+03  0.94528507806E+02 0.  0.
          2    1    3    3  502    0  0.19199750837E+03  0.22792690639E+03 -0.68566395898E+01  0.29809517169E+03  0.00000000000E+00 0. -1.
         -2    1    3    3    0  502  0.51417138218E+03  0.84220851263E+03  0.41922696490E+02  0.98764614183E+03  0.00000000000E+00 0.  1.
         11    1    5    5    0    0 -0.63963981720E+03 -0.81133300207E+03  0.70377737954E+03  0.12500811717E+04  0.00000000000E+00 0. -1.
        -11    1    5    5    0    0 -0.19409224507E+02 -0.69761752274E+01  0.72590633252E+01  0.21865018114E+02  0.00000000000E+00 0.  1.
          3    1    6    6  503    0 -0.24652996484E+02 -0.10745033791E+03  0.14830406783E+03  0.18479026460E+03  0.00000000000E+00 0. -1.
         -3    1    6    6    0  503 -0.22466852367E+02 -0.14437590380E+03  0.44424026841E+03  0.46765219675E+03  0.00000000000E+00 0.  1.
<mgrwt>
<rscale>  0 0.12974518E+04</rscale>
<asrwt>0</asrwt>
<pdfrwt beam="1">  1        1 0.14396024E+00 0.12974518E+04</pdfrwt>
<pdfrwt beam="2">  1       -1 0.34990590E+00 0.12974518E+04</pdfrwt>
<totfact> 0.25863379E-01</totfact>
</mgrwt>
</event>
<event>
12    1  0.1444206E-007  0.8227153E+03  0.7818608E-02  0.9527707E-01
          2   -1    0    0  501    0  0.00000000000E+00  0.00000000000E+00  0.16898366467E+04  0.16898366467E+04  0.00000000000E+00 0. -1.
         -2   -1    0    0    0  501 -0.00000000000E+00 -0.00000000000E+00 -0.54322481384E+03  0.54322481384E+03  0.00000000000E+00 0.  1.
         23    2    1    2    0    0  0.27571476202E+03 -0.75696668513E+03  0.87433091706E+03  0.11925009989E+04  0.92665460540E+02 0.  0.
    5000000    2    1    2    0    0 -0.27571476202E+03  0.75696668513E+03  0.27228091577E+03  0.10405604616E+04  0.59967656673E+03 0.  0.
         23    2    4    4    0    0 -0.65369621821E+02  0.48549837420E+03  0.42399982542E+03  0.65394565433E+03  0.88809954679E+02 0.  0.
         23    2    4    4    0    0 -0.21034514020E+03  0.27146831092E+03 -0.15171890965E+03  0.38661480723E+03  0.92261908622E+02 0.  0.
          2    1    3    3  502    0  0.19290076065E+03 -0.45252209247E+03  0.47785305692E+03  0.68580645349E+03  0.00000000000E+00 0. -1.
         -2    1    3    3    0  502  0.82814001363E+02 -0.30444459265E+03  0.39647786013E+03  0.50669454546E+03  0.00000000000E+00 0.  1.
         11    1    5    5    0    0 -0.57514645063E+02  0.34649761662E+03  0.35176727339E+03  0.49710033932E+03  0.00000000000E+00 0. -1.
        -11    1    5    5    0    0 -0.78549767575E+01  0.13900075758E+03  0.72232552024E+02  0.15684531501E+03  0.00000000000E+00 0.  1.
          3    1    6    6  503    0 -0.84508622060E+02  0.68749663291E+02 -0.10718958800E+02  0.10946743572E+03  0.00000000000E+00 0. -1.
         -3    1    6    6    0  503 -0.12583651814E+03  0.20271864763E+03 -0.14099995085E+03  0.27714737151E+03  0.00000000000E+00 0.  1.
<mgrwt>
<rscale>  0 0.82271529E+03</rscale>
<asrwt>0</asrwt>
<pdfrwt beam="1">  1        2 0.25997487E+00 0.82271529E+03</pdfrwt>
<pdfrwt beam="2">  1       -2 0.83573049E-01 0.82271529E+03</pdfrwt>
<totfact> 0.12670924E+01</totfact>
</mgrwt>
</event>
<event>
12    1  0.1444206E-007  0.1627695E+04  0.7818608E-02  0.8803712E-01
          2   -1    0    0  501    0  0.00000000000E+00  0.00000000000E+00  0.18613996169E+04  0.18613996169E+04  0.00000000000E+00 0.  1.
         -2   -1    0    0    0  501 -0.00000000000E+00 -0.00000000000E+00 -0.17157795877E+04  0.17157795877E+04  0.00000000000E+00 0. -1.
         23    2    1    2    0    0  0.82651619220E+02 -0.16133795754E+04  0.70567388192E+03  0.17651068911E+04  0.88327599578E+02 0.  0.
    5000000    2    1    2    0    0 -0.82651619220E+02  0.16133795754E+04 -0.56005385266E+03  0.18120723135E+04  0.60010066382E+03 0.  0.
         23    2    4    4    0    0  0.72574463628E+02  0.67450161279E+03  0.35850492764E+02  0.68569444041E+03  0.93124268328E+02 0.  0.
         23    2    4    4    0    0 -0.15522608285E+03  0.93887796266E+03 -0.59590434542E+03  0.11263778731E+04  0.89655777563E+02 0.  0.
          4    1    3    3  502    0  0.18872745348E+02 -0.60463085608E+03  0.21971399248E+03  0.64359062387E+03  0.00000000000E+00 0. -1.
         -4    1    3    3    0  502  0.63778873872E+02 -0.10087487194E+04  0.48595988944E+03  0.11215162673E+04  0.00000000000E+00 0.  1.
         13    1    5    5    0    0 -0.13587905876E+02  0.27308038640E+03 -0.16290617178E+01  0.27342308327E+03  0.00000000000E+00 0. -1.
        -13    1    5    5    0    0  0.86162369504E+02  0.40142122639E+03  0.37479554482E+02  0.41227135714E+03  0.00000000000E+00 0.  1.
          3    1    6    6  503    0 -0.53577628392E+02  0.58738824807E+03 -0.35914259701E+03  0.69056420500E+03  0.00000000000E+00 0. -1.
         -3    1    6    6    0  503 -0.10164845446E+03  0.35148971459E+03 -0.23676174841E+03  0.43581366806E+03  0.00000000000E+00 0.  1.
<mgrwt>
<rscale>  0 0.16276950E+04</rscale>
<asrwt>0</asrwt>
<pdfrwt beam="1">  1        2 0.28636917E+00 0.16276950E+04</pdfrwt>
<pdfrwt beam="2">  1       -2 0.26396609E+00 0.16276950E+04</pdfrwt>
<totfact> 0.38958283E-01</totfact>
</mgrwt>
</event>
<event>
12    1  0.1444206E-007  0.4002996E+03  0.7818608E-02  0.1043676E+00
         -1   -1    0    0    0  501 -0.00000000000E+00  0.00000000000E+00  0.33762798396E+03  0.33762798396E+03  0.00000000000E+00 0.  1.
          1   -1    0    0  501    0  0.00000000000E+00 -0.00000000000E+00 -0.89492104328E+03  0.89492104328E+03  0.00000000000E+00 0. -1.
         23    2    1    2    0    0  0.20947282850E+03 -0.31481157737E+03 -0.22697561612E+03  0.45039098109E+03  0.91372372249E+02 0.  0.
    5000000    2    1    2    0    0 -0.20947282850E+03  0.31481157737E+03 -0.33031744320E+03  0.78215804615E+03  0.59973027333E+03 0.  0.
         23    2    4    4    0    0 -0.67521454724E+02  0.57195542453E+02 -0.43784522356E+03  0.45573999141E+03  0.90332845931E+02 0.  0.
         23    2    4    4    0    0 -0.14195137377E+03  0.25761603491E+03  0.10752778035E+03  0.32641805475E+03  0.92034281413E+02 0.  0.
          1    1    3    3  502    0 -0.13082789084E+01 -0.28170005780E+02  0.29416101475E+00  0.28201903305E+02  0.00000000000E+00 0. -1.
         -1    1    3    3    0  502  0.21078110741E+03 -0.28664157159E+03 -0.22726977713E+03  0.42218907778E+03  0.00000000000E+00 0.  1.
         13    1    5    5    0    0 -0.75620824604E+02  0.12272521810E+02 -0.21430705610E+03  0.22758874797E+03  0.00000000000E+00 0.  1.
        -13    1    5    5    0    0  0.80993698795E+01  0.44923020643E+02 -0.22353816745E+03  0.22815124344E+03  0.00000000000E+00 0. -1.
          1    1    6    6  503    0 -0.88816106337E+02  0.14994167298E+03  0.15162591822E+02  0.17493058689E+03  0.00000000000E+00 0. -1.
         -1    1    6    6    0  503 -0.53135267437E+02  0.10767436194E+03  0.92365188530E+02  0.15148746785E+03  0.00000000000E+00 0.  1.
<mgrwt>
<rscale>  0 0.40029962E+03</rscale>
<asrwt>0</asrwt>
<pdfrwt beam="1">  1        1 0.13768016E+00 0.40029962E+03</pdfrwt>
<pdfrwt beam="2">  1       -1 0.51942767E-01 0.40029962E+03</pdfrwt>
<totfact> 0.72941655E+01</totfact>
</mgrwt>
</event>
<event>
12    1  0.1444206E-007  0.3751829E+03  0.7818608E-02  0.1052729E+00
         -1   -1    0    0    0  501 -0.00000000000E+00  0.00000000000E+00  0.25518109804E+03  0.25518109804E+03  0.00000000000E+00 0.  1.
          1   -1    0    0  501    0  0.00000000000E+00 -0.00000000000E+00 -0.10669180911E+04  0.10669180911E+04  0.00000000000E+00 0. -1.
         23    2    1    2    0    0 -0.23332980302E+03  0.65184593226E+02  0.23367283914E+02  0.26563093406E+03  0.10640458168E+03 0.  0.
    5000000    2    1    2    0    0  0.23332980302E+03 -0.65184593226E+02 -0.83510427702E+03  0.10564682551E+04  0.60002849300E+03 0.  0.
         23    2    4    4    0    0 -0.76585988029E+02  0.96746000541E+02 -0.98450797872E+01  0.15569508374E+03  0.94439564385E+02 0.  0.
         23    2    4    4    0    0  0.30991579105E+03 -0.16193059377E+03 -0.82525919723E+03  0.90077317138E+03  0.89834564219E+02 0.  0.
          3    1    3    3  502    0 -0.14491569801E+03 -0.68255082394E+01 -0.13717712962E+02  0.14572344610E+03  0.00000000000E+00 0. -1.
         -3    1    3    3    0  502 -0.88414105005E+02  0.72010101466E+02  0.37084996876E+02  0.11990748797E+03  0.00000000000E+00 0.  1.
         11    1    5    5    0    0 -0.55608403745E+02  0.36676191063E+02  0.37446241496E+02  0.76417658694E+02  0.00000000000E+00 0. -1.
        -11    1    5    5    0    0 -0.20977584283E+02  0.60069809478E+02 -0.47291321283E+02  0.79277425045E+02  0.00000000000E+00 0.  1.
          1    1    6    6  503    0  0.14810005253E+03 -0.12785669001E+03 -0.44987323456E+03  0.49057811397E+03  0.00000000000E+00 0. -1.
         -1    1    6    6    0  503  0.16181573852E+03 -0.34073903759E+02 -0.37538596268E+03  0.41019505741E+03  0.00000000000E+00 0.  1.
<mgrwt>
<rscale>  0 0.37518294E+03</rscale>
<asrwt>0</asrwt>
<pdfrwt beam="1">  1        1 0.16414124E+00 0.37518294E+03</pdfrwt>
<pdfrwt beam="2">  1       -1 0.39258631E-01 0.37518294E+03</pdfrwt>
<totfact> 0.90352950E+01</totfact>
</mgrwt>
</event>
<event>
12    1  0.1444206E-007  0.1963450E+04  0.7818608E-02  0.8623902E-01
         -1   -1    0    0    0  501 -0.00000000000E+00  0.00000000000E+00  0.14012371161E+04  0.14012371161E+04  0.00000000000E+00 0.  1.
          1   -1    0    0  501    0  0.00000000000E+00 -0.00000000000E+00 -0.28460542313E+04  0.28460542313E+04  0.00000000000E+00 0. -1.
         23    2    1    2    0    0 -0.11490053299E+04 -0.15428363202E+04 -0.10514480960E+04  0.21942090294E+04  0.91940235758E+02 0.  0.
    5000000    2    1    2    0    0  0.11490053299E+04  0.15428363202E+04 -0.39336901921E+03  0.20530823180E+04  0.59987553733E+03 0.  0.
         23    2    4    4    0    0  0.10737876828E+04  0.10623522009E+04 -0.22049119892E+03  0.15288389562E+04  0.84380085317E+02 0.  0.
         23    2    4    4    0    0  0.75217647098E+02  0.48048411935E+03 -0.17287782029E+03  0.52424336184E+03  0.91769702536E+02 0.  0.
          4    1    3    3  502    0 -0.48737011428E+03 -0.72140509462E+03 -0.50076879639E+03  0.10043526902E+04  0.00000000000E+00 0. -1.
         -4    1    3    3    0  502 -0.66163521561E+03 -0.82143122558E+03 -0.55067929964E+03  0.11898563392E+04  0.00000000000E+00 0.  1.
         11    1    5    5    0    0  0.48241209557E+03  0.48600024700E+03 -0.14197097793E+03  0.69933785012E+03  0.00000000000E+00 0. -1.
        -11    1    5    5    0    0  0.59137558722E+03  0.57635195385E+03 -0.78520220996E+02  0.82950110607E+03  0.00000000000E+00 0.  1.
          1    1    6    6  503    0  0.56016705034E+02  0.15287798655E+03 -0.26705922055E+02  0.16499320073E+03  0.00000000000E+00 0. -1.
         -1    1    6    6    0  503  0.19200942064E+02  0.32760613279E+03 -0.14617189824E+03  0.35925016110E+03  0.00000000000E+00 0.  1.
<mgrwt>
<rscale>  0 0.19634500E+04</rscale>
<asrwt>0</asrwt>
<pdfrwt beam="1">  1        1 0.43785449E+00 0.19634500E+04</pdfrwt>
<pdfrwt beam="2">  1       -1 0.21557494E+00 0.19634500E+04</pdfrwt>
<totfact> 0.81641865E-02</totfact>
</mgrwt>
</event>
<event>
12    1  0.1444206E-007  0.1867638E+04  0.7818608E-02  0.8671135E-01
          1   -1    0    0  501    0  0.00000000000E+00  0.00000000000E+00  0.21961732673E+04  0.21961732673E+04  0.00000000000E+00 0. -1.
         -1   -1    0    0    0  501 -0.00000000000E+00 -0.00000000000E+00 -0.16742953495E+04  0.16742953495E+04  0.00000000000E+00 0.  1.
         23    2    1    2    0    0 -0.15100847149E+04 -0.10574401619E+04 -0.58819344796E+02  0.18466829974E+04  0.90790061113E+02 0.  0.
    5000000    2    1    2    0    0  0.15100847149E+04  0.10574401619E+04  0.58069726251E+03  0.20237856194E+04  0.59996948303E+03 0.  0.
         23    2    4    4    0    0  0.16502765043E+03  0.30776384338E+03  0.26814525559E+03  0.45000338019E+03  0.92997071950E+02 0.  0.
         23    2    4    4    0    0  0.13450570645E+04  0.74967631850E+03  0.31255200692E+03  0.15737822392E+04  0.88930817417E+02 0.  0.
          3    1    3    3  502    0 -0.50187595077E+03 -0.34456864295E+03  0.22906280494E+02  0.60920580870E+03  0.00000000000E+00 0. -1.
         -3    1    3    3    0  502 -0.10082087642E+04 -0.71287151894E+03 -0.81725625289E+02  0.12374771887E+04  0.00000000000E+00 0.  1.
         11    1    5    5    0    0  0.13400964325E+03  0.21367530579E+03  0.23714059295E+03  0.34619558289E+03  0.00000000000E+00 0.  1.
        -11    1    5    5    0    0  0.31018007180E+02  0.94088537594E+02  0.31004662641E+02  0.10380779731E+03  0.00000000000E+00 0. -1.
          1    1    6    6  503    0  0.81349006068E+03  0.47668889982E+03  0.23026005914E+03  0.97057615923E+03  0.00000000000E+00 0. -1.
         -1    1    6    6    0  503  0.53156700381E+03  0.27298741869E+03  0.82291947782E+02  0.60320608002E+03  0.00000000000E+00 0.  1.
<mgrwt>
<rscale>  0 0.18676376E+04</rscale>
<asrwt>0</asrwt>
<pdfrwt beam="1">  1        1 0.33787281E+00 0.18676376E+04</pdfrwt>
<pdfrwt beam="2">  1       -1 0.25758390E+00 0.18676376E+04</pdfrwt>
<totfact> 0.12336677E-01</totfact>
</mgrwt>
</event>
<event>
12    1  0.1444206E-007  0.9283120E+03  0.7818608E-02  0.9390866E-01
          1   -1    0    0  501    0  0.00000000000E+00  0.00000000000E+00  0.18155606355E+04  0.18155606355E+04  0.00000000000E+00 0. -1.
         -1   -1    0    0    0  501 -0.00000000000E+00 -0.00000000000E+00 -0.65491388339E+03  0.65491388339E+03  0.00000000000E+00 0.  1.
         23    2    1    2    0    0  0.35343463957E+03  0.79284018059E+03 -0.37769652658E+02  0.87371888384E+03  0.91905086494E+02 0.  0.
    5000000    2    1    2    0    0 -0.35343463957E+03 -0.79284018059E+03  0.11984164048E+04  0.15967556351E+04  0.59992923120E+03 0.  0.
         23    2    4    4    0    0  0.18033590806E+02 -0.51736955984E+03  0.88921226310E+03  0.10332373829E+04  0.94257990090E+02 0.  0.
         23    2    4    4    0    0 -0.37146823037E+03 -0.27547062075E+03  0.30920414168E+03  0.56351825218E+03  0.89849375242E+02 0.  0.
          2    1    3    3  502    0  0.38562906750E+02  0.13471731887E+03  0.21410637477E+02  0.14175425629E+03  0.00000000000E+00 0.  1.
         -2    1    3    3    0  502  0.31487173282E+03  0.65812286172E+03 -0.59180290135E+02  0.73196462755E+03  0.00000000000E+00 0. -1.
         13    1    5    5    0    0 -0.33632801005E+02 -0.18646559523E+03  0.28102707232E+03  0.33893480035E+03  0.00000000000E+00 0.  1.
        -13    1    5    5    0    0  0.51666391811E+02 -0.33090396461E+03  0.60818519078E+03  0.69430258254E+03  0.00000000000E+00 0. -1.
          4    1    6    6  503    0 -0.28747776866E+03 -0.20876981212E+03  0.18903104338E+03  0.40244383122E+03  0.00000000000E+00 0. -1.
         -4    1    6    6    0  503 -0.83990461712E+02 -0.66700808627E+02  0.12017309830E+03  0.16107442096E+03  0.00000000000E+00 0.  1.
<mgrwt>
<rscale>  0 0.92831205E+03</rscale>
<asrwt>0</asrwt>
<pdfrwt beam="1">  1        1 0.27931702E+00 0.92831205E+03</pdfrwt>
<pdfrwt beam="2">  1       -1 0.10075598E+00 0.92831205E+03</pdfrwt>
<totfact> 0.37945277E+00</totfact>
</mgrwt>
</event>
<event>
12    1  0.1444206E-007  0.2016147E+04  0.7818608E-02  0.8599109E-01
          1   -1    0    0  501    0  0.00000000000E+00  0.00000000000E+00  0.35801827843E+04  0.35801827843E+04  0.00000000000E+00 0. -1.
         -1   -1    0    0    0  501 -0.00000000000E+00 -0.00000000000E+00 -0.11725722887E+04  0.11725722887E+04  0.00000000000E+00 0.  1.
         23    2    1    2    0    0 -0.10100627748E+04  0.17030905638E+04  0.15358254600E+04  0.25076021739E+04  0.92544806121E+02 0.  0.
    5000000    2    1    2    0    0  0.10100627748E+04 -0.17030905638E+04  0.87178503562E+03  0.22451528991E+04  0.59996509430E+03 0.  0.
         23    2    4    4    0    0  0.51154755539E+03 -0.13415855619E+04  0.51799279158E+03  0.15290919039E+04  0.90954918487E+02 0.  0.
         23    2    4    4    0    0  0.49851521946E+03 -0.36150500190E+03  0.35379224404E+03  0.71606099518E+03  0.91493750855E+02 0.  0.
          2    1    3    3  502    0 -0.75630954158E+03  0.12903657873E+04  0.12086191697E+04  0.19229686126E+04  0.00000000000E+00 0. -1.
         -2    1    3    3    0  502 -0.25375323327E+03  0.41272477651E+03  0.32720629032E+03  0.58463356127E+03  0.00000000000E+00 0.  1.
         13    1    5    5    0    0  0.72361647478E+02 -0.18231414971E+03  0.38357275677E+02  0.19986479882E+03  0.00000000000E+00 0. -1.
        -13    1    5    5    0    0  0.43918590792E+03 -0.11592714122E+04  0.47963551590E+03  0.13292271051E+04  0.00000000000E+00 0.  1.
          3    1    6    6  503    0  0.12967943341E+03 -0.10777452231E+03  0.53145045366E+02  0.17679507616E+03  0.00000000000E+00 0. -1.
         -3    1    6    6    0  503  0.36883578605E+03 -0.25373047959E+03  0.30064719868E+03  0.53926591902E+03  0.00000000000E+00 0.  1.
<mgrwt>
<rscale>  0 0.20161466E+04</rscale>
<asrwt>0</asrwt>
<pdfrwt beam="1">  1        1 0.55079735E+00 0.20161466E+04</pdfrwt>
<pdfrwt beam="2">  1       -1 0.18039574E+00 0.20161466E+04</pdfrwt>
<totfact> 0.39971022E-02</totfact>
</mgrwt>
</event>
<event>
12    1  0.1523434E-007  0.1664499E+04  0.7818608E-02  0.8781875E-01
         -1   -1    0    0    0  501 -0.00000000000E+00  0.00000000000E+00  0.12221252207E+04  0.12221252207E+04  0.00000000000E+00 0.  1.
          1   -1    0    0  501    0  0.00000000000E+00 -0.00000000000E+00 -0.24602107327E+04  0.24602107327E+04  0.00000000000E+00 0. -1.
         23    2    1    2    0    0  0.10002433691E+04  0.13180579383E+04 -0.28719263665E+03  0.16818400284E+04  0.91338625165E+02 0.  0.
    5000000    2    1    2    0    0 -0.10002433691E+04 -0.13180579383E+04 -0.95089287535E+03  0.20004959250E+04  0.60001929904E+03 0.  0.
         23    2    4    4    0    0 -0.82688818233E+03 -0.12167040793E+04 -0.61119012499E+03  0.15953492232E+04  0.86445893067E+02 0.  0.
         23    2    4    4    0    0 -0.17335518681E+03 -0.10135385899E+03 -0.33970275037E+03  0.40514670177E+03  0.91767455113E+02 0.  0.
          2    1    3    3  502    0  0.47253507278E+03  0.66797021490E+03 -0.10485075469E+03  0.82490440886E+03  0.00000000000E+00 0.  1.
         -2    1    3    3    0  502  0.52770829636E+03  0.65008772343E+03 -0.18234188196E+03  0.85693561959E+03  0.00000000000E+00 0. -1.
         11    1    5    5    0    0 -0.48222328418E+03 -0.65808135082E+03 -0.37302277378E+03  0.89708213105E+03  0.00000000000E+00 0.  1.
        -11    1    5    5    0    0 -0.34466489815E+03 -0.55862272852E+03 -0.23816735121E+03  0.69826709218E+03  0.00000000000E+00 0. -1.
          4    1    6    6  503    0 -0.13422403887E+03 -0.72026046047E+02 -0.16873186330E+03  0.22731978711E+03  0.00000000000E+00 0. -1.
         -4    1    6    6    0  503 -0.39131147944E+02 -0.29327812945E+02 -0.17097088707E+03  0.17782691466E+03  0.00000000000E+00 0.  1.
<mgrwt>
<rscale>  0 0.16644991E+04</rscale>
<asrwt>0</asrwt>
<pdfrwt beam="1">  1        1 0.37849396E+00 0.16644991E+04</pdfrwt>
<pdfrwt beam="2">  1       -1 0.18801927E+00 0.16644991E+04</pdfrwt>
<totfact> 0.24467827E-01</totfact>
</mgrwt>
</event>
<event>
12    1  0.1444206E-007  0.2104994E+04  0.7818608E-02  0.8559047E-01
         -2   -1    0    0    0  501 -0.00000000000E+00  0.00000000000E+00  0.14968742425E+04  0.14968742425E+04  0.00000000000E+00 0.  1.
          2   -1    0    0  501    0  0.00000000000E+00 -0.00000000000E+00 -0.32621966359E+04  0.32621966359E+04  0.00000000000E+00 0. -1.
         23    2    1    2    0    0  0.64975465808E+03 -0.19876365234E+04 -0.14832832283E+04  0.25653519182E+04  0.89561509911E+02 0.  0.
    5000000    2    1    2    0    0 -0.64975465808E+03  0.19876365234E+04 -0.28203916504E+03  0.21937189602E+04  0.59998060030E+03 0.  0.
         23    2    4    4    0    0 -0.17679037779E+03  0.10080452708E+04  0.11074481621E+03  0.10336798720E+04  0.93912500523E+02 0.  0.
         23    2    4    4    0    0 -0.47296428029E+03  0.97959125262E+03 -0.39278398125E+03  0.11600390882E+04  0.90095491602E+02 0.  0.
          4    1    3    3  502    0  0.50872587876E+03 -0.16580827366E+04 -0.12148452679E+04  0.21175196354E+04  0.00000000000E+00 0. -1.
         -4    1    3    3    0  502  0.14102877932E+03 -0.32955378677E+03 -0.26843796044E+03  0.44783228287E+03  0.00000000000E+00 0.  1.
         11    1    5    5    0    0 -0.12939803672E+03  0.87354749470E+03  0.72574523579E+02  0.88605650998E+03  0.00000000000E+00 0.  1.
        -11    1    5    5    0    0 -0.47392341073E+02  0.13449777608E+03  0.38170292632E+02  0.14762336198E+03  0.00000000000E+00 0. -1.
          2    1    6    6  503    0 -0.25820176013E+03  0.43211477173E+03 -0.18640115165E+03  0.53678367544E+03  0.00000000000E+00 0. -1.
         -2    1    6    6    0  503 -0.21476252016E+03  0.54747648089E+03 -0.20638282960E+03  0.62325541277E+03  0.00000000000E+00 0.  1.
<mgrwt>
<rscale>  0 0.21049938E+04</rscale>
<asrwt>0</asrwt>
<pdfrwt beam="1">  1        2 0.50187640E+00 0.21049938E+04</pdfrwt>
<pdfrwt beam="2">  1       -2 0.23028835E+00 0.21049938E+04</pdfrwt>
<totfact> 0.88509740E-02</totfact>
</mgrwt>
</event>
<event>
12    1  0.1444206E-007  0.8712650E+03  0.7818608E-02  0.9462232E-01
         -2   -1    0    0    0  501 -0.00000000000E+00  0.00000000000E+00  0.52537260874E+03  0.52537260874E+03  0.00000000000E+00 0. -1.
          2   -1    0    0  501    0  0.00000000000E+00 -0.00000000000E+00 -0.26006999347E+04  0.26006999347E+04  0.00000000000E+00 0.  1.
         23    2    1    2    0    0  0.28792165323E+03 -0.77761019901E+03 -0.24947584539E+02  0.83436870661E+03  0.89287494102E+02 0.  0.
    5000000    2    1    2    0    0 -0.28792165323E+03  0.77761019901E+03 -0.20503797415E+04  0.22917038369E+04  0.60022736669E+03 0.  0.
         23    2    4    4    0    0 -0.44746361582E+02 -0.30956723227E+02 -0.60924661563E+03  0.61856942841E+03  0.92120266600E+02 0.  0.
         23    2    4    4    0    0 -0.24317529165E+03  0.80856692223E+03 -0.14411331258E+04  0.16731344085E+04  0.97976385916E+02 0.  0.
          2    1    3    3  502    0  0.16584753405E+03 -0.56218859594E+03 -0.26849432579E+02  0.58675575326E+03  0.00000000000E+00 0.  1.
         -2    1    3    3    0  502  0.12207411918E+03 -0.21542160307E+03  0.19018480402E+01  0.24761295335E+03  0.00000000000E+00 0. -1.
         13    1    5    5    0    0 -0.24710895339E+02 -0.29988662131E+02 -0.79950545300E+02  0.88893407510E+02  0.00000000000E+00 0.  1.
        -13    1    5    5    0    0 -0.20035466243E+02 -0.96806109598E+00 -0.52929607033E+03  0.52967602090E+03  0.00000000000E+00 0. -1.
          3    1    6    6  503    0 -0.79664115099E+02  0.43272312472E+03 -0.76137508998E+03  0.87936778514E+03  0.00000000000E+00 0. -1.
         -3    1    6    6    0  503 -0.16351117655E+03  0.37584379751E+03 -0.67975803585E+03  0.79376662331E+03  0.00000000000E+00 0.  1.
<mgrwt>
<rscale>  0 0.87126502E+03</rscale>
<asrwt>0</asrwt>
<pdfrwt beam="1">  1        2 0.40010769E+00 0.87126502E+03</pdfrwt>
<pdfrwt beam="2">  1       -2 0.80826554E-01 0.87126502E+03</pdfrwt>
<totfact> 0.42355347E+00</totfact>
</mgrwt>
</event>
<event>
12    1  0.1444206E-007  0.2598572E+03  0.7818608E-02  0.1107229E+00
         -2   -1    0    0    0  501 -0.00000000000E+00  0.00000000000E+00  0.22529176707E+03  0.22529176707E+03  0.00000000000E+00 0. -1.
          2   -1    0    0  501    0  0.00000000000E+00 -0.00000000000E+00 -0.15250881118E+04  0.15250881118E+04  0.00000000000E+00 0.  1.
         23    2    1    2    0    0  0.20848228141E+03 -0.50509614045E+02  0.67589072430E+02  0.24179847556E+03  0.88781401760E+02 0.  0.
    5000000    2    1    2    0    0 -0.20848228141E+03  0.50509614045E+02 -0.13673854172E+04  0.15085814033E+04  0.60004907179E+03 0.  0.
         23    2    4    4    0    0 -0.12622138864E+03 -0.44886212157E+02 -0.13416633165E+04  0.13513698437E+04  0.90517338452E+02 0.  0.
         23    2    4    4    0    0 -0.82260892772E+02  0.95395826202E+02 -0.25722100658E+02  0.15721155962E+03  0.90479997127E+02 0.  0.
          1    1    3    3  502    0  0.57600574794E+02  0.23453088663E+02  0.46603087900E+01  0.62366594122E+02  0.00000000000E+00 0. -1.
         -1    1    3    3    0  502  0.15088170662E+03 -0.73962702707E+02  0.62928763640E+02  0.17943188144E+03  0.00000000000E+00 0.  1.
         13    1    5    5    0    0 -0.15835458977E+02 -0.10983808517E+02 -0.38050652567E+02  0.42652760418E+02  0.00000000000E+00 0. -1.
        -13    1    5    5    0    0 -0.11038592966E+03 -0.33902403640E+02 -0.13036126640E+04  0.13087170833E+04  0.00000000000E+00 0.  1.
          2    1    6    6  503    0  0.18719652034E+02  0.26700202332E+02 -0.97802068022E+01  0.34043775084E+02  0.00000000000E+00 0. -1.
         -2    1    6    6    0  503 -0.10098054481E+03  0.68695623870E+02 -0.15941893856E+02  0.12316778454E+03  0.00000000000E+00 0.  1.
<mgrwt>
<rscale>  0 0.25985717E+03</rscale>
<asrwt>0</asrwt>
<pdfrwt beam="1">  1        2 0.23462894E+00 0.25985717E+03</pdfrwt>
<pdfrwt beam="2">  1       -2 0.34660272E-01 0.25985717E+03</pdfrwt>
<totfact> 0.10505031E+02</totfact>
</mgrwt>
</event>
<event>
12    1  0.1444206E-007  0.6230921E+03  0.7818608E-02  0.9858623E-01
         -2   -1    0    0    0  501 -0.00000000000E+00  0.00000000000E+00  0.26891913113E+03  0.26891913113E+03  0.00000000000E+00 0.  1.
          2   -1    0    0  501    0  0.00000000000E+00 -0.00000000000E+00 -0.17402303455E+04  0.17402303455E+04  0.00000000000E+00 0. -1.
         23    2    1    2    0    0  0.53360769849E+03  0.65658863104E+02 -0.75361387076E+03  0.93011846652E+03  0.90212157592E+02 0.  0.
    5000000    2    1    2    0    0 -0.53360769849E+03 -0.65658863104E+02 -0.71769734366E+03  0.10790310101E+04  0.60014180121E+03 0.  0.
         23    2    4    4    0    0 -0.40250221990E+02  0.15619208525E+03 -0.11790289487E+02  0.18496923245E+03  0.89769472326E+02 0.  0.
         23    2    4    4    0    0 -0.49335747650E+03 -0.22185094835E+03 -0.70590705417E+03  0.89406177770E+03  0.91772818979E+02 0.  0.
          3    1    3    3  502    0  0.36826997550E+03  0.22655841445E+02 -0.57292298497E+03  0.68145198562E+03  0.00000000000E+00 0. -1.
         -3    1    3    3    0  502  0.16533772299E+03  0.43003021659E+02 -0.18069088579E+03  0.24866648090E+03  0.00000000000E+00 0.  1.
         11    1    5    5    0    0 -0.15111029597E+02  0.11851674454E+03 -0.46190358550E+02  0.12809414965E+03  0.00000000000E+00 0. -1.
        -11    1    5    5    0    0 -0.25139192393E+02  0.37675340708E+02  0.34400069063E+02  0.56875082797E+02  0.00000000000E+00 0.  1.
          3    1    6    6  503    0 -0.22568658315E+03 -0.11619526305E+03 -0.40276475780E+03  0.47608321026E+03  0.00000000000E+00 0. -1.
         -3    1    6    6    0  503 -0.26767089335E+03 -0.10565568530E+03 -0.30314229638E+03  0.41797856744E+03  0.00000000000E+00 0.  1.
<mgrwt>
<rscale>  0 0.62309211E+03</rscale>
<asrwt>0</asrwt>
<pdfrwt beam="1">  1        2 0.26772775E+00 0.62309211E+03</pdfrwt>
<pdfrwt beam="2">  1       -2 0.41372173E-01 0.62309211E+03</pdfrwt>
<totfact> 0.53671584E+01</totfact>
</mgrwt>
</event>
<event>
12    1  0.1444206E-007  0.8486208E+03  0.7818608E-02  0.9492190E-01
          2   -1    0    0  501    0  0.00000000000E+00  0.00000000000E+00  0.17160067761E+04  0.17160067761E+04  0.00000000000E+00 0.  1.
         -2   -1    0    0    0  501 -0.00000000000E+00 -0.00000000000E+00 -0.71375252010E+03  0.71375252010E+03  0.00000000000E+00 0. -1.
         23    2    1    2    0    0 -0.47855658818E+03  0.62154139642E+03  0.11862774834E+04  0.14251734016E+04  0.92384206242E+02 0.  0.
    5000000    2    1    2    0    0  0.47855658818E+03 -0.62154139642E+03 -0.18402322734E+03  0.10045858946E+04  0.59999846326E+03 0.  0.
         23    2    4    4    0    0  0.53602113699E+03 -0.38192643075E+03 -0.28095075236E+03  0.72142478909E+03  0.91290433598E+02 0.  0.
         23    2    4    4    0    0 -0.57464548813E+02 -0.23961496567E+03  0.96927525017E+02  0.28316110552E+03  0.10033823015E+03 0.  0.
          4    1    3    3  502    0 -0.45455803551E+03  0.54525103839E+03  0.10655230415E+04  0.12803363053E+04  0.00000000000E+00 0. -1.
         -4    1    3    3    0  502 -0.23998552667E+02  0.76290358031E+02  0.12075444182E+03  0.14483709635E+03  0.00000000000E+00 0.  1.
         13    1    5    5    0    0  0.26884848417E+03 -0.22780380859E+03 -0.11205675871E+03  0.36977128042E+03  0.00000000000E+00 0.  1.
        -13    1    5    5    0    0  0.26717265282E+03 -0.15412262216E+03 -0.16889399364E+03  0.35165350867E+03  0.00000000000E+00 0. -1.
          2    1    6    6  503    0 -0.47208510786E+02 -0.18057713301E+03  0.23090765347E+02  0.18806894454E+03  0.00000000000E+00 0. -1.
         -2    1    6    6    0  503 -0.10256038027E+02 -0.59037832664E+02  0.73836759670E+02  0.95092160982E+02  0.00000000000E+00 0.  1.
<mgrwt>
<rscale>  0 0.84862076E+03</rscale>
<asrwt>0</asrwt>
<pdfrwt beam="1">  1        2 0.26400104E+00 0.84862076E+03</pdfrwt>
<pdfrwt beam="2">  1       -2 0.10980808E+00 0.84862076E+03</pdfrwt>
<totfact> 0.64347488E+00</totfact>
</mgrwt>
</event>
<event>
12    1  0.1444206E-007  0.1224127E+04  0.7818608E-02  0.9091996E-01
         -2   -1    0    0    0  501 -0.00000000000E+00  0.00000000000E+00  0.84195941566E+03  0.84195941566E+03  0.00000000000E+00 0.  1.
          2   -1    0    0  501    0  0.00000000000E+00 -0.00000000000E+00 -0.18679491168E+04  0.18679491168E+04  0.00000000000E+00 0. -1.
         23    2    1    2    0    0  0.93004175100E+03  0.68505370267E+03 -0.22142628806E+03  0.11796586604E+04  0.91042406770E+02 0.  0.
    5000000    2    1    2    0    0 -0.93004175100E+03 -0.68505370267E+03 -0.80456341304E+03  0.15302498720E+04  0.60005512341E+03 0.  0.
         23    2    4    4    0    0 -0.25522346080E+03 -0.53255029918E+03 -0.29474001941E+03  0.66627439885E+03  0.91110149929E+02 0.  0.
         23    2    4    4    0    0 -0.67481829020E+03 -0.15250340349E+03 -0.50982339363E+03  0.86397547319E+03  0.88863449804E+02 0.  0.
          3    1    3    3  502    0  0.52893117077E+03  0.34717418869E+03 -0.15136382713E+03  0.65054523968E+03  0.00000000000E+00 0. -1.
         -3    1    3    3    0  502  0.40111058022E+03  0.33787951398E+03 -0.70062460936E+02  0.52911342070E+03  0.00000000000E+00 0.  1.
         13    1    5    5    0    0 -0.14186357960E+03 -0.38215396872E+03 -0.22374395922E+03  0.46500353796E+03  0.00000000000E+00 0.  1.
        -13    1    5    5    0    0 -0.11335988120E+03 -0.15039633046E+03 -0.70996060185E+02  0.20127086089E+03  0.00000000000E+00 0. -1.
          3    1    6    6  503    0 -0.37352920333E+03 -0.49837205101E+02 -0.31175817223E+03  0.48908176280E+03  0.00000000000E+00 0. -1.
         -3    1    6    6    0  503 -0.30128908687E+03 -0.10266619839E+03 -0.19806522140E+03  0.37489371039E+03  0.00000000000E+00 0.  1.
<mgrwt>
<rscale>  0 0.12241274E+04</rscale>
<asrwt>0</asrwt>
<pdfrwt beam="1">  1        2 0.28737679E+00 0.12241274E+04</pdfrwt>
<pdfrwt beam="2">  1       -2 0.12953222E+00 0.12241274E+04</pdfrwt>
<totfact> 0.33707969E+00</totfact>
</mgrwt>
</event>
<event>
12    1  0.1444206E-007  0.4088785E+03  0.7818608E-02  0.1040748E+00
         -2   -1    0    0    0  501 -0.00000000000E+00  0.00000000000E+00  0.26688913694E+03  0.26688913694E+03  0.00000000000E+00 0.  1.
          2   -1    0    0  501    0  0.00000000000E+00 -0.00000000000E+00 -0.72869960807E+03  0.72869960807E+03  0.00000000000E+00 0. -1.
         23    2    1    2    0    0  0.15393134830E+03  0.13697924731E+03 -0.22380489228E+03  0.31808068485E+03  0.92889816867E+02 0.  0.
    5000000    2    1    2    0    0 -0.15393134830E+03 -0.13697924731E+03 -0.23800557884E+03  0.67750806016E+03  0.59992694709E+03 0.  0.
         23    2    4    4    0    0  0.14392118132E+03 -0.22656842570E+03 -0.21111047188E+03  0.35264285690E+03  0.87993154418E+02 0.  0.
         23    2    4    4    0    0 -0.29785252962E+03  0.89589178386E+02 -0.26895106961E+02  0.32486520327E+03  0.89842658176E+02 0.  0.
          3    1    3    3  502    0  0.11205583207E+03  0.37943998981E+02 -0.12380382990E+03  0.17124148112E+03  0.00000000000E+00 0. -1.
         -3    1    3    3    0  502  0.41875516233E+02  0.99035248333E+02 -0.10000106238E+03  0.14683920372E+03  0.00000000000E+00 0.  1.
         13    1    5    5    0    0  0.11154357401E+03 -0.19278600744E+03 -0.20957196662E+03  0.30582482365E+03  0.00000000000E+00 0. -1.
        -13    1    5    5    0    0  0.32377607311E+02 -0.33782418263E+02 -0.15385052647E+01  0.46818033250E+02  0.00000000000E+00 0.  1.
          3    1    6    6  503    0 -0.13180115701E+03 -0.38715664254E+01 -0.25568316366E+02  0.13431408272E+03  0.00000000000E+00 0. -1.
         -3    1    6    6    0  503 -0.16605137262E+03  0.93460744811E+02 -0.13267905954E+01  0.19055112055E+03  0.00000000000E+00 0.  1.
<mgrwt>
<rscale>  0 0.40887855E+03</rscale>
<asrwt>0</asrwt>
<pdfrwt beam="1">  1        2 0.11210763E+00 0.40887855E+03</pdfrwt>
<pdfrwt beam="2">  1       -2 0.41059868E-01 0.40887855E+03</pdfrwt>
<totfact> 0.22526259E+02</totfact>
</mgrwt>
</event>
<event>
12    1  0.1444206E-007  0.5324319E+03  0.7818608E-02  0.1005644E+00
         -2   -1    0    0    0  501 -0.00000000000E+00  0.00000000000E+00  0.13491673330E+04  0.13491673330E+04  0.00000000000E+00 0.  1.
          2   -1    0    0  501    0  0.00000000000E+00 -0.00000000000E+00 -0.23190962485E+03  0.23190962485E+03  0.00000000000E+00 0. -1.
         23    2    1    2    0    0  0.36385822029E+03 -0.82593179593E+02  0.56687326178E+03  0.68474746444E+03  0.91210511186E+02 0.  0.
    5000000    2    1    2    0    0 -0.36385822029E+03  0.82593179593E+02  0.55038444640E+03  0.89632949345E+03  0.60105663976E+03 0.  0.
         23    2    4    4    0    0 -0.29052304521E+02  0.27757498150E+03  0.14261389592E+03  0.32663821681E+03  0.91988557032E+02 0.  0.
         23    2    4    4    0    0 -0.33480591576E+03 -0.19498180190E+03  0.40777055049E+03  0.56969127664E+03  0.90323997515E+02 0.  0.
          3    1    3    3  502    0  0.20575328999E+03 -0.92695467099E+02  0.33461633660E+03  0.40360247605E+03  0.00000000000E+00 0. -1.
         -3    1    3    3    0  502  0.15810493030E+03  0.10102287506E+02  0.23225692518E+03  0.28114498838E+03  0.00000000000E+00 0.  1.
         13    1    5    5    0    0  0.12580755294E+02  0.48367139813E+02 -0.59658096497E+01  0.50331366981E+02  0.00000000000E+00 0.  1.
        -13    1    5    5    0    0 -0.41633059815E+02  0.22920784168E+03  0.14857970557E+03  0.27630684983E+03  0.00000000000E+00 0. -1.
          2    1    6    6  503    0 -0.15818359567E+03 -0.40751731282E+02  0.16664618259E+03  0.23335317378E+03  0.00000000000E+00 0. -1.
         -2    1    6    6    0  503 -0.17662232009E+03 -0.15423007062E+03  0.24112436790E+03  0.33633810286E+03  0.00000000000E+00 0.  1.
<mgrwt>
<rscale>  0 0.53243185E+03</rscale>
<asrwt>0</asrwt>
<pdfrwt beam="1">  1        2 0.35678405E-01 0.53243185E+03</pdfrwt>
<pdfrwt beam="2">  1       -2 0.20756420E+00 0.53243185E+03</pdfrwt>
<totfact> 0.18079824E+01</totfact>
</mgrwt>
</event>
<event>
12    1  0.1444206E-007  0.9093171E+03  0.7818608E-02  0.9414009E-01
          2   -1    0    0  501    0  0.00000000000E+00  0.00000000000E+00  0.16639171235E+04  0.16639171235E+04  0.00000000000E+00 0. -1.
         -2   -1    0    0    0  501 -0.00000000000E+00 -0.00000000000E+00 -0.62171038901E+03  0.62171038901E+03  0.00000000000E+00 0.  1.
         23    2    1    2    0    0  0.42076660992E+03  0.69827102610E+03  0.97070073944E+03  0.12709231230E+04  0.91425887908E+02 0.  0.
    5000000    2    1    2    0    0 -0.42076660992E+03 -0.69827102610E+03  0.71505995062E+02  0.10147043896E+04  0.59990409648E+03 0.  0.
         23    2    4    4    0    0  0.89824802118E+01 -0.53095981272E+03  0.80061567504E+02  0.54456273043E+03  0.90220314271E+02 0.  0.
         23    2    4    4    0    0 -0.42974909013E+03 -0.16731121338E+03 -0.85555724423E+01  0.47014165914E+03  0.91009116278E+02 0.  0.
          2    1    3    3  502    0  0.19078301239E+03  0.37211860582E+03  0.55176308215E+03  0.69232428344E+03  0.00000000000E+00 0. -1.
         -2    1    3    3    0  502  0.22998359753E+03  0.32615242028E+03  0.41893765729E+03  0.57859883951E+03  0.00000000000E+00 0.  1.
         11    1    5    5    0    0  0.40652386097E+02 -0.44707735933E+03  0.63658996369E+02  0.45341289079E+03  0.00000000000E+00 0.  1.
        -11    1    5    5    0    0 -0.31669905885E+02 -0.83882453395E+02  0.16402571135E+02  0.91149839638E+02  0.00000000000E+00 0. -1.
          2    1    6    6  503    0 -0.37112076933E+03 -0.12967929046E+03 -0.37062392704E+02  0.39486828785E+03  0.00000000000E+00 0.  1.
         -2    1    6    6    0  503 -0.58628320808E+02 -0.37631922920E+02  0.28506820262E+02  0.75273371286E+02  0.00000000000E+00 0. -1.
<mgrwt>
<rscale>  0 0.90931714E+03</rscale>
<asrwt>0</asrwt>
<pdfrwt beam="1">  1        2 0.25598725E+00 0.90931714E+03</pdfrwt>
<pdfrwt beam="2">  1       -2 0.95647753E-01 0.90931714E+03</pdfrwt>
<totfact> 0.94893597E+00</totfact>
</mgrwt>
</event>
<event>
12    1  0.1444206E-007  0.6935776E+03  0.7818608E-02  0.9728279E-01
         -1   -1    0    0    0  501 -0.00000000000E+00  0.00000000000E+00  0.45406888496E+03  0.45406888496E+03  0.00000000000E+00 0.  1.
          1   -1    0    0  501    0  0.00000000000E+00 -0.00000000000E+00 -0.14287720720E+04  0.14287720720E+04  0.00000000000E+00 0. -1.
         23    2    1    2    0    0  0.23541302184E+02 -0.66753411154E+03 -0.21720124626E+03  0.70816309522E+03  0.90347136480E+02 0.  0.
    5000000    2    1    2    0    0 -0.23541302184E+02  0.66753411154E+03 -0.75750194077E+03  0.11746778617E+04  0.59991908255E+03 0.  0.
         23    2    4    4    0    0  0.75846687687E+02  0.17703300189E+03 -0.60944365295E+03  0.64569674337E+03  0.91702314473E+02 0.  0.
         23    2    4    4    0    0 -0.99387989871E+02  0.49050110965E+03 -0.14805828781E+03  0.52898111837E+03  0.86200092237E+02 0.  0.
          3    1    3    3  502    0  0.35158348007E+02 -0.17327445399E+03 -0.86234324384E+02  0.19671427132E+03  0.00000000000E+00 0. -1.
         -3    1    3    3    0  502 -0.11617045823E+02 -0.49425965756E+03 -0.13096692188E+03  0.51144882390E+03  0.00000000000E+00 0.  1.
         11    1    5    5    0    0  0.86003770668E+02  0.96492614939E+02 -0.42397061481E+03  0.44323645555E+03  0.00000000000E+00 0. -1.
        -11    1    5    5    0    0 -0.10157082982E+02  0.80540386951E+02 -0.18547303814E+03  0.20246028782E+03  0.00000000000E+00 0.  1.
          4    1    6    6  503    0 -0.17728247261E+02  0.26662798946E+03 -0.53011212035E+02  0.27242423555E+03  0.00000000000E+00 0. -1.
         -4    1    6    6    0  503 -0.81659742610E+02  0.22387312019E+03 -0.95047075780E+02  0.25655688282E+03  0.00000000000E+00 0.  1.
<mgrwt>
<rscale>  0 0.69357762E+03</rscale>
<asrwt>0</asrwt>
<pdfrwt beam="1">  1        1 0.21981109E+00 0.69357762E+03</pdfrwt>
<pdfrwt beam="2">  1       -1 0.69856752E-01 0.69357762E+03</pdfrwt>
<totfact> 0.15855392E+01</totfact>
</mgrwt>
</event>
<event>
12    1  0.1444206E-007  0.1050459E+04  0.7818608E-02  0.9254870E-01
         -3   -1    0    0    0  501 -0.00000000000E+00  0.00000000000E+00  0.72826189910E+03  0.72826189910E+03  0.00000000000E+00 0.  1.
          3   -1    0    0  501    0  0.00000000000E+00 -0.00000000000E+00 -0.15945493279E+04  0.15945493279E+04  0.00000000000E+00 0. -1.
         23    2    1    2    0    0 -0.47272642264E+02  0.98300736591E+03 -0.53329121365E+03  0.11230501792E+04  0.91126299121E+02 0.  0.
    5000000    2    1    2    0    0  0.47272642264E+02 -0.98300736591E+03 -0.33299621510E+03  0.11997610477E+04  0.60000159018E+03 0.  0.
         23    2    4    4    0    0  0.18675869181E+03 -0.11382412669E+03 -0.18869688467E+03  0.30297079746E+03  0.91378602769E+02 0.  0.
         23    2    4    4    0    0 -0.13948604955E+03 -0.86918323922E+03 -0.14429933043E+03  0.89679025026E+03  0.92057562658E+02 0.  0.
          1    1    3    3  502    0 -0.67383884808E+02  0.53901482462E+03 -0.31422166944E+03  0.62754507936E+03  0.00000000000E+00 0. -1.
         -1    1    3    3    0  502  0.20111242544E+02  0.44399254129E+03 -0.21906954420E+03  0.49550509987E+03  0.00000000000E+00 0.  1.
         13    1    5    5    0    0  0.12001140470E+03 -0.26855401332E+02 -0.12864656941E+03  0.17797159790E+03  0.00000000000E+00 0.  1.
        -13    1    5    5    0    0  0.66747287117E+02 -0.86968725356E+02 -0.60050315260E+02  0.12499919956E+03  0.00000000000E+00 0. -1.
          2    1    6    6  503    0 -0.53253719080E+02 -0.40957456058E+03 -0.11256428050E+03  0.42808643580E+03  0.00000000000E+00 0. -1.
         -2    1    6    6    0  503 -0.86232330470E+02 -0.45960867864E+03 -0.31735049936E+02  0.46870381446E+03  0.00000000000E+00 0.  1.
<mgrwt>
<rscale>  0 0.10504591E+04</rscale>
<asrwt>0</asrwt>
<pdfrwt beam="1">  1        3 0.24531528E+00 0.10504591E+04</pdfrwt>
<pdfrwt beam="2">  1       -3 0.11204029E+00 0.10504591E+04</pdfrwt>
<totfact> 0.13325636E-01</totfact>
</mgrwt>
</event>
<event>
12    1  0.1444206E-007  0.4076187E+03  0.7818608E-02  0.1041173E+00
         -1   -1    0    0    0  501 -0.00000000000E+00  0.00000000000E+00  0.18024525160E+03  0.18024525160E+03  0.00000000000E+00 0.  1.
          1   -1    0    0  501    0  0.00000000000E+00 -0.00000000000E+00 -0.15833233244E+04  0.15833233244E+04  0.00000000000E+00 0. -1.
         23    2    1    2    0    0  0.12811450664E+03 -0.21602373133E+03 -0.65014370671E+02  0.27577576567E+03  0.93519116917E+02 0.  0.
    5000000    2    1    2    0    0 -0.12811450664E+03  0.21602373133E+03 -0.13380637021E+04  0.14877928103E+04  0.60002782949E+03 0.  0.
         23    2    4    4    0    0 -0.94474613967E+02  0.37873201242E+03 -0.57141903788E+03  0.69796762299E+03  0.90970852340E+02 0.  0.
         23    2    4    4    0    0 -0.33639892671E+02 -0.16270828109E+03 -0.76664466421E+03  0.78982518729E+03  0.92055191085E+02 0.  0.
          2    1    3    3  502    0  0.29154742969E+02 -0.57130356349E+02  0.24020804814E+02  0.68489968011E+02  0.00000000000E+00 0. -1.
         -2    1    3    3    0  502  0.98959763669E+02 -0.15889337498E+03 -0.89035175485E+02  0.20728579766E+03  0.00000000000E+00 0.  1.
         13    1    5    5    0    0 -0.64837261227E+02  0.12347075943E+03 -0.15375507458E+03  0.20758015762E+03  0.00000000000E+00 0.  1.
        -13    1    5    5    0    0 -0.29637352741E+02  0.25526125299E+03 -0.41766396330E+03  0.49038746537E+03  0.00000000000E+00 0. -1.
          1    1    6    6  503    0  0.28183895271E+01 -0.19183314673E+02 -0.17288768171E+02  0.25977767153E+02  0.00000000000E+00 0. -1.
         -1    1    6    6    0  503 -0.36458282198E+02 -0.14352496642E+03 -0.74935589604E+03  0.76384742014E+03  0.00000000000E+00 0.  1.
<mgrwt>
<rscale>  0 0.40761869E+03</rscale>
<asrwt>0</asrwt>
<pdfrwt beam="1">  1        1 0.24358821E+00 0.40761869E+03</pdfrwt>
<pdfrwt beam="2">  1       -1 0.27730038E-01 0.40761869E+03</pdfrwt>
<totfact> 0.72156418E+01</totfact>
</mgrwt>
</event>
<event>
12    1  0.1444206E-007  0.5374722E+03  0.7818608E-02  0.1004436E+00
         -2   -1    0    0    0  501 -0.00000000000E+00  0.00000000000E+00  0.14475889797E+04  0.14475889797E+04  0.00000000000E+00 0.  1.
          2   -1    0    0  501    0  0.00000000000E+00 -0.00000000000E+00 -0.22623451502E+03  0.22623451502E+03  0.00000000000E+00 0. -1.
         23    2    1    2    0    0 -0.38460467183E+03 -0.44599147900E+01  0.64675387257E+03  0.75827606337E+03  0.93548768896E+02 0.  0.
    5000000    2    1    2    0    0  0.38460467183E+03  0.44599147900E+01  0.57460059209E+03  0.91554743134E+03  0.60010050338E+03 0.  0.
         23    2    4    4    0    0  0.35497277533E+03  0.24231141571E+03  0.45987477554E+03  0.63560601130E+03  0.88259271579E+02 0.  0.
         23    2    4    4    0    0  0.29631896502E+02 -0.23785150092E+03  0.11472581655E+03  0.27994142003E+03  0.88055663575E+02 0.  0.
          1    1    3    3  502    0 -0.17135427169E+03 -0.25467727004E+02  0.36747743067E+03  0.40626414265E+03  0.00000000000E+00 0. -1.
         -1    1    3    3    0  502 -0.21325040014E+03  0.21007812214E+02  0.27927644189E+03  0.35201192072E+03  0.00000000000E+00 0.  1.
         13    1    5    5    0    0  0.35512122126E+03  0.22459775985E+03  0.44836658721E+03  0.61448175892E+03  0.00000000000E+00 0. -1.
        -13    1    5    5    0    0 -0.14844593306E+00  0.17713655860E+02  0.11508188333E+02  0.21124252385E+02  0.00000000000E+00 0.  1.
          4    1    6    6  503    0  0.50773462026E+02 -0.19808925050E+03  0.11558818403E+03  0.23489981672E+03  0.00000000000E+00 0. -1.
         -4    1    6    6    0  503 -0.21141565525E+02 -0.39762250415E+02 -0.86236747536E+00  0.45041603308E+02  0.00000000000E+00 0.  1.
<mgrwt>
<rscale>  0 0.53747218E+03</rscale>
<asrwt>0</asrwt>
<pdfrwt beam="1">  1        2 0.34805311E-01 0.53747218E+03</pdfrwt>
<pdfrwt beam="2">  1       -2 0.22270599E+00 0.53747218E+03</pdfrwt>
<totfact> 0.14931020E+01</totfact>
</mgrwt>
</event>
<event>
12    1  0.1444206E-007  0.5473683E+03  0.7818608E-02  0.1002105E+00
          2   -1    0    0  501    0  0.00000000000E+00  0.00000000000E+00  0.70230977945E+03  0.70230977945E+03  0.00000000000E+00 0. -1.
         -2   -1    0    0    0  501 -0.00000000000E+00 -0.00000000000E+00 -0.12017032823E+04  0.12017032823E+04  0.00000000000E+00 0.  1.
         23    2    1    2    0    0  0.35366758463E+03  0.28368258244E+03  0.48198228041E+03  0.66724137567E+03  0.85717948967E+02 0.  0.
    5000000    2    1    2    0    0 -0.35366758463E+03 -0.28368258244E+03 -0.98137578329E+03  0.12367716861E+04  0.60079048555E+03 0.  0.
         23    2    4    4    0    0 -0.15288386159E+03  0.10529133439E+03 -0.64395566955E+03  0.67677283299E+03  0.94248728870E+02 0.  0.
         23    2    4    4    0    0 -0.20078372304E+03 -0.38897391682E+03 -0.33742011374E+03  0.55999885312E+03  0.90175223482E+02 0.  0.
          3    1    3    3  502    0  0.89297705347E+02  0.91322849059E+02  0.18972041417E+03  0.22870893838E+03  0.00000000000E+00 0. -1.
         -3    1    3    3    0  502  0.26436987928E+03  0.19235973338E+03  0.29226186625E+03  0.43853243729E+03  0.00000000000E+00 0.  1.
         13    1    5    5    0    0 -0.36751308859E+02  0.63449484959E+02 -0.35602422944E+03  0.36349655816E+03  0.00000000000E+00 0.  1.
        -13    1    5    5    0    0 -0.11613255273E+03  0.41841849427E+02 -0.28793144011E+03  0.31327627484E+03  0.00000000000E+00 0. -1.
          3    1    6    6  503    0 -0.16289223858E+03 -0.24342029140E+03 -0.25581845328E+03  0.38888353102E+03  0.00000000000E+00 0. -1.
         -3    1    6    6    0  503 -0.37891484457E+02 -0.14555362542E+03 -0.81601660456E+02  0.17111532210E+03  0.00000000000E+00 0.  1.
<mgrwt>
<rscale>  0 0.54736828E+03</rscale>
<asrwt>0</asrwt>
<pdfrwt beam="1">  1        2 0.10804766E+00 0.54736828E+03</pdfrwt>
<pdfrwt beam="2">  1       -2 0.18487743E+00 0.54736828E+03</pdfrwt>
<totfact> 0.71803905E+00</totfact>
</mgrwt>
</event>
<event>
12    1  0.1444206E-007  0.5152150E+03  0.7818608E-02  0.1009882E+00
         -2   -1    0    0    0  501 -0.00000000000E+00  0.00000000000E+00  0.16125937883E+04  0.16125937883E+04  0.00000000000E+00 0.  1.
          2   -1    0    0  501    0  0.00000000000E+00 -0.00000000000E+00 -0.90013194768E+03  0.90013194768E+03  0.00000000000E+00 0. -1.
         23    2    1    2    0    0 -0.40358678105E+03  0.11869045468E+03 -0.75696773840E+03  0.87088048537E+03  0.91994287645E+02 0.  0.
    5000000    2    1    2    0    0  0.40358678105E+03 -0.11869045468E+03  0.14694295790E+04  0.16418452506E+04  0.59955218735E+03 0.  0.
         23    2    4    4    0    0  0.48837650210E+03 -0.65719186688E+02  0.14031307957E+04  0.14899297952E+04  0.91017279965E+02 0.  0.
         23    2    4    4    0    0 -0.84789721055E+02 -0.52971267991E+02  0.66298783290E+02  0.15191545545E+03  0.93206893034E+02 0.  0.
          4    1    3    3  502    0 -0.23386168872E+03  0.10896558878E+03 -0.40846409164E+03  0.48312286548E+03  0.00000000000E+00 0. -1.
         -4    1    3    3    0  502 -0.16972509232E+03  0.97248659018E+01 -0.34850364676E+03  0.38775761990E+03  0.00000000000E+00 0.  1.
         13    1    5    5    0    0  0.44038203578E+03 -0.70044275879E+02  0.13261239422E+04  0.13990880058E+04  0.00000000000E+00 0. -1.
        -13    1    5    5    0    0  0.47994466327E+02  0.43250891913E+01  0.77006853539E+02  0.90841789318E+02  0.00000000000E+00 0.  1.
          4    1    6    6  503    0 -0.74616291806E+02 -0.60171154805E+02  0.12469976290E+02  0.96662604880E+02  0.00000000000E+00 0. -1.
         -4    1    6    6    0  503 -0.10173429249E+02  0.71998868143E+01  0.53828807000E+02  0.55252850568E+02  0.00000000000E+00 0.  1.
<mgrwt>
<rscale>  0 0.51521495E+03</rscale>
<asrwt>0</asrwt>
<pdfrwt beam="1">  1        2 0.13848184E+00 0.51521495E+03</pdfrwt>
<pdfrwt beam="2">  1       -2 0.24809135E+00 0.51521495E+03</pdfrwt>
<totfact> 0.20932285E+00</totfact>
</mgrwt>
</event>
<event>
12    1  0.1444206E-007  0.3621008E+03  0.7818608E-02  0.1057755E+00
         -2   -1    0    0    0  501 -0.00000000000E+00  0.00000000000E+00  0.14615814228E+03  0.14615814228E+03  0.00000000000E+00 0.  1.
          2   -1    0    0  501    0  0.00000000000E+00 -0.00000000000E+00 -0.17151627108E+04  0.17151627108E+04  0.00000000000E+00 0. -1.
         23    2    1    2    0    0  0.63057883602E+02 -0.26523117340E+03 -0.22769293883E+03  0.36685706994E+03  0.91739649815E+02 0.  0.
    5000000    2    1    2    0    0 -0.63057883602E+02  0.26523117340E+03 -0.13413116297E+04  0.14944637832E+04  0.59998436574E+03 0.  0.
         23    2    4    4    0    0 -0.23244030934E+02 -0.76510466709E+02 -0.16853266842E+02  0.12344750819E+03  0.92526310771E+02 0.  0.
         23    2    4    4    0    0 -0.39813852668E+02  0.34174164010E+03 -0.13244583629E+04  0.13710162750E+04  0.84398932401E+02 0.  0.
          3    1    3    3  502    0 -0.13891136103E+01 -0.13227804422E+03 -0.66033033188E+02  0.14785050588E+03  0.00000000000E+00 0. -1.
         -3    1    3    3    0  502  0.64446997213E+02 -0.13295312918E+03 -0.16165990564E+03  0.21900656406E+03  0.00000000000E+00 0.  1.
         13    1    5    5    0    0 -0.22477432641E+02  0.10951610541E+01  0.26327010487E+02  0.34634460254E+02  0.00000000000E+00 0. -1.
        -13    1    5    5    0    0 -0.76659829362E+00 -0.77605627763E+02 -0.43180277329E+02  0.88813047936E+02  0.00000000000E+00 0.  1.
          3    1    6    6  503    0 -0.26743284871E+02  0.23038753889E+03 -0.72606633232E+03  0.76221121763E+03  0.00000000000E+00 0. -1.
         -3    1    6    6    0  503 -0.13070567798E+02  0.11135410121E+03 -0.59839203056E+03  0.60880505733E+03  0.00000000000E+00 0.  1.
<mgrwt>
<rscale>  0 0.36210078E+03</rscale>
<asrwt>0</asrwt>
<pdfrwt beam="1">  1        2 0.26387121E+00 0.36210078E+03</pdfrwt>
<pdfrwt beam="2">  1       -2 0.22485866E-01 0.36210078E+03</pdfrwt>
<totfact> 0.17798935E+02</totfact>
</mgrwt>
</event>
<event>
12    1  0.1444206E-007  0.1010808E+04  0.7818608E-02  0.9296770E-01
         -2   -1    0    0    0  501 -0.00000000000E+00  0.00000000000E+00  0.76060922595E+03  0.76060922595E+03  0.00000000000E+00 0.  1.
          2   -1    0    0  501    0  0.00000000000E+00 -0.00000000000E+00 -0.15677346404E+04  0.15677346404E+04  0.00000000000E+00 0. -1.
         23    2    1    2    0    0 -0.41068586754E+03 -0.91881033963E+03 -0.41952087368E+03  0.10942407474E+04  0.92139719220E+02 0.  0.
    5000000    2    1    2    0    0  0.41068586754E+03  0.91881033963E+03 -0.38760454080E+03  0.12341031189E+04  0.59991491575E+03 0.  0.
         23    2    4    4    0    0  0.30218862220E+03  0.76965854229E+03 -0.44015920495E+02  0.83347429927E+03  0.95130285204E+02 0.  0.
         23    2    4    4    0    0  0.10849724534E+03  0.14915179734E+03 -0.34358862030E+03  0.40062881968E+03  0.91828101723E+02 0.  0.
          2    1    3    3  502    0 -0.82869225660E+02 -0.27696900774E+03 -0.14011023623E+03  0.32126316021E+03  0.00000000000E+00 0. -1.
         -2    1    3    3    0  502 -0.32781664188E+03 -0.64184133189E+03 -0.27941063745E+03  0.77297758722E+03  0.00000000000E+00 0.  1.
         11    1    5    5    0    0  0.11930623210E+02  0.47542728113E+02 -0.24883468186E+02  0.54971244807E+02  0.00000000000E+00 0. -1.
        -11    1    5    5    0    0  0.29025799899E+03  0.72211581418E+03 -0.19132452309E+02  0.77850305446E+03  0.00000000000E+00 0.  1.
          4    1    6    6  503    0  0.12270589232E+02  0.14082009392E+02 -0.12427538341E+03  0.12567116324E+03  0.00000000000E+00 0. -1.
         -4    1    6    6    0  503  0.96226656110E+02  0.13506978794E+03 -0.21931323689E+03  0.27495765644E+03  0.00000000000E+00 0.  1.
<mgrwt>
<rscale>  0 0.10108079E+04</rscale>
<asrwt>0</asrwt>
<pdfrwt beam="1">  1        2 0.24118994E+00 0.10108079E+04</pdfrwt>
<pdfrwt beam="2">  1       -2 0.11701681E+00 0.10108079E+04</pdfrwt>
<totfact> 0.65272981E+00</totfact>
</mgrwt>
</event>
<event>
12    1  0.1444206E-007  0.6684142E+03  0.7818608E-02  0.9772827E-01
          2   -1    0    0  501    0  0.00000000000E+00  0.00000000000E+00  0.63389077469E+03  0.63389077469E+03  0.00000000000E+00 0. -1.
         -2   -1    0    0    0  501 -0.00000000000E+00 -0.00000000000E+00 -0.92531984561E+03  0.92531984561E+03  0.00000000000E+00 0.  1.
         23    2    1    2    0    0  0.46228543258E+03  0.28690941796E+03 -0.47629218789E+03  0.72846611328E+03  0.88225816306E+02 0.  0.
    5000000    2    1    2    0    0 -0.46228543258E+03 -0.28690941796E+03  0.18486311697E+03  0.83074450701E+03  0.59994768824E+03 0.  0.
         23    2    4    4    0    0 -0.57389228340E+03 -0.30237795101E+03  0.10300189132E+03  0.66291144640E+03  0.89763121343E+02 0.  0.
         23    2    4    4    0    0  0.11160685082E+03  0.15468533047E+02  0.81861225643E+02  0.16783306062E+03  0.93655279122E+02 0.  0.
          3    1    3    3  502    0  0.25113985635E+03  0.11164089289E+03 -0.26886950520E+03  0.38448111428E+03  0.00000000000E+00 0. -1.
         -3    1    3    3    0  502  0.21114557623E+03  0.17526852507E+03 -0.20742268269E+03  0.34398499900E+03  0.00000000000E+00 0.  1.
         11    1    5    5    0    0 -0.81584327827E+02 -0.67514859185E+02 -0.82581297242E+01  0.10621890352E+03  0.00000000000E+00 0. -1.
        -11    1    5    5    0    0 -0.49230795557E+03 -0.23486309183E+03  0.11126002105E+03  0.55669254288E+03  0.00000000000E+00 0.  1.
          2    1    6    6  503    0  0.35938813445E+02 -0.30969077155E+02  0.55139831233E+00  0.47444558084E+02  0.00000000000E+00 0. -1.
         -2    1    6    6    0  503  0.75668037373E+02  0.46437610202E+02  0.81309827331E+02  0.12038850253E+03  0.00000000000E+00 0.  1.
<mgrwt>
<rscale>  0 0.66841421E+03</rscale>
<asrwt>0</asrwt>
<pdfrwt beam="1">  1        2 0.97521658E-01 0.66841421E+03</pdfrwt>
<pdfrwt beam="2">  1       -2 0.14235690E+00 0.66841421E+03</pdfrwt>
<totfact> 0.16309064E+01</totfact>
</mgrwt>
</event>
<event>
12    1  0.1444206E-007  0.8141350E+03  0.7818608E-02  0.9539780E-01
         -2   -1    0    0    0  501 -0.00000000000E+00  0.00000000000E+00  0.74120594489E+03  0.74120594489E+03  0.00000000000E+00 0. -1.
          2   -1    0    0  501    0  0.00000000000E+00 -0.00000000000E+00 -0.16866470722E+04  0.16866470722E+04  0.00000000000E+00 0.  1.
         23    2    1    2    0    0 -0.14484891789E+03  0.70762810091E+03 -0.12451123775E+04  0.14423449739E+04  0.91298702864E+02 0.  0.
    5000000    2    1    2    0    0  0.14484891789E+03 -0.70762810091E+03  0.29967125015E+03  0.98550804315E+03  0.59975370506E+03 0.  0.
         23    2    4    4    0    0  0.92223167971E+02 -0.77735452110E+03  0.33276628675E+03  0.85539406472E+03  0.90445785821E+02 0.  0.
         23    2    4    4    0    0  0.52625749918E+02  0.69726420190E+02 -0.33095036601E+02  0.13011397843E+03  0.90571092016E+02 0.  0.
          3    1    3    3  502    0 -0.11495697041E+03  0.56813079162E+03 -0.10655616566E+04  0.12130166303E+04  0.00000000000E+00 0. -1.
         -3    1    3    3    0  502 -0.29891947481E+02  0.13949730929E+03 -0.17955072083E+03  0.22932834359E+03  0.00000000000E+00 0.  1.
         13    1    5    5    0    0  0.27074516699E+02 -0.16673136011E+03  0.11271619219E+03  0.20306973158E+03  0.00000000000E+00 0. -1.
        -13    1    5    5    0    0  0.65148651271E+02 -0.61062316099E+03  0.22005009456E+03  0.65232433314E+03  0.00000000000E+00 0.  1.
          4    1    6    6  503    0 -0.16829260988E+02  0.46931057554E+02 -0.27155487975E+02  0.56772957609E+02  0.00000000000E+00 0. -1.
         -4    1    6    6    0  503  0.69455010905E+02  0.22795362637E+02 -0.59395486266E+01  0.73341020824E+02  0.00000000000E+00 0.  1.
<mgrwt>
<rscale>  0 0.81413497E+03</rscale>
<asrwt>0</asrwt>
<pdfrwt beam="1">  1        2 0.25948416E+00 0.81413497E+03</pdfrwt>
<pdfrwt beam="2">  1       -2 0.11403168E+00 0.81413497E+03</pdfrwt>
<totfact> 0.61210633E+00</totfact>
</mgrwt>
</event>
<event>
12    1  0.1444206E-007  0.6853785E+03  0.7818608E-02  0.9742569E-01
          2   -1    0    0  501    0  0.00000000000E+00  0.00000000000E+00  0.39228750827E+03  0.39228750827E+03  0.00000000000E+00 0. -1.
         -2   -1    0    0    0  501 -0.00000000000E+00 -0.00000000000E+00 -0.12941103162E+04  0.12941103162E+04  0.00000000000E+00 0.  1.
         23    2    1    2    0    0  0.28289383522E+03  0.49952423433E+03 -0.48947463843E+03  0.75923357152E+03  0.85421377708E+02 0.  0.
    5000000    2    1    2    0    0 -0.28289383522E+03 -0.49952423433E+03 -0.41234816948E+03  0.92716425293E+03  0.60004096222E+03 0.  0.
         23    2    4    4    0    0 -0.30523926029E+03 -0.23728021091E+02 -0.52629629170E+02  0.32319252698E+03  0.89160005726E+02 0.  0.
         23    2    4    4    0    0  0.22345425074E+02 -0.47579621324E+03 -0.35971854031E+03  0.60397172595E+03  0.92212054206E+02 0.  0.
          2    1    3    3  502    0  0.14455804889E+03  0.19510366900E+03 -0.24557893046E+03  0.34535703589E+03  0.00000000000E+00 0. -1.
         -2    1    3    3    0  502  0.13833578633E+03  0.30442056534E+03 -0.24389570797E+03  0.41387653563E+03  0.00000000000E+00 0.  1.
         13    1    5    5    0    0 -0.12656455319E+02  0.17393441550E+02 -0.12880270068E+02  0.25072276067E+02  0.00000000000E+00 0. -1.
        -13    1    5    5    0    0 -0.29258280497E+03 -0.41121462640E+02 -0.39749359102E+02  0.29812025091E+03  0.00000000000E+00 0.  1.
          3    1    6    6  503    0  0.80643376931E+01 -0.32893005520E+03 -0.29837178344E+03  0.44416858952E+03  0.00000000000E+00 0. -1.
         -3    1    6    6    0  503  0.14281087381E+02 -0.14686615804E+03 -0.61346756867E+02  0.15980313643E+03  0.00000000000E+00 0.  1.
<mgrwt>
<rscale>  0 0.68537848E+03</rscale>
<asrwt>0</asrwt>
<pdfrwt beam="1">  1        2 0.60351925E-01 0.68537848E+03</pdfrwt>
<pdfrwt beam="2">  1       -2 0.19909389E+00 0.68537848E+03</pdfrwt>
<totfact> 0.11237563E+01</totfact>
</mgrwt>
</event>
<event>
12    1  0.1444206E-007  0.7835756E+03  0.7818608E-02  0.9584100E-01
          2   -1    0    0  501    0  0.00000000000E+00  0.00000000000E+00  0.17519876896E+04  0.17519876896E+04  0.00000000000E+00 0. -1.
         -2   -1    0    0    0  501 -0.00000000000E+00 -0.00000000000E+00 -0.35977831845E+03  0.35977831845E+03  0.00000000000E+00 0.  1.
         23    2    1    2    0    0  0.54209603613E+03  0.40090104821E+03  0.51869453815E+03  0.85576743196E+03  0.93295824352E+02 0.  0.
    5000000    2    1    2    0    0 -0.54209603613E+03 -0.40090104821E+03  0.87351483295E+03  0.12559985760E+04  0.59992874309E+03 0.  0.
         23    2    4    4    0    0 -0.25014892960E+03 -0.51286748039E+03  0.54855378219E+03  0.79647075333E+03  0.88582557713E+02 0.  0.
         23    2    4    4    0    0 -0.29194710653E+03  0.11196643218E+03  0.32496105076E+03  0.45952782272E+03  0.88298020299E+02 0.  0.
          3    1    3    3  502    0  0.17711234033E+03  0.98028367927E+02  0.19852282789E+03  0.28353069535E+03  0.00000000000E+00 0. -1.
         -3    1    3    3    0  502  0.36498369580E+03  0.30287268028E+03  0.32017171027E+03  0.57223673660E+03  0.00000000000E+00 0.  1.
         13    1    5    5    0    0 -0.14060381330E+03 -0.24205722479E+03  0.21422923839E+03  0.35249865102E+03  0.00000000000E+00 0. -1.
        -13    1    5    5    0    0 -0.10954511630E+03 -0.27081025560E+03  0.33432454380E+03  0.44397210231E+03  0.00000000000E+00 0.  1.
          1    1    6    6  503    0 -0.22041113325E+03  0.11112039904E+03  0.20978821869E+03  0.32394429683E+03  0.00000000000E+00 0. -1.
         -1    1    6    6    0  503 -0.71535973286E+02  0.84603313676E+00  0.11517283207E+03  0.13558352589E+03  0.00000000000E+00 0.  1.
<mgrwt>
<rscale>  0 0.78357557E+03</rscale>
<asrwt>0</asrwt>
<pdfrwt beam="1">  1        2 0.26953656E+00 0.78357557E+03</pdfrwt>
<pdfrwt beam="2">  1       -2 0.55350512E-01 0.78357557E+03</pdfrwt>
<totfact> 0.28817733E+01</totfact>
</mgrwt>
</event>
<event>
12    1  0.1444206E-007  0.1084688E+04  0.7818608E-02  0.9220246E-01
         -2   -1    0    0    0  501 -0.00000000000E+00  0.00000000000E+00  0.58513578038E+03  0.58513578038E+03  0.00000000000E+00 0.  1.
          2   -1    0    0  501    0  0.00000000000E+00 -0.00000000000E+00 -0.21062221801E+04  0.21062221801E+04  0.00000000000E+00 0. -1.
         23    2    1    2    0    0  0.73706953970E+03  0.68227410103E+03 -0.96578797277E+03  0.13963322579E+04  0.90707831949E+02 0.  0.
    5000000    2    1    2    0    0 -0.73706953970E+03 -0.68227410103E+03 -0.55529842695E+03  0.12950257026E+04  0.59997147610E+03 0.  0.
         23    2    4    4    0    0 -0.82045419948E+03 -0.57556622592E+03 -0.45365744328E+03  0.11036129932E+04  0.87948786627E+02 0.  0.
         23    2    4    4    0    0  0.83384659785E+02 -0.10670787511E+03 -0.10164098367E+03  0.19141270939E+03  0.89265691378E+02 0.  0.
          3    1    3    3  502    0  0.38308609170E+03  0.33078992609E+03 -0.54432068993E+03  0.74327783658E+03  0.00000000000E+00 0. -1.
         -3    1    3    3    0  502  0.35398344799E+03  0.35148417494E+03 -0.42146728284E+03  0.65305442131E+03  0.00000000000E+00 0.  1.
         13    1    5    5    0    0 -0.24175690600E+01 -0.22052534235E+01 -0.10075341113E+02  0.10593407448E+02  0.00000000000E+00 0. -1.
        -13    1    5    5    0    0 -0.81803663042E+03 -0.57336097250E+03 -0.44358210217E+03  0.10930195858E+04  0.00000000000E+00 0.  1.
          3    1    6    6  503    0 -0.74880439306E+01  0.11090467390E+02 -0.72448587192E+01  0.15217005182E+02  0.00000000000E+00 0. -1.
         -3    1    6    6    0  503  0.90872703716E+02 -0.11779834250E+03 -0.94396124953E+02  0.17619570421E+03  0.00000000000E+00 0.  1.
<mgrwt>
<rscale>  0 0.10846880E+04</rscale>
<asrwt>0</asrwt>
<pdfrwt beam="1">  1        2 0.32403418E+00 0.10846880E+04</pdfrwt>
<pdfrwt beam="2">  1       -2 0.90020889E-01 0.10846880E+04</pdfrwt>
<totfact> 0.61137250E+00</totfact>
</mgrwt>
</event>
<event>
12    1  0.1444206E-007  0.5356786E+03  0.7818608E-02  0.1004864E+00
          1   -1    0    0  501    0  0.00000000000E+00  0.00000000000E+00  0.11840280108E+04  0.11840280108E+04  0.00000000000E+00 0. -1.
         -1   -1    0    0    0  501 -0.00000000000E+00 -0.00000000000E+00 -0.32523797762E+03  0.32523797762E+03  0.00000000000E+00 0.  1.
         23    2    1    2    0    0 -0.42445100557E+03  0.31300563772E+02  0.57305776947E+03  0.72011117643E+03  0.95007988347E+02 0.  0.
    5000000    2    1    2    0    0  0.42445100557E+03 -0.31300563772E+02  0.28573226372E+03  0.78915481199E+03  0.59998667431E+03 0.  0.
         23    2    4    4    0    0  0.21588974898E+03 -0.24058665352E+03 -0.42227462623E+02  0.33839748657E+03  0.90771023764E+02 0.  0.
         23    2    4    4    0    0  0.20856125659E+03  0.20928608975E+03  0.32795972634E+03  0.45075732542E+03  0.91247570980E+02 0.  0.
          3    1    3    3  502    0 -0.10071629955E+03 -0.33039274549E+02  0.14192677932E+03  0.17713999364E+03  0.00000000000E+00 0. -1.
         -3    1    3    3    0  502 -0.32373470601E+03  0.64339838321E+02  0.43113099016E+03  0.54297118280E+03  0.00000000000E+00 0.  1.
         11    1    5    5    0    0  0.11517950747E+03 -0.77472976820E+02  0.11571602117E+02  0.13929207821E+03  0.00000000000E+00 0. -1.
        -11    1    5    5    0    0  0.10071024151E+03 -0.16311367670E+03 -0.53799064739E+02  0.19910540836E+03  0.00000000000E+00 0.  1.
          3    1    6    6  503    0  0.20217289937E+03  0.16759464108E+03  0.25247249534E+03  0.36428588480E+03  0.00000000000E+00 0. -1.
         -3    1    6    6    0  503  0.63883572174E+01  0.41691448670E+02  0.75487230998E+02  0.86471440625E+02  0.00000000000E+00 0.  1.
<mgrwt>
<rscale>  0 0.53567858E+03</rscale>
<asrwt>0</asrwt>
<pdfrwt beam="1">  1        1 0.18215815E+00 0.53567858E+03</pdfrwt>
<pdfrwt beam="2">  1       -1 0.50036613E-01 0.53567858E+03</pdfrwt>
<totfact> 0.46368131E+01</totfact>
</mgrwt>
</event>
<event>
12    1  0.1444206E-007  0.7505977E+03  0.7818608E-02  0.9634413E-01
          2   -1    0    0  501    0  0.00000000000E+00  0.00000000000E+00  0.99286862950E+03  0.99286862950E+03  0.00000000000E+00 0. -1.
         -2   -1    0    0    0  501 -0.00000000000E+00 -0.00000000000E+00 -0.60887501889E+03  0.60887501889E+03  0.00000000000E+00 0.  1.
         23    2    1    2    0    0 -0.48505752715E+03  0.43109128908E+03  0.27725140524E+03  0.71150245335E+03  0.90812417902E+02 0.  0.
    5000000    2    1    2    0    0  0.48505752715E+03 -0.43109128908E+03  0.10674220537E+03  0.89024119505E+03  0.60001248553E+03 0.  0.
         23    2    4    4    0    0  0.12144843040E+03  0.12928636447E+03  0.82836227635E+02  0.21569737393E+03  0.90547397694E+02 0.  0.
         23    2    4    4    0    0  0.36360909675E+03 -0.56037765355E+03  0.23905977732E+02  0.67454382112E+03  0.90571413809E+02 0.  0.
          1    1    3    3  502    0 -0.24632786805E+03  0.27186983879E+03  0.17889124367E+03  0.40815769609E+03  0.00000000000E+00 0. -1.
         -1    1    3    3    0  502 -0.23872965910E+03  0.15922145029E+03  0.98360161576E+02  0.30334475725E+03  0.00000000000E+00 0.  1.
         11    1    5    5    0    0  0.32939842141E+02  0.44168569036E+02  0.74442220048E+02  0.92615008592E+02  0.00000000000E+00 0. -1.
        -11    1    5    5    0    0  0.88508588256E+02  0.85117795431E+02  0.83940075872E+01  0.12308236534E+03  0.00000000000E+00 0.  1.
          1    1    6    6  503    0  0.58590295032E+02 -0.12307506673E+03  0.36899678419E+02  0.14121572501E+03  0.00000000000E+00 0. -1.
         -1    1    6    6    0  503  0.30501880172E+03 -0.43730258681E+03 -0.12993700686E+02  0.53332809610E+03  0.00000000000E+00 0.  1.
<mgrwt>
<rscale>  0 0.75059766E+03</rscale>
<asrwt>0</asrwt>
<pdfrwt beam="1">  1        2 0.15274902E+00 0.75059766E+03</pdfrwt>
<pdfrwt beam="2">  1       -2 0.93673080E-01 0.75059766E+03</pdfrwt>
<totfact> 0.24914530E+01</totfact>
</mgrwt>
</event>
<event>
12    1  0.1444206E-007  0.9702063E+03  0.7818608E-02  0.9341839E-01
         -2   -1    0    0    0  501 -0.00000000000E+00  0.00000000000E+00  0.46668870295E+03  0.46668870295E+03  0.00000000000E+00 0.  1.
          2   -1    0    0  501    0  0.00000000000E+00 -0.00000000000E+00 -0.21820544915E+04  0.21820544915E+04  0.00000000000E+00 0. -1.
         23    2    1    2    0    0 -0.68432439457E+03 -0.55767908460E+03 -0.11112724743E+04  0.14221457798E+04  0.90919021172E+02 0.  0.
    5000000    2    1    2    0    0  0.68432439457E+03  0.55767908460E+03 -0.60409331427E+03  0.12265974147E+04  0.60025548476E+03 0.  0.
         23    2    4    4    0    0  0.44391201795E+03  0.44213885557E+01 -0.31979151854E+03  0.55471186100E+03  0.91439625149E+02 0.  0.
         23    2    4    4    0    0  0.24041237662E+03  0.55325769605E+03 -0.28430179573E+03  0.67188555370E+03  0.81917624129E+02 0.  0.
          4    1    3    3  502    0 -0.51514529258E+03 -0.46730274010E+03 -0.88090722580E+03  0.11223832072E+04  0.00000000000E+00 0. -1.
         -4    1    3    3    0  502 -0.16917910199E+03 -0.90376344503E+02 -0.23036524851E+03  0.29976257258E+03  0.00000000000E+00 0.  1.
         13    1    5    5    0    0  0.27935404718E+03  0.30453250471E+02 -0.15754652596E+03  0.32215988574E+03  0.00000000000E+00 0. -1.
        -13    1    5    5    0    0  0.16455797077E+03 -0.26031861916E+02 -0.16224499258E+03  0.23255197526E+03  0.00000000000E+00 0.  1.
          2    1    6    6  503    0  0.10330706486E+03  0.30291032162E+03 -0.11533015500E+03  0.34018826735E+03  0.00000000000E+00 0. -1.
         -2    1    6    6    0  503  0.13710531176E+03  0.25034737443E+03 -0.16897164073E+03  0.33169728634E+03  0.00000000000E+00 0.  1.
<mgrwt>
<rscale>  0 0.97020631E+03</rscale>
<asrwt>0</asrwt>
<pdfrwt beam="1">  1        2 0.33570070E+00 0.97020631E+03</pdfrwt>
<pdfrwt beam="2">  1       -2 0.71798261E-01 0.97020631E+03</pdfrwt>
<totfact> 0.93770937E+00</totfact>
</mgrwt>
</event>
<event>
12    1  0.1444206E-007  0.9333130E+03  0.7818608E-02  0.9384871E-01
         -4   -1    0    0    0  501 -0.00000000000E+00  0.00000000000E+00  0.11207479906E+04  0.11207479906E+04  0.00000000000E+00 0.  1.
          4   -1    0    0  501    0  0.00000000000E+00 -0.00000000000E+00 -0.22649689424E+04  0.22649689424E+04  0.00000000000E+00 0. -1.
         23    2    1    2    0    0  0.68486301535E+03 -0.51368016302E+03  0.80206460482E+03  0.11766809581E+04  0.91464677342E+02 0.  0.
    5000000    2    1    2    0    0 -0.68486301535E+03  0.51368016302E+03 -0.19462855566E+04  0.22090359749E+04  0.59908915123E+03 0.  0.
         23    2    4    4    0    0  0.40561152333E+02  0.20097637613E+03 -0.24890740758E+03  0.33463883949E+03  0.89395438950E+02 0.  0.
         23    2    4    4    0    0 -0.72542416768E+03  0.31270378689E+03 -0.16973781490E+04  0.18743971354E+04  0.90819377135E+02 0.  0.
          3    1    3    3  502    0  0.33812574508E+03 -0.22009227269E+03  0.32692096506E+03  0.51927540417E+03  0.00000000000E+00 0. -1.
         -3    1    3    3    0  502  0.34673727027E+03 -0.29358789033E+03  0.47514363977E+03  0.65740555394E+03  0.00000000000E+00 0.  1.
         11    1    5    5    0    0  0.61232802729E+02  0.12008902705E+03 -0.18783396724E+03  0.23119781530E+03  0.00000000000E+00 0. -1.
        -11    1    5    5    0    0 -0.20671650397E+02  0.80887349079E+02 -0.61073440338E+02  0.10344102419E+03  0.00000000000E+00 0.  1.
          1    1    6    6  503    0 -0.38571957017E+03  0.14944607474E+03 -0.98823329711E+03  0.10713163704E+04  0.00000000000E+00 0. -1.
         -1    1    6    6    0  503 -0.33970459751E+03  0.16325771215E+03 -0.70914485189E+03  0.80308076499E+03  0.00000000000E+00 0.  1.
<mgrwt>
<rscale>  0 0.93331296E+03</rscale>
<asrwt>0</asrwt>
<pdfrwt beam="1">  1        4 0.34845676E+00 0.93331296E+03</pdfrwt>
<pdfrwt beam="2">  1       -4 0.17242277E+00 0.93331296E+03</pdfrwt>
<totfact> 0.60512221E-03</totfact>
</mgrwt>
</event>
<event>
12    1  0.1444206E-007  0.4503068E+03  0.7818608E-02  0.1027631E+00
          3   -1    0    0  501    0  0.00000000000E+00  0.00000000000E+00  0.10782709671E+04  0.10782709671E+04  0.00000000000E+00 0. -1.
         -3   -1    0    0    0  501 -0.00000000000E+00 -0.00000000000E+00 -0.30440651761E+03  0.30440651761E+03  0.00000000000E+00 0.  1.
         23    2    1    2    0    0 -0.65876423062E+02  0.37315430794E+03  0.95799482033E+02  0.40117035548E+03  0.90422744439E+02 0.  0.
    5000000    2    1    2    0    0  0.65876423062E+02 -0.37315430794E+03  0.67806496748E+03  0.98150712924E+03  0.60000025332E+03 0.  0.
         23    2    4    4    0    0 -0.25576588683E+02 -0.41053291824E+03  0.16462580178E+03  0.45095543470E+03  0.84069677213E+02 0.  0.
         23    2    4    4    0    0  0.91453011745E+02  0.37378610305E+02  0.51343916570E+03  0.53055169454E+03  0.90025051177E+02 0.  0.
          1    1    3    3  502    0 -0.26569329610E+02  0.13957524478E+03  0.81680091970E+02  0.16388659388E+03  0.00000000000E+00 0. -1.
         -1    1    3    3    0  502 -0.39307093452E+02  0.23357906316E+03  0.14119390063E+02  0.23728376160E+03  0.00000000000E+00 0.  1.
         11    1    5    5    0    0 -0.51290926633E+02 -0.16332134513E+03  0.62288089779E+02  0.18216593276E+03  0.00000000000E+00 0. -1.
        -11    1    5    5    0    0  0.25714337951E+02 -0.24721157311E+03  0.10233771200E+03  0.26878950194E+03  0.00000000000E+00 0.  1.
          2    1    6    6  503    0  0.64030569385E+02  0.13197862896E+02  0.13138227252E+03  0.14674944270E+03  0.00000000000E+00 0. -1.
         -2    1    6    6    0  503  0.27422442361E+02  0.24180747409E+02  0.38205689318E+03  0.38380225184E+03  0.00000000000E+00 0.  1.
<mgrwt>
<rscale>  0 0.45030682E+03</rscale>
<asrwt>0</asrwt>
<pdfrwt beam="1">  1        3 0.16588784E+00 0.45030682E+03</pdfrwt>
<pdfrwt beam="2">  1       -3 0.46831772E-01 0.45030682E+03</pdfrwt>
<totfact> 0.29631890E+00</totfact>
</mgrwt>
</event>
<event>
12    1  0.1444206E-007  0.6456737E+03  0.7818608E-02  0.9814931E-01
         -2   -1    0    0    0  501 -0.00000000000E+00  0.00000000000E+00  0.30608676553E+03  0.30608676553E+03  0.00000000000E+00 0.  1.
          2   -1    0    0  501    0  0.00000000000E+00 -0.00000000000E+00 -0.22749821366E+04  0.22749821366E+04  0.00000000000E+00 0. -1.
         23    2    1    2    0    0 -0.49434880199E+03 -0.18070496211E+03 -0.93796290505E+02  0.54313570999E+03  0.95726871859E+02 0.  0.
    5000000    2    1    2    0    0  0.49434880199E+03  0.18070496211E+03 -0.18750990806E+04  0.20379331922E+04  0.60011674893E+03 0.  0.
         23    2    4    4    0    0 -0.57823569815E+02  0.19577678910E+03 -0.37615283181E+03  0.43778692079E+03  0.92164628557E+02 0.  0.
         23    2    4    4    0    0  0.55217237180E+03 -0.15071826992E+02 -0.14989462488E+04  0.16001462714E+04  0.92232016844E+02 0.  0.
          3    1    3    3  502    0 -0.19518108367E+03 -0.46056688214E+02  0.47004500985E+01  0.20059653084E+03  0.00000000000E+00 0. -1.
         -3    1    3    3    0  502 -0.29916771831E+03 -0.13464827389E+03 -0.98496740603E+02  0.34253917915E+03  0.00000000000E+00 0.  1.
         11    1    5    5    0    0 -0.44743008277E+02  0.19088810838E+03 -0.28717949754E+03  0.34772441749E+03  0.00000000000E+00 0. -1.
        -11    1    5    5    0    0 -0.13080561537E+02  0.48886807192E+01 -0.88973334266E+02  0.90062503294E+02  0.00000000000E+00 0.  1.
          3    1    6    6  503    0  0.20798304235E+03  0.35712945627E+01 -0.44392976797E+03  0.49024824216E+03  0.00000000000E+00 0. -1.
         -3    1    6    6    0  503  0.34418932945E+03 -0.18643121555E+02 -0.10550164808E+04  0.11098980292E+04  0.00000000000E+00 0.  1.
<mgrwt>
<rscale>  0 0.64567369E+03</rscale>
<asrwt>0</asrwt>
<pdfrwt beam="1">  1        2 0.34999727E+00 0.64567369E+03</pdfrwt>
<pdfrwt beam="2">  1       -2 0.47090269E-01 0.64567369E+03</pdfrwt>
<totfact> 0.21170373E+01</totfact>
</mgrwt>
</event>
<event>
12    1  0.1444206E-007  0.5783956E+03  0.7818608E-02  0.9951271E-01
         -2   -1    0    0    0  501 -0.00000000000E+00  0.00000000000E+00  0.26361627611E+03  0.26361627611E+03  0.00000000000E+00 0.  1.
          2   -1    0    0  501    0  0.00000000000E+00 -0.00000000000E+00 -0.20765744291E+04  0.20765744291E+04  0.00000000000E+00 0. -1.
         23    2    1    2    0    0  0.47597394886E+03  0.12891427273E+03 -0.13401702644E+04  0.14310285417E+04  0.92823810718E+02 0.  0.
    5000000    2    1    2    0    0 -0.47597394886E+03 -0.12891427273E+03 -0.47278788858E+03  0.90916216351E+03  0.59989779319E+03 0.  0.
         23    2    4    4    0    0 -0.46723112846E+03 -0.24608564129E+03 -0.15287754772E+03  0.55748831215E+03  0.92512719884E+02 0.  0.
         23    2    4    4    0    0 -0.87428204040E+01  0.11717136856E+03 -0.31991034085E+03  0.35167385136E+03  0.86754279591E+02 0.  0.
          4    1    3    3  502    0  0.24284699636E+03  0.11351851980E+03 -0.70338290705E+03  0.75273410438E+03  0.00000000000E+00 0. -1.
         -4    1    3    3    0  502  0.23312695251E+03  0.15395752926E+02 -0.63678735734E+03  0.67829443729E+03  0.00000000000E+00 0.  1.
         11    1    5    5    0    0 -0.22775152092E+03 -0.15866202142E+03 -0.11191054502E+03  0.29927973939E+03  0.00000000000E+00 0. -1.
        -11    1    5    5    0    0 -0.23947960754E+03 -0.87423619866E+02 -0.40967002701E+02  0.25820857276E+03  0.00000000000E+00 0.  1.
          1    1    6    6  503    0  0.13591988757E+02  0.48482681948E+02 -0.23437072651E+03  0.23971848083E+03  0.00000000000E+00 0. -1.
         -1    1    6    6    0  503 -0.22334809161E+02  0.68688686609E+02 -0.85539614345E+02  0.11195537053E+03  0.00000000000E+00 0.  1.
<mgrwt>
<rscale>  0 0.57839563E+03</rscale>
<asrwt>0</asrwt>
<pdfrwt beam="1">  1        2 0.31947300E+00 0.57839563E+03</pdfrwt>
<pdfrwt beam="2">  1       -2 0.40556348E-01 0.57839563E+03</pdfrwt>
<totfact> 0.36932798E+01</totfact>
</mgrwt>
</event>
<event>
12    1  0.1444206E-007  0.2113167E+04  0.7818608E-02  0.8555465E-01
         -2   -1    0    0    0  501 -0.00000000000E+00  0.00000000000E+00  0.19597469066E+04  0.19597469066E+04  0.00000000000E+00 0.  1.
          2   -1    0    0  501    0  0.00000000000E+00 -0.00000000000E+00 -0.27973322719E+04  0.27973322719E+04  0.00000000000E+00 0. -1.
         23    2    1    2    0    0  0.20397945118E+04  0.49988753856E+03 -0.13701226758E+04  0.25089274896E+04  0.82654703516E+02 0.  0.
    5000000    2    1    2    0    0 -0.20397945118E+04 -0.49988753856E+03  0.53253731050E+03  0.22481516889E+04  0.59995068773E+03 0.  0.
         23    2    4    4    0    0 -0.10095139436E+04 -0.38607068801E+03  0.10936874499E+02  0.10843104946E+04  0.86259232510E+02 0.  0.
         23    2    4    4    0    0 -0.10302805682E+04 -0.11381685055E+03  0.52160043600E+03  0.11638411943E+04  0.89593447699E+02 0.  0.
          4    1    3    3  502    0  0.15915615957E+04  0.35468160569E+03 -0.10595931048E+04  0.19446349020E+04  0.00000000000E+00 0. -1.
         -4    1    3    3    0  502  0.44823291605E+03  0.14520593287E+03 -0.31052957100E+03  0.56429258761E+03  0.00000000000E+00 0.  1.
         13    1    5    5    0    0 -0.98347571040E+03 -0.35968773543E+03  0.10359967410E+02  0.10472378282E+04  0.00000000000E+00 0.  1.
        -13    1    5    5    0    0 -0.26038233158E+02 -0.26382952578E+02  0.57690708856E+00  0.37072666407E+02  0.00000000000E+00 0. -1.
          1    1    6    6  503    0 -0.16598610951E+02 -0.14021555603E+02  0.13280186815E+02  0.25465295382E+02  0.00000000000E+00 0. -1.
         -1    1    6    6    0  503 -0.10136819573E+04 -0.99795294944E+02  0.50832024918E+03  0.11383758989E+04  0.00000000000E+00 0.  1.
<mgrwt>
<rscale>  0 0.21131675E+04</rscale>
<asrwt>0</asrwt>
<pdfrwt beam="1">  1        2 0.43035881E+00 0.21131675E+04</pdfrwt>
<pdfrwt beam="2">  1       -2 0.30149952E+00 0.21131675E+04</pdfrwt>
<totfact> 0.63203847E-02</totfact>
</mgrwt>
</event>
<event>
12    1  0.1444206E-007  0.4457329E+03  0.7818608E-02  0.1029002E+00
         -2   -1    0    0    0  501 -0.00000000000E+00  0.00000000000E+00  0.17288640648E+03  0.17288640648E+03  0.00000000000E+00 0.  1.
          2   -1    0    0  501    0  0.00000000000E+00 -0.00000000000E+00 -0.16115125896E+04  0.16115125896E+04  0.00000000000E+00 0. -1.
         23    2    1    2    0    0 -0.24416570612E+03  0.22505086241E+03 -0.67876745761E+03  0.76074942764E+03  0.88032081830E+02 0.  0.
    5000000    2    1    2    0    0  0.24416570612E+03 -0.22505086241E+03 -0.75985872547E+03  0.10236495684E+04  0.60017361948E+03 0.  0.
         23    2    4    4    0    0 -0.12797301341E+03 -0.81764558792E+02 -0.51725763967E+03  0.54717160855E+03  0.93695080838E+02 0.  0.
         23    2    4    4    0    0  0.37213871953E+03 -0.14328630361E+03 -0.24260108581E+03  0.47647795986E+03  0.95696227835E+02 0.  0.
          1    1    3    3  502    0 -0.10293652040E+03  0.10963232727E+03 -0.40277755745E+03  0.42993596639E+03  0.00000000000E+00 0. -1.
         -1    1    3    3    0  502 -0.14122918572E+03  0.11541853513E+03 -0.27598990017E+03  0.33081346125E+03  0.00000000000E+00 0.  1.
         13    1    5    5    0    0 -0.97302747073E+02 -0.35962765607E+02 -0.20146100224E+03  0.22660026594E+03  0.00000000000E+00 0.  1.
        -13    1    5    5    0    0 -0.30670266338E+02 -0.45801793184E+02 -0.31579663742E+03  0.32057134261E+03  0.00000000000E+00 0. -1.
          4    1    6    6  503    0  0.33447040030E+03 -0.13788738679E+03 -0.24717042779E+03  0.43815134427E+03  0.00000000000E+00 0. -1.
         -4    1    6    6    0  503  0.37668319232E+02 -0.53989168240E+01  0.45693419813E+01  0.38326615592E+02  0.00000000000E+00 0.  1.
<mgrwt>
<rscale>  0 0.44573289E+03</rscale>
<asrwt>0</asrwt>
<pdfrwt beam="1">  1        2 0.24792501E+00 0.44573289E+03</pdfrwt>
<pdfrwt beam="2">  1       -2 0.26597909E-01 0.44573289E+03</pdfrwt>
<totfact> 0.14808157E+02</totfact>
</mgrwt>
</event>
<event>
12    1  0.1444206E-007  0.1648553E+04  0.7818608E-02  0.8791263E-01
         -1   -1    0    0    0  501 -0.00000000000E+00  0.00000000000E+00  0.72447211195E+03  0.72447211195E+03  0.00000000000E+00 0.  1.
          1   -1    0    0  501    0  0.00000000000E+00 -0.00000000000E+00 -0.45220147954E+04  0.45220147954E+04  0.00000000000E+00 0. -1.
         23    2    1    2    0    0 -0.10353126919E+04  0.12250240579E+04 -0.28946141163E+04  0.33105427414E+04  0.91356706739E+02 0.  0.
    5000000    2    1    2    0    0  0.10353126919E+04 -0.12250240579E+04 -0.90292856714E+03  0.19359441659E+04  0.60003625213E+03 0.  0.
         23    2    4    4    0    0  0.44572738196E+02  0.32259302937E+02 -0.29900253719E+02  0.11023628452E+03  0.90722773525E+02 0.  0.
         23    2    4    4    0    0  0.99073995369E+03 -0.12572833608E+04 -0.87302831342E+03  0.18257078814E+04  0.93293767080E+02 0.  0.
          1    1    3    3  502    0 -0.30782258275E+03  0.41177131679E+03 -0.98881288130E+03  0.11144780276E+04  0.00000000000E+00 0. -1.
         -1    1    3    3    0  502 -0.72749010914E+03  0.81325274112E+03 -0.19058012350E+04  0.21960647138E+04  0.00000000000E+00 0.  1.
         11    1    5    5    0    0 -0.16878033599E+02  0.23564261594E+02 -0.37842184431E+02  0.47667319676E+02  0.00000000000E+00 0. -1.
        -11    1    5    5    0    0  0.61450771796E+02  0.86950413432E+01  0.79419307113E+01  0.62568964844E+02  0.00000000000E+00 0.  1.
          4    1    6    6  503    0  0.69287666529E+03 -0.88970819620E+03 -0.56648998522E+03  0.12619705429E+04  0.00000000000E+00 0. -1.
         -4    1    6    6    0  503  0.29786328840E+03 -0.36757516464E+03 -0.30653832820E+03  0.56373733856E+03  0.00000000000E+00 0.  1.
<mgrwt>
<rscale>  0 0.16485525E+04</rscale>
<asrwt>0</asrwt>
<pdfrwt beam="1">  1        1 0.69569458E+00 0.16485525E+04</pdfrwt>
<pdfrwt beam="2">  1       -1 0.11145725E+00 0.16485525E+04</pdfrwt>
<totfact> 0.21628056E-02</totfact>
</mgrwt>
</event>
<event>
12    1  0.1444206E-007  0.1095860E+04  0.7818608E-02  0.9209237E-01
         -2   -1    0    0    0  501 -0.00000000000E+00  0.00000000000E+00  0.10240509232E+04  0.10240509232E+04  0.00000000000E+00 0.  1.
          2   -1    0    0  501    0  0.00000000000E+00 -0.00000000000E+00 -0.12291864354E+04  0.12291864354E+04  0.00000000000E+00 0. -1.
         23    2    1    2    0    0  0.19994377427E+03 -0.10198617306E+04 -0.93292960343E+02  0.10479598913E+04  0.97061295365E+02 0.  0.
    5000000    2    1    2    0    0 -0.19994377427E+03  0.10198617306E+04 -0.11184255184E+03  0.12052774673E+04  0.60007462400E+03 0.  0.
         23    2    4    4    0    0  0.25264814581E+01  0.90887268739E+03 -0.20947922604E+03  0.93721683538E+03  0.91858071982E+02 0.  0.
         23    2    4    4    0    0 -0.20247025573E+03  0.11098904319E+03  0.97636674196E+02  0.26806063191E+03  0.94925286757E+02 0.  0.
          3    1    3    3  502    0  0.13517971360E+03 -0.80164413077E+03 -0.38716371254E+02  0.81388317637E+03  0.00000000000E+00 0. -1.
         -3    1    3    3    0  502  0.64764060674E+02 -0.21821759981E+03 -0.54576589089E+02  0.23407671498E+03  0.00000000000E+00 0.  1.
         13    1    5    5    0    0 -0.23756741196E+02  0.38731636506E+03 -0.50381684092E+02  0.39130124391E+03  0.00000000000E+00 0. -1.
        -13    1    5    5    0    0  0.26283222654E+02  0.52155632233E+03 -0.15909754194E+03  0.54591559147E+03  0.00000000000E+00 0.  1.
          3    1    6    6  503    0 -0.20774090128E+02  0.41368892688E+02  0.49180537745E+02  0.67540161354E+02  0.00000000000E+00 0. -1.
         -3    1    6    6    0  503 -0.18169616560E+03  0.69620150503E+02  0.48456136451E+02  0.20052047055E+03  0.00000000000E+00 0.  1.
<mgrwt>
<rscale>  0 0.10958596E+04</rscale>
<asrwt>0</asrwt>
<pdfrwt beam="1">  1        2 0.18910561E+00 0.10958596E+04</pdfrwt>
<pdfrwt beam="2">  1       -2 0.15754630E+00 0.10958596E+04</pdfrwt>
<totfact> 0.46929568E+00</totfact>
</mgrwt>
</event>
<event>
12    1  0.1444206E-007  0.3967062E+03  0.7818608E-02  0.1044926E+00
          2   -1    0    0  501    0  0.00000000000E+00  0.00000000000E+00  0.43918325928E+04  0.43918325928E+04  0.00000000000E+00 0. -1.
         -2   -1    0    0    0  501 -0.00000000000E+00 -0.00000000000E+00 -0.34361507950E+03  0.34361507950E+03  0.00000000000E+00 0.  1.
         23    2    1    2    0    0 -0.12445130857E+03  0.19330378126E+03 -0.27292379312E+03  0.36680883598E+03  0.84893140155E+02 0.  0.
    5000000    2    1    2    0    0  0.12445130857E+03 -0.19330378126E+03  0.43211413064E+04  0.43686388363E+04  0.59990716957E+03 0.  0.
         23    2    4    4    0    0  0.20915742895E+03  0.11434675769E+03  0.10414871955E+04  0.10722283316E+04  0.90310606277E+02 0.  0.
         23    2    4    4    0    0 -0.84706120380E+02 -0.30765053895E+03  0.32796541109E+04  0.32964105048E+04  0.91472112876E+02 0.  0.
          3    1    3    3  502    0 -0.31205524460E+02  0.22307079493E+02 -0.97163267918E+02  0.10446095531E+03  0.00000000000E+00 0. -1.
         -3    1    3    3    0  502 -0.93245784114E+02  0.17099670177E+03 -0.17576052520E+03  0.26234788067E+03  0.00000000000E+00 0.  1.
         13    1    5    5    0    0  0.89054344290E+02  0.42559382539E+02  0.25585054651E+03  0.27422888146E+03  0.00000000000E+00 0. -1.
        -13    1    5    5    0    0  0.12010308466E+03  0.71787375147E+02  0.78563664895E+03  0.79799945010E+03  0.00000000000E+00 0.  1.
          2    1    6    6  503    0  0.39181281742E+01 -0.28844290193E+02  0.62648181216E+03  0.62715772002E+03  0.00000000000E+00 0.  1.
         -2    1    6    6    0  503 -0.88624248554E+02 -0.27880624876E+03  0.26531722988E+04  0.26692527847E+04  0.00000000000E+00 0. -1.
<mgrwt>
<rscale>  0 0.39670623E+03</rscale>
<asrwt>0</asrwt>
<pdfrwt beam="1">  1        2 0.67566651E+00 0.39670623E+03</pdfrwt>
<pdfrwt beam="2">  1       -2 0.52863862E-01 0.39670623E+03</pdfrwt>
<totfact> 0.68371572E-01</totfact>
</mgrwt>
</event>
<event>
12    1  0.1444206E-007  0.8742128E+03  0.7818608E-02  0.9458403E-01
         -1   -1    0    0    0  501 -0.00000000000E+00  0.00000000000E+00  0.88371405686E+03  0.88371405686E+03  0.00000000000E+00 0.  1.
          1   -1    0    0  501    0  0.00000000000E+00 -0.00000000000E+00 -0.11185796600E+04  0.11185796600E+04  0.00000000000E+00 0. -1.
         23    2    1    2    0    0 -0.65753857589E+03 -0.41571232718E+03  0.35138575094E+03  0.85825600741E+03  0.89206000564E+02 0.  0.
    5000000    2    1    2    0    0  0.65753857589E+03  0.41571232718E+03 -0.58625135411E+03  0.11440377095E+04  0.59996492629E+03 0.  0.
         23    2    4    4    0    0  0.23056416737E+03 -0.13234315444E+03 -0.14357574990E+03  0.31510274270E+03  0.89449408564E+02 0.  0.
         23    2    4    4    0    0  0.42697440852E+03  0.54805548162E+03 -0.44267560422E+03  0.82893496679E+03  0.92192907230E+02 0.  0.
          3    1    3    3  502    0 -0.94825192280E+02 -0.99783490851E+02  0.58558537063E+02  0.14959165886E+03  0.00000000000E+00 0. -1.
         -3    1    3    3    0  502 -0.56271338361E+03 -0.31592883633E+03  0.29282721388E+03  0.70866434855E+03  0.00000000000E+00 0.  1.
         13    1    5    5    0    0  0.28333551892E+02  0.94998035892E+00 -0.45885561523E+02  0.53936790614E+02  0.00000000000E+00 0. -1.
        -13    1    5    5    0    0  0.20223061548E+03 -0.13329313480E+03 -0.97690188375E+02  0.26116595208E+03  0.00000000000E+00 0.  1.
          2    1    6    6  503    0  0.16134213175E+03  0.21793561164E+03 -0.12093787381E+03  0.29690601816E+03  0.00000000000E+00 0. -1.
         -2    1    6    6    0  503  0.26563227676E+03  0.33011986998E+03 -0.32173773041E+03  0.53202894864E+03  0.00000000000E+00 0.  1.
<mgrwt>
<rscale>  0 0.87421282E+03</rscale>
<asrwt>0</asrwt>
<pdfrwt beam="1">  1        1 0.17208918E+00 0.87421282E+03</pdfrwt>
<pdfrwt beam="2">  1       -1 0.13595601E+00 0.87421282E+03</pdfrwt>
<totfact> 0.56561613E+00</totfact>
</mgrwt>
</event>
<event>
12    1  0.1444206E-007  0.7004496E+03  0.7818608E-02  0.9716464E-01
         -1   -1    0    0    0  501 -0.00000000000E+00  0.00000000000E+00  0.93221008545E+03  0.93221008545E+03  0.00000000000E+00 0.  1.
          1   -1    0    0  501    0  0.00000000000E+00 -0.00000000000E+00 -0.66009787381E+03  0.66009787381E+03  0.00000000000E+00 0. -1.
         23    2    1    2    0    0 -0.63365688279E+03 -0.95106936698E+02  0.30088009859E+03  0.71413382616E+03  0.94296942777E+02 0.  0.
    5000000    2    1    2    0    0  0.63365688279E+03  0.95106936698E+02 -0.28767886950E+02  0.87817413310E+03  0.59982984438E+03 0.  0.
         23    2    4    4    0    0  0.28838091623E+03 -0.14662735259E+03 -0.22533138754E+03  0.40426040212E+03  0.89381794203E+02 0.  0.
         23    2    4    4    0    0  0.34527596656E+03  0.24173428929E+03  0.19656350059E+03  0.47391373098E+03  0.91137560577E+02 0.  0.
          2    1    3    3  502    0 -0.60718557768E+03 -0.72457000161E+02  0.29450054050E+03  0.67871563336E+03  0.00000000000E+00 0. -1.
         -2    1    3    3    0  502 -0.26471305117E+02 -0.22649936537E+02  0.63795580863E+01  0.35418192798E+02  0.00000000000E+00 0.  1.
         13    1    5    5    0    0  0.19506859822E+03 -0.86367047480E+02 -0.19521562181E+03  0.28917151295E+03  0.00000000000E+00 0. -1.
        -13    1    5    5    0    0  0.93312318013E+02 -0.60260305113E+02 -0.30115765732E+02  0.11508888917E+03  0.00000000000E+00 0.  1.
          1    1    6    6  503    0  0.16856197911E+03  0.66256698645E+02  0.66346684753E+02  0.19288590797E+03  0.00000000000E+00 0. -1.
         -1    1    6    6    0  503  0.17671398745E+03  0.17547759065E+03  0.13021681584E+03  0.28102782301E+03  0.00000000000E+00 0.  1.
<mgrwt>
<rscale>  0 0.70044958E+03</rscale>
<asrwt>0</asrwt>
<pdfrwt beam="1">  1        1 0.10155352E+00 0.70044958E+03</pdfrwt>
<pdfrwt beam="2">  1       -1 0.14341694E+00 0.70044958E+03</pdfrwt>
<totfact> 0.12131076E+01</totfact>
</mgrwt>
</event>
<event>
12    1  0.1444206E-007  0.5895683E+03  0.7818608E-02  0.9927288E-01
         -1   -1    0    0    0  501 -0.00000000000E+00  0.00000000000E+00  0.57698268483E+03  0.57698268483E+03  0.00000000000E+00 0.  1.
          1   -1    0    0  501    0  0.00000000000E+00 -0.00000000000E+00 -0.66138592002E+03  0.66138592002E+03  0.00000000000E+00 0. -1.
         23    2    1    2    0    0 -0.37226713771E+03 -0.25607903835E+03  0.84834601829E+02  0.46858855390E+03  0.90658852190E+02 0.  0.
    5000000    2    1    2    0    0  0.37226713771E+03  0.25607903835E+03 -0.16923783702E+03  0.76978005095E+03  0.59980045487E+03 0.  0.
         23    2    4    4    0    0  0.43704953447E+03  0.37565342069E+03 -0.95248482462E+02  0.59056223206E+03  0.86969468552E+02 0.  0.
         23    2    4    4    0    0 -0.64782396767E+02 -0.11957438234E+03 -0.73989354558E+02  0.17921781890E+03  0.90276299097E+02 0.  0.
          4    1    3    3  502    0 -0.10263299354E+03 -0.11560661774E+03  0.50470382869E+02  0.16262128082E+03  0.00000000000E+00 0. -1.
         -4    1    3    3    0  502 -0.26963414417E+03 -0.14047242061E+03  0.34364218960E+02  0.30596727308E+03  0.00000000000E+00 0.  1.
         11    1    5    5    0    0  0.28247878030E+03  0.29485094698E+03 -0.62076426543E+02  0.41301915813E+03  0.00000000000E+00 0.  1.
        -11    1    5    5    0    0  0.15457075418E+03  0.80802473715E+02 -0.33172055919E+02  0.17754307393E+03  0.00000000000E+00 0. -1.
          1    1    6    6  503    0 -0.23907036424E+02 -0.24257282097E+02  0.19793004779E+02  0.39391942875E+02  0.00000000000E+00 0.  1.
         -1    1    6    6    0  503 -0.40875360343E+02 -0.95317100244E+02 -0.93782359337E+02  0.13982587602E+03  0.00000000000E+00 0. -1.
<mgrwt>
<rscale>  0 0.58956834E+03</rscale>
<asrwt>0</asrwt>
<pdfrwt beam="1">  1        1 0.10175168E+00 0.58956834E+03</pdfrwt>
<pdfrwt beam="2">  1       -1 0.88766567E-01 0.58956834E+03</pdfrwt>
<totfact> 0.38488385E+01</totfact>
</mgrwt>
</event>
<event>
12    1  0.1444206E-007  0.1338134E+04  0.7818608E-02  0.8999859E-01
          2   -1    0    0  501    0  0.00000000000E+00  0.00000000000E+00  0.15113582933E+04  0.15113582933E+04  0.00000000000E+00 0.  1.
         -2   -1    0    0    0  501 -0.00000000000E+00 -0.00000000000E+00 -0.14325052806E+04  0.14325052806E+04  0.00000000000E+00 0. -1.
         23    2    1    2    0    0 -0.11940202004E+04 -0.46917189670E+03 -0.54414287588E+03  0.13966806393E+04  0.93908632674E+02 0.  0.
    5000000    2    1    2    0    0  0.11940202004E+04  0.46917189670E+03  0.62299588855E+03  0.15471829346E+04  0.59987052653E+03 0.  0.
         23    2    4    4    0    0  0.10624272346E+04  0.58515240811E+03  0.50540802045E+03  0.13172911483E+04  0.93079173630E+02 0.  0.
         23    2    4    4    0    0  0.13159296572E+03 -0.11598051140E+03  0.11758786809E+03  0.22989178637E+03  0.90857795850E+02 0.  0.
          4    1    3    3  502    0 -0.10010636080E+04 -0.40972270760E+03 -0.42445935719E+03  0.11619667768E+04  0.00000000000E+00 0.  1.
         -4    1    3    3    0  502 -0.19295659231E+03 -0.59449189105E+02 -0.11968351869E+03  0.23471386250E+03  0.00000000000E+00 0. -1.
         13    1    5    5    0    0  0.76858233531E+03  0.39845861846E+03  0.39902775810E+03  0.95326346228E+03  0.00000000000E+00 0. -1.
        -13    1    5    5    0    0  0.29384489933E+03  0.18669378965E+03  0.10638026236E+03  0.36402768600E+03  0.00000000000E+00 0.  1.
          2    1    6    6  503    0  0.11981396153E+03 -0.11639552011E+03  0.13081930031E+03  0.21217208066E+03  0.00000000000E+00 0. -1.
         -2    1    6    6    0  503  0.11779004189E+02  0.41500870720E+00 -0.13231432217E+02  0.17719705709E+02  0.00000000000E+00 0.  1.
<mgrwt>
<rscale>  0 0.13381344E+04</rscale>
<asrwt>0</asrwt>
<pdfrwt beam="1">  1        2 0.23251666E+00 0.13381344E+04</pdfrwt>
<pdfrwt beam="2">  1       -2 0.22038543E+00 0.13381344E+04</pdfrwt>
<totfact> 0.11750819E+00</totfact>
</mgrwt>
</event>
<event>
12    1  0.1444206E-007  0.2147660E+04  0.7818608E-02  0.8540535E-01
          2   -1    0    0  501    0  0.00000000000E+00  0.00000000000E+00  0.34103179210E+04  0.34103179210E+04  0.00000000000E+00 0. -1.
         -2   -1    0    0    0  501 -0.00000000000E+00 -0.00000000000E+00 -0.13936737921E+04  0.13936737921E+04  0.00000000000E+00 0.  1.
         23    2    1    2    0    0  0.74734352104E+02 -0.21074071317E+04  0.60233995611E+03  0.21949630241E+04  0.91100012551E+02 0.  0.
    5000000    2    1    2    0    0 -0.74734352104E+02  0.21074071317E+04  0.14143041728E+04  0.26090286889E+04  0.60002030319E+03 0.  0.
         23    2    4    4    0    0  0.15447006878E+03  0.21631920982E+03  0.23524503787E+03  0.36681902429E+03  0.92525488680E+02 0.  0.
         23    2    4    4    0    0 -0.22920442088E+03  0.18910879219E+04  0.11790591349E+04  0.22422096646E+04  0.92604220237E+02 0.  0.
          2    1    3    3  502    0  0.30112975266E+02 -0.85930090023E+03  0.29226084001E+03  0.90814163379E+03  0.00000000000E+00 0.  1.
         -2    1    3    3    0  502  0.44621376837E+02 -0.12481062315E+04  0.31007911610E+03  0.12868213903E+04  0.00000000000E+00 0. -1.
         13    1    5    5    0    0  0.12142452841E+02 -0.75499214571E+01  0.38718823318E+01  0.14813235561E+02  0.00000000000E+00 0.  1.
        -13    1    5    5    0    0  0.14232761594E+03  0.22386913127E+03  0.23137315554E+03  0.35200578873E+03  0.00000000000E+00 0. -1.
          2    1    6    6  503    0 -0.11899800831E+03  0.13221003424E+04  0.80692344930E+03  0.15534591383E+04  0.00000000000E+00 0. -1.
         -2    1    6    6    0  503 -0.11020641257E+03  0.56898757948E+03  0.37213568559E+03  0.68875052629E+03  0.00000000000E+00 0.  1.
<mgrwt>
<rscale>  0 0.21476596E+04</rscale>
<asrwt>0</asrwt>
<pdfrwt beam="1">  1        2 0.52466429E+00 0.21476596E+04</pdfrwt>
<pdfrwt beam="2">  1       -2 0.21441135E+00 0.21476596E+04</pdfrwt>
<totfact> 0.88469895E-02</totfact>
</mgrwt>
</event>
<event>
12    1  0.1444206E-007  0.6846455E+03  0.7818608E-02  0.9743857E-01
         -1   -1    0    0    0  501 -0.00000000000E+00  0.00000000000E+00  0.53153083474E+03  0.53153083474E+03  0.00000000000E+00 0.  1.
          1   -1    0    0  501    0  0.00000000000E+00 -0.00000000000E+00 -0.12215842566E+04  0.12215842566E+04  0.00000000000E+00 0. -1.
         23    2    1    2    0    0  0.33935885020E+03  0.48797754071E+03 -0.68176954167E+03  0.90854063736E+03  0.85731396469E+02 0.  0.
    5000000    2    1    2    0    0 -0.33935885020E+03 -0.48797754071E+03 -0.82838802206E+01  0.84457445400E+03  0.59995906214E+03 0.  0.
         23    2    4    4    0    0 -0.14183129920E+03  0.60548190699E+02  0.14995229882E+03  0.23345997434E+03  0.90750575031E+02 0.  0.
         23    2    4    4    0    0 -0.19752755100E+03 -0.54852573141E+03 -0.15823617904E+03  0.61111447966E+03  0.92328800899E+02 0.  0.
          2    1    3    3  502    0  0.19962874482E+03  0.21456144295E+03 -0.31614799299E+03  0.43108908828E+03  0.00000000000E+00 0.  1.
         -2    1    3    3    0  502  0.13973010538E+03  0.27341609776E+03 -0.36562154868E+03  0.47745154908E+03  0.00000000000E+00 0. -1.
         11    1    5    5    0    0 -0.23031767361E+02  0.55415362981E+02  0.51675860798E+02  0.79194187611E+02  0.00000000000E+00 0. -1.
        -11    1    5    5    0    0 -0.11879953184E+03  0.51328277178E+01  0.98276438022E+02  0.15426578673E+03  0.00000000000E+00 0.  1.
          1    1    6    6  503    0 -0.98923711943E+02 -0.39943943555E+03 -0.10787809772E+03  0.42541209130E+03  0.00000000000E+00 0. -1.
         -1    1    6    6    0  503 -0.98603839054E+02 -0.14908629586E+03 -0.50358081325E+02  0.18570238837E+03  0.00000000000E+00 0.  1.
<mgrwt>
<rscale>  0 0.68464551E+03</rscale>
<asrwt>0</asrwt>
<pdfrwt beam="1">  1        1 0.18793604E+00 0.68464551E+03</pdfrwt>
<pdfrwt beam="2">  1       -1 0.81773975E-01 0.68464551E+03</pdfrwt>
<totfact> 0.15981054E+01</totfact>
</mgrwt>
</event>
<event>
12    1  0.1444206E-007  0.6075719E+03  0.7818608E-02  0.9889820E-01
          1   -1    0    0  501    0  0.00000000000E+00  0.00000000000E+00  0.10331032478E+04  0.10331032478E+04  0.00000000000E+00 0. -1.
         -1   -1    0    0    0  501 -0.00000000000E+00 -0.00000000000E+00 -0.60152400462E+03  0.60152400462E+03  0.00000000000E+00 0.  1.
         23    2    1    2    0    0 -0.45342619245E+03  0.12781506645E+03 -0.31065746894E+03  0.57008942426E+03  0.81005465419E+02 0.  0.
    5000000    2    1    2    0    0  0.45342619245E+03 -0.12781506645E+03  0.74223671215E+03  0.10645378282E+04  0.60032778343E+03 0.  0.
         23    2    4    4    0    0  0.37802634216E+03  0.17203840518E+03  0.30990132776E+03  0.52623986236E+03  0.91588381172E+02 0.  0.
         23    2    4    4    0    0  0.75399850289E+02 -0.29985347163E+03  0.43233538438E+03  0.53829796581E+03  0.85167913769E+02 0.  0.
          1    1    3    3  502    0 -0.21033992822E+03  0.17590807546E+02 -0.14021261764E+03  0.25340067100E+03  0.00000000000E+00 0. -1.
         -1    1    3    3    0  502 -0.24308626423E+03  0.11022425891E+03 -0.17044485130E+03  0.31668875326E+03  0.00000000000E+00 0.  1.
         13    1    5    5    0    0  0.21316309993E+03  0.74139575555E+02  0.21735399110E+03  0.31333359424E+03  0.00000000000E+00 0.  1.
        -13    1    5    5    0    0  0.16486324223E+03  0.97898829626E+02  0.92547336666E+02  0.21290626812E+03  0.00000000000E+00 0. -1.
          3    1    6    6  503    0  0.84120519547E+02 -0.17086347754E+03  0.23672794720E+03  0.30382677755E+03  0.00000000000E+00 0. -1.
         -3    1    6    6    0  503 -0.87206692586E+01 -0.12898999409E+03  0.19560743718E+03  0.23447118827E+03  0.00000000000E+00 0.  1.
<mgrwt>
<rscale>  0 0.60757185E+03</rscale>
<asrwt>0</asrwt>
<pdfrwt beam="1">  1        1 0.15893896E+00 0.60757185E+03</pdfrwt>
<pdfrwt beam="2">  1       -1 0.92542154E-01 0.60757185E+03</pdfrwt>
<totfact> 0.17020799E+01</totfact>
</mgrwt>
</event>
<event>
12    1  0.1444206E-007  0.2653765E+03  0.7818608E-02  0.1103955E+00
         -1   -1    0    0    0  501 -0.00000000000E+00  0.00000000000E+00  0.22064276679E+03  0.22064276679E+03  0.00000000000E+00 0.  1.
          1   -1    0    0  501    0  0.00000000000E+00 -0.00000000000E+00 -0.96035553008E+03  0.96035553008E+03  0.00000000000E+00 0. -1.
         23    2    1    2    0    0 -0.73074603768E+02 -0.19697846954E+03 -0.39724220455E+03  0.45899170360E+03  0.93443029291E+02 0.  0.
    5000000    2    1    2    0    0  0.73074603768E+02  0.19697846954E+03 -0.34247055874E+03  0.72200659327E+03  0.59988917471E+03 0.  0.
         23    2    4    4    0    0  0.15325933065E+03  0.12092344704E+03 -0.47985030393E+03  0.52632935526E+03  0.93034260094E+02 0.  0.
         23    2    4    4    0    0 -0.80184726884E+02  0.76055022496E+02  0.13737974519E+03  0.19567723800E+03  0.84867132693E+02 0.  0.
          3    1    3    3  502    0  0.21759794988E+00 -0.89450088406E+02 -0.23209311592E+03  0.24873395450E+03  0.00000000000E+00 0. -1.
         -3    1    3    3    0  502 -0.73292201717E+02 -0.10752838113E+03 -0.16514908863E+03  0.21025774910E+03  0.00000000000E+00 0.  1.
         13    1    5    5    0    0  0.93761493059E+01  0.35090236491E+01 -0.12875585210E+03  0.12914447287E+03  0.00000000000E+00 0. -1.
        -13    1    5    5    0    0  0.14388318135E+03  0.11741442339E+03 -0.35109445184E+03  0.39718488240E+03  0.00000000000E+00 0.  1.
          1    1    6    6  503    0 -0.78620079394E+02  0.58932350908E+02  0.57237577963E+02  0.11371138553E+03  0.00000000000E+00 0. -1.
         -1    1    6    6    0  503 -0.15646474901E+01  0.17122671588E+02  0.80142167229E+02  0.81965852477E+02  0.00000000000E+00 0.  1.
<mgrwt>
<rscale>  0 0.26537652E+03</rscale>
<asrwt>0</asrwt>
<pdfrwt beam="1">  1        1 0.14774700E+00 0.26537652E+03</pdfrwt>
<pdfrwt beam="2">  1       -1 0.33945041E-01 0.26537652E+03</pdfrwt>
<totfact> 0.14320267E+02</totfact>
</mgrwt>
</event>
<event>
12    1  0.1444206E-007  0.6054423E+03  0.7818608E-02  0.9894179E-01
         -1   -1    0    0    0  501 -0.00000000000E+00  0.00000000000E+00  0.34585896964E+03  0.34585896964E+03  0.00000000000E+00 0.  1.
          1   -1    0    0  501    0  0.00000000000E+00 -0.00000000000E+00 -0.12443319929E+04  0.12443319929E+04  0.00000000000E+00 0. -1.
         23    2    1    2    0    0 -0.25525774757E+03  0.39008563605E+03 -0.93613059395E+02  0.48414985163E+03  0.91183072939E+02 0.  0.
    5000000    2    1    2    0    0  0.25525774757E+03 -0.39008563605E+03 -0.80485996391E+03  0.11060411110E+04  0.59850150915E+03 0.  0.
         23    2    4    4    0    0 -0.14284798454E+02  0.13360382205E+03 -0.17159278352E+03  0.23693342297E+03  0.92947979185E+02 0.  0.
         23    2    4    4    0    0  0.26954254603E+03 -0.52368945810E+03 -0.63326718039E+03  0.86910768798E+03  0.86122116166E+02 0.  0.
          2    1    3    3  502    0 -0.20768501573E+03  0.27112099201E+03 -0.35187751200E+02  0.34333341798E+03  0.00000000000E+00 0. -1.
         -2    1    3    3    0  502 -0.47572731840E+02  0.11896464404E+03 -0.58425308195E+02  0.14081643364E+03  0.00000000000E+00 0.  1.
         13    1    5    5    0    0  0.23740662744E+02  0.53337437748E+02 -0.20894224241E+02  0.62008627946E+02  0.00000000000E+00 0.  1.
        -13    1    5    5    0    0 -0.38025461197E+02  0.80266384298E+02 -0.15069855928E+03  0.17492479503E+03  0.00000000000E+00 0. -1.
          1    1    6    6  503    0  0.22810138916E+03 -0.49049065237E+03 -0.59149473960E+03  0.80154684877E+03  0.00000000000E+00 0. -1.
         -1    1    6    6    0  503  0.41441156869E+02 -0.33198805730E+02 -0.41772440793E+02  0.67560839207E+02  0.00000000000E+00 0.  1.
<mgrwt>
<rscale>  0 0.60544231E+03</rscale>
<asrwt>0</asrwt>
<pdfrwt beam="1">  1        1 0.19143569E+00 0.60544231E+03</pdfrwt>
<pdfrwt beam="2">  1       -1 0.53209073E-01 0.60544231E+03</pdfrwt>
<totfact> 0.36989650E+01</totfact>
</mgrwt>
</event>
<event>
12    1  0.1444206E-007  0.5285534E+03  0.7818608E-02  0.1006584E+00
         -2   -1    0    0    0  501 -0.00000000000E+00  0.00000000000E+00  0.10898797605E+03  0.10898797605E+03  0.00000000000E+00 0. -1.
          2   -1    0    0  501    0  0.00000000000E+00 -0.00000000000E+00 -0.27984866972E+04  0.27984866972E+04  0.00000000000E+00 0.  1.
         23    2    1    2    0    0 -0.21404492901E+03 -0.29695020005E+03 -0.12387439815E+04  0.12955332488E+04  0.99624766130E+02 0.  0.
    5000000    2    1    2    0    0  0.21404492901E+03  0.29695020005E+03 -0.14507547396E+04  0.16119414245E+04  0.59972592773E+03 0.  0.
         23    2    4    4    0    0  0.24622423131E+03 -0.95451227652E+02 -0.77847122931E+03  0.82733919490E+03  0.93463252772E+02 0.  0.
         23    2    4    4    0    0 -0.32179302303E+02  0.39240142770E+03 -0.67228351034E+03  0.78460222957E+03  0.92850161114E+02 0.  0.
          1    1    3    3  502    0 -0.70219586766E+02 -0.18191668602E+03 -0.61605559526E+03  0.64618029022E+03  0.00000000000E+00 0. -1.
         -1    1    3    3    0  502 -0.14382534224E+03 -0.11503351403E+03 -0.62268838628E+03  0.64935295859E+03  0.00000000000E+00 0.  1.
         11    1    5    5    0    0  0.17979899883E+03 -0.10858874955E+03 -0.63160037962E+03  0.66561117482E+03  0.00000000000E+00 0. -1.
        -11    1    5    5    0    0  0.66425232484E+02  0.13137521900E+02 -0.14687084968E+03  0.16172802008E+03  0.00000000000E+00 0.  1.
          4    1    6    6  503    0  0.15784918534E+02  0.23749086184E+03 -0.34221200264E+03  0.41684544841E+03  0.00000000000E+00 0.  1.
         -4    1    6    6    0  503 -0.47964220836E+02  0.15491056586E+03 -0.33007150770E+03  0.36775678116E+03  0.00000000000E+00 0. -1.
<mgrwt>
<rscale>  0 0.52855342E+03</rscale>
<asrwt>0</asrwt>
<pdfrwt beam="1">  1        2 0.43053640E+00 0.52855342E+03</pdfrwt>
<pdfrwt beam="2">  1       -2 0.16767382E-01 0.52855342E+03</pdfrwt>
<totfact> 0.72881438E+01</totfact>
</mgrwt>
</event>
<event>
12    1  0.1499944E-007  0.1933302E+04  0.7818608E-02  0.8638455E-01
         -1   -1    0    0    0  501 -0.00000000000E+00  0.00000000000E+00  0.19690703616E+04  0.19690703616E+04  0.00000000000E+00 0.  1.
          1   -1    0    0  501    0  0.00000000000E+00 -0.00000000000E+00 -0.19975280073E+04  0.19975280073E+04  0.00000000000E+00 0. -1.
         23    2    1    2    0    0  0.17628779589E+04 -0.68545914977E+03 -0.43056030348E+03  0.19420030439E+04  0.91655352259E+02 0.  0.
    5000000    2    1    2    0    0 -0.17628779589E+04  0.68545914977E+03  0.40210265774E+03  0.20245953249E+04  0.59975556539E+03 0.  0.
         23    2    4    4    0    0 -0.39084386404E+03  0.41320762970E+03  0.43038613640E+02  0.57750970732E+03  0.90364088477E+02 0.  0.
         23    2    4    4    0    0 -0.13720340949E+04  0.27225152007E+03  0.35906404410E+03  0.14470856176E+04  0.92365302750E+02 0.  0.
          3    1    3    3  502    0  0.70140201502E+03 -0.25464555401E+03 -0.21248897602E+03  0.77586126967E+03  0.00000000000E+00 0. -1.
         -3    1    3    3    0  502  0.10614759439E+04 -0.43081359577E+03 -0.21807132746E+03  0.11661417743E+04  0.00000000000E+00 0.  1.
         11    1    5    5    0    0 -0.11395112001E+02  0.47553792361E+02  0.57005229973E+01  0.49231166022E+02  0.00000000000E+00 0. -1.
        -11    1    5    5    0    0 -0.37944875204E+03  0.36565383734E+03  0.37338090643E+02  0.52827854130E+03  0.00000000000E+00 0.  1.
          4    1    6    6  503    0 -0.91599185614E+03  0.19299275489E+03  0.28342321059E+03  0.97806748247E+03  0.00000000000E+00 0. -1.
         -4    1    6    6    0  503 -0.45604223876E+03  0.79258765182E+02  0.75640833505E+02  0.46901813513E+03  0.00000000000E+00 0.  1.
<mgrwt>
<rscale>  0 0.19333024E+04</rscale>
<asrwt>0</asrwt>
<pdfrwt beam="1">  1        1 0.30731200E+00 0.19333024E+04</pdfrwt>
<pdfrwt beam="2">  1       -1 0.30293390E+00 0.19333024E+04</pdfrwt>
<totfact> 0.84911313E-02</totfact>
</mgrwt>
</event>
<event>
12    1  0.1444206E-007  0.7286934E+03  0.7818608E-02  0.9669383E-01
          2   -1    0    0  501    0  0.00000000000E+00  0.00000000000E+00  0.24271058890E+04  0.24271058890E+04  0.00000000000E+00 0. -1.
         -2   -1    0    0    0  501 -0.00000000000E+00 -0.00000000000E+00 -0.36767709094E+03  0.36767709094E+03  0.00000000000E+00 0.  1.
         23    2    1    2    0    0  0.34167779839E+03 -0.49927041418E+03  0.18045026195E+04  0.19054481826E+04  0.92132558690E+02 0.  0.
    5000000    2    1    2    0    0 -0.34167779839E+03  0.49927041418E+03  0.25492617853E+03  0.88933479733E+03  0.59992862980E+03 0.  0.
         23    2    4    4    0    0 -0.39023452780E+03  0.59057221283E+03  0.21355092682E+03  0.74519023945E+03  0.92983704891E+02 0.  0.
         23    2    4    4    0    0  0.48556729411E+02 -0.91301798652E+02  0.41375251708E+02  0.14414455787E+03  0.91498457379E+02 0.  0.
          4    1    3    3  502    0  0.31451587387E+03 -0.40664972522E+03  0.15629168089E+04  0.16452942549E+04  0.00000000000E+00 0.  1.
         -4    1    3    3    0  502  0.27161924519E+02 -0.92620688960E+02  0.24158581062E+03  0.26015392763E+03  0.00000000000E+00 0. -1.
         11    1    5    5    0    0 -0.22057658296E+03  0.36662874113E+03  0.17216085061E+03  0.46120496664E+03  0.00000000000E+00 0. -1.
        -11    1    5    5    0    0 -0.16965794484E+03  0.22394347170E+03  0.41390076211E+02  0.28398527281E+03  0.00000000000E+00 0.  1.
          3    1    6    6  503    0  0.75895651696E+02 -0.63349396552E+02  0.26931046608E+02  0.10246256517E+03  0.00000000000E+00 0. -1.
         -3    1    6    6    0  503 -0.27338922285E+02 -0.27952402100E+02  0.14444205100E+02  0.41681992705E+02  0.00000000000E+00 0.  1.
<mgrwt>
<rscale>  0 0.72869340E+03</rscale>
<asrwt>0</asrwt>
<pdfrwt beam="1">  1        2 0.37340090E+00 0.72869340E+03</pdfrwt>
<pdfrwt beam="2">  1       -2 0.56565708E-01 0.72869340E+03</pdfrwt>
<totfact> 0.11804544E+01</totfact>
</mgrwt>
</event>
<event>
12    1  0.1444206E-007  0.5794312E+03  0.7818608E-02  0.9949023E-01
         -1   -1    0    0    0  501 -0.00000000000E+00  0.00000000000E+00  0.20220589450E+03  0.20220589450E+03  0.00000000000E+00 0.  1.
          1   -1    0    0  501    0  0.00000000000E+00 -0.00000000000E+00 -0.22750524516E+04  0.22750524516E+04  0.00000000000E+00 0. -1.
         23    2    1    2    0    0 -0.28760312034E+03 -0.45094473080E+03 -0.10083041437E+04  0.11436277179E+04  0.71696622938E+02 0.  0.
    5000000    2    1    2    0    0  0.28760312034E+03  0.45094473080E+03 -0.10645424133E+04  0.13336306282E+04  0.59937750842E+03 0.  0.
         23    2    4    4    0    0  0.34248307170E+03  0.31270470715E+03 -0.32498872382E+03  0.57362965670E+03  0.91402539123E+02 0.  0.
         23    2    4    4    0    0 -0.54879951361E+02  0.13824002365E+03 -0.73955368953E+03  0.76000097150E+03  0.92410517743E+02 0.  0.
          1    1    3    3  502    0 -0.68049885413E+02 -0.11556862938E+03 -0.19185400931E+03  0.23408301068E+03  0.00000000000E+00 0. -1.
         -1    1    3    3    0  502 -0.21955323492E+03 -0.33537610142E+03 -0.81645013441E+03  0.90954470717E+03  0.00000000000E+00 0.  1.
         11    1    5    5    0    0  0.28210268416E+03  0.21529915381E+03 -0.21578929551E+03  0.41533199985E+03  0.00000000000E+00 0.  1.
        -11    1    5    5    0    0  0.60380387540E+02  0.97405553339E+02 -0.10919942831E+03  0.15829765685E+03  0.00000000000E+00 0. -1.
          3    1    6    6  503    0 -0.60688438393E+02  0.13437496335E+03 -0.52439351206E+03  0.54472770521E+03  0.00000000000E+00 0. -1.
         -3    1    6    6    0  503  0.58084870319E+01  0.38650602960E+01 -0.21516017747E+03  0.21527326630E+03  0.00000000000E+00 0.  1.
<mgrwt>
<rscale>  0 0.57943116E+03</rscale>
<asrwt>0</asrwt>
<pdfrwt beam="1">  1        1 0.35000809E+00 0.57943116E+03</pdfrwt>
<pdfrwt beam="2">  1       -1 0.31108598E-01 0.57943116E+03</pdfrwt>
<totfact> 0.19910199E+01</totfact>
</mgrwt>
</event>
<event>
12    1  0.2148070E-007  0.9716264E+03  0.7818608E-02  0.9340224E-01
          2   -1    0    0  501    0  0.00000000000E+00  0.00000000000E+00  0.20476091884E+04  0.20476091884E+04  0.00000000000E+00 0.  1.
         -2   -1    0    0    0  501 -0.00000000000E+00 -0.00000000000E+00 -0.54484665966E+03  0.54484665966E+03  0.00000000000E+00 0. -1.
         23    2    1    2    0    0 -0.55099255424E+03 -0.74399960889E+03  0.10417020036E+04  0.13967775685E+04  0.93361120890E+02 0.  0.
    5000000    2    1    2    0    0  0.55099255424E+03  0.74399960889E+03  0.46106052518E+03  0.11956782795E+04  0.59995127085E+03 0.  0.
         23    2    4    4    0    0  0.13513795363E+02  0.32356757929E+03  0.37156010229E+03  0.50167008461E+03  0.93473863432E+02 0.  0.
         23    2    4    4    0    0  0.53747875888E+03  0.42043202960E+03  0.89500422894E+02  0.69400819492E+03  0.89389826916E+02 0.  0.
          3    1    3    3  502    0 -0.24400860931E+03 -0.40631215668E+03  0.54473438030E+03  0.72205631025E+03  0.00000000000E+00 0. -1.
         -3    1    3    3    0  502 -0.30698394493E+03 -0.33768745222E+03  0.49696762326E+03  0.67472125829E+03  0.00000000000E+00 0.  1.
         13    1    5    5    0    0 -0.82768602541E+01  0.82410510928E+02  0.15983261734E+03  0.18001795548E+03  0.00000000000E+00 0. -1.
        -13    1    5    5    0    0  0.21790655617E+02  0.24115706837E+03  0.21172748494E+03  0.32165212913E+03  0.00000000000E+00 0.  1.
          2    1    6    6  503    0  0.28709673492E+03  0.16906524221E+03  0.34105767535E+02  0.33491908680E+03  0.00000000000E+00 0. -1.
         -2    1    6    6    0  503  0.25038202396E+03  0.25136678739E+03  0.55394655359E+02  0.35908910812E+03  0.00000000000E+00 0.  1.
<mgrwt>
<rscale>  0 0.97162641E+03</rscale>
<asrwt>0</asrwt>
<pdfrwt beam="1">  1        2 0.31501679E+00 0.97162641E+03</pdfrwt>
<pdfrwt beam="2">  1       -2 0.83822564E-01 0.97162641E+03</pdfrwt>
<totfact> 0.78633389E+00</totfact>
</mgrwt>
</event>
<event>
12    1  0.1444206E-007  0.7932439E+03  0.7818608E-02  0.9569848E-01
          1   -1    0    0  501    0  0.00000000000E+00  0.00000000000E+00  0.16674147946E+04  0.16674147946E+04  0.00000000000E+00 0. -1.
         -1   -1    0    0    0  501 -0.00000000000E+00 -0.00000000000E+00 -0.46456448962E+03  0.46456448962E+03  0.00000000000E+00 0.  1.
         23    2    1    2    0    0  0.62944725665E+03 -0.32559046288E+03  0.90861250535E+03  0.11579389205E+04  0.11416155313E+03 0.  0.
    5000000    2    1    2    0    0 -0.62944725665E+03  0.32559046288E+03  0.29423779963E+03  0.97404036376E+03  0.59997145689E+03 0.  0.
         23    2    4    4    0    0 -0.11701584213E+03  0.33502316821E+03  0.26504599947E+03  0.45290500230E+03  0.94553311519E+02 0.  0.
         23    2    4    4    0    0 -0.51243141452E+03 -0.94327053285E+01  0.29191800159E+02  0.52113536147E+03  0.89749502839E+02 0.  0.
          2    1    3    3  502    0  0.42909947064E+03 -0.26756863114E+03  0.58914975780E+03  0.77641275440E+03  0.00000000000E+00 0. -1.
         -2    1    3    3    0  502  0.20034778601E+03 -0.58021831738E+02  0.31946274755E+03  0.38152616606E+03  0.00000000000E+00 0.  1.
         11    1    5    5    0    0 -0.51727167558E+02  0.80722727850E+02  0.11780600244E+03  0.15188848826E+03  0.00000000000E+00 0.  1.
        -11    1    5    5    0    0 -0.65288674577E+02  0.25430044036E+03  0.14723999703E+03  0.30101651403E+03  0.00000000000E+00 0. -1.
          2    1    6    6  503    0 -0.24745934182E+03 -0.22672967576E+02  0.55225200282E+02  0.25455846491E+03  0.00000000000E+00 0. -1.
         -2    1    6    6    0  503 -0.26497207270E+03  0.13240262247E+02 -0.26033400123E+02  0.26657689656E+03  0.00000000000E+00 0.  1.
<mgrwt>
<rscale>  0 0.79324390E+03</rscale>
<asrwt>0</asrwt>
<pdfrwt beam="1">  1        1 0.25652535E+00 0.79324390E+03</pdfrwt>
<pdfrwt beam="2">  1       -1 0.71471461E-01 0.79324390E+03</pdfrwt>
<totfact> 0.10254043E+01</totfact>
</mgrwt>
</event>
<event>
12    1  0.1444206E-007  0.1073597E+04  0.7818608E-02  0.9231315E-01
          2   -1    0    0  501    0  0.00000000000E+00  0.00000000000E+00  0.52918522390E+04  0.52918522390E+04  0.00000000000E+00 0. -1.
         -2   -1    0    0    0  501 -0.00000000000E+00 -0.00000000000E+00 -0.24341283881E+03  0.24341283881E+03  0.00000000000E+00 0.  1.
         23    2    1    2    0    0  0.48708222738E+03 -0.92885864371E+03  0.25933829444E+04  0.27989008560E+04  0.90462308167E+02 0.  0.
    5000000    2    1    2    0    0 -0.48708222738E+03  0.92885864371E+03  0.24550564558E+04  0.27363642218E+04  0.60029948949E+03 0.  0.
         23    2    4    4    0    0 -0.41409549427E+03  0.48019710058E+03  0.84103727826E+03  0.10570413373E+04  0.89041291398E+02 0.  0.
         23    2    4    4    0    0 -0.72986733119E+02  0.44866154313E+03  0.16140191775E+04  0.16793228845E+04  0.91886895178E+02 0.  0.
          1    1    3    3  502    0  0.27382849048E+03 -0.48295529448E+03  0.14813336512E+04  0.15819536166E+04  0.00000000000E+00 0. -1.
         -1    1    3    3    0  502  0.21325373690E+03 -0.44590334923E+03  0.11120492931E+04  0.12169472394E+04  0.00000000000E+00 0.  1.
         13    1    5    5    0    0 -0.26394367794E+03  0.32656033844E+03  0.48799643189E+03  0.64377669833E+03  0.00000000000E+00 0.  1.
        -13    1    5    5    0    0 -0.15015181632E+03  0.15363676213E+03  0.35304084637E+03  0.41326463898E+03  0.00000000000E+00 0. -1.
          2    1    6    6  503    0 -0.92640283099E+02  0.39896404092E+03  0.14559863221E+04  0.15124981646E+04  0.00000000000E+00 0. -1.
         -2    1    6    6    0  503  0.19653549980E+02  0.49697502215E+02  0.15803285546E+03  0.16682471987E+03  0.00000000000E+00 0.  1.
<mgrwt>
<rscale>  0 0.10735967E+04</rscale>
<asrwt>0</asrwt>
<pdfrwt beam="1">  1        2 0.81413103E+00 0.10735967E+04</pdfrwt>
<pdfrwt beam="2">  1       -2 0.37448133E-01 0.10735967E+04</pdfrwt>
<totfact> 0.10005060E-01</totfact>
</mgrwt>
</event>
<event>
12    1  0.1444206E-007  0.5452581E+03  0.7818608E-02  0.1002597E+00
          1   -1    0    0  501    0  0.00000000000E+00  0.00000000000E+00  0.25644965509E+04  0.25644965509E+04  0.00000000000E+00 0. -1.
         -1   -1    0    0    0  501 -0.00000000000E+00 -0.00000000000E+00 -0.21083251940E+03  0.21083251940E+03  0.00000000000E+00 0.  1.
         23    2    1    2    0    0 -0.29273610149E+03  0.30685186193E+03  0.16072142822E+03  0.46260273155E+03  0.91199887410E+02 0.  0.
    5000000    2    1    2    0    0  0.29273610149E+03 -0.30685186193E+03  0.21929426033E+04  0.23127263387E+04  0.59987779289E+03 0.  0.
         23    2    4    4    0    0  0.76693488290E+02 -0.41015147259E+03  0.92000103855E+03  0.10141435552E+04  0.89325909079E+02 0.  0.
         23    2    4    4    0    0  0.21604261320E+03  0.10329961067E+03  0.12729415647E+04  0.12985827835E+04  0.92691953326E+02 0.  0.
          2    1    3    3  502    0 -0.10110146770E+03  0.10769680088E+03  0.10633790225E+02  0.14809856578E+03  0.00000000000E+00 0. -1.
         -2    1    3    3    0  502 -0.19163463379E+03  0.19915506104E+03  0.15008763799E+03  0.31450416577E+03  0.00000000000E+00 0.  1.
         11    1    5    5    0    0  0.63967946455E+01 -0.13507082868E+03  0.21340970525E+03  0.25264352364E+03  0.00000000000E+00 0.  1.
        -11    1    5    5    0    0  0.70296693644E+02 -0.27508064391E+03  0.70659133331E+03  0.76150003158E+03  0.00000000000E+00 0. -1.
          1    1    6    6  503    0  0.61219022470E+02  0.11683393718E+00  0.49145596136E+03  0.49525422191E+03  0.00000000000E+00 0. -1.
         -1    1    6    6    0  503  0.15482359073E+03  0.10318277673E+03  0.78148560335E+03  0.80332856162E+03  0.00000000000E+00 0.  1.
<mgrwt>
<rscale>  0 0.54525806E+03</rscale>
<asrwt>0</asrwt>
<pdfrwt beam="1">  1        1 0.39453791E+00 0.54525806E+03</pdfrwt>
<pdfrwt beam="2">  1       -1 0.32435774E-01 0.54525806E+03</pdfrwt>
<totfact> 0.11891407E+01</totfact>
</mgrwt>
</event>
<event>
12    1  0.1444206E-007  0.6484260E+03  0.7818608E-02  0.9809737E-01
          1   -1    0    0  501    0  0.00000000000E+00  0.00000000000E+00  0.21350489639E+03  0.21350489639E+03  0.00000000000E+00 0. -1.
         -1   -1    0    0    0  501 -0.00000000000E+00 -0.00000000000E+00 -0.21537044936E+04  0.21537044936E+04  0.00000000000E+00 0.  1.
         23    2    1    2    0    0  0.42382493367E+03  0.29846673910E+03 -0.51603064239E+03  0.73709578432E+03  0.91173475429E+02 0.  0.
    5000000    2    1    2    0    0 -0.42382493367E+03 -0.29846673910E+03 -0.14241689548E+04  0.16301136057E+04  0.60025260249E+03 0.  0.
         23    2    4    4    0    0 -0.67895581754E+02 -0.39628340339E+03 -0.78614742000E+03  0.88776364893E+03  0.91903126000E+02 0.  0.
         23    2    4    4    0    0 -0.35592935192E+03  0.97816664292E+02 -0.63802153484E+03  0.74234995677E+03  0.88080508730E+02 0.  0.
          3    1    3    3  502    0  0.60891600437E+02  0.78999214635E+02 -0.71732580575E+02  0.12285856109E+03  0.00000000000E+00 0. -1.
         -3    1    3    3    0  502  0.36293333323E+03  0.21946752447E+03 -0.44429806182E+03  0.61423722323E+03  0.00000000000E+00 0.  1.
         11    1    5    5    0    0 -0.44077574501E+02 -0.14835248380E+03 -0.39281237262E+03  0.42220001433E+03  0.00000000000E+00 0. -1.
        -11    1    5    5    0    0 -0.23818007253E+02 -0.24793091960E+03 -0.39333504738E+03  0.46556363460E+03  0.00000000000E+00 0.  1.
          2    1    6    6  503    0 -0.20819443178E+03  0.59105734292E+02 -0.45595230557E+03  0.50470874195E+03  0.00000000000E+00 0. -1.
         -2    1    6    6    0  503 -0.14773492014E+03  0.38710930000E+02 -0.18206922928E+03  0.23764121482E+03  0.00000000000E+00 0.  1.
<mgrwt>
<rscale>  0 0.64842603E+03</rscale>
<asrwt>0</asrwt>
<pdfrwt beam="1">  1        1 0.32846906E-01 0.64842603E+03</pdfrwt>
<pdfrwt beam="2">  1       -1 0.33133916E+00 0.64842603E+03</pdfrwt>
<totfact> 0.30155741E+00</totfact>
</mgrwt>
</event>
<event>
12    1  0.1444206E-007  0.6099529E+03  0.7818608E-02  0.9884969E-01
          2   -1    0    0  501    0  0.00000000000E+00  0.00000000000E+00  0.19098791506E+04  0.19098791506E+04  0.00000000000E+00 0. -1.
         -2   -1    0    0    0  501 -0.00000000000E+00 -0.00000000000E+00 -0.27284768964E+03  0.27284768964E+03  0.00000000000E+00 0.  1.
         23    2    1    2    0    0  0.45784946227E+03  0.13587198027E+03  0.14885530777E+03  0.50859263145E+03  0.91767298056E+02 0.  0.
    5000000    2    1    2    0    0 -0.45784946227E+03 -0.13587198027E+03  0.14881761532E+04  0.16741342088E+04  0.59997480032E+03 0.  0.
         23    2    4    4    0    0 -0.49416551379E+03 -0.28931154485E+03  0.12222569916E+04  0.13528081228E+04  0.90977681894E+02 0.  0.
         23    2    4    4    0    0  0.36316051518E+02  0.15343956458E+03  0.26591916166E+03  0.32132608606E+03  0.87606492157E+02 0.  0.
          4    1    3    3  502    0  0.17614322226E+03  0.87302216236E+02  0.92337552990E+02  0.21719653635E+03  0.00000000000E+00 0. -1.
         -4    1    3    3    0  502  0.28170624001E+03  0.48569764034E+02  0.56517754780E+02  0.29139609510E+03  0.00000000000E+00 0.  1.
         13    1    5    5    0    0 -0.35609246809E+03 -0.25355610067E+03  0.91473619896E+03  0.10138219053E+04  0.00000000000E+00 0.  1.
        -13    1    5    5    0    0 -0.13807304570E+03 -0.35755444176E+02  0.30752079260E+03  0.33898621745E+03  0.00000000000E+00 0. -1.
          3    1    6    6  503    0  0.20977634371E+02  0.91169400571E+02  0.22889435834E+03  0.24727423647E+03  0.00000000000E+00 0. -1.
         -3    1    6    6    0  503  0.15338417148E+02  0.62270164009E+02  0.37024803324E+02  0.74051849589E+02  0.00000000000E+00 0.  1.
<mgrwt>
<rscale>  0 0.60995292E+03</rscale>
<asrwt>0</asrwt>
<pdfrwt beam="1">  1        2 0.29382755E+00 0.60995292E+03</pdfrwt>
<pdfrwt beam="2">  1       -2 0.41976569E-01 0.60995292E+03</pdfrwt>
<totfact> 0.42296974E+01</totfact>
</mgrwt>
</event>
<event>
12    1  0.1444206E-007  0.9212865E+03  0.7818608E-02  0.9399357E-01
          2   -1    0    0  501    0  0.00000000000E+00  0.00000000000E+00  0.21909615227E+04  0.21909615227E+04  0.00000000000E+00 0. -1.
         -2   -1    0    0    0  501 -0.00000000000E+00 -0.00000000000E+00 -0.44303101182E+03  0.44303101182E+03  0.00000000000E+00 0.  1.
         23    2    1    2    0    0 -0.21473486803E+03  0.86466231920E+03  0.75851066581E+03  0.11736059405E+04  0.90887202688E+02 0.  0.
    5000000    2    1    2    0    0  0.21473486803E+03 -0.86466231920E+03  0.98941984511E+03  0.14603865941E+04  0.60002115335E+03 0.  0.
         23    2    4    4    0    0  0.15657345799E+03 -0.81457425094E+03  0.53570341619E+03  0.99139316758E+03  0.88520079980E+02 0.  0.
         23    2    4    4    0    0  0.58161410044E+02 -0.50088068256E+02  0.45371642893E+03  0.46899342650E+03  0.90579644647E+02 0.  0.
          3    1    3    3  502    0 -0.87027736368E+02  0.44942160363E+03  0.43976135993E+03  0.63477843252E+03  0.00000000000E+00 0. -1.
         -3    1    3    3    0  502 -0.12770713167E+03  0.41524071557E+03  0.31874930588E+03  0.53882750797E+03  0.00000000000E+00 0.  1.
         13    1    5    5    0    0  0.13054761020E+03 -0.49977738692E+03  0.30074904312E+03  0.59772075583E+03  0.00000000000E+00 0.  1.
        -13    1    5    5    0    0  0.26025847787E+02 -0.31479686402E+03  0.23495437307E+03  0.39367241175E+03  0.00000000000E+00 0. -1.
          3    1    6    6  503    0 -0.15314639741E+02 -0.41180944096E+02  0.19567736193E+03  0.20054934136E+03  0.00000000000E+00 0. -1.
         -3    1    6    6    0  503  0.73476049784E+02 -0.89071241598E+01  0.25803906700E+03  0.26844408514E+03  0.00000000000E+00 0.  1.
<mgrwt>
<rscale>  0 0.92128653E+03</rscale>
<asrwt>0</asrwt>
<pdfrwt beam="1">  1        2 0.33707100E+00 0.92128653E+03</pdfrwt>
<pdfrwt beam="2">  1       -2 0.68158618E-01 0.92128653E+03</pdfrwt>
<totfact> 0.10452394E+01</totfact>
</mgrwt>
</event>
<event>
12    1  0.1444206E-007  0.3706770E+03  0.7818608E-02  0.1054434E+00
          1   -1    0    0  501    0  0.00000000000E+00  0.00000000000E+00  0.20776521487E+04  0.20776521487E+04  0.00000000000E+00 0. -1.
         -1   -1    0    0    0  501 -0.00000000000E+00 -0.00000000000E+00 -0.18182608348E+03  0.18182608348E+03  0.00000000000E+00 0.  1.
         23    2    1    2    0    0  0.91659716691E+02 -0.16084842417E+03  0.15062511650E+04  0.15204242299E+04  0.92863059386E+02 0.  0.
    5000000    2    1    2    0    0 -0.91659716691E+02  0.16084842417E+03  0.38957490025E+03  0.73905400223E+03  0.60013206554E+03 0.  0.
         23    2    4    4    0    0  0.19454316903E+03 -0.18262772228E+02  0.31663717560E+03  0.38233058418E+03  0.87960224874E+02 0.  0.
         23    2    4    4    0    0 -0.28620288572E+03  0.17911119640E+03  0.72937724647E+02  0.35672341806E+03  0.89099791492E+02 0.  0.
          4    1    3    3  502    0 -0.18724036345E+02 -0.21377942608E+02  0.25898828170E+03  0.26054277197E+03  0.00000000000E+00 0. -1.
         -4    1    3    3    0  502  0.11038375304E+03 -0.13947048156E+03  0.12472628833E+04  0.12598814580E+04  0.00000000000E+00 0.  1.
         11    1    5    5    0    0  0.10018399862E+03 -0.23343444721E+02  0.89618449452E+02  0.13643026231E+03  0.00000000000E+00 0.  1.
        -11    1    5    5    0    0  0.94359170403E+02  0.50806724933E+01  0.22701872615E+03  0.24590032187E+03  0.00000000000E+00 0. -1.
          2    1    6    6  503    0 -0.15471671996E+03  0.10105987463E+03  0.84862459488E+02  0.20335190858E+03  0.00000000000E+00 0. -1.
         -2    1    6    6    0  503 -0.13148616576E+03  0.78051321773E+02 -0.11924734842E+02  0.15337150947E+03  0.00000000000E+00 0.  1.
<mgrwt>
<rscale>  0 0.37067703E+03</rscale>
<asrwt>0</asrwt>
<pdfrwt beam="1">  1        1 0.31963877E+00 0.37067703E+03</pdfrwt>
<pdfrwt beam="2">  1       -1 0.27973245E-01 0.37067703E+03</pdfrwt>
<totfact> 0.33870447E+01</totfact>
</mgrwt>
</event>
<event>
12    1  0.1444206E-007  0.1421197E+04  0.7818608E-02  0.8938616E-01
          1   -1    0    0  501    0  0.00000000000E+00  0.00000000000E+00  0.36860802152E+04  0.36860802152E+04  0.00000000000E+00 0. -1.
         -1   -1    0    0    0  501 -0.00000000000E+00 -0.00000000000E+00 -0.72313845593E+03  0.72313845593E+03  0.00000000000E+00 0.  1.
         23    2    1    2    0    0  0.60372161453E+03 -0.12188377951E+04  0.35747652040E+03  0.14094800363E+04  0.93803791964E+02 0.  0.
    5000000    2    1    2    0    0 -0.60372161453E+03  0.12188377951E+04  0.26054652389E+04  0.29997386349E+04  0.59994783761E+03 0.  0.
         23    2    4    4    0    0 -0.28116801534E+03  0.10787657823E+04  0.20659597893E+04  0.23493238637E+04  0.91332905506E+02 0.  0.
         23    2    4    4    0    0 -0.32255359919E+03  0.14007201282E+03  0.53950544957E+03  0.65041477117E+03  0.91171548775E+02 0.  0.
          2    1    3    3  502    0  0.30610178455E+03 -0.52268218203E+03  0.17914062323E+03  0.63165364624E+03  0.00000000000E+00 0. -1.
         -2    1    3    3    0  502  0.29761982998E+03 -0.69615561308E+03  0.17833589717E+03  0.77782639004E+03  0.00000000000E+00 0.  1.
         13    1    5    5    0    0 -0.18186869357E+03  0.79883303760E+03  0.14485634546E+04  0.16641954589E+04  0.00000000000E+00 0. -1.
        -13    1    5    5    0    0 -0.99299321769E+02  0.27993274469E+03  0.61739633475E+03  0.68512840476E+03  0.00000000000E+00 0.  1.
          4    1    6    6  503    0 -0.20635578754E+03  0.13573070900E+03  0.36463450865E+03  0.44041328467E+03  0.00000000000E+00 0. -1.
         -4    1    6    6    0  503 -0.11619781165E+03  0.43413038252E+01  0.17487094092E+03  0.21000148650E+03  0.00000000000E+00 0.  1.
<mgrwt>
<rscale>  0 0.14211971E+04</rscale>
<asrwt>0</asrwt>
<pdfrwt beam="1">  1        1 0.56708925E+00 0.14211971E+04</pdfrwt>
<pdfrwt beam="2">  1       -1 0.11125207E+00 0.14211971E+04</pdfrwt>
<totfact> 0.12814424E-01</totfact>
</mgrwt>
</event>
<event>
12    1  0.1444206E-007  0.8671643E+03  0.7818608E-02  0.9467585E-01
         -1   -1    0    0    0  501 -0.00000000000E+00  0.00000000000E+00  0.45335538844E+03  0.45335538844E+03  0.00000000000E+00 0.  1.
          1   -1    0    0  501    0  0.00000000000E+00 -0.00000000000E+00 -0.20398873725E+04  0.20398873725E+04  0.00000000000E+00 0. -1.
         23    2    1    2    0    0 -0.68973274806E+03  0.48127518044E+03 -0.98198865140E+03  0.12962275290E+04  0.92450161234E+02 0.  0.
    5000000    2    1    2    0    0  0.68973274806E+03 -0.48127518044E+03 -0.60454333261E+03  0.11970152319E+04  0.60001313436E+03 0.  0.
         23    2    4    4    0    0  0.35442413881E+03 -0.39515816097E+03 -0.64074810345E+03  0.83647885715E+03  0.85862122274E+02 0.  0.
         23    2    4    4    0    0  0.33530860925E+03 -0.86117019472E+02  0.36204770840E+02  0.36053637477E+03  0.93955774819E+02 0.  0.
          1    1    3    3  502    0 -0.12433861194E+03  0.46329371787E+02 -0.16078632582E+03  0.20846760823E+03  0.00000000000E+00 0. -1.
         -1    1    3    3    0  502 -0.56539413613E+03  0.43494580866E+03 -0.82120232558E+03  0.10877599207E+04  0.00000000000E+00 0.  1.
         13    1    5    5    0    0  0.54216653013E+02 -0.60667885086E+02 -0.55194972879E+02  0.98318476269E+02  0.00000000000E+00 0. -1.
        -13    1    5    5    0    0  0.30020748580E+03 -0.33449027589E+03 -0.58555313057E+03  0.73816038089E+03  0.00000000000E+00 0.  1.
          1    1    6    6  503    0  0.32461501680E+03 -0.61148627943E+02  0.25383074687E+02  0.33129799926E+03  0.00000000000E+00 0. -1.
         -1    1    6    6    0  503  0.10693592450E+02 -0.24968391529E+02  0.10821696153E+02  0.29238375513E+02  0.00000000000E+00 0.  1.
<mgrwt>
<rscale>  0 0.86716434E+03</rscale>
<asrwt>0</asrwt>
<pdfrwt beam="1">  1        1 0.31382882E+00 0.86716434E+03</pdfrwt>
<pdfrwt beam="2">  1       -1 0.69746983E-01 0.86716434E+03</pdfrwt>
<totfact> 0.59957109E+00</totfact>
</mgrwt>
</event>
<event>
12    1  0.1444206E-007  0.1554307E+04  0.7818608E-02  0.8849121E-01
         -2   -1    0    0    0  501 -0.00000000000E+00  0.00000000000E+00  0.78403615704E+03  0.78403615704E+03  0.00000000000E+00 0.  1.
          2   -1    0    0  501    0  0.00000000000E+00 -0.00000000000E+00 -0.32351639022E+04  0.32351639022E+04  0.00000000000E+00 0. -1.
         23    2    1    2    0    0 -0.10546729926E+03  0.14947784333E+04 -0.16016343999E+04  0.21952529398E+04  0.91743133359E+02 0.  0.
    5000000    2    1    2    0    0  0.10546729926E+03 -0.14947784333E+04 -0.84949334524E+03  0.18239471195E+04  0.59971512835E+03 0.  0.
         23    2    4    4    0    0 -0.23241912147E+03 -0.77122690524E+03 -0.44607135888E+03  0.92482505733E+03  0.86672614304E+02 0.  0.
         23    2    4    4    0    0  0.33788642073E+03 -0.72355152809E+03 -0.40342198636E+03  0.89912206217E+03  0.89314816723E+02 0.  0.
          3    1    3    3  502    0 -0.87131930177E+02  0.82547589602E+03 -0.93803000362E+03  0.12525584680E+04  0.00000000000E+00 0. -1.
         -3    1    3    3    0  502 -0.18335369085E+02  0.66930253731E+03 -0.66360439633E+03  0.94269447173E+03  0.00000000000E+00 0.  1.
         11    1    5    5    0    0 -0.10271491236E+03 -0.23960698168E+03 -0.17642901122E+03  0.31478414015E+03  0.00000000000E+00 0. -1.
        -11    1    5    5    0    0 -0.12970420910E+03 -0.53161992355E+03 -0.26964234767E+03  0.61004091718E+03  0.00000000000E+00 0.  1.
          1    1    6    6  503    0  0.12955793942E+03 -0.20815538771E+03 -0.15627811244E+03  0.29075208258E+03  0.00000000000E+00 0. -1.
         -1    1    6    6    0  503  0.20832848130E+03 -0.51539614039E+03 -0.24714387392E+03  0.60836997959E+03  0.00000000000E+00 0.  1.
<mgrwt>
<rscale>  0 0.15543068E+04</rscale>
<asrwt>0</asrwt>
<pdfrwt beam="1">  1        2 0.49771752E+00 0.15543068E+04</pdfrwt>
<pdfrwt beam="2">  1       -2 0.12062095E+00 0.15543068E+04</pdfrwt>
<totfact> 0.61175558E-01</totfact>
</mgrwt>
</event>
<event>
12    1  0.1444206E-007  0.1069693E+04  0.7818608E-02  0.9235245E-01
         -2   -1    0    0    0  501 -0.00000000000E+00  0.00000000000E+00  0.43953229163E+03  0.43953229163E+03  0.00000000000E+00 0. -1.
          2   -1    0    0  501    0  0.00000000000E+00 -0.00000000000E+00 -0.29338922233E+04  0.29338922233E+04  0.00000000000E+00 0.  1.
         23    2    1    2    0    0 -0.74120729689E+03  0.73570476763E+03 -0.94801743275E+03  0.14133532118E+04  0.90446041336E+02 0.  0.
    5000000    2    1    2    0    0  0.74120729689E+03 -0.73570476763E+03 -0.15463424989E+04  0.19600713031E+04  0.60004552107E+03 0.  0.
         23    2    4    4    0    0  0.71178063669E+03 -0.68014375805E+03 -0.10167918001E+04  0.14185825572E+04  0.96351961386E+02 0.  0.
         23    2    4    4    0    0  0.29426660201E+02 -0.55561009582E+02 -0.52955069882E+03  0.54148874594E+03  0.93984920289E+02 0.  0.
          2    1    3    3  502    0 -0.31685580691E+03  0.34776720901E+03 -0.47853829105E+03  0.67107267120E+03  0.00000000000E+00 0. -1.
         -2    1    3    3    0  502 -0.42435148998E+03  0.38793755862E+03 -0.46947914169E+03  0.74228054058E+03  0.00000000000E+00 0.  1.
         13    1    5    5    0    0  0.39903874964E+03 -0.44059498722E+03 -0.63957192585E+03  0.87315984494E+03  0.00000000000E+00 0.  1.
        -13    1    5    5    0    0  0.31274188705E+03 -0.23954877083E+03 -0.37721987422E+03  0.54542271224E+03  0.00000000000E+00 0. -1.
          1    1    6    6  503    0  0.54505267143E+02 -0.58941916262E+02 -0.30030357828E+03  0.31084918009E+03  0.00000000000E+00 0. -1.
         -1    1    6    6    0  503 -0.25078606942E+02  0.33809066797E+01 -0.22924712055E+03  0.23063956585E+03  0.00000000000E+00 0.  1.
<mgrwt>
<rscale>  0 0.10696930E+04</rscale>
<asrwt>0</asrwt>
<pdfrwt beam="1">  1        2 0.45136805E+00 0.10696930E+04</pdfrwt>
<pdfrwt beam="2">  1       -2 0.67620350E-01 0.10696930E+04</pdfrwt>
<totfact> 0.38786037E+00</totfact>
</mgrwt>
</event>
<event>
12    1  0.1444206E-007  0.1158421E+04  0.7818608E-02  0.9150050E-01
         -2   -1    0    0    0  501 -0.00000000000E+00  0.00000000000E+00  0.16258581278E+04  0.16258581278E+04  0.00000000000E+00 0.  1.
          2   -1    0    0  501    0  0.00000000000E+00 -0.00000000000E+00 -0.93613757436E+03  0.93613757436E+03  0.00000000000E+00 0. -1.
         23    2    1    2    0    0  0.10758744978E+04  0.27160749947E+03 -0.21948166217E+02  0.11136790539E+04  0.92318710698E+02 0.  0.
    5000000    2    1    2    0    0 -0.10758744978E+04 -0.27160749947E+03  0.71166871965E+03  0.14483166483E+04  0.59989347257E+03 0.  0.
         23    2    4    4    0    0 -0.84689179273E+03 -0.11608396198E+02  0.67459952921E+03  0.10863758783E+04  0.88133766153E+02 0.  0.
         23    2    4    4    0    0 -0.22898270503E+03 -0.25999910327E+03  0.37069190434E+02  0.36194076995E+03  0.97950922220E+02 0.  0.
          1    1    3    3  502    0  0.67978746419E+03  0.12543150073E+03 -0.14218949657E+02  0.69140887785E+03  0.00000000000E+00 0. -1.
         -1    1    3    3    0  502  0.39608703357E+03  0.14617599874E+03 -0.77292165593E+01  0.42227017603E+03  0.00000000000E+00 0.  1.
         13    1    5    5    0    0 -0.43694206620E+03 -0.41374935982E+00  0.40361428094E+03  0.59483025157E+03  0.00000000000E+00 0.  1.
        -13    1    5    5    0    0 -0.40994972653E+03 -0.11194646838E+02  0.27098524827E+03  0.49154562676E+03  0.00000000000E+00 0. -1.
          3    1    6    6  503    0 -0.25871176194E+02  0.66556836772E+00 -0.10788678152E+02  0.28038479188E+02  0.00000000000E+00 0. -1.
         -3    1    6    6    0  503 -0.20311152883E+03 -0.26066467164E+03  0.47857868586E+02  0.33390229076E+03  0.00000000000E+00 0.  1.
<mgrwt>
<rscale>  0 0.11584207E+04</rscale>
<asrwt>0</asrwt>
<pdfrwt beam="1">  1        2 0.14402117E+00 0.11584207E+04</pdfrwt>
<pdfrwt beam="2">  1       -2 0.25013202E+00 0.11584207E+04</pdfrwt>
<totfact> 0.17415135E+00</totfact>
</mgrwt>
</event>
<event>
12    1  0.1444206E-007  0.5449858E+03  0.7818608E-02  0.1002661E+00
          2   -1    0    0  501    0  0.00000000000E+00  0.00000000000E+00  0.26751967207E+03  0.26751967207E+03  0.00000000000E+00 0. -1.
         -2   -1    0    0    0  501 -0.00000000000E+00 -0.00000000000E+00 -0.17319650696E+04  0.17319650696E+04  0.00000000000E+00 0.  1.
         23    2    1    2    0    0  0.14631666125E+03 -0.46717268255E+03 -0.94111670094E+03  0.10648875070E+04  0.92875600156E+02 0.  0.
    5000000    2    1    2    0    0 -0.14631666125E+03  0.46717268255E+03 -0.52332869663E+03  0.93459723470E+03  0.59995015269E+03 0.  0.
         23    2    4    4    0    0  0.91451745042E+02  0.94580783631E+02 -0.45022001730E+03  0.47768594195E+03  0.90425930237E+02 0.  0.
         23    2    4    4    0    0 -0.23776840629E+03  0.37259189892E+03 -0.73108679328E+02  0.45691129275E+03  0.89802629564E+02 0.  0.
          1    1    3    3  502    0  0.71088001749E+02 -0.11013645824E+03 -0.20548195280E+03  0.24373423303E+03  0.00000000000E+00 0. -1.
         -1    1    3    3    0  502  0.75228659501E+02 -0.35703622431E+03 -0.73563474814E+03  0.82115327397E+03  0.00000000000E+00 0.  1.
         13    1    5    5    0    0  0.95166998922E+02  0.98933853258E+02 -0.33111607839E+03  0.35844458759E+03  0.00000000000E+00 0. -1.
        -13    1    5    5    0    0 -0.37152538797E+01 -0.43530696276E+01 -0.11910393891E+03  0.11924135436E+03  0.00000000000E+00 0.  1.
          3    1    6    6  503    0 -0.92936383227E+02  0.22865214594E+03 -0.38262656489E+02  0.24976590250E+03  0.00000000000E+00 0. -1.
         -3    1    6    6    0  503 -0.14483202306E+03  0.14393975298E+03 -0.34846022839E+02  0.20714539024E+03  0.00000000000E+00 0.  1.
<mgrwt>
<rscale>  0 0.54498581E+03</rscale>
<asrwt>0</asrwt>
<pdfrwt beam="1">  1        2 0.41156874E-01 0.54498581E+03</pdfrwt>
<pdfrwt beam="2">  1       -2 0.26645615E+00 0.54498581E+03</pdfrwt>
<totfact> 0.67381473E+00</totfact>
</mgrwt>
</event>
<event>
12    1  0.1444206E-007  0.6224554E+03  0.7818608E-02  0.9859883E-01
          2   -1    0    0  501    0  0.00000000000E+00  0.00000000000E+00  0.26965357660E+04  0.26965357660E+04  0.00000000000E+00 0.  1.
         -2   -1    0    0    0  501 -0.00000000000E+00 -0.00000000000E+00 -0.16262376592E+03  0.16262376592E+03  0.00000000000E+00 0. -1.
         23    2    1    2    0    0 -0.51596951648E+03 -0.10284558697E+02  0.11741549341E+04  0.12858720655E+04  0.92178335162E+02 0.  0.
    5000000    2    1    2    0    0  0.51596951648E+03  0.10284558697E+02  0.13597570660E+04  0.15732874664E+04  0.59996988211E+03 0.  0.
         23    2    4    4    0    0  0.39944918918E+03 -0.22090895406E+03  0.11091326462E+04  0.12029675184E+04  0.92710316263E+02 0.  0.
         23    2    4    4    0    0  0.11652032730E+03  0.23119351275E+03  0.25062441976E+03  0.37031994800E+03  0.85421525963E+02 0.  0.
          2    1    3    3  502    0 -0.73769256222E+02  0.21803291331E+01  0.10079578014E+03  0.12492576312E+03  0.00000000000E+00 0. -1.
         -2    1    3    3    0  502 -0.44220026026E+03 -0.12464887831E+02  0.10733591540E+04  0.11609463024E+04  0.00000000000E+00 0.  1.
         13    1    5    5    0    0  0.38734356925E+02 -0.57522554595E+02  0.14731870248E+03  0.16282504351E+03  0.00000000000E+00 0.  1.
        -13    1    5    5    0    0  0.36071483226E+03 -0.16338639946E+03  0.96181394372E+03  0.10401424749E+04  0.00000000000E+00 0. -1.
          1    1    6    6  503    0  0.93975356518E+02  0.13432355346E+03  0.20036719576E+03  0.25888452597E+03  0.00000000000E+00 0. -1.
         -1    1    6    6    0  503  0.22544970777E+02  0.96869959294E+02  0.50257223995E+02  0.11143542204E+03  0.00000000000E+00 0.  1.
<mgrwt>
<rscale>  0 0.62245544E+03</rscale>
<asrwt>0</asrwt>
<pdfrwt beam="1">  1        2 0.41485162E+00 0.62245544E+03</pdfrwt>
<pdfrwt beam="2">  1       -2 0.25019043E-01 0.62245544E+03</pdfrwt>
<totfact> 0.40797683E+01</totfact>
</mgrwt>
</event>
<event>
12    1  0.1444206E-007  0.8937162E+03  0.7818608E-02  0.9433471E-01
         -1   -1    0    0    0  501 -0.00000000000E+00  0.00000000000E+00  0.96604116164E+03  0.96604116164E+03  0.00000000000E+00 0.  1.
          1   -1    0    0  501    0  0.00000000000E+00 -0.00000000000E+00 -0.15751081832E+04  0.15751081832E+04  0.00000000000E+00 0. -1.
         23    2    1    2    0    0 -0.77621383689E+03  0.18227119286E+03  0.57914878128E+03  0.98952308538E+03  0.89509314166E+02 0.  0.
    5000000    2    1    2    0    0  0.77621383689E+03 -0.18227119286E+03 -0.11882158028E+04  0.15516262594E+04  0.59996378773E+03 0.  0.
         23    2    4    4    0    0  0.34155717473E+03 -0.37372159782E+03 -0.61290970164E+03  0.80005165254E+03  0.89973374302E+02 0.  0.
         23    2    4    4    0    0  0.43465666216E+03  0.19145040495E+03 -0.57530610117E+03  0.75157460690E+03  0.91146081464E+02 0.  0.
          2    1    3    3  502    0 -0.45485469023E+03  0.10500403424E+03  0.28410982545E+03  0.54647692481E+03  0.00000000000E+00 0. -1.
         -2    1    3    3    0  502 -0.32135914666E+03  0.77267158624E+02  0.29503895583E+03  0.44304616057E+03  0.00000000000E+00 0.  1.
         11    1    5    5    0    0  0.29364241171E+03 -0.29529362627E+03 -0.45089109919E+03  0.61378088517E+03  0.00000000000E+00 0. -1.
        -11    1    5    5    0    0  0.47914763014E+02 -0.78427971542E+02 -0.16201860245E+03  0.18627076737E+03  0.00000000000E+00 0.  1.
          1    1    6    6  503    0  0.42936107831E+03  0.17359860105E+03 -0.56402803160E+03  0.72980478916E+03  0.00000000000E+00 0. -1.
         -1    1    6    6    0  503  0.52955838543E+01  0.17851803904E+02 -0.11278069576E+02  0.21769817738E+02  0.00000000000E+00 0.  1.
<mgrwt>
<rscale>  0 0.89371619E+03</rscale>
<asrwt>0</asrwt>
<pdfrwt beam="1">  1        1 0.24232434E+00 0.89371619E+03</pdfrwt>
<pdfrwt beam="2">  1       -1 0.14862172E+00 0.89371619E+03</pdfrwt>
<totfact> 0.21220454E+00</totfact>
</mgrwt>
</event>
<event>
12    1  0.1444206E-007  0.9228795E+03  0.7818608E-02  0.9397424E-01
         -2   -1    0    0    0  501 -0.00000000000E+00  0.00000000000E+00  0.41213251367E+03  0.41213251367E+03  0.00000000000E+00 0. -1.
          2   -1    0    0  501    0  0.00000000000E+00 -0.00000000000E+00 -0.37014037109E+04  0.37014037109E+04  0.00000000000E+00 0.  1.
         23    2    1    2    0    0 -0.46165336978E+03 -0.74696980210E+03 -0.28671597032E+03  0.92821348454E+03  0.91030248596E+02 0.  0.
    5000000    2    1    2    0    0  0.46165336978E+03  0.74696980210E+03 -0.30025552269E+04  0.31853227400E+04  0.59987944493E+03 0.  0.
         23    2    4    4    0    0  0.43205932233E+03  0.77350902360E+03 -0.29300447173E+04  0.30626459494E+04  0.98217606593E+02 0.  0.
         23    2    4    4    0    0  0.29594047447E+02 -0.26539221499E+02 -0.72510509608E+02  0.12267679066E+03  0.90618337216E+02 0.  0.
          2    1    3    3  502    0 -0.23207256685E+03 -0.37646446124E+03 -0.19223949095E+03  0.48222317317E+03  0.00000000000E+00 0. -1.
         -2    1    3    3    0  502 -0.22958080292E+03 -0.37050534086E+03 -0.94476479378E+02  0.44599031136E+03  0.00000000000E+00 0.  1.
         11    1    5    5    0    0  0.35265187895E+03  0.63765522071E+03 -0.22692017072E+04  0.23833262295E+04  0.00000000000E+00 0. -1.
        -11    1    5    5    0    0  0.79407443379E+02  0.13585380289E+03 -0.66084301012E+03  0.67931971991E+03  0.00000000000E+00 0.  1.
          4    1    6    6  503    0 -0.14873556384E+02 -0.33449378795E+02 -0.68283714753E+02  0.77477411687E+02  0.00000000000E+00 0. -1.
         -4    1    6    6    0  503  0.44467603832E+02  0.69101572953E+01 -0.42267948548E+01  0.45199378968E+02  0.00000000000E+00 0.  1.
<mgrwt>
<rscale>  0 0.92287953E+03</rscale>
<asrwt>0</asrwt>
<pdfrwt beam="1">  1        2 0.56944671E+00 0.92287953E+03</pdfrwt>
<pdfrwt beam="2">  1       -2 0.63405004E-01 0.92287953E+03</pdfrwt>
<totfact> 0.14184542E+00</totfact>
</mgrwt>
</event>
<event>
12    1  0.1444206E-007  0.6955438E+03  0.7818608E-02  0.9724883E-01
          2   -1    0    0  501    0  0.00000000000E+00  0.00000000000E+00  0.81399909903E+03  0.81399909903E+03  0.00000000000E+00 0. -1.
         -2   -1    0    0    0  501 -0.00000000000E+00 -0.00000000000E+00 -0.71871173198E+03  0.71871173198E+03  0.00000000000E+00 0.  1.
         23    2    1    2    0    0 -0.31364633848E+02 -0.63182229321E+03  0.15770641188E+03  0.65847813663E+03  0.92406675239E+02 0.  0.
    5000000    2    1    2    0    0  0.31364633848E+02  0.63182229321E+03 -0.62419044825E+02  0.87423269437E+03  0.60016957295E+03 0.  0.
         23    2    4    4    0    0  0.21600861732E+03  0.38229345851E+03  0.16622581659E+03  0.47826745373E+03  0.91108309303E+02 0.  0.
         23    2    4    4    0    0 -0.18464398347E+03  0.24952883470E+03 -0.22864486141E+03  0.39596524064E+03  0.90288200594E+02 0.  0.
          3    1    3    3  502    0 -0.10922167445E+02 -0.58347478470E+03  0.12558088635E+03  0.59693607458E+03  0.00000000000E+00 0. -1.
         -3    1    3    3    0  502 -0.20442466403E+02 -0.48347508511E+02  0.32125525521E+02  0.61542062054E+02  0.00000000000E+00 0.  1.
         11    1    5    5    0    0  0.14202040265E+03  0.18085511339E+03  0.11739289284E+03  0.25818493004E+03  0.00000000000E+00 0. -1.
        -11    1    5    5    0    0  0.73988214663E+02  0.20143834512E+03  0.48832923747E+02  0.22008252369E+03  0.00000000000E+00 0.  1.
          2    1    6    6  503    0 -0.16775007828E+03  0.22939662527E+03 -0.23518391889E+03  0.36888260484E+03  0.00000000000E+00 0. -1.
         -2    1    6    6    0  503 -0.16893905190E+02  0.20132209426E+02  0.65390574814E+01  0.27082635797E+02  0.00000000000E+00 0.  1.
<mgrwt>
<rscale>  0 0.69554383E+03</rscale>
<asrwt>0</asrwt>
<pdfrwt beam="1">  1        2 0.12523063E+00 0.69554383E+03</pdfrwt>
<pdfrwt beam="2">  1       -2 0.11057104E+00 0.69554383E+03</pdfrwt>
<totfact> 0.22275521E+01</totfact>
</mgrwt>
</event>
<event>
12    1  0.1444206E-007  0.5430276E+03  0.7818608E-02  0.1003121E+00
          2   -1    0    0  501    0  0.00000000000E+00  0.00000000000E+00  0.17890579764E+04  0.17890579764E+04  0.00000000000E+00 0. -1.
         -2   -1    0    0    0  501 -0.00000000000E+00 -0.00000000000E+00 -0.28953558556E+03  0.28953558556E+03  0.00000000000E+00 0.  1.
         23    2    1    2    0    0  0.41478313159E+03  0.88975956201E+02  0.29284060482E+02  0.43521412716E+03  0.92693113276E+02 0.  0.
    5000000    2    1    2    0    0 -0.41478313159E+03 -0.88975956201E+02  0.14702383303E+04  0.16433794348E+04  0.59927744127E+03 0.  0.
         23    2    4    4    0    0 -0.51607357509E+03 -0.48010081270E+02  0.13759848795E+04  0.14731988777E+04  0.91343536656E+02 0.  0.
         23    2    4    4    0    0  0.10129044350E+03 -0.40965874931E+02  0.94253450789E+02  0.17018055708E+03  0.90220575092E+02 0.  0.
          3    1    3    3  502    0  0.21355774426E+03  0.29544205930E+02  0.58459343047E+02  0.22337695724E+03  0.00000000000E+00 0. -1.
         -3    1    3    3    0  502  0.20122538733E+03  0.59431750270E+02 -0.29175282565E+02  0.21183716992E+03  0.00000000000E+00 0.  1.
         13    1    5    5    0    0 -0.37064086691E+03 -0.20024050351E+02  0.10842361877E+04  0.11460120966E+04  0.00000000000E+00 0. -1.
        -13    1    5    5    0    0 -0.14543270817E+03 -0.27986030919E+02  0.29174869186E+03  0.32718678111E+03  0.00000000000E+00 0.  1.
          2    1    6    6  503    0  0.15264689693E+02 -0.52402038296E+02  0.42120823040E+02  0.68943078714E+02  0.00000000000E+00 0. -1.
         -2    1    6    6    0  503  0.86025753805E+02  0.11436163365E+02  0.52132627749E+02  0.10123747837E+03  0.00000000000E+00 0.  1.
<mgrwt>
<rscale>  0 0.54302756E+03</rscale>
<asrwt>0</asrwt>
<pdfrwt beam="1">  1        2 0.27523968E+00 0.54302756E+03</pdfrwt>
<pdfrwt beam="2">  1       -2 0.44543937E-01 0.54302756E+03</pdfrwt>
<totfact> 0.44188795E+01</totfact>
</mgrwt>
</event>
<event>
12    1  0.1444206E-007  0.9059870E+03  0.7818608E-02  0.9418128E-01
         -1   -1    0    0    0  501 -0.00000000000E+00  0.00000000000E+00  0.14419343147E+04  0.14419343147E+04  0.00000000000E+00 0.  1.
          1   -1    0    0  501    0  0.00000000000E+00 -0.00000000000E+00 -0.21698551210E+04  0.21698551210E+04  0.00000000000E+00 0. -1.
         23    2    1    2    0    0  0.40477241116E+03  0.69910915884E+03 -0.18999821619E+04  0.20670951448E+04  0.10176345750E+03 0.  0.
    5000000    2    1    2    0    0 -0.40477241116E+03 -0.69910915884E+03  0.11720613556E+04  0.15446942908E+04  0.59979855772E+03 0.  0.
         23    2    4    4    0    0  0.46600553011E+02 -0.49234349291E+03  0.56413828144E+03  0.75458896656E+03  0.81109686905E+02 0.  0.
         23    2    4    4    0    0 -0.45137296417E+03 -0.20676566593E+03  0.60792307418E+03  0.79010532423E+03  0.90588994188E+02 0.  0.
          3    1    3    3  502    0  0.11167345525E+03  0.27429249873E+03 -0.62518975815E+03  0.69178722825E+03  0.00000000000E+00 0. -1.
         -3    1    3    3    0  502  0.29309895591E+03  0.42481666011E+03 -0.12747924038E+04  0.13753079166E+04  0.00000000000E+00 0.  1.
         13    1    5    5    0    0  0.78742506195E+01 -0.20111620715E+03  0.28826000784E+03  0.35157298634E+03  0.00000000000E+00 0. -1.
        -13    1    5    5    0    0  0.38726302392E+02 -0.29122728576E+03  0.27587827360E+03  0.40301598022E+03  0.00000000000E+00 0.  1.
          1    1    6    6  503    0 -0.31255258254E+03 -0.18753115867E+03  0.43509707584E+03  0.56759714387E+03  0.00000000000E+00 0. -1.
         -1    1    6    6    0  503 -0.13882038163E+03 -0.19234507254E+02  0.17282599834E+03  0.22250818036E+03  0.00000000000E+00 0.  1.
<mgrwt>
<rscale>  0 0.90598702E+03</rscale>
<asrwt>0</asrwt>
<pdfrwt beam="1">  1        1 0.33382386E+00 0.90598702E+03</pdfrwt>
<pdfrwt beam="2">  1       -1 0.22183605E+00 0.90598702E+03</pdfrwt>
<totfact> 0.25300075E-01</totfact>
</mgrwt>
</event>
<event>
12    1  0.1444206E-007  0.1888369E+04  0.7818608E-02  0.8660667E-01
          2   -1    0    0  501    0  0.00000000000E+00  0.00000000000E+00  0.27900531961E+04  0.27900531961E+04  0.00000000000E+00 0. -1.
         -2   -1    0    0    0  501 -0.00000000000E+00 -0.00000000000E+00 -0.13158429330E+04  0.13158429330E+04  0.00000000000E+00 0.  1.
         23    2    1    2    0    0 -0.30175112232E+03 -0.18334090996E+04  0.51437869262E+03  0.19301971131E+04  0.92912807954E+02 0.  0.
    5000000    2    1    2    0    0  0.30175112232E+03  0.18334090996E+04  0.95983157050E+03  0.21756990160E+04  0.59995574697E+03 0.  0.
         23    2    4    4    0    0  0.40021702783E+03  0.10462344817E+04  0.37171400182E+03  0.11836395286E+04  0.89727223355E+02 0.  0.
         23    2    4    4    0    0 -0.98465905508E+02  0.78717461790E+03  0.58811756868E+03  0.99205948737E+03  0.94659063352E+02 0.  0.
          1    1    3    3  502    0 -0.15160426804E+03 -0.68295844920E+03  0.16965591646E+03  0.71986056109E+03  0.00000000000E+00 0. -1.
         -1    1    3    3    0  502 -0.15014685428E+03 -0.11504506504E+04  0.34472277616E+03  0.12103365520E+04  0.00000000000E+00 0.  1.
         11    1    5    5    0    0  0.10046668716E+03  0.22149956213E+03  0.11702645916E+03  0.26990887980E+03  0.00000000000E+00 0. -1.
        -11    1    5    5    0    0  0.29975034067E+03  0.82473491954E+03  0.25468754266E+03  0.91373064884E+03  0.00000000000E+00 0.  1.
          3    1    6    6  503    0 -0.75254898389E+02  0.73807689129E+03  0.56711912516E+03  0.93383344302E+03  0.00000000000E+00 0. -1.
         -3    1    6    6    0  503 -0.23211007119E+02  0.49097726609E+02  0.20998443519E+02  0.58226044343E+02  0.00000000000E+00 0.  1.
<mgrwt>
<rscale>  0 0.18883693E+04</rscale>
<asrwt>0</asrwt>
<pdfrwt beam="1">  1        2 0.42923895E+00 0.18883693E+04</pdfrwt>
<pdfrwt beam="2">  1       -2 0.20243738E+00 0.18883693E+04</pdfrwt>
<totfact> 0.27147114E-01</totfact>
</mgrwt>
</event>
<event>
12    1  0.1444206E-007  0.5411067E+03  0.7818608E-02  0.1003574E+00
         -1   -1    0    0    0  501 -0.00000000000E+00  0.00000000000E+00  0.27234405356E+03  0.27234405356E+03  0.00000000000E+00 0.  1.
          1   -1    0    0  501    0  0.00000000000E+00 -0.00000000000E+00 -0.14268401018E+04  0.14268401018E+04  0.00000000000E+00 0. -1.
         23    2    1    2    0    0 -0.11204615915E+03 -0.45597669115E+03 -0.52972556239E+03  0.71388914063E+03  0.92517290253E+02 0.  0.
    5000000    2    1    2    0    0  0.11204615915E+03  0.45597669115E+03 -0.62477048585E+03  0.98529501473E+03  0.59999918452E+03 0.  0.
         23    2    4    4    0    0 -0.11049873334E+03  0.29106442896E+03 -0.32410364707E+02  0.32490320943E+03  0.87081524369E+02 0.  0.
         23    2    4    4    0    0  0.22254489249E+03  0.16491226220E+03 -0.59236012114E+03  0.66039180530E+03  0.92220062871E+02 0.  0.
          1    1    3    3  502    0 -0.77945048429E+02 -0.13680286833E+03 -0.18216571170E+03  0.24077957114E+03  0.00000000000E+00 0.  1.
         -1    1    3    3    0  502 -0.34101110721E+02 -0.31917382282E+03 -0.34755985069E+03  0.47310956949E+03  0.00000000000E+00 0. -1.
         11    1    5    5    0    0 -0.63037568192E+02  0.11617106723E+03 -0.53238605459E+02  0.14249140668E+03  0.00000000000E+00 0. -1.
        -11    1    5    5    0    0 -0.47461165148E+02  0.17489336172E+03  0.20828240753E+02  0.18241180276E+03  0.00000000000E+00 0.  1.
          3    1    6    6  503    0  0.21329090659E+03  0.12041755313E+03 -0.47264978435E+03  0.53234501649E+03  0.00000000000E+00 0. -1.
         -3    1    6    6    0  503  0.92539858954E+01  0.44494709069E+02 -0.11971033679E+03  0.12804678881E+03  0.00000000000E+00 0.  1.
<mgrwt>
<rscale>  0 0.54110670E+03</rscale>
<asrwt>0</asrwt>
<pdfrwt beam="1">  1        1 0.21951386E+00 0.54110670E+03</pdfrwt>
<pdfrwt beam="2">  1       -1 0.41899085E-01 0.54110670E+03</pdfrwt>
<totfact> 0.43500209E+01</totfact>
</mgrwt>
</event>
<event>
12    1  0.1444206E-007  0.1301845E+04  0.7818608E-02  0.9028103E-01
         -2   -1    0    0    0  501 -0.00000000000E+00  0.00000000000E+00  0.89965829002E+03  0.89965829002E+03  0.00000000000E+00 0.  1.
          2   -1    0    0  501    0  0.00000000000E+00 -0.00000000000E+00 -0.28904478902E+04  0.28904478902E+04  0.00000000000E+00 0. -1.
         23    2    1    2    0    0 -0.62593990481E+03  0.11065070791E+04 -0.20150674427E+04  0.23841602818E+04  0.86975688730E+02 0.  0.
    5000000    2    1    2    0    0  0.62593990481E+03 -0.11065070791E+04  0.24277842505E+02  0.14059458984E+04  0.59994647681E+03 0.  0.
         23    2    4    4    0    0  0.12847749037E+03 -0.59084685950E+03 -0.21009711890E+03  0.64615536873E+03  0.88144677980E+02 0.  0.
         23    2    4    4    0    0  0.49746241444E+03 -0.51566021959E+03  0.23437496141E+03  0.75979052965E+03  0.94740226783E+02 0.  0.
          1    1    3    3  502    0 -0.26448858153E+03  0.46470240949E+03 -0.76797925805E+03  0.93578559507E+03  0.00000000000E+00 0. -1.
         -1    1    3    3    0  502 -0.36145132328E+03  0.64180466959E+03 -0.12470881846E+04  0.14483746868E+04  0.00000000000E+00 0.  1.
         13    1    5    5    0    0  0.10467658340E+03 -0.56866389276E+03 -0.19432483736E+03  0.60999832168E+03  0.00000000000E+00 0.  1.
        -13    1    5    5    0    0  0.23800906973E+02 -0.22182966734E+02 -0.15772281540E+02  0.36157047043E+02  0.00000000000E+00 0. -1.
          4    1    6    6  503    0  0.90913805082E+02 -0.50987131736E+02  0.19442694105E+02  0.10603313591E+03  0.00000000000E+00 0. -1.
         -4    1    6    6    0  503  0.40654860935E+03 -0.46467308785E+03  0.21493226730E+03  0.65375739374E+03  0.00000000000E+00 0.  1.
<mgrwt>
<rscale>  0 0.13018453E+04</rscale>
<asrwt>0</asrwt>
<pdfrwt beam="1">  1        2 0.44468429E+00 0.13018453E+04</pdfrwt>
<pdfrwt beam="2">  1       -2 0.13840897E+00 0.13018453E+04</pdfrwt>
<totfact> 0.73155355E-01</totfact>
</mgrwt>
</event>
<event>
12    1  0.1444206E-007  0.7464695E+03  0.7818608E-02  0.9640905E-01
          2   -1    0    0  501    0  0.00000000000E+00  0.00000000000E+00  0.36451448385E+03  0.36451448385E+03  0.00000000000E+00 0.  1.
         -2   -1    0    0    0  501 -0.00000000000E+00 -0.00000000000E+00 -0.18982743213E+04  0.18982743213E+04  0.00000000000E+00 0. -1.
         23    2    1    2    0    0  0.28601990489E+03  0.63351477577E+03 -0.92604547340E+03  0.11617442917E+04  0.94558042875E+02 0.  0.
    5000000    2    1    2    0    0 -0.28601990489E+03 -0.63351477577E+03 -0.60771436408E+03  0.11010445134E+04  0.59986158001E+03 0.  0.
         23    2    4    4    0    0 -0.33261262101E+03 -0.30682082261E+03 -0.75206706631E+02  0.46791557493E+03  0.92297148916E+02 0.  0.
         23    2    4    4    0    0  0.46592716116E+02 -0.32669395316E+03 -0.53250765745E+03  0.63312893852E+03  0.91586174301E+02 0.  0.
          3    1    3    3  502    0  0.24361789758E+03  0.45743657902E+03 -0.64536656551E+03  0.82770520581E+03  0.00000000000E+00 0. -1.
         -3    1    3    3    0  502  0.42402007314E+02  0.17607819675E+03 -0.28067890789E+03  0.33403908593E+03  0.00000000000E+00 0.  1.
         11    1    5    5    0    0 -0.68730386252E+02 -0.21425895637E+02  0.98324798990E-01  0.71992670919E+02  0.00000000000E+00 0.  1.
        -11    1    5    5    0    0 -0.26388223475E+03 -0.28539492697E+03 -0.75305031430E+02  0.39592290401E+03  0.00000000000E+00 0. -1.
          3    1    6    6  503    0  0.30440460689E+02 -0.30093598203E+03 -0.42664338861E+03  0.52298534202E+03  0.00000000000E+00 0. -1.
         -3    1    6    6    0  503  0.16152255427E+02 -0.25757971129E+02 -0.10586426884E+03  0.11014359650E+03  0.00000000000E+00 0.  1.
<mgrwt>
<rscale>  0 0.74646955E+03</rscale>
<asrwt>0</asrwt>
<pdfrwt beam="1">  1        2 0.56079151E-01 0.74646955E+03</pdfrwt>
<pdfrwt beam="2">  1       -2 0.29204220E+00 0.74646955E+03</pdfrwt>
<totfact> 0.32608032E+00</totfact>
</mgrwt>
</event>
<event>
12    1  0.1444206E-007  0.1504060E+04  0.7818608E-02  0.8881758E-01
          1   -1    0    0  501    0  0.00000000000E+00  0.00000000000E+00  0.27591985646E+04  0.27591985646E+04  0.00000000000E+00 0. -1.
         -1   -1    0    0    0  501 -0.00000000000E+00 -0.00000000000E+00 -0.11415435458E+04  0.11415435458E+04  0.00000000000E+00 0.  1.
         23    2    1    2    0    0 -0.13496155054E+04  0.57915799747E+03 -0.20364199647E+03  0.14853782110E+04  0.89400047296E+02 0.  0.
    5000000    2    1    2    0    0  0.13496155054E+04 -0.57915799747E+03  0.18212970153E+04  0.24153638994E+04  0.59997829144E+03 0.  0.
         23    2    4    4    0    0  0.10091208672E+04 -0.20883339591E+03  0.94538607598E+03  0.14013736624E+04  0.90316095613E+02 0.  0.
         23    2    4    4    0    0  0.34049463818E+03 -0.37032460157E+03  0.87591093928E+03  0.10139902370E+04  0.88765522456E+02 0.  0.
          4    1    3    3  502    0 -0.18297595247E+03  0.50974389997E+02 -0.10215467888E+02  0.19021814688E+03  0.00000000000E+00 0. -1.
         -4    1    3    3    0  502 -0.11666395529E+04  0.52818360748E+03 -0.19342652858E+03  0.12951600641E+04  0.00000000000E+00 0.  1.
         11    1    5    5    0    0  0.67747277482E+03 -0.13442810789E+03  0.68942337566E+03  0.97588158488E+03  0.00000000000E+00 0. -1.
        -11    1    5    5    0    0  0.33164809242E+03 -0.74405288019E+02  0.25596270033E+03  0.42549207754E+03  0.00000000000E+00 0.  1.
          4    1    6    6  503    0  0.14034116384E+03 -0.10844626812E+03  0.36788525651E+03  0.40840641191E+03  0.00000000000E+00 0. -1.
         -4    1    6    6    0  503  0.20015347435E+03 -0.26187833345E+03  0.50802568277E+03  0.60558382506E+03  0.00000000000E+00 0.  1.
<mgrwt>
<rscale>  0 0.15040595E+04</rscale>
<asrwt>0</asrwt>
<pdfrwt beam="1">  1        1 0.42449209E+00 0.15040595E+04</pdfrwt>
<pdfrwt beam="2">  1       -1 0.17562208E+00 0.15040595E+04</pdfrwt>
<totfact> 0.18902637E-01</totfact>
</mgrwt>
</event>
<event>
12    1  0.1444206E-007  0.5575587E+03  0.7818608E-02  0.9997594E-01
          1   -1    0    0  501    0  0.00000000000E+00  0.00000000000E+00  0.89042126838E+03  0.89042126838E+03  0.00000000000E+00 0. -1.
         -1   -1    0    0    0  501 -0.00000000000E+00 -0.00000000000E+00 -0.38302380446E+03  0.38302380446E+03  0.00000000000E+00 0.  1.
         23    2    1    2    0    0  0.21454881193E+03  0.34331456615E+03  0.32459055130E+03  0.52689636632E+03  0.91458574317E+02 0.  0.
    5000000    2    1    2    0    0 -0.21454881193E+03 -0.34331456615E+03  0.18280691262E+03  0.74654870653E+03  0.60001709966E+03 0.  0.
         23    2    4    4    0    0 -0.23621294465E+03 -0.48155456864E+03  0.19978396839E+03  0.57971909332E+03  0.92028448514E+02 0.  0.
         23    2    4    4    0    0  0.21664132716E+02  0.13824000249E+03 -0.16977055769E+02  0.16682961321E+03  0.89242739110E+02 0.  0.
          4    1    3    3  502    0  0.14678981257E+03  0.29525118514E+03  0.28021065206E+03  0.43271066653E+03  0.00000000000E+00 0. -1.
         -4    1    3    3    0  502  0.67758999357E+02  0.48063381012E+02  0.44379899235E+02  0.94185699787E+02  0.00000000000E+00 0.  1.
         13    1    5    5    0    0 -0.72848947929E+02 -0.14676191553E+03  0.10740248699E+03  0.19591151899E+03  0.00000000000E+00 0.  1.
        -13    1    5    5    0    0 -0.16336399672E+03 -0.33479265312E+03  0.92381481399E+02  0.38380757433E+03  0.00000000000E+00 0. -1.
          1    1    6    6  503    0  0.92758787638E+01 -0.12014863683E+02 -0.80858745625E+00  0.15200417423E+02  0.00000000000E+00 0. -1.
         -1    1    6    6    0  503  0.12388253952E+02  0.15025486618E+03 -0.16168468313E+02  0.15162919578E+03  0.00000000000E+00 0.  1.
<mgrwt>
<rscale>  0 0.55755865E+03</rscale>
<asrwt>0</asrwt>
<pdfrwt beam="1">  1        1 0.13698789E+00 0.55755865E+03</pdfrwt>
<pdfrwt beam="2">  1       -1 0.58926739E-01 0.55755865E+03</pdfrwt>
<totfact> 0.56473345E+01</totfact>
</mgrwt>
</event>
<event>
12    1  0.1444206E-007  0.1368771E+04  0.7818608E-02  0.8976739E-01
         -1   -1    0    0    0  501 -0.00000000000E+00  0.00000000000E+00  0.16603371150E+04  0.16603371150E+04  0.00000000000E+00 0.  1.
          1   -1    0    0  501    0  0.00000000000E+00 -0.00000000000E+00 -0.11711677642E+04  0.11711677642E+04  0.00000000000E+00 0. -1.
         23    2    1    2    0    0 -0.12976977663E+04  0.14428022015E+03 -0.14132277813E+02  0.13089637428E+04  0.91378794846E+02 0.  0.
    5000000    2    1    2    0    0  0.12976977663E+04 -0.14428022015E+03  0.50330162867E+03  0.15225411364E+04  0.59998558998E+03 0.  0.
         23    2    4    4    0    0  0.65782873618E+03  0.21344311349E+03  0.27247557357E+03  0.74863846611E+03  0.88994415044E+02 0.  0.
         23    2    4    4    0    0  0.63986903009E+03 -0.35772333365E+03  0.23082605510E+03  0.77390267031E+03  0.90809230307E+02 0.  0.
          4    1    3    3  502    0 -0.35736829326E+03  0.46793989252E+02 -0.44183157959E+02  0.36311695899E+03  0.00000000000E+00 0. -1.
         -4    1    3    3    0  502 -0.94032947301E+03  0.97486230902E+02  0.30050880146E+02  0.94584678380E+03  0.00000000000E+00 0.  1.
         13    1    5    5    0    0  0.53301941343E+03  0.13491292508E+03  0.21377466297E+03  0.58992440107E+03  0.00000000000E+00 0.  1.
        -13    1    5    5    0    0  0.12480932275E+03  0.78530188415E+02  0.58700910603E+02  0.15871406504E+03  0.00000000000E+00 0. -1.
          1    1    6    6  503    0  0.41723389845E+03 -0.20833056254E+03  0.10646516525E+03  0.47835194232E+03  0.00000000000E+00 0. -1.
         -1    1    6    6    0  503  0.22263513164E+03 -0.14939277110E+03  0.12436088985E+03  0.29555072800E+03  0.00000000000E+00 0.  1.
<mgrwt>
<rscale>  0 0.13687714E+04</rscale>
<asrwt>0</asrwt>
<pdfrwt beam="1">  1        1 0.18017966E+00 0.13687714E+04</pdfrwt>
<pdfrwt beam="2">  1       -1 0.25543648E+00 0.13687714E+04</pdfrwt>
<totfact> 0.69370383E-01</totfact>
</mgrwt>
</event>
<event>
12    1  0.1444206E-007  0.8324541E+03  0.7818608E-02  0.9514194E-01
         -2   -1    0    0    0  501 -0.00000000000E+00  0.00000000000E+00  0.94344243039E+03  0.94344243039E+03  0.00000000000E+00 0.  1.
          2   -1    0    0  501    0  0.00000000000E+00 -0.00000000000E+00 -0.11599791471E+04  0.11599791471E+04  0.00000000000E+00 0. -1.
         23    2    1    2    0    0  0.49945365603E+03  0.60540662274E+03 -0.65176188580E+03  0.10238802940E+04  0.86983718864E+02 0.  0.
    5000000    2    1    2    0    0 -0.49945365603E+03 -0.60540662274E+03  0.43522516911E+03  0.10795412834E+04  0.60001441769E+03 0.  0.
         23    2    4    4    0    0 -0.53150372203E+03 -0.54134648486E+03  0.52998271215E+03  0.92996148812E+03  0.91621345819E+02 0.  0.
         23    2    4    4    0    0  0.32050066004E+02 -0.64060137874E+02 -0.94757543036E+02  0.14957979531E+03  0.90907729089E+02 0.  0.
          4    1    3    3  502    0  0.25362927303E+03  0.23991365762E+03 -0.28243593782E+03  0.44906172207E+03  0.00000000000E+00 0. -1.
         -4    1    3    3    0  502  0.24582438300E+03  0.36549296512E+03 -0.36932594798E+03  0.57481857196E+03  0.00000000000E+00 0.  1.
         13    1    5    5    0    0 -0.15678164007E+03 -0.22219248760E+03  0.19102468242E+03  0.33232576413E+03  0.00000000000E+00 0.  1.
        -13    1    5    5    0    0 -0.37472208197E+03 -0.31915399726E+03  0.33895802972E+03  0.59763572399E+03  0.00000000000E+00 0. -1.
          4    1    6    6  503    0 -0.29111157683E+02 -0.26645913420E+02 -0.54702148858E+02  0.67452125936E+02  0.00000000000E+00 0. -1.
         -4    1    6    6    0  503  0.61161223687E+02 -0.37414224455E+02 -0.40055394178E+02  0.82127669376E+02  0.00000000000E+00 0.  1.
<mgrwt>
<rscale>  0 0.83245412E+03</rscale>
<asrwt>0</asrwt>
<pdfrwt beam="1">  1        2 0.17845833E+00 0.83245412E+03</pdfrwt>
<pdfrwt beam="2">  1       -2 0.14514499E+00 0.83245412E+03</pdfrwt>
<totfact> 0.66070862E+00</totfact>
</mgrwt>
</event>
<event>
12    1  0.1444206E-007  0.5235941E+03  0.7818608E-02  0.1007798E+00
          1   -1    0    0  501    0  0.00000000000E+00  0.00000000000E+00  0.15540072983E+04  0.15540072983E+04  0.00000000000E+00 0.  1.
         -1   -1    0    0    0  501 -0.00000000000E+00 -0.00000000000E+00 -0.18588297379E+03  0.18588297379E+03  0.00000000000E+00 0. -1.
         23    2    1    2    0    0 -0.61767348545E+02 -0.35352729260E+03  0.55824343480E+03  0.66997022303E+03  0.91802044059E+02 0.  0.
    5000000    2    1    2    0    0  0.61767348545E+02  0.35352729260E+03  0.80988088975E+03  0.10699200491E+04  0.60002091957E+03 0.  0.
         23    2    4    4    0    0 -0.21583351998E+03  0.18965403057E+02  0.40781221142E+03  0.47107811054E+03  0.93059075768E+02 0.  0.
         23    2    4    4    0    0  0.27760086852E+03  0.33456188954E+03  0.40206867833E+03  0.59884193856E+03  0.89210678429E+02 0.  0.
          1    1    3    3  502    0  0.22710967380E+02 -0.99968472174E+02  0.13729456063E+03  0.17134549847E+03  0.00000000000E+00 0. -1.
         -1    1    3    3    0  502 -0.84478315926E+02 -0.25355882042E+03  0.42094887417E+03  0.49862472456E+03  0.00000000000E+00 0.  1.
         13    1    5    5    0    0 -0.94320837763E+02 -0.37327746009E+02  0.16151222819E+03  0.19072488279E+03  0.00000000000E+00 0. -1.
        -13    1    5    5    0    0 -0.12151268222E+03  0.56293149066E+02  0.24629998323E+03  0.28035322775E+03  0.00000000000E+00 0.  1.
          1    1    6    6  503    0  0.33917072378E+02  0.84509401315E+01  0.18687243094E+02  0.39635832806E+02  0.00000000000E+00 0. -1.
         -1    1    6    6    0  503  0.24368379615E+03  0.32611094941E+03  0.38338143523E+03  0.55920610575E+03  0.00000000000E+00 0.  1.
<mgrwt>
<rscale>  0 0.52359415E+03</rscale>
<asrwt>0</asrwt>
<pdfrwt beam="1">  1        1 0.23907804E+00 0.52359415E+03</pdfrwt>
<pdfrwt beam="2">  1       -1 0.28597382E-01 0.52359415E+03</pdfrwt>
<totfact> 0.70243305E+01</totfact>
</mgrwt>
</event>
<event>
12    1  0.1444206E-007  0.9820187E+03  0.7818608E-02  0.9328489E-01
          2   -1    0    0  501    0  0.00000000000E+00  0.00000000000E+00  0.12850217283E+04  0.12850217283E+04  0.00000000000E+00 0.  1.
         -2   -1    0    0    0  501 -0.00000000000E+00 -0.00000000000E+00 -0.77786976985E+03  0.77786976985E+03  0.00000000000E+00 0. -1.
         23    2    1    2    0    0  0.88376553567E+03 -0.19537060663E+03  0.29687930716E+03  0.95679565262E+03  0.90052217473E+02 0.  0.
    5000000    2    1    2    0    0 -0.88376553567E+03  0.19537060663E+03  0.21027265132E+03  0.11060958456E+04  0.60001852946E+03 0.  0.
         23    2    4    4    0    0 -0.13034388205E+02 -0.12303089288E+03  0.14092537465E+02  0.15295898225E+03  0.88833297591E+02 0.  0.
         23    2    4    4    0    0 -0.87073114747E+03  0.31840149951E+03  0.19618011386E+03  0.95313686331E+03  0.10213225285E+03 0.  0.
          3    1    3    3  502    0  0.79296707279E+03 -0.20040753364E+03  0.27852981223E+03  0.86402477648E+03  0.00000000000E+00 0. -1.
         -3    1    3    3    0  502  0.90798462880E+02  0.50369270099E+01  0.18349494933E+02  0.92770876138E+02  0.00000000000E+00 0.  1.
         11    1    5    5    0    0 -0.15328684555E+02 -0.30610253845E+02  0.44039741446E+02  0.55780418045E+02  0.00000000000E+00 0. -1.
        -11    1    5    5    0    0  0.22942963503E+01 -0.92420639032E+02 -0.29947203981E+02  0.97178564206E+02  0.00000000000E+00 0.  1.
          3    1    6    6  503    0 -0.27653725635E+03  0.12655261699E+03  0.10704997641E+03  0.32240985790E+03  0.00000000000E+00 0. -1.
         -3    1    6    6    0  503 -0.59419389111E+03  0.19184888252E+03  0.89130137443E+02  0.63072700542E+03  0.00000000000E+00 0.  1.
<mgrwt>
<rscale>  0 0.98201872E+03</rscale>
<asrwt>0</asrwt>
<pdfrwt beam="1">  1        2 0.19769565E+00 0.98201872E+03</pdfrwt>
<pdfrwt beam="2">  1       -2 0.11967227E+00 0.98201872E+03</pdfrwt>
<totfact> 0.89703770E+00</totfact>
</mgrwt>
</event>
<event>
12    1  0.1444206E-007  0.6911265E+03  0.7818608E-02  0.9732528E-01
          3   -1    0    0  501    0  0.00000000000E+00  0.00000000000E+00  0.48031415400E+03  0.48031415400E+03  0.00000000000E+00 0. -1.
         -3   -1    0    0    0  501 -0.00000000000E+00 -0.00000000000E+00 -0.10398858404E+04  0.10398858404E+04  0.00000000000E+00 0.  1.
         23    2    1    2    0    0 -0.38783729082E+02 -0.56302625339E+03 -0.11226215800E+03  0.58281679218E+03  0.92573654325E+02 0.  0.
    5000000    2    1    2    0    0  0.38783729082E+02  0.56302625339E+03 -0.44730952842E+03  0.93738320225E+03  0.60008225602E+03 0.  0.
         23    2    4    4    0    0 -0.25586601473E+03  0.18564900510E+03 -0.24834044436E+03  0.41264950570E+03  0.93132527412E+02 0.  0.
         23    2    4    4    0    0  0.29464974382E+03  0.37737724829E+03 -0.19896908406E+03  0.52473369654E+03  0.80775595416E+02 0.  0.
          2    1    3    3  502    0  0.70542603793E+01 -0.40858066958E+03 -0.10312834354E+03  0.42145388999E+03  0.00000000000E+00 0. -1.
         -2    1    3    3    0  502 -0.45837989461E+02 -0.15444558381E+03 -0.91338144642E+01  0.16136290219E+03  0.00000000000E+00 0.  1.
         11    1    5    5    0    0 -0.74148474297E+02  0.10773163046E+03 -0.82881544958E+02  0.15483362341E+03  0.00000000000E+00 0.  1.
        -11    1    5    5    0    0 -0.18171754044E+03  0.77917374637E+02 -0.16545889940E+03  0.25781588230E+03  0.00000000000E+00 0. -1.
          3    1    6    6  503    0  0.82022311101E+02  0.16073846558E+03 -0.54138417126E+02  0.18840244702E+03  0.00000000000E+00 0. -1.
         -3    1    6    6    0  503  0.21262743272E+03  0.21663878271E+03 -0.14483066693E+03  0.33633124952E+03  0.00000000000E+00 0.  1.
<mgrwt>
<rscale>  0 0.69112652E+03</rscale>
<asrwt>0</asrwt>
<pdfrwt beam="1">  1        3 0.73894486E-01 0.69112652E+03</pdfrwt>
<pdfrwt beam="2">  1       -3 0.15998243E+00 0.69112652E+03</pdfrwt>
<totfact> 0.12319779E+00</totfact>
</mgrwt>
</event>
<event>
12    1  0.1444206E-007  0.8510995E+03  0.7818608E-02  0.9488862E-01
         -2   -1    0    0    0  501 -0.00000000000E+00  0.00000000000E+00  0.73471167503E+03  0.73471167503E+03  0.00000000000E+00 0. -1.
          2   -1    0    0  501    0  0.00000000000E+00 -0.00000000000E+00 -0.12588273658E+04  0.12588273658E+04  0.00000000000E+00 0.  1.
         23    2    1    2    0    0  0.65643254853E+03  0.50100520503E+03  0.31761287997E+02  0.83122853826E+03  0.89566719114E+02 0.  0.
    5000000    2    1    2    0    0 -0.65643254853E+03 -0.50100520503E+03 -0.55587697873E+03  0.11623105025E+04  0.60004715031E+03 0.  0.
         23    2    4    4    0    0 -0.35160113140E+03 -0.42694386413E+03 -0.61352614462E+03  0.83161350172E+03  0.96240674312E+02 0.  0.
         23    2    4    4    0    0 -0.30483141713E+03 -0.74061340896E+02  0.57649165890E+02  0.33069700082E+03  0.87348754639E+02 0.  0.
          2    1    3    3  502    0  0.20704822935E+03  0.21121551204E+03  0.42497372367E+01  0.29580233615E+03  0.00000000000E+00 0. -1.
         -2    1    3    3    0  502  0.44938431917E+03  0.28978969298E+03  0.27511550760E+02  0.53542620211E+03  0.00000000000E+00 0.  1.
         13    1    5    5    0    0 -0.89290009559E+02 -0.16318379698E+03 -0.16269289642E+03  0.24712473763E+03  0.00000000000E+00 0.  1.
        -13    1    5    5    0    0 -0.26231112184E+03 -0.26376006715E+03 -0.45083324820E+03  0.58448876409E+03  0.00000000000E+00 0. -1.
          1    1    6    6  503    0 -0.61722140434E+02 -0.14351850558E+02 -0.23427360579E+02  0.67560635416E+02  0.00000000000E+00 0. -1.
         -1    1    6    6    0  503 -0.24310927670E+03 -0.59709490338E+02  0.81076526469E+02  0.26313636540E+03  0.00000000000E+00 0.  1.
<mgrwt>
<rscale>  0 0.85109954E+03</rscale>
<asrwt>0</asrwt>
<pdfrwt beam="1">  1        2 0.19366575E+00 0.85109954E+03</pdfrwt>
<pdfrwt beam="2">  1       -2 0.11303257E+00 0.85109954E+03</pdfrwt>
<totfact> 0.10839242E+01</totfact>
</mgrwt>
</event>
<event>
12    1  0.1444206E-007  0.1002460E+04  0.7818608E-02  0.9305851E-01
          2   -1    0    0  501    0  0.00000000000E+00  0.00000000000E+00  0.36385710196E+04  0.36385710196E+04  0.00000000000E+00 0. -1.
         -2   -1    0    0    0  501 -0.00000000000E+00 -0.00000000000E+00 -0.34778631433E+03  0.34778631433E+03  0.00000000000E+00 0.  1.
         23    2    1    2    0    0  0.64827525046E+03  0.64329525878E+03  0.63974623563E+03  0.11191487708E+04  0.95546506276E+02 0.  0.
    5000000    2    1    2    0    0 -0.64827525046E+03 -0.64329525878E+03  0.26510384696E+04  0.28672085631E+04  0.59899114067E+03 0.  0.
         23    2    4    4    0    0 -0.48774376533E+03 -0.84310983787E+02  0.11974390918E+04  0.12989069012E+04  0.91084777825E+02 0.  0.
         23    2    4    4    0    0 -0.16053148513E+03 -0.55898427500E+03  0.14535993778E+04  0.15683016619E+04  0.91570596744E+02 0.  0.
          3    1    3    3  502    0  0.37419776579E+03  0.38282227644E+03  0.43084694732E+03  0.68717243490E+03  0.00000000000E+00 0. -1.
         -3    1    3    3    0  502  0.27407748467E+03  0.26047298234E+03  0.20889928832E+03  0.43197633591E+03  0.00000000000E+00 0.  1.
         13    1    5    5    0    0 -0.16048385016E+03  0.15239788084E+02  0.38836576402E+03  0.42049409505E+03  0.00000000000E+00 0.  1.
        -13    1    5    5    0    0 -0.32725991517E+03 -0.99550771871E+02  0.80907332775E+03  0.87841280610E+03  0.00000000000E+00 0. -1.
          3    1    6    6  503    0 -0.38892429612E+01 -0.15312577690E+03  0.40837614250E+03  0.43615788830E+03  0.00000000000E+00 0. -1.
         -3    1    6    6    0  503 -0.15664224217E+03 -0.40585849810E+03  0.10452232353E+04  0.11321437736E+04  0.00000000000E+00 0.  1.
<mgrwt>
<rscale>  0 0.10024603E+04</rscale>
<asrwt>0</asrwt>
<pdfrwt beam="1">  1        2 0.55978013E+00 0.10024603E+04</pdfrwt>
<pdfrwt beam="2">  1       -2 0.53505589E-01 0.10024603E+04</pdfrwt>
<totfact> 0.22190575E+00</totfact>
</mgrwt>
</event>
<event>
12    1  0.1444206E-007  0.1207271E+04  0.7818608E-02  0.9106516E-01
          1   -1    0    0  501    0  0.00000000000E+00  0.00000000000E+00  0.23923546971E+04  0.23923546971E+04  0.00000000000E+00 0. -1.
         -1   -1    0    0    0  501 -0.00000000000E+00 -0.00000000000E+00 -0.66820070521E+03  0.66820070521E+03  0.00000000000E+00 0.  1.
         23    2    1    2    0    0  0.10317102843E+04 -0.53580152482E+03  0.49976268743E+03  0.12687658941E+04  0.92167053154E+02 0.  0.
    5000000    2    1    2    0    0 -0.10317102843E+04  0.53580152482E+03  0.12243913045E+04  0.17917895082E+04  0.59988848175E+03 0.  0.
         23    2    4    4    0    0 -0.33965259837E+03 -0.44129110034E+02  0.14864097661E+03  0.38441755460E+03  0.91495630631E+02 0.  0.
         23    2    4    4    0    0 -0.69205768590E+03  0.57993063486E+03  0.10757503279E+04  0.14073719536E+04  0.90518870983E+02 0.  0.
          1    1    3    3  502    0  0.47733018093E+03 -0.24282445388E+03  0.28008040666E+03  0.60436152361E+03  0.00000000000E+00 0. -1.
         -1    1    3    3    0  502  0.55438010334E+03 -0.29297707094E+03  0.21968228077E+03  0.66440437052E+03  0.00000000000E+00 0.  1.
         11    1    5    5    0    0 -0.15187363259E+03 -0.38402937131E+02  0.11311025536E+03  0.19322089877E+03  0.00000000000E+00 0.  1.
        -11    1    5    5    0    0 -0.18777896579E+03 -0.57261729025E+01  0.35530721252E+02  0.19119665583E+03  0.00000000000E+00 0. -1.
          1    1    6    6  503    0 -0.24643769423E+03  0.26429104032E+03  0.42660529368E+03  0.55908261261E+03  0.00000000000E+00 0. -1.
         -1    1    6    6    0  503 -0.44561999167E+03  0.31563959454E+03  0.64914503419E+03  0.84828934099E+03  0.00000000000E+00 0.  1.
<mgrwt>
<rscale>  0 0.12072708E+04</rscale>
<asrwt>0</asrwt>
<pdfrwt beam="1">  1        1 0.36805456E+00 0.12072708E+04</pdfrwt>
<pdfrwt beam="2">  1       -1 0.10280011E+00 0.12072708E+04</pdfrwt>
<totfact> 0.14209354E+00</totfact>
</mgrwt>
</event>
<event>
12    1  0.1444206E-007  0.1037507E+04  0.7818608E-02  0.9268338E-01
         -1   -1    0    0    0  501 -0.00000000000E+00  0.00000000000E+00  0.19570637653E+04  0.19570637653E+04  0.00000000000E+00 0.  1.
          1   -1    0    0  501    0  0.00000000000E+00 -0.00000000000E+00 -0.75456747416E+03  0.75456747416E+03  0.00000000000E+00 0. -1.
         23    2    1    2    0    0 -0.51215578240E+03 -0.80655907036E+03  0.12580456686E+04  0.15820947037E+04  0.86623714016E+02 0.  0.
    5000000    2    1    2    0    0  0.51215578240E+03  0.80655907036E+03 -0.55549377454E+02  0.11295365357E+04  0.59993830752E+03 0.  0.
         23    2    4    4    0    0  0.26213599194E+03  0.81467312633E+03 -0.15086055755E+02  0.86081298772E+03  0.91453975977E+02 0.  0.
         23    2    4    4    0    0  0.25001979046E+03 -0.81140559718E+01 -0.40463321698E+02  0.26872354803E+03  0.89438981063E+02 0.  0.
          4    1    3    3  502    0 -0.37659816887E+03 -0.61812905191E+03  0.10074526385E+04  0.12405122024E+04  0.00000000000E+00 0. -1.
         -4    1    3    3    0  502 -0.13555761354E+03 -0.18843001845E+03  0.25059303012E+03  0.34158250129E+03  0.00000000000E+00 0.  1.
         13    1    5    5    0    0  0.10322827343E+03  0.24259976120E+03  0.30104814520E+02  0.26536205536E+03  0.00000000000E+00 0. -1.
        -13    1    5    5    0    0  0.15890771851E+03  0.57207336513E+03 -0.45190870275E+02  0.59545093236E+03  0.00000000000E+00 0.  1.
          2    1    6    6  503    0  0.70035572153E+02 -0.37310973866E+02  0.88220603728E+01  0.79843089161E+02  0.00000000000E+00 0. -1.
         -2    1    6    6    0  503  0.17998421831E+03  0.29196917894E+02 -0.49285382071E+02  0.18888045887E+03  0.00000000000E+00 0.  1.
<mgrwt>
<rscale>  0 0.10375071E+04</rscale>
<asrwt>0</asrwt>
<pdfrwt beam="1">  1        1 0.11608730E+00 0.10375071E+04</pdfrwt>
<pdfrwt beam="2">  1       -1 0.30108673E+00 0.10375071E+04</pdfrwt>
<totfact> 0.79502774E-01</totfact>
</mgrwt>
</event>
<event>
12    1  0.1444206E-007  0.4384748E+03  0.7818608E-02  0.1031216E+00
         -2   -1    0    0    0  501 -0.00000000000E+00  0.00000000000E+00  0.22959408914E+03  0.22959408914E+03  0.00000000000E+00 0. -1.
          2   -1    0    0  501    0  0.00000000000E+00 -0.00000000000E+00 -0.88856312760E+03  0.88856312760E+03  0.00000000000E+00 0.  1.
         23    2    1    2    0    0 -0.32205318063E+02 -0.23047252673E+03 -0.11221568651E+03  0.27365551967E+03  0.90223140353E+02 0.  0.
    5000000    2    1    2    0    0  0.32205318063E+02  0.23047252673E+03 -0.54675335196E+03  0.84450169707E+03  0.60007426240E+03 0.  0.
         23    2    4    4    0    0 -0.19214879181E+03  0.31935430016E+03 -0.29951015176E+03  0.48648931284E+03  0.89761869851E+02 0.  0.
         23    2    4    4    0    0  0.22435410987E+03 -0.88881773426E+02 -0.24724320020E+03  0.35801238423E+03  0.93855905262E+02 0.  0.
          3    1    3    3  502    0 -0.43072046561E+02 -0.54338702787E+02 -0.53821997635E+02  0.87776439008E+02  0.00000000000E+00 0. -1.
         -3    1    3    3    0  502  0.10866728498E+02 -0.17613382395E+03 -0.58393688874E+02  0.18587908066E+03  0.00000000000E+00 0.  1.
         11    1    5    5    0    0 -0.11794800887E+03  0.25884766480E+03 -0.19571802394E+03  0.34528161153E+03  0.00000000000E+00 0. -1.
        -11    1    5    5    0    0 -0.74200782941E+02  0.60506635359E+02 -0.10379212782E+03  0.14120770131E+03  0.00000000000E+00 0.  1.
          4    1    6    6  503    0  0.22936615518E+03 -0.88730062915E+02 -0.25126039426E+03  0.35158731907E+03  0.00000000000E+00 0. -1.
         -4    1    6    6    0  503 -0.50120453066E+01 -0.15171051083E+00  0.40171940580E+01  0.64250651618E+01  0.00000000000E+00 0.  1.
<mgrwt>
<rscale>  0 0.43847485E+03</rscale>
<asrwt>0</asrwt>
<pdfrwt beam="1">  1        2 0.13670202E+00 0.43847485E+03</pdfrwt>
<pdfrwt beam="2">  1       -2 0.35322168E-01 0.43847485E+03</pdfrwt>
<totfact> 0.23144689E+02</totfact>
</mgrwt>
</event>
<event>
12    1  0.1444206E-007  0.4573483E+03  0.7818608E-02  0.1025553E+00
          1   -1    0    0  501    0  0.00000000000E+00  0.00000000000E+00  0.37826228814E+03  0.37826228814E+03  0.00000000000E+00 0. -1.
         -1   -1    0    0    0  501 -0.00000000000E+00 -0.00000000000E+00 -0.77365997778E+03  0.77365997778E+03  0.00000000000E+00 0.  1.
         23    2    1    2    0    0  0.24631788493E+03 -0.99600210343E+02  0.13106241647E+03  0.31064608729E+03  0.93439457397E+02 0.  0.
    5000000    2    1    2    0    0 -0.24631788493E+03  0.99600210343E+02 -0.52646010610E+03  0.84127617863E+03  0.59999388587E+03 0.  0.
         23    2    4    4    0    0 -0.47508601156E+02 -0.23421266767E+03 -0.17951343016E+03  0.31319626011E+03  0.93563801000E+02 0.  0.
         23    2    4    4    0    0 -0.19880928377E+03  0.33381287802E+03 -0.34694667595E+03  0.52807991852E+03  0.86834529717E+02 0.  0.
          2    1    3    3  502    0  0.10639808125E+03 -0.89611026157E+02  0.84906448192E+02  0.16297175414E+03  0.00000000000E+00 0. -1.
         -2    1    3    3    0  502  0.13991980368E+03 -0.99891841860E+01  0.46155968278E+02  0.14767433315E+03  0.00000000000E+00 0.  1.
         11    1    5    5    0    0  0.54363026925E+00 -0.14167495701E+03 -0.58026827405E+02  0.15309866647E+03  0.00000000000E+00 0.  1.
        -11    1    5    5    0    0 -0.48052231426E+02 -0.92537710667E+02 -0.12148660275E+03  0.16009759364E+03  0.00000000000E+00 0. -1.
          3    1    6    6  503    0 -0.64098966438E+02  0.13178316947E+03 -0.18585750619E+03  0.23668226351E+03  0.00000000000E+00 0. -1.
         -3    1    6    6    0  503 -0.13471031734E+03  0.20202970855E+03 -0.16108916976E+03  0.29139765501E+03  0.00000000000E+00 0.  1.
<mgrwt>
<rscale>  0 0.45734830E+03</rscale>
<asrwt>0</asrwt>
<pdfrwt beam="1">  1        1 0.58194200E-01 0.45734830E+03</pdfrwt>
<pdfrwt beam="2">  1       -1 0.11902461E+00 0.45734830E+03</pdfrwt>
<totfact> 0.43031134E+01</totfact>
</mgrwt>
</event>
<event>
12    1  0.1444206E-007  0.7382733E+03  0.7818608E-02  0.9653929E-01
          1   -1    0    0  501    0  0.00000000000E+00  0.00000000000E+00  0.17448101806E+04  0.17448101806E+04  0.00000000000E+00 0. -1.
         -1   -1    0    0    0  501 -0.00000000000E+00 -0.00000000000E+00 -0.68517780863E+03  0.68517780863E+03  0.00000000000E+00 0.  1.
         23    2    1    2    0    0 -0.60957306122E+03 -0.21960472579E+03  0.13501897454E+04  0.15003404364E+04  0.90573307113E+02 0.  0.
    5000000    2    1    2    0    0  0.60957306122E+03  0.21960472579E+03 -0.29055737343E+03  0.92964755282E+03  0.60001286041E+03 0.  0.
         23    2    4    4    0    0  0.45916860691E+03 -0.90643820529E+02 -0.11598211965E+02  0.47722799005E+03  0.92519858390E+02 0.  0.
         23    2    4    4    0    0  0.15040445431E+03  0.31024854632E+03 -0.27895916147E+03  0.45241956277E+03  0.89384487713E+02 0.  0.
          1    1    3    3  502    0 -0.14213674129E+03 -0.90460964415E+02  0.38127007596E+03  0.41683679076E+03  0.00000000000E+00 0. -1.
         -1    1    3    3    0  502 -0.46743631993E+03 -0.12914376138E+03  0.96891966947E+03  0.10835036457E+04  0.00000000000E+00 0.  1.
         11    1    5    5    0    0  0.35500194231E+03 -0.29451153241E+02 -0.55147913809E+01  0.35626417501E+03  0.00000000000E+00 0.  1.
        -11    1    5    5    0    0  0.10416666460E+03 -0.61192667288E+02 -0.60834205843E+01  0.12096381504E+03  0.00000000000E+00 0. -1.
          1    1    6    6  503    0  0.36563998274E+02  0.10768710063E+03 -0.43913921137E+02  0.12190926987E+03  0.00000000000E+00 0. -1.
         -1    1    6    6    0  503  0.11384045604E+03  0.20256144569E+03 -0.23504524033E+03  0.33051029290E+03  0.00000000000E+00 0.  1.
<mgrwt>
<rscale>  0 0.73827326E+03</rscale>
<asrwt>0</asrwt>
<pdfrwt beam="1">  1        1 0.26843233E+00 0.73827326E+03</pdfrwt>
<pdfrwt beam="2">  1       -1 0.10541197E+00 0.73827326E+03</pdfrwt>
<totfact> 0.39311416E+00</totfact>
</mgrwt>
</event>
<event>
12    1  0.1444206E-007  0.5465188E+03  0.7818608E-02  0.1002303E+00
         -2   -1    0    0    0  501 -0.00000000000E+00  0.00000000000E+00  0.33044563478E+03  0.33044563478E+03  0.00000000000E+00 0. -1.
          2   -1    0    0  501    0  0.00000000000E+00 -0.00000000000E+00 -0.16653249681E+04  0.16653249681E+04  0.00000000000E+00 0.  1.
         23    2    1    2    0    0  0.11319636702E+03  0.41181796936E+03  0.37389776095E+02  0.43835075053E+03  0.91356049277E+02 0.  0.
    5000000    2    1    2    0    0 -0.11319636702E+03 -0.41181796936E+03 -0.13722691094E+04  0.15574198524E+04  0.60002219162E+03 0.  0.
         23    2    4    4    0    0 -0.12740471707E+03 -0.50897567266E+03 -0.13070596597E+04  0.14114404571E+04  0.92038104834E+02 0.  0.
         23    2    4    4    0    0  0.14208350045E+02  0.97157703303E+02 -0.65209449771E+02  0.14597939526E+03  0.86117448747E+02 0.  0.
          2    1    3    3  502    0  0.35002330742E+02  0.28458679457E+03  0.12934551207E+02  0.28702283780E+03  0.00000000000E+00 0. -1.
         -2    1    3    3    0  502  0.78194036282E+02  0.12723117478E+03  0.24455224889E+02  0.15132791273E+03  0.00000000000E+00 0.  1.
         11    1    5    5    0    0 -0.39268127457E+02 -0.33738441337E+03 -0.81881424168E+03  0.88646883228E+03  0.00000000000E+00 0. -1.
        -11    1    5    5    0    0 -0.88136589612E+02 -0.17159125929E+03 -0.48824541799E+03  0.52497162483E+03  0.00000000000E+00 0.  1.
          4    1    6    6  503    0  0.45545243574E+02  0.48553255103E+02 -0.56859850585E+02  0.87549017138E+02  0.00000000000E+00 0. -1.
         -4    1    6    6    0  503 -0.31336893529E+02  0.48604448200E+02 -0.83495991862E+01  0.58430378122E+02  0.00000000000E+00 0.  1.
<mgrwt>
<rscale>  0 0.54651876E+03</rscale>
<asrwt>0</asrwt>
<pdfrwt beam="1">  1        2 0.25620384E+00 0.54651876E+03</pdfrwt>
<pdfrwt beam="2">  1       -2 0.50837790E-01 0.54651876E+03</pdfrwt>
<totfact> 0.39522134E+01</totfact>
</mgrwt>
</event>
<event>
12    1  0.1444206E-007  0.1581599E+04  0.7818608E-02  0.8831933E-01
          2   -1    0    0  501    0  0.00000000000E+00  0.00000000000E+00  0.28423346039E+04  0.28423346039E+04  0.00000000000E+00 0. -1.
         -2   -1    0    0    0  501 -0.00000000000E+00 -0.00000000000E+00 -0.11528382409E+04  0.11528382409E+04  0.00000000000E+00 0.  1.
         23    2    1    2    0    0 -0.92022956019E+03  0.12177665457E+04  0.17870557706E+04  0.23522134763E+04  0.97786030128E+02 0.  0.
    5000000    2    1    2    0    0  0.92022956019E+03 -0.12177665457E+04 -0.97559407641E+02  0.16429593684E+04  0.60001653722E+03 0.  0.
         23    2    4    4    0    0  0.64248391406E+03 -0.11712679360E+04 -0.12826171490E+03  0.13451975103E+04  0.91929954034E+02 0.  0.
         23    2    4    4    0    0  0.27774564613E+03 -0.46498609718E+02  0.30702307258E+02  0.29776185813E+03  0.91731825643E+02 0.  0.
          1    1    3    3  502    0 -0.21774696764E+03  0.22386441471E+03  0.35427163384E+03  0.47226836506E+03  0.00000000000E+00 0. -1.
         -1    1    3    3    0  502 -0.70248259255E+03  0.99390213102E+03  0.14327841368E+04  0.18799451113E+04  0.00000000000E+00 0.  1.
         11    1    5    5    0    0  0.62121349460E+03 -0.11525263420E+04 -0.11633528914E+03  0.13144417349E+04  0.00000000000E+00 0.  1.
        -11    1    5    5    0    0  0.21270419455E+02 -0.18741593977E+02 -0.11926425759E+02  0.30755775392E+02  0.00000000000E+00 0. -1.
          4    1    6    6  503    0  0.16247232757E+03  0.19018154150E+02  0.17515271641E+02  0.16451666224E+03  0.00000000000E+00 0.  1.
         -4    1    6    6    0  503  0.11527331856E+03 -0.65516763869E+02  0.13187035617E+02  0.13324519589E+03  0.00000000000E+00 0. -1.
<mgrwt>
<rscale>  0 0.15815990E+04</rscale>
<asrwt>0</asrwt>
<pdfrwt beam="1">  1        2 0.43728224E+00 0.15815990E+04</pdfrwt>
<pdfrwt beam="2">  1       -2 0.17735973E+00 0.15815990E+04</pdfrwt>
<totfact> 0.38531414E-01</totfact>
</mgrwt>
</event>
<event>
12    1  0.1444206E-007  0.1270386E+04  0.7818608E-02  0.9053385E-01
         -2   -1    0    0    0  501 -0.00000000000E+00  0.00000000000E+00  0.18318038784E+04  0.18318038784E+04  0.00000000000E+00 0.  1.
          2   -1    0    0  501    0  0.00000000000E+00 -0.00000000000E+00 -0.91204994596E+03  0.91204994596E+03  0.00000000000E+00 0. -1.
         23    2    1    2    0    0 -0.10900161122E+04  0.51860546678E+03  0.63207226665E+03  0.13654984520E+04  0.89352768579E+02 0.  0.
    5000000    2    1    2    0    0  0.10900161122E+04 -0.51860546678E+03  0.28768166580E+03  0.13783553724E+04  0.60001336382E+03 0.  0.
         23    2    4    4    0    0  0.18046541142E+03  0.11690750717E+03  0.75303094055E+02  0.24497989252E+03  0.90052550269E+02 0.  0.
         23    2    4    4    0    0  0.90955070073E+03 -0.63551297395E+03  0.21237857174E+03  0.11333754799E+04  0.90973091222E+02 0.  0.
          4    1    3    3  502    0 -0.36899185630E+03  0.21496398325E+03  0.24996994720E+03  0.49482267391E+03  0.00000000000E+00 0. -1.
         -4    1    3    3    0  502 -0.72102425585E+03  0.30364148353E+03  0.38210231945E+03  0.87067577810E+03  0.00000000000E+00 0.  1.
         11    1    5    5    0    0 -0.28296081393E+00  0.12448264693E+02 -0.13277012229E+02  0.18202154114E+02  0.00000000000E+00 0. -1.
        -11    1    5    5    0    0  0.18074837224E+03  0.10445924248E+03  0.88580106284E+02  0.22677773840E+03  0.00000000000E+00 0.  1.
          4    1    6    6  503    0  0.34950075813E+03 -0.26576861707E+03  0.42562192199E+02  0.44112954782E+03  0.00000000000E+00 0. -1.
         -4    1    6    6    0  503  0.56004994260E+03 -0.36974435688E+03  0.16981637955E+03  0.69224593203E+03  0.00000000000E+00 0.  1.
<mgrwt>
<rscale>  0 0.12703861E+04</rscale>
<asrwt>0</asrwt>
<pdfrwt beam="1">  1        2 0.14031538E+00 0.12703861E+04</pdfrwt>
<pdfrwt beam="2">  1       -2 0.28181598E+00 0.12703861E+04</pdfrwt>
<totfact> 0.11461421E+00</totfact>
</mgrwt>
</event>
<event>
12    1  0.1444206E-007  0.1458640E+04  0.7818608E-02  0.8912432E-01
         -2   -1    0    0    0  501 -0.00000000000E+00  0.00000000000E+00  0.14955131303E+04  0.14955131303E+04  0.00000000000E+00 0.  1.
          2   -1    0    0  501    0  0.00000000000E+00 -0.00000000000E+00 -0.15089497567E+04  0.15089497567E+04  0.00000000000E+00 0. -1.
         23    2    1    2    0    0 -0.12335757290E+04 -0.67448688364E+03 -0.32155274019E+03  0.14450632335E+04  0.90387768520E+02 0.  0.
    5000000    2    1    2    0    0  0.12335757290E+04  0.67448688364E+03  0.30811611372E+03  0.15593996535E+04  0.60012507382E+03 0.  0.
         23    2    4    4    0    0  0.62615301660E+03  0.64176643129E+03  0.85789492107E+02  0.90539310280E+03  0.91897122468E+02 0.  0.
         23    2    4    4    0    0  0.60742271243E+03  0.32720452359E+02  0.22232662161E+03  0.65400655066E+03  0.90898086093E+02 0.  0.
          2    1    3    3  502    0 -0.58379957284E+03 -0.37022032386E+03 -0.15143859068E+03  0.70768543591E+03  0.00000000000E+00 0. -1.
         -2    1    3    3    0  502 -0.64977615619E+03 -0.30426655979E+03 -0.17011414951E+03  0.73737779762E+03  0.00000000000E+00 0.  1.
         11    1    5    5    0    0  0.15371896457E+03  0.20260393514E+03  0.51338217919E+02  0.25944842883E+03  0.00000000000E+00 0.  1.
        -11    1    5    5    0    0  0.47243405203E+03  0.43916249615E+03  0.34451274188E+02  0.64594467397E+03  0.00000000000E+00 0. -1.
          1    1    6    6  503    0  0.58295507161E+03  0.37759711579E+02  0.19244652197E+03  0.61505940782E+03  0.00000000000E+00 0. -1.
         -1    1    6    6    0  503  0.24467640820E+02 -0.50392592203E+01  0.29880099642E+02  0.38947142840E+02  0.00000000000E+00 0.  1.
<mgrwt>
<rscale>  0 0.14586403E+04</rscale>
<asrwt>0</asrwt>
<pdfrwt beam="1">  1        2 0.23214612E+00 0.14586403E+04</pdfrwt>
<pdfrwt beam="2">  1       -2 0.23007894E+00 0.14586403E+04</pdfrwt>
<totfact> 0.10120180E+00</totfact>
</mgrwt>
</event>
<event>
12    1  0.1444206E-007  0.1519173E+04  0.7818608E-02  0.8871803E-01
          1   -1    0    0  501    0  0.00000000000E+00  0.00000000000E+00  0.86602827617E+03  0.86602827617E+03  0.00000000000E+00 0.  1.
         -1   -1    0    0    0  501 -0.00000000000E+00 -0.00000000000E+00 -0.28581154638E+04  0.28581154638E+04  0.00000000000E+00 0. -1.
         23    2    1    2    0    0  0.70343557438E+03  0.13062649077E+04 -0.59993881952E+03  0.16030130430E+04  0.92599203129E+02 0.  0.
    5000000    2    1    2    0    0 -0.70343557438E+03 -0.13062649077E+04 -0.13921483681E+04  0.21211306969E+04  0.59997394816E+03 0.  0.
         23    2    4    4    0    0 -0.45270208419E+03 -0.11616413749E+04 -0.12973749159E+04  0.18022611113E+04  0.10302223103E+03 0.  0.
         23    2    4    4    0    0 -0.25073349020E+03 -0.14462353277E+03 -0.94773452167E+02  0.31886958561E+03  0.94406334827E+02 0.  0.
          2    1    3    3  502    0  0.37059263931E+03  0.77619889450E+03 -0.32708119941E+03  0.92022048398E+03  0.00000000000E+00 0. -1.
         -2    1    3    3    0  502  0.33284293507E+03  0.53006601319E+03 -0.27285762012E+03  0.68279255900E+03  0.00000000000E+00 0.  1.
         11    1    5    5    0    0 -0.36683761485E+03 -0.10009792139E+04 -0.10638786099E+04  0.15061098629E+04  0.00000000000E+00 0.  1.
        -11    1    5    5    0    0 -0.85864469334E+02 -0.16066216104E+03 -0.23349630595E+03  0.29615124848E+03  0.00000000000E+00 0. -1.
          3    1    6    6  503    0 -0.16539318322E+03 -0.14310502680E+03 -0.60804994086E+02  0.22700484809E+03  0.00000000000E+00 0. -1.
         -3    1    6    6    0  503 -0.85340306975E+02 -0.15185059680E+01 -0.33968458081E+02  0.91864737519E+02  0.00000000000E+00 0.  1.
<mgrwt>
<rscale>  0 0.15191726E+04</rscale>
<asrwt>0</asrwt>
<pdfrwt beam="1">  1        1 0.13323512E+00 0.15191726E+04</pdfrwt>
<pdfrwt beam="2">  1       -1 0.43971007E+00 0.15191726E+04</pdfrwt>
<totfact> 0.70431231E-02</totfact>
</mgrwt>
</event>
<event>
12    1  0.1444206E-007  0.1740410E+04  0.7818608E-02  0.8738647E-01
          2   -1    0    0  501    0  0.00000000000E+00  0.00000000000E+00  0.36663493184E+04  0.36663493184E+04  0.00000000000E+00 0. -1.
         -2   -1    0    0    0  501 -0.00000000000E+00 -0.00000000000E+00 -0.98760095360E+03  0.98760095360E+03  0.00000000000E+00 0.  1.
         23    2    1    2    0    0  0.13280433172E+04  0.10581819584E+04  0.22182742119E+04  0.27950138638E+04  0.88960160470E+02 0.  0.
    5000000    2    1    2    0    0 -0.13280433172E+04 -0.10581819584E+04  0.46047415288E+03  0.18589364082E+04  0.60013333088E+03 0.  0.
         23    2    4    4    0    0 -0.14896557929E+03 -0.39588490510E+03  0.18247674210E+02  0.43303269854E+03  0.90932604114E+02 0.  0.
         23    2    4    4    0    0 -0.11790777379E+04 -0.66229705333E+03  0.44222647867E+03  0.14259037097E+04  0.93677275632E+02 0.  0.
          4    1    3    3  502    0  0.89262449807E+03  0.72710951365E+03  0.14375935164E+04  0.18417768209E+04  0.00000000000E+00 0. -1.
         -4    1    3    3    0  502  0.43541881910E+03  0.33107244479E+03  0.78068069545E+03  0.95323704291E+03  0.00000000000E+00 0.  1.
         13    1    5    5    0    0 -0.64645782437E+02 -0.82267999128E+02 -0.18340683064E+02  0.10622373333E+03  0.00000000000E+00 0.  1.
        -13    1    5    5    0    0 -0.84319796850E+02 -0.31361690597E+03  0.36588357273E+02  0.32680896521E+03  0.00000000000E+00 0. -1.
          4    1    6    6  503    0 -0.10958364194E+04 -0.62882825894E+03  0.43359330674E+03  0.13357715347E+04  0.00000000000E+00 0. -1.
         -4    1    6    6    0  503 -0.83241318525E+02 -0.33468794393E+02  0.86331719226E+01  0.90132174973E+02  0.00000000000E+00 0.  1.
<mgrwt>
<rscale>  0 0.17404104E+04</rscale>
<asrwt>0</asrwt>
<pdfrwt beam="1">  1        2 0.56405373E+00 0.17404104E+04</pdfrwt>
<pdfrwt beam="2">  1       -2 0.15193861E+00 0.17404104E+04</pdfrwt>
<totfact> 0.16601462E-01</totfact>
</mgrwt>
</event>
<event>
12    1  0.1444206E-007  0.1375740E+04  0.7818608E-02  0.8971569E-01
         -1   -1    0    0    0  501 -0.00000000000E+00  0.00000000000E+00  0.12970176690E+04  0.12970176690E+04  0.00000000000E+00 0.  1.
          1   -1    0    0  501    0  0.00000000000E+00 -0.00000000000E+00 -0.14746502153E+04  0.14746502153E+04  0.00000000000E+00 0. -1.
         23    2    1    2    0    0 -0.12740574001E+04  0.32927797590E+03 -0.56648505439E+02  0.13203398989E+04  0.91881180572E+02 0.  0.
    5000000    2    1    2    0    0  0.12740574001E+04 -0.32927797590E+03 -0.12098404085E+03  0.14513279854E+04  0.60005794623E+03 0.  0.
         23    2    4    4    0    0  0.15945077461E+03 -0.26415914041E+03 -0.74133986705E+02  0.33016217259E+03  0.91140612457E+02 0.  0.
         23    2    4    4    0    0  0.11146066255E+04 -0.65118835488E+02 -0.46850054147E+02  0.11211658128E+04  0.90716370385E+02 0.  0.
          3    1    3    3  502    0 -0.76202295702E+03  0.23946876333E+03 -0.16388069998E+02  0.79893231533E+03  0.00000000000E+00 0. -1.
         -3    1    3    3    0  502 -0.51203444311E+03  0.89809212568E+02 -0.40260435442E+02  0.52140758362E+03  0.00000000000E+00 0.  1.
         13    1    5    5    0    0  0.10717552494E+03 -0.11153679632E+03 -0.67302210091E+02  0.16869095282E+03  0.00000000000E+00 0. -1.
        -13    1    5    5    0    0  0.52275249673E+02 -0.15262234409E+03 -0.68317766132E+01  0.16147121977E+03  0.00000000000E+00 0.  1.
          4    1    6    6  503    0  0.44538804229E+03 -0.12371436521E+02 -0.61041369404E+02  0.44972170221E+03  0.00000000000E+00 0. -1.
         -4    1    6    6    0  503  0.66921858323E+03 -0.52747398967E+02  0.14191315257E+02  0.67144411060E+03  0.00000000000E+00 0.  1.
<mgrwt>
<rscale>  0 0.13757397E+04</rscale>
<asrwt>0</asrwt>
<pdfrwt beam="1">  1        1 0.22686926E+00 0.13757397E+04</pdfrwt>
<pdfrwt beam="2">  1       -1 0.19954118E+00 0.13757397E+04</pdfrwt>
<totfact> 0.99173309E-01</totfact>
</mgrwt>
</event>
<event>
12    1  0.1444206E-007  0.8559583E+03  0.7818608E-02  0.9482375E-01
          2   -1    0    0  501    0  0.00000000000E+00  0.00000000000E+00  0.34263244223E+04  0.34263244223E+04  0.00000000000E+00 0. -1.
         -2   -1    0    0    0  501 -0.00000000000E+00 -0.00000000000E+00 -0.25730307721E+03  0.25730307721E+03  0.00000000000E+00 0.  1.
         23    2    1    2    0    0  0.76775248508E+03 -0.96074307809E+02  0.78289918143E+03  0.11044955557E+04  0.91132613353E+02 0.  0.
    5000000    2    1    2    0    0 -0.76775248508E+03  0.96074307809E+02  0.23861221637E+04  0.25791319439E+04  0.59972364714E+03 0.  0.
         23    2    4    4    0    0 -0.65479961753E+02  0.20412574473E+03  0.89469924057E+03  0.92466667740E+03  0.92556945451E+02 0.  0.
         23    2    4    4    0    0 -0.70227252332E+03 -0.10805143692E+03  0.14914229231E+04  0.16544652665E+04  0.89728325380E+02 0.  0.
          1    1    3    3  502    0  0.36886907535E+03 -0.81705879376E+02  0.33990222014E+03  0.50820641941E+03  0.00000000000E+00 0. -1.
         -1    1    3    3    0  502  0.39888340972E+03 -0.14368428434E+02  0.44299696130E+03  0.59628913624E+03  0.00000000000E+00 0.  1.
         13    1    5    5    0    0 -0.54099216955E+02  0.79067966508E+02  0.53909248634E+03  0.54753920173E+03  0.00000000000E+00 0. -1.
        -13    1    5    5    0    0 -0.11380744798E+02  0.12505777822E+03  0.35560675424E+03  0.37712747567E+03  0.00000000000E+00 0.  1.
          3    1    6    6  503    0 -0.54191848589E+03 -0.55087249519E+02  0.11955040512E+04  0.13137504279E+04  0.00000000000E+00 0. -1.
         -3    1    6    6    0  503 -0.16035403744E+03 -0.52964187400E+02  0.29591887198E+03  0.34071483863E+03  0.00000000000E+00 0.  1.
<mgrwt>
<rscale>  0 0.85595827E+03</rscale>
<asrwt>0</asrwt>
<pdfrwt beam="1">  1        2 0.52712680E+00 0.85595827E+03</pdfrwt>
<pdfrwt beam="2">  1       -2 0.39585091E-01 0.85595827E+03</pdfrwt>
<totfact> 0.58458806E+00</totfact>
</mgrwt>
</event>
<event>
12    1  0.1444206E-007  0.1044138E+04  0.7818608E-02  0.9261417E-01
         -1   -1    0    0    0  501 -0.00000000000E+00  0.00000000000E+00  0.16854735742E+04  0.16854735742E+04  0.00000000000E+00 0.  1.
          1   -1    0    0  501    0  0.00000000000E+00 -0.00000000000E+00 -0.81140168599E+03  0.81140168599E+03  0.00000000000E+00 0. -1.
         23    2    1    2    0    0  0.51799838523E+03 -0.88613545985E+03  0.80259056538E+03  0.13058473813E+04  0.86760516833E+02 0.  0.
    5000000    2    1    2    0    0 -0.51799838523E+03  0.88613545985E+03  0.71481322836E+02  0.11910278789E+04  0.59989953200E+03 0.  0.
         23    2    4    4    0    0 -0.49925616771E+03  0.84921486108E+03 -0.97396189312E+02  0.99363620890E+03  0.86048222948E+02 0.  0.
         23    2    4    4    0    0 -0.18742217526E+02  0.36920598772E+02  0.16887751215E+03  0.19739167000E+03  0.93431557541E+02 0.  0.
          4    1    3    3  502    0  0.31298288603E+03 -0.56134190534E+03  0.45114013199E+03  0.78523273005E+03  0.00000000000E+00 0. -1.
         -4    1    3    3    0  502  0.20501549920E+03 -0.32479355451E+03  0.35145043339E+03  0.52061465124E+03  0.00000000000E+00 0.  1.
         13    1    5    5    0    0 -0.58038992756E+02  0.12758243731E+03 -0.40494259297E+02  0.14589581223E+03  0.00000000000E+00 0.  1.
        -13    1    5    5    0    0 -0.44121717495E+03  0.72163242376E+03 -0.56901930015E+02  0.84774039666E+03  0.00000000000E+00 0. -1.
          3    1    6    6  503    0 -0.41611044576E+02  0.30961842814E+02  0.16560090510E+03  0.17353320867E+03  0.00000000000E+00 0. -1.
         -3    1    6    6    0  503  0.22868827050E+02  0.59587559584E+01  0.32766070459E+01  0.23858461329E+02  0.00000000000E+00 0.  1.
<mgrwt>
<rscale>  0 0.10441384E+04</rscale>
<asrwt>0</asrwt>
<pdfrwt beam="1">  1        1 0.12483103E+00 0.10441384E+04</pdfrwt>
<pdfrwt beam="2">  1       -1 0.25930363E+00 0.10441384E+04</pdfrwt>
<totfact> 0.13141169E+00</totfact>
</mgrwt>
</event>
<event>
12    1  0.1444206E-007  0.9162268E+03  0.7818608E-02  0.9405521E-01
          2   -1    0    0  501    0  0.00000000000E+00  0.00000000000E+00  0.37710521700E+04  0.37710521700E+04  0.00000000000E+00 0.  1.
         -2   -1    0    0    0  501 -0.00000000000E+00 -0.00000000000E+00 -0.22748271482E+03  0.22748271482E+03  0.00000000000E+00 0. -1.
         23    2    1    2    0    0 -0.24425535347E+03  0.78638853372E+03  0.17365977306E+04  0.19241209180E+04  0.91662562737E+02 0.  0.
    5000000    2    1    2    0    0  0.24425535347E+03 -0.78638853372E+03  0.18069717246E+04  0.20744139669E+04  0.59998240702E+03 0.  0.
         23    2    4    4    0    0  0.41340555455E+02 -0.78418868890E+03  0.14939197944E+04  0.16903197931E+04  0.93400801009E+02 0.  0.
         23    2    4    4    0    0  0.20291479801E+03 -0.21998448230E+01  0.31305193023E+03  0.38409417376E+03  0.91365030087E+02 0.  0.
          3    1    3    3  502    0 -0.18238739345E+03  0.65898005936E+03  0.13709485321E+04  0.15319986154E+04  0.00000000000E+00 0. -1.
         -3    1    3    3    0  502 -0.61867960023E+02  0.12740847436E+03  0.36564919844E+03  0.39212230252E+03  0.00000000000E+00 0.  1.
         11    1    5    5    0    0  0.70445972929E+02 -0.51020951635E+03  0.99306060797E+03  0.11186803640E+04  0.00000000000E+00 0.  1.
        -11    1    5    5    0    0 -0.29105417474E+02 -0.27397917255E+03  0.50085918640E+03  0.57163942911E+03  0.00000000000E+00 0. -1.
          3    1    6    6  503    0  0.35852777793E+02  0.29525890099E+02  0.34962606236E+02  0.58134186985E+02  0.00000000000E+00 0. -1.
         -3    1    6    6    0  503  0.16706202022E+03 -0.31725734922E+02  0.27808932400E+03  0.32595998677E+03  0.00000000000E+00 0.  1.
<mgrwt>
<rscale>  0 0.91622684E+03</rscale>
<asrwt>0</asrwt>
<pdfrwt beam="1">  1        2 0.58016183E+00 0.91622684E+03</pdfrwt>
<pdfrwt beam="2">  1       -2 0.34997344E-01 0.91622684E+03</pdfrwt>
<totfact> 0.41972999E+00</totfact>
</mgrwt>
</event>
<event>
12    1  0.1444206E-007  0.8530413E+03  0.7818608E-02  0.9486264E-01
         -1   -1    0    0    0  501 -0.00000000000E+00  0.00000000000E+00  0.12818288602E+04  0.12818288602E+04  0.00000000000E+00 0. -1.
          1   -1    0    0  501    0  0.00000000000E+00 -0.00000000000E+00 -0.67636439787E+03  0.67636439787E+03  0.00000000000E+00 0.  1.
         23    2    1    2    0    0 -0.68879962056E+02 -0.77736880330E+03  0.57433255141E+03  0.97335265713E+03  0.92254051545E+02 0.  0.
    5000000    2    1    2    0    0  0.68879962056E+02  0.77736880330E+03  0.31131910897E+02  0.98484060091E+03  0.59991258348E+03 0.  0.
         23    2    4    4    0    0  0.26606844770E+03  0.57834082352E+03  0.15961953686E+03  0.66244128797E+03  0.89886241750E+02 0.  0.
         23    2    4    4    0    0 -0.19718848564E+03  0.19902797978E+03 -0.12848762597E+03  0.32239931294E+03  0.94534709776E+02 0.  0.
          3    1    3    3  502    0  0.21326712192E+02 -0.85888868651E+02  0.62971523737E+02  0.10861463627E+03  0.00000000000E+00 0. -1.
         -3    1    3    3    0  502 -0.90206674249E+02 -0.69147993465E+03  0.51136102767E+03  0.86473802086E+03  0.00000000000E+00 0.  1.
         13    1    5    5    0    0  0.19157011469E+03  0.44374864168E+03  0.15831377034E+03  0.50860123448E+03  0.00000000000E+00 0. -1.
        -13    1    5    5    0    0  0.74498333011E+02  0.13459218183E+03  0.13057665258E+01  0.15384005349E+03  0.00000000000E+00 0.  1.
          2    1    6    6  503    0 -0.91045212248E+02  0.63829092438E+02 -0.60342287968E+01  0.11135436961E+03  0.00000000000E+00 0. -1.
         -2    1    6    6    0  503 -0.10614327339E+03  0.13519888734E+03 -0.12245339717E+03  0.21104494333E+03  0.00000000000E+00 0.  1.
<mgrwt>
<rscale>  0 0.85304127E+03</rscale>
<asrwt>0</asrwt>
<pdfrwt beam="1">  1        1 0.10405606E+00 0.85304127E+03</pdfrwt>
<pdfrwt beam="2">  1       -1 0.19720444E+00 0.85304127E+03</pdfrwt>
<totfact> 0.46145298E+00</totfact>
</mgrwt>
</event>
<event>
12    1  0.1444206E-007  0.1228401E+04  0.7818608E-02  0.9088354E-01
          2   -1    0    0  501    0  0.00000000000E+00  0.00000000000E+00  0.16458637227E+04  0.16458637227E+04  0.00000000000E+00 0.  1.
         -2   -1    0    0    0  501 -0.00000000000E+00 -0.00000000000E+00 -0.14452876839E+04  0.14452876839E+04  0.00000000000E+00 0. -1.
         23    2    1    2    0    0 -0.10275270119E+04  0.62367842956E+03 -0.77304812907E+03  0.14319806875E+04  0.90436362275E+02 0.  0.
    5000000    2    1    2    0    0  0.10275270119E+04 -0.62367842956E+03  0.97362416789E+03  0.16591707191E+04  0.60009741796E+03 0.  0.
         23    2    4    4    0    0  0.25663611319E+03 -0.33927078296E+03  0.80328631501E+02  0.44210369034E+03  0.89644995479E+02 0.  0.
         23    2    4    4    0    0  0.77089089875E+03 -0.28440764660E+03  0.89329553639E+03  0.12170670288E+04  0.90081906730E+02 0.  0.
          2    1    3    3  502    0 -0.15814538132E+03  0.73069289258E+02 -0.14270116263E+03  0.22519481451E+03  0.00000000000E+00 0. -1.
         -2    1    3    3    0  502 -0.86938163062E+03  0.55060914030E+03 -0.63034696644E+03  0.12067858729E+04  0.00000000000E+00 0.  1.
         13    1    5    5    0    0  0.47374639686E+02 -0.24998338488E+02  0.29437408100E+02  0.61121472562E+02  0.00000000000E+00 0. -1.
        -13    1    5    5    0    0  0.20926147350E+03 -0.31427244447E+03  0.50891223401E+02  0.38098221778E+03  0.00000000000E+00 0.  1.
          3    1    6    6  503    0  0.62069304300E+02 -0.33003438026E+02  0.45403266313E+02  0.83685614353E+02  0.00000000000E+00 0. -1.
         -3    1    6    6    0  503  0.70882159445E+03 -0.25140420857E+03  0.84789227007E+03  0.11333814144E+04  0.00000000000E+00 0.  1.
<mgrwt>
<rscale>  0 0.12284007E+04</rscale>
<asrwt>0</asrwt>
<pdfrwt beam="1">  1        2 0.25320980E+00 0.12284007E+04</pdfrwt>
<pdfrwt beam="2">  1       -2 0.22235195E+00 0.12284007E+04</pdfrwt>
<totfact> 0.97103150E-01</totfact>
</mgrwt>
</event>
<event>
12    1  0.1444206E-007  0.6365356E+03  0.7818608E-02  0.9832377E-01
         -1   -1    0    0    0  501 -0.00000000000E+00  0.00000000000E+00  0.13782602611E+03  0.13782602611E+03  0.00000000000E+00 0.  1.
          1   -1    0    0  501    0  0.00000000000E+00 -0.00000000000E+00 -0.41419855096E+04  0.41419855096E+04  0.00000000000E+00 0. -1.
         23    2    1    2    0    0  0.36911369987E+03  0.35179587533E+03 -0.63395813983E+03  0.81881780191E+03  0.92490044472E+02 0.  0.
    5000000    2    1    2    0    0 -0.36911369987E+03 -0.35179587533E+03 -0.33702013436E+04  0.34609937338E+04  0.60017936262E+03 0.  0.
         23    2    4    4    0    0  0.10336474405E+03  0.39313361299E+02 -0.10342890226E+04  0.10442295718E+04  0.91824864435E+02 0.  0.
         23    2    4    4    0    0 -0.47247844392E+03 -0.39110923663E+03 -0.23359123210E+04  0.24167641619E+04  0.89779329405E+02 0.  0.
          2    1    3    3  502    0  0.20475129649E+03  0.17012959286E+03 -0.26261756905E+03  0.37394539623E+03  0.00000000000E+00 0. -1.
         -2    1    3    3    0  502  0.16436240338E+03  0.18166628247E+03 -0.37134057078E+03  0.44487240568E+03  0.00000000000E+00 0.  1.
         11    1    5    5    0    0 -0.16511388518E+02  0.77137039335E+01 -0.19251688425E+03  0.19337755273E+03  0.00000000000E+00 0.  1.
        -11    1    5    5    0    0  0.11987613256E+03  0.31599657366E+02 -0.84177213834E+03  0.85085201909E+03  0.00000000000E+00 0. -1.
          3    1    6    6  503    0 -0.25077681036E+03 -0.26402042066E+03 -0.13417254921E+04  0.13902600790E+04  0.00000000000E+00 0. -1.
         -3    1    6    6    0  503 -0.22170163356E+03 -0.12708881597E+03 -0.99418682896E+03  0.10265040830E+04  0.00000000000E+00 0.  1.
<mgrwt>
<rscale>  0 0.63653560E+03</rscale>
<asrwt>0</asrwt>
<pdfrwt beam="1">  1        1 0.63722844E+00 0.63653560E+03</pdfrwt>
<pdfrwt beam="2">  1       -1 0.21204007E-01 0.63653560E+03</pdfrwt>
<totfact> 0.15086439E+00</totfact>
</mgrwt>
</event>
<event>
12    1  0.1444206E-007  0.4049647E+03  0.7818608E-02  0.1042074E+00
          2   -1    0    0  501    0  0.00000000000E+00  0.00000000000E+00  0.17154067584E+04  0.17154067584E+04  0.00000000000E+00 0. -1.
         -2   -1    0    0    0  501 -0.00000000000E+00 -0.00000000000E+00 -0.15536276277E+03  0.15536276277E+03  0.00000000000E+00 0.  1.
         23    2    1    2    0    0 -0.17018413163E+03  0.23693776850E+03  0.22852213400E+03  0.38146717539E+03  0.90513509340E+02 0.  0.
    5000000    2    1    2    0    0  0.17018413163E+03 -0.23693776850E+03  0.13315218617E+04  0.14893023458E+04  0.59997405304E+03 0.  0.
         23    2    4    4    0    0  0.82586859526E+02  0.95337491042E+02  0.96855795163E+03  0.98099315665E+03  0.91286588145E+02 0.  0.
         23    2    4    4    0    0  0.87597272102E+02 -0.33227525954E+03  0.36296391004E+03  0.50830918915E+03  0.92494873375E+02 0.  0.
          1    1    3    3  502    0 -0.62676329981E+02  0.16168268145E+03  0.11627948464E+03  0.20878345330E+03  0.00000000000E+00 0. -1.
         -1    1    3    3    0  502 -0.10750780165E+03  0.75255087048E+02  0.11224264936E+03  0.17268372210E+03  0.00000000000E+00 0.  1.
         13    1    5    5    0    0  0.41540927132E+02  0.10093249659E+03  0.57553782894E+03  0.58579587745E+03  0.00000000000E+00 0. -1.
        -13    1    5    5    0    0  0.41045932394E+02 -0.55950055496E+01  0.39302012268E+03  0.39519727920E+03  0.00000000000E+00 0.  1.
          2    1    6    6  503    0  0.10261305978E+03 -0.23686145198E+03  0.24551325523E+03  0.35624366095E+03  0.00000000000E+00 0. -1.
         -2    1    6    6    0  503 -0.15015787677E+02 -0.95413807568E+02  0.11745065480E+03  0.15206552820E+03  0.00000000000E+00 0.  1.
<mgrwt>
<rscale>  0 0.40496469E+03</rscale>
<asrwt>0</asrwt>
<pdfrwt beam="1">  1        2 0.26390872E+00 0.40496469E+03</pdfrwt>
<pdfrwt beam="2">  1       -2 0.23901965E-01 0.40496469E+03</pdfrwt>
<totfact> 0.15861752E+02</totfact>
</mgrwt>
</event>
<event>
12    1  0.1444206E-007  0.1195190E+04  0.7818608E-02  0.9117077E-01
         -1   -1    0    0    0  501 -0.00000000000E+00  0.00000000000E+00  0.13216096058E+04  0.13216096058E+04  0.00000000000E+00 0.  1.
          1   -1    0    0  501    0  0.00000000000E+00 -0.00000000000E+00 -0.13448720560E+04  0.13448720560E+04  0.00000000000E+00 0. -1.
         23    2    1    2    0    0 -0.11605670267E+04  0.24277071889E+03  0.42669999469E+03  0.12633753433E+04  0.90503741147E+02 0.  0.
    5000000    2    1    2    0    0  0.11605670267E+04 -0.24277071889E+03 -0.44996244487E+03  0.14031063185E+04  0.60032299128E+03 0.  0.
         23    2    4    4    0    0  0.34453802302E+03 -0.59061656971E+02 -0.43075712370E+03  0.56178904180E+03  0.88659456591E+02 0.  0.
         23    2    4    4    0    0  0.81602900367E+03 -0.18370906192E+03 -0.19205321167E+02  0.84131727670E+03  0.88281150078E+02 0.  0.
          3    1    3    3  502    0 -0.80692820416E+03  0.20838270876E+03  0.31462396477E+03  0.89081127024E+03  0.00000000000E+00 0. -1.
         -3    1    3    3    0  502 -0.35363882253E+03  0.34388010128E+02  0.11207602992E+03  0.37256407304E+03  0.00000000000E+00 0.  1.
         11    1    5    5    0    0  0.11377331922E+02 -0.22824749781E+02 -0.31045670190E+02  0.40177686865E+02  0.00000000000E+00 0. -1.
        -11    1    5    5    0    0  0.33316069110E+03 -0.36236907189E+02 -0.39971145351E+03  0.52161135494E+03  0.00000000000E+00 0.  1.
          4    1    6    6  503    0  0.49270307705E+03 -0.15469954020E+03 -0.16460151347E+02  0.51668095228E+03  0.00000000000E+00 0. -1.
         -4    1    6    6    0  503  0.32332592662E+03 -0.29009521721E+02 -0.27451698196E+01  0.32463632442E+03  0.00000000000E+00 0.  1.
<mgrwt>
<rscale>  0 0.11951898E+04</rscale>
<asrwt>0</asrwt>
<pdfrwt beam="1">  1        1 0.20690339E+00 0.11951898E+04</pdfrwt>
<pdfrwt beam="2">  1       -1 0.20332456E+00 0.11951898E+04</pdfrwt>
<totfact> 0.11763851E+00</totfact>
</mgrwt>
</event>
<event>
12    1  0.1444206E-007  0.1077845E+04  0.7818608E-02  0.9227059E-01
          1   -1    0    0  501    0  0.00000000000E+00  0.00000000000E+00  0.27197217634E+04  0.27197217634E+04  0.00000000000E+00 0. -1.
         -1   -1    0    0    0  501 -0.00000000000E+00 -0.00000000000E+00 -0.46881198423E+03  0.46881198423E+03  0.00000000000E+00 0.  1.
         23    2    1    2    0    0 -0.48441194738E+03  0.92845082610E+03  0.10693107762E+04  0.14994720005E+04  0.91185926152E+02 0.  0.
    5000000    2    1    2    0    0  0.48441194738E+03 -0.92845082610E+03  0.11815990030E+04  0.16890617471E+04  0.60006458849E+03 0.  0.
         23    2    4    4    0    0  0.52197088937E+03 -0.82070306369E+03  0.73796223077E+03  0.12242033720E+04  0.89880553765E+02 0.  0.
         23    2    4    4    0    0 -0.37558941997E+02 -0.10774776242E+03  0.44363677224E+03  0.46485837508E+03  0.79116804541E+02 0.  0.
          1    1    3    3  502    0 -0.58173551996E+02  0.16275219328E+03  0.21193759192E+03  0.27347757027E+03  0.00000000000E+00 0.  1.
         -1    1    3    3    0  502 -0.42623839538E+03  0.76569863282E+03  0.85737318426E+03  0.12259944303E+04  0.00000000000E+00 0. -1.
         13    1    5    5    0    0  0.35352639082E+03 -0.62242024438E+03  0.51921858668E+03  0.88429396152E+03  0.00000000000E+00 0. -1.
        -13    1    5    5    0    0  0.16844449855E+03 -0.19828281931E+03  0.21874364409E+03  0.33990941051E+03  0.00000000000E+00 0.  1.
          4    1    6    6  503    0  0.15693006466E+02 -0.83796459719E+01  0.13706634572E+03  0.13821603397E+03  0.00000000000E+00 0.  1.
         -4    1    6    6    0  503 -0.53251948463E+02 -0.99368116443E+02  0.30657042653E+03  0.32664234110E+03  0.00000000000E+00 0. -1.
<mgrwt>
<rscale>  0 0.10778452E+04</rscale>
<asrwt>0</asrwt>
<pdfrwt beam="1">  1        1 0.41841872E+00 0.10778452E+04</pdfrwt>
<pdfrwt beam="2">  1       -1 0.72124922E-01 0.10778452E+04</pdfrwt>
<totfact> 0.18640671E+00</totfact>
</mgrwt>
</event>
<event>
12    1  0.1444206E-007  0.7767505E+03  0.7818608E-02  0.9594293E-01
          1   -1    0    0  501    0  0.00000000000E+00  0.00000000000E+00  0.19187222378E+04  0.19187222378E+04  0.00000000000E+00 0. -1.
         -1   -1    0    0    0  501 -0.00000000000E+00 -0.00000000000E+00 -0.32934958056E+03  0.32934958056E+03  0.00000000000E+00 0.  1.
         23    2    1    2    0    0 -0.67408310843E+03  0.39751978746E+02  0.77476376987E+03  0.10317657058E+04  0.91177385647E+02 0.  0.
    5000000    2    1    2    0    0  0.67408310843E+03 -0.39751978746E+02  0.81460888733E+03  0.12163061125E+04  0.59987053869E+03 0.  0.
         23    2    4    4    0    0  0.73069239762E+03 -0.14701069672E+03  0.68238472724E+03  0.10143659325E+04  0.88123800552E+02 0.  0.
         23    2    4    4    0    0 -0.56609289183E+02  0.10725871798E+03  0.13222416009E+03  0.20194018001E+03  0.92669108046E+02 0.  0.
          3    1    3    3  502    0 -0.14315441379E+03 -0.37960693522E+01  0.22122014875E+03  0.26352599595E+03  0.00000000000E+00 0. -1.
         -3    1    3    3    0  502 -0.53092869465E+03  0.43548048098E+02  0.55354362112E+03  0.76823970984E+03  0.00000000000E+00 0.  1.
         11    1    5    5    0    0  0.36520460195E+03 -0.44613937049E+02  0.29028196787E+03  0.46864530888E+03  0.00000000000E+00 0. -1.
        -11    1    5    5    0    0  0.36548779567E+03 -0.10239675967E+03  0.39210275937E+03  0.54572062366E+03  0.00000000000E+00 0.  1.
          2    1    6    6  503    0 -0.24657547490E+02  0.81456870349E+01 -0.80953290140E+01  0.27200757661E+02  0.00000000000E+00 0. -1.
         -2    1    6    6    0  503 -0.31951741693E+02  0.99113030940E+02  0.14031948910E+03  0.17473942234E+03  0.00000000000E+00 0.  1.
<mgrwt>
<rscale>  0 0.77675049E+03</rscale>
<asrwt>0</asrwt>
<pdfrwt beam="1">  1        1 0.29518803E+00 0.77675049E+03</pdfrwt>
<pdfrwt beam="2">  1       -1 0.50669167E-01 0.77675049E+03</pdfrwt>
<totfact> 0.13750850E+01</totfact>
</mgrwt>
</event>
<event>
12    1  0.1795468E-007  0.8749272E+03  0.7818608E-02  0.9457478E-01
          2   -1    0    0  501    0  0.00000000000E+00  0.00000000000E+00  0.16176905627E+04  0.16176905627E+04  0.00000000000E+00 0.  1.
         -2   -1    0    0    0  501 -0.00000000000E+00 -0.00000000000E+00 -0.58915528417E+03  0.58915528417E+03  0.00000000000E+00 0. -1.
         23    2    1    2    0    0 -0.82620315026E+03  0.18194766499E+03  0.18637923174E+03  0.87088669396E+03  0.89385778474E+02 0.  0.
    5000000    2    1    2    0    0  0.82620315026E+03 -0.18194766499E+03  0.84215604677E+03  0.13359591529E+04  0.59986952979E+03 0.  0.
         23    2    4    4    0    0  0.79374277787E+03 -0.16125735471E+03  0.90639421093E+03  0.12190488769E+04  0.92185501569E+02 0.  0.
         23    2    4    4    0    0  0.32460372392E+02 -0.20690310285E+02 -0.64238164161E+02  0.11691027602E+03  0.89775866412E+02 0.  0.
          2    1    3    3  502    0 -0.57403310936E+03  0.12229303351E+03  0.86881162349E+02  0.59331099186E+03  0.00000000000E+00 0. -1.
         -2    1    3    3    0  502 -0.25217004090E+03  0.59654631483E+02  0.99498069389E+02  0.27757570210E+03  0.00000000000E+00 0.  1.
         13    1    5    5    0    0  0.33963369015E+03 -0.64675222443E+02  0.45562091099E+03  0.57194784938E+03  0.00000000000E+00 0. -1.
        -13    1    5    5    0    0  0.45410908772E+03 -0.96582132264E+02  0.45077329994E+03  0.64710102747E+03  0.00000000000E+00 0.  1.
          1    1    6    6  503    0 -0.26074185967E+02 -0.23642414205E+02 -0.40551254515E+02  0.53695727633E+02  0.00000000000E+00 0. -1.
         -1    1    6    6    0  503  0.58534558359E+02  0.29521039203E+01 -0.23686909646E+02  0.63214548392E+02  0.00000000000E+00 0.  1.
<mgrwt>
<rscale>  0 0.87492720E+03</rscale>
<asrwt>0</asrwt>
<pdfrwt beam="1">  1        2 0.24887547E+00 0.87492720E+03</pdfrwt>
<pdfrwt beam="2">  1       -2 0.90639275E-01 0.87492720E+03</pdfrwt>
<totfact> 0.11454450E+01</totfact>
</mgrwt>
</event>
<event>
12    1  0.1444206E-007  0.7818724E+03  0.7818608E-02  0.9586633E-01
          1   -1    0    0  501    0  0.00000000000E+00  0.00000000000E+00  0.18578565742E+04  0.18578565742E+04  0.00000000000E+00 0. -1.
         -1   -1    0    0    0  501 -0.00000000000E+00 -0.00000000000E+00 -0.44084647847E+03  0.44084647847E+03  0.00000000000E+00 0.  1.
         23    2    1    2    0    0 -0.67692324291E+03  0.92960548815E+02  0.11674192639E+04  0.13558162703E+04  0.92213234554E+02 0.  0.
    5000000    2    1    2    0    0  0.67692324291E+03 -0.92960548815E+02  0.24959083191E+03  0.94288678245E+03  0.59989429128E+03 0.  0.
         23    2    4    4    0    0  0.49530162313E+03  0.19452781377E+03  0.58147217498E+02  0.54291327863E+03  0.90603316759E+02 0.  0.
         23    2    4    4    0    0  0.18162161978E+03 -0.28748836258E+03  0.19144361441E+03  0.39997350381E+03  0.87705044671E+02 0.  0.
          3    1    3    3  502    0 -0.51207721775E+03  0.42313054401E+02  0.81471980622E+03  0.96321432411E+03  0.00000000000E+00 0. -1.
         -3    1    3    3    0  502 -0.16484602516E+03  0.50647494414E+02  0.35269945764E+03  0.39260194615E+03  0.00000000000E+00 0.  1.
         13    1    5    5    0    0  0.38811451097E+02  0.39273135860E+02  0.21844570027E+02  0.59379231859E+02  0.00000000000E+00 0.  1.
        -13    1    5    5    0    0  0.45649017204E+03  0.15525467791E+03  0.36302647471E+02  0.48353404678E+03  0.00000000000E+00 0. -1.
          4    1    6    6  503    0  0.13812019763E+03 -0.22241554504E+03  0.10165128329E+03  0.28085378235E+03  0.00000000000E+00 0. -1.
         -4    1    6    6    0  503  0.43501422154E+02 -0.65072817544E+02  0.89792331121E+02  0.11911972146E+03  0.00000000000E+00 0.  1.
<mgrwt>
<rscale>  0 0.78187240E+03</rscale>
<asrwt>0</asrwt>
<pdfrwt beam="1">  1        1 0.28582408E+00 0.78187240E+03</pdfrwt>
<pdfrwt beam="2">  1       -1 0.67822536E-01 0.78187240E+03</pdfrwt>
<totfact> 0.85149140E+00</totfact>
</mgrwt>
</event>
<event>
12    1  0.1444206E-007  0.7171964E+03  0.7818608E-02  0.9688268E-01
         -2   -1    0    0    0  501 -0.00000000000E+00  0.00000000000E+00  0.61435074785E+03  0.61435074785E+03  0.00000000000E+00 0. -1.
          2   -1    0    0  501    0  0.00000000000E+00 -0.00000000000E+00 -0.15121828653E+04  0.15121828653E+04  0.00000000000E+00 0.  1.
         23    2    1    2    0    0  0.44903015131E+03  0.54256376509E+03 -0.96591429629E+03  0.11988285381E+04  0.90531320789E+02 0.  0.
    5000000    2    1    2    0    0 -0.44903015131E+03 -0.54256376509E+03  0.68082178787E+02  0.92770507508E+03  0.59999833940E+03 0.  0.
         23    2    4    4    0    0 -0.25181997470E+03 -0.38365273137E+03 -0.23416132414E+03  0.52291984569E+03  0.89503750495E+02 0.  0.
         23    2    4    4    0    0 -0.19721017661E+03 -0.15891103373E+03  0.30224350292E+03  0.40478522939E+03  0.91407748432E+02 0.  0.
          3    1    3    3  502    0  0.12681978519E+03  0.15511849494E+03 -0.20911804515E+03  0.28961243446E+03  0.00000000000E+00 0. -1.
         -3    1    3    3    0  502  0.32221036612E+03  0.38744527015E+03 -0.75679625114E+03  0.90921610365E+03  0.00000000000E+00 0.  1.
         13    1    5    5    0    0 -0.76241776884E+02 -0.19088827526E+03 -0.84177947091E+02  0.22211949251E+03  0.00000000000E+00 0.  1.
        -13    1    5    5    0    0 -0.17557819782E+03 -0.19276445611E+03 -0.14998337705E+03  0.30080035319E+03  0.00000000000E+00 0. -1.
          3    1    6    6  503    0 -0.51331546359E+02 -0.47040620349E+01  0.30267419938E+02  0.59776019949E+02  0.00000000000E+00 0. -1.
         -3    1    6    6    0  503 -0.14587863025E+03 -0.15420697169E+03  0.27197608299E+03  0.34500920944E+03  0.00000000000E+00 0.  1.
<mgrwt>
<rscale>  0 0.71719643E+03</rscale>
<asrwt>0</asrwt>
<pdfrwt beam="1">  1        2 0.23264352E+00 0.71719643E+03</pdfrwt>
<pdfrwt beam="2">  1       -2 0.94515500E-01 0.71719643E+03</pdfrwt>
<totfact> 0.12129637E+01</totfact>
</mgrwt>
</event>
<event>
12    1  0.1444206E-007  0.8656622E+03  0.7818608E-02  0.9469554E-01
          1   -1    0    0  501    0  0.00000000000E+00  0.00000000000E+00  0.75385852222E+03  0.75385852222E+03  0.00000000000E+00 0. -1.
         -1   -1    0    0    0  501 -0.00000000000E+00 -0.00000000000E+00 -0.10618409967E+04  0.10618409967E+04  0.00000000000E+00 0.  1.
         23    2    1    2    0    0  0.76462607245E+03 -0.11253465752E+03 -0.30800221575E+03  0.83727748048E+03  0.94080468722E+02 0.  0.
    5000000    2    1    2    0    0 -0.76462607245E+03  0.11253465752E+03  0.19741264048E-01  0.97842203844E+03  0.59999383755E+03 0.  0.
         23    2    4    4    0    0  0.47961633603E+02  0.12064685415E+03 -0.19948232273E+02  0.16005130037E+03  0.91446733485E+02 0.  0.
         23    2    4    4    0    0 -0.81258770605E+03 -0.81121966296E+01  0.19967973537E+02  0.81837073807E+03  0.94696130837E+02 0.  0.
          3    1    3    3  502    0  0.47998935419E+03 -0.72136264976E+02 -0.24175760982E+03  0.54225470285E+03  0.00000000000E+00 0. -1.
         -3    1    3    3    0  502  0.28463671827E+03 -0.40398392549E+02 -0.66244605926E+02  0.29502277763E+03  0.00000000000E+00 0.  1.
         11    1    5    5    0    0 -0.12604622261E+02  0.84344990678E+01 -0.28464657677E+02  0.32252969065E+02  0.00000000000E+00 0. -1.
        -11    1    5    5    0    0  0.60566255864E+02  0.11221235509E+03  0.85164254036E+01  0.12779833131E+03  0.00000000000E+00 0.  1.
          4    1    6    6  503    0 -0.15226065799E+03 -0.29542250192E+02  0.28209553554E+02  0.15764463654E+03  0.00000000000E+00 0.  1.
         -4    1    6    6    0  503 -0.66032704806E+03  0.21430053562E+02 -0.82415800173E+01  0.66072610153E+03  0.00000000000E+00 0. -1.
<mgrwt>
<rscale>  0 0.86566218E+03</rscale>
<asrwt>0</asrwt>
<pdfrwt beam="1">  1        1 0.11597823E+00 0.86566218E+03</pdfrwt>
<pdfrwt beam="2">  1       -1 0.16336015E+00 0.86566218E+03</pdfrwt>
<totfact> 0.68171877E+00</totfact>
</mgrwt>
</event>
<event>
12    1  0.1444206E-007  0.4615137E+03  0.7818608E-02  0.1024343E+00
          2   -1    0    0  501    0  0.00000000000E+00  0.00000000000E+00  0.45872435815E+03  0.45872435815E+03  0.00000000000E+00 0. -1.
         -2   -1    0    0    0  501 -0.00000000000E+00 -0.00000000000E+00 -0.83000516595E+03  0.83000516595E+03  0.00000000000E+00 0.  1.
         23    2    1    2    0    0  0.39682360043E+03  0.15323208834E+03  0.55344825467E+02  0.43850684490E+03  0.90973405796E+02 0.  0.
    5000000    2    1    2    0    0 -0.39682360043E+03 -0.15323208834E+03 -0.42662563327E+03  0.85022267919E+03  0.59993343839E+03 0.  0.
         23    2    4    4    0    0 -0.14625666583E+03 -0.17435654414E+03 -0.51229453453E+03  0.56808632824E+03  0.92114979441E+02 0.  0.
         23    2    4    4    0    0 -0.25056693461E+03  0.21124455798E+02  0.85668901262E+02  0.28213635096E+03  0.95035406746E+02 0.  0.
          3    1    3    3  502    0  0.18308412270E+03  0.41243623813E+02 -0.11787079564E+02  0.18804193079E+03  0.00000000000E+00 0. -1.
         -3    1    3    3    0  502  0.21373947773E+03  0.11198846453E+03  0.67131905031E+02  0.25046491411E+03  0.00000000000E+00 0.  1.
         11    1    5    5    0    0 -0.15568109975E+02 -0.19904350514E+02 -0.15870187373E+03  0.16070107014E+03  0.00000000000E+00 0. -1.
        -11    1    5    5    0    0 -0.13068855585E+03 -0.15445219362E+03 -0.35359266080E+03  0.40738525810E+03  0.00000000000E+00 0.  1.
          4    1    6    6  503    0 -0.16412772215E+03  0.55760162552E+02  0.73285580406E+02  0.18819638998E+03  0.00000000000E+00 0. -1.
         -4    1    6    6    0  503 -0.86439212461E+02 -0.34635706754E+02  0.12383320856E+02  0.93939960978E+02  0.00000000000E+00 0.  1.
<mgrwt>
<rscale>  0 0.46151371E+03</rscale>
<asrwt>0</asrwt>
<pdfrwt beam="1">  1        2 0.70572979E-01 0.46151371E+03</pdfrwt>
<pdfrwt beam="2">  1       -2 0.12769310E+00 0.46151371E+03</pdfrwt>
<totfact> 0.32150637E+01</totfact>
</mgrwt>
</event>
<event>
12    1  0.1444206E-007  0.9055931E+03  0.7818608E-02  0.9418617E-01
         -1   -1    0    0    0  501 -0.00000000000E+00  0.00000000000E+00  0.10094718497E+04  0.10094718497E+04  0.00000000000E+00 0.  1.
          1   -1    0    0  501    0  0.00000000000E+00 -0.00000000000E+00 -0.97313633990E+03  0.97313633990E+03  0.00000000000E+00 0. -1.
         23    2    1    2    0    0 -0.94073030106E+02 -0.84669973840E+03  0.29995781156E+03  0.90781159003E+03  0.91635213103E+02 0.  0.
    5000000    2    1    2    0    0  0.94073030106E+02  0.84669973840E+03 -0.26362230172E+03  0.10747965996E+04  0.59995069014E+03 0.  0.
         23    2    4    4    0    0  0.24861799912E+03  0.35637020232E+03  0.78280119648E+02  0.45059830413E+03  0.90002355318E+02 0.  0.
         23    2    4    4    0    0 -0.15454496902E+03  0.49032953607E+03 -0.34190242137E+03  0.62419829549E+03  0.91755353860E+02 0.  0.
          1    1    3    3  502    0 -0.52539259219E+02 -0.36451569381E+03  0.17623538526E+03  0.40827806188E+03  0.00000000000E+00 0. -1.
         -1    1    3    3    0  502 -0.41533770887E+02 -0.48218404458E+03  0.12372242630E+03  0.49953352815E+03  0.00000000000E+00 0.  1.
         11    1    5    5    0    0  0.18848271725E+03  0.30092330178E+03  0.31752841173E+02  0.35649517694E+03  0.00000000000E+00 0.  1.
        -11    1    5    5    0    0  0.60135281871E+02  0.55446900543E+02  0.46527278476E+02  0.94103127195E+02  0.00000000000E+00 0. -1.
          4    1    6    6  503    0 -0.12199506859E+03  0.23610736932E+03 -0.16603084684E+03  0.31336197713E+03  0.00000000000E+00 0. -1.
         -4    1    6    6    0  503 -0.32549900430E+02  0.25422216675E+03 -0.17587157453E+03  0.31083631836E+03  0.00000000000E+00 0.  1.
<mgrwt>
<rscale>  0 0.90559306E+03</rscale>
<asrwt>0</asrwt>
<pdfrwt beam="1">  1        1 0.14971328E+00 0.90559306E+03</pdfrwt>
<pdfrwt beam="2">  1       -1 0.15530336E+00 0.90559306E+03</pdfrwt>
<totfact> 0.51130620E+00</totfact>
</mgrwt>
</event>
<event>
12    1  0.1444206E-007  0.3340485E+03  0.7818608E-02  0.1069359E+00
          3   -1    0    0  501    0  0.00000000000E+00  0.00000000000E+00  0.10103392766E+04  0.10103392766E+04  0.00000000000E+00 0. -1.
         -3   -1    0    0    0  501 -0.00000000000E+00 -0.00000000000E+00 -0.19305045010E+03  0.19305045010E+03  0.00000000000E+00 0.  1.
         23    2    1    2    0    0 -0.11960003375E+03  0.17744408138E+03  0.31685954383E+03  0.39328754212E+03  0.92111618075E+02 0.  0.
    5000000    2    1    2    0    0  0.11960003375E+03 -0.17744408138E+03  0.50042928264E+03  0.81010218455E+03  0.60003792580E+03 0.  0.
         23    2    4    4    0    0  0.65919353174E+02  0.10854666330E+03 -0.63377483401E+02  0.16902817026E+03  0.91793669178E+02 0.  0.
         23    2    4    4    0    0  0.53680680576E+02 -0.28599074468E+03  0.56380676604E+03  0.64107401429E+03  0.91790527072E+02 0.  0.
          4    1    3    3  502    0 -0.19995556604E+01  0.43557958694E+02  0.12038002359E+03  0.12803376144E+03  0.00000000000E+00 0. -1.
         -4    1    3    3    0  502 -0.11760047809E+03  0.13388612268E+03  0.19647952024E+03  0.26525378069E+03  0.00000000000E+00 0.  1.
         11    1    5    5    0    0  0.16593970783E+02  0.10190390354E+03 -0.25134323656E+02  0.10626146832E+03  0.00000000000E+00 0. -1.
        -11    1    5    5    0    0  0.49325382391E+02  0.66427597627E+01 -0.38243159745E+02  0.62766701941E+02  0.00000000000E+00 0.  1.
          4    1    6    6  503    0  0.15438174070E+02 -0.17884373408E+03  0.42664620878E+03  0.46287191090E+03  0.00000000000E+00 0. -1.
         -4    1    6    6    0  503  0.38242506506E+02 -0.10714701060E+03  0.13716055726E+03  0.17820210339E+03  0.00000000000E+00 0.  1.
<mgrwt>
<rscale>  0 0.33404850E+03</rscale>
<asrwt>0</asrwt>
<pdfrwt beam="1">  1        3 0.15543681E+00 0.33404850E+03</pdfrwt>
<pdfrwt beam="2">  1       -3 0.29700070E-01 0.33404850E+03</pdfrwt>
<totfact> 0.85149762E+00</totfact>
</mgrwt>
</event>
<event>
12    1  0.1444206E-007  0.1002270E+04  0.7818608E-02  0.9306059E-01
         -2   -1    0    0    0  501 -0.00000000000E+00  0.00000000000E+00  0.42281259623E+03  0.42281259623E+03  0.00000000000E+00 0.  1.
          2   -1    0    0  501    0  0.00000000000E+00 -0.00000000000E+00 -0.29437161644E+04  0.29437161644E+04  0.00000000000E+00 0. -1.
         23    2    1    2    0    0  0.44738742749E+03 -0.88899153001E+03 -0.15876260179E+04  0.18760171474E+04  0.91774255240E+02 0.  0.
    5000000    2    1    2    0    0 -0.44738742749E+03  0.88899153001E+03 -0.93327755033E+03  0.14905116133E+04  0.60013034638E+03 0.  0.
         23    2    4    4    0    0 -0.19291033312E+03  0.29167984206E+03 -0.71189263865E+03  0.79860809316E+03  0.93232132957E+02 0.  0.
         23    2    4    4    0    0 -0.25447709438E+03  0.59731168795E+03 -0.22138491169E+03  0.69190352012E+03  0.90439802632E+02 0.  0.
          3    1    3    3  502    0  0.16090874850E+03 -0.32458452698E+03 -0.66255118299E+03  0.75512966475E+03  0.00000000000E+00 0. -1.
         -3    1    3    3    0  502  0.28647867899E+03 -0.56440700303E+03 -0.92507483486E+03  0.11208874826E+04  0.00000000000E+00 0.  1.
         11    1    5    5    0    0 -0.93320198648E+02  0.20926774450E+03 -0.50658897457E+03  0.55599823518E+03  0.00000000000E+00 0. -1.
        -11    1    5    5    0    0 -0.99590134469E+02  0.82412097552E+02 -0.20530366408E+03  0.24260985798E+03  0.00000000000E+00 0.  1.
          3    1    6    6  503    0 -0.11857620446E+03  0.33710884855E+03 -0.16219350938E+03  0.39244034773E+03  0.00000000000E+00 0. -1.
         -3    1    6    6    0  503 -0.13590088992E+03  0.26020283940E+03 -0.59191402304E+02  0.29946317239E+03  0.00000000000E+00 0.  1.
<mgrwt>
<rscale>  0 0.10022696E+04</rscale>
<asrwt>0</asrwt>
<pdfrwt beam="1">  1        2 0.45287942E+00 0.10022696E+04</pdfrwt>
<pdfrwt beam="2">  1       -2 0.65048091E-01 0.10022696E+04</pdfrwt>
<totfact> 0.42000376E+00</totfact>
</mgrwt>
</event>
<event>
12    1  0.1444206E-007  0.4846058E+03  0.7818608E-02  0.1017877E+00
          2   -1    0    0  501    0  0.00000000000E+00  0.00000000000E+00  0.64354983089E+03  0.64354983089E+03  0.00000000000E+00 0. -1.
         -2   -1    0    0    0  501 -0.00000000000E+00 -0.00000000000E+00 -0.95498337091E+03  0.95498337091E+03  0.00000000000E+00 0.  1.
         23    2    1    2    0    0 -0.22589866149E+03  0.19858692557E+03 -0.73864343353E+03  0.80280937724E+03  0.91879279594E+02 0.  0.
    5000000    2    1    2    0    0  0.22589866149E+03 -0.19858692557E+03  0.42720989351E+03  0.79572382455E+03  0.60016759291E+03 0.  0.
         23    2    4    4    0    0 -0.19148072351E+03 -0.79320558237E+02  0.15629895727E+03  0.27611520973E+03  0.94093711618E+02 0.  0.
         23    2    4    4    0    0  0.41737938500E+03 -0.11926636734E+03  0.27091093624E+03  0.51960861482E+03  0.90390042710E+02 0.  0.
          2    1    3    3  502    0 -0.11359097092E+03  0.96320502752E+02 -0.48306256458E+03  0.50549974206E+03  0.00000000000E+00 0. -1.
         -2    1    3    3    0  502 -0.11230769057E+03  0.10226642282E+03 -0.25558086895E+03  0.29730963518E+03  0.00000000000E+00 0.  1.
         13    1    5    5    0    0 -0.26837814307E+02 -0.52123260953E+02  0.24802342973E+02  0.63657354847E+02  0.00000000000E+00 0.  1.
        -13    1    5    5    0    0 -0.16464290920E+03 -0.27197297284E+02  0.13149661429E+03  0.21245785488E+03  0.00000000000E+00 0. -1.
          3    1    6    6  503    0  0.17317095659E+03 -0.49393885676E+01  0.11819840252E+03  0.20972229287E+03  0.00000000000E+00 0. -1.
         -3    1    6    6    0  503  0.24420842841E+03 -0.11432697877E+03  0.15271253372E+03  0.30988632196E+03  0.00000000000E+00 0.  1.
<mgrwt>
<rscale>  0 0.48460576E+03</rscale>
<asrwt>0</asrwt>
<pdfrwt beam="1">  1        2 0.99007667E-01 0.48460576E+03</pdfrwt>
<pdfrwt beam="2">  1       -2 0.14692052E+00 0.48460576E+03</pdfrwt>
<totfact> 0.15100647E+01</totfact>
</mgrwt>
</event>
<event>
12    1  0.1444206E-007  0.9685008E+03  0.7818608E-02  0.9343784E-01
          1   -1    0    0  501    0  0.00000000000E+00  0.00000000000E+00  0.29606757467E+04  0.29606757467E+04  0.00000000000E+00 0. -1.
         -1   -1    0    0    0  501 -0.00000000000E+00 -0.00000000000E+00 -0.48943349824E+03  0.48943349824E+03  0.00000000000E+00 0.  1.
         23    2    1    2    0    0  0.68541664807E+03 -0.65025295100E+03  0.20413855636E+04  0.22512797803E+04  0.91546425637E+02 0.  0.
    5000000    2    1    2    0    0 -0.68541664807E+03  0.65025295100E+03  0.42985668488E+03  0.11988294647E+04  0.59982533634E+03 0.  0.
         23    2    4    4    0    0 -0.18219463156E+03  0.35973950959E+03  0.44877295211E+03  0.61031143023E+03  0.92062374475E+02 0.  0.
         23    2    4    4    0    0 -0.50322201652E+03  0.29051344141E+03 -0.18916267224E+02  0.58851803446E+03  0.91461435417E+02 0.  0.
          2    1    3    3  502    0  0.49589022164E+03 -0.49227315730E+03  0.14170789460E+04  0.15799850356E+04  0.00000000000E+00 0. -1.
         -2    1    3    3    0  502  0.18952642643E+03 -0.15797979371E+03  0.62430661760E+03  0.67129474474E+03  0.00000000000E+00 0.  1.
         13    1    5    5    0    0 -0.21954304310E+02  0.25189278998E+02  0.82620630003E+01  0.34420240255E+02  0.00000000000E+00 0.  1.
        -13    1    5    5    0    0 -0.16024032725E+03  0.33455023059E+03  0.44051088911E+03  0.57589118997E+03  0.00000000000E+00 0. -1.
          3    1    6    6  503    0 -0.33559573839E+03  0.14652830470E+03 -0.28805355634E+02  0.36732110233E+03  0.00000000000E+00 0. -1.
         -3    1    6    6    0  503 -0.16762627813E+03  0.14398513672E+03  0.98890884101E+01  0.22119693213E+03  0.00000000000E+00 0.  1.
<mgrwt>
<rscale>  0 0.96850080E+03</rscale>
<asrwt>0</asrwt>
<pdfrwt beam="1">  1        1 0.45548857E+00 0.96850080E+03</pdfrwt>
<pdfrwt beam="2">  1       -1 0.75297463E-01 0.96850080E+03</pdfrwt>
<totfact> 0.11692614E+00</totfact>
</mgrwt>
</event>
<event>
12    1  0.1444206E-007  0.3517153E+03  0.7818608E-02  0.1061913E+00
          1   -1    0    0  501    0  0.00000000000E+00  0.00000000000E+00  0.37931443974E+03  0.37931443974E+03  0.00000000000E+00 0. -1.
         -1   -1    0    0    0  501 -0.00000000000E+00 -0.00000000000E+00 -0.69194310450E+03  0.69194310450E+03  0.00000000000E+00 0.  1.
         23    2    1    2    0    0  0.32309291728E+03  0.44343836877E+02 -0.14319797747E+03  0.36747333019E+03  0.90418906135E+02 0.  0.
    5000000    2    1    2    0    0 -0.32309291728E+03 -0.44343836877E+02 -0.16943068730E+03  0.70378421404E+03  0.60020834139E+03 0.  0.
         23    2    4    4    0    0 -0.22805012140E+03 -0.73532618710E+02 -0.37780982187E+03  0.45598119833E+03  0.88117466171E+02 0.  0.
         23    2    4    4    0    0 -0.95042795874E+02  0.29188781833E+02  0.20837913458E+03  0.24780301571E+03  0.89996404571E+02 0.  0.
          3    1    3    3  502    0  0.92869265475E+02  0.65366749473E+01  0.11794720553E+01  0.93106496785E+02  0.00000000000E+00 0. -1.
         -3    1    3    3    0  502  0.23022365180E+03  0.37807161929E+02 -0.14437744952E+03  0.27436683340E+03  0.00000000000E+00 0.  1.
         11    1    5    5    0    0 -0.13979157306E+02 -0.24840677148E+02 -0.15763014868E+02  0.32572207753E+02  0.00000000000E+00 0. -1.
        -11    1    5    5    0    0 -0.21407096410E+03 -0.48691941561E+02 -0.36204680700E+03  0.42340899058E+03  0.00000000000E+00 0.  1.
          3    1    6    6  503    0 -0.34561959373E+02 -0.28952733668E+02  0.42717722360E+02  0.62109529270E+02  0.00000000000E+00 0. -1.
         -3    1    6    6    0  503 -0.60480836501E+02  0.58141515501E+02  0.16566141222E+03  0.18569348644E+03  0.00000000000E+00 0.  1.
<mgrwt>
<rscale>  0 0.35171528E+03</rscale>
<asrwt>0</asrwt>
<pdfrwt beam="1">  1        1 0.58356069E-01 0.35171528E+03</pdfrwt>
<pdfrwt beam="2">  1       -1 0.10645278E+00 0.35171528E+03</pdfrwt>
<totfact> 0.56617928E+01</totfact>
</mgrwt>
</event>
<event>
12    1  0.1444206E-007  0.1117537E+04  0.7818608E-02  0.9188266E-01
          1   -1    0    0  501    0  0.00000000000E+00  0.00000000000E+00  0.48755148049E+04  0.48755148049E+04  0.00000000000E+00 0. -1.
         -1   -1    0    0    0  501 -0.00000000000E+00 -0.00000000000E+00 -0.27463569396E+03  0.27463569396E+03  0.00000000000E+00 0.  1.
         23    2    1    2    0    0 -0.59533277054E+03 -0.87887760160E+03  0.17427975956E+04  0.20428103355E+04  0.94253175717E+02 0.  0.
    5000000    2    1    2    0    0  0.59533277054E+03  0.87887760160E+03  0.28580815153E+04  0.31073401634E+04  0.60007165948E+03 0.  0.
         23    2    4    4    0    0  0.64761875712E+03  0.60287525912E+03  0.17820249285E+04  0.19914031776E+04  0.84883080090E+02 0.  0.
         23    2    4    4    0    0 -0.52285986581E+02  0.27600234249E+03  0.10760565868E+04  0.11159369858E+04  0.92230476481E+02 0.  0.
          1    1    3    3  502    0 -0.43973173003E+03 -0.71723333760E+03  0.13829055848E+04  0.16187079760E+04  0.00000000000E+00 0. -1.
         -1    1    3    3    0  502 -0.15560104051E+03 -0.16164426400E+03  0.35989201080E+03  0.42410235949E+03  0.00000000000E+00 0.  1.
         11    1    5    5    0    0  0.29028751281E+03  0.29695695993E+03  0.75177611043E+03  0.85884666639E+03  0.00000000000E+00 0.  1.
        -11    1    5    5    0    0  0.35733124431E+03  0.30591829918E+03  0.10302488181E+04  0.11325565112E+04  0.00000000000E+00 0. -1.
          3    1    6    6  503    0 -0.38839734725E+02  0.10082752375E+03  0.26719968788E+03  0.28821933964E+03  0.00000000000E+00 0. -1.
         -3    1    6    6    0  503 -0.13446251856E+02  0.17517481874E+03  0.80885689889E+03  0.82771764612E+03  0.00000000000E+00 0.  1.
<mgrwt>
<rscale>  0 0.11175372E+04</rscale>
<asrwt>0</asrwt>
<pdfrwt beam="1">  1        1 0.75007914E+00 0.11175372E+04</pdfrwt>
<pdfrwt beam="2">  1       -1 0.42251649E-01 0.11175372E+04</pdfrwt>
<totfact> 0.72353433E-02</totfact>
</mgrwt>
</event>
<event>
12    1  0.1444206E-007  0.7165947E+03  0.7818608E-02  0.9689267E-01
         -2   -1    0    0    0  501 -0.00000000000E+00  0.00000000000E+00  0.24676077678E+03  0.24676077678E+03  0.00000000000E+00 0.  1.
          2   -1    0    0  501    0  0.00000000000E+00 -0.00000000000E+00 -0.21936895403E+04  0.21936895403E+04  0.00000000000E+00 0. -1.
         23    2    1    2    0    0 -0.55163151923E+03  0.24376554719E+03 -0.96208080681E+03  0.11391490617E+04  0.91335266699E+02 0.  0.
    5000000    2    1    2    0    0  0.55163151923E+03 -0.24376554719E+03 -0.98484795670E+03  0.13013012554E+04  0.59978369800E+03 0.  0.
         23    2    4    4    0    0  0.52879916495E+03 -0.39971108389E+03 -0.78666208290E+03  0.10327237795E+04  0.91014639468E+02 0.  0.
         23    2    4    4    0    0  0.22832354281E+02  0.15594553670E+03 -0.19818587380E+03  0.26857747588E+03  0.89531520471E+02 0.  0.
          2    1    3    3  502    0 -0.38044725962E+03  0.21050236077E+03 -0.71221588524E+03  0.83444761875E+03  0.00000000000E+00 0.  1.
         -2    1    3    3    0  502 -0.17118425962E+03  0.33263186418E+02 -0.24986492157E+03  0.30470144296E+03  0.00000000000E+00 0. -1.
         11    1    5    5    0    0  0.29602455817E+03 -0.18645323275E+03 -0.36028954021E+03  0.50219906394E+03  0.00000000000E+00 0.  1.
        -11    1    5    5    0    0  0.23277460678E+03 -0.21325785114E+03 -0.42637254269E+03  0.53052471553E+03  0.00000000000E+00 0. -1.
          3    1    6    6  503    0 -0.24293966486E+01  0.76558327535E+01 -0.71392062856E+02  0.71842469209E+02  0.00000000000E+00 0. -1.
         -3    1    6    6    0  503  0.25261750929E+02  0.14828970395E+03 -0.12679381095E+03  0.19673500667E+03  0.00000000000E+00 0.  1.
<mgrwt>
<rscale>  0 0.71659466E+03</rscale>
<asrwt>0</asrwt>
<pdfrwt beam="1">  1        2 0.33749068E+00 0.71659466E+03</pdfrwt>
<pdfrwt beam="2">  1       -2 0.37963198E-01 0.71659466E+03</pdfrwt>
<totfact> 0.35471771E+01</totfact>
</mgrwt>
</event>
<event>
12    1  0.1444206E-007  0.5181677E+03  0.7818608E-02  0.1009143E+00
          1   -1    0    0  501    0  0.00000000000E+00  0.00000000000E+00  0.16746478675E+04  0.16746478675E+04  0.00000000000E+00 0. -1.
         -1   -1    0    0    0  501 -0.00000000000E+00 -0.00000000000E+00 -0.43032227480E+03  0.43032227480E+03  0.00000000000E+00 0.  1.
         23    2    1    2    0    0  0.35473695728E+03 -0.55849246234E+02  0.13482402724E+04  0.13980836161E+04  0.89042228346E+02 0.  0.
    5000000    2    1    2    0    0 -0.35473695728E+03  0.55849246234E+02 -0.10391467972E+03  0.70688652614E+03  0.59994404157E+03 0.  0.
         23    2    4    4    0    0 -0.24145058563E+03 -0.23779928807E+03 -0.13912353573E+03  0.37747241354E+03  0.91011966712E+02 0.  0.
         23    2    4    4    0    0 -0.11328637164E+03  0.29364853430E+03  0.35208856005E+02  0.32941411260E+03  0.90613080407E+02 0.  0.
          3    1    3    3  502    0  0.27525660226E+03 -0.59967231341E+02  0.90767206629E+03  0.95038457786E+03  0.00000000000E+00 0. -1.
         -3    1    3    3    0  502  0.79480355020E+02  0.41179851071E+01  0.44056820610E+03  0.44769903826E+03  0.00000000000E+00 0.  1.
         13    1    5    5    0    0 -0.11789127091E+03 -0.54714570491E+02 -0.54679988837E+02  0.14100332323E+03  0.00000000000E+00 0. -1.
        -13    1    5    5    0    0 -0.12355931472E+03 -0.18308471758E+03 -0.84443546889E+02  0.23646909032E+03  0.00000000000E+00 0.  1.
          4    1    6    6  503    0 -0.76100170556E+02  0.93212389211E+02 -0.95209675409E+01  0.12070805393E+03  0.00000000000E+00 0. -1.
         -4    1    6    6    0  503 -0.37186201087E+02  0.20043614509E+03  0.44729823546E+02  0.20870605867E+03  0.00000000000E+00 0.  1.
<mgrwt>
<rscale>  0 0.51816774E+03</rscale>
<asrwt>0</asrwt>
<pdfrwt beam="1">  1        1 0.25763813E+00 0.51816774E+03</pdfrwt>
<pdfrwt beam="2">  1       -1 0.66203428E-01 0.51816774E+03</pdfrwt>
<totfact> 0.12431823E+01</totfact>
</mgrwt>
</event>
<event>
12    1  0.1444206E-007  0.3904512E+03  0.7818608E-02  0.1047137E+00
         -2   -1    0    0    0  501 -0.00000000000E+00  0.00000000000E+00  0.14473287025E+03  0.14473287025E+03  0.00000000000E+00 0. -1.
          2   -1    0    0  501    0  0.00000000000E+00 -0.00000000000E+00 -0.17318902224E+04  0.17318902224E+04  0.00000000000E+00 0.  1.
         23    2    1    2    0    0 -0.15613105688E+03  0.69537776706E+02 -0.10047398297E+04  0.10232912263E+04  0.91708228147E+02 0.  0.
    5000000    2    1    2    0    0  0.15613105688E+03 -0.69537776706E+02 -0.58241752241E+03  0.85333186631E+03  0.59979387655E+03 0.  0.
         23    2    4    4    0    0 -0.17841395807E+03  0.81374138255E+02 -0.95289555126E+02  0.23663411190E+03  0.91990829907E+02 0.  0.
         23    2    4    4    0    0  0.33454501495E+03 -0.15091191496E+03 -0.48712796729E+03  0.61669775441E+03  0.91256181612E+02 0.  0.
          3    1    3    3  502    0 -0.39153352394E+02  0.59087038974E+02 -0.50418937000E+03  0.50914750711E+03  0.00000000000E+00 0.  1.
         -3    1    3    3    0  502 -0.11697770449E+03  0.10450737732E+02 -0.50055045972E+03  0.51414371920E+03  0.00000000000E+00 0. -1.
         11    1    5    5    0    0 -0.10566969327E+03  0.93061408031E+02 -0.77953474998E+02  0.16094487878E+03  0.00000000000E+00 0. -1.
        -11    1    5    5    0    0 -0.72744264802E+02 -0.11687269776E+02 -0.17336080128E+02  0.75689233122E+02  0.00000000000E+00 0.  1.
          3    1    6    6  503    0  0.21702023144E+03 -0.14382938455E+03 -0.34162996442E+03  0.42952963263E+03  0.00000000000E+00 0. -1.
         -3    1    6    6    0  503  0.11752478351E+03 -0.70825304151E+01 -0.14549800286E+03  0.18716812179E+03  0.00000000000E+00 0.  1.
<mgrwt>
<rscale>  0 0.39045116E+03</rscale>
<asrwt>0</asrwt>
<pdfrwt beam="1">  1        2 0.26644463E+00 0.39045116E+03</pdfrwt>
<pdfrwt beam="2">  1       -2 0.22266597E-01 0.39045116E+03</pdfrwt>
<totfact> 0.17654788E+02</totfact>
</mgrwt>
</event>
<event>
12    1  0.1444206E-007  0.1885111E+04  0.7818608E-02  0.8662303E-01
          1   -1    0    0  501    0  0.00000000000E+00  0.00000000000E+00  0.47448628543E+04  0.47448628543E+04  0.00000000000E+00 0. -1.
         -1   -1    0    0    0  501 -0.00000000000E+00 -0.00000000000E+00 -0.10613791536E+04  0.10613791536E+04  0.00000000000E+00 0.  1.
         23    2    1    2    0    0  0.21307372407E+02 -0.18787442415E+04  0.32979545756E+04  0.37967028511E+04  0.91182390903E+02 0.  0.
    5000000    2    1    2    0    0 -0.21307372407E+02  0.18787442415E+04  0.38552912518E+03  0.20095391567E+04  0.59956733330E+03 0.  0.
         23    2    4    4    0    0 -0.89709503671E+02  0.58319899239E+03 -0.12919027228E+03  0.61086843886E+03  0.91111269170E+02 0.  0.
         23    2    4    4    0    0  0.68402131264E+02  0.12955452491E+04  0.51471939746E+03  0.13986707179E+04  0.90704878476E+02 0.  0.
          1    1    3    3  502    0 -0.20440335814E+01 -0.98691104264E+03  0.18199026306E+04  0.20702761094E+04  0.00000000000E+00 0. -1.
         -1    1    3    3    0  502  0.23351405989E+02 -0.89183319883E+03  0.14780519449E+04  0.17264267418E+04  0.00000000000E+00 0.  1.
         11    1    5    5    0    0 -0.85946032044E+02  0.38224346495E+03 -0.50522570460E+02  0.39503077988E+03  0.00000000000E+00 0. -1.
        -11    1    5    5    0    0 -0.37634716269E+01  0.20095552744E+03 -0.78667701819E+02  0.21583765899E+03  0.00000000000E+00 0.  1.
          2    1    6    6  503    0  0.57428195501E+02  0.59585131947E+03  0.19753782212E+03  0.63036337435E+03  0.00000000000E+00 0. -1.
         -2    1    6    6    0  503  0.10973935763E+02  0.69969392960E+03  0.31718157535E+03  0.76830734353E+03  0.00000000000E+00 0.  1.
<mgrwt>
<rscale>  0 0.18851109E+04</rscale>
<asrwt>0</asrwt>
<pdfrwt beam="1">  1        1 0.72997889E+00 0.18851109E+04</pdfrwt>
<pdfrwt beam="2">  1       -1 0.16328910E+00 0.18851109E+04</pdfrwt>
<totfact> 0.44552476E-03</totfact>
</mgrwt>
</event>
<event>
12    1  0.1444206E-007  0.7260054E+03  0.7818608E-02  0.9673765E-01
         -2   -1    0    0    0  501 -0.00000000000E+00  0.00000000000E+00  0.24438368029E+04  0.24438368029E+04  0.00000000000E+00 0. -1.
          2   -1    0    0  501    0  0.00000000000E+00 -0.00000000000E+00 -0.30434981174E+03  0.30434981174E+03  0.00000000000E+00 0.  1.
         23    2    1    2    0    0 -0.35653420030E+03  0.61458089220E+03  0.53548006316E+03  0.89409795757E+03  0.88577370960E+02 0.  0.
    5000000    2    1    2    0    0  0.35653420030E+03 -0.61458089220E+03  0.16040069280E+04  0.18540886571E+04  0.59998351159E+03 0.  0.
         23    2    4    4    0    0  0.28227626213E+03 -0.30451220173E+03  0.33165518645E+03  0.53928087016E+03  0.91766688202E+02 0.  0.
         23    2    4    4    0    0  0.74257938180E+02 -0.31006869047E+03  0.12723517416E+04  0.13148077869E+04  0.90463960237E+02 0.  0.
          3    1    3    3  502    0 -0.34735427467E+03  0.58045574296E+03  0.48446890769E+03  0.83204205674E+03  0.00000000000E+00 0. -1.
         -3    1    3    3    0  502 -0.91799256375E+01  0.34125149238E+02  0.51011155477E+02  0.62055900834E+02  0.00000000000E+00 0.  1.
         11    1    5    5    0    0  0.30641280208E+02 -0.62024930248E+02  0.93820420506E+02  0.11656865500E+03  0.00000000000E+00 0. -1.
        -11    1    5    5    0    0  0.25163498192E+03 -0.24248727148E+03  0.23783476594E+03  0.42271221516E+03  0.00000000000E+00 0.  1.
          3    1    6    6  503    0  0.65138393291E+02 -0.18404902408E+03  0.60897456859E+03  0.63950533909E+03  0.00000000000E+00 0. -1.
         -3    1    6    6    0  503  0.91195448888E+01 -0.12601966639E+03  0.66337717298E+03  0.67530244783E+03  0.00000000000E+00 0.  1.
<mgrwt>
<rscale>  0 0.72600536E+03</rscale>
<asrwt>0</asrwt>
<pdfrwt beam="1">  1        2 0.46823049E-01 0.72600536E+03</pdfrwt>
<pdfrwt beam="2">  1       -2 0.37597488E+00 0.72600536E+03</pdfrwt>
<totfact> 0.12195956E+00</totfact>
</mgrwt>
</event>
<event>
12    1  0.1444206E-007  0.3284249E+03  0.7818608E-02  0.1071836E+00
          1   -1    0    0  501    0  0.00000000000E+00  0.00000000000E+00  0.22168144775E+04  0.22168144775E+04  0.00000000000E+00 0. -1.
         -1   -1    0    0    0  501 -0.00000000000E+00 -0.00000000000E+00 -0.65778380799E+02  0.65778380799E+02  0.00000000000E+00 0.  1.
         23    2    1    2    0    0  0.27457200795E+02 -0.10121154742E+03  0.61033765357E+03  0.62583533281E+03  0.90333477838E+02 0.  0.
    5000000    2    1    2    0    0 -0.27457200795E+02  0.10121154742E+03  0.15406984431E+04  0.16567575255E+04  0.60008010331E+03 0.  0.
         23    2    4    4    0    0  0.19962734425E+03 -0.91244773972E+02  0.10412042805E+04  0.10683735056E+04  0.95597637256E+02 0.  0.
         23    2    4    4    0    0 -0.22708454505E+03  0.19245632140E+03  0.49949416258E+03  0.58838401991E+03  0.89969495864E+02 0.  0.
          3    1    3    3  502    0  0.25757982766E+02 -0.15093781362E+02  0.35718214810E+03  0.35842765356E+03  0.00000000000E+00 0. -1.
         -3    1    3    3    0  502  0.16992180290E+01 -0.86117766062E+02  0.25315550547E+03  0.26740767925E+03  0.00000000000E+00 0.  1.
         11    1    5    5    0    0  0.34179418253E+02 -0.62842883427E+02  0.30899622808E+03  0.31716892912E+03  0.00000000000E+00 0.  1.
        -11    1    5    5    0    0  0.16544792600E+03 -0.28401890545E+02  0.73220805244E+03  0.75120457644E+03  0.00000000000E+00 0. -1.
          4    1    6    6  503    0 -0.15201075072E+03  0.98263096887E+02  0.36771714592E+03  0.40985217328E+03  0.00000000000E+00 0. -1.
         -4    1    6    6    0  503 -0.75073794329E+02  0.94193224509E+02  0.13177701667E+03  0.17853184663E+03  0.00000000000E+00 0.  1.
<mgrwt>
<rscale>  0 0.32842491E+03</rscale>
<asrwt>0</asrwt>
<pdfrwt beam="1">  1        1 0.34104832E+00 0.32842491E+03</pdfrwt>
<pdfrwt beam="2">  1       -1 0.10119753E-01 0.32842491E+03</pdfrwt>
<totfact> 0.14417845E+02</totfact>
</mgrwt>
</event>
<event>
12    1  0.1444206E-007  0.3641191E+03  0.7818608E-02  0.1056965E+00
          2   -1    0    0  501    0  0.00000000000E+00  0.00000000000E+00  0.85918652299E+03  0.85918652299E+03  0.00000000000E+00 0. -1.
         -2   -1    0    0    0  501 -0.00000000000E+00 -0.00000000000E+00 -0.51369454473E+03  0.51369454473E+03  0.00000000000E+00 0.  1.
         23    2    1    2    0    0 -0.60566483307E+02 -0.28282404804E+03  0.58979604740E+03  0.66338491908E+03  0.92533411729E+02 0.  0.
    5000000    2    1    2    0    0  0.60566483307E+02  0.28282404804E+03 -0.24430406913E+03  0.70949614864E+03  0.60003547037E+03 0.  0.
         23    2    4    4    0    0  0.16445546064E+03  0.24971385229E+03  0.10727382826E+03  0.33063740087E+03  0.91710468688E+02 0.  0.
         23    2    4    4    0    0 -0.10388897733E+03  0.33110195749E+02 -0.35157789739E+03  0.37885874777E+03  0.89653377829E+02 0.  0.
          3    1    3    3  502    0 -0.84642539143E+02 -0.21874476240E+03  0.47433713517E+03  0.52915909546E+03  0.00000000000E+00 0. -1.
         -3    1    3    3    0  502  0.24076055836E+02 -0.64079285633E+02  0.11545891223E+03  0.13422582361E+03  0.00000000000E+00 0.  1.
         11    1    5    5    0    0  0.12522347872E+03  0.12675682380E+03  0.92415231821E+02  0.20072066927E+03  0.00000000000E+00 0.  1.
        -11    1    5    5    0    0  0.39231981922E+02  0.12295702849E+03  0.14858596440E+02  0.12991673160E+03  0.00000000000E+00 0. -1.
          3    1    6    6  503    0 -0.86798910864E+02  0.44412655394E+02 -0.16879858157E+03  0.19493459423E+03  0.00000000000E+00 0. -1.
         -3    1    6    6    0  503 -0.17090066470E+02 -0.11302459644E+02 -0.18277931582E+03  0.18392415354E+03  0.00000000000E+00 0.  1.
<mgrwt>
<rscale>  0 0.36411911E+03</rscale>
<asrwt>0</asrwt>
<pdfrwt beam="1">  1        2 0.13218254E+00 0.36411911E+03</pdfrwt>
<pdfrwt beam="2">  1       -2 0.79029930E-01 0.36411911E+03</pdfrwt>
<totfact> 0.47142622E+01</totfact>
</mgrwt>
</event>
<event>
12    1  0.1444206E-007  0.6169321E+03  0.7818608E-02  0.9870887E-01
          1   -1    0    0  501    0  0.00000000000E+00  0.00000000000E+00  0.18057393569E+04  0.18057393569E+04  0.00000000000E+00 0. -1.
         -1   -1    0    0    0  501 -0.00000000000E+00 -0.00000000000E+00 -0.28691600770E+03  0.28691600770E+03  0.00000000000E+00 0.  1.
         23    2    1    2    0    0 -0.17551727882E+03  0.51667009783E+03  0.95533350224E+03  0.11039244129E+04  0.90734248374E+02 0.  0.
    5000000    2    1    2    0    0  0.17551727882E+03 -0.51667009783E+03  0.56348984697E+03  0.98873095167E+03  0.60192506345E+03 0.  0.
         23    2    4    4    0    0  0.14458470853E+03  0.85873678503E+01 -0.47143786668E+02  0.17744437198E+03  0.91024654344E+02 0.  0.
         23    2    4    4    0    0  0.30932570292E+02 -0.52525746568E+03  0.61063363364E+03  0.81128657970E+03  0.91979621170E+02 0.  0.
          3    1    3    3  502    0 -0.12713786332E+03  0.30870865583E+03  0.50281123849E+03  0.60355961762E+03  0.00000000000E+00 0. -1.
         -3    1    3    3    0  502 -0.48379415499E+02  0.20796144199E+03  0.45252226375E+03  0.50036479531E+03  0.00000000000E+00 0.  1.
         11    1    5    5    0    0  0.81248301040E+02  0.30266445841E+02  0.12729166994E+02  0.87632048123E+02  0.00000000000E+00 0.  1.
        -11    1    5    5    0    0  0.63336407485E+02 -0.21679077991E+02 -0.59872953662E+02  0.89812323853E+02  0.00000000000E+00 0. -1.
          2    1    6    6  503    0 -0.12062367047E+02 -0.40408436322E+03  0.43822137192E+03  0.59621107345E+03  0.00000000000E+00 0. -1.
         -2    1    6    6    0  503  0.42994937339E+02 -0.12117310246E+03  0.17241226172E+03  0.21507550625E+03  0.00000000000E+00 0.  1.
<mgrwt>
<rscale>  0 0.61693212E+03</rscale>
<asrwt>0</asrwt>
<pdfrwt beam="1">  1        1 0.27780605E+00 0.61693212E+03</pdfrwt>
<pdfrwt beam="2">  1       -1 0.44140925E-01 0.61693212E+03</pdfrwt>
<totfact> 0.21704759E+01</totfact>
</mgrwt>
</event>
<event>
12    1  0.1444206E-007  0.5717718E+03  0.7818608E-02  0.9965766E-01
         -2   -1    0    0    0  501 -0.00000000000E+00  0.00000000000E+00  0.50343461229E+03  0.50343461229E+03  0.00000000000E+00 0.  1.
          2   -1    0    0  501    0  0.00000000000E+00 -0.00000000000E+00 -0.22182251447E+04  0.22182251447E+04  0.00000000000E+00 0. -1.
         23    2    1    2    0    0 -0.54947409549E+03  0.75166182408E+02  0.23362261333E+03  0.60883411529E+03  0.92345643573E+02 0.  0.
    5000000    2    1    2    0    0  0.54947409549E+03 -0.75166182408E+02 -0.19484131457E+04  0.21128256417E+04  0.60012221181E+03 0.  0.
         23    2    4    4    0    0  0.34607477184E+03 -0.10228788707E+03 -0.18145142471E+04  0.18522772042E+04  0.90765239569E+02 0.  0.
         23    2    4    4    0    0  0.20339932364E+03  0.27121704666E+02 -0.13389889863E+03  0.26054843749E+03  0.88598541179E+02 0.  0.
          1    1    3    3  502    0 -0.16143109286E+03  0.58072930003E+02  0.97031823102E+02  0.19709804067E+03  0.00000000000E+00 0. -1.
         -1    1    3    3    0  502 -0.38804300262E+03  0.17093252405E+02  0.13659079023E+03  0.41173607461E+03  0.00000000000E+00 0.  1.
         13    1    5    5    0    0  0.36896567443E+02 -0.42589171052E+02 -0.23270746287E+03  0.23943257392E+03  0.00000000000E+00 0. -1.
        -13    1    5    5    0    0  0.30917820440E+03 -0.59698716022E+02 -0.15818067842E+04  0.16128446303E+04  0.00000000000E+00 0.  1.
          3    1    6    6  503    0  0.61461905045E+02 -0.16859222131E+02 -0.51586270292E+01  0.63940680130E+02  0.00000000000E+00 0. -1.
         -3    1    6    6    0  503  0.14193741860E+03  0.43980926796E+02 -0.12874027160E+03  0.19660775736E+03  0.00000000000E+00 0.  1.
<mgrwt>
<rscale>  0 0.57177181E+03</rscale>
<asrwt>0</asrwt>
<pdfrwt beam="1">  1        2 0.34126541E+00 0.57177181E+03</pdfrwt>
<pdfrwt beam="2">  1       -2 0.77451478E-01 0.57177181E+03</pdfrwt>
<totfact> 0.80707460E+00</totfact>
</mgrwt>
</event>
<event>
12    1  0.1444206E-007  0.5073221E+03  0.7818608E-02  0.1011885E+00
         -1   -1    0    0    0  501 -0.00000000000E+00  0.00000000000E+00  0.99355407271E+03  0.99355407271E+03  0.00000000000E+00 0.  1.
          1   -1    0    0  501    0  0.00000000000E+00 -0.00000000000E+00 -0.46652286744E+03  0.46652286744E+03  0.00000000000E+00 0. -1.
         23    2    1    2    0    0  0.47910995448E+03  0.45948873848E+02  0.48575835878E+03  0.68986931663E+03  0.91108964468E+02 0.  0.
    5000000    2    1    2    0    0 -0.47910995448E+03 -0.45948873848E+02  0.41272846485E+02  0.77020762353E+03  0.59988222844E+03 0.  0.
         23    2    4    4    0    0 -0.22739963803E+03 -0.10308834099E+03  0.29480128468E+03  0.39708527569E+03  0.91821115770E+02 0.  0.
         23    2    4    4    0    0 -0.25171031645E+03  0.57139467144E+02 -0.25352843819E+03  0.37312234784E+03  0.91217407181E+02 0.  0.
          3    1    3    3  502    0  0.29531667571E+03 -0.15895158497E+02  0.28389413821E+03  0.40995179805E+03  0.00000000000E+00 0. -1.
         -3    1    3    3    0  502  0.18379327877E+03  0.61844032345E+02  0.20186422057E+03  0.27991751857E+03  0.00000000000E+00 0.  1.
         13    1    5    5    0    0 -0.25460052122E+02  0.14130933462E+02  0.15324233582E+02  0.32904857839E+02  0.00000000000E+00 0. -1.
        -13    1    5    5    0    0 -0.20193958591E+03 -0.11721927445E+03  0.27947705109E+03  0.36418041786E+03  0.00000000000E+00 0.  1.
          2    1    6    6  503    0 -0.11158622601E+03  0.49392429867E+02 -0.65501924839E+02  0.13849765384E+03  0.00000000000E+00 0. -1.
         -2    1    6    6    0  503 -0.14012409044E+03  0.77470372771E+01 -0.18802651335E+03  0.23462469399E+03  0.00000000000E+00 0.  1.
<mgrwt>
<rscale>  0 0.50732213E+03</rscale>
<asrwt>0</asrwt>
<pdfrwt beam="1">  1        1 0.71772749E-01 0.50732213E+03</pdfrwt>
<pdfrwt beam="2">  1       -1 0.15285447E+00 0.50732213E+03</pdfrwt>
<totfact> 0.17150429E+01</totfact>
</mgrwt>
</event>
<event>
12    1  0.1444206E-007  0.5577732E+03  0.7818608E-02  0.9997106E-01
         -2   -1    0    0    0  501 -0.00000000000E+00  0.00000000000E+00  0.12379965246E+03  0.12379965246E+03  0.00000000000E+00 0.  1.
          2   -1    0    0  501    0  0.00000000000E+00 -0.00000000000E+00 -0.37861957105E+04  0.37861957105E+04  0.00000000000E+00 0. -1.
         23    2    1    2    0    0 -0.24523147574E+03 -0.37862615530E+03 -0.23802387539E+04  0.24242761782E+04  0.89901170296E+02 0.  0.
    5000000    2    1    2    0    0  0.24523147574E+03  0.37862615530E+03 -0.12821573041E+04  0.14857191847E+04  0.59994824882E+03 0.  0.
         23    2    4    4    0    0  0.35597044683E+03  0.12535977653E+03 -0.39769661836E+03  0.55455068021E+03  0.83269586729E+02 0.  0.
         23    2    4    4    0    0 -0.11073897109E+03  0.25326637877E+03 -0.88446068576E+03  0.93116850454E+03  0.91635696484E+02 0.  0.
          1    1    3    3  502    0 -0.11445631346E+03 -0.11540133279E+03 -0.99622665209E+03  0.10093984633E+04  0.00000000000E+00 0. -1.
         -1    1    3    3    0  502 -0.13077516228E+03 -0.26322482251E+03 -0.13840121018E+04  0.14148777149E+04  0.00000000000E+00 0.  1.
         13    1    5    5    0    0  0.26781758992E+03  0.10000664667E+03 -0.34751949488E+03  0.44999710018E+03  0.00000000000E+00 0.  1.
        -13    1    5    5    0    0  0.88152856915E+02  0.25353129865E+02 -0.50177123477E+02  0.10455358003E+03  0.00000000000E+00 0. -1.
          3    1    6    6  503    0 -0.79395316505E+02  0.22734571498E+03 -0.64931954692E+03  0.69253560516E+03  0.00000000000E+00 0. -1.
         -3    1    6    6    0  503 -0.31343654584E+02  0.25920663788E+02 -0.23514113883E+03  0.23863289938E+03  0.00000000000E+00 0.  1.
<mgrwt>
<rscale>  0 0.55777319E+03</rscale>
<asrwt>0</asrwt>
<pdfrwt beam="1">  1        2 0.58249159E+00 0.55777319E+03</pdfrwt>
<pdfrwt beam="2">  1       -2 0.19046102E-01 0.55777319E+03</pdfrwt>
<totfact> 0.13316806E+01</totfact>
</mgrwt>
</event>
<event>
12    1  0.1444206E-007  0.4480544E+03  0.7818608E-02  0.1028304E+00
         -2   -1    0    0    0  501 -0.00000000000E+00  0.00000000000E+00  0.83626881979E+02  0.83626881979E+02  0.00000000000E+00 0.  1.
          2   -1    0    0  501    0  0.00000000000E+00 -0.00000000000E+00 -0.35935413408E+04  0.35935413408E+04  0.00000000000E+00 0. -1.
         23    2    1    2    0    0  0.29973103906E+03 -0.16545456126E+03 -0.72484128982E+03  0.80770313888E+03  0.98871419064E+02 0.  0.
    5000000    2    1    2    0    0 -0.29973103906E+03  0.16545456126E+03 -0.27850731690E+04  0.28694650839E+04  0.59998616934E+03 0.  0.
         23    2    4    4    0    0 -0.43249000651E+02  0.25615803670E+03 -0.53791738588E+03  0.60422468606E+03  0.90801659621E+02 0.  0.
         23    2    4    4    0    0 -0.25648203841E+03 -0.90703475438E+02 -0.22471557831E+04  0.22652403978E+04  0.87148091762E+02 0.  0.
          1    1    3    3  502    0  0.21691708316E+03 -0.16651082517E+03 -0.56339127770E+03  0.62624963685E+03  0.00000000000E+00 0. -1.
         -1    1    3    3    0  502  0.82813955903E+02  0.10562639054E+01 -0.16145001213E+03  0.18145350204E+03  0.00000000000E+00 0.  1.
         11    1    5    5    0    0  0.12729222957E+02  0.10738080096E+03 -0.14922729127E+03  0.18428633696E+03  0.00000000000E+00 0. -1.
        -11    1    5    5    0    0 -0.55978223607E+02  0.14877723573E+03 -0.38869009462E+03  0.41993834910E+03  0.00000000000E+00 0.  1.
          3    1    6    6  503    0 -0.19255413321E+03 -0.76870273892E+02 -0.19488789430E+04  0.19598763399E+04  0.00000000000E+00 0. -1.
         -3    1    6    6    0  503 -0.63927905202E+02 -0.13833201546E+02 -0.29827684011E+03  0.30536405792E+03  0.00000000000E+00 0.  1.
<mgrwt>
<rscale>  0 0.44805443E+03</rscale>
<asrwt>0</asrwt>
<pdfrwt beam="1">  1        2 0.55285243E+00 0.44805443E+03</pdfrwt>
<pdfrwt beam="2">  1       -2 0.12865676E-01 0.44805443E+03</pdfrwt>
<totfact> 0.36456968E+01</totfact>
</mgrwt>
</event>
<event>
12    1  0.1444206E-007  0.7197481E+03  0.7818608E-02  0.9684044E-01
         -1   -1    0    0    0  501 -0.00000000000E+00  0.00000000000E+00  0.65544428742E+03  0.65544428742E+03  0.00000000000E+00 0.  1.
          1   -1    0    0  501    0  0.00000000000E+00 -0.00000000000E+00 -0.10211638265E+04  0.10211638265E+04  0.00000000000E+00 0. -1.
         23    2    1    2    0    0  0.42866655208E+03  0.55320591889E+03 -0.24403714206E+03  0.74677761878E+03  0.91273674406E+02 0.  0.
    5000000    2    1    2    0    0 -0.42866655208E+03 -0.55320591889E+03 -0.12168239701E+03  0.92983049512E+03  0.59998861851E+03 0.  0.
         23    2    4    4    0    0 -0.33146266964E+03 -0.49232797918E+03  0.15247732868E+03  0.61941456711E+03  0.90392088882E+02 0.  0.
         23    2    4    4    0    0 -0.97203882442E+02 -0.60877939709E+02 -0.27415972569E+03  0.31041592802E+03  0.89664791712E+02 0.  0.
          2    1    3    3  502    0  0.30199131608E+03  0.32273459760E+03 -0.17008877763E+03  0.47358902833E+03  0.00000000000E+00 0.  1.
         -2    1    3    3    0  502  0.12667523600E+03  0.23047132129E+03 -0.73948364430E+02  0.27318859045E+03  0.00000000000E+00 0. -1.
         11    1    5    5    0    0 -0.49871149007E+02 -0.13420327702E+03  0.17312735320E+02  0.14421297400E+03  0.00000000000E+00 0.  1.
        -11    1    5    5    0    0 -0.28159152064E+03 -0.35812470216E+03  0.13516459336E+03  0.47520159310E+03  0.00000000000E+00 0. -1.
          4    1    6    6  503    0 -0.87809539994E+02 -0.15172515781E+02 -0.22793687135E+03  0.24473646616E+03  0.00000000000E+00 0. -1.
         -4    1    6    6    0  503 -0.93943424482E+01 -0.45705423928E+02 -0.46222854340E+02  0.65679461857E+02  0.00000000000E+00 0.  1.
<mgrwt>
<rscale>  0 0.71974809E+03</rscale>
<asrwt>0</asrwt>
<pdfrwt beam="1">  1        1 0.15710213E+00 0.71974809E+03</pdfrwt>
<pdfrwt beam="2">  1       -1 0.10083758E+00 0.71974809E+03</pdfrwt>
<totfact> 0.14100105E+01</totfact>
</mgrwt>
</event>
<event>
12    1  0.1444206E-007  0.4322668E+03  0.7818608E-02  0.1033146E+00
         -1   -1    0    0    0  501 -0.00000000000E+00  0.00000000000E+00  0.88275673177E+03  0.88275673177E+03  0.00000000000E+00 0.  1.
          1   -1    0    0  501    0  0.00000000000E+00 -0.00000000000E+00 -0.47255860192E+03  0.47255860192E+03  0.00000000000E+00 0. -1.
         23    2    1    2    0    0  0.21231832522E+03  0.32379402362E+03  0.49611844120E+03  0.63605679886E+03  0.92266476683E+02 0.  0.
    5000000    2    1    2    0    0 -0.21231832522E+03 -0.32379402362E+03 -0.85920311339E+02  0.71925853483E+03  0.60002408208E+03 0.  0.
         23    2    4    4    0    0  0.36538362135E+02 -0.45457563448E+02 -0.27211412668E+03  0.29217978118E+03  0.89002722471E+02 0.  0.
         23    2    4    4    0    0 -0.24885668736E+03 -0.27833646017E+03  0.18619381534E+03  0.42707875366E+03  0.91253981027E+02 0.  0.
          2    1    3    3  502    0  0.10627109324E+03  0.24085264510E+03  0.33652614962E+03  0.42726267247E+03  0.00000000000E+00 0. -1.
         -2    1    3    3    0  502  0.10604723198E+03  0.82941378516E+02  0.15959229158E+03  0.20879412638E+03  0.00000000000E+00 0.  1.
         13    1    5    5    0    0  0.52921732797E+02 -0.10746888745E+02 -0.81689701041E+02  0.97925546595E+02  0.00000000000E+00 0. -1.
        -13    1    5    5    0    0 -0.16383370662E+02 -0.34710674703E+02 -0.19042442564E+03  0.19425423458E+03  0.00000000000E+00 0.  1.
          4    1    6    6  503    0 -0.16832204530E+03 -0.16958014956E+03  0.70722103149E+02  0.24918136755E+03  0.00000000000E+00 0. -1.
         -4    1    6    6    0  503 -0.80534642053E+02 -0.10875631061E+03  0.11547171219E+03  0.17789738611E+03  0.00000000000E+00 0.  1.
<mgrwt>
<rscale>  0 0.43226679E+03</rscale>
<asrwt>0</asrwt>
<pdfrwt beam="1">  1        1 0.72701324E-01 0.43226679E+03</pdfrwt>
<pdfrwt beam="2">  1       -1 0.13580873E+00 0.43226679E+03</pdfrwt>
<totfact> 0.23258499E+01</totfact>
</mgrwt>
</event>
<event>
12    1  0.1444206E-007  0.1585392E+04  0.7818608E-02  0.8829573E-01
         -2   -1    0    0    0  501 -0.00000000000E+00  0.00000000000E+00  0.14968860510E+04  0.14968860510E+04  0.00000000000E+00 0.  1.
          2   -1    0    0  501    0  0.00000000000E+00 -0.00000000000E+00 -0.17880708018E+04  0.17880708018E+04  0.00000000000E+00 0. -1.
         23    2    1    2    0    0  0.16792233381E+03 -0.15671262091E+04 -0.33982252746E+02  0.15789950809E+04  0.89376766892E+02 0.  0.
    5000000    2    1    2    0    0 -0.16792233381E+03  0.15671262091E+04 -0.25720249807E+03  0.17059617720E+04  0.60005831132E+03 0.  0.
         23    2    4    4    0    0 -0.80129950045E+01  0.82289415596E+03  0.14432361631E+03  0.84031172381E+03  0.89863713214E+02 0.  0.
         23    2    4    4    0    0 -0.15990933881E+03  0.74423205314E+03 -0.40152611438E+03  0.86565004816E+03  0.93136672637E+02 0.  0.
          1    1    3    3  502    0  0.64342468905E+02 -0.78005351983E+03 -0.57264666309E+02  0.78479467959E+03  0.00000000000E+00 0. -1.
         -1    1    3    3    0  502  0.10357986491E+03 -0.78707268927E+03  0.23282413563E+02  0.79420040128E+03  0.00000000000E+00 0.  1.
         11    1    5    5    0    0 -0.48266816503E+02  0.41189741556E+03  0.80207470230E+02  0.42240076326E+03  0.00000000000E+00 0. -1.
        -11    1    5    5    0    0  0.40253821499E+02  0.41099674040E+03  0.64116146083E+02  0.41791096055E+03  0.00000000000E+00 0.  1.
          1    1    6    6  503    0 -0.10459571415E+03  0.27770954648E+03 -0.16822599503E+03  0.34111998040E+03  0.00000000000E+00 0. -1.
         -1    1    6    6    0  503 -0.55313624653E+02  0.46652250666E+03 -0.23330011935E+03  0.52453006776E+03  0.00000000000E+00 0.  1.
<mgrwt>
<rscale>  0 0.15853924E+04</rscale>
<asrwt>0</asrwt>
<pdfrwt beam="1">  1        2 0.27508782E+00 0.15853924E+04</pdfrwt>
<pdfrwt beam="2">  1       -2 0.23029016E+00 0.15853924E+04</pdfrwt>
<totfact> 0.69448947E-01</totfact>
</mgrwt>
</event>
<event>
12    1  0.1444206E-007  0.4698929E+03  0.7818608E-02  0.1021950E+00
          1   -1    0    0  501    0  0.00000000000E+00  0.00000000000E+00  0.54363329639E+03  0.54363329639E+03  0.00000000000E+00 0.  1.
         -1   -1    0    0    0  501 -0.00000000000E+00 -0.00000000000E+00 -0.73441132966E+03  0.73441132966E+03  0.00000000000E+00 0. -1.
         23    2    1    2    0    0  0.17353991571E+03  0.24874499531E+03  0.30681896189E+03  0.44056630015E+03  0.89278297580E+02 0.  0.
    5000000    2    1    2    0    0 -0.17353991571E+03 -0.24874499531E+03 -0.49759699516E+03  0.83747832590E+03  0.60147901187E+03 0.  0.
         23    2    4    4    0    0 -0.30422222026E+03 -0.32657066023E+03 -0.47553190862E+03  0.65870056976E+03  0.92500211128E+02 0.  0.
         23    2    4    4    0    0  0.13068230454E+03  0.77825664922E+02 -0.22065086532E+02  0.17877775614E+03  0.91323158098E+02 0.  0.
          2    1    3    3  502    0  0.14391760651E+03  0.13298835602E+03  0.17596644710E+03  0.26336736853E+03  0.00000000000E+00 0. -1.
         -2    1    3    3    0  502  0.29622309202E+02  0.11575663929E+03  0.13085251479E+03  0.17719893162E+03  0.00000000000E+00 0.  1.
         13    1    5    5    0    0 -0.87081510485E+02 -0.57629005584E+02 -0.69373674450E+02  0.12536745375E+03  0.00000000000E+00 0. -1.
        -13    1    5    5    0    0 -0.21714070977E+03 -0.26894165465E+03 -0.40615823417E+03  0.53333311601E+03  0.00000000000E+00 0.  1.
          3    1    6    6  503    0  0.74719651247E+02  0.90016804422E+02 -0.30467149373E+02  0.12088961308E+03  0.00000000000E+00 0. -1.
         -3    1    6    6    0  503  0.55962653296E+02 -0.12191139500E+02  0.84020628408E+01  0.57888143054E+02  0.00000000000E+00 0.  1.
<mgrwt>
<rscale>  0 0.46989290E+03</rscale>
<asrwt>0</asrwt>
<pdfrwt beam="1">  1        1 0.83635892E-01 0.46989290E+03</pdfrwt>
<pdfrwt beam="2">  1       -1 0.11298636E+00 0.46989290E+03</pdfrwt>
<totfact> 0.29948528E+01</totfact>
</mgrwt>
</event>
<event>
12    1  0.1444206E-007  0.1095020E+04  0.7818608E-02  0.9210060E-01
          2   -1    0    0  501    0  0.00000000000E+00  0.00000000000E+00  0.22869672852E+04  0.22869672852E+04  0.00000000000E+00 0.  1.
         -2   -1    0    0    0  501 -0.00000000000E+00 -0.00000000000E+00 -0.59545435871E+03  0.59545435871E+03  0.00000000000E+00 0. -1.
         23    2    1    2    0    0 -0.92705797122E+03  0.55329285296E+03  0.94407112492E+03  0.14387610903E+04  0.11486393198E+03 0.  0.
    5000000    2    1    2    0    0  0.92705797122E+03 -0.55329285296E+03  0.74744180152E+03  0.14436605536E+04  0.59993089950E+03 0.  0.
         23    2    4    4    0    0  0.14143685615E+03 -0.19706837819E+03 -0.51028344141E+02  0.26423617091E+03  0.91523396729E+02 0.  0.
         23    2    4    4    0    0  0.78562111507E+03 -0.35622447477E+03  0.79847014567E+03  0.11794243827E+04  0.96906594590E+02 0.  0.
          1    1    3    3  502    0 -0.18014345389E+03  0.11189164774E+03  0.24908252608E+03  0.32712919407E+03  0.00000000000E+00 0. -1.
         -1    1    3    3    0  502 -0.74691451733E+03  0.44140120523E+03  0.69498859884E+03  0.11116318962E+04  0.00000000000E+00 0.  1.
         11    1    5    5    0    0  0.59032894243E+02 -0.92688194086E+02  0.22653054344E+02  0.11220135827E+03  0.00000000000E+00 0.  1.
        -11    1    5    5    0    0  0.82403961903E+02 -0.10438018411E+03 -0.73681398485E+02  0.15203481264E+03  0.00000000000E+00 0. -1.
          3    1    6    6  503    0  0.46428313782E+03 -0.16045302910E+03  0.47253637442E+03  0.68161178963E+03  0.00000000000E+00 0. -1.
         -3    1    6    6    0  503  0.32133797725E+03 -0.19577144567E+03  0.32593377124E+03  0.49781259305E+03  0.00000000000E+00 0.  1.
<mgrwt>
<rscale>  0 0.10950196E+04</rscale>
<asrwt>0</asrwt>
<pdfrwt beam="1">  1        2 0.35184112E+00 0.10950196E+04</pdfrwt>
<pdfrwt beam="2">  1       -2 0.91608364E-01 0.10950196E+04</pdfrwt>
<totfact> 0.46489092E+00</totfact>
</mgrwt>
</event>
<event>
12    1  0.1444206E-007  0.1038523E+04  0.7818608E-02  0.9267274E-01
         -1   -1    0    0    0  501 -0.00000000000E+00  0.00000000000E+00  0.76018226790E+03  0.76018226790E+03  0.00000000000E+00 0.  1.
          1   -1    0    0  501    0  0.00000000000E+00 -0.00000000000E+00 -0.19299699642E+04  0.19299699642E+04  0.00000000000E+00 0. -1.
         23    2    1    2    0    0 -0.96455513821E+03  0.34468903152E+03 -0.69105145617E+01  0.10283778036E+04  0.91301744637E+02 0.  0.
    5000000    2    1    2    0    0  0.96455513821E+03 -0.34468903152E+03 -0.11628771818E+04  0.16617744286E+04  0.60002813970E+03 0.  0.
         23    2    4    4    0    0  0.62450380487E+03 -0.33153946037E+03 -0.10878324789E+04  0.13005655504E+04  0.90376062582E+02 0.  0.
         23    2    4    4    0    0  0.34005133334E+03 -0.13149571143E+02 -0.75044702853E+02  0.36120887813E+03  0.95038548419E+02 0.  0.
          2    1    3    3  502    0 -0.42884889796E+03  0.13573989010E+03  0.39168604188E+02  0.45152062478E+03  0.00000000000E+00 0. -1.
         -2    1    3    3    0  502 -0.53570624025E+03  0.20894914142E+03 -0.46079118750E+02  0.57685717879E+03  0.00000000000E+00 0.  1.
         13    1    5    5    0    0  0.18182099660E+03 -0.72273583932E+02 -0.36573639394E+03  0.41478362502E+03  0.00000000000E+00 0. -1.
        -13    1    5    5    0    0  0.44268280827E+03 -0.25926587644E+03 -0.72209608499E+03  0.88578192541E+03  0.00000000000E+00 0.  1.
          4    1    6    6  503    0  0.50290516608E+02  0.14823755073E+02 -0.44007587519E+02  0.68451059410E+02  0.00000000000E+00 0. -1.
         -4    1    6    6    0  503  0.28976081673E+03 -0.27973326216E+02 -0.31037115334E+02  0.29275781872E+03  0.00000000000E+00 0.  1.
<mgrwt>
<rscale>  0 0.10385231E+04</rscale>
<asrwt>0</asrwt>
<pdfrwt beam="1">  1        1 0.29691845E+00 0.10385231E+04</pdfrwt>
<pdfrwt beam="2">  1       -1 0.11695112E+00 0.10385231E+04</pdfrwt>
<totfact> 0.22015553E+00</totfact>
</mgrwt>
</event>
<event>
12    1  0.1444206E-007  0.5290645E+03  0.7818608E-02  0.1006459E+00
          1   -1    0    0  501    0  0.00000000000E+00  0.00000000000E+00  0.37099843522E+03  0.37099843522E+03  0.00000000000E+00 0. -1.
         -1   -1    0    0    0  501 -0.00000000000E+00 -0.00000000000E+00 -0.11225491286E+04  0.11225491286E+04  0.00000000000E+00 0.  1.
         23    2    1    2    0    0  0.14750098625E+03  0.40775490862E+03 -0.58792400525E+03  0.73536365092E+03  0.84169214672E+02 0.  0.
    5000000    2    1    2    0    0 -0.14750098625E+03 -0.40775490862E+03 -0.16362668808E+03  0.75818391285E+03  0.60004045381E+03 0.  0.
         23    2    4    4    0    0 -0.16453866731E+02 -0.45573229682E+03  0.69579038163E+02  0.47094616387E+03  0.94796574881E+02 0.  0.
         23    2    4    4    0    0 -0.13104711952E+03  0.47977388206E+02 -0.23320572625E+03  0.28723774899E+03  0.92980838757E+02 0.  0.
          1    1    3    3  502    0  0.10933831483E+03  0.25923388198E+03 -0.31533985700E+03  0.42260655233E+03  0.00000000000E+00 0. -1.
         -1    1    3    3    0  502  0.38162671419E+02  0.14852102663E+03 -0.27258414825E+03  0.31275709859E+03  0.00000000000E+00 0.  1.
         11    1    5    5    0    0 -0.94682091887E+01 -0.26685352925E+03  0.87741414470E+02  0.28106762331E+03  0.00000000000E+00 0. -1.
        -11    1    5    5    0    0 -0.69856575420E+01 -0.18887876757E+03 -0.18162376306E+02  0.18987854055E+03  0.00000000000E+00 0.  1.
          3    1    6    6  503    0 -0.22399188105E+02  0.54132041135E+02 -0.73721684890E+02  0.94164156282E+02  0.00000000000E+00 0. -1.
         -3    1    6    6    0  503 -0.10864793141E+03 -0.61546529284E+01 -0.15948404136E+03  0.19307359270E+03  0.00000000000E+00 0.  1.
<mgrwt>
<rscale>  0 0.52906453E+03</rscale>
<asrwt>0</asrwt>
<pdfrwt beam="1">  1        1 0.57076683E-01 0.52906453E+03</pdfrwt>
<pdfrwt beam="2">  1       -1 0.17269987E+00 0.52906453E+03</pdfrwt>
<totfact> 0.16482676E+01</totfact>
</mgrwt>
</event>
<event>
12    1  0.1444206E-007  0.5733200E+03  0.7818608E-02  0.9962359E-01
          1   -1    0    0  501    0  0.00000000000E+00  0.00000000000E+00  0.26859673502E+04  0.26859673502E+04  0.00000000000E+00 0. -1.
         -1   -1    0    0    0  501 -0.00000000000E+00 -0.00000000000E+00 -0.18548459490E+03  0.18548459490E+03  0.00000000000E+00 0.  1.
         23    2    1    2    0    0 -0.30869542836E+03 -0.30236005085E+03  0.25396545051E+03  0.50642681289E+03  0.72492750785E+02 0.  0.
    5000000    2    1    2    0    0  0.30869542836E+03  0.30236005085E+03  0.22465173048E+04  0.23650251322E+04  0.59982448052E+03 0.  0.
         23    2    4    4    0    0  0.46030868550E+03  0.19163367121E+03  0.18337091588E+04  0.19024595124E+04  0.90859051567E+02 0.  0.
         23    2    4    4    0    0 -0.15161325714E+03  0.11072637964E+03  0.41280814594E+03  0.46256561980E+03  0.91156329303E+02 0.  0.
          1    1    3    3  502    0 -0.63958367868E+02 -0.27325077974E+02  0.48774416778E+02  0.84948669434E+02  0.00000000000E+00 0. -1.
         -1    1    3    3    0  502 -0.24473706049E+03 -0.27503497288E+03  0.20519103373E+03  0.42147814345E+03  0.00000000000E+00 0.  1.
         11    1    5    5    0    0  0.26511607597E+03  0.13184617880E+03  0.12312959044E+04  0.12663962859E+04  0.00000000000E+00 0.  1.
        -11    1    5    5    0    0  0.19519260953E+03  0.59787492415E+02  0.60241325440E+03  0.63606322652E+03  0.00000000000E+00 0. -1.
          4    1    6    6  503    0 -0.41335292941E+02  0.86382570742E+02  0.18771869113E+03  0.21073410254E+03  0.00000000000E+00 0.  1.
         -4    1    6    6    0  503 -0.11027796420E+03  0.24343808898E+02  0.22508945481E+03  0.25183151726E+03  0.00000000000E+00 0. -1.
<mgrwt>
<rscale>  0 0.57332002E+03</rscale>
<asrwt>0</asrwt>
<pdfrwt beam="1">  1        1 0.41322572E+00 0.57332002E+03</pdfrwt>
<pdfrwt beam="2">  1       -1 0.28536093E-01 0.57332002E+03</pdfrwt>
<totfact> 0.12190001E+01</totfact>
</mgrwt>
</event>
<event>
12    1  0.1444206E-007  0.5315149E+03  0.7818608E-02  0.1005865E+00
         -2   -1    0    0    0  501 -0.00000000000E+00  0.00000000000E+00  0.99699328010E+03  0.99699328010E+03  0.00000000000E+00 0.  1.
          2   -1    0    0  501    0  0.00000000000E+00 -0.00000000000E+00 -0.54740153597E+03  0.54740153597E+03  0.00000000000E+00 0. -1.
         23    2    1    2    0    0 -0.22859596007E+02 -0.37045920708E+03  0.69888139598E+03  0.79621717090E+03  0.88113519696E+02 0.  0.
    5000000    2    1    2    0    0  0.22859596007E+02  0.37045920708E+03 -0.24928965185E+03  0.74817764516E+03  0.59988488309E+03 0.  0.
         23    2    4    4    0    0  0.28417253900E+01  0.51747233257E+03 -0.15552924732E+03  0.54798255562E+03  0.91158346316E+02 0.  0.
         23    2    4    4    0    0  0.20017870617E+02 -0.14701312550E+03 -0.93760404525E+02  0.20019508954E+03  0.96298941886E+02 0.  0.
          1    1    3    3  502    0 -0.26907961743E+02 -0.13421052818E+03  0.18056150045E+03  0.22658102242E+03  0.00000000000E+00 0. -1.
         -1    1    3    3    0  502  0.40483657358E+01 -0.23624867890E+03  0.51831989554E+03  0.56963614848E+03  0.00000000000E+00 0.  1.
         13    1    5    5    0    0  0.44680275481E+01  0.49325374500E+03 -0.12478802222E+03  0.50881359132E+03  0.00000000000E+00 0. -1.
        -13    1    5    5    0    0 -0.16263021581E+01  0.24218587579E+02 -0.30741225107E+02  0.39168964297E+02  0.00000000000E+00 0.  1.
          3    1    6    6  503    0 -0.25452864694E+02 -0.89837225621E+01  0.46434253907E+00  0.26995762745E+02  0.00000000000E+00 0. -1.
         -3    1    6    6    0  503  0.45470735311E+02 -0.13802940293E+03 -0.94224747064E+02  0.17319932680E+03  0.00000000000E+00 0.  1.
<mgrwt>
<rscale>  0 0.53151490E+03</rscale>
<asrwt>0</asrwt>
<pdfrwt beam="1">  1        2 0.84215621E-01 0.53151490E+03</pdfrwt>
<pdfrwt beam="2">  1       -2 0.15338358E+00 0.53151490E+03</pdfrwt>
<totfact> 0.16243355E+01</totfact>
</mgrwt>
</event>
<event>
12    1  0.1444206E-007  0.9158206E+03  0.7818608E-02  0.9406018E-01
         -2   -1    0    0    0  501 -0.00000000000E+00  0.00000000000E+00  0.31188164887E+03  0.31188164887E+03  0.00000000000E+00 0.  1.
          2   -1    0    0  501    0  0.00000000000E+00 -0.00000000000E+00 -0.28692957828E+04  0.28692957828E+04  0.00000000000E+00 0. -1.
         23    2    1    2    0    0 -0.67583323704E+03 -0.49352820500E+03 -0.13860105455E+04  0.16215594589E+04  0.90051058582E+02 0.  0.
    5000000    2    1    2    0    0  0.67583323704E+03  0.49352820500E+03 -0.11714035885E+04  0.15596179728E+04  0.59991766146E+03 0.  0.
         23    2    4    4    0    0  0.21315452476E+03  0.47151517742E+03 -0.42087053872E+03  0.67333806529E+03  0.92145134683E+02 0.  0.
         23    2    4    4    0    0  0.46267871228E+03  0.22013027583E+02 -0.75053304974E+03  0.88627990748E+03  0.87384503653E+02 0.  0.
          3    1    3    3  502    0 -0.36553762047E+03 -0.26469849648E+03 -0.66043404623E+03  0.79991010460E+03  0.00000000000E+00 0. -1.
         -3    1    3    3    0  502 -0.31029561656E+03 -0.22882970852E+03 -0.72557649923E+03  0.82164935429E+03  0.00000000000E+00 0.  1.
         11    1    5    5    0    0  0.22083205811E+03  0.43549238089E+03 -0.38363741790E+03  0.62096544197E+03  0.00000000000E+00 0. -1.
        -11    1    5    5    0    0 -0.76775333491E+01  0.36022796527E+02 -0.37233120819E+02  0.52372623324E+02  0.00000000000E+00 0.  1.
          2    1    6    6  503    0  0.23698666112E+03  0.50127784149E+02 -0.34935184903E+03  0.42511432193E+03  0.00000000000E+00 0. -1.
         -2    1    6    6    0  503  0.22569205116E+03 -0.28114756567E+02 -0.40118120071E+03  0.46116558555E+03  0.00000000000E+00 0.  1.
<mgrwt>
<rscale>  0 0.91582056E+03</rscale>
<asrwt>0</asrwt>
<pdfrwt beam="1">  1        2 0.44143013E+00 0.91582056E+03</pdfrwt>
<pdfrwt beam="2">  1       -2 0.47981791E-01 0.91582056E+03</pdfrwt>
<totfact> 0.89103955E+00</totfact>
</mgrwt>
</event>
<event>
12    1  0.1444206E-007  0.1065941E+04  0.7818608E-02  0.9239039E-01
          2   -1    0    0  501    0  0.00000000000E+00  0.00000000000E+00  0.13816214610E+04  0.13816214610E+04  0.00000000000E+00 0.  1.
         -2   -1    0    0    0  501 -0.00000000000E+00 -0.00000000000E+00 -0.93947374856E+03  0.93947374856E+03  0.00000000000E+00 0. -1.
         23    2    1    2    0    0  0.21949386586E+03 -0.96265157077E+03 -0.18159680937E+03  0.10080812954E+04  0.91514441661E+02 0.  0.
    5000000    2    1    2    0    0 -0.21949386586E+03  0.96265157077E+03  0.62374452180E+03  0.13130139142E+04  0.60006058570E+03 0.  0.
         23    2    4    4    0    0 -0.38360141148E+03  0.84702205052E+03  0.48959080202E+03  0.10548567390E+04  0.91799725056E+02 0.  0.
         23    2    4    4    0    0  0.16410754562E+03  0.11562952025E+03  0.13415371978E+03  0.25815717514E+03  0.91358820399E+02 0.  0.
          3    1    3    3  502    0  0.16740152730E+03 -0.65616807032E+03 -0.84758318406E+02  0.68246888603E+03  0.00000000000E+00 0. -1.
         -3    1    3    3    0  502  0.52092338560E+02 -0.30648350044E+03 -0.96838490962E+02  0.32561240934E+03  0.00000000000E+00 0.  1.
         11    1    5    5    0    0 -0.25213473021E+03  0.56858906273E+03  0.37517834636E+03  0.72637747488E+03  0.00000000000E+00 0. -1.
        -11    1    5    5    0    0 -0.13146668127E+03  0.27843298779E+03  0.11441245566E+03  0.32847926417E+03  0.00000000000E+00 0.  1.
          1    1    6    6  503    0  0.11803441618E+03  0.11914859557E+03  0.12915031848E+03  0.21167974866E+03  0.00000000000E+00 0. -1.
         -1    1    6    6    0  503  0.46073129445E+02 -0.35190753198E+01  0.50034012918E+01  0.46477426482E+02  0.00000000000E+00 0.  1.
<mgrwt>
<rscale>  0 0.10659410E+04</rscale>
<asrwt>0</asrwt>
<pdfrwt beam="1">  1        2 0.21255715E+00 0.10659410E+04</pdfrwt>
<pdfrwt beam="2">  1       -2 0.14453442E+00 0.10659410E+04</pdfrwt>
<totfact> 0.48273102E+00</totfact>
</mgrwt>
</event>
<event>
12    1  0.1444206E-007  0.5730563E+03  0.7818608E-02  0.9962938E-01
          2   -1    0    0  501    0  0.00000000000E+00  0.00000000000E+00  0.19637935163E+04  0.19637935163E+04  0.00000000000E+00 0. -1.
         -2   -1    0    0    0  501 -0.00000000000E+00 -0.00000000000E+00 -0.34438913685E+03  0.34438913685E+03  0.00000000000E+00 0.  1.
         23    2    1    2    0    0  0.53614148928E+03 -0.15806545809E+03  0.13181410151E+04  0.14344288215E+04  0.87509557953E+02 0.  0.
    5000000    2    1    2    0    0 -0.53614148928E+03  0.15806545809E+03  0.30126336440E+03  0.87375383168E+03  0.60021142781E+03 0.  0.
         23    2    4    4    0    0 -0.33927283965E+03  0.41110184773E+02 -0.13180416671E+03  0.37552295188E+03  0.82758939172E+02 0.  0.
         23    2    4    4    0    0 -0.19686864964E+03  0.11695527332E+03  0.43306753110E+03  0.49823087980E+03  0.90833484597E+02 0.  0.
          4    1    3    3  502    0  0.26418583854E+03 -0.77765283521E+02  0.53874528368E+03  0.60505212775E+03  0.00000000000E+00 0. -1.
         -4    1    3    3    0  502  0.27195565074E+03 -0.80300174572E+02  0.77939573140E+03  0.82937669375E+03  0.00000000000E+00 0.  1.
         13    1    5    5    0    0 -0.27382124681E+03  0.65577972388E+02 -0.10059866902E+03  0.29899604993E+03  0.00000000000E+00 0. -1.
        -13    1    5    5    0    0 -0.65451592840E+02 -0.24467787615E+02 -0.31205497684E+02  0.76526901948E+02  0.00000000000E+00 0.  1.
          2    1    6    6  503    0 -0.15789984101E+03  0.11737214605E+03  0.29363438807E+03  0.35345400594E+03  0.00000000000E+00 0. -1.
         -2    1    6    6    0  503 -0.38968808629E+02 -0.41687272467E+00  0.13943314304E+03  0.14477687386E+03  0.00000000000E+00 0.  1.
<mgrwt>
<rscale>  0 0.57305626E+03</rscale>
<asrwt>0</asrwt>
<pdfrwt beam="1">  1        2 0.30212207E+00 0.57305626E+03</pdfrwt>
<pdfrwt beam="2">  1       -2 0.52982945E-01 0.57305626E+03</pdfrwt>
<totfact> 0.24944048E+01</totfact>
</mgrwt>
</event>
<event>
12    1  0.1444206E-007  0.8494097E+03  0.7818608E-02  0.9491130E-01
          1   -1    0    0  501    0  0.00000000000E+00  0.00000000000E+00  0.10354570740E+04  0.10354570740E+04  0.00000000000E+00 0. -1.
         -1   -1    0    0    0  501 -0.00000000000E+00 -0.00000000000E+00 -0.78795281812E+03  0.78795281812E+03  0.00000000000E+00 0.  1.
         23    2    1    2    0    0 -0.69232447690E+03 -0.34218197462E+03  0.32283131272E+03  0.84265226588E+03  0.97165321332E+02 0.  0.
    5000000    2    1    2    0    0  0.69232447690E+03  0.34218197462E+03 -0.75327056801E+02  0.98075762627E+03  0.59984137148E+03 0.  0.
         23    2    4    4    0    0  0.77131756903E+02 -0.12975584897E+03 -0.89083168382E+02  0.19907898513E+03  0.94396732828E+02 0.  0.
         23    2    4    4    0    0  0.61519271999E+03  0.47193782358E+03  0.13756111581E+02  0.78167864114E+03  0.98208326233E+02 0.  0.
          3    1    3    3  502    0 -0.55227641115E+03 -0.26572596825E+03  0.29687877423E+03  0.68099671886E+03  0.00000000000E+00 0. -1.
         -3    1    3    3    0  502 -0.14004806575E+03 -0.76456006368E+02  0.25952538486E+02  0.16165554702E+03  0.00000000000E+00 0.  1.
         11    1    5    5    0    0  0.21183564950E+02 -0.38615702459E+02 -0.80538876022E+02  0.91795568799E+02  0.00000000000E+00 0. -1.
        -11    1    5    5    0    0  0.55948191953E+02 -0.91140146508E+02 -0.85442923602E+01  0.10728341633E+03  0.00000000000E+00 0.  1.
          3    1    6    6  503    0  0.18470753113E+03  0.13759519173E+03  0.48964863984E+02  0.23547158374E+03  0.00000000000E+00 0. -1.
         -3    1    6    6    0  503  0.43048518886E+03  0.33434263185E+03 -0.35208752404E+02  0.54620705740E+03  0.00000000000E+00 0.  1.
<mgrwt>
<rscale>  0 0.84940966E+03</rscale>
<asrwt>0</asrwt>
<pdfrwt beam="1">  1        1 0.15930109E+00 0.84940966E+03</pdfrwt>
<pdfrwt beam="2">  1       -1 0.12122351E+00 0.84940966E+03</pdfrwt>
<totfact> 0.87459552E+00</totfact>
</mgrwt>
</event>
<event>
12    1  0.1444206E-007  0.1161110E+04  0.7818608E-02  0.9147595E-01
          2   -1    0    0  501    0  0.00000000000E+00  0.00000000000E+00  0.24014160081E+04  0.24014160081E+04  0.00000000000E+00 0. -1.
         -2   -1    0    0    0  501 -0.00000000000E+00 -0.00000000000E+00 -0.57639356190E+03  0.57639356190E+03  0.00000000000E+00 0.  1.
         23    2    1    2    0    0 -0.32825367494E+02 -0.10875519154E+04  0.10416529008E+04  0.15089697547E+04  0.90012674267E+02 0.  0.
    5000000    2    1    2    0    0  0.32825367494E+02  0.10875519154E+04  0.78336954542E+03  0.14688398153E+04  0.59997990379E+03 0.  0.
         23    2    4    4    0    0  0.29864649136E+03  0.50312392943E+03  0.33096623358E+03  0.67860585443E+03  0.92972268593E+02 0.  0.
         23    2    4    4    0    0 -0.26582112386E+03  0.58442798594E+03  0.45240331184E+03  0.79023396087E+03  0.87086254448E+02 0.  0.
          3    1    3    3  502    0 -0.36131300895E+02 -0.17728852978E+03  0.19108594829E+03  0.26315496068E+03  0.00000000000E+00 0.  1.
         -3    1    3    3    0  502  0.33059334020E+01 -0.91026338559E+03  0.85056695251E+03  0.12458147940E+04  0.00000000000E+00 0. -1.
         11    1    5    5    0    0  0.72543775701E+02  0.76963416029E+02  0.92279232285E+02  0.14036175943E+03  0.00000000000E+00 0. -1.
        -11    1    5    5    0    0  0.22610271566E+03  0.42616051340E+03  0.23868700129E+03  0.53824409500E+03  0.00000000000E+00 0.  1.
          1    1    6    6  503    0 -0.13106677450E+03  0.32638679565E+03  0.29642030307E+03  0.45996938574E+03  0.00000000000E+00 0. -1.
         -1    1    6    6    0  503 -0.13475434937E+03  0.25804119029E+03  0.15598300877E+03  0.33026457513E+03  0.00000000000E+00 0.  1.
<mgrwt>
<rscale>  0 0.11611102E+04</rscale>
<asrwt>0</asrwt>
<pdfrwt beam="1">  1        2 0.36944861E+00 0.11611102E+04</pdfrwt>
<pdfrwt beam="2">  1       -2 0.88675934E-01 0.11611102E+04</pdfrwt>
<totfact> 0.42878710E+00</totfact>
</mgrwt>
</event>
<event>
12    1  0.1444206E-007  0.4912678E+03  0.7818608E-02  0.1016084E+00
         -2   -1    0    0    0  501 -0.00000000000E+00  0.00000000000E+00  0.17546543811E+03  0.17546543811E+03  0.00000000000E+00 0.  1.
          2   -1    0    0  501    0  0.00000000000E+00 -0.00000000000E+00 -0.35305972436E+04  0.35305972436E+04  0.00000000000E+00 0. -1.
         23    2    1    2    0    0 -0.29853966638E+03  0.26016778578E+03 -0.16979090950E+03  0.44066198097E+03  0.92416553522E+02 0.  0.
    5000000    2    1    2    0    0  0.29853966638E+03 -0.26016778578E+03 -0.31853408960E+04  0.32654007008E+04  0.59969317451E+03 0.  0.
         23    2    4    4    0    0  0.11389875729E+03 -0.35384935866E+03 -0.10415782921E+04  0.11097218040E+04  0.91732481775E+02 0.  0.
         23    2    4    4    0    0  0.18464090909E+03  0.93681572874E+02 -0.21437626039E+04  0.21556788967E+04  0.91459835511E+02 0.  0.
          4    1    3    3  502    0 -0.18275632333E+03  0.12539244506E+03 -0.13528158440E+03  0.25966179171E+03  0.00000000000E+00 0. -1.
         -4    1    3    3    0  502 -0.11578334305E+03  0.13477534072E+03 -0.34509325098E+02  0.18100018926E+03  0.00000000000E+00 0.  1.
         13    1    5    5    0    0  0.38821885910E+02 -0.15002798682E+03 -0.30996238548E+03  0.34654323838E+03  0.00000000000E+00 0. -1.
        -13    1    5    5    0    0  0.75076871383E+02 -0.20382137184E+03 -0.73161590664E+03  0.76317856566E+03  0.00000000000E+00 0.  1.
          3    1    6    6  503    0  0.36398532569E+02  0.38175276069E+02 -0.95055554894E+03  0.95201788664E+03  0.00000000000E+00 0.  1.
         -3    1    6    6    0  503  0.14824237652E+03  0.55506296805E+02 -0.11932070550E+04  0.12036610101E+04  0.00000000000E+00 0. -1.
<mgrwt>
<rscale>  0 0.49126778E+03</rscale>
<asrwt>0</asrwt>
<pdfrwt beam="1">  1        2 0.54316879E+00 0.49126778E+03</pdfrwt>
<pdfrwt beam="2">  1       -2 0.26994684E-01 0.49126778E+03</pdfrwt>
<totfact> 0.11080442E+01</totfact>
</mgrwt>
</event>
<event>
12    1  0.1444206E-007  0.4399367E+03  0.7818608E-02  0.1030766E+00
          1   -1    0    0  501    0  0.00000000000E+00  0.00000000000E+00  0.13267806337E+04  0.13267806337E+04  0.00000000000E+00 0. -1.
         -1   -1    0    0    0  501 -0.00000000000E+00 -0.00000000000E+00 -0.21020369426E+03  0.21020369426E+03  0.00000000000E+00 0.  1.
         23    2    1    2    0    0  0.22906416659E+03 -0.20206249203E+03  0.63147633835E+03  0.70714129187E+03  0.89368885364E+02 0.  0.
    5000000    2    1    2    0    0 -0.22906416659E+03  0.20206249203E+03  0.48510060104E+03  0.82984303605E+03  0.60001435670E+03 0.  0.
         23    2    4    4    0    0 -0.34311233395E+03  0.24888524364E+03  0.51547063646E+03  0.67376053883E+03  0.92592377778E+02 0.  0.
         23    2    4    4    0    0  0.11404816736E+03 -0.46822751617E+02 -0.30370035418E+02  0.15608249722E+03  0.90774734032E+02 0.  0.
          2    1    3    3  502    0  0.19710283541E+03 -0.13047830617E+03  0.51603995409E+03  0.56760140092E+03  0.00000000000E+00 0. -1.
         -2    1    3    3    0  502  0.31961331181E+02 -0.71584185858E+02  0.11543638426E+03  0.13953989095E+03  0.00000000000E+00 0.  1.
         13    1    5    5    0    0 -0.24435597810E+03  0.12405994984E+03  0.30799047862E+03  0.41226065797E+03  0.00000000000E+00 0. -1.
        -13    1    5    5    0    0 -0.98756355846E+02  0.12482529381E+03  0.20748015784E+03  0.26149988086E+03  0.00000000000E+00 0.  1.
          4    1    6    6  503    0  0.68412454835E+02 -0.27835562299E+01  0.23993423719E+02  0.72551337297E+02  0.00000000000E+00 0.  1.
         -4    1    6    6    0  503  0.45635712525E+02 -0.44039195387E+02 -0.54363459137E+02  0.83531159919E+02  0.00000000000E+00 0. -1.
<mgrwt>
<rscale>  0 0.43993671E+03</rscale>
<asrwt>0</asrwt>
<pdfrwt beam="1">  1        1 0.20412009E+00 0.43993671E+03</pdfrwt>
<pdfrwt beam="2">  1       -1 0.32339031E-01 0.43993671E+03</pdfrwt>
<totfact> 0.82157705E+01</totfact>
</mgrwt>
</event>
<event>
12    1  0.1444206E-007  0.5839171E+03  0.7818608E-02  0.9939346E-01
          1   -1    0    0  501    0  0.00000000000E+00  0.00000000000E+00  0.17286622333E+04  0.17286622333E+04  0.00000000000E+00 0. -1.
         -1   -1    0    0    0  501 -0.00000000000E+00 -0.00000000000E+00 -0.23550935232E+03  0.23550935232E+03  0.00000000000E+00 0.  1.
         23    2    1    2    0    0 -0.27125145087E+03  0.37756167755E+03  0.33799922457E+03  0.58196225267E+03  0.91139551093E+02 0.  0.
    5000000    2    1    2    0    0  0.27125145087E+03 -0.37756167755E+03  0.11551536564E+04  0.13822093330E+04  0.59999375015E+03 0.  0.
         23    2    4    4    0    0  0.29851718846E+03 -0.48693256795E+03  0.10638230515E+04  0.12109552609E+04  0.92072370176E+02 0.  0.
         23    2    4    4    0    0 -0.27265737588E+02  0.10937089040E+03  0.91330604929E+02  0.17125407211E+03  0.91001459906E+02 0.  0.
          4    1    3    3  502    0 -0.16802540821E+03  0.16047541986E+03  0.14704129468E+03  0.27496552607E+03  0.00000000000E+00 0. -1.
         -4    1    3    3    0  502 -0.10322604266E+03  0.21708625769E+03  0.19095792989E+03  0.30699672661E+03  0.00000000000E+00 0.  1.
         13    1    5    5    0    0  0.12434923912E+03 -0.27312746816E+03  0.61210704865E+03  0.68171576639E+03  0.00000000000E+00 0. -1.
        -13    1    5    5    0    0  0.17416794934E+03 -0.21380509979E+03  0.45171600285E+03  0.52923949447E+03  0.00000000000E+00 0.  1.
          3    1    6    6  503    0  0.17410737918E+01  0.71575835481E+02  0.39218664097E+01  0.71704341563E+02  0.00000000000E+00 0. -1.
         -3    1    6    6    0  503 -0.29006811380E+02  0.37795054918E+02  0.87408738520E+02  0.99549730548E+02  0.00000000000E+00 0.  1.
<mgrwt>
<rscale>  0 0.58391709E+03</rscale>
<asrwt>0</asrwt>
<pdfrwt beam="1">  1        1 0.26594803E+00 0.58391709E+03</pdfrwt>
<pdfrwt beam="2">  1       -1 0.36232209E-01 0.58391709E+03</pdfrwt>
<totfact> 0.35127175E+01</totfact>
</mgrwt>
</event>
<event>
12    1  0.1444206E-007  0.7487824E+03  0.7818608E-02  0.9637263E-01
         -1   -1    0    0    0  501 -0.00000000000E+00  0.00000000000E+00  0.40607335745E+03  0.40607335745E+03  0.00000000000E+00 0.  1.
          1   -1    0    0  501    0  0.00000000000E+00 -0.00000000000E+00 -0.17811763326E+04  0.17811763326E+04  0.00000000000E+00 0. -1.
         23    2    1    2    0    0  0.65580633345E+03  0.29162826742E+03 -0.84392341933E+03  0.11114057909E+04  0.88809352162E+02 0.  0.
    5000000    2    1    2    0    0 -0.65580633345E+03 -0.29162826742E+03 -0.53117955581E+03  0.10758438991E+04  0.60013280314E+03 0.  0.
         23    2    4    4    0    0 -0.13342558440E+03  0.25032067224E+02  0.10168739895E+03  0.19164649004E+03  0.89213558823E+02 0.  0.
         23    2    4    4    0    0 -0.52238074905E+03 -0.31666033465E+03 -0.63286695476E+03  0.88419740907E+03  0.90161306913E+02 0.  0.
          1    1    3    3  502    0  0.45032839259E+03  0.24113199501E+03 -0.61990856897E+03  0.80326019077E+03  0.00000000000E+00 0. -1.
         -1    1    3    3    0  502  0.20547794086E+03  0.50496272412E+02 -0.22401485036E+03  0.30814560014E+03  0.00000000000E+00 0.  1.
         13    1    5    5    0    0 -0.29629066713E+02  0.43206828801E+02  0.56319687305E+02  0.76919560760E+02  0.00000000000E+00 0.  1.
        -13    1    5    5    0    0 -0.10379651769E+03 -0.18174761577E+02  0.45367711646E+02  0.11472692928E+03  0.00000000000E+00 0. -1.
          1    1    6    6  503    0 -0.14315287374E+03 -0.13548212579E+03 -0.19472698871E+03  0.27706813567E+03  0.00000000000E+00 0. -1.
         -1    1    6    6    0  503 -0.37922787531E+03 -0.18117820885E+03 -0.43813996605E+03  0.60712927340E+03  0.00000000000E+00 0.  1.
<mgrwt>
<rscale>  0 0.74878237E+03</rscale>
<asrwt>0</asrwt>
<pdfrwt beam="1">  1        1 0.27402713E+00 0.74878237E+03</pdfrwt>
<pdfrwt beam="2">  1       -1 0.62472823E-01 0.74878237E+03</pdfrwt>
<totfact> 0.11362344E+01</totfact>
</mgrwt>
</event>
<event>
12    1  0.1444206E-007  0.2997798E+03  0.7818608E-02  0.1085351E+00
          1   -1    0    0  501    0  0.00000000000E+00  0.00000000000E+00  0.14231605404E+03  0.14231605404E+03  0.00000000000E+00 0. -1.
         -1   -1    0    0    0  501 -0.00000000000E+00 -0.00000000000E+00 -0.13595656219E+04  0.13595656219E+04  0.00000000000E+00 0.  1.
         23    2    1    2    0    0 -0.19581722807E+03  0.67429861061E+02 -0.19388167272E+03  0.29777237584E+03  0.90482660364E+02 0.  0.
    5000000    2    1    2    0    0  0.19581722807E+03 -0.67429861061E+02 -0.10233678952E+04  0.12041093001E+04  0.59975510403E+03 0.  0.
         23    2    4    4    0    0  0.27668481961E+03 -0.21474761565E+02 -0.10347234857E+04  0.10748475857E+04  0.87344066097E+02 0.  0.
         23    2    4    4    0    0 -0.80867591543E+02 -0.45955099495E+02  0.11355590541E+02  0.12926171440E+03  0.89040456203E+02 0.  0.
          2    1    3    3  502    0 -0.81505357012E+02  0.65583849845E+01 -0.26124367593E+02  0.85840655970E+02  0.00000000000E+00 0. -1.
         -2    1    3    3    0  502 -0.11431187106E+03  0.60871476076E+02 -0.16775730513E+03  0.21193171987E+03  0.00000000000E+00 0.  1.
         11    1    5    5    0    0  0.46570236403E+02 -0.36240368649E+01 -0.33002993637E+03  0.33331918556E+03  0.00000000000E+00 0. -1.
        -11    1    5    5    0    0  0.23011458321E+03 -0.17850724700E+02 -0.70469354932E+03  0.74152840016E+03  0.00000000000E+00 0.  1.
          4    1    6    6  503    0 -0.71573129091E+02 -0.83853698053E+01 -0.24887073350E+02  0.76239055966E+02  0.00000000000E+00 0. -1.
         -4    1    6    6    0  503 -0.92944624520E+01 -0.37569729690E+02  0.36242663890E+02  0.53022658431E+02  0.00000000000E+00 0.  1.
<mgrwt>
<rscale>  0 0.29977980E+03</rscale>
<asrwt>0</asrwt>
<pdfrwt beam="1">  1        1 0.21894777E-01 0.29977980E+03</pdfrwt>
<pdfrwt beam="2">  1       -1 0.20916395E+00 0.29977980E+03</pdfrwt>
<totfact> 0.32956538E+01</totfact>
</mgrwt>
</event>
<event>
12    1  0.1444206E-007  0.4858213E+03  0.7818608E-02  0.1017547E+00
          2   -1    0    0  501    0  0.00000000000E+00  0.00000000000E+00  0.23679475064E+04  0.23679475064E+04  0.00000000000E+00 0.  1.
         -2   -1    0    0    0  501 -0.00000000000E+00 -0.00000000000E+00 -0.22885040840E+03  0.22885040840E+03  0.00000000000E+00 0. -1.
         23    2    1    2    0    0 -0.15638220236E+03  0.44180881202E+03  0.15840629305E+04  0.16545960326E+04  0.93713626284E+02 0.  0.
    5000000    2    1    2    0    0  0.15638220236E+03 -0.44180881202E+03  0.55503416743E+03  0.94220188213E+03  0.60002586617E+03 0.  0.
         23    2    4    4    0    0  0.66490288782E+02 -0.92875990957E+02  0.55200656940E+03  0.57081659418E+03  0.89852230507E+02 0.  0.
         23    2    4    4    0    0  0.89891913574E+02 -0.34893282106E+03  0.30275980285E+01  0.37138528795E+03  0.89906596058E+02 0.  0.
          3    1    3    3  502    0 -0.92311938459E+02  0.25791293208E+03  0.76079246480E+03  0.80860728973E+03  0.00000000000E+00 0. -1.
         -3    1    3    3    0  502 -0.64070263898E+02  0.18389587993E+03  0.82327046574E+03  0.84598874291E+03  0.00000000000E+00 0.  1.
         13    1    5    5    0    0  0.84979151623E+02 -0.58274302163E+02  0.44695107063E+03  0.45867484130E+03  0.00000000000E+00 0.  1.
        -13    1    5    5    0    0 -0.18488862840E+02 -0.34601688794E+02  0.10505549877E+03  0.11214175288E+03  0.00000000000E+00 0. -1.
          3    1    6    6  503    0  0.57624683640E+02 -0.25315572348E+03  0.42112539326E+02  0.26302450545E+03  0.00000000000E+00 0. -1.
         -3    1    6    6    0  503  0.32267229934E+02 -0.95777097579E+02 -0.39084941298E+02  0.10836078250E+03  0.00000000000E+00 0.  1.
<mgrwt>
<rscale>  0 0.48582135E+03</rscale>
<asrwt>0</asrwt>
<pdfrwt beam="1">  1        2 0.36429960E+00 0.48582135E+03</pdfrwt>
<pdfrwt beam="2">  1       -2 0.35207757E-01 0.48582135E+03</pdfrwt>
<totfact> 0.34187102E+01</totfact>
</mgrwt>
</event>
<event>
12    1  0.1444206E-007  0.1220362E+04  0.7818608E-02  0.9095218E-01
         -2   -1    0    0    0  501 -0.00000000000E+00  0.00000000000E+00  0.14805395264E+04  0.14805395264E+04  0.00000000000E+00 0. -1.
          2   -1    0    0  501    0  0.00000000000E+00 -0.00000000000E+00 -0.10530738403E+04  0.10530738403E+04  0.00000000000E+00 0.  1.
         23    2    1    2    0    0 -0.11292947451E+04  0.31409898737E+03  0.12622342251E+03  0.11828043025E+04  0.95545122421E+02 0.  0.
    5000000    2    1    2    0    0  0.11292947451E+04 -0.31409898737E+03  0.30124226357E+03  0.13508090642E+04  0.59997785912E+03 0.  0.
         23    2    4    4    0    0  0.20657630905E+03 -0.26185809802E+03  0.23785288348E+03  0.41956755597E+03  0.90661485144E+02 0.  0.
         23    2    4    4    0    0  0.92271843607E+03 -0.52240889350E+02  0.63389380091E+02  0.93124150826E+03  0.95153089368E+02 0.  0.
          3    1    3    3  502    0 -0.75371629887E+02  0.17202603550E+02 -0.15123368721E+02  0.78775176560E+02  0.00000000000E+00 0. -1.
         -3    1    3    3    0  502 -0.10539231152E+04  0.29689638382E+03  0.14134679123E+03  0.11040291259E+04  0.00000000000E+00 0.  1.
         11    1    5    5    0    0  0.62834038391E+01  0.64501068169E+01  0.25592822932E+00  0.90083595074E+01  0.00000000000E+00 0. -1.
        -11    1    5    5    0    0  0.20029290521E+03 -0.26830820483E+03  0.23759695525E+03  0.41055919646E+03  0.00000000000E+00 0.  1.
          4    1    6    6  503    0  0.97381413065E+02 -0.14378104702E+02 -0.21274636551E+02  0.10070987869E+03  0.00000000000E+00 0. -1.
         -4    1    6    6    0  503  0.82533702301E+03 -0.37862784648E+02  0.84664016641E+02  0.83053162957E+03  0.00000000000E+00 0.  1.
<mgrwt>
<rscale>  0 0.12203617E+04</rscale>
<asrwt>0</asrwt>
<pdfrwt beam="1">  1        2 0.16201136E+00 0.12203617E+04</pdfrwt>
<pdfrwt beam="2">  1       -2 0.22777531E+00 0.12203617E+04</pdfrwt>
<totfact> 0.19971540E+00</totfact>
</mgrwt>
</event>
<event>
12    1  0.1444206E-007  0.7017267E+03  0.7818608E-02  0.9714284E-01
         -1   -1    0    0    0  501 -0.00000000000E+00  0.00000000000E+00  0.23858930152E+03  0.23858930152E+03  0.00000000000E+00 0.  1.
          1   -1    0    0  501    0  0.00000000000E+00 -0.00000000000E+00 -0.21956718497E+04  0.21956718497E+04  0.00000000000E+00 0. -1.
         23    2    1    2    0    0 -0.37326946443E+03  0.44084099180E+03 -0.57430161417E+03  0.82000830559E+03  0.94447890850E+02 0.  0.
    5000000    2    1    2    0    0  0.37326946443E+03 -0.44084099180E+03 -0.13827809340E+04  0.16142528456E+04  0.60004855221E+03 0.  0.
         23    2    4    4    0    0  0.71776504006E+02  0.13308561793E+03 -0.25992726071E+03  0.31446394470E+03  0.91987735238E+02 0.  0.
         23    2    4    4    0    0  0.30149296042E+03 -0.57392660972E+03 -0.11228536733E+04  0.12997889009E+04  0.91438814277E+02 0.  0.
          3    1    3    3  502    0 -0.13522966527E+03  0.21658473257E+03 -0.21141729607E+03  0.33150155630E+03  0.00000000000E+00 0. -1.
         -3    1    3    3    0  502 -0.23803979916E+03  0.22425625922E+03 -0.36288431809E+03  0.48850674929E+03  0.00000000000E+00 0.  1.
         11    1    5    5    0    0 -0.17155579948E+02  0.17113090791E+02 -0.12921572812E+02  0.27461588514E+02  0.00000000000E+00 0.  1.
        -11    1    5    5    0    0  0.88932083953E+02  0.11597252714E+03 -0.24700568789E+03  0.28700235619E+03  0.00000000000E+00 0. -1.
          3    1    6    6  503    0  0.19547119834E+03 -0.31253954263E+03 -0.56400150902E+03  0.67378606194E+03  0.00000000000E+00 0. -1.
         -3    1    6    6    0  503  0.10602176208E+03 -0.26138706709E+03 -0.55885216429E+03  0.62600283898E+03  0.00000000000E+00 0.  1.
<mgrwt>
<rscale>  0 0.70172671E+03</rscale>
<asrwt>0</asrwt>
<pdfrwt beam="1">  1        1 0.33779568E+00 0.70172671E+03</pdfrwt>
<pdfrwt beam="2">  1       -1 0.36706046E-01 0.70172671E+03</pdfrwt>
<totfact> 0.16446606E+01</totfact>
</mgrwt>
</event>
<event>
12    1  0.1444206E-007  0.7490544E+03  0.7818608E-02  0.9636835E-01
          2   -1    0    0  501    0  0.00000000000E+00  0.00000000000E+00  0.10433227811E+04  0.10433227811E+04  0.00000000000E+00 0. -1.
         -2   -1    0    0    0  501 -0.00000000000E+00 -0.00000000000E+00 -0.10075044252E+04  0.10075044252E+04  0.00000000000E+00 0.  1.
         23    2    1    2    0    0 -0.12499405663E+03  0.63033988209E+03  0.69583384318E+03  0.95146866663E+03  0.90310603524E+02 0.  0.
    5000000    2    1    2    0    0  0.12499405663E+03 -0.63033988209E+03 -0.66001548726E+03  0.10993585396E+04  0.60001406156E+03 0.  0.
         23    2    4    4    0    0  0.49684721251E+02  0.91276681743E+02 -0.17733940450E+03  0.22335799941E+03  0.87404389781E+02 0.  0.
         23    2    4    4    0    0  0.75309335375E+02 -0.72161656383E+03 -0.48267608276E+03  0.87600054022E+03  0.89435923437E+02 0.  0.
          1    1    3    3  502    0 -0.60314533649E+02  0.43432449377E+03  0.52097798367E+03  0.68095056232E+03  0.00000000000E+00 0. -1.
         -1    1    3    3    0  502 -0.64679522978E+02  0.19601538832E+03  0.17485585951E+03  0.27051810430E+03  0.00000000000E+00 0.  1.
         13    1    5    5    0    0  0.17316707988E+02  0.89897048109E+02 -0.82863398786E+02  0.12348153908E+03  0.00000000000E+00 0.  1.
        -13    1    5    5    0    0  0.32368013263E+02  0.13796336339E+01 -0.94476005718E+02  0.99876460330E+02  0.00000000000E+00 0. -1.
          4    1    6    6  503    0 -0.12748848812E+02 -0.18737291315E+03 -0.98218738114E+02  0.21193881722E+03  0.00000000000E+00 0. -1.
         -4    1    6    6    0  503  0.88058184187E+02 -0.53424365068E+03 -0.38445734464E+03  0.66406172299E+03  0.00000000000E+00 0.  1.
<mgrwt>
<rscale>  0 0.74905441E+03</rscale>
<asrwt>0</asrwt>
<pdfrwt beam="1">  1        2 0.16051120E+00 0.74905441E+03</pdfrwt>
<pdfrwt beam="2">  1       -2 0.15500068E+00 0.74905441E+03</pdfrwt>
<totfact> 0.66153550E+00</totfact>
</mgrwt>
</event>
<event>
12    1  0.1444206E-007  0.4829625E+03  0.7818608E-02  0.1018324E+00
          1   -1    0    0  501    0  0.00000000000E+00  0.00000000000E+00  0.36004125823E+03  0.36004125823E+03  0.00000000000E+00 0. -1.
         -1   -1    0    0    0  501 -0.00000000000E+00 -0.00000000000E+00 -0.84918721538E+03  0.84918721538E+03  0.00000000000E+00 0.  1.
         23    2    1    2    0    0 -0.24299356015E+03 -0.23162724345E+03 -0.37592944259E+03  0.51241029538E+03  0.92435463049E+02 0.  0.
    5000000    2    1    2    0    0  0.24299356015E+03  0.23162724345E+03 -0.11321651457E+03  0.69681817823E+03  0.60003378585E+03 0.  0.
         23    2    4    4    0    0 -0.78717076831E+02  0.28544756490E+03 -0.16937598231E+03  0.35347317803E+03  0.92619510409E+02 0.  0.
         23    2    4    4    0    0  0.32171063698E+03 -0.53820321457E+02  0.56159467741E+02  0.34334500020E+03  0.91310144009E+02 0.  0.
          3    1    3    3  502    0 -0.15465717440E+03 -0.15534754799E+03 -0.17689577870E+03  0.28168034859E+03  0.00000000000E+00 0. -1.
         -3    1    3    3    0  502 -0.88336385751E+02 -0.76279695451E+02 -0.19903366388E+03  0.23072994679E+03  0.00000000000E+00 0.  1.
         13    1    5    5    0    0  0.12288962920E+01  0.40408949527E+02  0.71681638234E+01  0.41058202111E+02  0.00000000000E+00 0. -1.
        -13    1    5    5    0    0 -0.79945973123E+02  0.24503861538E+03 -0.17654414613E+03  0.31241497592E+03  0.00000000000E+00 0.  1.
          3    1    6    6  503    0  0.62568994056E+02 -0.35736020660E+02  0.41518490165E+02  0.83160851459E+02  0.00000000000E+00 0. -1.
         -3    1    6    6    0  503  0.25914164293E+03 -0.18084300797E+02  0.14640977576E+02  0.26018414874E+03  0.00000000000E+00 0.  1.
<mgrwt>
<rscale>  0 0.48296250E+03</rscale>
<asrwt>0</asrwt>
<pdfrwt beam="1">  1        1 0.55390963E-01 0.48296250E+03</pdfrwt>
<pdfrwt beam="2">  1       -1 0.13064419E+00 0.48296250E+03</pdfrwt>
<totfact> 0.36374409E+01</totfact>
</mgrwt>
</event>
<event>
12    1  0.1444206E-007  0.7957986E+03  0.7818608E-02  0.9566118E-01
          1   -1    0    0  501    0  0.00000000000E+00  0.00000000000E+00  0.25572105561E+04  0.25572105561E+04  0.00000000000E+00 0. -1.
         -1   -1    0    0    0  501 -0.00000000000E+00 -0.00000000000E+00 -0.25538378727E+03  0.25538378727E+03  0.00000000000E+00 0.  1.
         23    2    1    2    0    0  0.60661101101E+03  0.32852275501E+03  0.11159633877E+04  0.13151911832E+04  0.91920871382E+02 0.  0.
    5000000    2    1    2    0    0 -0.60661101101E+03 -0.32852275501E+03  0.11858633812E+04  0.14974031601E+04  0.60003345402E+03 0.  0.
         23    2    4    4    0    0 -0.19286363208E+03 -0.42856952750E+03  0.63286157904E+03  0.79355619494E+03  0.91375247332E+02 0.  0.
         23    2    4    4    0    0 -0.41374737893E+03  0.10004677249E+03  0.55300180212E+03  0.70384696519E+03  0.91614993274E+02 0.  0.
          2    1    3    3  502    0  0.56183678878E+01  0.18155132159E+02  0.39893298957E+02  0.44188801557E+02  0.00000000000E+00 0.  1.
         -2    1    3    3    0  502  0.60099264312E+03  0.31036762285E+03  0.10760700887E+04  0.12710023817E+04  0.00000000000E+00 0. -1.
         13    1    5    5    0    0 -0.15676814728E+03 -0.36340686693E+03  0.46983762148E+03  0.61431929278E+03  0.00000000000E+00 0. -1.
        -13    1    5    5    0    0 -0.36095484801E+02 -0.65162660575E+02  0.16302395756E+03  0.17923690216E+03  0.00000000000E+00 0.  1.
          2    1    6    6  503    0 -0.32906819292E+03  0.73500373615E+02  0.37077896252E+03  0.50116386498E+03  0.00000000000E+00 0. -1.
         -2    1    6    6    0  503 -0.84679186011E+02  0.26546398879E+02  0.18222283960E+03  0.20268310021E+03  0.00000000000E+00 0.  1.
<mgrwt>
<rscale>  0 0.79579863E+03</rscale>
<asrwt>0</asrwt>
<pdfrwt beam="1">  1        1 0.39341699E+00 0.79579863E+03</pdfrwt>
<pdfrwt beam="2">  1       -1 0.39289815E-01 0.79579863E+03</pdfrwt>
<totfact> 0.81544159E+00</totfact>
</mgrwt>
</event>
<event>
12    1  0.1444206E-007  0.5610027E+03  0.7818608E-02  0.9989788E-01
         -1   -1    0    0    0  501 -0.00000000000E+00  0.00000000000E+00  0.13615457914E+04  0.13615457914E+04  0.00000000000E+00 0.  1.
          1   -1    0    0  501    0  0.00000000000E+00 -0.00000000000E+00 -0.46656098809E+03  0.46656098809E+03  0.00000000000E+00 0. -1.
         23    2    1    2    0    0  0.45184829121E+03 -0.15553343691E+03 -0.17026238265E+03  0.51540333416E+03  0.91070245683E+02 0.  0.
    5000000    2    1    2    0    0 -0.45184829121E+03  0.15553343691E+03  0.10652471860E+04  0.13127034453E+04  0.60006769609E+03 0.  0.
         23    2    4    4    0    0 -0.41591447931E+03  0.26628065709E+03  0.10494913893E+04  0.11635237293E+04  0.92005706411E+02 0.  0.
         23    2    4    4    0    0 -0.35933811903E+02 -0.11074722018E+03  0.15755796645E+02  0.14917971600E+03  0.91924735090E+02 0.  0.
          4    1    3    3  502    0  0.27328709154E+03 -0.72269976839E+02 -0.14207701397E+03  0.31637740414E+03  0.00000000000E+00 0. -1.
         -4    1    3    3    0  502  0.17856119967E+03 -0.83263460074E+02 -0.28185368689E+02  0.19902593002E+03  0.00000000000E+00 0.  1.
         13    1    5    5    0    0 -0.23937636442E+03  0.17468827112E+03  0.52931311224E+03  0.60662130419E+03  0.00000000000E+00 0. -1.
        -13    1    5    5    0    0 -0.17653811489E+03  0.91592385971E+02  0.52017827709E+03  0.55690242515E+03  0.00000000000E+00 0.  1.
          4    1    6    6  503    0 -0.20048790126E+02  0.11962769530E+02 -0.45639055512E+01  0.23788465150E+02  0.00000000000E+00 0. -1.
         -4    1    6    6    0  503 -0.15885021777E+02 -0.12270998971E+03  0.20319702196E+02  0.12539125085E+03  0.00000000000E+00 0.  1.
<mgrwt>
<rscale>  0 0.56100269E+03</rscale>
<asrwt>0</asrwt>
<pdfrwt beam="1">  1        1 0.71778614E-01 0.56100269E+03</pdfrwt>
<pdfrwt beam="2">  1       -1 0.20946858E+00 0.56100269E+03</pdfrwt>
<totfact> 0.67354834E+00</totfact>
</mgrwt>
</event>
<event>
12    1  0.1444206E-007  0.1369900E+04  0.7818608E-02  0.8975900E-01
         -2   -1    0    0    0  501 -0.00000000000E+00  0.00000000000E+00  0.13508163698E+04  0.13508163698E+04  0.00000000000E+00 0.  1.
          2   -1    0    0  501    0  0.00000000000E+00 -0.00000000000E+00 -0.17983710377E+04  0.17983710377E+04  0.00000000000E+00 0. -1.
         23    2    1    2    0    0  0.13225002729E+04  0.67964049906E+02  0.49442240758E+03  0.14168273253E+04  0.96540503257E+02 0.  0.
    5000000    2    1    2    0    0 -0.13225002729E+04 -0.67964049906E+02 -0.94197707546E+03  0.17323600822E+04  0.60010379081E+03 0.  0.
         23    2    4    4    0    0 -0.73981218362E+03 -0.27118824038E+03 -0.33167421435E+03  0.85974008557E+03  0.90995063200E+02 0.  0.
         23    2    4    4    0    0 -0.58268808925E+03  0.20322419047E+03 -0.61030286112E+03  0.87261999659E+03  0.90391344766E+02 0.  0.
          1    1    3    3  502    0  0.10073789795E+04  0.20817408294E+02  0.34620817634E+03  0.10654134757E+04  0.00000000000E+00 0. -1.
         -1    1    3    3    0  502  0.31512129337E+03  0.47146641613E+02  0.14821423123E+03  0.35141384960E+03  0.00000000000E+00 0.  1.
         13    1    5    5    0    0 -0.47711535157E+03 -0.14207277330E+03 -0.17462563480E+03  0.52755837965E+03  0.00000000000E+00 0.  1.
        -13    1    5    5    0    0 -0.26269683205E+03 -0.12911546708E+03 -0.15704857955E+03  0.33218170592E+03  0.00000000000E+00 0. -1.
          2    1    6    6  503    0 -0.21437783886E+03  0.31537537967E+02 -0.23141725782E+03  0.31702747722E+03  0.00000000000E+00 0. -1.
         -2    1    6    6    0  503 -0.36831025039E+03  0.17168665251E+03 -0.37888560330E+03  0.55559251937E+03  0.00000000000E+00 0.  1.
<mgrwt>
<rscale>  0 0.13698997E+04</rscale>
<asrwt>0</asrwt>
<pdfrwt beam="1">  1        2 0.27667247E+00 0.13698997E+04</pdfrwt>
<pdfrwt beam="2">  1       -2 0.20781790E+00 0.13698997E+04</pdfrwt>
<totfact> 0.97371746E-01</totfact>
</mgrwt>
</event>
<event>
12    1  0.1444206E-007  0.1253788E+04  0.7818608E-02  0.9067037E-01
          2   -1    0    0  501    0  0.00000000000E+00  0.00000000000E+00  0.10068876367E+04  0.10068876367E+04  0.00000000000E+00 0. -1.
         -2   -1    0    0    0  501 -0.00000000000E+00 -0.00000000000E+00 -0.16412012642E+04  0.16412012642E+04  0.00000000000E+00 0.  1.
         23    2    1    2    0    0  0.85095580386E+03  0.85716673206E+03 -0.17779799680E+03  0.12242576678E+04  0.91291417596E+02 0.  0.
    5000000    2    1    2    0    0 -0.85095580386E+03 -0.85716673206E+03 -0.45651563070E+03  0.14238312331E+04  0.60002356013E+03 0.  0.
         23    2    4    4    0    0 -0.85712096498E+03 -0.64082869127E+03 -0.49998296268E+03  0.11849966727E+04  0.94426644030E+02 0.  0.
         23    2    4    4    0    0  0.61651611223E+01 -0.21633804079E+03  0.43467331980E+02  0.23883456047E+03  0.91172261246E+02 0.  0.
          4    1    3    3  502    0  0.50430243077E+03  0.52522297329E+03 -0.63610818123E+02  0.73090796242E+03  0.00000000000E+00 0. -1.
         -4    1    3    3    0  502  0.34665337309E+03  0.33194375877E+03 -0.11418717867E+03  0.49334970542E+03  0.00000000000E+00 0.  1.
         11    1    5    5    0    0 -0.69026263070E+03 -0.51006903477E+03 -0.35854462399E+03  0.93015437803E+03  0.00000000000E+00 0.  1.
        -11    1    5    5    0    0 -0.16685833428E+03 -0.13075965650E+03 -0.14143833869E+03  0.25484229464E+03  0.00000000000E+00 0. -1.
          1    1    6    6  503    0  0.35703812966E+02 -0.17383899153E+03  0.11150615227E+02  0.17781758478E+03  0.00000000000E+00 0. -1.
         -1    1    6    6    0  503 -0.29538651844E+02 -0.42499049258E+02  0.32316716753E+02  0.61016975689E+02  0.00000000000E+00 0.  1.
<mgrwt>
<rscale>  0 0.12537876E+04</rscale>
<asrwt>0</asrwt>
<pdfrwt beam="1">  1        2 0.15490579E+00 0.12537876E+04</pdfrwt>
<pdfrwt beam="2">  1       -2 0.25249250E+00 0.12537876E+04</pdfrwt>
<totfact> 0.14985699E+00</totfact>
</mgrwt>
</event>
<event>
12    1  0.1444206E-007  0.1132313E+04  0.7818608E-02  0.9174257E-01
         -2   -1    0    0    0  501 -0.00000000000E+00  0.00000000000E+00  0.11841339279E+04  0.11841339279E+04  0.00000000000E+00 0.  1.
          2   -1    0    0  501    0  0.00000000000E+00 -0.00000000000E+00 -0.12737236690E+04  0.12737236690E+04  0.00000000000E+00 0. -1.
         23    2    1    2    0    0 -0.60455095977E+03 -0.92643331800E+03  0.28359848330E+03  0.11453126297E+04  0.86904339840E+02 0.  0.
    5000000    2    1    2    0    0  0.60455095977E+03  0.92643331800E+03 -0.37318822444E+03  0.13125449672E+04  0.59978686590E+03 0.  0.
         23    2    4    4    0    0  0.58268902082E+03  0.64177491913E+03 -0.47976451412E+03  0.99485333033E+03  0.90319533039E+02 0.  0.
         23    2    4    4    0    0  0.21861938947E+02  0.28465839887E+03  0.10657628967E+03  0.31769163691E+03  0.89783752554E+02 0.  0.
          2    1    3    3  502    0 -0.45327200585E+03 -0.75191255809E+03  0.24114338292E+03  0.91048236524E+03  0.00000000000E+00 0. -1.
         -2    1    3    3    0  502 -0.15127895392E+03 -0.17452075991E+03  0.42455100386E+02  0.23483026442E+03  0.00000000000E+00 0.  1.
         13    1    5    5    0    0  0.19917494587E+03  0.24635004127E+03 -0.22087587579E+03  0.38619315685E+03  0.00000000000E+00 0.  1.
        -13    1    5    5    0    0  0.38351407495E+03  0.39542487787E+03 -0.25888863833E+03  0.60866017348E+03  0.00000000000E+00 0. -1.
          3    1    6    6  503    0  0.30622584039E+02  0.26146195765E+03  0.68095154226E+02  0.27191367745E+03  0.00000000000E+00 0. -1.
         -3    1    6    6    0  503 -0.87606450923E+01  0.23196441212E+02  0.38481135447E+02  0.45777959464E+02  0.00000000000E+00 0.  1.
<mgrwt>
<rscale>  0 0.11323129E+04</rscale>
<asrwt>0</asrwt>
<pdfrwt beam="1">  1        2 0.19595749E+00 0.11323129E+04</pdfrwt>
<pdfrwt beam="2">  1       -2 0.18217445E+00 0.11323129E+04</pdfrwt>
<totfact> 0.29328826E+00</totfact>
</mgrwt>
</event>
<event>
12    1  0.1444206E-007  0.1086944E+04  0.7818608E-02  0.9218012E-01
         -2   -1    0    0    0  501 -0.00000000000E+00  0.00000000000E+00  0.14795323894E+04  0.14795323894E+04  0.00000000000E+00 0.  1.
          2   -1    0    0  501    0  0.00000000000E+00 -0.00000000000E+00 -0.15198501886E+04  0.15198501886E+04  0.00000000000E+00 0. -1.
         23    2    1    2    0    0  0.10440183190E+04 -0.23793965522E+03 -0.97946187222E+03  0.14539081154E+04  0.88959086571E+02 0.  0.
    5000000    2    1    2    0    0 -0.10440183190E+04  0.23793965522E+03  0.93914407302E+03  0.15454744625E+04  0.59992515737E+03 0.  0.
         23    2    4    4    0    0 -0.48408483979E+03 -0.23828561387E+01  0.75754449299E+03  0.90335565457E+03  0.88509715122E+02 0.  0.
         23    2    4    4    0    0 -0.55993347920E+03  0.24032251136E+03  0.18159958004E+03  0.64211880794E+03  0.89764945499E+02 0.  0.
          1    1    3    3  502    0  0.33621408584E+03 -0.11706706902E+03 -0.30575733379E+03  0.46928899128E+03  0.00000000000E+00 0. -1.
         -1    1    3    3    0  502  0.70780423316E+03 -0.12087258620E+03 -0.67370453843E+03  0.98461912417E+03  0.00000000000E+00 0.  1.
         11    1    5    5    0    0 -0.32310351822E+03  0.10856830135E+02  0.57465547635E+03  0.65935018825E+03  0.00000000000E+00 0. -1.
        -11    1    5    5    0    0 -0.16098132157E+03 -0.13239686274E+02  0.18288901663E+03  0.24400546632E+03  0.00000000000E+00 0.  1.
          3    1    6    6  503    0 -0.33730920846E+03  0.18861989095E+03  0.97365617974E+02  0.39854112578E+03  0.00000000000E+00 0. -1.
         -3    1    6    6    0  503 -0.22262427075E+03  0.51702620410E+02  0.84233962063E+02  0.24357768216E+03  0.00000000000E+00 0.  1.
<mgrwt>
<rscale>  0 0.10869438E+04</rscale>
<asrwt>0</asrwt>
<pdfrwt beam="1">  1        2 0.23382311E+00 0.10869438E+04</pdfrwt>
<pdfrwt beam="2">  1       -2 0.22762037E+00 0.10869438E+04</pdfrwt>
<totfact> 0.10773126E+00</totfact>
</mgrwt>
</event>
<event>
12    1  0.1444206E-007  0.1675580E+04  0.7818608E-02  0.8775416E-01
         -2   -1    0    0    0  501 -0.00000000000E+00  0.00000000000E+00  0.15772768855E+04  0.15772768855E+04  0.00000000000E+00 0.  1.
          2   -1    0    0  501    0  0.00000000000E+00 -0.00000000000E+00 -0.24663473624E+04  0.24663473624E+04  0.00000000000E+00 0. -1.
         23    2    1    2    0    0 -0.91890904768E+03  0.13701117470E+04  0.58380988077E+03  0.17520345770E+04  0.84800618974E+02 0.  0.
    5000000    2    1    2    0    0  0.91890904768E+03 -0.13701117470E+04 -0.14728803576E+04  0.22915896709E+04  0.60033876660E+03 0.  0.
         23    2    4    4    0    0  0.18989506058E+03 -0.60340890244E+03 -0.84029662762E+03  0.10556919121E+04  0.90689322760E+02 0.  0.
         23    2    4    4    0    0  0.72901398710E+03 -0.76670284454E+03 -0.63258373001E+03  0.12358977588E+04  0.89366937551E+02 0.  0.
          3    1    3    3  502    0 -0.39731302361E+03  0.51857357344E+03  0.23649450095E+03  0.69477034967E+03  0.00000000000E+00 0. -1.
         -3    1    3    3    0  502 -0.52159602408E+03  0.85153817354E+03  0.34731537982E+03  0.10572642273E+04  0.00000000000E+00 0.  1.
         11    1    5    5    0    0  0.60810061419E+02 -0.92607561275E+02 -0.17374287219E+03  0.20605972341E+03  0.00000000000E+00 0. -1.
        -11    1    5    5    0    0  0.12908499916E+03 -0.51080134117E+03 -0.66655375544E+03  0.84963218867E+03  0.00000000000E+00 0.  1.
          4    1    6    6  503    0  0.30228869053E+03 -0.38173610915E+03 -0.29828912673E+03  0.57103179647E+03  0.00000000000E+00 0. -1.
         -4    1    6    6    0  503  0.42672529657E+03 -0.38496673538E+03 -0.33429460328E+03  0.66486596233E+03  0.00000000000E+00 0.  1.
<mgrwt>
<rscale>  0 0.16755799E+04</rscale>
<asrwt>0</asrwt>
<pdfrwt beam="1">  1        2 0.37943806E+00 0.16755799E+04</pdfrwt>
<pdfrwt beam="2">  1       -2 0.24265798E+00 0.16755799E+04</pdfrwt>
<totfact> 0.23875894E-01</totfact>
</mgrwt>
</event>
<event>
12    1  0.1444206E-007  0.5663615E+03  0.7818608E-02  0.9977762E-01
         -2   -1    0    0    0  501 -0.00000000000E+00  0.00000000000E+00  0.27486698652E+03  0.27486698652E+03  0.00000000000E+00 0.  1.
          2   -1    0    0  501    0  0.00000000000E+00 -0.00000000000E+00 -0.16734150911E+04  0.16734150911E+04  0.00000000000E+00 0. -1.
         23    2    1    2    0    0 -0.41226677851E+03 -0.24946740714E+03 -0.20922775808E+03  0.53176681643E+03  0.82473076861E+02 0.  0.
    5000000    2    1    2    0    0  0.41226677851E+03  0.24946740714E+03 -0.11893203465E+04  0.14165152612E+04  0.59986224643E+03 0.  0.
         23    2    4    4    0    0  0.47734050371E+03  0.17499546830E+03 -0.11729429885E+04  0.12816511973E+04  0.91417542123E+02 0.  0.
         23    2    4    4    0    0 -0.65073725200E+02  0.74471938846E+02 -0.16377358005E+02  0.13486406384E+03  0.90218836576E+02 0.  0.
          4    1    3    3  502    0 -0.30540988900E+03 -0.14540019319E+03 -0.16390582274E+03  0.37587436093E+03  0.00000000000E+00 0. -1.
         -4    1    3    3    0  502 -0.10685688952E+03 -0.10406721395E+03 -0.45321935343E+02  0.15589245550E+03  0.00000000000E+00 0.  1.
         11    1    5    5    0    0  0.10622401079E+03  0.12951358968E+02 -0.32091066147E+03  0.33828232412E+03  0.00000000000E+00 0. -1.
        -11    1    5    5    0    0  0.37111649293E+03  0.16204410933E+03 -0.85203232701E+03  0.94336887322E+03  0.00000000000E+00 0.  1.
          2    1    6    6  503    0 -0.64497083072E+02  0.58930591285E+01 -0.13885415131E+02  0.66237501644E+02  0.00000000000E+00 0.  1.
         -2    1    6    6    0  503 -0.57664212762E+00  0.68578879717E+02 -0.24919428741E+01  0.68626562195E+02  0.00000000000E+00 0. -1.
<mgrwt>
<rscale>  0 0.56636155E+03</rscale>
<asrwt>0</asrwt>
<pdfrwt beam="1">  1        2 0.25744847E+00 0.56636155E+03</pdfrwt>
<pdfrwt beam="2">  1       -2 0.42287230E-01 0.56636155E+03</pdfrwt>
<totfact> 0.56340986E+01</totfact>
</mgrwt>
</event>
<event>
12    1  0.1444206E-007  0.7201893E+03  0.7818608E-02  0.9683315E-01
         -2   -1    0    0    0  501 -0.00000000000E+00  0.00000000000E+00  0.40502790552E+03  0.40502790552E+03  0.00000000000E+00 0.  1.
          2   -1    0    0  501    0  0.00000000000E+00 -0.00000000000E+00 -0.14379254659E+04  0.14379254659E+04  0.00000000000E+00 0. -1.
         23    2    1    2    0    0 -0.46949663384E+03  0.43370626457E+03 -0.37447091149E+03  0.74655667886E+03  0.92683321474E+02 0.  0.
    5000000    2    1    2    0    0  0.46949663384E+03 -0.43370626457E+03 -0.65842664890E+03  0.10963966926E+04  0.60002653476E+03 0.  0.
         23    2    4    4    0    0  0.13968455939E+03 -0.43969992757E+03 -0.57768512314E+03  0.74480767090E+03  0.90391164919E+02 0.  0.
         23    2    4    4    0    0  0.32981207445E+03  0.59936629958E+01 -0.80741525760E+02  0.35158902169E+03  0.91014931405E+02 0.  0.
          1    1    3    3  502    0 -0.24138344133E+03  0.28055167492E+03 -0.23524129083E+03  0.43853582860E+03  0.00000000000E+00 0. -1.
         -1    1    3    3    0  502 -0.22811319251E+03  0.15315458965E+03 -0.13922962065E+03  0.30802085026E+03  0.00000000000E+00 0.  1.
         13    1    5    5    0    0  0.60697886378E+02 -0.20636589592E+03 -0.19894131813E+03  0.29299959807E+03  0.00000000000E+00 0.  1.
        -13    1    5    5    0    0  0.78986673010E+02 -0.23333403164E+03 -0.37874380501E+03  0.45180807282E+03  0.00000000000E+00 0. -1.
          3    1    6    6  503    0  0.23721633260E+03 -0.19538998308E+02 -0.91362958639E+02  0.25495205651E+03  0.00000000000E+00 0.  1.
         -3    1    6    6    0  503  0.92595741856E+02  0.25532661304E+02  0.10621432879E+02  0.96636965181E+02  0.00000000000E+00 0. -1.
<mgrwt>
<rscale>  0 0.72018927E+03</rscale>
<asrwt>0</asrwt>
<pdfrwt beam="1">  1        2 0.22121930E+00 0.72018927E+03</pdfrwt>
<pdfrwt beam="2">  1       -2 0.62311985E-01 0.72018927E+03</pdfrwt>
<totfact> 0.33737024E+01</totfact>
</mgrwt>
</event>
<event>
12    1  0.1444206E-007  0.7448681E+03  0.7818608E-02  0.9643436E-01
          1   -1    0    0  501    0  0.00000000000E+00  0.00000000000E+00  0.69320108493E+03  0.69320108493E+03  0.00000000000E+00 0. -1.
         -1   -1    0    0    0  501 -0.00000000000E+00 -0.00000000000E+00 -0.10190541137E+04  0.10190541137E+04  0.00000000000E+00 0.  1.
         23    2    1    2    0    0 -0.45826609205E+03 -0.44508878204E+03 -0.50285551831E+03  0.81811838273E+03  0.91335539917E+02 0.  0.
    5000000    2    1    2    0    0  0.45826609205E+03  0.44508878204E+03  0.17700248955E+03  0.89413681588E+03  0.60003244012E+03 0.  0.
         23    2    4    4    0    0  0.36153671839E+03  0.57642923188E+03  0.11020212777E+03  0.69538006855E+03  0.91812159623E+02 0.  0.
         23    2    4    4    0    0  0.96729373657E+02 -0.13134044984E+03  0.66800361775E+02  0.19875674734E+03  0.91842641442E+02 0.  0.
          2    1    3    3  502    0 -0.17728847638E+03 -0.22573915486E+03 -0.25513309551E+03  0.38403419941E+03  0.00000000000E+00 0. -1.
         -2    1    3    3    0  502 -0.28097761567E+03 -0.21934962718E+03 -0.24772242280E+03  0.43408418332E+03  0.00000000000E+00 0.  1.
         11    1    5    5    0    0  0.29332869192E+03  0.41943940437E+03  0.11314457908E+03  0.52418778240E+03  0.00000000000E+00 0.  1.
        -11    1    5    5    0    0  0.68208026476E+02  0.15698982751E+03 -0.29424513066E+01  0.17119228615E+03  0.00000000000E+00 0. -1.
          4    1    6    6  503    0  0.72891442894E+02 -0.94135384416E+02  0.47243574319E+00  0.11905820527E+03  0.00000000000E+00 0. -1.
         -4    1    6    6    0  503  0.23837930763E+02 -0.37205065424E+02  0.66327926032E+02  0.79698542069E+02  0.00000000000E+00 0.  1.
<mgrwt>
<rscale>  0 0.74486806E+03</rscale>
<asrwt>0</asrwt>
<pdfrwt beam="1">  1        1 0.10664632E+00 0.74486806E+03</pdfrwt>
<pdfrwt beam="2">  1       -1 0.15677756E+00 0.74486806E+03</pdfrwt>
<totfact> 0.88269076E+00</totfact>
</mgrwt>
</event>
<event>
12    1  0.1444206E-007  0.8488913E+03  0.7818608E-02  0.9491826E-01
          2   -1    0    0  501    0  0.00000000000E+00  0.00000000000E+00  0.38731608078E+04  0.38731608078E+04  0.00000000000E+00 0. -1.
         -2   -1    0    0    0  501 -0.00000000000E+00 -0.00000000000E+00 -0.24393298265E+03  0.24393298265E+03  0.00000000000E+00 0.  1.
         23    2    1    2    0    0 -0.22652558160E+03 -0.73782192883E+03  0.25269096719E+04  0.26437018680E+04  0.90509885071E+02 0.  0.
    5000000    2    1    2    0    0  0.22652558160E+03  0.73782192883E+03  0.11023181533E+04  0.14733919225E+04  0.60006950291E+03 0.  0.
         23    2    4    4    0    0  0.36752138730E+03  0.63782946297E+03  0.67115711097E+03  0.10003537238E+04  0.91418330206E+02 0.  0.
         23    2    4    4    0    0 -0.14099580570E+03  0.99992465867E+02  0.43116104233E+03  0.47303819870E+03  0.89369919749E+02 0.  0.
          3    1    3    3  502    0 -0.13056750908E+03 -0.29687914083E+03  0.97605246368E+03  0.10285249197E+04  0.00000000000E+00 0. -1.
         -3    1    3    3    0  502 -0.95958072529E+02 -0.44094278800E+03  0.15508572082E+04  0.16151769482E+04  0.00000000000E+00 0.  1.
         11    1    5    5    0    0  0.13553346516E+03  0.32667078464E+03  0.31984344358E+03  0.47684688330E+03  0.00000000000E+00 0.  1.
        -11    1    5    5    0    0  0.23198792214E+03  0.31115867833E+03  0.35131366739E+03  0.52350684047E+03  0.00000000000E+00 0. -1.
          1    1    6    6  503    0 -0.10936234336E+03  0.47751794731E+02  0.19083797680E+03  0.22507663014E+03  0.00000000000E+00 0. -1.
         -1    1    6    6    0  503 -0.31633462337E+02  0.52240671136E+02  0.24032306552E+03  0.24796156856E+03  0.00000000000E+00 0.  1.
<mgrwt>
<rscale>  0 0.84889134E+03</rscale>
<asrwt>0</asrwt>
<pdfrwt beam="1">  1        2 0.59587085E+00 0.84889134E+03</pdfrwt>
<pdfrwt beam="2">  1       -2 0.37528154E-01 0.84889134E+03</pdfrwt>
<totfact> 0.31165190E+00</totfact>
</mgrwt>
</event>
<event>
12    1  0.1444206E-007  0.5662692E+03  0.7818608E-02  0.9977969E-01
          1   -1    0    0  501    0  0.00000000000E+00  0.00000000000E+00  0.10683390165E+04  0.10683390165E+04  0.00000000000E+00 0. -1.
         -1   -1    0    0    0  501 -0.00000000000E+00 -0.00000000000E+00 -0.47142179416E+03  0.47142179416E+03  0.00000000000E+00 0.  1.
         23    2    1    2    0    0  0.27606644193E+02 -0.51095100543E+03 -0.46919881436E+02  0.52175414567E+03  0.90514399403E+02 0.  0.
    5000000    2    1    2    0    0 -0.27606644193E+02  0.51095100543E+03  0.64383710378E+03  0.10180066650E+04  0.59998191390E+03 0.  0.
         23    2    4    4    0    0 -0.17826149390E+03  0.25256716665E+03  0.24053751730E+02  0.32336836616E+03  0.91767005968E+02 0.  0.
         23    2    4    4    0    0  0.15065484970E+03  0.25838383878E+03  0.61978335205E+03  0.69463829883E+03  0.94508575476E+02 0.  0.
          2    1    3    3  502    0  0.89692287367E+01 -0.26978467285E+03 -0.69732591660E+02  0.27879535705E+03  0.00000000000E+00 0.  1.
         -2    1    3    3    0  502  0.18637415457E+02 -0.24116633257E+03  0.22812710224E+02  0.24295878862E+03  0.00000000000E+00 0. -1.
         13    1    5    5    0    0 -0.11699351433E+03  0.22447109858E+03  0.33387297869E+02  0.25532228292E+03  0.00000000000E+00 0. -1.
        -13    1    5    5    0    0 -0.61267979570E+02  0.28096068066E+02 -0.93335461386E+01  0.68046083244E+02  0.00000000000E+00 0.  1.
          4    1    6    6  503    0  0.35814188240E+02  0.84797682607E+02  0.10654097975E+03  0.14079873374E+03  0.00000000000E+00 0. -1.
         -4    1    6    6    0  503  0.11484066146E+03  0.17358615617E+03  0.51324237230E+03  0.55383956509E+03  0.00000000000E+00 0.  1.
<mgrwt>
<rscale>  0 0.56626919E+03</rscale>
<asrwt>0</asrwt>
<pdfrwt beam="1">  1        1 0.16435985E+00 0.56626919E+03</pdfrwt>
<pdfrwt beam="2">  1       -1 0.72526430E-01 0.56626919E+03</pdfrwt>
<totfact> 0.27074993E+01</totfact>
</mgrwt>
</event>
<event>
12    1  0.1444206E-007  0.9260019E+03  0.7818608E-02  0.9393649E-01
          1   -1    0    0  501    0  0.00000000000E+00  0.00000000000E+00  0.26407806611E+04  0.26407806611E+04  0.00000000000E+00 0. -1.
         -1   -1    0    0    0  501 -0.00000000000E+00 -0.00000000000E+00 -0.41353974028E+03  0.41353974028E+03  0.00000000000E+00 0.  1.
         23    2    1    2    0    0 -0.85593799492E+03  0.33146566860E+03  0.14172559525E+04  0.16910172268E+04  0.91790445936E+02 0.  0.
    5000000    2    1    2    0    0  0.85593799492E+03 -0.33146566860E+03  0.80998496837E+03  0.13633031746E+04  0.60001712993E+03 0.  0.
         23    2    4    4    0    0  0.33070810796E+03 -0.13921308506E+03 -0.66664689490E+01  0.36927665250E+03  0.87021081065E+02 0.  0.
         23    2    4    4    0    0  0.52522988697E+03 -0.19225258354E+03  0.81665143732E+03  0.99402652208E+03  0.91332724036E+02 0.  0.
          3    1    3    3  502    0 -0.49788918230E+03  0.24090619146E+03  0.84391594291E+03  0.10090210848E+04  0.00000000000E+00 0. -1.
         -3    1    3    3    0  502 -0.35804881263E+03  0.90559477136E+02  0.57334000956E+03  0.68199614198E+03  0.00000000000E+00 0.  1.
         13    1    5    5    0    0  0.83542394120E+02 -0.16631908823E+01 -0.20638041419E+02  0.86069893533E+02  0.00000000000E+00 0.  1.
        -13    1    5    5    0    0  0.24716571384E+03 -0.13754989418E+03  0.13971572470E+02  0.28320675896E+03  0.00000000000E+00 0. -1.
          3    1    6    6  503    0  0.19273290411E+03 -0.10462795670E+03  0.37347084052E+03  0.43309750676E+03  0.00000000000E+00 0. -1.
         -3    1    6    6    0  503  0.33249698286E+03 -0.87624626837E+02  0.44318059680E+03  0.56092901531E+03  0.00000000000E+00 0.  1.
<mgrwt>
<rscale>  0 0.92600190E+03</rscale>
<asrwt>0</asrwt>
<pdfrwt beam="1">  1        1 0.40627394E+00 0.92600190E+03</pdfrwt>
<pdfrwt beam="2">  1       -1 0.63621500E-01 0.92600190E+03</pdfrwt>
<totfact> 0.27953074E+00</totfact>
</mgrwt>
</event>
<event>
12    1  0.1444206E-007  0.1018477E+04  0.7818608E-02  0.9288509E-01
          1   -1    0    0  501    0  0.00000000000E+00  0.00000000000E+00  0.86856665838E+03  0.86856665838E+03  0.00000000000E+00 0. -1.
         -1   -1    0    0    0  501 -0.00000000000E+00 -0.00000000000E+00 -0.12689873101E+04  0.12689873101E+04  0.00000000000E+00 0.  1.
         23    2    1    2    0    0  0.95453021718E+03  0.11902060339E+03 -0.17499945329E+03  0.98165615876E+03  0.87921361680E+02 0.  0.
    5000000    2    1    2    0    0 -0.95453021718E+03 -0.11902060339E+03 -0.22542119847E+03  0.11558978098E+04  0.59999265857E+03 0.  0.
         23    2    4    4    0    0 -0.20391826683E+03 -0.22952029006E+03 -0.22624642291E+03  0.39152912946E+03  0.88574218808E+02 0.  0.
         23    2    4    4    0    0 -0.75061195035E+03  0.11049968667E+03  0.82522444699E+00  0.76436868030E+03  0.92899503025E+02 0.  0.
          2    1    3    3  502    0  0.63017996364E+03  0.39236992499E+02 -0.12963656728E+03  0.64457115024E+03  0.00000000000E+00 0. -1.
         -2    1    3    3    0  502  0.32435025354E+03  0.79783610891E+02 -0.45362886019E+02  0.33708500852E+03  0.00000000000E+00 0.  1.
         13    1    5    5    0    0 -0.11861397745E+03 -0.14124423249E+03 -0.18698572128E+03  0.26264590007E+03  0.00000000000E+00 0.  1.
        -13    1    5    5    0    0 -0.85304289380E+02 -0.88276057567E+02 -0.39260701635E+02  0.12888322939E+03  0.00000000000E+00 0. -1.
          2    1    6    6  503    0 -0.57939818897E+03  0.45444525917E+02  0.37057487439E+01  0.58118946902E+03  0.00000000000E+00 0. -1.
         -2    1    6    6    0  503 -0.17121376138E+03  0.65055160756E+02 -0.28805242969E+01  0.18317921128E+03  0.00000000000E+00 0.  1.
<mgrwt>
<rscale>  0 0.10184770E+04</rscale>
<asrwt>0</asrwt>
<pdfrwt beam="1">  1        1 0.13362564E+00 0.10184770E+04</pdfrwt>
<pdfrwt beam="2">  1       -1 0.19522882E+00 0.10184770E+04</pdfrwt>
<totfact> 0.31430472E+00</totfact>
</mgrwt>
</event>
<event>
12    1  0.1444206E-007  0.1308327E+04  0.7818608E-02  0.9022988E-01
         -2   -1    0    0    0  501 -0.00000000000E+00  0.00000000000E+00  0.17459495030E+04  0.17459495030E+04  0.00000000000E+00 0.  1.
          2   -1    0    0  501    0  0.00000000000E+00 -0.00000000000E+00 -0.10332220830E+04  0.10332220830E+04  0.00000000000E+00 0. -1.
         23    2    1    2    0    0 -0.17873210234E+03 -0.12584392892E+04  0.43416852624E+03  0.13462562407E+04  0.91043656881E+02 0.  0.
    5000000    2    1    2    0    0  0.17873210234E+03  0.12584392892E+04  0.27855889381E+03  0.14329153453E+04  0.60003059960E+03 0.  0.
         23    2    4    4    0    0 -0.13538931075E+03  0.22478191845E+03  0.20605685836E+03  0.34626708091E+03  0.92651422636E+02 0.  0.
         23    2    4    4    0    0  0.31412141310E+03  0.10336573707E+04  0.72502035450E+02  0.10866482644E+04  0.91804591806E+02 0.  0.
          3    1    3    3  502    0 -0.49571722451E+02 -0.18328854754E+03  0.41317328261E+02  0.19431718643E+03  0.00000000000E+00 0. -1.
         -3    1    3    3    0  502 -0.12916037989E+03 -0.10751507416E+04  0.39285119798E+03  0.11519390543E+04  0.00000000000E+00 0.  1.
         13    1    5    5    0    0 -0.10073766719E+03  0.15327787265E+03  0.86690591195E+02  0.20287297118E+03  0.00000000000E+00 0.  1.
        -13    1    5    5    0    0 -0.34651643565E+02  0.71504045800E+02  0.11936626717E+03  0.14339410973E+03  0.00000000000E+00 0. -1.
          2    1    6    6  503    0  0.12446623397E+03  0.47570261499E+03  0.74565671264E+02  0.49733777319E+03  0.00000000000E+00 0. -1.
         -2    1    6    6    0  503  0.18965517913E+03  0.55795475575E+03 -0.20636358141E+01  0.58931049119E+03  0.00000000000E+00 0.  1.
<mgrwt>
<rscale>  0 0.13083270E+04</rscale>
<asrwt>0</asrwt>
<pdfrwt beam="1">  1        2 0.15895724E+00 0.13083270E+04</pdfrwt>
<pdfrwt beam="2">  1       -2 0.26860762E+00 0.13083270E+04</pdfrwt>
<totfact> 0.11429838E+00</totfact>
</mgrwt>
</event>
<event>
12    1  0.1444206E-007  0.7332937E+03  0.7818608E-02  0.9661931E-01
          2   -1    0    0  501    0  0.00000000000E+00  0.00000000000E+00  0.11237137200E+04  0.11237137200E+04  0.00000000000E+00 0. -1.
         -2   -1    0    0    0  501 -0.00000000000E+00 -0.00000000000E+00 -0.65217750832E+03  0.65217750832E+03  0.00000000000E+00 0.  1.
         23    2    1    2    0    0  0.44768125312E+03  0.43559460743E+03  0.63386877565E+03  0.89460332944E+03  0.91456688531E+02 0.  0.
    5000000    2    1    2    0    0 -0.44768125312E+03 -0.43559460743E+03 -0.16233256399E+03  0.88128789887E+03  0.60012943017E+03 0.  0.
         23    2    4    4    0    0 -0.45363014833E+03 -0.53973910135E+03 -0.19637342194E+03  0.73765631543E+03  0.92063618465E+02 0.  0.
         23    2    4    4    0    0  0.59488952160E+01  0.10414449392E+03  0.34040857951E+02  0.14363158344E+03  0.92681102629E+02 0.  0.
          1    1    3    3  502    0  0.25744622654E+03  0.19266972381E+03  0.29610324489E+03  0.43712391111E+03  0.00000000000E+00 0. -1.
         -1    1    3    3    0  502  0.19023502658E+03  0.24292488362E+03  0.33776553077E+03  0.45747941833E+03  0.00000000000E+00 0.  1.
         13    1    5    5    0    0 -0.21997240756E+03 -0.22216987177E+03 -0.47571210149E+02  0.31624410200E+03  0.00000000000E+00 0. -1.
        -13    1    5    5    0    0 -0.23365774077E+03 -0.31756922957E+03 -0.14880221179E+03  0.42141221343E+03  0.00000000000E+00 0.  1.
          1    1    6    6  503    0 -0.24788423469E+02  0.43754951106E+01  0.29993856880E+02  0.39156638596E+02  0.00000000000E+00 0. -1.
         -1    1    6    6    0  503  0.30737318685E+02  0.99768998809E+02  0.40470010705E+01  0.10447494485E+03  0.00000000000E+00 0.  1.
<mgrwt>
<rscale>  0 0.73329371E+03</rscale>
<asrwt>0</asrwt>
<pdfrwt beam="1">  1        2 0.17287903E+00 0.73329371E+03</pdfrwt>
<pdfrwt beam="2">  1       -2 0.10033500E+00 0.73329371E+03</pdfrwt>
<totfact> 0.17609913E+01</totfact>
</mgrwt>
</event>
<event>
12    1  0.1444206E-007  0.1442082E+04  0.7818608E-02  0.8923908E-01
          2   -1    0    0  501    0  0.00000000000E+00  0.00000000000E+00  0.17136756990E+04  0.17136756990E+04  0.00000000000E+00 0. -1.
         -2   -1    0    0    0  501 -0.00000000000E+00 -0.00000000000E+00 -0.12959282695E+04  0.12959282695E+04  0.00000000000E+00 0.  1.
         23    2    1    2    0    0 -0.40867278696E+03  0.13634570961E+04  0.32036329259E+03  0.14618758047E+04  0.91757994038E+02 0.  0.
    5000000    2    1    2    0    0  0.40867278696E+03 -0.13634570961E+04  0.97384136959E+02  0.15477281638E+04  0.59995841453E+03 0.  0.
         23    2    4    4    0    0  0.11225052764E+03 -0.83006054557E+03 -0.19556890787E+03  0.86475137535E+03  0.89146245979E+02 0.  0.
         23    2    4    4    0    0  0.29642225932E+03 -0.53339655055E+03  0.29295304483E+03  0.68297678847E+03  0.90872279348E+02 0.  0.
          2    1    3    3  502    0 -0.29982817940E+03  0.11235766611E+04  0.25764466110E+03  0.11910928687E+04  0.00000000000E+00 0. -1.
         -2    1    3    3    0  502 -0.10884460756E+03  0.23988043506E+03  0.62718631488E+02  0.27078293604E+03  0.00000000000E+00 0.  1.
         13    1    5    5    0    0  0.10673961137E+03 -0.47869028643E+03 -0.12840828678E+03  0.50697773429E+03  0.00000000000E+00 0.  1.
        -13    1    5    5    0    0  0.55109162723E+01 -0.35137025914E+03 -0.67160621090E+02  0.35777364105E+03  0.00000000000E+00 0. -1.
          3    1    6    6  503    0  0.10004728687E+03 -0.26630882848E+03  0.11629174175E+03  0.30733307817E+03  0.00000000000E+00 0. -1.
         -3    1    6    6    0  503  0.19637497244E+03 -0.26708772207E+03  0.17666130307E+03  0.37564371030E+03  0.00000000000E+00 0.  1.
<mgrwt>
<rscale>  0 0.14420824E+04</rscale>
<asrwt>0</asrwt>
<pdfrwt beam="1">  1        2 0.26364242E+00 0.14420824E+04</pdfrwt>
<pdfrwt beam="2">  1       -2 0.19937358E+00 0.14420824E+04</pdfrwt>
<totfact> 0.12237844E+00</totfact>
</mgrwt>
</event>
<event>
12    1  0.1444206E-007  0.9692851E+03  0.7818608E-02  0.9342889E-01
          1   -1    0    0  501    0  0.00000000000E+00  0.00000000000E+00  0.11745859674E+04  0.11745859674E+04  0.00000000000E+00 0. -1.
         -1   -1    0    0    0  501 -0.00000000000E+00 -0.00000000000E+00 -0.83136929920E+03  0.83136929920E+03  0.00000000000E+00 0.  1.
         23    2    1    2    0    0  0.46445349222E+03 -0.76242019262E+03  0.21486160970E+03  0.92266940323E+03  0.90286874918E+02 0.  0.
    5000000    2    1    2    0    0 -0.46445349222E+03  0.76242019262E+03  0.12835505850E+03  0.10832858634E+04  0.60002636959E+03 0.  0.
         23    2    4    4    0    0 -0.62252448420E+02 -0.80279902931E+02  0.23771776825E+02  0.13948832146E+03  0.92583283048E+02 0.  0.
         23    2    4    4    0    0 -0.40220104380E+03  0.84270009555E+03  0.10458328168E+03  0.94379754192E+03  0.88921351008E+02 0.  0.
          4    1    3    3  502    0  0.22105269538E+03 -0.27895428184E+03  0.78399956599E+02  0.36445347945E+03  0.00000000000E+00 0.  1.
         -4    1    3    3    0  502  0.24340079684E+03 -0.48346591078E+03  0.13646165310E+03  0.55821592377E+03  0.00000000000E+00 0. -1.
         11    1    5    5    0    0 -0.64226818077E+00 -0.96049880825E+01 -0.29929368923E+02  0.31439392943E+02  0.00000000000E+00 0. -1.
        -11    1    5    5    0    0 -0.61610180239E+02 -0.70674914849E+02  0.53701145748E+02  0.10804892851E+03  0.00000000000E+00 0.  1.
          1    1    6    6  503    0 -0.19540227831E+03  0.51116320117E+03  0.60431831877E+02  0.55056505057E+03  0.00000000000E+00 0.  1.
         -1    1    6    6    0  503 -0.20679876548E+03  0.33153689438E+03  0.44151449802E+02  0.39323249136E+03  0.00000000000E+00 0. -1.
<mgrwt>
<rscale>  0 0.96928509E+03</rscale>
<asrwt>0</asrwt>
<pdfrwt beam="1">  1        1 0.18070553E+00 0.96928509E+03</pdfrwt>
<pdfrwt beam="2">  1       -1 0.12790297E+00 0.96928509E+03</pdfrwt>
<totfact> 0.59339386E+00</totfact>
</mgrwt>
</event>
<event>
12    1  0.1444206E-007  0.4972232E+03  0.7818608E-02  0.1014506E+00
          2   -1    0    0  501    0  0.00000000000E+00  0.00000000000E+00  0.36932316319E+04  0.36932316319E+04  0.00000000000E+00 0. -1.
         -2   -1    0    0    0  501 -0.00000000000E+00 -0.00000000000E+00 -0.10530260675E+03  0.10530260675E+03  0.00000000000E+00 0.  1.
         23    2    1    2    0    0  0.46396682472E+03  0.86101423178E+02  0.12607476236E+04  0.13492831824E+04  0.91661695130E+02 0.  0.
    5000000    2    1    2    0    0 -0.46396682472E+03 -0.86101423178E+02  0.23271814015E+04  0.24492510562E+04  0.60031557649E+03 0.  0.
         23    2    4    4    0    0 -0.21232474650E+03  0.65053961207E+02  0.19438119771E+04  0.19585230971E+04  0.89966125132E+02 0.  0.
         23    2    4    4    0    0 -0.25164207821E+03 -0.15115538439E+03  0.38336942442E+03  0.49072795914E+03  0.87579270084E+02 0.  0.
          1    1    3    3  502    0  0.20186236494E+03  0.40075324399E+02  0.68014946401E+03  0.71060378509E+03  0.00000000000E+00 0. -1.
         -1    1    3    3    0  502  0.26210445978E+03  0.46026098779E+02  0.58059815963E+03  0.63867939732E+03  0.00000000000E+00 0.  1.
         13    1    5    5    0    0 -0.74865622555E+02  0.28585727360E+02  0.10905807483E+04  0.10935210898E+04  0.00000000000E+00 0. -1.
        -13    1    5    5    0    0 -0.13745912395E+03  0.36468233847E+02  0.85323122881E+03  0.86500200732E+03  0.00000000000E+00 0.  1.
          4    1    6    6  503    0 -0.65755224773E+02 -0.94351577022E+01  0.48086704092E+02  0.82006724701E+02  0.00000000000E+00 0.  1.
         -4    1    6    6    0  503 -0.18588685344E+03 -0.14172022668E+03  0.33528272033E+03  0.40872123444E+03  0.00000000000E+00 0. -1.
<mgrwt>
<rscale>  0 0.49722315E+03</rscale>
<asrwt>0</asrwt>
<pdfrwt beam="1">  1        2 0.56818938E+00 0.49722315E+03</pdfrwt>
<pdfrwt beam="2">  1       -2 0.16200404E-01 0.49722315E+03</pdfrwt>
<totfact> 0.20832048E+01</totfact>
</mgrwt>
</event>
<event>
12    1  0.1444206E-007  0.1232076E+04  0.7818608E-02  0.9085235E-01
         -2   -1    0    0    0  501 -0.00000000000E+00  0.00000000000E+00  0.96631683111E+03  0.96631683111E+03  0.00000000000E+00 0.  1.
          2   -1    0    0  501    0  0.00000000000E+00 -0.00000000000E+00 -0.16015584663E+04  0.16015584663E+04  0.00000000000E+00 0. -1.
         23    2    1    2    0    0  0.11670003700E+04 -0.71403753202E+02 -0.26068886380E+03  0.12013733888E+04  0.91383674699E+02 0.  0.
    5000000    2    1    2    0    0 -0.11670003700E+04  0.71403753202E+02 -0.37455277138E+03  0.13665019086E+04  0.60004110545E+03 0.  0.
         23    2    4    4    0    0 -0.47671772266E+02  0.15560832267E+03 -0.34224041030E+02  0.18924856060E+03  0.90317134296E+02 0.  0.
         23    2    4    4    0    0 -0.11193285977E+04 -0.84204569469E+02 -0.34032873035E+03  0.11772533480E+04  0.10057276752E+03 0.  0.
          1    1    3    3  502    0  0.95265383140E+03 -0.37938409171E+02 -0.24190065352E+03  0.98361810249E+03  0.00000000000E+00 0. -1.
         -1    1    3    3    0  502  0.21434653859E+03 -0.33465344032E+02 -0.18788210281E+02  0.21775528628E+03  0.00000000000E+00 0.  1.
         13    1    5    5    0    0  0.79392876648E+01  0.60436757305E+02 -0.48769873131E+02  0.78064937375E+02  0.00000000000E+00 0.  1.
        -13    1    5    5    0    0 -0.55611059930E+02  0.95171565367E+02  0.14545832101E+02  0.11118362322E+03  0.00000000000E+00 0. -1.
          1    1    6    6  503    0 -0.57765945654E+03 -0.35081412725E+02 -0.22717758021E+03  0.62171601732E+03  0.00000000000E+00 0. -1.
         -1    1    6    6    0  503 -0.54166914119E+03 -0.49123156744E+02 -0.11315115015E+03  0.55553733072E+03  0.00000000000E+00 0.  1.
<mgrwt>
<rscale>  0 0.12320760E+04</rscale>
<asrwt>0</asrwt>
<pdfrwt beam="1">  1        2 0.24639361E+00 0.12320760E+04</pdfrwt>
<pdfrwt beam="2">  1       -2 0.14866413E+00 0.12320760E+04</pdfrwt>
<totfact> 0.33090226E+00</totfact>
</mgrwt>
</event>
<event>
12    1  0.1444206E-007  0.9161280E+03  0.7818608E-02  0.9405642E-01
         -1   -1    0    0    0  501 -0.00000000000E+00  0.00000000000E+00  0.87936804874E+03  0.87936804874E+03  0.00000000000E+00 0.  1.
          1   -1    0    0  501    0  0.00000000000E+00 -0.00000000000E+00 -0.11560840465E+04  0.11560840465E+04  0.00000000000E+00 0. -1.
         23    2    1    2    0    0  0.28379134573E+03 -0.84082776663E+03 -0.35748512022E+03  0.96117470875E+03  0.92370712499E+02 0.  0.
    5000000    2    1    2    0    0 -0.28379134573E+03  0.84082776663E+03  0.80769122431E+02  0.10742773865E+04  0.60001615893E+03 0.  0.
         23    2    4    4    0    0 -0.24947920256E+03  0.26464233616E+03  0.26744423928E+03  0.46050284128E+03  0.90890082540E+02 0.  0.
         23    2    4    4    0    0 -0.34312143172E+02  0.57618543047E+03 -0.18667511685E+03  0.61377454523E+03  0.93298551253E+02 0.  0.
          1    1    3    3  502    0  0.19819973106E+02 -0.11061858944E+03 -0.74141221905E+02  0.13463366759E+03  0.00000000000E+00 0. -1.
         -1    1    3    3    0  502  0.26397137263E+03 -0.73020917719E+03 -0.28334389831E+03  0.82654104116E+03  0.00000000000E+00 0.  1.
         13    1    5    5    0    0 -0.99740612523E+02  0.12741571999E+03  0.66974634283E+02  0.17512440471E+03  0.00000000000E+00 0. -1.
        -13    1    5    5    0    0 -0.14973859004E+03  0.13722661617E+03  0.20046960500E+03  0.28537843657E+03  0.00000000000E+00 0.  1.
          1    1    6    6  503    0 -0.22862489379E+02  0.54130293512E+03 -0.15065549383E+03  0.56234210122E+03  0.00000000000E+00 0. -1.
         -1    1    6    6    0  503 -0.11449653792E+02  0.34882495351E+02 -0.36019623018E+02  0.51432444004E+02  0.00000000000E+00 0.  1.
<mgrwt>
<rscale>  0 0.91612805E+03</rscale>
<asrwt>0</asrwt>
<pdfrwt beam="1">  1        1 0.17785908E+00 0.91612805E+03</pdfrwt>
<pdfrwt beam="2">  1       -1 0.13528739E+00 0.91612805E+03</pdfrwt>
<totfact> 0.53442957E+00</totfact>
</mgrwt>
</event>
<event>
12    1  0.1444206E-007  0.5926226E+03  0.7818608E-02  0.9920831E-01
          2   -1    0    0  501    0  0.00000000000E+00  0.00000000000E+00  0.54874424272E+03  0.54874424272E+03  0.00000000000E+00 0.  1.
         -2   -1    0    0    0  501 -0.00000000000E+00 -0.00000000000E+00 -0.17673658857E+04  0.17673658857E+04  0.00000000000E+00 0. -1.
         23    2    1    2    0    0  0.37615082343E+03 -0.30639528305E+03  0.32437381745E+03  0.59091871966E+03  0.92731053879E+02 0.  0.
    5000000    2    1    2    0    0 -0.37615082343E+03  0.30639528305E+03 -0.15429954604E+04  0.17251914088E+04  0.60006907481E+03 0.  0.
         23    2    4    4    0    0 -0.44277157951E+03  0.35938103105E+03 -0.89540430032E+03  0.10655111480E+04  0.91453531384E+02 0.  0.
         23    2    4    4    0    0  0.66620756077E+02 -0.52985748009E+02 -0.64759116013E+03  0.65968026077E+03  0.92509032775E+02 0.  0.
          1    1    3    3  502    0  0.14400887825E+03 -0.15730416714E+03  0.10120209696E+03  0.23606148022E+03  0.00000000000E+00 0. -1.
         -1    1    3    3    0  502  0.23214194518E+03 -0.14909111590E+03  0.22317172049E+03  0.35485723944E+03  0.00000000000E+00 0.  1.
         11    1    5    5    0    0 -0.10589986216E+03  0.79992699051E+02 -0.28538971602E+03  0.31473942034E+03  0.00000000000E+00 0.  1.
        -11    1    5    5    0    0 -0.33687171735E+03  0.27938833200E+03 -0.61001458430E+03  0.75077172767E+03  0.00000000000E+00 0. -1.
          3    1    6    6  503    0  0.49483182595E+02  0.18024662227E+02 -0.27136638280E+03  0.27642935358E+03  0.00000000000E+00 0. -1.
         -3    1    6    6    0  503  0.17137573483E+02 -0.71010410236E+02 -0.37622477733E+03  0.38325090719E+03  0.00000000000E+00 0.  1.
<mgrwt>
<rscale>  0 0.59262263E+03</rscale>
<asrwt>0</asrwt>
<pdfrwt beam="1">  1        2 0.84422193E-01 0.59262263E+03</pdfrwt>
<pdfrwt beam="2">  1       -2 0.27190244E+00 0.59262263E+03</pdfrwt>
<totfact> 0.27670741E+00</totfact>
</mgrwt>
</event>
<event>
12    1  0.1444206E-007  0.8565306E+03  0.7818608E-02  0.9481613E-01
         -2   -1    0    0    0  501 -0.00000000000E+00  0.00000000000E+00  0.16619903745E+04  0.16619903745E+04  0.00000000000E+00 0.  1.
          2   -1    0    0  501    0  0.00000000000E+00 -0.00000000000E+00 -0.58058696499E+03  0.58058696499E+03  0.00000000000E+00 0. -1.
         23    2    1    2    0    0  0.14243725766E+03  0.84044208790E+03  0.77455863827E+03  0.11559457721E+04  0.98174683685E+02 0.  0.
    5000000    2    1    2    0    0 -0.14243725766E+03 -0.84044208790E+03  0.30684477123E+03  0.10866315673E+04  0.59998597819E+03 0.  0.
         23    2    4    4    0    0 -0.10821269458E+03 -0.62947159291E+03  0.47342453068E+03  0.79971704996E+03  0.86441310772E+02 0.  0.
         23    2    4    4    0    0 -0.34224563080E+02 -0.21097049499E+03 -0.16657975945E+03  0.28691451738E+03  0.94293443810E+02 0.  0.
          3    1    3    3  502    0 -0.12317088745E+02  0.13839260088E+03  0.11597666676E+03  0.18098289943E+03  0.00000000000E+00 0. -1.
         -3    1    3    3    0  502  0.15475434640E+03  0.70204948702E+03  0.65858197151E+03  0.97496287270E+03  0.00000000000E+00 0.  1.
         11    1    5    5    0    0 -0.24861405015E+02 -0.10490257119E+03  0.12213129711E+03  0.16290700609E+03  0.00000000000E+00 0. -1.
        -11    1    5    5    0    0 -0.83351289560E+02 -0.52456902172E+03  0.35129323357E+03  0.63681004387E+03  0.00000000000E+00 0.  1.
          2    1    6    6  503    0  0.40934841654E+01 -0.71625509063E+02 -0.11081539005E+03  0.13201144206E+03  0.00000000000E+00 0. -1.
         -2    1    6    6    0  503 -0.38318047246E+02 -0.13934498593E+03 -0.55764369399E+02  0.15490307532E+03  0.00000000000E+00 0.  1.
<mgrwt>
<rscale>  0 0.85653061E+03</rscale>
<asrwt>0</asrwt>
<pdfrwt beam="1">  1        2 0.89321072E-01 0.85653061E+03</pdfrwt>
<pdfrwt beam="2">  1       -2 0.25569082E+00 0.85653061E+03</pdfrwt>
<totfact> 0.31102171E+00</totfact>
</mgrwt>
</event>
<event>
12    1  0.1444206E-007  0.7050307E+03  0.7818608E-02  0.9708668E-01
          2   -1    0    0  501    0  0.00000000000E+00  0.00000000000E+00  0.17086811105E+04  0.17086811105E+04  0.00000000000E+00 0. -1.
         -2   -1    0    0    0  501 -0.00000000000E+00 -0.00000000000E+00 -0.32909449211E+03  0.32909449211E+03  0.00000000000E+00 0.  1.
         23    2    1    2    0    0 -0.60037475783E+03  0.11895596340E+02  0.35132309139E+03  0.70439345842E+03  0.11023100595E+03 0.  0.
    5000000    2    1    2    0    0  0.60037475783E+03 -0.11895596340E+02  0.10282635270E+04  0.13333821442E+04  0.59999225530E+03 0.  0.
         23    2    4    4    0    0  0.13582059861E+03 -0.24069454906E+03  0.54796576500E+03  0.62030966205E+03  0.90202529099E+02 0.  0.
         23    2    4    4    0    0  0.46455415921E+03  0.22879895272E+03  0.48029776199E+03  0.71307248213E+03  0.98116751834E+02 0.  0.
          4    1    3    3  502    0 -0.87020615022E+02 -0.25652649530E+02  0.22066749249E+02  0.93368020698E+02  0.00000000000E+00 0. -1.
         -4    1    3    3    0  502 -0.51335414281E+03  0.37548245870E+02  0.32925634214E+03  0.61102543772E+03  0.00000000000E+00 0.  1.
         13    1    5    5    0    0  0.32107300711E+02 -0.35199871580E+02  0.38492478349E+02  0.61250147818E+02  0.00000000000E+00 0.  1.
        -13    1    5    5    0    0  0.10371329790E+03 -0.20549467748E+03  0.50947328666E+03  0.55905951423E+03  0.00000000000E+00 0. -1.
          3    1    6    6  503    0  0.12078859998E+03  0.10913176244E+03  0.13799188063E+03  0.21340427966E+03  0.00000000000E+00 0. -1.
         -3    1    6    6    0  503  0.34376555923E+03  0.11966719028E+03  0.34230588136E+03  0.49966820247E+03  0.00000000000E+00 0.  1.
<mgrwt>
<rscale>  0 0.70503066E+03</rscale>
<asrwt>0</asrwt>
<pdfrwt beam="1">  1        2 0.26287401E+00 0.70503066E+03</pdfrwt>
<pdfrwt beam="2">  1       -2 0.50629923E-01 0.70503066E+03</pdfrwt>
<totfact> 0.36911816E+01</totfact>
</mgrwt>
</event>
<event>
12    1  0.1444206E-007  0.8756038E+03  0.7818608E-02  0.9456602E-01
          1   -1    0    0  501    0  0.00000000000E+00  0.00000000000E+00  0.17149076072E+04  0.17149076072E+04  0.00000000000E+00 0.  1.
         -1   -1    0    0    0  501 -0.00000000000E+00 -0.00000000000E+00 -0.51345078117E+03  0.51345078117E+03  0.00000000000E+00 0. -1.
         23    2    1    2    0    0  0.74909424596E+03  0.25699895292E+03  0.20978208169E+03  0.82433411609E+03  0.91255476633E+02 0.  0.
    5000000    2    1    2    0    0 -0.74909424596E+03 -0.25699895292E+03  0.99167474434E+03  0.14040242723E+04  0.60056199302E+03 0.  0.
         23    2    4    4    0    0 -0.23089202088E+03  0.16467321613E+03  0.44753474326E+03  0.53758308668E+03  0.90993600042E+02 0.  0.
         23    2    4    4    0    0 -0.51820222509E+03 -0.42167216904E+03  0.54414000108E+03  0.86644118560E+03  0.91055055297E+02 0.  0.
          4    1    3    3  502    0  0.54085776803E+03  0.22459683768E+03  0.17060615612E+03  0.60998141385E+03  0.00000000000E+00 0. -1.
         -4    1    3    3    0  502  0.20823647794E+03  0.32402115238E+02  0.39175925573E+02  0.21435270225E+03  0.00000000000E+00 0.  1.
         11    1    5    5    0    0 -0.13503802016E+03  0.12120998399E+03  0.20850392349E+03  0.27640733206E+03  0.00000000000E+00 0. -1.
        -11    1    5    5    0    0 -0.95854000713E+02  0.43463232140E+02  0.23903081977E+03  0.26117575462E+03  0.00000000000E+00 0.  1.
          1    1    6    6  503    0 -0.53350082847E+02 -0.46112374620E+02  0.24941455704E+02  0.74797450795E+02  0.00000000000E+00 0. -1.
         -1    1    6    6    0  503 -0.46485214224E+03 -0.37555979442E+03  0.51919854538E+03  0.79164373480E+03  0.00000000000E+00 0.  1.
<mgrwt>
<rscale>  0 0.87560383E+03</rscale>
<asrwt>0</asrwt>
<pdfrwt beam="1">  1        1 0.26383194E+00 0.87560383E+03</pdfrwt>
<pdfrwt beam="2">  1       -1 0.78992429E-01 0.87560383E+03</pdfrwt>
<totfact> 0.76387286E+00</totfact>
</mgrwt>
</event>
<event>
12    1  0.1444206E-007  0.1371766E+04  0.7818608E-02  0.8974513E-01
          1   -1    0    0  501    0  0.00000000000E+00  0.00000000000E+00  0.17985390176E+04  0.17985390176E+04  0.00000000000E+00 0. -1.
         -1   -1    0    0    0  501 -0.00000000000E+00 -0.00000000000E+00 -0.10768101408E+04  0.10768101408E+04  0.00000000000E+00 0.  1.
         23    2    1    2    0    0  0.36793617075E+03  0.12724423641E+04  0.37376518368E+03  0.13801371497E+04  0.10291522630E+03 0.  0.
    5000000    2    1    2    0    0 -0.36793617075E+03 -0.12724423641E+04  0.34796369306E+03  0.14952120087E+04  0.60007801458E+03 0.  0.
         23    2    4    4    0    0 -0.79680179590E+01 -0.86848643888E+03  0.60094865773E+02  0.87533288706E+03  0.90907020873E+02 0.  0.
         23    2    4    4    0    0 -0.35996815279E+03 -0.40395592519E+03  0.28786882729E+03  0.61987912162E+03  0.92866588051E+02 0.  0.
          1    1    3    3  502    0  0.30480178200E+03  0.93776251316E+03  0.31000917372E+03  0.10336384016E+04  0.00000000000E+00 0. -1.
         -1    1    3    3    0  502  0.63134388750E+02  0.33467985092E+03  0.63756009963E+02  0.34649874814E+03  0.00000000000E+00 0.  1.
         11    1    5    5    0    0  0.36458806460E+02 -0.29629531232E+03  0.25388319340E+01  0.29854078840E+03  0.00000000000E+00 0. -1.
        -11    1    5    5    0    0 -0.44426824419E+02 -0.57219112656E+03  0.57556033839E+02  0.57679209866E+03  0.00000000000E+00 0.  1.
          1    1    6    6  503    0 -0.68203592524E+02 -0.44278892277E+02  0.73206680374E+02  0.10941466257E+03  0.00000000000E+00 0. -1.
         -1    1    6    6    0  503 -0.29176456027E+03 -0.35967703292E+03  0.21466214692E+03  0.51046445905E+03  0.00000000000E+00 0.  1.
<mgrwt>
<rscale>  0 0.13717657E+04</rscale>
<asrwt>0</asrwt>
<pdfrwt beam="1">  1        1 0.27669831E+00 0.13717657E+04</pdfrwt>
<pdfrwt beam="2">  1       -1 0.16566310E+00 0.13717657E+04</pdfrwt>
<totfact> 0.10403931E+00</totfact>
</mgrwt>
</event>
<event>
12    1  0.1444206E-007  0.8472872E+03  0.7818608E-02  0.9493985E-01
          1   -1    0    0  501    0  0.00000000000E+00  0.00000000000E+00  0.10264089416E+04  0.10264089416E+04  0.00000000000E+00 0. -1.
         -1   -1    0    0    0  501 -0.00000000000E+00 -0.00000000000E+00 -0.72860864320E+03  0.72860864320E+03  0.00000000000E+00 0.  1.
         23    2    1    2    0    0 -0.40907683179E+03 -0.62632760199E+03  0.25475846918E+03  0.79522241900E+03  0.88581593713E+02 0.  0.
    5000000    2    1    2    0    0  0.40907683179E+03  0.62632760199E+03  0.43041829242E+02  0.95979516581E+03  0.59976999085E+03 0.  0.
         23    2    4    4    0    0 -0.12337447223E+03  0.25407979806E+03  0.63636355461E+02  0.30345817224E+03  0.90881639410E+02 0.  0.
         23    2    4    4    0    0  0.53245130402E+03  0.37224780393E+03 -0.20594526219E+02  0.65633699357E+03  0.91001626004E+02 0.  0.
          4    1    3    3  502    0 -0.34488230364E+03 -0.53933399626E+03  0.18430624762E+03  0.66617847143E+03  0.00000000000E+00 0. -1.
         -4    1    3    3    0  502 -0.64194528153E+02 -0.86993605730E+02  0.70452221562E+02  0.12904394758E+03  0.00000000000E+00 0.  1.
         11    1    5    5    0    0 -0.11805587570E+03  0.14662778487E+03  0.29203323060E+02  0.19049863821E+03  0.00000000000E+00 0.  1.
        -11    1    5    5    0    0 -0.53185965346E+01  0.10745201319E+03  0.34433032402E+02  0.11295953403E+03  0.00000000000E+00 0. -1.
          3    1    6    6  503    0  0.94337712787E+02  0.51517837990E+02  0.28368342731E+02  0.11116858619E+03  0.00000000000E+00 0. -1.
         -3    1    6    6    0  503  0.43811359123E+03  0.32072996594E+03 -0.48962868951E+02  0.54516840739E+03  0.00000000000E+00 0.  1.
<mgrwt>
<rscale>  0 0.84728719E+03</rscale>
<asrwt>0</asrwt>
<pdfrwt beam="1">  1        1 0.15790907E+00 0.84728719E+03</pdfrwt>
<pdfrwt beam="2">  1       -1 0.11209364E+00 0.84728719E+03</pdfrwt>
<totfact> 0.10738016E+01</totfact>
</mgrwt>
</event>
<event>
12    1  0.1444206E-007  0.4742750E+03  0.7818608E-02  0.1020721E+00
          1   -1    0    0  501    0  0.00000000000E+00  0.00000000000E+00  0.39837000157E+03  0.39837000157E+03  0.00000000000E+00 0. -1.
         -1   -1    0    0    0  501 -0.00000000000E+00 -0.00000000000E+00 -0.96662942495E+03  0.96662942495E+03  0.00000000000E+00 0.  1.
         23    2    1    2    0    0  0.20329288087E+03  0.21148984778E+03  0.18479208217E+03  0.35847493235E+03  0.91105501295E+02 0.  0.
    5000000    2    1    2    0    0 -0.20329288087E+03 -0.21148984778E+03 -0.75305150555E+03  0.10065244942E+04  0.59995752867E+03 0.  0.
         23    2    4    4    0    0 -0.20234771245E+03 -0.39981256189E+03 -0.54002014229E+03  0.70812151357E+03  0.94971798549E+02 0.  0.
         23    2    4    4    0    0 -0.94516842293E+00  0.18832271411E+03 -0.21303136326E+03  0.29840298059E+03  0.90529769153E+02 0.  0.
          1    1    3    3  502    0  0.13252493104E+03  0.17589381587E+03  0.98252216475E+02  0.24115345706E+03  0.00000000000E+00 0. -1.
         -1    1    3    3    0  502  0.70767949831E+02  0.35596031911E+02  0.86539865698E+02  0.11732147530E+03  0.00000000000E+00 0.  1.
         13    1    5    5    0    0 -0.67160278075E+02 -0.18439659731E+03 -0.17309788665E+03  0.26167821158E+03  0.00000000000E+00 0. -1.
        -13    1    5    5    0    0 -0.13518743437E+03 -0.21541596457E+03 -0.36692225564E+03  0.44644330199E+03  0.00000000000E+00 0.  1.
          2    1    6    6  503    0  0.30135963535E+02  0.11529194095E+03 -0.80115232133E+02  0.14359268215E+03  0.00000000000E+00 0. -1.
         -2    1    6    6    0  503 -0.31081131958E+02  0.73030773158E+02 -0.13291613113E+03  0.15481029845E+03  0.00000000000E+00 0.  1.
<mgrwt>
<rscale>  0 0.47427496E+03</rscale>
<asrwt>0</asrwt>
<pdfrwt beam="1">  1        1 0.61287693E-01 0.47427496E+03</pdfrwt>
<pdfrwt beam="2">  1       -1 0.14871222E+00 0.47427496E+03</pdfrwt>
<totfact> 0.22872547E+01</totfact>
</mgrwt>
</event>
<event>
12    1  0.1444206E-007  0.5391352E+03  0.7818608E-02  0.1004040E+00
         -2   -1    0    0    0  501 -0.00000000000E+00  0.00000000000E+00  0.32408756468E+03  0.32408756468E+03  0.00000000000E+00 0.  1.
          2   -1    0    0  501    0  0.00000000000E+00 -0.00000000000E+00 -0.10314668662E+04  0.10314668662E+04  0.00000000000E+00 0. -1.
         23    2    1    2    0    0 -0.23466455860E+03  0.32298331530E+03 -0.39697859732E+03  0.57087731710E+03  0.94462836241E+02 0.  0.
    5000000    2    1    2    0    0  0.23466455860E+03 -0.32298331530E+03 -0.31040070423E+03  0.78467711380E+03  0.59998658211E+03 0.  0.
         23    2    4    4    0    0 -0.81815705608E+02 -0.32637893230E+03 -0.29267600668E+03  0.45518997455E+03  0.91223083222E+02 0.  0.
         23    2    4    4    0    0  0.31648026421E+03  0.33956170030E+01 -0.17724697546E+02  0.32948713925E+03  0.89868360274E+02 0.  0.
          2    1    3    3  502    0 -0.95435379419E+02  0.61952444766E+02 -0.12474646854E+03  0.16884222953E+03  0.00000000000E+00 0. -1.
         -2    1    3    3    0  502 -0.13922917918E+03  0.26103087053E+03 -0.27223212878E+03  0.40203508758E+03  0.00000000000E+00 0.  1.
         11    1    5    5    0    0 -0.96265455385E+02 -0.21074541895E+03 -0.20491163654E+03  0.30930478221E+03  0.00000000000E+00 0. -1.
        -11    1    5    5    0    0  0.14449749777E+02 -0.11563351335E+03 -0.87764370146E+02  0.14588519234E+03  0.00000000000E+00 0.  1.
          3    1    6    6  503    0  0.54293375008E+02 -0.18418017400E+02  0.25710019562E+02  0.62833104655E+02  0.00000000000E+00 0. -1.
         -3    1    6    6    0  503  0.26218688920E+03  0.21813634403E+02 -0.43434717107E+02  0.26665403460E+03  0.00000000000E+00 0.  1.
<mgrwt>
<rscale>  0 0.53913517E+03</rscale>
<asrwt>0</asrwt>
<pdfrwt beam="1">  1        2 0.15868721E+00 0.53913517E+03</pdfrwt>
<pdfrwt beam="2">  1       -2 0.49859625E-01 0.53913517E+03</pdfrwt>
<totfact> 0.94573815E+01</totfact>
</mgrwt>
</event>
<event>
12    1  0.1444206E-007  0.7223394E+03  0.7818608E-02  0.9679774E-01
         -1   -1    0    0    0  501 -0.00000000000E+00  0.00000000000E+00  0.23603031169E+03  0.23603031169E+03  0.00000000000E+00 0.  1.
          1   -1    0    0  501    0  0.00000000000E+00 -0.00000000000E+00 -0.28569148940E+04  0.28569148940E+04  0.00000000000E+00 0. -1.
         23    2    1    2    0    0  0.52456638011E+03 -0.28795379585E+03 -0.18517188761E+04  0.19481702609E+04  0.91745811829E+02 0.  0.
    5000000    2    1    2    0    0 -0.52456638011E+03  0.28795379585E+03 -0.76916570623E+03  0.11447749447E+04  0.60067171959E+03 0.  0.
         23    2    4    4    0    0  0.10792312220E+03 -0.16111909533E+02 -0.12437835334E+03  0.18751984779E+03  0.88242419498E+02 0.  0.
         23    2    4    4    0    0 -0.63248950232E+03  0.30406570538E+03 -0.64478735289E+03  0.95725509693E+03  0.89931453991E+02 0.  0.
          3    1    3    3  502    0  0.31868963597E+03 -0.21530654435E+03 -0.10945339703E+04  0.11601399072E+04  0.00000000000E+00 0. -1.
         -3    1    3    3    0  502  0.20587674415E+03 -0.72647251497E+02 -0.75718490576E+03  0.78803035375E+03  0.00000000000E+00 0.  1.
         11    1    5    5    0    0  0.68579402579E+02  0.29554485371E+02 -0.93903008300E+02  0.11997656868E+03  0.00000000000E+00 0.  1.
        -11    1    5    5    0    0  0.39343719625E+02 -0.45666394905E+02 -0.30475345044E+02  0.67543279111E+02  0.00000000000E+00 0. -1.
          4    1    6    6  503    0 -0.46193387963E+03  0.17941931110E+03 -0.47155751404E+03  0.68406190319E+03  0.00000000000E+00 0. -1.
         -4    1    6    6    0  503 -0.17055562269E+03  0.12464639428E+03 -0.17322983885E+03  0.27319319374E+03  0.00000000000E+00 0.  1.
<mgrwt>
<rscale>  0 0.72233940E+03</rscale>
<asrwt>0</asrwt>
<pdfrwt beam="1">  1        1 0.43952535E+00 0.72233940E+03</pdfrwt>
<pdfrwt beam="2">  1       -1 0.36312357E-01 0.72233940E+03</pdfrwt>
<totfact> 0.58913244E+00</totfact>
</mgrwt>
</event>
<event>
12    1  0.1444206E-007  0.5352089E+03  0.7818608E-02  0.1004977E+00
         -1   -1    0    0    0  501 -0.00000000000E+00  0.00000000000E+00  0.51389289349E+03  0.51389289349E+03  0.00000000000E+00 0.  1.
          1   -1    0    0  501    0  0.00000000000E+00 -0.00000000000E+00 -0.79482681509E+03  0.79482681509E+03  0.00000000000E+00 0. -1.
         23    2    1    2    0    0  0.41379958393E+03  0.23820955552E+03 -0.23654524772E+03  0.54068935112E+03  0.91746564988E+02 0.  0.
    5000000    2    1    2    0    0 -0.41379958393E+03 -0.23820955552E+03 -0.44388673879E+02  0.76803035747E+03  0.59993865322E+03 0.  0.
         23    2    4    4    0    0 -0.42919045639E+03 -0.24008590414E+03  0.17456412431E+03  0.52984838910E+03  0.91765967072E+02 0.  0.
         23    2    4    4    0    0  0.15390872454E+02  0.18763486168E+01 -0.21895279819E+03  0.23818196838E+03  0.92465791438E+02 0.  0.
          3    1    3    3  502    0  0.31824045827E+03  0.13542229700E+03 -0.16828454712E+03  0.38462433179E+03  0.00000000000E+00 0. -1.
         -3    1    3    3    0  502  0.95559125665E+02  0.10278725852E+03 -0.68260700600E+02  0.15606501933E+03  0.00000000000E+00 0.  1.
         11    1    5    5    0    0 -0.21886114536E+03 -0.17261330986E+03  0.11067547939E+03  0.29990768151E+03  0.00000000000E+00 0. -1.
        -11    1    5    5    0    0 -0.21032931103E+03 -0.67472594274E+02  0.63888644913E+02  0.22994070759E+03  0.00000000000E+00 0.  1.
          1    1    6    6  503    0  0.12309381098E+02 -0.40383968512E+02 -0.57957274290E+02  0.71703775486E+02  0.00000000000E+00 0. -1.
         -1    1    6    6    0  503  0.30814913557E+01  0.42260317129E+02 -0.16099552390E+03  0.16647819289E+03  0.00000000000E+00 0.  1.
<mgrwt>
<rscale>  0 0.53520887E+03</rscale>
<asrwt>0</asrwt>
<pdfrwt beam="1">  1        1 0.12228105E+00 0.53520887E+03</pdfrwt>
<pdfrwt beam="2">  1       -1 0.79060446E-01 0.53520887E+03</pdfrwt>
<totfact> 0.37557803E+01</totfact>
</mgrwt>
</event>
<event>
12    1  0.1444206E-007  0.9011199E+03  0.7818608E-02  0.9424183E-01
         -1   -1    0    0    0  501 -0.00000000000E+00  0.00000000000E+00  0.41002512856E+03  0.41002512856E+03  0.00000000000E+00 0.  1.
          1   -1    0    0  501    0  0.00000000000E+00 -0.00000000000E+00 -0.23936149214E+04  0.23936149214E+04  0.00000000000E+00 0. -1.
         23    2    1    2    0    0 -0.79623681222E+03  0.12684618112E+03 -0.34515075857E+03  0.88159610218E+03  0.89440630806E+02 0.  0.
    5000000    2    1    2    0    0  0.79623681222E+03 -0.12684618112E+03 -0.16384390343E+04  0.19220439478E+04  0.59973948795E+03 0.  0.
         23    2    4    4    0    0  0.47168579867E+03 -0.35479377711E+03 -0.94346141233E+03  0.11164338766E+04  0.89101332255E+02 0.  0.
         23    2    4    4    0    0  0.32455101354E+03  0.22794759600E+03 -0.69497762193E+03  0.80561007114E+03  0.93382143995E+02 0.  0.
          4    1    3    3  502    0 -0.18273471851E+03  0.35377795098E+01 -0.10865086141E+03  0.21262526407E+03  0.00000000000E+00 0. -1.
         -4    1    3    3    0  502 -0.61350209370E+03  0.12330840161E+03 -0.23649989715E+03  0.66897083811E+03  0.00000000000E+00 0.  1.
         13    1    5    5    0    0  0.12623137662E+03 -0.62579771349E+02 -0.27883060331E+03  0.31240533537E+03  0.00000000000E+00 0. -1.
        -13    1    5    5    0    0  0.34545442205E+03 -0.29221400576E+03 -0.66463080902E+03  0.80402854127E+03  0.00000000000E+00 0.  1.
          3    1    6    6  503    0  0.18699417223E+03  0.98044846780E+02 -0.44068036205E+03  0.48864997076E+03  0.00000000000E+00 0. -1.
         -3    1    6    6    0  503  0.13755684131E+03  0.12990274922E+03 -0.25429725988E+03  0.31696010037E+03  0.00000000000E+00 0.  1.
<mgrwt>
<rscale>  0 0.90111987E+03</rscale>
<asrwt>0</asrwt>
<pdfrwt beam="1">  1        1 0.36824846E+00 0.90111987E+03</pdfrwt>
<pdfrwt beam="2">  1       -1 0.63080788E-01 0.90111987E+03</pdfrwt>
<totfact> 0.42195592E+00</totfact>
</mgrwt>
</event>
<event>
12    1  0.1444206E-007  0.4717287E+03  0.7818608E-02  0.1021433E+00
          1   -1    0    0  501    0  0.00000000000E+00  0.00000000000E+00  0.37029242575E+03  0.37029242575E+03  0.00000000000E+00 0. -1.
         -1   -1    0    0    0  501 -0.00000000000E+00 -0.00000000000E+00 -0.81284232188E+03  0.81284232188E+03  0.00000000000E+00 0.  1.
         23    2    1    2    0    0  0.24232246240E+03 -0.15147027135E+03  0.10904560595E+03  0.31940698043E+03  0.92013347337E+02 0.  0.
    5000000    2    1    2    0    0 -0.24232246240E+03  0.15147027135E+03 -0.55159550208E+03  0.86372776719E+03  0.60008719285E+03 0.  0.
         23    2    4    4    0    0  0.18443062698E+03  0.42654700245E+02 -0.13316813686E+03  0.24928234712E+03  0.92595120235E+02 0.  0.
         23    2    4    4    0    0 -0.42675308938E+03  0.10881557110E+03 -0.41842736522E+03  0.61444542007E+03  0.92210012835E+02 0.  0.
          2    1    3    3  502    0  0.15129258563E+03 -0.10472905303E+03  0.22476783577E+02  0.18537213063E+03  0.00000000000E+00 0. -1.
         -2    1    3    3    0  502  0.91029876766E+02 -0.46741218318E+02  0.86568822374E+02  0.13403484980E+03  0.00000000000E+00 0.  1.
         13    1    5    5    0    0 -0.80014458661E+01  0.12881021965E+02 -0.15918589951E+02  0.21985116985E+02  0.00000000000E+00 0.  1.
        -13    1    5    5    0    0  0.19243207285E+03  0.29773678280E+02 -0.11724954691E+03  0.22729723014E+03  0.00000000000E+00 0. -1.
          4    1    6    6  503    0 -0.47379134648E+02 -0.12391148383E+02 -0.69045189483E+02  0.84649637619E+02  0.00000000000E+00 0.  1.
         -4    1    6    6    0  503 -0.37937395473E+03  0.12120671949E+03 -0.34938217574E+03  0.52979578245E+03  0.00000000000E+00 0. -1.
<mgrwt>
<rscale>  0 0.47172869E+03</rscale>
<asrwt>0</asrwt>
<pdfrwt beam="1">  1        1 0.56968066E-01 0.47172869E+03</pdfrwt>
<pdfrwt beam="2">  1       -1 0.12505266E+00 0.47172869E+03</pdfrwt>
<totfact> 0.39148571E+01</totfact>
</mgrwt>
</event>
<event>
12    1  0.1444206E-007  0.1041139E+04  0.7818608E-02  0.9264541E-01
          2   -1    0    0  501    0  0.00000000000E+00  0.00000000000E+00  0.15543060424E+04  0.15543060424E+04  0.00000000000E+00 0. -1.
         -2   -1    0    0    0  501 -0.00000000000E+00 -0.00000000000E+00 -0.72430493161E+03  0.72430493161E+03  0.00000000000E+00 0.  1.
         23    2    1    2    0    0 -0.24242589862E+03 -0.94038667929E+03  0.46109083274E+03  0.10789856511E+04  0.92238041356E+02 0.  0.
    5000000    2    1    2    0    0  0.24242589862E+03  0.94038667929E+03  0.36891027801E+03  0.11996253229E+04  0.59992391119E+03 0.  0.
         23    2    4    4    0    0  0.40104749856E+03  0.54724220468E+03  0.34237940700E+03  0.76527200497E+03  0.90024755352E+02 0.  0.
         23    2    4    4    0    0 -0.15862159993E+03  0.39314447461E+03  0.26530871006E+02  0.43435331793E+03  0.90749808796E+02 0.  0.
          1    1    3    3  502    0 -0.13518624726E+03 -0.37906834156E+03  0.22088788470E+03  0.45908559837E+03  0.00000000000E+00 0. -1.
         -1    1    3    3    0  502 -0.10723965137E+03 -0.56131833773E+03  0.24020294804E+03  0.61990005270E+03  0.00000000000E+00 0.  1.
         13    1    5    5    0    0  0.18569459601E+03  0.23645005572E+03  0.10323668385E+03  0.31788193520E+03  0.00000000000E+00 0. -1.
        -13    1    5    5    0    0  0.21535290255E+03  0.31079214895E+03  0.23914272316E+03  0.44739006977E+03  0.00000000000E+00 0.  1.
          3    1    6    6  503    0 -0.14599170315E+03  0.28028435652E+03 -0.64634273423E+01  0.31609282465E+03  0.00000000000E+00 0. -1.
         -3    1    6    6    0  503 -0.12629896782E+02  0.11286011809E+03  0.32994298349E+02  0.11826049328E+03  0.00000000000E+00 0.  1.
<mgrwt>
<rscale>  0 0.10411388E+04</rscale>
<asrwt>0</asrwt>
<pdfrwt beam="1">  1        2 0.23912401E+00 0.10411388E+04</pdfrwt>
<pdfrwt beam="2">  1       -2 0.11143153E+00 0.10411388E+04</pdfrwt>
<totfact> 0.74627007E+00</totfact>
</mgrwt>
</event>
<event>
12    1  0.1444206E-007  0.5191652E+03  0.7818608E-02  0.1008894E+00
          1   -1    0    0  501    0  0.00000000000E+00  0.00000000000E+00  0.19280883381E+04  0.19280883381E+04  0.00000000000E+00 0. -1.
         -1   -1    0    0    0  501 -0.00000000000E+00 -0.00000000000E+00 -0.18144837328E+03  0.18144837328E+03  0.00000000000E+00 0.  1.
         23    2    1    2    0    0  0.22972436206E+03 -0.30013739081E+03  0.27515447741E+03  0.47611501068E+03  0.90109827793E+02 0.  0.
    5000000    2    1    2    0    0 -0.22972436206E+03  0.30013739081E+03  0.14714854874E+04  0.16334217007E+04  0.59995097869E+03 0.  0.
         23    2    4    4    0    0  0.87003593130E+02 -0.10423704177E+03  0.18968964865E+03  0.24965683509E+03  0.88945974664E+02 0.  0.
         23    2    4    4    0    0 -0.31672795518E+03  0.40437443258E+03  0.12817958388E+04  0.13837648656E+04  0.89271225822E+02 0.  0.
          1    1    3    3  502    0  0.14966754518E+03 -0.12209165037E+03  0.14428758800E+03  0.24109262374E+03  0.00000000000E+00 0.  1.
         -1    1    3    3    0  502  0.80056816879E+02 -0.17804574044E+03  0.13086688941E+03  0.23502238693E+03  0.00000000000E+00 0. -1.
         13    1    5    5    0    0  0.19638276288E+02 -0.18530106198E+02 -0.40998179630E+01  0.27309984230E+02  0.00000000000E+00 0. -1.
        -13    1    5    5    0    0  0.67365316842E+02 -0.85706935569E+02  0.19378946662E+03  0.22234685086E+03  0.00000000000E+00 0.  1.
          4    1    6    6  503    0 -0.28558462902E+03  0.35558150145E+03  0.11984086133E+04  0.12822558204E+04  0.00000000000E+00 0.  1.
         -4    1    6    6    0  503 -0.31143326165E+02  0.48792931133E+02  0.83387225424E+02  0.10150904520E+03  0.00000000000E+00 0. -1.
<mgrwt>
<rscale>  0 0.51916523E+03</rscale>
<asrwt>0</asrwt>
<pdfrwt beam="1">  1        1 0.29662896E+00 0.51916523E+03</pdfrwt>
<pdfrwt beam="2">  1       -1 0.27915136E-01 0.51916523E+03</pdfrwt>
<totfact> 0.41289253E+01</totfact>
</mgrwt>
</event>
<event>
12    1  0.1444206E-007  0.1449128E+04  0.7818608E-02  0.8919005E-01
          1   -1    0    0  501    0  0.00000000000E+00  0.00000000000E+00  0.12986782320E+04  0.12986782320E+04  0.00000000000E+00 0. -1.
         -1   -1    0    0    0  501 -0.00000000000E+00 -0.00000000000E+00 -0.17694029011E+04  0.17694029011E+04  0.00000000000E+00 0.  1.
         23    2    1    2    0    0 -0.23543161208E+03 -0.14240034838E+04 -0.41216880548E+03  0.15038779388E+04  0.92475751812E+02 0.  0.
    5000000    2    1    2    0    0  0.23543161208E+03  0.14240034838E+04 -0.58555863659E+02  0.15642031943E+04  0.60007406030E+03 0.  0.
         23    2    4    4    0    0  0.77558965672E+02  0.88089671779E+03 -0.30656169242E+03  0.93999565478E+03  0.87277369203E+02 0.  0.
         23    2    4    4    0    0  0.15787264640E+03  0.54310676605E+03  0.24800582876E+03  0.62420753949E+03  0.90771302978E+02 0.  0.
          3    1    3    3  502    0 -0.85022317830E+02 -0.65323040352E+03 -0.14638494546E+03  0.67480908920E+03  0.00000000000E+00 0. -1.
         -3    1    3    3    0  502 -0.15040929425E+03 -0.77077308032E+03 -0.26578386002E+03  0.82906884960E+03  0.00000000000E+00 0.  1.
         11    1    5    5    0    0 -0.11795361234E+00  0.49262589545E+03 -0.17222999675E+03  0.52186536440E+03  0.00000000000E+00 0.  1.
        -11    1    5    5    0    0  0.77676919284E+02  0.38827082234E+03 -0.13433169567E+03  0.41813029037E+03  0.00000000000E+00 0. -1.
          1    1    6    6  503    0  0.87604326018E+02  0.31108224924E+03  0.19013715620E+03  0.37496509424E+03  0.00000000000E+00 0. -1.
         -1    1    6    6    0  503  0.70268320386E+02  0.23202451681E+03  0.57868672563E+02  0.24924244526E+03  0.00000000000E+00 0.  1.
<mgrwt>
<rscale>  0 0.14491279E+04</rscale>
<asrwt>0</asrwt>
<pdfrwt beam="1">  1        1 0.19979665E+00 0.14491279E+04</pdfrwt>
<pdfrwt beam="2">  1       -1 0.27221583E+00 0.14491279E+04</pdfrwt>
<totfact> 0.43172621E-01</totfact>
</mgrwt>
</event>
<event>
12    1  0.1444206E-007  0.6599812E+03  0.7818608E-02  0.9788228E-01
          1   -1    0    0  501    0  0.00000000000E+00  0.00000000000E+00  0.48782466193E+03  0.48782466193E+03  0.00000000000E+00 0. -1.
         -1   -1    0    0    0  501 -0.00000000000E+00 -0.00000000000E+00 -0.10254097574E+04  0.10254097574E+04  0.00000000000E+00 0.  1.
         23    2    1    2    0    0 -0.46481922199E+03  0.33881204107E+03 -0.24574378607E+03  0.63211245742E+03  0.91244956749E+02 0.  0.
    5000000    2    1    2    0    0  0.46481922199E+03 -0.33881204107E+03 -0.29184130941E+03  0.88112196193E+03  0.60029497217E+03 0.  0.
         23    2    4    4    0    0  0.55474593440E+03 -0.30779055328E+03 -0.10176308150E+03  0.65024618236E+03  0.99931459021E+02 0.  0.
         23    2    4    4    0    0 -0.89926712408E+02 -0.31021487792E+02 -0.19007822792E+03  0.23087577957E+03  0.90137376008E+02 0.  0.
          4    1    3    3  502    0 -0.23445584628E+03  0.12675975390E+03 -0.82475907526E+02  0.27899794692E+03  0.00000000000E+00 0.  1.
         -4    1    3    3    0  502 -0.23036337571E+03  0.21205228717E+03 -0.16326787854E+03  0.35311451050E+03  0.00000000000E+00 0. -1.
         11    1    5    5    0    0  0.14221814756E+03 -0.12398233563E+03 -0.53126934006E+02  0.19601043891E+03  0.00000000000E+00 0. -1.
        -11    1    5    5    0    0  0.41252778684E+03 -0.18380821764E+03 -0.48636147492E+02  0.45423574345E+03  0.00000000000E+00 0.  1.
          2    1    6    6  503    0 -0.90946400573E+02 -0.33838162767E+02 -0.95161063961E+02  0.13591135762E+03  0.00000000000E+00 0. -1.
         -2    1    6    6    0  503  0.10196881652E+01  0.28166749753E+01 -0.94917163956E+02  0.94964421945E+02  0.00000000000E+00 0.  1.
<mgrwt>
<rscale>  0 0.65998125E+03</rscale>
<asrwt>0</asrwt>
<pdfrwt beam="1">  1        1 0.75049947E-01 0.65998125E+03</pdfrwt>
<pdfrwt beam="2">  1       -1 0.15775535E+00 0.65998125E+03</pdfrwt>
<totfact> 0.14489760E+01</totfact>
</mgrwt>
</event>
<event>
12    1  0.1444206E-007  0.5632526E+03  0.7818608E-02  0.9984722E-01
          1   -1    0    0  501    0  0.00000000000E+00  0.00000000000E+00  0.16267360291E+04  0.16267360291E+04  0.00000000000E+00 0. -1.
         -1   -1    0    0    0  501 -0.00000000000E+00 -0.00000000000E+00 -0.25004497057E+03  0.25004497057E+03  0.00000000000E+00 0.  1.
         23    2    1    2    0    0  0.32940661764E+03 -0.25085115413E+03  0.15139028388E+03  0.45090027036E+03  0.94641505086E+02 0.  0.
    5000000    2    1    2    0    0 -0.32940661764E+03  0.25085115413E+03  0.12253007747E+04  0.14258807293E+04  0.60028230411E+03 0.  0.
         23    2    4    4    0    0  0.14517914402E+03  0.14514038451E+03  0.49327988396E+03  0.54222298257E+03  0.92401319455E+02 0.  0.
         23    2    4    4    0    0 -0.47458576165E+03  0.10571076961E+03  0.73202089071E+03  0.88365774676E+03  0.92682344662E+02 0.  0.
          1    1    3    3  502    0  0.14678008150E+03 -0.13341091248E+03  0.25678449859E+02  0.20000561662E+03  0.00000000000E+00 0. -1.
         -1    1    3    3    0  502  0.18262653614E+03 -0.11744024165E+03  0.12571183402E+03  0.25089465373E+03  0.00000000000E+00 0.  1.
         13    1    5    5    0    0  0.43086814748E+02  0.55965473408E+01  0.49025980197E+02  0.65508332917E+02  0.00000000000E+00 0. -1.
        -13    1    5    5    0    0  0.10209232927E+03  0.13954383717E+03  0.44425390376E+03  0.47671464966E+03  0.00000000000E+00 0.  1.
          3    1    6    6  503    0 -0.87755089439E+02 -0.15889820405E+02  0.12050147905E+03  0.14991347027E+03  0.00000000000E+00 0. -1.
         -3    1    6    6    0  503 -0.38683067221E+03  0.12160059002E+03  0.61151941165E+03  0.73374427649E+03  0.00000000000E+00 0.  1.
<mgrwt>
<rscale>  0 0.56325259E+03</rscale>
<asrwt>0</asrwt>
<pdfrwt beam="1">  1        1 0.25026708E+00 0.56325259E+03</pdfrwt>
<pdfrwt beam="2">  1       -1 0.38468458E-01 0.56325259E+03</pdfrwt>
<totfact> 0.37046127E+01</totfact>
</mgrwt>
</event>
<event>
12    1  0.1444206E-007  0.7570663E+03  0.7818608E-02  0.9624329E-01
         -4   -1    0    0    0  501 -0.00000000000E+00  0.00000000000E+00  0.11198579372E+04  0.11198579372E+04  0.00000000000E+00 0. -1.
          4   -1    0    0  501    0  0.00000000000E+00 -0.00000000000E+00 -0.70542866806E+03  0.70542866806E+03  0.00000000000E+00 0.  1.
         23    2    1    2    0    0 -0.18623125681E+03  0.61129129269E+03  0.65152108429E+03  0.91724532862E+03  0.92196225895E+02 0.  0.
    5000000    2    1    2    0    0  0.18623125681E+03 -0.61129129269E+03 -0.23709181512E+03  0.90804127669E+03  0.59997275425E+03 0.  0.
         23    2    4    4    0    0 -0.20119880595E+03 -0.26327505149E+03 -0.13518537911E+03  0.36940188885E+03  0.91585787674E+02 0.  0.
         23    2    4    4    0    0  0.38743006275E+03 -0.34801624119E+03 -0.10190643600E+03  0.53863938784E+03  0.92358598814E+02 0.  0.
          4    1    3    3  502    0 -0.16935055644E+02  0.17695799885E+03  0.21055474992E+03  0.27556166675E+03  0.00000000000E+00 0. -1.
         -4    1    3    3    0  502 -0.16929620116E+03  0.43433329384E+03  0.44096633437E+03  0.64168366187E+03  0.00000000000E+00 0.  1.
         11    1    5    5    0    0 -0.13925934138E+03 -0.23933305695E+03 -0.10127635497E+03  0.29483957737E+03  0.00000000000E+00 0. -1.
        -11    1    5    5    0    0 -0.61939464571E+02 -0.23941994547E+02 -0.33909024147E+02  0.74562311478E+02  0.00000000000E+00 0.  1.
          1    1    6    6  503    0  0.14904990725E+03 -0.18744896428E+03 -0.22978246067E+02  0.24058468125E+03  0.00000000000E+00 0. -1.
         -1    1    6    6    0  503  0.23838015550E+03 -0.16056727692E+03 -0.78928189936E+02  0.29805470659E+03  0.00000000000E+00 0.  1.
<mgrwt>
<rscale>  0 0.75706631E+03</rscale>
<asrwt>0</asrwt>
<pdfrwt beam="1">  1        4 0.10852749E+00 0.75706631E+03</pdfrwt>
<pdfrwt beam="2">  1       -4 0.17228584E+00 0.75706631E+03</pdfrwt>
<totfact> 0.26949779E-01</totfact>
</mgrwt>
</event>
<event>
12    1  0.1444206E-007  0.8110042E+03  0.7818608E-02  0.9544224E-01
          2   -1    0    0  501    0  0.00000000000E+00  0.00000000000E+00  0.10831301511E+04  0.10831301511E+04  0.00000000000E+00 0. -1.
         -2   -1    0    0    0  501 -0.00000000000E+00 -0.00000000000E+00 -0.88646269026E+03  0.88646269026E+03  0.00000000000E+00 0.  1.
         23    2    1    2    0    0 -0.69308111403E+03 -0.14062347972E+03 -0.44626417302E+03  0.84110602430E+03  0.90394902032E+02 0.  0.
    5000000    2    1    2    0    0  0.69308111403E+03  0.14062347972E+03  0.64293163387E+03  0.11284868171E+04  0.59998751383E+03 0.  0.
         23    2    4    4    0    0  0.44693324997E+03  0.35711020468E+03  0.33825702401E+03  0.67086435995E+03  0.91455710313E+02 0.  0.
         23    2    4    4    0    0  0.24614786406E+03 -0.21648672496E+03  0.30467460986E+03  0.45762245710E+03  0.95584634124E+02 0.  0.
          4    1    3    3  502    0 -0.51684196638E+03 -0.11426387024E+03 -0.28707457314E+03  0.60215750498E+03  0.00000000000E+00 0. -1.
         -4    1    3    3    0  502 -0.17623914765E+03 -0.26359609483E+02 -0.15918959988E+03  0.23894851933E+03  0.00000000000E+00 0.  1.
         11    1    5    5    0    0  0.26525361835E+03  0.15605927783E+03  0.16447979248E+03  0.34895212046E+03  0.00000000000E+00 0.  1.
        -11    1    5    5    0    0  0.18167963163E+03  0.20105092685E+03  0.17377723153E+03  0.32191223949E+03  0.00000000000E+00 0. -1.
          3    1    6    6  503    0  0.66069683324E+02 -0.10468571058E+03  0.15388840934E+03  0.19749922426E+03  0.00000000000E+00 0. -1.
         -3    1    6    6    0  503  0.18007818074E+03 -0.11180101439E+03  0.15078620052E+03  0.26012323284E+03  0.00000000000E+00 0.  1.
<mgrwt>
<rscale>  0 0.81100423E+03</rscale>
<asrwt>0</asrwt>
<pdfrwt beam="1">  1        2 0.16663541E+00 0.81100423E+03</pdfrwt>
<pdfrwt beam="2">  1       -2 0.13637888E+00 0.81100423E+03</pdfrwt>
<totfact> 0.86749548E+00</totfact>
</mgrwt>
</event>
<event>
12    1  0.1444206E-007  0.9590317E+03  0.7818608E-02  0.9354656E-01
          4   -1    0    0  501    0  0.00000000000E+00  0.00000000000E+00  0.12125755538E+04  0.12125755538E+04  0.00000000000E+00 0.  1.
         -4   -1    0    0    0  501 -0.00000000000E+00 -0.00000000000E+00 -0.15249264626E+04  0.15249264626E+04  0.00000000000E+00 0. -1.
         23    2    1    2    0    0 -0.66463876397E+03  0.68351128790E+03  0.72889838390E+03  0.12034913256E+04  0.90366750243E+02 0.  0.
    5000000    2    1    2    0    0  0.66463876397E+03 -0.68351128790E+03 -0.10412492927E+04  0.15340106908E+04  0.60004695036E+03 0.  0.
         23    2    4    4    0    0  0.14229488398E+03 -0.20881414976E+03  0.44594822417E+01  0.26891493152E+03  0.91892166518E+02 0.  0.
         23    2    4    4    0    0  0.52234387999E+03 -0.47469713814E+03 -0.10457087750E+04  0.12650957593E+04  0.93701313641E+02 0.  0.
          3    1    3    3  502    0 -0.29285291850E+03  0.23794276004E+03  0.28407476733E+03  0.47231140401E+03  0.00000000000E+00 0. -1.
         -3    1    3    3    0  502 -0.37178584547E+03  0.44556852785E+03  0.44482361657E+03  0.73117992161E+03  0.00000000000E+00 0.  1.
         13    1    5    5    0    0  0.84980295160E+02 -0.97978400844E+02  0.45676930019E+02  0.13750563455E+03  0.00000000000E+00 0.  1.
        -13    1    5    5    0    0  0.57314588821E+02 -0.11083574892E+03 -0.41217447777E+02  0.13140929697E+03  0.00000000000E+00 0. -1.
          4    1    6    6  503    0  0.32711655985E+03 -0.28838353069E+03 -0.72397051557E+03  0.84516484304E+03  0.00000000000E+00 0.  1.
         -4    1    6    6    0  503  0.19522732014E+03 -0.18631360745E+03 -0.32173825940E+03  0.41993091624E+03  0.00000000000E+00 0. -1.
<mgrwt>
<rscale>  0 0.95903167E+03</rscale>
<asrwt>0</asrwt>
<pdfrwt beam="1">  1        4 0.18655009E+00 0.95903167E+03</pdfrwt>
<pdfrwt beam="2">  1       -4 0.23460407E+00 0.95903167E+03</pdfrwt>
<totfact> 0.24577358E-02</totfact>
</mgrwt>
</event>
<event>
12    1  0.1444206E-007  0.6768247E+03  0.7818608E-02  0.9757707E-01
         -2   -1    0    0    0  501 -0.00000000000E+00  0.00000000000E+00  0.18603468144E+03  0.18603468144E+03  0.00000000000E+00 0.  1.
          2   -1    0    0  501    0  0.00000000000E+00 -0.00000000000E+00 -0.26074172666E+04  0.26074172666E+04  0.00000000000E+00 0. -1.
         23    2    1    2    0    0 -0.22290158072E+03  0.51486260198E+03 -0.89063958775E+03  0.10563024554E+04  0.88132788352E+02 0.  0.
    5000000    2    1    2    0    0  0.22290158072E+03 -0.51486260198E+03 -0.15307429975E+04  0.17371494927E+04  0.59978798097E+03 0.  0.
         23    2    4    4    0    0  0.38042147178E+03 -0.20369493765E+03 -0.10264293452E+04  0.11173990051E+04  0.93868057104E+02 0.  0.
         23    2    4    4    0    0 -0.15751989106E+03 -0.31116766432E+03 -0.50431365228E+03  0.61975048759E+03  0.90114236391E+02 0.  0.
          2    1    3    3  502    0 -0.15612693562E+03  0.38703663560E+03 -0.58794265934E+03  0.72100592785E+03  0.00000000000E+00 0. -1.
         -2    1    3    3    0  502 -0.66774645106E+02  0.12782596638E+03 -0.30269692841E+03  0.33529652754E+03  0.00000000000E+00 0.  1.
         11    1    5    5    0    0  0.19496549418E+03 -0.15593733987E+03 -0.60578212307E+03  0.65520987364E+03  0.00000000000E+00 0. -1.
        -11    1    5    5    0    0  0.18545597760E+03 -0.47757597785E+02 -0.42064722212E+03  0.46218913147E+03  0.00000000000E+00 0.  1.
          1    1    6    6  503    0 -0.12228145014E+02 -0.55797735113E+02 -0.38039537644E+02  0.68628865635E+02  0.00000000000E+00 0. -1.
         -1    1    6    6    0  503 -0.14529174604E+03 -0.25536992921E+03 -0.46627411463E+03  0.55112162196E+03  0.00000000000E+00 0.  1.
<mgrwt>
<rscale>  0 0.67682466E+03</rscale>
<asrwt>0</asrwt>
<pdfrwt beam="1">  1        2 0.40114110E+00 0.67682466E+03</pdfrwt>
<pdfrwt beam="2">  1       -2 0.28620721E-01 0.67682466E+03</pdfrwt>
<totfact> 0.35628020E+01</totfact>
</mgrwt>
</event>
<event>
12    1  0.1444206E-007  0.3164542E+03  0.7818608E-02  0.1077293E+00
         -1   -1    0    0    0  501 -0.00000000000E+00  0.00000000000E+00  0.49038375294E+03  0.49038375294E+03  0.00000000000E+00 0.  1.
          1   -1    0    0  501    0  0.00000000000E+00 -0.00000000000E+00 -0.56240010722E+03  0.56240010722E+03  0.00000000000E+00 0. -1.
         23    2    1    2    0    0  0.25202398256E+03 -0.13171848562E+03 -0.22290068064E+03  0.37194125259E+03  0.88259473780E+02 0.  0.
    5000000    2    1    2    0    0 -0.25202398256E+03  0.13171848562E+03  0.15088432635E+03  0.68084260757E+03  0.59992893672E+03 0.  0.
         23    2    4    4    0    0 -0.14818217680E+03  0.57664801829E+02  0.36898946507E+03  0.41225318894E+03  0.92283690670E+02 0.  0.
         23    2    4    4    0    0 -0.10384180576E+03  0.74053683790E+02 -0.21810513872E+03  0.26858941864E+03  0.91122749979E+02 0.  0.
          4    1    3    3  502    0  0.12846282409E+03 -0.21294357358E+02 -0.11863989095E+03  0.17615780015E+03  0.00000000000E+00 0. -1.
         -4    1    3    3    0  502  0.12356115847E+03 -0.11042412826E+03 -0.10426078969E+03  0.19578345244E+03  0.00000000000E+00 0.  1.
         11    1    5    5    0    0 -0.96884921133E+02  0.81261871849E+02  0.27351801420E+03  0.30133417306E+03  0.00000000000E+00 0. -1.
        -11    1    5    5    0    0 -0.51297255664E+02 -0.23597070020E+02  0.95471450867E+02  0.11091901588E+03  0.00000000000E+00 0.  1.
          4    1    6    6  503    0 -0.66908676992E+02  0.91388709719E+02 -0.13664906212E+03  0.17748699530E+03  0.00000000000E+00 0. -1.
         -4    1    6    6    0  503 -0.36933128769E+02 -0.17335025929E+02 -0.81456076592E+02  0.91102423340E+02  0.00000000000E+00 0.  1.
<mgrwt>
<rscale>  0 0.31645417E+03</rscale>
<asrwt>0</asrwt>
<pdfrwt beam="1">  1        1 0.86523093E-01 0.31645417E+03</pdfrwt>
<pdfrwt beam="2">  1       -1 0.75443655E-01 0.31645417E+03</pdfrwt>
<totfact> 0.71206422E+01</totfact>
</mgrwt>
</event>
<event>
12    1  0.1444206E-007  0.8926242E+03  0.7818608E-02  0.9434849E-01
          1   -1    0    0  501    0  0.00000000000E+00  0.00000000000E+00  0.28542515069E+04  0.28542515069E+04  0.00000000000E+00 0. -1.
         -1   -1    0    0    0  501 -0.00000000000E+00 -0.00000000000E+00 -0.33872118684E+03  0.33872118684E+03  0.00000000000E+00 0.  1.
         23    2    1    2    0    0  0.81217673564E+03 -0.22758000650E+03  0.15989719257E+04  0.18104244283E+04  0.97476571783E+02 0.  0.
    5000000    2    1    2    0    0 -0.81217673564E+03  0.22758000650E+03  0.91655839429E+03  0.13825482654E+04  0.59994725332E+03 0.  0.
         23    2    4    4    0    0 -0.76909466750E+03  0.29206918591E+03  0.94781003599E+03  0.12586196592E+04  0.94702508812E+02 0.  0.
         23    2    4    4    0    0 -0.43082068138E+02 -0.64489179409E+02 -0.31251641704E+02  0.12392860624E+03  0.91469751720E+02 0.  0.
          4    1    3    3  502    0  0.40965935399E+03 -0.14149260480E+03  0.90814547642E+03  0.10062649501E+04  0.00000000000E+00 0. -1.
         -4    1    3    3    0  502  0.40251738165E+03 -0.86087401701E+02  0.69082644930E+03  0.80415947816E+03  0.00000000000E+00 0.  1.
         13    1    5    5    0    0 -0.20896437250E+02  0.24875656143E+02  0.25447995566E+02  0.41268145543E+02  0.00000000000E+00 0.  1.
        -13    1    5    5    0    0 -0.74819823025E+03  0.26719352977E+03  0.92236204043E+03  0.12173515136E+04  0.00000000000E+00 0. -1.
          3    1    6    6  503    0 -0.62219833964E+02 -0.69691838292E+02 -0.85974695139E+01  0.93819915503E+02  0.00000000000E+00 0. -1.
         -3    1    6    6    0  503  0.19137765827E+02  0.52026588828E+01 -0.22654172190E+02  0.30108690737E+02  0.00000000000E+00 0.  1.
<mgrwt>
<rscale>  0 0.89262420E+03</rscale>
<asrwt>0</asrwt>
<pdfrwt beam="1">  1        1 0.43911560E+00 0.89262420E+03</pdfrwt>
<pdfrwt beam="2">  1       -1 0.52110954E-01 0.89262420E+03</pdfrwt>
<totfact> 0.29447544E+00</totfact>
</mgrwt>
</event>
<event>
12    1  0.1444206E-007  0.1260985E+04  0.7818608E-02  0.9061089E-01
         -1   -1    0    0    0  501 -0.00000000000E+00  0.00000000000E+00  0.73304686454E+03  0.73304686454E+03  0.00000000000E+00 0.  1.
          1   -1    0    0  501    0  0.00000000000E+00 -0.00000000000E+00 -0.21916505499E+04  0.21916505499E+04  0.00000000000E+00 0. -1.
         23    2    1    2    0    0  0.11840602653E+04 -0.11972119512E+03 -0.56720825655E+03  0.13212905782E+04  0.88043791647E+02 0.  0.
    5000000    2    1    2    0    0 -0.11840602653E+04  0.11972119512E+03 -0.89139542879E+03  0.16034068363E+04  0.59999649639E+03 0.  0.
         23    2    4    4    0    0 -0.69911768597E+03 -0.21252415726E+03 -0.45879751185E+03  0.86779461934E+03  0.92953150688E+02 0.  0.
         23    2    4    4    0    0 -0.48494257932E+03  0.33224535238E+03 -0.43259791694E+03  0.73561221691E+03  0.91804665007E+02 0.  0.
          3    1    3    3  502    0  0.58948996694E+03 -0.82494410005E+02 -0.24177357656E+03  0.64246261457E+03  0.00000000000E+00 0. -1.
         -3    1    3    3    0  502  0.59457029836E+03 -0.37226785118E+02 -0.32543467999E+03  0.67882796360E+03  0.00000000000E+00 0.  1.
         13    1    5    5    0    0 -0.23130048165E+03 -0.26110566973E+02 -0.15528535501E+03  0.27981282315E+03  0.00000000000E+00 0.  1.
        -13    1    5    5    0    0 -0.46781720432E+03 -0.18641359028E+03 -0.30351215684E+03  0.58798179619E+03  0.00000000000E+00 0. -1.
          4    1    6    6  503    0 -0.28501518644E+03  0.24756558039E+03 -0.26290611681E+03  0.46004564920E+03  0.00000000000E+00 0. -1.
         -4    1    6    6    0  503 -0.19992739288E+03  0.84679771990E+02 -0.16969180013E+03  0.27556656771E+03  0.00000000000E+00 0.  1.
<mgrwt>
<rscale>  0 0.12609855E+04</rscale>
<asrwt>0</asrwt>
<pdfrwt beam="1">  1        1 0.33717700E+00 0.12609855E+04</pdfrwt>
<pdfrwt beam="2">  1       -1 0.11277644E+00 0.12609855E+04</pdfrwt>
<totfact> 0.15545935E+00</totfact>
</mgrwt>
</event>
<event>
12    1  0.1444206E-007  0.8473943E+03  0.7818608E-02  0.9493841E-01
          2   -1    0    0  501    0  0.00000000000E+00  0.00000000000E+00  0.30114817341E+04  0.30114817341E+04  0.00000000000E+00 0. -1.
         -2   -1    0    0    0  501 -0.00000000000E+00 -0.00000000000E+00 -0.26565538526E+03  0.26565538526E+03  0.00000000000E+00 0.  1.
         23    2    1    2    0    0 -0.72226044131E+03  0.28109570202E+03  0.93474932174E+03  0.12178452156E+04  0.93358106114E+02 0.  0.
    5000000    2    1    2    0    0  0.72226044131E+03 -0.28109570202E+03  0.18110770271E+04  0.20592919037E+04  0.60000683987E+03 0.  0.
         23    2    4    4    0    0  0.76079343500E+03 -0.19222095428E+03  0.17332101778E+04  0.19048426227E+04  0.93018014262E+02 0.  0.
         23    2    4    4    0    0 -0.38532993693E+02 -0.88874747735E+02  0.77866849357E+02  0.15444928104E+03  0.91694175365E+02 0.  0.
          2    1    3    3  502    0 -0.57421489558E+03  0.23908784559E+03  0.79957226531E+03  0.10130160668E+04  0.00000000000E+00 0. -1.
         -2    1    3    3    0  502 -0.14804554573E+03  0.42007856430E+02  0.13517705643E+03  0.20482914880E+03  0.00000000000E+00 0.  1.
         13    1    5    5    0    0  0.31737700311E+03 -0.10007851102E+03  0.63505243939E+03  0.71696267075E+03  0.00000000000E+00 0.  1.
        -13    1    5    5    0    0  0.44341643190E+03 -0.92142443266E+02  0.10981577384E+04  0.11878799520E+04  0.00000000000E+00 0. -1.
          2    1    6    6  503    0  0.11753759451E+02 -0.81569012042E+02  0.44494693044E+02  0.93655925044E+02  0.00000000000E+00 0. -1.
         -2    1    6    6    0  503 -0.50286753144E+02 -0.73057356930E+01  0.33372156314E+02  0.60793355992E+02  0.00000000000E+00 0.  1.
<mgrwt>
<rscale>  0 0.84739427E+03</rscale>
<asrwt>0</asrwt>
<pdfrwt beam="1">  1        2 0.46330486E+00 0.84739427E+03</pdfrwt>
<pdfrwt beam="2">  1       -2 0.40870061E-01 0.84739427E+03</pdfrwt>
<totfact> 0.10156516E+01</totfact>
</mgrwt>
</event>
<event>
12    1  0.1444206E-007  0.8346388E+03  0.7818608E-02  0.9511189E-01
          2   -1    0    0  501    0  0.00000000000E+00  0.00000000000E+00  0.16388818751E+04  0.16388818751E+04  0.00000000000E+00 0. -1.
         -2   -1    0    0    0  501 -0.00000000000E+00 -0.00000000000E+00 -0.73403078876E+03  0.73403078876E+03  0.00000000000E+00 0.  1.
         23    2    1    2    0    0  0.27159847339E+03  0.77105987357E+03  0.10652167024E+04  0.13460149611E+04  0.93651444445E+02 0.  0.
    5000000    2    1    2    0    0 -0.27159847339E+03 -0.77105987357E+03 -0.16036561612E+03  0.10268977027E+04  0.60041877187E+03 0.  0.
         23    2    4    4    0    0 -0.25772314453E+02 -0.28780433793E+03  0.20771837429E+03  0.36628352353E+03  0.86724549425E+02 0.  0.
         23    2    4    4    0    0 -0.24582615894E+03 -0.48325553564E+03 -0.36808399041E+03  0.66061417917E+03  0.83419761331E+02 0.  0.
          4    1    3    3  502    0  0.11126782787E+03  0.45454338697E+03  0.59710872309E+03  0.75863630769E+03  0.00000000000E+00 0.  1.
         -4    1    3    3    0  502  0.16033064552E+03  0.31651648660E+03  0.46810797933E+03  0.58737865342E+03  0.00000000000E+00 0. -1.
         13    1    5    5    0    0 -0.52316042183E+02 -0.11495509004E+03  0.76613816562E+02  0.14772040443E+03  0.00000000000E+00 0. -1.
        -13    1    5    5    0    0  0.26543727730E+02 -0.17284924789E+03  0.13110455772E+03  0.21856311910E+03  0.00000000000E+00 0.  1.
          2    1    6    6  503    0 -0.77423295917E+02 -0.98126015587E+02 -0.11572791392E+03  0.17034092798E+03  0.00000000000E+00 0.  1.
         -2    1    6    6    0  503 -0.16840286302E+03 -0.38512952005E+03 -0.25235607649E+03  0.49027325119E+03  0.00000000000E+00 0. -1.
<mgrwt>
<rscale>  0 0.83463882E+03</rscale>
<asrwt>0</asrwt>
<pdfrwt beam="1">  1        2 0.25213567E+00 0.83463882E+03</pdfrwt>
<pdfrwt beam="2">  1       -2 0.11292781E+00 0.83463882E+03</pdfrwt>
<totfact> 0.66404916E+00</totfact>
</mgrwt>
</event>
<event>
12    1  0.1444206E-007  0.7495792E+03  0.7818608E-02  0.9636011E-01
          1   -1    0    0  501    0  0.00000000000E+00  0.00000000000E+00  0.40839176696E+03  0.40839176696E+03  0.00000000000E+00 0. -1.
         -1   -1    0    0    0  501 -0.00000000000E+00 -0.00000000000E+00 -0.17291002024E+04  0.17291002024E+04  0.00000000000E+00 0.  1.
         23    2    1    2    0    0  0.52877157670E+03 -0.43944858805E+03 -0.88944790666E+03  0.11279109703E+04  0.91384552071E+02 0.  0.
    5000000    2    1    2    0    0 -0.52877157670E+03  0.43944858805E+03 -0.43126052874E+03  0.10095809990E+04  0.60046124611E+03 0.  0.
         23    2    4    4    0    0 -0.25337332462E+03 -0.36619945786E+02  0.46153968993E+02  0.27560022403E+03  0.91028745864E+02 0.  0.
         23    2    4    4    0    0 -0.27539825208E+03  0.47606853384E+03 -0.47741449773E+03  0.73398077500E+03  0.91201585844E+02 0.  0.
          1    1    3    3  502    0  0.16371835800E+03 -0.12370397007E+03 -0.20197261396E+03  0.28792240230E+03  0.00000000000E+00 0. -1.
         -1    1    3    3    0  502  0.36505321870E+03 -0.31574461798E+03 -0.68747529270E+03  0.83998856798E+03  0.00000000000E+00 0.  1.
         11    1    5    5    0    0 -0.19422077004E+03 -0.98829864487E+01  0.69644009799E+02  0.20656637925E+03  0.00000000000E+00 0.  1.
        -11    1    5    5    0    0 -0.59152554581E+02 -0.26736959338E+02 -0.23490040806E+02  0.69033844780E+02  0.00000000000E+00 0. -1.
          3    1    6    6  503    0 -0.10857905922E+02  0.57073361031E+01 -0.31949800349E+02  0.34223640203E+02  0.00000000000E+00 0. -1.
         -3    1    6    6    0  503 -0.26454034616E+03  0.47036119774E+03 -0.44546469738E+03  0.69975713480E+03  0.00000000000E+00 0.  1.
<mgrwt>
<rscale>  0 0.74957920E+03</rscale>
<asrwt>0</asrwt>
<pdfrwt beam="1">  1        1 0.62829503E-01 0.74957920E+03</pdfrwt>
<pdfrwt beam="2">  1       -1 0.26601542E+00 0.74957920E+03</pdfrwt>
<totfact> 0.33412396E+00</totfact>
</mgrwt>
</event>
<event>
12    1  0.1444206E-007  0.5073779E+03  0.7818608E-02  0.1011871E+00
         -1   -1    0    0    0  501 -0.00000000000E+00  0.00000000000E+00  0.13822443472E+04  0.13822443472E+04  0.00000000000E+00 0. -1.
          1   -1    0    0  501    0  0.00000000000E+00 -0.00000000000E+00 -0.25461024745E+03  0.25461024745E+03  0.00000000000E+00 0.  1.
         23    2    1    2    0    0  0.35200647362E+03  0.10982002690E+02  0.68615834204E+02  0.36993772404E+03  0.90092314369E+02 0.  0.
    5000000    2    1    2    0    0 -0.35200647362E+03 -0.10982002690E+02  0.10590182656E+04  0.12669168706E+04  0.59960779551E+03 0.  0.
         23    2    4    4    0    0 -0.48207388679E+03  0.49956482343E+02  0.59535399897E+03  0.77302212456E+03  0.90696959725E+02 0.  0.
         23    2    4    4    0    0  0.13006741317E+03 -0.60938485033E+02  0.46366426660E+03  0.49389474608E+03  0.91194501816E+02 0.  0.
          4    1    3    3  502    0  0.32553070295E+03  0.35156758625E+02  0.65843331632E+02  0.33397841332E+03  0.00000000000E+00 0. -1.
         -4    1    3    3    0  502  0.26475770671E+02 -0.24174755934E+02  0.27725025717E+01  0.35959310722E+02  0.00000000000E+00 0.  1.
         11    1    5    5    0    0 -0.45480977143E+03  0.51295955518E+02  0.58725705779E+03  0.74454956529E+03  0.00000000000E+00 0.  1.
        -11    1    5    5    0    0 -0.27264115362E+02 -0.13394731751E+01  0.80969411813E+01  0.28472559269E+02  0.00000000000E+00 0. -1.
          3    1    6    6  503    0  0.63755622887E+02  0.15179760857E+02  0.23437556486E+03  0.24336620553E+03  0.00000000000E+00 0. -1.
         -3    1    6    6    0  503  0.66311790284E+02 -0.76118245891E+02  0.22928870173E+03  0.25052854055E+03  0.00000000000E+00 0.  1.
<mgrwt>
<rscale>  0 0.50737787E+03</rscale>
<asrwt>0</asrwt>
<pdfrwt beam="1">  1        1 0.39170808E-01 0.50737787E+03</pdfrwt>
<pdfrwt beam="2">  1       -1 0.21265297E+00 0.50737787E+03</pdfrwt>
<totfact> 0.14245973E+01</totfact>
</mgrwt>
</event>
<event>
12    1  0.1444206E-007  0.6795619E+03  0.7818608E-02  0.9752837E-01
          1   -1    0    0  501    0  0.00000000000E+00  0.00000000000E+00  0.10982877457E+04  0.10982877457E+04  0.00000000000E+00 0. -1.
         -1   -1    0    0    0  501 -0.00000000000E+00 -0.00000000000E+00 -0.46617976801E+03  0.46617976801E+03  0.00000000000E+00 0.  1.
         23    2    1    2    0    0  0.54266044835E+03 -0.13790487434E+03  0.44949592601E+03  0.72372310373E+03  0.90721699742E+02 0.  0.
    5000000    2    1    2    0    0 -0.54266044835E+03  0.13790487434E+03  0.18261205171E+03  0.84074441002E+03  0.60000490413E+03 0.  0.
         23    2    4    4    0    0 -0.64383569494E+03  0.59496777161E+02  0.95058234844E+02  0.65981689487E+03  0.90873528451E+02 0.  0.
         23    2    4    4    0    0  0.10117524660E+03  0.78408097180E+02  0.87553816868E+02  0.18092751515E+03  0.93192460330E+02 0.  0.
          1    1    3    3  502    0  0.28472052890E+03 -0.83998951157E+02  0.18184487632E+03  0.34812233829E+03  0.00000000000E+00 0. -1.
         -1    1    3    3    0  502  0.25793991945E+03 -0.53905923184E+02  0.26765104969E+03  0.37560076544E+03  0.00000000000E+00 0.  1.
         13    1    5    5    0    0 -0.38098972081E+03 -0.13308816284E+00  0.27658390598E+02  0.38199237119E+03  0.00000000000E+00 0.  1.
        -13    1    5    5    0    0 -0.26284597413E+03  0.59629865324E+02  0.67399844246E+02  0.27782452368E+03  0.00000000000E+00 0. -1.
          1    1    6    6  503    0  0.12568001591E+02  0.55248398942E+02  0.65728534765E+02  0.86778917555E+02  0.00000000000E+00 0. -1.
         -1    1    6    6    0  503  0.88607245005E+02  0.23159698238E+02  0.21825282103E+02  0.94148597593E+02  0.00000000000E+00 0.  1.
<mgrwt>
<rscale>  0 0.67956195E+03</rscale>
<asrwt>0</asrwt>
<pdfrwt beam="1">  1        1 0.16896734E+00 0.67956195E+03</pdfrwt>
<pdfrwt beam="2">  1       -1 0.71719965E-01 0.67956195E+03</pdfrwt>
<totfact> 0.25896554E+01</totfact>
</mgrwt>
</event>
<event>
12    1  0.1444206E-007  0.5456094E+03  0.7818608E-02  0.1002515E+00
         -2   -1    0    0    0  501 -0.00000000000E+00  0.00000000000E+00  0.10414270829E+04  0.10414270829E+04  0.00000000000E+00 0. -1.
          2   -1    0    0  501    0  0.00000000000E+00 -0.00000000000E+00 -0.43672527350E+03  0.43672527350E+03  0.00000000000E+00 0.  1.
         23    2    1    2    0    0 -0.48507023567E+03 -0.20842818626E+03  0.34728078927E+03  0.63850077559E+03  0.91344684999E+02 0.  0.
    5000000    2    1    2    0    0  0.48507023567E+03  0.20842818626E+03  0.25742102013E+03  0.83965158081E+03  0.60001146089E+03 0.  0.
         23    2    4    4    0    0  0.25603833637E+03  0.18732698134E+03 -0.15038986155E+03  0.36262952815E+03  0.90752612086E+02 0.  0.
         23    2    4    4    0    0  0.22903189930E+03  0.21101204928E+02  0.40781088168E+03  0.47702205267E+03  0.91320598830E+02 0.  0.
          3    1    3    3  502    0 -0.15155763858E+03 -0.54537873732E+02  0.15660181941E+03  0.22465134615E+03  0.00000000000E+00 0. -1.
         -3    1    3    3    0  502 -0.33351259708E+03 -0.15389031253E+03  0.19067896986E+03  0.41384942945E+03  0.00000000000E+00 0.  1.
         11    1    5    5    0    0  0.49665761660E+01  0.35707839832E+02 -0.23651449485E+02  0.43117371987E+02  0.00000000000E+00 0.  1.
        -11    1    5    5    0    0  0.25107176020E+03  0.15161914150E+03 -0.12673841206E+03  0.31951215616E+03  0.00000000000E+00 0. -1.
          1    1    6    6  503    0  0.23004920285E+03  0.23141152355E+02  0.35187282223E+03  0.42103756565E+03  0.00000000000E+00 0. -1.
         -1    1    6    6    0  503 -0.10173035510E+01 -0.20399474272E+01  0.55938059440E+02  0.55984487012E+02  0.00000000000E+00 0.  1.
<mgrwt>
<rscale>  0 0.54560938E+03</rscale>
<asrwt>0</asrwt>
<pdfrwt beam="1">  1        2 0.67188504E-01 0.54560938E+03</pdfrwt>
<pdfrwt beam="2">  1       -2 0.16021955E+00 0.54560938E+03</pdfrwt>
<totfact> 0.18698104E+01</totfact>
</mgrwt>
</event>
<event>
12    1  0.1444206E-007  0.1030922E+04  0.7818608E-02  0.9275266E-01
          2   -1    0    0  501    0  0.00000000000E+00  0.00000000000E+00  0.24432080978E+04  0.24432080978E+04  0.00000000000E+00 0. -1.
         -2   -1    0    0    0  501 -0.00000000000E+00 -0.00000000000E+00 -0.46861062327E+03  0.46861062327E+03  0.00000000000E+00 0.  1.
         23    2    1    2    0    0 -0.15313687659E+03 -0.95256250261E+03  0.11695268603E+04  0.15191700113E+04  0.96219653999E+02 0.  0.
    5000000    2    1    2    0    0  0.15313687659E+03  0.95256250261E+03  0.80507061422E+03  0.13926487098E+04  0.60042111109E+03 0.  0.
         23    2    4    4    0    0 -0.13811175092E+03  0.68262474643E+03  0.35834229646E+03  0.78916608592E+03  0.96553143631E+02 0.  0.
         23    2    4    4    0    0  0.29124862751E+03  0.26993775618E+03  0.44672831775E+03  0.60348262387E+03  0.83264231174E+02 0.  0.
          1    1    3    3  502    0 -0.75900307539E+02 -0.56965819277E+03  0.76521234407E+03  0.95698549874E+03  0.00000000000E+00 0. -1.
         -1    1    3    3    0  502 -0.77236569047E+02 -0.38290430984E+03  0.40431451622E+03  0.56218451252E+03  0.00000000000E+00 0.  1.
         13    1    5    5    0    0 -0.65143023234E+02  0.18666158225E+03  0.14069797493E+03  0.24265629997E+03  0.00000000000E+00 0.  1.
        -13    1    5    5    0    0 -0.72968727686E+02  0.49596316418E+03  0.21764432154E+03  0.54650978595E+03  0.00000000000E+00 0. -1.
          1    1    6    6  503    0  0.21052883942E+03  0.18366554172E+03  0.36575012263E+03  0.46024838473E+03  0.00000000000E+00 0.  1.
         -1    1    6    6    0  503  0.80719788090E+02  0.86272214456E+02  0.80978195127E+02  0.14323423914E+03  0.00000000000E+00 0. -1.
<mgrwt>
<rscale>  0 0.10309218E+04</rscale>
<asrwt>0</asrwt>
<pdfrwt beam="1">  1        2 0.37587816E+00 0.10309218E+04</pdfrwt>
<pdfrwt beam="2">  1       -2 0.72093944E-01 0.10309218E+04</pdfrwt>
<totfact> 0.65811022E+00</totfact>
</mgrwt>
</event>
<event>
12    1  0.1444206E-007  0.1045365E+04  0.7818608E-02  0.9260142E-01
         -1   -1    0    0    0  501 -0.00000000000E+00  0.00000000000E+00  0.87988969261E+03  0.87988969261E+03  0.00000000000E+00 0.  1.
          1   -1    0    0  501    0  0.00000000000E+00 -0.00000000000E+00 -0.15004881337E+04  0.15004881337E+04  0.00000000000E+00 0. -1.
         23    2    1    2    0    0  0.94818277859E+03 -0.41308521092E+03 -0.11037137912E+02  0.10383091399E+04  0.90961961887E+02 0.  0.
    5000000    2    1    2    0    0 -0.94818277859E+03  0.41308521092E+03 -0.60956130313E+03  0.13420686864E+04  0.59991116303E+03 0.  0.
         23    2    4    4    0    0 -0.61319337501E+02  0.21883842686E+02 -0.30071900529E+03  0.32119824775E+03  0.92181508426E+02 0.  0.
         23    2    4    4    0    0 -0.88686344109E+03  0.39120136823E+03 -0.30884229784E+03  0.10208704386E+04  0.85015374095E+02 0.  0.
          4    1    3    3  502    0  0.21375867882E+03 -0.13511548189E+03  0.35303352201E+01  0.25290596965E+03  0.00000000000E+00 0. -1.
         -4    1    3    3    0  502  0.73442409978E+03 -0.27796972903E+03 -0.14567473132E+02  0.78540317026E+03  0.00000000000E+00 0.  1.
         13    1    5    5    0    0  0.49100651003E+01 -0.70369518834E+01 -0.18207364260E+03  0.18227572181E+03  0.00000000000E+00 0.  1.
        -13    1    5    5    0    0 -0.66229402602E+02  0.28920794570E+02 -0.11864536269E+03  0.13892252595E+03  0.00000000000E+00 0. -1.
          3    1    6    6  503    0 -0.81370629671E+03  0.37870112558E+03 -0.29896756394E+03  0.94599898737E+03  0.00000000000E+00 0. -1.
         -3    1    6    6    0  503 -0.73157144382E+02  0.12500242656E+02 -0.98747339027E+01  0.74871451236E+02  0.00000000000E+00 0.  1.
<mgrwt>
<rscale>  0 0.10453653E+04</rscale>
<asrwt>0</asrwt>
<pdfrwt beam="1">  1        1 0.23084433E+00 0.10453653E+04</pdfrwt>
<pdfrwt beam="2">  1       -1 0.13536764E+00 0.10453653E+04</pdfrwt>
<totfact> 0.29886879E+00</totfact>
</mgrwt>
</event>
<event>
12    1  0.1444206E-007  0.1171382E+04  0.7818608E-02  0.9138281E-01
         -2   -1    0    0    0  501 -0.00000000000E+00  0.00000000000E+00  0.57963044020E+03  0.57963044020E+03  0.00000000000E+00 0. -1.
          2   -1    0    0  501    0  0.00000000000E+00 -0.00000000000E+00 -0.30701741380E+04  0.30701741380E+04  0.00000000000E+00 0.  1.
         23    2    1    2    0    0  0.40838112022E+02  0.11236439206E+04 -0.39307168202E+03  0.11955031218E+04  0.10236676921E+03 0.  0.
    5000000    2    1    2    0    0 -0.40838112022E+02 -0.11236439206E+04 -0.20974720158E+04  0.24543014564E+04  0.59996947431E+03 0.  0.
         23    2    4    4    0    0  0.46324735096E+02 -0.14263987501E+02 -0.30075356514E+02  0.10476783730E+03  0.87876790121E+02 0.  0.
         23    2    4    4    0    0 -0.87162847117E+02 -0.11093799331E+04 -0.20673966593E+04  0.23495336191E+04  0.88645826472E+02 0.  0.
          3    1    3    3  502    0  0.57397137626E+02  0.49172966087E+03 -0.13888583817E+03  0.51418067528E+03  0.00000000000E+00 0. -1.
         -3    1    3    3    0  502 -0.16559025604E+02  0.63191425972E+03 -0.25418584385E+03  0.68132244655E+03  0.00000000000E+00 0.  1.
         11    1    5    5    0    0  0.71653810524E+02 -0.17840722994E+02 -0.28461215900E+02  0.79136595644E+02  0.00000000000E+00 0. -1.
        -11    1    5    5    0    0 -0.25329075429E+02  0.35767354928E+01 -0.16141406133E+01  0.25631241655E+02  0.00000000000E+00 0.  1.
          1    1    6    6  503    0  0.16811048135E+01 -0.52892406244E+03 -0.10008914670E+04  0.11320544239E+04  0.00000000000E+00 0. -1.
         -1    1    6    6    0  503 -0.88843951931E+02 -0.58045587065E+03 -0.10665051922E+04  0.12174791952E+04  0.00000000000E+00 0.  1.
<mgrwt>
<rscale>  0 0.11713818E+04</rscale>
<asrwt>0</asrwt>
<pdfrwt beam="1">  1        2 0.47233448E+00 0.11713818E+04</pdfrwt>
<pdfrwt beam="2">  1       -2 0.89173915E-01 0.11713818E+04</pdfrwt>
<totfact> 0.16923979E+00</totfact>
</mgrwt>
</event>
<event>
12    1  0.1444206E-007  0.1045015E+04  0.7818608E-02  0.9260506E-01
         -2   -1    0    0    0  501 -0.00000000000E+00  0.00000000000E+00  0.87981987769E+03  0.87981987769E+03  0.00000000000E+00 0.  1.
          2   -1    0    0  501    0  0.00000000000E+00 -0.00000000000E+00 -0.15953744062E+04  0.15953744062E+04  0.00000000000E+00 0. -1.
         23    2    1    2    0    0  0.92331692760E+03 -0.42458915434E+03 -0.79354361915E+03  0.12926783002E+04  0.92280081562E+02 0.  0.
    5000000    2    1    2    0    0 -0.92331692760E+03  0.42458915434E+03  0.77989090607E+02  0.11825159838E+04  0.59955955067E+03 0.  0.
         23    2    4    4    0    0 -0.86822725734E+03  0.41472714905E+03 -0.10297586737E+03  0.97202717938E+03  0.91736740948E+02 0.  0.
         23    2    4    4    0    0 -0.55089670261E+02  0.98620052903E+01  0.18096495797E+03  0.21048880438E+03  0.91788288120E+02 0.  0.
          4    1    3    3  502    0  0.26119892873E+03 -0.11808470970E+03 -0.27784299014E+03  0.39920622014E+03  0.00000000000E+00 0.  1.
         -4    1    3    3    0  502  0.66211799888E+03 -0.30650444464E+03 -0.51570062901E+03  0.89347208003E+03  0.00000000000E+00 0. -1.
         13    1    5    5    0    0 -0.15171862870E+03  0.11247992312E+03 -0.16514489774E+02  0.18958640186E+03  0.00000000000E+00 0.  1.
        -13    1    5    5    0    0 -0.71650862864E+03  0.30224722593E+03 -0.86461377593E+02  0.78244077751E+03  0.00000000000E+00 0. -1.
          1    1    6    6  503    0 -0.51836300317E+02 -0.34819107262E+02  0.98079937884E+02  0.11627143448E+03  0.00000000000E+00 0. -1.
         -1    1    6    6    0  503 -0.32533699448E+01  0.44681112552E+02  0.82885020090E+02  0.94217369897E+02  0.00000000000E+00 0.  1.
<mgrwt>
<rscale>  0 0.10450151E+04</rscale>
<asrwt>0</asrwt>
<pdfrwt beam="1">  1        2 0.24544222E+00 0.10450151E+04</pdfrwt>
<pdfrwt beam="2">  1       -2 0.13535690E+00 0.10450151E+04</pdfrwt>
<totfact> 0.43469869E+00</totfact>
</mgrwt>
</event>
<event>
12    1  0.1444206E-007  0.8893415E+03  0.7818608E-02  0.9439004E-01
          2   -1    0    0  501    0  0.00000000000E+00  0.00000000000E+00  0.16469724316E+04  0.16469724316E+04  0.00000000000E+00 0.  1.
         -2   -1    0    0    0  501 -0.00000000000E+00 -0.00000000000E+00 -0.51735732658E+03  0.51735732658E+03  0.00000000000E+00 0. -1.
         23    2    1    2    0    0  0.81462249403E+03  0.10470721830E+03  0.44692413661E+03  0.93931639967E+03  0.89446662662E+02 0.  0.
    5000000    2    1    2    0    0 -0.81462249403E+03 -0.10470721830E+03  0.68269096841E+03  0.12250133585E+04  0.60001446720E+03 0.  0.
         23    2    4    4    0    0 -0.42100751264E+03 -0.28300480392E+03  0.56998584859E+03  0.76869466645E+03  0.93105198054E+02 0.  0.
         23    2    4    4    0    0 -0.39361498138E+03  0.17829758562E+03  0.11270511983E+03  0.45631869206E+03  0.93816427567E+02 0.  0.
          1    1    3    3  502    0  0.52491386835E+03  0.78124621476E+02  0.33510713273E+03  0.62764226760E+03  0.00000000000E+00 0. -1.
         -1    1    3    3    0  502  0.28970862568E+03  0.26582596826E+02  0.11181700388E+03  0.31167413207E+03  0.00000000000E+00 0.  1.
         11    1    5    5    0    0 -0.35856265463E+02 -0.60063170100E+02  0.92611876342E+02  0.11606125889E+03  0.00000000000E+00 0. -1.
        -11    1    5    5    0    0 -0.38515124718E+03 -0.22294163382E+03  0.47737397224E+03  0.65263340756E+03  0.00000000000E+00 0.  1.
          1    1    6    6  503    0 -0.32466559243E+03  0.18351440523E+03  0.91652544709E+02  0.38403837411E+03  0.00000000000E+00 0. -1.
         -1    1    6    6    0  503 -0.68949388956E+02 -0.52168196171E+01  0.21052575119E+02  0.72280317953E+02  0.00000000000E+00 0.  1.
<mgrwt>
<rscale>  0 0.88934148E+03</rscale>
<asrwt>0</asrwt>
<pdfrwt beam="1">  1        2 0.25338037E+00 0.88934148E+03</pdfrwt>
<pdfrwt beam="2">  1       -2 0.79593436E-01 0.88934148E+03</pdfrwt>
<totfact> 0.14823213E+01</totfact>
</mgrwt>
</event>
<event>
12    1  0.1444206E-007  0.1101626E+04  0.7818608E-02  0.9203608E-01
          2   -1    0    0  501    0  0.00000000000E+00  0.00000000000E+00  0.49375122013E+03  0.49375122013E+03  0.00000000000E+00 0. -1.
         -2   -1    0    0    0  501 -0.00000000000E+00 -0.00000000000E+00 -0.27565538654E+04  0.27565538654E+04  0.00000000000E+00 0.  1.
         23    2    1    2    0    0  0.10788961751E+04 -0.13692777013E+03 -0.10719233526E+04  0.15296526994E+04  0.89730352288E+02 0.  0.
    5000000    2    1    2    0    0 -0.10788961751E+04  0.13692777013E+03 -0.11908792927E+04  0.17206523861E+04  0.59973742030E+03 0.  0.
         23    2    4    4    0    0 -0.73912649277E+03  0.18652557693E+03 -0.11214484940E+04  0.13590295548E+04  0.90635770623E+02 0.  0.
         23    2    4    4    0    0 -0.33976968230E+03 -0.49597806797E+02 -0.69430798649E+02  0.36162283132E+03  0.89705389329E+02 0.  0.
          2    1    3    3  502    0  0.32309718048E+03 -0.22825429371E+02 -0.26854221846E+03  0.42074661182E+03  0.00000000000E+00 0. -1.
         -2    1    3    3    0  502  0.75579899459E+03 -0.11410234076E+03 -0.80338113413E+03  0.11089060876E+04  0.00000000000E+00 0.  1.
         13    1    5    5    0    0 -0.14197768818E+03  0.21168216530E+02 -0.27266430746E+03  0.30814214560E+03  0.00000000000E+00 0. -1.
        -13    1    5    5    0    0 -0.59714880459E+03  0.16535736040E+03 -0.84878418654E+03  0.10508874092E+04  0.00000000000E+00 0.  1.
          3    1    6    6  503    0 -0.10646066200E+03 -0.52034543640E+02 -0.11022564194E+01  0.11850181963E+03  0.00000000000E+00 0. -1.
         -3    1    6    6    0  503 -0.23330902030E+03  0.24367368422E+01 -0.68328542230E+02  0.24312101169E+03  0.00000000000E+00 0.  1.
<mgrwt>
<rscale>  0 0.11016260E+04</rscale>
<asrwt>0</asrwt>
<pdfrwt beam="1">  1        2 0.75961726E-01 0.11016260E+04</pdfrwt>
<pdfrwt beam="2">  1       -2 0.42408521E+00 0.11016260E+04</pdfrwt>
<totfact> 0.32421095E-01</totfact>
</mgrwt>
</event>
<event>
12    1  0.1444206E-007  0.1569241E+04  0.7818608E-02  0.8839671E-01
         -1   -1    0    0    0  501 -0.00000000000E+00  0.00000000000E+00  0.71298551239E+03  0.71298551239E+03  0.00000000000E+00 0.  1.
          1   -1    0    0  501    0  0.00000000000E+00 -0.00000000000E+00 -0.42317212072E+04  0.42317212072E+04  0.00000000000E+00 0. -1.
         23    2    1    2    0    0  0.23949252765E+02  0.15254752742E+04 -0.69409272722E+03  0.16788019720E+04  0.94672953808E+02 0.  0.
    5000000    2    1    2    0    0 -0.23949252765E+02 -0.15254752742E+04 -0.28246429675E+04  0.32659047476E+04  0.59989794718E+03 0.  0.
         23    2    4    4    0    0 -0.25894092416E+03 -0.70892162324E+03 -0.16136341691E+04  0.17838173704E+04  0.92568402389E+02 0.  0.
         23    2    4    4    0    0  0.23499167139E+03 -0.81655365098E+03 -0.12110087984E+04  0.14820873771E+04  0.89776016095E+02 0.  0.
          3    1    3    3  502    0  0.60753562212E+02  0.96767060325E+03 -0.44220111297E+03  0.10656543605E+04  0.00000000000E+00 0. -1.
         -3    1    3    3    0  502 -0.36804309446E+02  0.55780467098E+03 -0.25189161425E+03  0.61314761150E+03  0.00000000000E+00 0.  1.
         13    1    5    5    0    0 -0.12719991325E+03 -0.44954253809E+03 -0.92619051288E+03  0.10373510388E+04  0.00000000000E+00 0. -1.
        -13    1    5    5    0    0 -0.13174101091E+03 -0.25937908515E+03 -0.68744365627E+03  0.74646633167E+03  0.00000000000E+00 0.  1.
          4    1    6    6  503    0  0.21826574084E+03 -0.67918464559E+03 -0.96863040498E+03  0.12029865244E+04  0.00000000000E+00 0. -1.
         -4    1    6    6    0  503  0.16725930555E+02 -0.13736900539E+03 -0.24237839341E+03  0.27910085272E+03  0.00000000000E+00 0.  1.
<mgrwt>
<rscale>  0 0.15692406E+04</rscale>
<asrwt>0</asrwt>
<pdfrwt beam="1">  1        1 0.65103403E+00 0.15692406E+04</pdfrwt>
<pdfrwt beam="2">  1       -1 0.10969008E+00 0.15692406E+04</pdfrwt>
<totfact> 0.43672654E-02</totfact>
</mgrwt>
</event>
<event>
12    1  0.1444206E-007  0.4485351E+03  0.7818608E-02  0.1028160E+00
          3   -1    0    0  501    0  0.00000000000E+00  0.00000000000E+00  0.26124739079E+03  0.26124739079E+03  0.00000000000E+00 0. -1.
         -3   -1    0    0    0  501 -0.00000000000E+00 -0.00000000000E+00 -0.10888296769E+04  0.10888296769E+04  0.00000000000E+00 0.  1.
         23    2    1    2    0    0  0.16782575834E+03 -0.18984760521E+03  0.32539280167E+02  0.27117678507E+03  0.90941990525E+02 0.  0.
    5000000    2    1    2    0    0 -0.16782575834E+03  0.18984760521E+03 -0.86012156627E+03  0.10789002826E+04  0.60000759387E+03 0.  0.
         23    2    4    4    0    0  0.17524340507E+03  0.21462660621E+03 -0.44866839428E+03  0.53528752784E+03  0.91948780962E+02 0.  0.
         23    2    4    4    0    0 -0.34306916341E+03 -0.24779000999E+02 -0.41145317199E+03  0.54361275478E+03  0.88941917243E+02 0.  0.
          1    1    3    3  502    0  0.10863974698E+03 -0.11128652018E+03  0.63605637310E+02  0.16802666841E+03  0.00000000000E+00 0. -1.
         -1    1    3    3    0  502  0.59186011355E+02 -0.78561085031E+02 -0.31066357143E+02  0.10315011666E+03  0.00000000000E+00 0.  1.
         13    1    5    5    0    0  0.10804233438E+02  0.72668180339E+02 -0.92916035063E+02  0.11845161656E+03  0.00000000000E+00 0.  1.
        -13    1    5    5    0    0  0.16443917163E+03  0.14195842587E+03 -0.35575235921E+03  0.41683591128E+03  0.00000000000E+00 0. -1.
          3    1    6    6  503    0 -0.14710346621E+03 -0.48943054620E+02 -0.21513763207E+03  0.26517739930E+03  0.00000000000E+00 0. -1.
         -3    1    6    6    0  503 -0.19596569720E+03  0.24164053620E+02 -0.19631553992E+03  0.27843535548E+03  0.00000000000E+00 0.  1.
<mgrwt>
<rscale>  0 0.44853508E+03</rscale>
<asrwt>0</asrwt>
<pdfrwt beam="1">  1        3 0.40191907E-01 0.44853508E+03</pdfrwt>
<pdfrwt beam="2">  1       -3 0.16751225E+00 0.44853508E+03</pdfrwt>
<totfact> 0.39011648E+00</totfact>
</mgrwt>
</event>
<event>
12    1  0.1444206E-007  0.5269106E+03  0.7818608E-02  0.1006984E+00
         -2   -1    0    0    0  501 -0.00000000000E+00  0.00000000000E+00  0.75935565118E+02  0.75935565118E+02  0.00000000000E+00 0.  1.
          2   -1    0    0  501    0  0.00000000000E+00 -0.00000000000E+00 -0.38485302718E+04  0.38485302718E+04  0.00000000000E+00 0. -1.
         23    2    1    2    0    0 -0.11413147345E+03  0.34904985509E+03 -0.12953943432E+04  0.13493071742E+04  0.87872358081E+02 0.  0.
    5000000    2    1    2    0    0  0.11413147345E+03 -0.34904985509E+03 -0.24772003635E+04  0.25751586628E+04  0.60004891709E+03 0.  0.
         23    2    4    4    0    0  0.34031500170E+03 -0.16228759199E+03 -0.11575968226E+04  0.12201905216E+04  0.81749265442E+02 0.  0.
         23    2    4    4    0    0 -0.22618352824E+03 -0.18676226310E+03 -0.13196035409E+04  0.13549681412E+04  0.92444724316E+02 0.  0.
          3    1    3    3  502    0 -0.90311343320E+01  0.15571454997E+03 -0.59880371096E+03  0.61878466911E+03  0.00000000000E+00 0. -1.
         -3    1    3    3    0  502 -0.10510033912E+03  0.19333530512E+03 -0.69659063223E+03  0.73052250506E+03  0.00000000000E+00 0.  1.
         13    1    5    5    0    0  0.16900592220E+02 -0.95032484542E+01 -0.14469854485E+03  0.14599181700E+03  0.00000000000E+00 0.  1.
        -13    1    5    5    0    0  0.32341440948E+03 -0.15278434353E+03 -0.10128982777E+04  0.10741987046E+04  0.00000000000E+00 0. -1.
          1    1    6    6  503    0 -0.16501100939E+03 -0.94922385949E+02 -0.69051828929E+03  0.71627815855E+03  0.00000000000E+00 0. -1.
         -1    1    6    6    0  503 -0.61172518849E+02 -0.91839877153E+02 -0.62908525166E+03  0.63868998266E+03  0.00000000000E+00 0.  1.
<mgrwt>
<rscale>  0 0.52691064E+03</rscale>
<asrwt>0</asrwt>
<pdfrwt beam="1">  1        2 0.59208151E+00 0.52691064E+03</pdfrwt>
<pdfrwt beam="2">  1       -2 0.11682396E-01 0.52691064E+03</pdfrwt>
<totfact> 0.27475049E+01</totfact>
</mgrwt>
</event>
<event>
12    1  0.1444206E-007  0.1291963E+04  0.7818608E-02  0.9035963E-01
         -1   -1    0    0    0  501 -0.00000000000E+00  0.00000000000E+00  0.11832877771E+04  0.11832877771E+04  0.00000000000E+00 0.  1.
          1   -1    0    0  501    0  0.00000000000E+00 -0.00000000000E+00 -0.15317178658E+04  0.15317178658E+04  0.00000000000E+00 0. -1.
         23    2    1    2    0    0  0.10290628552E+04 -0.73317580048E+03  0.25619369894E+02  0.12670993847E+04  0.91473407449E+02 0.  0.
    5000000    2    1    2    0    0 -0.10290628552E+04  0.73317580048E+03 -0.37404945863E+03  0.14479062582E+04  0.60000201720E+03 0.  0.
         23    2    4    4    0    0 -0.90123558708E+02  0.23632724538E+03  0.89745263437E+02  0.28532404253E+03  0.96864721119E+02 0.  0.
         23    2    4    4    0    0 -0.93893929651E+03  0.49684855510E+03 -0.46379472206E+03  0.11625822157E+04  0.89590037049E+02 0.  0.
          4    1    3    3  502    0  0.75247128227E+03 -0.50387088106E+03 -0.13500817199E+02  0.90569374929E+03  0.00000000000E+00 0. -1.
         -4    1    3    3    0  502  0.27659157294E+03 -0.22930491942E+03  0.39120187093E+02  0.36140563544E+03  0.00000000000E+00 0.  1.
         11    1    5    5    0    0 -0.68772280192E+01  0.31737358644E+02  0.51907781409E+02  0.61228865495E+02  0.00000000000E+00 0.  1.
        -11    1    5    5    0    0 -0.83246330688E+02  0.20458988673E+03  0.37837482028E+02  0.22409517704E+03  0.00000000000E+00 0. -1.
          1    1    6    6  503    0 -0.55471317927E+03  0.34049099607E+03 -0.29805285282E+03  0.71587452304E+03  0.00000000000E+00 0.  1.
         -1    1    6    6    0  503 -0.38422611723E+03  0.15635755903E+03 -0.16574186924E+03  0.44670769262E+03  0.00000000000E+00 0. -1.
<mgrwt>
<rscale>  0 0.12919630E+04</rscale>
<asrwt>0</asrwt>
<pdfrwt beam="1">  1        1 0.23564890E+00 0.12919630E+04</pdfrwt>
<pdfrwt beam="2">  1       -1 0.18204427E+00 0.12919630E+04</pdfrwt>
<totfact> 0.12131596E+00</totfact>
</mgrwt>
</event>
<event>
12    1  0.1444206E-007  0.7459462E+03  0.7818608E-02  0.9641732E-01
         -2   -1    0    0    0  501 -0.00000000000E+00  0.00000000000E+00  0.31748466682E+03  0.31748466682E+03  0.00000000000E+00 0. -1.
          2   -1    0    0  501    0  0.00000000000E+00 -0.00000000000E+00 -0.19486294730E+04  0.19486294730E+04  0.00000000000E+00 0.  1.
         23    2    1    2    0    0 -0.64838395972E+03  0.30929803276E+02 -0.93040375795E+03  0.11381148415E+04  0.91081433673E+02 0.  0.
    5000000    2    1    2    0    0  0.64838395972E+03 -0.30929803276E+02 -0.70074104823E+03  0.11279992984E+04  0.59998832364E+03 0.  0.
         23    2    4    4    0    0 -0.83096969847E+02  0.42540348530E+02 -0.44884805962E+02  0.13863379237E+03  0.92140625836E+02 0.  0.
         23    2    4    4    0    0  0.73148092957E+03 -0.73470151806E+02 -0.65585624227E+03  0.98936550601E+03  0.90744037962E+02 0.  0.
          1    1    3    3  502    0 -0.31946148635E+02 -0.18444870240E+02 -0.58746193559E+02  0.69367751214E+02  0.00000000000E+00 0. -1.
         -1    1    3    3    0  502 -0.61643781109E+03  0.49374673517E+02 -0.87165756440E+03  0.10687470902E+04  0.00000000000E+00 0.  1.
         13    1    5    5    0    0 -0.22719937232E+02  0.24388451345E+02  0.27089193865E+02  0.42951327466E+02  0.00000000000E+00 0.  1.
        -13    1    5    5    0    0 -0.60377032615E+02  0.18151897185E+02 -0.71973999826E+02  0.95682464903E+02  0.00000000000E+00 0. -1.
          2    1    6    6  503    0  0.24758205359E+03  0.16058242163E+02 -0.20236371498E+03  0.32016529097E+03  0.00000000000E+00 0. -1.
         -2    1    6    6    0  503  0.48389887598E+03 -0.89528393969E+02 -0.45349252729E+03  0.66920021504E+03  0.00000000000E+00 0.  1.
<mgrwt>
<rscale>  0 0.74594616E+03</rscale>
<asrwt>0</asrwt>
<pdfrwt beam="1">  1        2 0.29978914E+00 0.74594616E+03</pdfrwt>
<pdfrwt beam="2">  1       -2 0.48843796E-01 0.74594616E+03</pdfrwt>
<totfact> 0.29232434E+01</totfact>
</mgrwt>
</event>
<event>
12    1  0.1444206E-007  0.1158969E+04  0.7818608E-02  0.9149549E-01
         -1   -1    0    0    0  501 -0.00000000000E+00  0.00000000000E+00  0.10054905125E+04  0.10054905125E+04  0.00000000000E+00 0.  1.
          1   -1    0    0  501    0  0.00000000000E+00 -0.00000000000E+00 -0.13610766770E+04  0.13610766770E+04  0.00000000000E+00 0. -1.
         23    2    1    2    0    0 -0.48945288854E+02 -0.10884155669E+04 -0.22074554869E+03  0.11154129236E+04  0.91505765385E+02 0.  0.
    5000000    2    1    2    0    0  0.48945288854E+02  0.10884155669E+04 -0.13484061582E+03  0.12511542659E+04  0.60013408323E+03 0.  0.
         23    2    4    4    0    0 -0.19100579602E+03  0.85902885080E+03 -0.18348040379E+03  0.90345305004E+03  0.90269454558E+02 0.  0.
         23    2    4    4    0    0  0.23995108488E+03  0.22938671614E+03  0.48639787968E+02  0.34770121591E+03  0.91299057473E+02 0.  0.
          1    1    3    3  502    0 -0.53093620928E+02 -0.37714275997E+03 -0.52101983117E+02  0.38440891070E+03  0.00000000000E+00 0.  1.
         -1    1    3    3    0  502  0.41483320737E+01 -0.71127280697E+03 -0.16864356557E+03  0.73100401285E+03  0.00000000000E+00 0. -1.
         13    1    5    5    0    0 -0.19192617256E+03  0.72612757932E+03 -0.14334516094E+03  0.76462065910E+03  0.00000000000E+00 0. -1.
        -13    1    5    5    0    0  0.92037653840E+00  0.13290127149E+03 -0.40135242843E+02  0.13883239094E+03  0.00000000000E+00 0.  1.
          4    1    6    6  503    0  0.15500199615E+03  0.19755726130E+03  0.17214321923E+02  0.25169589425E+03  0.00000000000E+00 0. -1.
         -4    1    6    6    0  503  0.84949088727E+02  0.31829454844E+02  0.31425466045E+02  0.96005321662E+02  0.00000000000E+00 0.  1.
<mgrwt>
<rscale>  0 0.11589689E+04</rscale>
<asrwt>0</asrwt>
<pdfrwt beam="1">  1        1 0.20939641E+00 0.11589689E+04</pdfrwt>
<pdfrwt beam="2">  1       -1 0.15469085E+00 0.11589689E+04</pdfrwt>
<totfact> 0.25874944E+00</totfact>
</mgrwt>
</event>
<event>
12    1  0.1444206E-007  0.7243727E+03  0.7818608E-02  0.9676436E-01
         -2   -1    0    0    0  501 -0.00000000000E+00  0.00000000000E+00  0.32211726640E+03  0.32211726640E+03  0.00000000000E+00 0.  1.
          2   -1    0    0  501    0  0.00000000000E+00 -0.00000000000E+00 -0.26425893366E+04  0.26425893366E+04  0.00000000000E+00 0. -1.
         23    2    1    2    0    0  0.49011552864E+03  0.46093603733E+03 -0.28069918890E+03  0.73461427338E+03  0.90503226913E+02 0.  0.
    5000000    2    1    2    0    0 -0.49011552864E+03 -0.46093603733E+03 -0.20397728813E+04  0.22300923296E+04  0.59996927369E+03 0.  0.
         23    2    4    4    0    0 -0.52220724058E+03 -0.39002800273E+03 -0.10924878599E+04  0.12753662759E+04  0.90593425396E+02 0.  0.
         23    2    4    4    0    0  0.32091711933E+02 -0.70908034598E+02 -0.94728502143E+03  0.95472605371E+03  0.89972765095E+02 0.  0.
          1    1    3    3  502    0  0.40812392495E+03  0.33252960345E+03 -0.22233417102E+03  0.57146614851E+03  0.00000000000E+00 0. -1.
         -1    1    3    3    0  502  0.81991603695E+02  0.12840643388E+03 -0.58365017874E+02  0.16314812487E+03  0.00000000000E+00 0.  1.
         13    1    5    5    0    0 -0.16305946867E+03 -0.14238714254E+03 -0.44158794836E+03  0.49179508417E+03  0.00000000000E+00 0. -1.
        -13    1    5    5    0    0 -0.35914777191E+03 -0.24764086019E+03 -0.65089991153E+03  0.78357119175E+03  0.00000000000E+00 0.  1.
          1    1    6    6  503    0 -0.20113736209E+02 -0.60813858237E+02 -0.59733367456E+03  0.60075819303E+03  0.00000000000E+00 0. -1.
         -1    1    6    6    0  503  0.52205448142E+02 -0.10094176361E+02 -0.34995134687E+03  0.35396786067E+03  0.00000000000E+00 0.  1.
<mgrwt>
<rscale>  0 0.72437273E+03</rscale>
<asrwt>0</asrwt>
<pdfrwt beam="1">  1        2 0.40655221E+00 0.72437273E+03</pdfrwt>
<pdfrwt beam="2">  1       -2 0.49556502E-01 0.72437273E+03</pdfrwt>
<totfact> 0.11695332E+01</totfact>
</mgrwt>
</event>
<event>
12    1  0.1444206E-007  0.4458549E+03  0.7818608E-02  0.1028965E+00
          2   -1    0    0  501    0  0.00000000000E+00  0.00000000000E+00  0.12169400598E+04  0.12169400598E+04  0.00000000000E+00 0. -1.
         -2   -1    0    0    0  501 -0.00000000000E+00 -0.00000000000E+00 -0.33563332323E+03  0.33563332323E+03  0.00000000000E+00 0.  1.
         23    2    1    2    0    0 -0.14368714011E+03  0.39484807757E+03  0.32138560994E+02  0.43117956547E+03  0.91279417092E+02 0.  0.
    5000000    2    1    2    0    0  0.14368714011E+03 -0.39484807757E+03  0.84916817558E+03  0.11213938176E+04  0.59990541342E+03 0.  0.
         23    2    4    4    0    0  0.27632174060E+02 -0.27784019874E+03  0.88089400536E+03  0.92866266516E+03  0.92094429284E+02 0.  0.
         23    2    4    4    0    0  0.11605496605E+03 -0.11700787883E+03 -0.31725829785E+02  0.19273115239E+03  0.94758482338E+02 0.  0.
          3    1    3    3  502    0 -0.15308159495E+03  0.32458023319E+03  0.31935159277E+02  0.36028621524E+03  0.00000000000E+00 0. -1.
         -3    1    3    3    0  502  0.93944548433E+01  0.70267844374E+02  0.20340171742E+00  0.70893350232E+02  0.00000000000E+00 0.  1.
         11    1    5    5    0    0  0.18500693261E+02 -0.13729161266E+03  0.29251305393E+03  0.32365900154E+03  0.00000000000E+00 0. -1.
        -11    1    5    5    0    0  0.91314807987E+01 -0.14054858608E+03  0.58838095143E+03  0.60500366362E+03  0.00000000000E+00 0.  1.
          3    1    6    6  503    0 -0.62485320127E+01 -0.34448018184E+02 -0.28485281714E+02  0.45134481092E+02  0.00000000000E+00 0. -1.
         -3    1    6    6    0  503  0.12230349806E+03 -0.82559860645E+02 -0.32405480714E+01  0.14759667130E+03  0.00000000000E+00 0.  1.
<mgrwt>
<rscale>  0 0.44585491E+03</rscale>
<asrwt>0</asrwt>
<pdfrwt beam="1">  1        2 0.18722155E+00 0.44585491E+03</pdfrwt>
<pdfrwt beam="2">  1       -2 0.51635897E-01 0.44585491E+03</pdfrwt>
<totfact> 0.69031031E+01</totfact>
</mgrwt>
</event>
<event>
12    1  0.1444206E-007  0.1225453E+04  0.7818608E-02  0.9090865E-01
          2   -1    0    0  501    0  0.00000000000E+00  0.00000000000E+00  0.11146816774E+04  0.11146816774E+04  0.00000000000E+00 0.  1.
         -2   -1    0    0    0  501 -0.00000000000E+00 -0.00000000000E+00 -0.21041771459E+04  0.21041771459E+04  0.00000000000E+00 0. -1.
         23    2    1    2    0    0  0.10860013857E+04  0.43878180244E+03 -0.14118160701E+04  0.18367154513E+04  0.91490728634E+02 0.  0.
    5000000    2    1    2    0    0 -0.10860013857E+04 -0.43878180244E+03  0.42232060159E+03  0.13821433720E+04  0.60003094125E+03 0.  0.
         23    2    4    4    0    0 -0.10027921635E+04 -0.20381200560E+03  0.43529179243E+03  0.11163783871E+04  0.98439331367E+02 0.  0.
         23    2    4    4    0    0 -0.83209222194E+02 -0.23496979684E+03 -0.12971190835E+02  0.26576498488E+03  0.91258946473E+02 0.  0.
          3    1    3    3  502    0  0.76932555131E+03  0.27261642476E+03 -0.10167381607E+04  0.13038167073E+04  0.00000000000E+00 0. -1.
         -3    1    3    3    0  502  0.31667583435E+03  0.16616537767E+03 -0.39507790941E+03  0.53289874395E+03  0.00000000000E+00 0.  1.
         11    1    5    5    0    0 -0.85205435458E+03 -0.20628467557E+03  0.38463729098E+03  0.95733789027E+03  0.00000000000E+00 0.  1.
        -11    1    5    5    0    0 -0.15073780889E+03  0.24726699699E+01  0.50654501450E+02  0.15904049687E+03  0.00000000000E+00 0. -1.
          2    1    6    6  503    0 -0.14815890023E+02 -0.28020790830E+02 -0.34376020275E+02  0.46758807575E+02  0.00000000000E+00 0. -1.
         -2    1    6    6    0  503 -0.68393332172E+02 -0.20694900601E+03  0.21404829441E+02  0.21900617730E+03  0.00000000000E+00 0.  1.
<mgrwt>
<rscale>  0 0.12254525E+04</rscale>
<asrwt>0</asrwt>
<pdfrwt beam="1">  1        2 0.17148949E+00 0.12254525E+04</pdfrwt>
<pdfrwt beam="2">  1       -2 0.32371956E+00 0.12254525E+04</pdfrwt>
<totfact> 0.47299925E-01</totfact>
</mgrwt>
</event>
<event>
12    1  0.1444206E-007  0.7476670E+03  0.7818608E-02  0.9639018E-01
          2   -1    0    0  501    0  0.00000000000E+00  0.00000000000E+00  0.24921132823E+04  0.24921132823E+04  0.00000000000E+00 0. -1.
         -2   -1    0    0    0  501 -0.00000000000E+00 -0.00000000000E+00 -0.51490319581E+03  0.51490319581E+03  0.00000000000E+00 0.  1.
         23    2    1    2    0    0 -0.28145547265E+03  0.66889276783E+03  0.19301974293E+04  0.20641747429E+04  0.92306745441E+02 0.  0.
    5000000    2    1    2    0    0  0.28145547265E+03 -0.66889276783E+03  0.47012657134E+02  0.94284173514E+03  0.60008801826E+03 0.  0.
         23    2    4    4    0    0 -0.26238201300E+02 -0.11061246802E+03  0.23093096312E+03  0.27299789122E+03  0.90968003147E+02 0.  0.
         23    2    4    4    0    0  0.30769367395E+03 -0.55828029981E+03 -0.18391830599E+03  0.66984384392E+03  0.92263437021E+02 0.  0.
          1    1    3    3  502    0 -0.78213785577E+02  0.30214011905E+03  0.80365100771E+03  0.86212585507E+03  0.00000000000E+00 0. -1.
         -1    1    3    3    0  502 -0.20324168708E+03  0.36675264878E+03  0.11265464216E+04  0.12020488879E+04  0.00000000000E+00 0.  1.
         13    1    5    5    0    0  0.10992083596E+02 -0.14755684313E+02  0.12129512293E+03  0.12268277372E+03  0.00000000000E+00 0.  1.
        -13    1    5    5    0    0 -0.37230284896E+02 -0.95856783705E+02  0.10963584019E+03  0.15031511751E+03  0.00000000000E+00 0. -1.
          4    1    6    6  503    0  0.13960735966E+03 -0.33735295345E+03 -0.82552042334E+02  0.37431546824E+03  0.00000000000E+00 0. -1.
         -4    1    6    6    0  503  0.16808631429E+03 -0.22092734636E+03 -0.10136626365E+03  0.29552837567E+03  0.00000000000E+00 0.  1.
<mgrwt>
<rscale>  0 0.74766704E+03</rscale>
<asrwt>0</asrwt>
<pdfrwt beam="1">  1        2 0.38340204E+00 0.74766704E+03</pdfrwt>
<pdfrwt beam="2">  1       -2 0.79215878E-01 0.74766704E+03</pdfrwt>
<totfact> 0.52203176E+00</totfact>
</mgrwt>
</event>
<event>
12    1  0.1444206E-007  0.6778134E+03  0.7818608E-02  0.9755945E-01
         -2   -1    0    0    0  501 -0.00000000000E+00  0.00000000000E+00  0.55401037024E+03  0.55401037024E+03  0.00000000000E+00 0.  1.
          2   -1    0    0  501    0  0.00000000000E+00 -0.00000000000E+00 -0.93865718290E+03  0.93865718290E+03  0.00000000000E+00 0. -1.
         23    2    1    2    0    0 -0.95691260980E+01  0.59233374253E+03 -0.16390831177E+03  0.62114825279E+03  0.89489589166E+02 0.  0.
    5000000    2    1    2    0    0  0.95691260980E+01 -0.59233374253E+03 -0.22073850089E+03  0.87151930034E+03  0.59989130213E+03 0.  0.
         23    2    4    4    0    0  0.20028262992E+03 -0.49309852452E+03  0.14429348525E+02  0.54017416499E+03  0.91217518511E+02 0.  0.
         23    2    4    4    0    0 -0.19071350382E+03 -0.99235218007E+02 -0.23516784942E+03  0.33134513535E+03  0.90919812419E+02 0.  0.
          2    1    3    3  502    0 -0.10322321193E+02  0.36188204404E+03 -0.54734689244E+02  0.36614348325E+03  0.00000000000E+00 0. -1.
         -2    1    3    3    0  502  0.75319509484E+00  0.23045169849E+03 -0.10917362252E+03  0.25500476955E+03  0.00000000000E+00 0.  1.
         13    1    5    5    0    0  0.78460410685E+02 -0.16134932421E+03  0.46411990994E+02  0.18532056922E+03  0.00000000000E+00 0. -1.
        -13    1    5    5    0    0  0.12182221924E+03 -0.33174920032E+03 -0.31982642469E+02  0.35485359577E+03  0.00000000000E+00 0.  1.
          2    1    6    6  503    0 -0.14836405465E+03 -0.33458911641E+02 -0.17982879109E+03  0.23552024453E+03  0.00000000000E+00 0. -1.
         -2    1    6    6    0  503 -0.42349449173E+02 -0.65776306365E+02 -0.55339058328E+02  0.95824890822E+02  0.00000000000E+00 0.  1.
<mgrwt>
<rscale>  0 0.67781337E+03</rscale>
<asrwt>0</asrwt>
<pdfrwt beam="1">  1        2 0.14440880E+00 0.67781337E+03</pdfrwt>
<pdfrwt beam="2">  1       -2 0.85232365E-01 0.67781337E+03</pdfrwt>
<totfact> 0.33820588E+01</totfact>
</mgrwt>
</event>
<event>
12    1  0.1444206E-007  0.4571931E+03  0.7818608E-02  0.1025598E+00
          1   -1    0    0  501    0  0.00000000000E+00  0.00000000000E+00  0.22007777377E+04  0.22007777377E+04  0.00000000000E+00 0. -1.
         -1   -1    0    0    0  501 -0.00000000000E+00 -0.00000000000E+00 -0.18410656974E+03  0.18410656974E+03  0.00000000000E+00 0.  1.
         23    2    1    2    0    0 -0.18256562017E+03 -0.29391877999E+03  0.14400497130E+04  0.14836051790E+04  0.87308054711E+02 0.  0.
    5000000    2    1    2    0    0  0.18256562017E+03  0.29391877999E+03  0.57662145497E+03  0.90127912842E+03  0.60007775337E+03 0.  0.
         23    2    4    4    0    0  0.24095993119E+02 -0.11633583731E+03  0.38574398132E+03  0.41328016694E+03  0.88811223015E+02 0.  0.
         23    2    4    4    0    0  0.15846962705E+03  0.41025461731E+03  0.19087747365E+03  0.48799896148E+03  0.91034623859E+02 0.  0.
          2    1    3    3  502    0 -0.11019075141E+03 -0.23042758814E+03  0.92406883240E+03  0.95871897973E+03  0.00000000000E+00 0. -1.
         -2    1    3    3    0  502 -0.72374868756E+02 -0.63491191854E+02  0.51598088057E+03  0.52488619927E+03  0.00000000000E+00 0.  1.
         13    1    5    5    0    0 -0.30393698420E+01 -0.60540006085E+02  0.75149700394E+02  0.96549508415E+02  0.00000000000E+00 0. -1.
        -13    1    5    5    0    0  0.27135362961E+02 -0.55795831226E+02  0.31059428093E+03  0.31673065853E+03  0.00000000000E+00 0.  1.
          4    1    6    6  503    0  0.13849108546E+03  0.34409382095E+03  0.19444608034E+03  0.41879543519E+03  0.00000000000E+00 0. -1.
         -4    1    6    6    0  503  0.19978541585E+02  0.66160796351E+02 -0.35686066948E+01  0.69203526293E+02  0.00000000000E+00 0.  1.
<mgrwt>
<rscale>  0 0.45719314E+03</rscale>
<asrwt>0</asrwt>
<pdfrwt beam="1">  1        1 0.33858117E+00 0.45719314E+03</pdfrwt>
<pdfrwt beam="2">  1       -1 0.28324089E-01 0.45719314E+03</pdfrwt>
<totfact> 0.26915702E+01</totfact>
</mgrwt>
</event>
<event>
12    1  0.1444206E-007  0.5046947E+03  0.7818608E-02  0.1012561E+00
         -1   -1    0    0    0  501 -0.00000000000E+00  0.00000000000E+00  0.57870815031E+03  0.57870815031E+03  0.00000000000E+00 0.  1.
          1   -1    0    0  501    0  0.00000000000E+00 -0.00000000000E+00 -0.68133748164E+03  0.68133748164E+03  0.00000000000E+00 0. -1.
         23    2    1    2    0    0  0.30499227050E+03  0.23881440849E+03 -0.32464248089E+03  0.51359516332E+03  0.91294274834E+02 0.  0.
    5000000    2    1    2    0    0 -0.30499227050E+03 -0.23881440849E+03  0.22201314956E+03  0.74645046863E+03  0.59820218720E+03 0.  0.
         23    2    4    4    0    0 -0.10406596464E+02 -0.30668162856E+03  0.27861128410E+03  0.42489177473E+03  0.93524617396E+02 0.  0.
         23    2    4    4    0    0 -0.29458567404E+03  0.67867220067E+02 -0.56598134532E+02  0.32155869390E+03  0.93861418513E+02 0.  0.
          1    1    3    3  502    0  0.12896348792E+03  0.47200396831E+02 -0.10061462719E+03  0.17024324328E+03  0.00000000000E+00 0. -1.
         -1    1    3    3    0  502  0.17602878258E+03  0.19161401166E+03 -0.22402785370E+03  0.34335192004E+03  0.00000000000E+00 0.  1.
         13    1    5    5    0    0  0.91698973273E+01 -0.19332389651E+03  0.11579349683E+03  0.22553569537E+03  0.00000000000E+00 0.  1.
        -13    1    5    5    0    0 -0.19576493791E+02 -0.11335773205E+03  0.16281778727E+03  0.19935607935E+03  0.00000000000E+00 0. -1.
          2    1    6    6  503    0 -0.28390248679E+03  0.69971271507E+02 -0.31363639692E+02  0.29407529433E+03  0.00000000000E+00 0. -1.
         -2    1    6    6    0  503 -0.10683187247E+02 -0.21040514397E+01 -0.25234494840E+02  0.27483399572E+02  0.00000000000E+00 0.  1.
<mgrwt>
<rscale>  0 0.50469467E+03</rscale>
<asrwt>0</asrwt>
<pdfrwt beam="1">  1        1 0.10482115E+00 0.50469467E+03</pdfrwt>
<pdfrwt beam="2">  1       -1 0.89032023E-01 0.50469467E+03</pdfrwt>
<totfact> 0.37014029E+01</totfact>
</mgrwt>
</event>
<event>
12    1  0.1444206E-007  0.5297843E+03  0.7818608E-02  0.1006284E+00
         -1   -1    0    0    0  501 -0.00000000000E+00  0.00000000000E+00  0.35933678345E+03  0.35933678345E+03  0.00000000000E+00 0.  1.
          1   -1    0    0  501    0  0.00000000000E+00 -0.00000000000E+00 -0.12673009199E+04  0.12673009199E+04  0.00000000000E+00 0. -1.
         23    2    1    2    0    0  0.41629286251E+03 -0.30240311891E+03 -0.18234725857E+03  0.55370907935E+03  0.92713689045E+02 0.  0.
    5000000    2    1    2    0    0 -0.41629286251E+03  0.30240311891E+03 -0.72561687790E+03  0.10729286240E+04  0.59992381606E+03 0.  0.
         23    2    4    4    0    0 -0.26532327350E+03  0.16649795217E+03 -0.11732325930E+02  0.32539491066E+03  0.87328076101E+02 0.  0.
         23    2    4    4    0    0 -0.15096958901E+03  0.13590516674E+03 -0.71388455197E+03  0.74753371338E+03  0.88957674953E+02 0.  0.
          3    1    3    3  502    0  0.21202222324E+03 -0.10860731408E+03 -0.11331328082E+03  0.26379702695E+03  0.00000000000E+00 0. -1.
         -3    1    3    3    0  502  0.20427063927E+03 -0.19379580483E+03 -0.69033977754E+02  0.28991205239E+03  0.00000000000E+00 0.  1.
         11    1    5    5    0    0 -0.93056756238E+02  0.19898650556E+02 -0.26290592942E+02  0.98725434680E+02  0.00000000000E+00 0. -1.
        -11    1    5    5    0    0 -0.17226651726E+03  0.14659930162E+03  0.14558267012E+02  0.22666947598E+03  0.00000000000E+00 0.  1.
          1    1    6    6  503    0 -0.48803241722E+02  0.52179273453E+00 -0.11121523916E+03  0.12145311068E+03  0.00000000000E+00 0. -1.
         -1    1    6    6    0  503 -0.10216634729E+03  0.13538337401E+03 -0.60266931281E+03  0.62608060270E+03  0.00000000000E+00 0.  1.
<mgrwt>
<rscale>  0 0.52978429E+03</rscale>
<asrwt>0</asrwt>
<pdfrwt beam="1">  1        1 0.19496938E+00 0.52978429E+03</pdfrwt>
<pdfrwt beam="2">  1       -1 0.55282580E-01 0.52978429E+03</pdfrwt>
<totfact> 0.33496208E+01</totfact>
</mgrwt>
</event>
<event>
12    1  0.1444206E-007  0.9664124E+03  0.7818608E-02  0.9346170E-01
         -2   -1    0    0    0  501 -0.00000000000E+00  0.00000000000E+00  0.11605566585E+04  0.11605566585E+04  0.00000000000E+00 0.  1.
          2   -1    0    0  501    0  0.00000000000E+00 -0.00000000000E+00 -0.11762965391E+04  0.11762965391E+04  0.00000000000E+00 0. -1.
         23    2    1    2    0    0  0.89421887917E+03 -0.27012769904E+02 -0.62876727261E+03  0.10974461109E+04  0.93180414562E+02 0.  0.
    5000000    2    1    2    0    0 -0.89421887917E+03  0.27012769904E+02  0.61302739206E+03  0.12394070867E+04  0.59997520746E+03 0.  0.
         23    2    4    4    0    0 -0.75605179776E+03  0.21914985463E+03  0.32899529015E+03  0.85803422357E+03  0.91344667051E+02 0.  0.
         23    2    4    4    0    0 -0.13816708140E+03 -0.19213708472E+03  0.28403210191E+03  0.38137286313E+03  0.93617434849E+02 0.  0.
          4    1    3    3  502    0  0.61810320784E+03  0.20866121602E+02 -0.41139524466E+03  0.74278733020E+03  0.00000000000E+00 0.  1.
         -4    1    3    3    0  502  0.27611567132E+03 -0.47878891506E+02 -0.21737202795E+03  0.35465878071E+03  0.00000000000E+00 0. -1.
         13    1    5    5    0    0 -0.28223222247E+03  0.70437010148E+02  0.16832928781E+03  0.33608205685E+03  0.00000000000E+00 0.  1.
        -13    1    5    5    0    0 -0.47381957529E+03  0.14871284448E+03  0.16066600234E+03  0.52195216673E+03  0.00000000000E+00 0. -1.
          4    1    6    6  503    0 -0.14532978207E+03 -0.17152661751E+03  0.22341623539E+03  0.31694942863E+03  0.00000000000E+00 0. -1.
         -4    1    6    6    0  503  0.71627006640E+01 -0.20610467214E+02  0.60615866520E+02  0.64423434506E+02  0.00000000000E+00 0.  1.
<mgrwt>
<rscale>  0 0.96641237E+03</rscale>
<asrwt>0</asrwt>
<pdfrwt beam="1">  1        2 0.18096870E+00 0.96641237E+03</pdfrwt>
<pdfrwt beam="2">  1       -2 0.17854718E+00 0.96641237E+03</pdfrwt>
<totfact> 0.36145235E+00</totfact>
</mgrwt>
</event>
<event>
12    1  0.1444206E-007  0.2311435E+04  0.7818608E-02  0.8473426E-01
         -2   -1    0    0    0  501 -0.00000000000E+00  0.00000000000E+00  0.24778355287E+04  0.24778355287E+04  0.00000000000E+00 0.  1.
          2   -1    0    0  501    0  0.00000000000E+00 -0.00000000000E+00 -0.21926917306E+04  0.21926917306E+04  0.00000000000E+00 0. -1.
         23    2    1    2    0    0 -0.15268955026E+04 -0.17083260903E+04  0.12427510465E+03  0.22964346795E+04  0.91542499439E+02 0.  0.
    5000000    2    1    2    0    0  0.15268955026E+04  0.17083260903E+04  0.16086869345E+03  0.23740925797E+04  0.60054053490E+03 0.  0.
         23    2    4    4    0    0  0.82390907350E+03  0.61193805285E+03  0.26675997244E+03  0.10642963624E+04  0.90947909135E+02 0.  0.
         23    2    4    4    0    0  0.70298642905E+03  0.10963880375E+04 -0.10589127899E+03  0.13097962173E+04  0.89980663922E+02 0.  0.
          1    1    3    3  502    0 -0.10248253723E+04 -0.10952898940E+04  0.54317752163E+02  0.15009588315E+04  0.00000000000E+00 0. -1.
         -1    1    3    3    0  502 -0.50207013029E+03 -0.61303619626E+03  0.69957352486E+02  0.79547584804E+03  0.00000000000E+00 0.  1.
         13    1    5    5    0    0  0.57304134395E+03  0.45974861170E+03  0.15877095267E+03  0.75163380928E+03  0.00000000000E+00 0. -1.
        -13    1    5    5    0    0  0.25086772955E+03  0.15218944115E+03  0.10798901977E+03  0.31266255311E+03  0.00000000000E+00 0.  1.
          4    1    6    6  503    0  0.48679477600E+03  0.76107709162E+03 -0.31736820279E+02  0.90399929153E+03  0.00000000000E+00 0. -1.
         -4    1    6    6    0  503  0.21619165305E+03  0.33531094585E+03 -0.74154458713E+02  0.40579692581E+03  0.00000000000E+00 0.  1.
<mgrwt>
<rscale>  0 0.23114353E+04</rscale>
<asrwt>0</asrwt>
<pdfrwt beam="1">  1        2 0.33733719E+00 0.23114353E+04</pdfrwt>
<pdfrwt beam="2">  1       -2 0.38120547E+00 0.23114353E+04</pdfrwt>
<totfact> 0.44053574E-02</totfact>
</mgrwt>
</event>
<event>
12    1  0.1444206E-007  0.4143794E+03  0.7818608E-02  0.1038911E+00
          1   -1    0    0  501    0  0.00000000000E+00  0.00000000000E+00  0.17282579365E+04  0.17282579365E+04  0.00000000000E+00 0. -1.
         -1   -1    0    0    0  501 -0.00000000000E+00 -0.00000000000E+00 -0.16415458263E+03  0.16415458263E+03  0.00000000000E+00 0.  1.
         23    2    1    2    0    0 -0.20649804019E+03  0.23672086049E+03  0.24079186276E+03  0.40586442656E+03  0.89816508421E+02 0.  0.
    5000000    2    1    2    0    0  0.20649804019E+03 -0.23672086049E+03  0.13233114911E+04  0.14865480926E+04  0.59999476881E+03 0.  0.
         23    2    4    4    0    0  0.31325687861E+03 -0.12342451576E+03  0.34030352185E+03  0.48722535786E+03  0.90656380157E+02 0.  0.
         23    2    4    4    0    0 -0.10675883842E+03 -0.11329634472E+03  0.98300796924E+03  0.99932273469E+03  0.90043040664E+02 0.  0.
          4    1    3    3  502    0 -0.41714015796E+01  0.10559617882E+02  0.41002329329E+02  0.42545236294E+02  0.00000000000E+00 0. -1.
         -4    1    3    3    0  502 -0.20232663861E+03  0.22616124260E+03  0.19978953343E+03  0.36331919027E+03  0.00000000000E+00 0.  1.
         11    1    5    5    0    0  0.87874808992E+02 -0.54946197039E+02  0.15978929867E+03  0.19045652154E+03  0.00000000000E+00 0.  1.
        -11    1    5    5    0    0  0.22538206962E+03 -0.68478318722E+02  0.18051422318E+03  0.29676883632E+03  0.00000000000E+00 0. -1.
          1    1    6    6  503    0 -0.50296263243E+02 -0.24485003361E+01  0.40233267875E+03  0.40547169278E+03  0.00000000000E+00 0. -1.
         -1    1    6    6    0  503 -0.56462575178E+02 -0.11084784439E+03  0.58067529049E+03  0.59385104192E+03  0.00000000000E+00 0.  1.
<mgrwt>
<rscale>  0 0.41437937E+03</rscale>
<asrwt>0</asrwt>
<pdfrwt beam="1">  1        1 0.26588582E+00 0.41437937E+03</pdfrwt>
<pdfrwt beam="2">  1       -1 0.25254552E-01 0.41437937E+03</pdfrwt>
<totfact> 0.67672031E+01</totfact>
</mgrwt>
</event>
<event>
12    1  0.1444206E-007  0.9363334E+03  0.7818608E-02  0.9381269E-01
          1   -1    0    0  501    0  0.00000000000E+00  0.00000000000E+00  0.23389277759E+04  0.23389277759E+04  0.00000000000E+00 0. -1.
         -1   -1    0    0    0  501 -0.00000000000E+00 -0.00000000000E+00 -0.43325431205E+03  0.43325431205E+03  0.00000000000E+00 0.  1.
         23    2    1    2    0    0  0.84641446252E+03 -0.58332673390E+02  0.39877695463E+03  0.94172283880E+03  0.89435465156E+02 0.  0.
    5000000    2    1    2    0    0 -0.84641446252E+03  0.58332673390E+02  0.15068965092E+04  0.18304592491E+04  0.60001985810E+03 0.  0.
         23    2    4    4    0    0 -0.48174933308E+03 -0.24668270021E+03  0.70509539438E+03  0.89388338655E+03  0.94515707956E+02 0.  0.
         23    2    4    4    0    0 -0.36466512943E+03  0.30501537360E+03  0.80180111480E+03  0.93657586256E+03  0.90963090751E+02 0.  0.
          3    1    3    3  502    0  0.44647716207E+03 -0.46667435202E+01  0.24944759593E+03  0.51145648677E+03  0.00000000000E+00 0. -1.
         -3    1    3    3    0  502  0.39993730044E+03 -0.53665929870E+02  0.14932935870E+03  0.43026635202E+03  0.00000000000E+00 0.  1.
         11    1    5    5    0    0 -0.47516997520E+03 -0.22943728730E+03  0.65893991099E+03  0.84417402259E+03  0.00000000000E+00 0. -1.
        -11    1    5    5    0    0 -0.65793578861E+01 -0.17245412919E+02  0.46155483398E+02  0.49709363953E+02  0.00000000000E+00 0.  1.
          1    1    6    6  503    0 -0.17394993830E+03  0.16670789129E+03  0.32308779167E+03  0.40303327801E+03  0.00000000000E+00 0. -1.
         -1    1    6    6    0  503 -0.19071519113E+03  0.13830748231E+03  0.47871332313E+03  0.53354258455E+03  0.00000000000E+00 0.  1.
<mgrwt>
<rscale>  0 0.93633345E+03</rscale>
<asrwt>0</asrwt>
<pdfrwt beam="1">  1        1 0.35983503E+00 0.93633345E+03</pdfrwt>
<pdfrwt beam="2">  1       -1 0.66654511E-01 0.93633345E+03</pdfrwt>
<totfact> 0.40924413E+00</totfact>
</mgrwt>
</event>
<event>
12    1  0.1444206E-007  0.7899922E+03  0.7818608E-02  0.9574617E-01
         -1   -1    0    0    0  501 -0.00000000000E+00  0.00000000000E+00  0.56502987680E+03  0.56502987680E+03  0.00000000000E+00 0.  1.
          1   -1    0    0  501    0  0.00000000000E+00 -0.00000000000E+00 -0.11620928656E+04  0.11620928656E+04  0.00000000000E+00 0. -1.
         23    2    1    2    0    0 -0.32747518070E+03 -0.60989907369E+03 -0.18193864507E+03  0.72154773273E+03  0.91173384142E+02 0.  0.
    5000000    2    1    2    0    0  0.32747518070E+03  0.60989907369E+03 -0.41512434369E+03  0.10055750096E+04  0.59969659430E+03 0.  0.
         23    2    4    4    0    0 -0.65134038292E+02  0.43983564615E+03 -0.94134295791E+02  0.46299902794E+03  0.88368521889E+02 0.  0.
         23    2    4    4    0    0  0.39260921899E+03  0.17006342754E+03 -0.32099004790E+03  0.54257598169E+03  0.91052275296E+02 0.  0.
          4    1    3    3  502    0 -0.58248492613E+02 -0.49267540538E+02 -0.21499258067E+02  0.79261564076E+02  0.00000000000E+00 0. -1.
         -4    1    3    3    0  502 -0.26922668809E+03 -0.56063153315E+03 -0.16043938700E+03  0.64228616865E+03  0.00000000000E+00 0.  1.
         13    1    5    5    0    0 -0.35731234631E+02  0.21367761576E+03 -0.98134181945E+00  0.21664673465E+03  0.00000000000E+00 0. -1.
        -13    1    5    5    0    0 -0.29402803661E+02  0.22615803040E+03 -0.93152953971E+02  0.24635229329E+03  0.00000000000E+00 0.  1.
          4    1    6    6  503    0  0.14566591101E+03  0.17303106168E+02 -0.11845919219E+03  0.18854849596E+03  0.00000000000E+00 0. -1.
         -4    1    6    6    0  503  0.24694330798E+03  0.15276032137E+03 -0.20253085570E+03  0.35402748573E+03  0.00000000000E+00 0.  1.
<mgrwt>
<rscale>  0 0.78999218E+03</rscale>
<asrwt>0</asrwt>
<pdfrwt beam="1">  1        1 0.17878352E+00 0.78999218E+03</pdfrwt>
<pdfrwt beam="2">  1       -1 0.86927673E-01 0.78999218E+03</pdfrwt>
<totfact> 0.15255128E+01</totfact>
</mgrwt>
</event>
<event>
12    1  0.1444206E-007  0.4340033E+03  0.7818608E-02  0.1032603E+00
          1   -1    0    0  501    0  0.00000000000E+00  0.00000000000E+00  0.59253680960E+03  0.59253680960E+03  0.00000000000E+00 0. -1.
         -1   -1    0    0    0  501 -0.00000000000E+00 -0.00000000000E+00 -0.35197546378E+03  0.35197546378E+03  0.00000000000E+00 0.  1.
         23    2    1    2    0    0  0.24341691929E+02  0.23129906629E+03  0.15813518015E+03  0.29575950856E+03  0.91515985870E+02 0.  0.
    5000000    2    1    2    0    0 -0.24341691929E+02 -0.23129906629E+03  0.82426165666E+02  0.64875276482E+03  0.59999525085E+03 0.  0.
         23    2    4    4    0    0 -0.24320571441E+03 -0.27517358566E+03 -0.35392160509E+02  0.38007266200E+03  0.91285823697E+02 0.  0.
         23    2    4    4    0    0  0.21886402248E+03  0.43874519365E+02  0.11781832618E+03  0.26868010282E+03  0.92094548594E+02 0.  0.
          3    1    3    3  502    0 -0.34400797607E+02  0.65785760716E+02  0.50157472351E+02  0.89593265492E+02  0.00000000000E+00 0. -1.
         -3    1    3    3    0  502  0.58742489535E+02  0.16551330558E+03  0.10797770780E+03  0.20616624307E+03  0.00000000000E+00 0.  1.
         11    1    5    5    0    0 -0.17752613542E+03 -0.25250030538E+03 -0.23241753255E+02  0.30953531635E+03  0.00000000000E+00 0. -1.
        -11    1    5    5    0    0 -0.65679578991E+02 -0.22673280282E+02 -0.12150407254E+02  0.70537345652E+02  0.00000000000E+00 0.  1.
          2    1    6    6  503    0  0.14040062210E+03 -0.15983470809E+02  0.54655503821E+02  0.15150917505E+03  0.00000000000E+00 0. -1.
         -2    1    6    6    0  503  0.78463400385E+02  0.59857990174E+02  0.63162822354E+02  0.11717092777E+03  0.00000000000E+00 0.  1.
<mgrwt>
<rscale>  0 0.43400327E+03</rscale>
<asrwt>0</asrwt>
<pdfrwt beam="1">  1        1 0.91159509E-01 0.43400327E+03</pdfrwt>
<pdfrwt beam="2">  1       -1 0.54150071E-01 0.43400327E+03</pdfrwt>
<totfact> 0.12534597E+02</totfact>
</mgrwt>
</event>
<event>
12    1  0.1444206E-007  0.6039145E+03  0.7818608E-02  0.9897318E-01
          2   -1    0    0  501    0  0.00000000000E+00  0.00000000000E+00  0.20641544910E+04  0.20641544910E+04  0.00000000000E+00 0. -1.
         -2   -1    0    0    0  501 -0.00000000000E+00 -0.00000000000E+00 -0.21001092797E+03  0.21001092797E+03  0.00000000000E+00 0.  1.
         23    2    1    2    0    0 -0.44800824727E+03  0.18361842953E+03  0.10527337638E+04  0.11621100928E+04  0.88455486697E+02 0.  0.
    5000000    2    1    2    0    0  0.44800824727E+03 -0.18361842953E+03  0.80140979925E+03  0.11120553262E+04  0.59998522051E+03 0.  0.
         23    2    4    4    0    0  0.66553977148E+02  0.17029587014E+03  0.82557700447E+02  0.22003464647E+03  0.90384492479E+02 0.  0.
         23    2    4    4    0    0  0.38145427012E+03 -0.35391429967E+03  0.71885209880E+03  0.89202067970E+03  0.90497852733E+02 0.  0.
          4    1    3    3  502    0 -0.12748038129E+03  0.62264461081E+02  0.40764466618E+03  0.43162748359E+03  0.00000000000E+00 0.  1.
         -4    1    3    3    0  502 -0.32052786598E+03  0.12135396845E+03  0.64508909758E+03  0.73048260920E+03  0.00000000000E+00 0. -1.
         13    1    5    5    0    0  0.86254727673E+02  0.12781616634E+03  0.46881725583E+02  0.16116682853E+03  0.00000000000E+00 0.  1.
        -13    1    5    5    0    0 -0.19700750526E+02  0.42479703803E+02  0.35675974864E+02  0.58867817939E+02  0.00000000000E+00 0. -1.
          3    1    6    6  503    0  0.49621495461E+02 -0.68015716681E+02  0.17096387512E+03  0.19057039939E+03  0.00000000000E+00 0. -1.
         -3    1    6    6    0  503  0.33183277466E+03 -0.28589858299E+03  0.54788822369E+03  0.70145028031E+03  0.00000000000E+00 0.  1.
<mgrwt>
<rscale>  0 0.60391451E+03</rscale>
<asrwt>0</asrwt>
<pdfrwt beam="1">  1        2 0.31756221E+00 0.60391451E+03</pdfrwt>
<pdfrwt beam="2">  1       -2 0.32309375E-01 0.60391451E+03</pdfrwt>
<totfact> 0.57656290E+01</totfact>
</mgrwt>
</event>
<event>
12    1  0.1444206E-007  0.5487087E+03  0.7818608E-02  0.1001793E+00
         -1   -1    0    0    0  501 -0.00000000000E+00  0.00000000000E+00  0.73097982695E+03  0.73097982695E+03  0.00000000000E+00 0.  1.
          1   -1    0    0  501    0  0.00000000000E+00 -0.00000000000E+00 -0.42659903308E+03  0.42659903308E+03  0.00000000000E+00 0. -1.
         23    2    1    2    0    0  0.32632315156E+03  0.20960699288E+03  0.58067558654E+02  0.40182967710E+03  0.87597701597E+02 0.  0.
    5000000    2    1    2    0    0 -0.32632315156E+03 -0.20960699288E+03  0.24631323521E+03  0.75574918292E+03  0.60005393669E+03 0.  0.
         23    2    4    4    0    0 -0.25443091057E+03  0.16742782061E+03  0.14237103438E+03  0.34728072892E+03  0.86989826309E+02 0.  0.
         23    2    4    4    0    0 -0.71892240989E+02 -0.37703481349E+03  0.10394220083E+03  0.40846845400E+03  0.93374257167E+02 0.  0.
          2    1    3    3  502    0  0.15331041096E+03  0.10378924286E+03  0.71763257397E+02  0.19856045466E+03  0.00000000000E+00 0. -1.
         -2    1    3    3    0  502  0.17301274060E+03  0.10581775002E+03 -0.13695698742E+02  0.20326922245E+03  0.00000000000E+00 0.  1.
         13    1    5    5    0    0 -0.25082403056E+03  0.14052986538E+03  0.11791879386E+03  0.31075099246E+03  0.00000000000E+00 0.  1.
        -13    1    5    5    0    0 -0.36068800056E+01  0.26897955236E+02  0.24452240522E+02  0.36529736459E+02  0.00000000000E+00 0. -1.
          3    1    6    6  503    0  0.72377622700E+01 -0.20862279442E+03  0.61409813232E+02  0.21759370560E+03  0.00000000000E+00 0. -1.
         -3    1    6    6    0  503 -0.79130003259E+02 -0.16841201907E+03  0.42532387600E+02  0.19087474841E+03  0.00000000000E+00 0.  1.
<mgrwt>
<rscale>  0 0.54870872E+03</rscale>
<asrwt>0</asrwt>
<pdfrwt beam="1">  1        1 0.65630620E-01 0.54870872E+03</pdfrwt>
<pdfrwt beam="2">  1       -1 0.11245844E+00 0.54870872E+03</pdfrwt>
<totfact> 0.41568052E+01</totfact>
</mgrwt>
</event>
<event>
12    1  0.1444206E-007  0.7377563E+03  0.7818608E-02  0.9654757E-01
          1   -1    0    0  501    0  0.00000000000E+00  0.00000000000E+00  0.63724018525E+03  0.63724018525E+03  0.00000000000E+00 0. -1.
         -1   -1    0    0    0  501 -0.00000000000E+00 -0.00000000000E+00 -0.98907398170E+03  0.98907398170E+03  0.00000000000E+00 0.  1.
         23    2    1    2    0    0 -0.64791136523E+03  0.16230915393E+03 -0.26405210152E+03  0.72414542020E+03  0.92356259278E+02 0.  0.
    5000000    2    1    2    0    0  0.64791136523E+03 -0.16230915393E+03 -0.87781694933E+02  0.90216874675E+03  0.60005784971E+03 0.  0.
         23    2    4    4    0    0  0.45819433350E+03  0.10934040384E+03 -0.22809207979E+03  0.53154416703E+03  0.92821514059E+02 0.  0.
         23    2    4    4    0    0  0.18971703173E+03 -0.27164955777E+03  0.14031038486E+03  0.37062457972E+03  0.88823086105E+02 0.  0.
          3    1    3    3  502    0 -0.49905381514E+03  0.89320775150E+02 -0.21960067607E+03  0.55250101196E+03  0.00000000000E+00 0. -1.
         -3    1    3    3    0  502 -0.14885755009E+03  0.72988378781E+02 -0.44451425447E+02  0.17164440824E+03  0.00000000000E+00 0.  1.
         13    1    5    5    0    0  0.40387229998E+03  0.10154432165E+03 -0.16503717198E+03  0.44795239935E+03  0.00000000000E+00 0.  1.
        -13    1    5    5    0    0  0.54322033520E+02  0.77960821940E+01 -0.63054907819E+02  0.83591767677E+02  0.00000000000E+00 0. -1.
          2    1    6    6  503    0  0.12512182335E+03 -0.18509429299E+03  0.47924763997E+02  0.22849978333E+03  0.00000000000E+00 0. -1.
         -2    1    6    6    0  503  0.64595208386E+02 -0.86555264782E+02  0.92385620864E+02  0.14212479639E+03  0.00000000000E+00 0.  1.
<mgrwt>
<rscale>  0 0.73775634E+03</rscale>
<asrwt>0</asrwt>
<pdfrwt beam="1">  1        1 0.98036951E-01 0.73775634E+03</pdfrwt>
<pdfrwt beam="2">  1       -1 0.15216523E+00 0.73775634E+03</pdfrwt>
<totfact> 0.10859417E+01</totfact>
</mgrwt>
</event>
<event>
12    1  0.1444206E-007  0.4675756E+03  0.7818608E-02  0.1022607E+00
          2   -1    0    0  501    0  0.00000000000E+00  0.00000000000E+00  0.23784342568E+04  0.23784342568E+04  0.00000000000E+00 0.  1.
         -2   -1    0    0    0  501 -0.00000000000E+00 -0.00000000000E+00 -0.22468360404E+03  0.22468360404E+03  0.00000000000E+00 0. -1.
         23    2    1    2    0    0  0.10450000674E+03 -0.36542295000E+03  0.63048244804E+02  0.39506379739E+03  0.87442203997E+02 0.  0.
    5000000    2    1    2    0    0 -0.10450000674E+03  0.36542295000E+03  0.20907024080E+04  0.22080540635E+04  0.60001000385E+03 0.  0.
         23    2    4    4    0    0 -0.18488476346E+03  0.40364309380E+03  0.87637510253E+03  0.98674899015E+03  0.92358682813E+02 0.  0.
         23    2    4    4    0    0  0.80384756724E+02 -0.38220143795E+02  0.12143273054E+04  0.12213050733E+04  0.95251188358E+02 0.  0.
          4    1    3    3  502    0  0.11155740268E+03 -0.32719986734E+03  0.76268257524E+02  0.35400798633E+03  0.00000000000E+00 0.  1.
         -4    1    3    3    0  502 -0.70573959387E+01 -0.38223082664E+02 -0.13220012720E+02  0.41055811063E+02  0.00000000000E+00 0. -1.
         11    1    5    5    0    0 -0.17867990242E+03  0.37135639691E+03  0.84987635045E+03  0.94452204427E+03  0.00000000000E+00 0. -1.
        -11    1    5    5    0    0 -0.62048610412E+01  0.32286696888E+02  0.26498752081E+02  0.42226945880E+02  0.00000000000E+00 0.  1.
          4    1    6    6  503    0  0.71501671537E+01  0.13957157500E+02  0.62141428731E+03  0.62161213278E+03  0.00000000000E+00 0. -1.
         -4    1    6    6    0  503  0.73234589570E+02 -0.52177301296E+02  0.59291301813E+03  0.59969294055E+03  0.00000000000E+00 0.  1.
<mgrwt>
<rscale>  0 0.46757561E+03</rscale>
<asrwt>0</asrwt>
<pdfrwt beam="1">  1        2 0.36591295E+00 0.46757561E+03</pdfrwt>
<pdfrwt beam="2">  1       -2 0.34566710E-01 0.46757561E+03</pdfrwt>
<totfact> 0.35070077E+01</totfact>
</mgrwt>
</event>
<event>
12    1  0.1444206E-007  0.3833632E+03  0.7818608E-02  0.1049698E+00
         -2   -1    0    0    0  501 -0.00000000000E+00  0.00000000000E+00  0.31056174552E+03  0.31056174552E+03  0.00000000000E+00 0.  1.
          2   -1    0    0  501    0  0.00000000000E+00 -0.00000000000E+00 -0.12600937819E+04  0.12600937819E+04  0.00000000000E+00 0. -1.
         23    2    1    2    0    0  0.30062221672E+03  0.17741218496E+03 -0.76968469668E+03  0.85356545908E+03  0.11962717111E+03 0.  0.
    5000000    2    1    2    0    0 -0.30062221672E+03 -0.17741218496E+03 -0.17984733975E+03  0.71709006839E+03  0.60002024967E+03 0.  0.
         23    2    4    4    0    0 -0.17724977763E+03 -0.15859773745E+03 -0.38382153208E+03  0.46075898706E+03  0.91701415891E+02 0.  0.
         23    2    4    4    0    0 -0.12337243909E+03 -0.18814447517E+02  0.20397419233E+03  0.25633108133E+03  0.92333146580E+02 0.  0.
          3    1    3    3  502    0  0.21591115989E+03  0.62555095933E+02 -0.43273312923E+03  0.48763585812E+03  0.00000000000E+00 0. -1.
         -3    1    3    3    0  502  0.84711056829E+02  0.11485708903E+03 -0.33695156745E+03  0.36592960096E+03  0.00000000000E+00 0.  1.
         11    1    5    5    0    0 -0.16927817958E+03 -0.12757409571E+03 -0.36881225924E+03  0.42538539531E+03  0.00000000000E+00 0.  1.
        -11    1    5    5    0    0 -0.79715980516E+01 -0.31023641740E+02 -0.15009272841E+02  0.35373591753E+02  0.00000000000E+00 0. -1.
          1    1    6    6  503    0 -0.44237874758E+02 -0.52983670434E+02  0.88550413128E+02  0.11227392645E+03  0.00000000000E+00 0. -1.
         -1    1    6    6    0  503 -0.79134564330E+02  0.34169222917E+02  0.11542377920E+03  0.14405715488E+03  0.00000000000E+00 0.  1.
<mgrwt>
<rscale>  0 0.38336320E+03</rscale>
<asrwt>0</asrwt>
<pdfrwt beam="1">  1        2 0.19386058E+00 0.38336320E+03</pdfrwt>
<pdfrwt beam="2">  1       -2 0.47778731E-01 0.38336320E+03</pdfrwt>
<totfact> 0.77016402E+01</totfact>
</mgrwt>
</event>
<event>
12    1  0.1444206E-007  0.6649322E+03  0.7818608E-02  0.9779156E-01
          2   -1    0    0  501    0  0.00000000000E+00  0.00000000000E+00  0.41248423712E+03  0.41248423712E+03  0.00000000000E+00 0. -1.
         -2   -1    0    0    0  501 -0.00000000000E+00 -0.00000000000E+00 -0.12877839266E+04  0.12877839266E+04  0.00000000000E+00 0.  1.
         23    2    1    2    0    0  0.48551885934E+03  0.32589684800E+03 -0.20139477271E+03  0.62510648265E+03  0.90889723574E+02 0.  0.
    5000000    2    1    2    0    0 -0.48551885934E+03 -0.32589684800E+03 -0.67390491674E+03  0.10751616810E+04  0.59990623039E+03 0.  0.
         23    2    4    4    0    0  0.75186195611E+02 -0.10803883592E+03  0.85833799268E+01  0.16059335505E+03  0.91603478086E+02 0.  0.
         23    2    4    4    0    0 -0.56070505496E+03 -0.21785801209E+03 -0.68248829667E+03  0.91456832600E+03  0.93769268658E+02 0.  0.
          4    1    3    3  502    0  0.13136503547E+03  0.73655995215E+02 -0.92978767101E+02  0.17699443298E+03  0.00000000000E+00 0. -1.
         -4    1    3    3    0  502  0.35415382387E+03  0.25224085279E+03 -0.10841600561E+03  0.44811204966E+03  0.00000000000E+00 0.  1.
         11    1    5    5    0    0 -0.78971175918E+01 -0.20884914965E+02  0.30909632104E+02  0.38130689689E+02  0.00000000000E+00 0. -1.
        -11    1    5    5    0    0  0.83083313203E+02 -0.87153920954E+02 -0.22326252178E+02  0.12246266536E+03  0.00000000000E+00 0.  1.
          3    1    6    6  503    0 -0.16837076333E+03 -0.58215480812E+02 -0.14162655234E+03  0.22758698662E+03  0.00000000000E+00 0. -1.
         -3    1    6    6    0  503 -0.39233429163E+03 -0.15964253127E+03 -0.54086174433E+03  0.68698133938E+03  0.00000000000E+00 0.  1.
<mgrwt>
<rscale>  0 0.66493221E+03</rscale>
<asrwt>0</asrwt>
<pdfrwt beam="1">  1        2 0.63459114E-01 0.66493221E+03</pdfrwt>
<pdfrwt beam="2">  1       -2 0.19812060E+00 0.66493221E+03</pdfrwt>
<totfact> 0.10801844E+01</totfact>
</mgrwt>
</event>
<event>
12    1  0.1444206E-007  0.8135529E+03  0.7818608E-02  0.9540604E-01
         -2   -1    0    0    0  501 -0.00000000000E+00  0.00000000000E+00  0.16590661413E+04  0.16590661413E+04  0.00000000000E+00 0.  1.
          2   -1    0    0  501    0  0.00000000000E+00 -0.00000000000E+00 -0.47072554978E+03  0.47072554978E+03  0.00000000000E+00 0. -1.
         23    2    1    2    0    0 -0.35097216926E+03 -0.62104448510E+03  0.15080066691E+03  0.73511123673E+03  0.93648134793E+02 0.  0.
    5000000    2    1    2    0    0  0.35097216926E+03  0.62104448510E+03  0.10375399246E+04  0.13946804543E+04  0.59980560061E+03 0.  0.
         23    2    4    4    0    0 -0.34556007697E+02  0.48975432473E+03  0.44035663730E+03  0.66600745873E+03  0.92728371096E+02 0.  0.
         23    2    4    4    0    0  0.38552817696E+03  0.13129016037E+03  0.59718328728E+03  0.72867299560E+03  0.92018337709E+02 0.  0.
          1    1    3    3  502    0 -0.76096710231E+02 -0.21644064034E+03  0.31017053436E+02  0.23151526451E+03  0.00000000000E+00 0. -1.
         -1    1    3    3    0  502 -0.27487545903E+03 -0.40460384476E+03  0.11978361347E+03  0.50359597222E+03  0.00000000000E+00 0.  1.
         11    1    5    5    0    0  0.15561718597E+02  0.82025161349E+02  0.40719382458E+02  0.92888978290E+02  0.00000000000E+00 0.  1.
        -11    1    5    5    0    0 -0.50117726294E+02  0.40772916338E+03  0.39963725485E+03  0.57311848044E+03  0.00000000000E+00 0. -1.
          3    1    6    6  503    0  0.10915256864E+03  0.21094015851E+01  0.19989528898E+03  0.22776492130E+03  0.00000000000E+00 0. -1.
         -3    1    6    6    0  503  0.27637560832E+03  0.12918075879E+03  0.39728799830E+03  0.50090807431E+03  0.00000000000E+00 0.  1.
<mgrwt>
<rscale>  0 0.81355287E+03</rscale>
<asrwt>0</asrwt>
<pdfrwt beam="1">  1        2 0.72419316E-01 0.81355287E+03</pdfrwt>
<pdfrwt beam="2">  1       -2 0.25524094E+00 0.81355287E+03</pdfrwt>
<totfact> 0.40265056E+00</totfact>
</mgrwt>
</event>
<event>
12    1  0.1444206E-007  0.1323115E+04  0.7818608E-02  0.9011433E-01
          2   -1    0    0  501    0  0.00000000000E+00  0.00000000000E+00  0.17711334780E+04  0.17711334780E+04  0.00000000000E+00 0. -1.
         -2   -1    0    0    0  501 -0.00000000000E+00 -0.00000000000E+00 -0.13313191583E+04  0.13313191583E+04  0.00000000000E+00 0.  1.
         23    2    1    2    0    0 -0.58828343217E+03 -0.11081056859E+04  0.99607839640E+03  0.16046190702E+04  0.93030000602E+02 0.  0.
    5000000    2    1    2    0    0  0.58828343217E+03  0.11081056859E+04 -0.55626407671E+03  0.14978335662E+04  0.60008337859E+03 0.  0.
         23    2    4    4    0    0 -0.10064983112E+03  0.26896685462E+03 -0.11589763561E+03  0.32285508748E+03  0.91266577558E+02 0.  0.
         23    2    4    4    0    0  0.68893326329E+03  0.83913883123E+03 -0.44036644110E+03  0.11749784787E+04  0.88706276886E+02 0.  0.
          3    1    3    3  502    0 -0.16701554648E+03 -0.38850634612E+03  0.36999585350E+03  0.56189705939E+03  0.00000000000E+00 0. -1.
         -3    1    3    3    0  502 -0.42126788569E+03 -0.71959933973E+03  0.62608254290E+03  0.10427220108E+04  0.00000000000E+00 0.  1.
         13    1    5    5    0    0 -0.74743067626E+02  0.79494082797E+02 -0.29653362900E+02  0.11307146983E+03  0.00000000000E+00 0. -1.
        -13    1    5    5    0    0 -0.25906763494E+02  0.18947277183E+03 -0.86244272713E+02  0.20978361765E+03  0.00000000000E+00 0.  1.
          1    1    6    6  503    0  0.21726600080E+03  0.33013065851E+03 -0.14951355177E+03  0.42254593709E+03  0.00000000000E+00 0. -1.
         -1    1    6    6    0  503  0.47166726248E+03  0.50900817272E+03 -0.29085288933E+03  0.75243254158E+03  0.00000000000E+00 0.  1.
<mgrwt>
<rscale>  0 0.13231145E+04</rscale>
<asrwt>0</asrwt>
<pdfrwt beam="1">  1        2 0.27248207E+00 0.13231145E+04</pdfrwt>
<pdfrwt beam="2">  1       -2 0.20481833E+00 0.13231145E+04</pdfrwt>
<totfact> 0.10597705E+00</totfact>
</mgrwt>
</event>
<event>
12    1  0.1444206E-007  0.9815032E+03  0.7818608E-02  0.9329068E-01
          1   -1    0    0  501    0  0.00000000000E+00  0.00000000000E+00  0.14394088815E+04  0.14394088815E+04  0.00000000000E+00 0. -1.
         -1   -1    0    0    0  501 -0.00000000000E+00 -0.00000000000E+00 -0.74716012617E+03  0.74716012617E+03  0.00000000000E+00 0.  1.
         23    2    1    2    0    0  0.20776022294E+03  0.92419858057E+03  0.33458617534E+03  0.10096601669E+04  0.10078897382E+03 0.  0.
    5000000    2    1    2    0    0 -0.20776022294E+03 -0.92419858057E+03  0.35766257997E+03  0.11769088408E+04  0.59990380215E+03 0.  0.
         23    2    4    4    0    0 -0.62805693075E+01 -0.72654561466E+03  0.45494382595E+03  0.86216742336E+03  0.91928262231E+02 0.  0.
         23    2    4    4    0    0 -0.20147965363E+03 -0.19765296591E+03 -0.97281245976E+02  0.31474141743E+03  0.99688380786E+02 0.  0.
          3    1    3    3  502    0  0.58481925226E+02  0.11100713735E+03  0.34780849456E+02  0.13020148851E+03  0.00000000000E+00 0. -1.
         -3    1    3    3    0  502  0.14927829771E+03  0.81319144322E+03  0.29980532588E+03  0.87945867835E+03  0.00000000000E+00 0.  1.
         11    1    5    5    0    0  0.97113999175E+01 -0.26962253714E+02  0.38029166556E+02  0.47618188990E+02  0.00000000000E+00 0. -1.
        -11    1    5    5    0    0 -0.15991969225E+02 -0.69958336095E+03  0.41691465939E+03  0.81454923437E+03  0.00000000000E+00 0.  1.
          3    1    6    6  503    0 -0.46782510389E+02 -0.41729994485E+02  0.19928454467E+02  0.65780992813E+02  0.00000000000E+00 0. -1.
         -3    1    6    6    0  503 -0.15469714324E+03 -0.15592297143E+03 -0.11720970044E+03  0.24896042461E+03  0.00000000000E+00 0.  1.
<mgrwt>
<rscale>  0 0.98150324E+03</rscale>
<asrwt>0</asrwt>
<pdfrwt beam="1">  1        1 0.22144752E+00 0.98150324E+03</pdfrwt>
<pdfrwt beam="2">  1       -1 0.11494771E+00 0.98150324E+03</pdfrwt>
<totfact> 0.49898514E+00</totfact>
</mgrwt>
</event>
<event>
12    1  0.1444206E-007  0.1085296E+04  0.7818608E-02  0.9219643E-01
         -2   -1    0    0    0  501 -0.00000000000E+00  0.00000000000E+00  0.46314280401E+03  0.46314280401E+03  0.00000000000E+00 0.  1.
          2   -1    0    0  501    0  0.00000000000E+00 -0.00000000000E+00 -0.28070121659E+04  0.28070121659E+04  0.00000000000E+00 0. -1.
         23    2    1    2    0    0  0.34880272938E+03 -0.97855287240E+03 -0.13883642497E+04  0.17364888822E+04  0.92786205131E+02 0.  0.
    5000000    2    1    2    0    0 -0.34880272938E+03  0.97855287240E+03 -0.95550511217E+03  0.15336660877E+04  0.59992714659E+03 0.  0.
         23    2    4    4    0    0  0.82859809430E+02  0.10870813260E+03  0.88661612911E+01  0.16214642154E+03  0.86773539123E+02 0.  0.
         23    2    4    4    0    0 -0.43166253881E+03  0.86984473980E+03 -0.96437127347E+03  0.13715196662E+04  0.89954560353E+02 0.  0.
          4    1    3    3  502    0  0.17900604287E+03 -0.44371456209E+03 -0.70904278371E+03  0.85537561640E+03  0.00000000000E+00 0.  1.
         -4    1    3    3    0  502  0.16979668651E+03 -0.53483831031E+03 -0.67932146604E+03  0.88111326579E+03  0.00000000000E+00 0. -1.
         11    1    5    5    0    0  0.42211081311E+02  0.10920167632E+03  0.22600203535E+02  0.11923737122E+03  0.00000000000E+00 0. -1.
        -11    1    5    5    0    0  0.40648728119E+02 -0.49354372215E+00 -0.13734042243E+02  0.42909050321E+02  0.00000000000E+00 0.  1.
          3    1    6    6  503    0 -0.33430552852E+03  0.72947687811E+03 -0.82697707742E+03  0.11522967451E+04  0.00000000000E+00 0. -1.
         -3    1    6    6    0  503 -0.97357010289E+02  0.14036786169E+03 -0.13739419604E+03  0.21922292115E+03  0.00000000000E+00 0.  1.
<mgrwt>
<rscale>  0 0.10852958E+04</rscale>
<asrwt>0</asrwt>
<pdfrwt beam="1">  1        2 0.43184802E+00 0.10852958E+04</pdfrwt>
<pdfrwt beam="2">  1       -2 0.71252740E-01 0.10852958E+04</pdfrwt>
<totfact> 0.41180107E+00</totfact>
</mgrwt>
</event>
<event>
12    1  0.1444206E-007  0.4782983E+03  0.7818608E-02  0.1019604E+00
         -2   -1    0    0    0  501 -0.00000000000E+00  0.00000000000E+00  0.12389893006E+03  0.12389893006E+03  0.00000000000E+00 0.  1.
          2   -1    0    0  501    0  0.00000000000E+00 -0.00000000000E+00 -0.20704341466E+04  0.20704341466E+04  0.00000000000E+00 0. -1.
         23    2    1    2    0    0 -0.28976951073E+03 -0.10418471428E+02 -0.34620559176E+03  0.46070004533E+03  0.91166364989E+02 0.  0.
    5000000    2    1    2    0    0  0.28976951073E+03  0.10418471428E+02 -0.16003296248E+04  0.17336330314E+04  0.60029464891E+03 0.  0.
         23    2    4    4    0    0 -0.16976093299E+03  0.45092570265E+02 -0.46853120376E+03  0.50817890481E+03  0.88725397339E+02 0.  0.
         23    2    4    4    0    0  0.45953044372E+03 -0.34674098837E+02 -0.11317984211E+04  0.12254541266E+04  0.91649487542E+02 0.  0.
          3    1    3    3  502    0 -0.12232523051E+03 -0.49316329990E+02 -0.14301750084E+03  0.19454965425E+03  0.00000000000E+00 0. -1.
         -3    1    3    3    0  502 -0.16744428022E+03  0.38897858562E+02 -0.20318809092E+03  0.26615039108E+03  0.00000000000E+00 0.  1.
         11    1    5    5    0    0 -0.69075317805E+02  0.44702036047E+02 -0.12075852418E+03  0.14612423728E+03  0.00000000000E+00 0.  1.
        -11    1    5    5    0    0 -0.10068561519E+03  0.39053421769E+00 -0.34777267958E+03  0.36205466753E+03  0.00000000000E+00 0. -1.
          1    1    6    6  503    0  0.26619366641E+03 -0.65308861867E+02 -0.65402912970E+03  0.70913920916E+03  0.00000000000E+00 0. -1.
         -1    1    6    6    0  503  0.19333677732E+03  0.30634763029E+02 -0.47776929135E+03  0.51631491740E+03  0.00000000000E+00 0.  1.
<mgrwt>
<rscale>  0 0.47829828E+03</rscale>
<asrwt>0</asrwt>
<pdfrwt beam="1">  1        2 0.31852832E+00 0.47829828E+03</pdfrwt>
<pdfrwt beam="2">  1       -2 0.19061374E-01 0.47829828E+03</pdfrwt>
<totfact> 0.15032400E+02</totfact>
</mgrwt>
</event>
<event>
12    1  0.1444206E-007  0.1353804E+04  0.7818608E-02  0.8987954E-01
          1   -1    0    0  501    0  0.00000000000E+00  0.00000000000E+00  0.32835188234E+04  0.32835188234E+04  0.00000000000E+00 0. -1.
         -1   -1    0    0    0  501 -0.00000000000E+00 -0.00000000000E+00 -0.65292587085E+03  0.65292587085E+03  0.00000000000E+00 0.  1.
         23    2    1    2    0    0 -0.13229108805E+04 -0.51632022181E+01  0.18818670052E+04  0.23021462652E+04  0.91291536371E+02 0.  0.
    5000000    2    1    2    0    0  0.13229108805E+04  0.51632022181E+01  0.74872594732E+03  0.16342984290E+04  0.60018410055E+03 0.  0.
         23    2    4    4    0    0  0.19145252471E+03  0.12793706417E+03 -0.34222503166E+02  0.24985526778E+03  0.90744220240E+02 0.  0.
         23    2    4    4    0    0  0.11314583558E+04 -0.12277386196E+03  0.78294845049E+03  0.13844431613E+04  0.91668743660E+02 0.  0.
          1    1    3    3  502    0 -0.41140251117E+03 -0.36413319235E+02  0.62877056833E+03  0.75228344632E+03  0.00000000000E+00 0. -1.
         -1    1    3    3    0  502 -0.91150836935E+03  0.31250117017E+02  0.12530964369E+04  0.15498628189E+04  0.00000000000E+00 0.  1.
         13    1    5    5    0    0  0.59213506491E+02  0.86334116074E+02  0.78490531734E+01  0.10498298236E+03  0.00000000000E+00 0.  1.
        -13    1    5    5    0    0  0.13223901822E+03  0.41602948100E+02 -0.42071556340E+02  0.14487228542E+03  0.00000000000E+00 0. -1.
          1    1    6    6  503    0  0.48325772916E+03 -0.27163267872E+02  0.28718468359E+03  0.56280628853E+03  0.00000000000E+00 0. -1.
         -1    1    6    6    0  503  0.64820062664E+03 -0.95610594083E+02  0.49576376690E+03  0.82163687274E+03  0.00000000000E+00 0.  1.
<mgrwt>
<rscale>  0 0.13538037E+04</rscale>
<asrwt>0</asrwt>
<pdfrwt beam="1">  1        1 0.50515673E+00 0.13538037E+04</pdfrwt>
<pdfrwt beam="2">  1       -1 0.10045014E+00 0.13538037E+04</pdfrwt>
<totfact> 0.33945294E-01</totfact>
</mgrwt>
</event>
<event>
12    1  0.1444206E-007  0.1333029E+04  0.7818608E-02  0.9003775E-01
          2   -1    0    0  501    0  0.00000000000E+00  0.00000000000E+00  0.13849411874E+04  0.13849411874E+04  0.00000000000E+00 0. -1.
         -2   -1    0    0    0  501 -0.00000000000E+00 -0.00000000000E+00 -0.14072654700E+04  0.14072654700E+04  0.00000000000E+00 0.  1.
         23    2    1    2    0    0 -0.11921333143E+04  0.58734247000E+03  0.37035461684E+02  0.13325699791E+04  0.90653779053E+02 0.  0.
    5000000    2    1    2    0    0  0.11921333143E+04 -0.58734247000E+03 -0.59359744253E+02  0.14596366783E+04  0.60071843419E+03 0.  0.
         23    2    4    4    0    0  0.94344874011E+03 -0.44281046759E+03  0.19568866538E+03  0.10645870728E+04  0.94206934422E+02 0.  0.
         23    2    4    4    0    0  0.24868457418E+03 -0.14453200241E+03 -0.25504840963E+03  0.39504960542E+03  0.90999902893E+02 0.  0.
          2    1    3    3  502    0 -0.54271515886E+03  0.23952088771E+03 -0.20982899569E+02  0.59359100514E+03  0.00000000000E+00 0. -1.
         -2    1    3    3    0  502 -0.64941815544E+03  0.34782158229E+03  0.58018361253E+02  0.73897897396E+03  0.00000000000E+00 0.  1.
         11    1    5    5    0    0  0.78629234114E+03 -0.33060261711E+03  0.14843778811E+03  0.86578722162E+03  0.00000000000E+00 0.  1.
        -11    1    5    5    0    0  0.15715639897E+03 -0.11220785048E+03  0.47250877264E+02  0.19879985123E+03  0.00000000000E+00 0. -1.
          1    1    6    6  503    0  0.12608013520E+03 -0.94879540129E+02 -0.83803108684E+02  0.17866529784E+03  0.00000000000E+00 0. -1.
         -1    1    6    6    0  503  0.12260443899E+03 -0.49652462284E+02 -0.17124530095E+03  0.21638430758E+03  0.00000000000E+00 0.  1.
<mgrwt>
<rscale>  0 0.13330288E+04</rscale>
<asrwt>0</asrwt>
<pdfrwt beam="1">  1        2 0.21306787E+00 0.13330288E+04</pdfrwt>
<pdfrwt beam="2">  1       -2 0.21650238E+00 0.13330288E+04</pdfrwt>
<totfact> 0.14698706E+00</totfact>
</mgrwt>
</event>
<event>
12    1  0.1444206E-007  0.4851848E+03  0.7818608E-02  0.1017720E+00
         -2   -1    0    0    0  501 -0.00000000000E+00  0.00000000000E+00  0.85928474873E+02  0.85928474873E+02  0.00000000000E+00 0.  1.
          2   -1    0    0  501    0  0.00000000000E+00 -0.00000000000E+00 -0.32730484961E+04  0.32730484961E+04  0.00000000000E+00 0. -1.
         23    2    1    2    0    0  0.28875176123E+03 -0.20021758629E+03 -0.12217499543E+04  0.12742265716E+04  0.86693387655E+02 0.  0.
    5000000    2    1    2    0    0 -0.28875176123E+03  0.20021758629E+03 -0.19653700669E+04  0.20847503993E+04  0.60003338760E+03 0.  0.
         23    2    4    4    0    0 -0.86935079300E+02 -0.16168849262E+03 -0.11234006868E+04  0.11418440861E+04  0.89877346206E+02 0.  0.
         23    2    4    4    0    0 -0.20181668193E+03  0.36190607891E+03 -0.84196938010E+03  0.94290631318E+03  0.91945066992E+02 0.  0.
          3    1    3    3  502    0  0.13845716663E+03 -0.46608457196E+02 -0.45055670925E+03  0.47364974772E+03  0.00000000000E+00 0. -1.
         -3    1    3    3    0  502  0.15029459460E+03 -0.15360912910E+03 -0.77119324510E+03  0.80057682392E+03  0.00000000000E+00 0.  1.
         11    1    5    5    0    0 -0.86178747503E+02 -0.16264681784E+03 -0.90946003031E+03  0.92789994644E+03  0.00000000000E+00 0. -1.
        -11    1    5    5    0    0 -0.75633179630E+00  0.95832522214E+00 -0.21394065645E+03  0.21394413969E+03  0.00000000000E+00 0.  1.
          3    1    6    6  503    0 -0.20282845443E+03  0.29977368326E+03 -0.73196717904E+03  0.81656573176E+03  0.00000000000E+00 0. -1.
         -3    1    6    6    0  503  0.10117725026E+01  0.62132395658E+02 -0.11000220106E+03  0.12634058142E+03  0.00000000000E+00 0.  1.
<mgrwt>
<rscale>  0 0.48518485E+03</rscale>
<asrwt>0</asrwt>
<pdfrwt beam="1">  1        2 0.50354599E+00 0.48518485E+03</pdfrwt>
<pdfrwt beam="2">  1       -2 0.13219764E-01 0.48518485E+03</pdfrwt>
<totfact> 0.56298055E+01</totfact>
</mgrwt>
</event>
<event>
12    1  0.1444206E-007  0.1228947E+04  0.7818608E-02  0.9087890E-01
         -2   -1    0    0    0  501 -0.00000000000E+00  0.00000000000E+00  0.25188735052E+04  0.25188735052E+04  0.00000000000E+00 0.  1.
          2   -1    0    0  501    0  0.00000000000E+00 -0.00000000000E+00 -0.69292630340E+03  0.69292630340E+03  0.00000000000E+00 0. -1.
         23    2    1    2    0    0 -0.50049613338E+03 -0.10434225029E+04  0.28855624814E+03  0.11961826137E+04  0.91439804474E+02 0.  0.
    5000000    2    1    2    0    0  0.50049613338E+03  0.10434225029E+04  0.15373909536E+04  0.20156171949E+04  0.59992902323E+03 0.  0.
         23    2    4    4    0    0  0.55104283137E+03  0.10665607234E+04  0.14040915571E+04  0.18494893680E+04  0.89094572398E+02 0.  0.
         23    2    4    4    0    0 -0.50546697991E+02 -0.23138220496E+02  0.13329939648E+03  0.16612782687E+03  0.82093725910E+02 0.  0.
          1    1    3    3  502    0 -0.11330061703E+03 -0.23009488008E+03  0.25353343964E+02  0.25772752222E+03  0.00000000000E+00 0. -1.
         -1    1    3    3    0  502 -0.38719551634E+03 -0.81332762282E+03  0.26320290418E+03  0.93845509146E+03  0.00000000000E+00 0.  1.
         13    1    5    5    0    0  0.15591706862E+03  0.38539903873E+03  0.51290431281E+03  0.66023737053E+03  0.00000000000E+00 0. -1.
        -13    1    5    5    0    0  0.39512576275E+03  0.68116168467E+03  0.89118724434E+03  0.11892519975E+04  0.00000000000E+00 0.  1.
          2    1    6    6  503    0 -0.60747718925E+02  0.11044541280E+02  0.98771624055E+02  0.11648219162E+03  0.00000000000E+00 0. -1.
         -2    1    6    6    0  503  0.10201020934E+02 -0.34182761775E+02  0.34527772426E+02  0.49645635250E+02  0.00000000000E+00 0.  1.
<mgrwt>
<rscale>  0 0.12289472E+04</rscale>
<asrwt>0</asrwt>
<pdfrwt beam="1">  1        2 0.10660405E+00 0.12289472E+04</pdfrwt>
<pdfrwt beam="2">  1       -2 0.38751900E+00 0.12289472E+04</pdfrwt>
<totfact> 0.36629129E-01</totfact>
</mgrwt>
</event>
<event>
12    1  0.1444206E-007  0.6687838E+03  0.7818608E-02  0.9772157E-01
         -2   -1    0    0    0  501 -0.00000000000E+00  0.00000000000E+00  0.50120276173E+03  0.50120276173E+03  0.00000000000E+00 0.  1.
          2   -1    0    0  501    0  0.00000000000E+00 -0.00000000000E+00 -0.98216314132E+03  0.98216314132E+03  0.00000000000E+00 0. -1.
         23    2    1    2    0    0 -0.12264836483E+03 -0.54976458801E+03 -0.28305543498E+03  0.63701276833E+03  0.91548698102E+02 0.  0.
    5000000    2    1    2    0    0  0.12264836483E+03  0.54976458801E+03 -0.19790494461E+03  0.84635313472E+03  0.59988627083E+03 0.  0.
         23    2    4    4    0    0 -0.16954303366E+03  0.38486916139E+03 -0.24587564133E+03  0.49543937103E+03  0.90201040528E+02 0.  0.
         23    2    4    4    0    0  0.29219139849E+03  0.16489542661E+03  0.47970696718E+02  0.35091376369E+03  0.90955850471E+02 0.  0.
          4    1    3    3  502    0 -0.10966039693E+03 -0.32545228940E+03 -0.20027369418E+03  0.39756024438E+03  0.00000000000E+00 0. -1.
         -4    1    3    3    0  502 -0.12987967897E+02 -0.22431229861E+03 -0.82781740795E+02  0.23945252395E+03  0.00000000000E+00 0.  1.
         13    1    5    5    0    0 -0.28866175720E+02  0.16501863117E+03 -0.11710184246E+03  0.20439482929E+03  0.00000000000E+00 0.  1.
        -13    1    5    5    0    0 -0.14067685794E+03  0.21985053022E+03 -0.12877379887E+03  0.29104454173E+03  0.00000000000E+00 0. -1.
          4    1    6    6  503    0  0.20479534454E+02  0.33114786232E+02  0.28599018491E+02  0.48310498417E+02  0.00000000000E+00 0. -1.
         -4    1    6    6    0  503  0.27171186404E+03  0.13178064038E+03  0.19371678227E+02  0.30260326528E+03  0.00000000000E+00 0.  1.
<mgrwt>
<rscale>  0 0.66878379E+03</rscale>
<asrwt>0</asrwt>
<pdfrwt beam="1">  1        2 0.15110202E+00 0.66878379E+03</pdfrwt>
<pdfrwt beam="2">  1       -2 0.77108118E-01 0.66878379E+03</pdfrwt>
<totfact> 0.39747527E+01</totfact>
</mgrwt>
</event>
<event>
12    1  0.1444206E-007  0.8760649E+03  0.7818608E-02  0.9456006E-01
         -2   -1    0    0    0  501 -0.00000000000E+00  0.00000000000E+00  0.53663433758E+03  0.53663433758E+03  0.00000000000E+00 0.  1.
          2   -1    0    0  501    0  0.00000000000E+00 -0.00000000000E+00 -0.15086098281E+04  0.15086098281E+04  0.00000000000E+00 0. -1.
         23    2    1    2    0    0 -0.20582469083E+03  0.76359464759E+03 -0.32197267076E+03  0.85866774648E+03  0.90572120104E+02 0.  0.
    5000000    2    1    2    0    0  0.20582469083E+03 -0.76359464759E+03 -0.65000281976E+03  0.11865764192E+04  0.60001611955E+03 0.  0.
         23    2    4    4    0    0 -0.15531745977E+02 -0.71220506740E+03 -0.35353450124E+03  0.80194025429E+03  0.10317090059E+03 0.  0.
         23    2    4    4    0    0  0.22135643681E+03 -0.51389580192E+02 -0.29646831853E+03  0.38463616491E+03  0.91716707300E+02 0.  0.
          1    1    3    3  502    0 -0.16398614235E+03  0.57117315095E+03 -0.19983743044E+03  0.62694913817E+03  0.00000000000E+00 0. -1.
         -1    1    3    3    0  502 -0.41838548484E+02  0.19242149665E+03 -0.12213524031E+03  0.23171860831E+03  0.00000000000E+00 0.  1.
         11    1    5    5    0    0 -0.23698299050E+02 -0.56355786836E+02 -0.51066570028E+02  0.79657885123E+02  0.00000000000E+00 0.  1.
        -11    1    5    5    0    0  0.81665530727E+01 -0.65584928057E+03 -0.30246793121E+03  0.72228236917E+03  0.00000000000E+00 0. -1.
          1    1    6    6  503    0  0.11375509314E+03 -0.71646318750E+02 -0.18156784210E+03  0.22592099834E+03  0.00000000000E+00 0. -1.
         -1    1    6    6    0  503  0.10760134367E+03  0.20256738558E+02 -0.11490047643E+03  0.15871516657E+03  0.00000000000E+00 0.  1.
<mgrwt>
<rscale>  0 0.87606495E+03</rscale>
<asrwt>0</asrwt>
<pdfrwt beam="1">  1        2 0.23209382E+00 0.87606495E+03</pdfrwt>
<pdfrwt beam="2">  1       -2 0.82559130E-01 0.87606495E+03</pdfrwt>
<totfact> 0.16311924E+01</totfact>
</mgrwt>
</event>
<event>
12    1  0.1444206E-007  0.2341081E+04  0.7818608E-02  0.8461898E-01
         -1   -1    0    0    0  501 -0.00000000000E+00  0.00000000000E+00  0.31528021619E+04  0.31528021619E+04  0.00000000000E+00 0.  1.
          1   -1    0    0  501    0  0.00000000000E+00 -0.00000000000E+00 -0.24658933234E+04  0.24658933234E+04  0.00000000000E+00 0. -1.
         23    2    1    2    0    0 -0.21196684656E+04 -0.96970483990E+03  0.18197070544E+04  0.29584918223E+04  0.89544502565E+02 0.  0.
    5000000    2    1    2    0    0  0.21196684656E+04  0.96970483990E+03 -0.11327982160E+04  0.26602036630E+04  0.60010819879E+03 0.  0.
         23    2    4    4    0    0  0.42891339505E+03  0.29724167451E+03 -0.50908763836E+03  0.73451036163E+03  0.89531750250E+02 0.  0.
         23    2    4    4    0    0  0.16907550705E+04  0.67246316539E+03 -0.62371057760E+03  0.19256933014E+04  0.91762678265E+02 0.  0.
          3    1    3    3  502    0 -0.16787651406E+04 -0.80013221210E+03  0.14241977663E+04  0.23423926297E+04  0.00000000000E+00 0. -1.
         -3    1    3    3    0  502 -0.44090332503E+03 -0.16957262779E+03  0.39550928813E+03  0.61609919259E+03  0.00000000000E+00 0.  1.
         11    1    5    5    0    0  0.10680257285E+03  0.11981615333E+03 -0.17803372637E+03  0.23970546071E+03  0.00000000000E+00 0. -1.
        -11    1    5    5    0    0  0.32211082220E+03  0.17742552118E+03 -0.33105391198E+03  0.49480490093E+03  0.00000000000E+00 0.  1.
          2    1    6    6  503    0  0.11830845318E+04  0.42550392529E+03 -0.42308813162E+03  0.13265542458E+04  0.00000000000E+00 0. -1.
         -2    1    6    6    0  503  0.50767053872E+03  0.24695924010E+03 -0.20062244597E+03  0.59913905563E+03  0.00000000000E+00 0.  1.
<mgrwt>
<rscale>  0 0.23410805E+04</rscale>
<asrwt>0</asrwt>
<pdfrwt beam="1">  1        1 0.37936820E+00 0.23410805E+04</pdfrwt>
<pdfrwt beam="2">  1       -1 0.48504649E+00 0.23410805E+04</pdfrwt>
<totfact> 0.22570808E-03</totfact>
</mgrwt>
</event>
<event>
12    1  0.1444206E-007  0.6875644E+03  0.7818608E-02  0.9738738E-01
          1   -1    0    0  501    0  0.00000000000E+00  0.00000000000E+00  0.16386589178E+04  0.16386589178E+04  0.00000000000E+00 0. -1.
         -1   -1    0    0    0  501 -0.00000000000E+00 -0.00000000000E+00 -0.51419923448E+03  0.51419923448E+03  0.00000000000E+00 0.  1.
         23    2    1    2    0    0 -0.15904069307E+03  0.56248884413E+03 -0.16566262517E+03  0.61465755308E+03  0.93124434807E+02 0.  0.
    5000000    2    1    2    0    0  0.15904069307E+03 -0.56248884413E+03  0.12901223084E+04  0.15382005992E+04  0.59996489119E+03 0.  0.
         23    2    4    4    0    0 -0.18863011985E+03 -0.17391185994E+03  0.24208838444E+03  0.36418779278E+03  0.90550015927E+02 0.  0.
         23    2    4    4    0    0  0.34767081292E+03 -0.38857698419E+03  0.10480339240E+04  0.11740128064E+04  0.89799203067E+02 0.  0.
          1    1    3    3  502    0 -0.62525071824E+02  0.35242526907E+03 -0.12969183112E+03  0.38070057256E+03  0.00000000000E+00 0. -1.
         -1    1    3    3    0  502 -0.96515621245E+02  0.21006357506E+03 -0.35970794052E+02  0.23395698053E+03  0.00000000000E+00 0.  1.
         11    1    5    5    0    0 -0.68048419687E+02 -0.52378724755E+02  0.14179724767E+03  0.16577266867E+03  0.00000000000E+00 0.  1.
        -11    1    5    5    0    0 -0.12058170016E+03 -0.12153313519E+03  0.10029113677E+03  0.19841512412E+03  0.00000000000E+00 0. -1.
          3    1    6    6  503    0  0.28312345317E+03 -0.25690371181E+03  0.74548353134E+03  0.83779717258E+03  0.00000000000E+00 0. -1.
         -3    1    6    6    0  503  0.64547359745E+02 -0.13167327238E+03  0.30255039266E+03  0.33621563379E+03  0.00000000000E+00 0.  1.
<mgrwt>
<rscale>  0 0.68756439E+03</rscale>
<asrwt>0</asrwt>
<pdfrwt beam="1">  1        1 0.25210137E+00 0.68756439E+03</pdfrwt>
<pdfrwt beam="2">  1       -1 0.79107575E-01 0.68756439E+03</pdfrwt>
<totfact> 0.88206202E+00</totfact>
</mgrwt>
</event>
<event>
12    1  0.1444206E-007  0.1110669E+04  0.7818608E-02  0.9194855E-01
          2   -1    0    0  501    0  0.00000000000E+00  0.00000000000E+00  0.28072769354E+04  0.28072769354E+04  0.00000000000E+00 0.  1.
         -2   -1    0    0    0  501 -0.00000000000E+00 -0.00000000000E+00 -0.10716164855E+04  0.10716164855E+04  0.00000000000E+00 0. -1.
         23    2    1    2    0    0  0.66556900582E+03 -0.80688353454E+03  0.23144354173E+04  0.25413769571E+04  0.89120128158E+02 0.  0.
    5000000    2    1    2    0    0 -0.66556900582E+03  0.80688353454E+03 -0.57877496742E+03  0.13375164639E+04  0.59993890395E+03 0.  0.
         23    2    4    4    0    0 -0.42724019624E+03  0.13394774909E+03 -0.36405161668E+03  0.58620058752E+03  0.10306000405E+03 0.  0.
         23    2    4    4    0    0 -0.23832880959E+03  0.67293578545E+03 -0.21472335074E+03  0.75131587638E+03  0.93414324028E+02 0.  0.
          2    1    3    3  502    0  0.39830621648E+03 -0.43865021864E+03  0.12260375880E+04  0.13617011506E+04  0.00000000000E+00 0.  1.
         -2    1    3    3    0  502  0.26726278934E+03 -0.36823331590E+03  0.10883978293E+04  0.11796758064E+04  0.00000000000E+00 0. -1.
         13    1    5    5    0    0 -0.20435771592E+01  0.14003194184E+02 -0.67455913296E+00  0.14167592774E+02  0.00000000000E+00 0. -1.
        -13    1    5    5    0    0 -0.42519661908E+03  0.11994455491E+03 -0.36337705755E+03  0.57203299475E+03  0.00000000000E+00 0.  1.
          4    1    6    6  503    0 -0.32615786163E+02  0.36090629464E+02 -0.29582094369E+02  0.56933499360E+02  0.00000000000E+00 0. -1.
         -4    1    6    6    0  503 -0.20571302342E+03  0.63684515598E+03 -0.18514125637E+03  0.69438237702E+03  0.00000000000E+00 0.  1.
<mgrwt>
<rscale>  0 0.11106687E+04</rscale>
<asrwt>0</asrwt>
<pdfrwt beam="1">  1        2 0.43188876E+00 0.11106687E+04</pdfrwt>
<pdfrwt beam="2">  1       -2 0.16486408E+00 0.11106687E+04</pdfrwt>
<totfact> 0.52793477E-01</totfact>
</mgrwt>
</event>
<event>
12    1  0.1444206E-007  0.6872474E+03  0.7818608E-02  0.9739293E-01
         -2   -1    0    0    0  501 -0.00000000000E+00  0.00000000000E+00  0.45140936780E+03  0.45140936780E+03  0.00000000000E+00 0.  1.
          2   -1    0    0  501    0  0.00000000000E+00 -0.00000000000E+00 -0.11420413825E+04  0.11420413825E+04  0.00000000000E+00 0. -1.
         23    2    1    2    0    0  0.29260029561E+03 -0.50985002651E+03 -0.31540715229E+03  0.67348717359E+03  0.92419255295E+02 0.  0.
    5000000    2    1    2    0    0 -0.29260029561E+03  0.50985002651E+03 -0.37522486236E+03  0.91996357667E+03  0.59998108514E+03 0.  0.
         23    2    4    4    0    0 -0.19382569839E+03  0.59554327933E+03 -0.41258194503E+03  0.75591929446E+03  0.94604013924E+02 0.  0.
         23    2    4    4    0    0 -0.98774597221E+02 -0.85693252818E+02  0.37357082671E+02  0.16404428221E+03  0.91734509674E+02 0.  0.
          3    1    3    3  502    0  0.13293796950E+03 -0.27479164943E+03 -0.11697361833E+03  0.32690332167E+03  0.00000000000E+00 0. -1.
         -3    1    3    3    0  502  0.15966232611E+03 -0.23505837709E+03 -0.19843353396E+03  0.34658385193E+03  0.00000000000E+00 0.  1.
         13    1    5    5    0    0 -0.47167577292E+02  0.76913327946E+02 -0.30427796380E+02  0.95217073867E+02  0.00000000000E+00 0.  1.
        -13    1    5    5    0    0 -0.14665812110E+03  0.51862995139E+03 -0.38215414865E+03  0.66070222059E+03  0.00000000000E+00 0. -1.
          3    1    6    6  503    0 -0.10220880352E+02 -0.63873677752E+02  0.33293737762E+02  0.72751536609E+02  0.00000000000E+00 0. -1.
         -3    1    6    6    0  503 -0.88553716869E+02 -0.21819575066E+02  0.40633449087E+01  0.91292745600E+02  0.00000000000E+00 0.  1.
<mgrwt>
<rscale>  0 0.68724736E+03</rscale>
<asrwt>0</asrwt>
<pdfrwt beam="1">  1        2 0.17569867E+00 0.68724736E+03</pdfrwt>
<pdfrwt beam="2">  1       -2 0.69447596E-01 0.68724736E+03</pdfrwt>
<totfact> 0.39760567E+01</totfact>
</mgrwt>
</event>
<event>
12    1  0.1444206E-007  0.1085512E+04  0.7818608E-02  0.9219429E-01
         -2   -1    0    0    0  501 -0.00000000000E+00  0.00000000000E+00  0.74838922795E+03  0.74838922795E+03  0.00000000000E+00 0.  1.
          2   -1    0    0  501    0  0.00000000000E+00 -0.00000000000E+00 -0.24381363109E+04  0.24381363109E+04  0.00000000000E+00 0. -1.
         23    2    1    2    0    0 -0.73686614911E+03 -0.76953851459E+03 -0.16462675679E+04  0.19630007501E+04  0.89519789718E+02 0.  0.
    5000000    2    1    2    0    0  0.73686614911E+03  0.76953851459E+03 -0.43479515074E+02  0.12235247888E+04  0.59996766023E+03 0.  0.
         23    2    4    4    0    0  0.66290863660E+03  0.59896503705E+03 -0.24843868680E+03  0.93207910995E+03  0.94035684813E+02 0.  0.
         23    2    4    4    0    0  0.73957512507E+02  0.17057347755E+03  0.20495917173E+03  0.29144567880E+03  0.91472928891E+02 0.  0.
          3    1    3    3  502    0 -0.35838489428E+03 -0.38377864030E+03 -0.73009511203E+03  0.89931343247E+03  0.00000000000E+00 0.  1.
         -3    1    3    3    0  502 -0.37848125483E+03 -0.38575987429E+03 -0.91617245588E+03  0.10636873177E+04  0.00000000000E+00 0. -1.
         11    1    5    5    0    0  0.81823504284E+02  0.36469573210E+02 -0.22282332340E+02  0.92312609962E+02  0.00000000000E+00 0. -1.
        -11    1    5    5    0    0  0.58108513232E+03  0.56249546384E+03 -0.22615635446E+03  0.83976649999E+03  0.00000000000E+00 0.  1.
          3    1    6    6  503    0 -0.21805476747E+02  0.33309230329E+02  0.37748505124E+02  0.54862858843E+02  0.00000000000E+00 0. -1.
         -3    1    6    6    0  503  0.95762989254E+02  0.13726424722E+03  0.16721066660E+03  0.23658281996E+03  0.00000000000E+00 0.  1.
<mgrwt>
<rscale>  0 0.10855119E+04</rscale>
<asrwt>0</asrwt>
<pdfrwt beam="1">  1        2 0.37509790E+00 0.10855119E+04</pdfrwt>
<pdfrwt beam="2">  1       -2 0.11513680E+00 0.10855119E+04</pdfrwt>
<totfact> 0.22103791E+00</totfact>
</mgrwt>
</event>
<event>
12    1  0.1444206E-007  0.1965249E+04  0.7818608E-02  0.8623042E-01
          2   -1    0    0  501    0  0.00000000000E+00  0.00000000000E+00  0.14350491340E+04  0.14350491340E+04  0.00000000000E+00 0. -1.
         -2   -1    0    0    0  501 -0.00000000000E+00 -0.00000000000E+00 -0.30532696036E+04  0.30532696036E+04  0.00000000000E+00 0.  1.
         23    2    1    2    0    0 -0.15110710980E+04 -0.12178132892E+04 -0.88715956094E+02  0.19455170772E+04  0.10373575011E+03 0.  0.
    5000000    2    1    2    0    0  0.15110710980E+04  0.12178132892E+04 -0.15295045135E+04  0.25428016605E+04  0.60004262938E+03 0.  0.
         23    2    4    4    0    0  0.14172470162E+04  0.95528516423E+03 -0.11460998499E+04  0.20598355992E+04  0.90658589208E+02 0.  0.
         23    2    4    4    0    0  0.93824081879E+02  0.26252812501E+03 -0.38340466360E+03  0.48296606135E+03  0.92374810333E+02 0.  0.
          1    1    3    3  502    0 -0.14610987371E+04 -0.11825392608E+04 -0.67916425505E+02  0.18809096905E+04  0.00000000000E+00 0. -1.
         -1    1    3    3    0  502 -0.49972360935E+02 -0.35274028459E+02 -0.20799530590E+02  0.64607386682E+02  0.00000000000E+00 0.  1.
         11    1    5    5    0    0  0.10117605919E+04  0.72289397030E+03 -0.85916078778E+03  0.15114206717E+04  0.00000000000E+00 0. -1.
        -11    1    5    5    0    0  0.40548642425E+03  0.23239119393E+03 -0.28693906215E+03  0.54841492746E+03  0.00000000000E+00 0.  1.
          2    1    6    6  503    0  0.79164940026E+02  0.21770072887E+03 -0.24695939804E+03  0.33859952652E+03  0.00000000000E+00 0. -1.
         -2    1    6    6    0  503  0.14659141853E+02  0.44827396137E+02 -0.13644526556E+03  0.14436653483E+03  0.00000000000E+00 0.  1.
<mgrwt>
<rscale>  0 0.19652493E+04</rscale>
<asrwt>0</asrwt>
<pdfrwt beam="1">  1        2 0.22077679E+00 0.19652493E+04</pdfrwt>
<pdfrwt beam="2">  1       -2 0.46973378E+00 0.19652493E+04</pdfrwt>
<totfact> 0.31745420E-02</totfact>
</mgrwt>
</event>
<event>
12    1  0.1518560E-007  0.1923758E+04  0.7818608E-02  0.8643120E-01
          1   -1    0    0  501    0  0.00000000000E+00  0.00000000000E+00  0.19484561360E+04  0.19484561360E+04  0.00000000000E+00 0. -1.
         -1   -1    0    0    0  501 -0.00000000000E+00 -0.00000000000E+00 -0.21178000172E+04  0.21178000172E+04  0.00000000000E+00 0.  1.
         23    2    1    2    0    0 -0.32512977660E+03 -0.18892799709E+04  0.43591167431E+03  0.19682424778E+04  0.94187491429E+02 0.  0.
    5000000    2    1    2    0    0  0.32512977660E+03  0.18892799709E+04 -0.60525555551E+03  0.20980136754E+04  0.60019906261E+03 0.  0.
         23    2    4    4    0    0  0.33949884044E+03  0.16189918048E+04 -0.69853621810E+03  0.17978800067E+04  0.89586517004E+02 0.  0.
         23    2    4    4    0    0 -0.14369063844E+02  0.27028816612E+03  0.93280662586E+02  0.30013366870E+03  0.90093142540E+02 0.  0.
          1    1    3    3  502    0 -0.18418561274E+03 -0.11173999488E+04  0.21062779052E+03  0.11518988895E+04  0.00000000000E+00 0. -1.
         -1    1    3    3    0  502 -0.14094416386E+03 -0.77188002206E+03  0.22528388379E+03  0.81634358825E+03  0.00000000000E+00 0.  1.
         11    1    5    5    0    0  0.22390890161E+03  0.10468355389E+04 -0.40551966572E+03  0.11447471515E+04  0.00000000000E+00 0.  1.
        -11    1    5    5    0    0  0.11558993883E+03  0.57215626592E+03 -0.29301655238E+03  0.65313285521E+03  0.00000000000E+00 0. -1.
          1    1    6    6  503    0 -0.35462907931E+02  0.16068904699E+03  0.18065234767E+02  0.16554437583E+03  0.00000000000E+00 0. -1.
         -1    1    6    6    0  503  0.21093844087E+02  0.10959911913E+03  0.75215427819E+02  0.13458929286E+03  0.00000000000E+00 0.  1.
<mgrwt>
<rscale>  0 0.19237583E+04</rscale>
<asrwt>0</asrwt>
<pdfrwt beam="1">  1        1 0.29976248E+00 0.19237583E+04</pdfrwt>
<pdfrwt beam="2">  1       -1 0.32581539E+00 0.19237583E+04</pdfrwt>
<totfact> 0.65061517E-02</totfact>
</mgrwt>
</event>
<event>
12    1  0.1444206E-007  0.7404333E+03  0.7818608E-02  0.9650480E-01
          2   -1    0    0  501    0  0.00000000000E+00  0.00000000000E+00  0.26372350202E+03  0.26372350202E+03  0.00000000000E+00 0. -1.
         -2   -1    0    0    0  501 -0.00000000000E+00 -0.00000000000E+00 -0.24216932403E+04  0.24216932403E+04  0.00000000000E+00 0.  1.
         23    2    1    2    0    0 -0.12259674224E+03 -0.62061075076E+03 -0.13643159032E+04  0.15064336095E+04  0.88298759099E+02 0.  0.
    5000000    2    1    2    0    0  0.12259674224E+03  0.62061075076E+03 -0.79365383501E+03  0.11789831328E+04  0.59993929058E+03 0.  0.
         23    2    4    4    0    0 -0.79256744763E+02  0.63918827554E+03 -0.60888202176E+03  0.89081790514E+03  0.89308121187E+02 0.  0.
         23    2    4    4    0    0  0.20185348700E+03 -0.18577524784E+02 -0.18477181325E+03  0.28816522764E+03  0.88366400889E+02 0.  0.
          4    1    3    3  502    0 -0.12274121875E+03 -0.55864373721E+03 -0.11672424789E+04  0.12998473897E+04  0.00000000000E+00 0. -1.
         -4    1    3    3    0  502  0.14447651288E+00 -0.61967013541E+02 -0.19707342437E+03  0.20658621986E+03  0.00000000000E+00 0.  1.
         11    1    5    5    0    0 -0.27789739126E+02  0.27822016626E+03 -0.32496630911E+03  0.42869783365E+03  0.00000000000E+00 0.  1.
        -11    1    5    5    0    0 -0.51467005637E+02  0.36096810928E+03 -0.28391571265E+03  0.46212007149E+03  0.00000000000E+00 0. -1.
          3    1    6    6  503    0  0.16685222245E+03 -0.15142061011E+02 -0.96959508633E+02  0.19357193097E+03  0.00000000000E+00 0. -1.
         -3    1    6    6    0  503  0.35001264558E+02 -0.34354637739E+01 -0.87812304614E+02  0.94593296664E+02  0.00000000000E+00 0.  1.
<mgrwt>
<rscale>  0 0.74043331E+03</rscale>
<asrwt>0</asrwt>
<pdfrwt beam="1">  1        2 0.40572848E-01 0.74043331E+03</pdfrwt>
<pdfrwt beam="2">  1       -2 0.37256818E+00 0.74043331E+03</pdfrwt>
<totfact> 0.14995019E+00</totfact>
</mgrwt>
</event>
<event>
12    1  0.1444206E-007  0.1758939E+04  0.7818608E-02  0.8728445E-01
         -2   -1    0    0    0  501 -0.00000000000E+00  0.00000000000E+00  0.14183060115E+04  0.14183060115E+04  0.00000000000E+00 0.  1.
          2   -1    0    0  501    0  0.00000000000E+00 -0.00000000000E+00 -0.25029240735E+04  0.25029240735E+04  0.00000000000E+00 0. -1.
         23    2    1    2    0    0  0.14589137886E+04  0.96276590178E+03  0.52897411594E+02  0.17511002374E+04  0.90588525764E+02 0.  0.
    5000000    2    1    2    0    0 -0.14589137886E+04 -0.96276590178E+03 -0.11375154736E+04  0.21701298477E+04  0.60014538154E+03 0.  0.
         23    2    4    4    0    0 -0.12326843307E+04 -0.73814744029E+03 -0.64735050465E+03  0.15784106853E+04  0.89136484658E+02 0.  0.
         23    2    4    4    0    0 -0.22622945790E+03 -0.22461846149E+03 -0.49016496892E+03  0.59171916237E+03  0.90755988731E+02 0.  0.
          1    1    3    3  502    0  0.65631933098E+03  0.37961648973E+03  0.18350322515E+02  0.75841972405E+03  0.00000000000E+00 0. -1.
         -1    1    3    3    0  502  0.80259445759E+03  0.58314941205E+03  0.34547089080E+02  0.99268051330E+03  0.00000000000E+00 0.  1.
         13    1    5    5    0    0 -0.35414073734E+03 -0.23681674068E+03 -0.23029821325E+03  0.48428823807E+03  0.00000000000E+00 0.  1.
        -13    1    5    5    0    0 -0.87854359333E+03 -0.50133069961E+03 -0.41705229140E+03  0.10941224472E+04  0.00000000000E+00 0. -1.
          1    1    6    6  503    0 -0.10425600927E+03 -0.46448799456E+02 -0.19608650573E+03  0.22688482578E+03  0.00000000000E+00 0. -1.
         -1    1    6    6    0  503 -0.12197344863E+03 -0.17816966203E+03 -0.29407846319E+03  0.36483433659E+03  0.00000000000E+00 0.  1.
<mgrwt>
<rscale>  0 0.17589390E+04</rscale>
<asrwt>0</asrwt>
<pdfrwt beam="1">  1        2 0.38506524E+00 0.17589390E+04</pdfrwt>
<pdfrwt beam="2">  1       -2 0.21820092E+00 0.17589390E+04</pdfrwt>
<totfact> 0.32132765E-01</totfact>
</mgrwt>
</event>
<event>
12    1  0.1444206E-007  0.5305814E+03  0.7818608E-02  0.1006091E+00
         -2   -1    0    0    0  501 -0.00000000000E+00  0.00000000000E+00  0.41112932033E+03  0.41112932033E+03  0.00000000000E+00 0.  1.
          2   -1    0    0  501    0  0.00000000000E+00 -0.00000000000E+00 -0.84738742625E+03  0.84738742625E+03  0.00000000000E+00 0. -1.
         23    2    1    2    0    0  0.26029476296E+03  0.32996260031E+03 -0.26945074185E+03  0.50724276491E+03  0.89793312933E+02 0.  0.
    5000000    2    1    2    0    0 -0.26029476296E+03 -0.32996260031E+03 -0.16680736408E+03  0.75127398167E+03  0.59996601370E+03 0.  0.
         23    2    4    4    0    0 -0.12815631668E+03 -0.43915814497E+03  0.40627352904E+02  0.46795177484E+03  0.89690378406E+02 0.  0.
         23    2    4    4    0    0 -0.13213844628E+03  0.10919554465E+03 -0.20743471698E+03  0.28332220682E+03  0.88645784528E+02 0.  0.
          3    1    3    3  502    0  0.14875238830E+03  0.12453698038E+03 -0.14666014824E+03  0.24319936593E+03  0.00000000000E+00 0. -1.
         -3    1    3    3    0  502  0.11154237466E+03  0.20542561993E+03 -0.12279059361E+03  0.26404339898E+03  0.00000000000E+00 0.  1.
         11    1    5    5    0    0 -0.46065466185E+02 -0.22584856593E+03 -0.20355537455E+02  0.23139565643E+03  0.00000000000E+00 0.  1.
        -11    1    5    5    0    0 -0.82090850495E+02 -0.21330957903E+03  0.60982890359E+02  0.23655611841E+03  0.00000000000E+00 0. -1.
          2    1    6    6  503    0 -0.11843137827E+03  0.10850605776E+03 -0.13565535846E+03  0.21024255565E+03  0.00000000000E+00 0.  1.
         -2    1    6    6    0  503 -0.13707068004E+02  0.68948689675E+00 -0.71779358521E+02  0.73079651170E+02  0.00000000000E+00 0. -1.
<mgrwt>
<rscale>  0 0.53058136E+03</rscale>
<asrwt>0</asrwt>
<pdfrwt beam="1">  1        2 0.13036730E+00 0.53058136E+03</pdfrwt>
<pdfrwt beam="2">  1       -2 0.63250665E-01 0.53058136E+03</pdfrwt>
<totfact> 0.76193672E+01</totfact>
</mgrwt>
</event>
<event>
12    1  0.1444206E-007  0.9019152E+03  0.7818608E-02  0.9423190E-01
         -2   -1    0    0    0  501 -0.00000000000E+00  0.00000000000E+00  0.15917103974E+04  0.15917103974E+04  0.00000000000E+00 0.  1.
          2   -1    0    0  501    0  0.00000000000E+00 -0.00000000000E+00 -0.64123514574E+03  0.64123514574E+03  0.00000000000E+00 0. -1.
         23    2    1    2    0    0 -0.16379845937E+03  0.84053354827E+03  0.80204594835E+03  0.11769034516E+04  0.92181614290E+02 0.  0.
    5000000    2    1    2    0    0  0.16379845937E+03 -0.84053354827E+03  0.14842930328E+03  0.10560420915E+04  0.59988920639E+03 0.  0.
         23    2    4    4    0    0 -0.81695504924E+02 -0.51926929978E+03 -0.13985258115E+03  0.55047429873E+03  0.84548494267E+02 0.  0.
         23    2    4    4    0    0  0.24549396429E+03 -0.32126424849E+03  0.28828188443E+03  0.50556779280E+03  0.94943901144E+02 0.  0.
          1    1    3    3  502    0 -0.11988123759E+03  0.72059846816E+03  0.64524273062E+03  0.97466499109E+03  0.00000000000E+00 0. -1.
         -1    1    3    3    0  502 -0.43917221782E+02  0.11993508011E+03  0.15680321773E+03  0.20223846049E+03  0.00000000000E+00 0.  1.
         11    1    5    5    0    0 -0.72667321190E+02 -0.19636945855E+03 -0.54102158656E+02  0.21626036944E+03  0.00000000000E+00 0. -1.
        -11    1    5    5    0    0 -0.90281837333E+01 -0.32289984123E+03 -0.85750422495E+02  0.33421392929E+03  0.00000000000E+00 0.  1.
          4    1    6    6  503    0  0.13554775016E+02 -0.69779751832E+02  0.31202399626E+02  0.77630763450E+02  0.00000000000E+00 0. -1.
         -4    1    6    6    0  503  0.23193918928E+03 -0.25148449666E+03  0.25707948480E+03  0.42793702935E+03  0.00000000000E+00 0.  1.
<mgrwt>
<rscale>  0 0.90191522E+03</rscale>
<asrwt>0</asrwt>
<pdfrwt beam="1">  1        2 0.98651562E-01 0.90191522E+03</pdfrwt>
<pdfrwt beam="2">  1       -2 0.24487852E+00 0.90191522E+03</pdfrwt>
<totfact> 0.31883068E+00</totfact>
</mgrwt>
</event>
<event>
12    1  0.1444206E-007  0.3688549E+03  0.7818608E-02  0.1055132E+00
         -1   -1    0    0    0  501 -0.00000000000E+00  0.00000000000E+00  0.37683893681E+03  0.37683893681E+03  0.00000000000E+00 0.  1.
          1   -1    0    0  501    0  0.00000000000E+00 -0.00000000000E+00 -0.83012248045E+03  0.83012248045E+03  0.00000000000E+00 0. -1.
         23    2    1    2    0    0  0.20718177454E+03 -0.10454235524E+03 -0.50364261467E+03  0.56178806702E+03  0.89980871254E+02 0.  0.
    5000000    2    1    2    0    0 -0.20718177454E+03  0.10454235524E+03  0.50359071036E+02  0.64517335024E+03  0.59988267527E+03 0.  0.
         23    2    4    4    0    0  0.75169994992E+01 -0.14648724412E+03 -0.16570785087E+03  0.23994114979E+03  0.92723489748E+02 0.  0.
         23    2    4    4    0    0 -0.21469877404E+03  0.25102959936E+03  0.21606692191E+03  0.40523220045E+03  0.91743109880E+02 0.  0.
          2    1    3    3  502    0  0.13253488325E+03 -0.34290032427E+02 -0.20919421385E+03  0.25000704133E+03  0.00000000000E+00 0. -1.
         -2    1    3    3    0  502  0.74646891295E+02 -0.70252322810E+02 -0.29444840082E+03  0.31178102570E+03  0.00000000000E+00 0.  1.
         13    1    5    5    0    0  0.25470973147E+02 -0.37303046959E+02 -0.58830119889E+01  0.45551044067E+02  0.00000000000E+00 0.  1.
        -13    1    5    5    0    0 -0.17953973648E+02 -0.10918419716E+03 -0.15982483888E+03  0.19439010572E+03  0.00000000000E+00 0. -1.
          2    1    6    6  503    0 -0.46471351688E-01  0.44853956821E+02  0.34542927065E+02  0.56613544424E+02  0.00000000000E+00 0.  1.
         -2    1    6    6    0  503 -0.21465230269E+03  0.20617564254E+03  0.18152399484E+03  0.34861865603E+03  0.00000000000E+00 0. -1.
<mgrwt>
<rscale>  0 0.36885494E+03</rscale>
<asrwt>0</asrwt>
<pdfrwt beam="1">  1        1 0.12771115E+00 0.36885494E+03</pdfrwt>
<pdfrwt beam="2">  1       -1 0.57975222E-01 0.36885494E+03</pdfrwt>
<totfact> 0.67169897E+01</totfact>
</mgrwt>
</event>
<event>
12    1  0.1444206E-007  0.4682078E+03  0.7818608E-02  0.1022427E+00
          1   -1    0    0  501    0  0.00000000000E+00  0.00000000000E+00  0.71078262926E+03  0.71078262926E+03  0.00000000000E+00 0. -1.
         -1   -1    0    0    0  501 -0.00000000000E+00 -0.00000000000E+00 -0.44590318465E+03  0.44590318465E+03  0.00000000000E+00 0.  1.
         23    2    1    2    0    0 -0.77349415071E+02 -0.38753259233E+03  0.67808209603E+02  0.41147673319E+03  0.92470030483E+02 0.  0.
    5000000    2    1    2    0    0  0.77349415071E+02  0.38753259233E+03  0.19707123501E+03  0.74520908073E+03  0.60027915190E+03 0.  0.
         23    2    4    4    0    0  0.18769541365E+03  0.69084704496E+02  0.30710184111E+03  0.37882606511E+03  0.95892554936E+02 0.  0.
         23    2    4    4    0    0 -0.11034599858E+03  0.31844788783E+03 -0.11003060610E+03  0.36638301562E+03  0.92436373741E+02 0.  0.
          1    1    3    3  502    0 -0.76805036850E+02 -0.28956174779E+03  0.14465131714E+02  0.29992375615E+03  0.00000000000E+00 0. -1.
         -1    1    3    3    0  502 -0.54437822150E+00 -0.97970844538E+02  0.53343077889E+02  0.11155297704E+03  0.00000000000E+00 0.  1.
         11    1    5    5    0    0  0.45603126818E+02  0.24000188427E+02  0.16505656703E+03  0.17291421150E+03  0.00000000000E+00 0. -1.
        -11    1    5    5    0    0  0.14209228684E+03  0.45084516070E+02  0.14204527408E+03  0.20591185360E+03  0.00000000000E+00 0.  1.
          1    1    6    6  503    0 -0.48585076783E+02  0.18401800737E+03 -0.15790325788E+02  0.19097767176E+03  0.00000000000E+00 0.  1.
         -1    1    6    6    0  503 -0.61760921799E+02  0.13442988046E+03 -0.94240280308E+02  0.17540534386E+03  0.00000000000E+00 0. -1.
<mgrwt>
<rscale>  0 0.46820783E+03</rscale>
<asrwt>0</asrwt>
<pdfrwt beam="1">  1        1 0.10935117E+00 0.46820783E+03</pdfrwt>
<pdfrwt beam="2">  1       -1 0.68600490E-01 0.46820783E+03</pdfrwt>
<totfact> 0.60282412E+01</totfact>
</mgrwt>
</event>
<event>
12    1  0.1444206E-007  0.8811960E+03  0.7818608E-02  0.9449397E-01
          1   -1    0    0  501    0  0.00000000000E+00  0.00000000000E+00  0.20792569391E+04  0.20792569391E+04  0.00000000000E+00 0. -1.
         -1   -1    0    0    0  501 -0.00000000000E+00 -0.00000000000E+00 -0.39838793019E+03  0.39838793019E+03  0.00000000000E+00 0.  1.
         23    2    1    2    0    0  0.57988942023E+03 -0.56147041892E+03  0.69205161620E+03  0.10672259902E+04  0.92277319455E+02 0.  0.
    5000000    2    1    2    0    0 -0.57988942023E+03  0.56147041892E+03  0.98881739273E+03  0.14104188791E+04  0.60000067280E+03 0.  0.
         23    2    4    4    0    0 -0.40864062161E+03  0.63018948654E+03  0.92088306999E+03  0.11917155187E+04  0.89634270230E+02 0.  0.
         23    2    4    4    0    0 -0.17124879862E+03 -0.68719067619E+02  0.67934322744E+02  0.21870336039E+03  0.95747722450E+02 0.  0.
          3    1    3    3  502    0  0.46470069741E+03 -0.47197939981E+03  0.60672783237E+03  0.89823713717E+03  0.00000000000E+00 0. -1.
         -3    1    3    3    0  502  0.11518872282E+03 -0.89491019109E+02  0.85323783830E+02  0.16898885304E+03  0.00000000000E+00 0.  1.
         11    1    5    5    0    0 -0.18938705265E+03  0.35906395712E+03  0.45449098511E+03  0.60939021699E+03  0.00000000000E+00 0.  1.
        -11    1    5    5    0    0 -0.21925356895E+03  0.27112552942E+03  0.46639208488E+03  0.58232530173E+03  0.00000000000E+00 0. -1.
          1    1    6    6  503    0 -0.12319022812E+03 -0.99064784454E+01  0.71295587054E+02  0.14267806892E+03  0.00000000000E+00 0. -1.
         -1    1    6    6    0  503 -0.48058570506E+02 -0.58812589174E+02 -0.33612643107E+01  0.76025291464E+02  0.00000000000E+00 0.  1.
<mgrwt>
<rscale>  0 0.88119602E+03</rscale>
<asrwt>0</asrwt>
<pdfrwt beam="1">  1        1 0.31988568E+00 0.88119602E+03</pdfrwt>
<pdfrwt beam="2">  1       -1 0.61290452E-01 0.88119602E+03</pdfrwt>
<totfact> 0.73080818E+00</totfact>
</mgrwt>
</event>
<event>
12    1  0.1444206E-007  0.8640757E+03  0.7818608E-02  0.9471637E-01
          2   -1    0    0  501    0  0.00000000000E+00  0.00000000000E+00  0.96041992664E+03  0.96041992664E+03  0.00000000000E+00 0. -1.
         -2   -1    0    0    0  501 -0.00000000000E+00 -0.00000000000E+00 -0.83001520624E+03  0.83001520624E+03  0.00000000000E+00 0.  1.
         23    2    1    2    0    0  0.36725414095E+03  0.67216100282E+03  0.24735890737E+03  0.81046845582E+03  0.94850783212E+02 0.  0.
    5000000    2    1    2    0    0 -0.36725414095E+03 -0.67216100282E+03 -0.11695418696E+03  0.97996667706E+03  0.59998365689E+03 0.  0.
         23    2    4    4    0    0  0.53042980953E+02  0.57732638304E+02  0.21749668530E+02  0.12160494834E+03  0.90377541606E+02 0.  0.
         23    2    4    4    0    0 -0.42029712190E+03 -0.72989364112E+03 -0.13870385549E+03  0.85836172871E+03  0.90286764033E+02 0.  0.
          2    1    3    3  502    0  0.31931459062E+03  0.52147168534E+03  0.17138545581E+03  0.63503346436E+03  0.00000000000E+00 0.  1.
         -2    1    3    3    0  502  0.47939550328E+02  0.15068931748E+03  0.75973451558E+02  0.17543499146E+03  0.00000000000E+00 0. -1.
         13    1    5    5    0    0 -0.21690452036E+02  0.25200281925E+02 -0.90717031152E+01  0.34464847541E+02  0.00000000000E+00 0. -1.
        -13    1    5    5    0    0  0.74733432989E+02  0.32532356379E+02  0.30821371646E+02  0.87140100803E+02  0.00000000000E+00 0.  1.
          2    1    6    6  503    0 -0.48975696236E+01 -0.12443887434E+01 -0.80512701559E+01  0.95056637162E+01  0.00000000000E+00 0. -1.
         -2    1    6    6    0  503 -0.41539955228E+03 -0.72864925238E+03 -0.13065258534E+03  0.84885606500E+03  0.00000000000E+00 0.  1.
<mgrwt>
<rscale>  0 0.86407568E+03</rscale>
<asrwt>0</asrwt>
<pdfrwt beam="1">  1        2 0.14775691E+00 0.86407568E+03</pdfrwt>
<pdfrwt beam="2">  1       -2 0.12769465E+00 0.86407568E+03</pdfrwt>
<totfact> 0.12199401E+01</totfact>
</mgrwt>
</event>
<event>
12    1  0.1444206E-007  0.8586303E+03  0.7818608E-02  0.9478826E-01
          2   -1    0    0  501    0  0.00000000000E+00  0.00000000000E+00  0.32665478656E+03  0.32665478656E+03  0.00000000000E+00 0. -1.
         -2   -1    0    0    0  501 -0.00000000000E+00 -0.00000000000E+00 -0.24437916235E+04  0.24437916235E+04  0.00000000000E+00 0.  1.
         23    2    1    2    0    0 -0.71574505647E+03  0.28209569825E+03 -0.66195187356E+03  0.10184905184E+04  0.85285897844E+02 0.  0.
    5000000    2    1    2    0    0  0.71574505647E+03 -0.28209569825E+03 -0.14551849634E+04  0.17519558916E+04  0.59993099582E+03 0.  0.
         23    2    4    4    0    0  0.33918679794E+03  0.13872624644E+03 -0.78333893059E+03  0.86924401656E+03  0.87593520253E+02 0.  0.
         23    2    4    4    0    0  0.37655825853E+03 -0.42082194469E+03 -0.67184603277E+03  0.88271187506E+03  0.94424209976E+02 0.  0.
          4    1    3    3  502    0 -0.55209101030E+03  0.19484794572E+03 -0.46222945820E+03  0.74593986194E+03  0.00000000000E+00 0. -1.
         -4    1    3    3    0  502 -0.16365404616E+03  0.87247752530E+02 -0.19972241537E+03  0.27255065648E+03  0.00000000000E+00 0.  1.
         13    1    5    5    0    0  0.26505884253E+02  0.38570726978E+02 -0.73275150394E+02  0.86945445797E+02  0.00000000000E+00 0. -1.
        -13    1    5    5    0    0  0.31268091369E+03  0.10015551946E+03 -0.71006378020E+03  0.78229857076E+03  0.00000000000E+00 0.  1.
          2    1    6    6  503    0  0.12687772212E+03 -0.84926237094E+02 -0.20698100048E+03  0.25719944922E+03  0.00000000000E+00 0.  1.
         -2    1    6    6    0  503  0.24968053641E+03 -0.33589570759E+03 -0.46486503228E+03  0.62551242584E+03  0.00000000000E+00 0. -1.
<mgrwt>
<rscale>  0 0.85863026E+03</rscale>
<asrwt>0</asrwt>
<pdfrwt beam="1">  1        2 0.50254582E-01 0.85863026E+03</pdfrwt>
<pdfrwt beam="2">  1       -2 0.37596795E+00 0.85863026E+03</pdfrwt>
<totfact> 0.11035457E+00</totfact>
</mgrwt>
</event>
<event>
12    1  0.1444206E-007  0.3931455E+03  0.7818608E-02  0.1046179E+00
          1   -1    0    0  501    0  0.00000000000E+00  0.00000000000E+00  0.11150975978E+04  0.11150975978E+04  0.00000000000E+00 0. -1.
         -1   -1    0    0    0  501 -0.00000000000E+00 -0.00000000000E+00 -0.16719461906E+03  0.16719461906E+03  0.00000000000E+00 0.  1.
         23    2    1    2    0    0 -0.55449490087E+02  0.19802732821E+03  0.19600592459E+03  0.29846289307E+03  0.91500313628E+02 0.  0.
    5000000    2    1    2    0    0  0.55449490087E+02 -0.19802732821E+03  0.75189705419E+03  0.98382932384E+03  0.60023452890E+03 0.  0.
         23    2    4    4    0    0  0.22672108907E+03  0.70169396487E+02  0.14451685142E+03  0.29227134439E+03  0.90615793174E+02 0.  0.
         23    2    4    4    0    0 -0.17127159898E+03 -0.26819672470E+03  0.60738020276E+03  0.69155797945E+03  0.89879277254E+02 0.  0.
          3    1    3    3  502    0 -0.45821348794E+01  0.13475043718E+03  0.16113623388E+03  0.21010369381E+03  0.00000000000E+00 0. -1.
         -3    1    3    3    0  502 -0.50867355207E+02  0.63276891028E+02  0.34869690709E+02  0.88359199261E+02  0.00000000000E+00 0.  1.
         11    1    5    5    0    0  0.12409620864E+03  0.75053293699E+02  0.52162323991E+02  0.15412259386E+03  0.00000000000E+00 0. -1.
        -11    1    5    5    0    0  0.10262488043E+03 -0.48838972120E+01  0.92354527432E+02  0.13814875052E+03  0.00000000000E+00 0.  1.
          1    1    6    6  503    0 -0.85826480712E+02 -0.18155911622E+03  0.44871034021E+03  0.49160031213E+03  0.00000000000E+00 0.  1.
         -1    1    6    6    0  503 -0.85445118269E+02 -0.86637608478E+02  0.15866986255E+03  0.19995766732E+03  0.00000000000E+00 0. -1.
<mgrwt>
<rscale>  0 0.39314553E+03</rscale>
<asrwt>0</asrwt>
<pdfrwt beam="1">  1        1 0.17155347E+00 0.39314553E+03</pdfrwt>
<pdfrwt beam="2">  1       -1 0.25722250E-01 0.39314553E+03</pdfrwt>
<totfact> 0.17301983E+02</totfact>
</mgrwt>
</event>
<event>
12    1  0.1444206E-007  0.6150760E+03  0.7818608E-02  0.9874613E-01
         -3   -1    0    0    0  501 -0.00000000000E+00  0.00000000000E+00  0.53374386948E+03  0.53374386948E+03  0.00000000000E+00 0.  1.
          3   -1    0    0  501    0  0.00000000000E+00 -0.00000000000E+00 -0.76636511100E+03  0.76636511100E+03  0.00000000000E+00 0. -1.
         23    2    1    2    0    0 -0.38220965581E+03  0.30269266715E+03 -0.11706154825E+02  0.49603961718E+03  0.90615649914E+02 0.  0.
    5000000    2    1    2    0    0  0.38220965581E+03 -0.30269266715E+03 -0.22091508669E+03  0.80406936331E+03  0.60001416128E+03 0.  0.
         23    2    4    4    0    0 -0.72889128878E+00 -0.34492310943E+03 -0.12081513839E+02  0.35655588174E+03  0.89518998646E+02 0.  0.
         23    2    4    4    0    0  0.38293854710E+03  0.42230442288E+02 -0.20883357286E+03  0.44751348157E+03  0.90727691062E+02 0.  0.
          1    1    3    3  502    0 -0.83522113171E+02  0.63401887297E+02  0.34846854979E+02  0.11049907693E+03  0.00000000000E+00 0. -1.
         -1    1    3    3    0  502 -0.29868754264E+03  0.23929077985E+03 -0.46553009804E+02  0.38554054024E+03  0.00000000000E+00 0.  1.
         11    1    5    5    0    0 -0.22140504500E+02 -0.79832183795E+02 -0.34321130381E+02  0.89673404640E+02  0.00000000000E+00 0.  1.
        -11    1    5    5    0    0  0.21411613211E+02 -0.26509092564E+03  0.22239616542E+02  0.26688247710E+03  0.00000000000E+00 0. -1.
          2    1    6    6  503    0  0.21731411705E+03 -0.16751315352E+02 -0.92990691196E+02  0.23696687677E+03  0.00000000000E+00 0. -1.
         -2    1    6    6    0  503  0.16562443005E+03  0.58981757640E+02 -0.11584288166E+03  0.21054660480E+03  0.00000000000E+00 0.  1.
<mgrwt>
<rscale>  0 0.61507601E+03</rscale>
<asrwt>0</asrwt>
<pdfrwt beam="1">  1        3 0.11790232E+00 0.61507601E+03</pdfrwt>
<pdfrwt beam="2">  1       -3 0.82114442E-01 0.61507601E+03</pdfrwt>
<totfact> 0.21179862E+00</totfact>
</mgrwt>
</event>
<event>
12    1  0.1444206E-007  0.8032099E+03  0.7818608E-02  0.9555382E-01
          1   -1    0    0  501    0  0.00000000000E+00  0.00000000000E+00  0.13376165233E+04  0.13376165233E+04  0.00000000000E+00 0. -1.
         -1   -1    0    0    0  501 -0.00000000000E+00 -0.00000000000E+00 -0.63394539306E+03  0.63394539306E+03  0.00000000000E+00 0.  1.
         23    2    1    2    0    0  0.66175763397E+03  0.41169413493E+03  0.42638092405E+02  0.78659525546E+03  0.97462106200E+02 0.  0.
    5000000    2    1    2    0    0 -0.66175763397E+03 -0.41169413493E+03  0.66103303782E+03  0.11849666609E+04  0.59980503788E+03 0.  0.
         23    2    4    4    0    0 -0.85700008991E+02 -0.14569476155E+03 -0.78368673447E+02  0.20641959786E+03  0.88859137510E+02 0.  0.
         23    2    4    4    0    0 -0.57605762498E+03 -0.26599937338E+03  0.73940171126E+03  0.97854706303E+03  0.90782211918E+02 0.  0.
          2    1    3    3  502    0  0.42110783513E+03  0.25232845143E+03  0.73204442475E+02  0.49634700221E+03  0.00000000000E+00 0. -1.
         -2    1    3    3    0  502  0.24064979883E+03  0.15936568350E+03 -0.30566350070E+02  0.29024825325E+03  0.00000000000E+00 0.  1.
         13    1    5    5    0    0 -0.63788679469E+02 -0.15442803779E+03 -0.72353774876E+02  0.18207713537E+03  0.00000000000E+00 0. -1.
        -13    1    5    5    0    0 -0.21911329522E+02  0.87332762439E+01 -0.60148985709E+01  0.24342462493E+02  0.00000000000E+00 0.  1.
          3    1    6    6  503    0 -0.24942937701E+03 -0.14056129183E+03  0.39260409045E+03  0.48591199071E+03  0.00000000000E+00 0. -1.
         -3    1    6    6    0  503 -0.32662824797E+03 -0.12543808155E+03  0.34679762082E+03  0.49263507232E+03  0.00000000000E+00 0.  1.
<mgrwt>
<rscale>  0 0.80320994E+03</rscale>
<asrwt>0</asrwt>
<pdfrwt beam="1">  1        1 0.20578716E+00 0.80320994E+03</pdfrwt>
<pdfrwt beam="2">  1       -1 0.97530061E-01 0.80320994E+03</pdfrwt>
<totfact> 0.88294468E+00</totfact>
</mgrwt>
</event>
<event>
12    1  0.1444206E-007  0.7459782E+03  0.7818608E-02  0.9641681E-01
          2   -1    0    0  501    0  0.00000000000E+00  0.00000000000E+00  0.72078639369E+03  0.72078639369E+03  0.00000000000E+00 0. -1.
         -2   -1    0    0    0  501 -0.00000000000E+00 -0.00000000000E+00 -0.10537712352E+04  0.10537712352E+04  0.00000000000E+00 0.  1.
         23    2    1    2    0    0 -0.54992881302E+03 -0.48051006586E+03 -0.38019426951E+03  0.82822948121E+03  0.90026486127E+02 0.  0.
    5000000    2    1    2    0    0  0.54992881302E+03  0.48051006586E+03  0.47209428004E+02  0.94632814767E+03  0.59999717516E+03 0.  0.
         23    2    4    4    0    0  0.15211570436E+03  0.20778465288E+03  0.29003307855E+03  0.39830940576E+03  0.90650684385E+02 0.  0.
         23    2    4    4    0    0  0.39781310866E+03  0.27272541298E+03 -0.24282365054E+03  0.54801874191E+03  0.93417321275E+02 0.  0.
          3    1    3    3  502    0 -0.34836902336E+03 -0.29976573182E+03 -0.28733645057E+03  0.54201725640E+03  0.00000000000E+00 0. -1.
         -3    1    3    3    0  502 -0.20155978966E+03 -0.18074433404E+03 -0.92857818941E+02  0.28621222481E+03  0.00000000000E+00 0.  1.
         13    1    5    5    0    0  0.10085819679E+03  0.66724384015E+02  0.10579221439E+03  0.16067517515E+03  0.00000000000E+00 0. -1.
        -13    1    5    5    0    0  0.51257507567E+02  0.14106026886E+03  0.18424086416E+03  0.23763423061E+03  0.00000000000E+00 0.  1.
          4    1    6    6  503    0  0.22124916054E+03  0.97207204357E+02 -0.10538485905E+03  0.26364066480E+03  0.00000000000E+00 0. -1.
         -4    1    6    6    0  503  0.17656394812E+03  0.17551820862E+03 -0.13743879150E+03  0.28437807711E+03  0.00000000000E+00 0.  1.
<mgrwt>
<rscale>  0 0.74597820E+03</rscale>
<asrwt>0</asrwt>
<pdfrwt beam="1">  1        2 0.11089021E+00 0.74597820E+03</pdfrwt>
<pdfrwt beam="2">  1       -2 0.16211865E+00 0.74597820E+03</pdfrwt>
<totfact> 0.97537851E+00</totfact>
</mgrwt>
</event>
<event>
12    1  0.1444206E-007  0.1005976E+04  0.7818608E-02  0.9302015E-01
         -2   -1    0    0    0  501 -0.00000000000E+00  0.00000000000E+00  0.78925738572E+03  0.78925738572E+03  0.00000000000E+00 0.  1.
          2   -1    0    0  501    0  0.00000000000E+00 -0.00000000000E+00 -0.16351344754E+04  0.16351344754E+04  0.00000000000E+00 0. -1.
         23    2    1    2    0    0  0.62535115146E+03  0.71873618065E+03  0.88722050353E+02  0.96115620438E+03  0.91125665931E+02 0.  0.
    5000000    2    1    2    0    0 -0.62535115146E+03 -0.71873618065E+03 -0.93459914002E+03  0.14632356567E+04  0.59994772658E+03 0.  0.
         23    2    4    4    0    0  0.35222042854E+02 -0.75863620310E+01  0.18178759868E+02  0.99833724875E+02  0.91313526492E+02 0.  0.
         23    2    4    4    0    0 -0.66057319432E+03 -0.71114981861E+03 -0.95277789989E+03  0.13634019319E+04  0.94805546960E+02 0.  0.
          3    1    3    3  502    0  0.33574919548E+03  0.45284801173E+03  0.61113377904E+02  0.56703940687E+03  0.00000000000E+00 0. -1.
         -3    1    3    3    0  502  0.28960195598E+03  0.26588816892E+03  0.27608672449E+02  0.39411679750E+03  0.00000000000E+00 0.  1.
         11    1    5    5    0    0 -0.10657253644E+02  0.25628854208E+02  0.31154806002E+02  0.41725737384E+02  0.00000000000E+00 0.  1.
        -11    1    5    5    0    0  0.45879296499E+02 -0.33215216239E+02 -0.12976046134E+02  0.58107987491E+02  0.00000000000E+00 0. -1.
          2    1    6    6  503    0 -0.36773006816E+03 -0.38830343374E+03 -0.59001642718E+03  0.79631924755E+03  0.00000000000E+00 0. -1.
         -2    1    6    6    0  503 -0.29284312616E+03 -0.32284638488E+03 -0.36276147271E+03  0.56708268431E+03  0.00000000000E+00 0.  1.
<mgrwt>
<rscale>  0 0.10059756E+04</rscale>
<asrwt>0</asrwt>
<pdfrwt beam="1">  1        2 0.25155915E+00 0.10059756E+04</pdfrwt>
<pdfrwt beam="2">  1       -2 0.12142421E+00 0.10059756E+04</pdfrwt>
<totfact> 0.54644170E+00</totfact>
</mgrwt>
</event>
<event>
12    1  0.1444206E-007  0.1653418E+04  0.7818608E-02  0.8788387E-01
         -1   -1    0    0    0  501 -0.00000000000E+00  0.00000000000E+00  0.82616004433E+03  0.82616004433E+03  0.00000000000E+00 0.  1.
          1   -1    0    0  501    0  0.00000000000E+00 -0.00000000000E+00 -0.34875759705E+04  0.34875759705E+04  0.00000000000E+00 0. -1.
         23    2    1    2    0    0  0.17617440629E+03  0.16277120386E+04 -0.14654499358E+04  0.21992130931E+04  0.92254063796E+02 0.  0.
    5000000    2    1    2    0    0 -0.17617440629E+03 -0.16277120386E+04 -0.11959659904E+04  0.21145229218E+04  0.60032377480E+03 0.  0.
         23    2    4    4    0    0  0.48282782273E+02 -0.82165221498E+03 -0.28849755161E+03  0.87693748761E+03  0.91350590873E+02 0.  0.
         23    2    4    4    0    0 -0.22445718857E+03 -0.80605982363E+03 -0.90746843880E+03  0.12375854342E+04  0.89472178676E+02 0.  0.
          1    1    3    3  502    0  0.91301046699E+02  0.12017989168E+04 -0.10596829686E+04  0.16048627703E+04  0.00000000000E+00 0. -1.
         -1    1    3    3    0  502  0.84873359596E+02  0.42591312182E+03 -0.40576696715E+03  0.59435032274E+03  0.00000000000E+00 0.  1.
         13    1    5    5    0    0  0.64381682669E+02 -0.33090437463E+03 -0.11846170320E+03  0.35731761969E+03  0.00000000000E+00 0. -1.
        -13    1    5    5    0    0 -0.16098900396E+02 -0.49074784035E+03 -0.17003584841E+03  0.51961986793E+03  0.00000000000E+00 0.  1.
          1    1    6    6  503    0 -0.21063867029E+03 -0.66818792353E+03 -0.72167675428E+03  0.10058136449E+04  0.00000000000E+00 0. -1.
         -1    1    6    6    0  503 -0.13818518278E+02 -0.13787190009E+03 -0.18579168452E+03  0.23177178931E+03  0.00000000000E+00 0.  1.
<mgrwt>
<rscale>  0 0.16534178E+04</rscale>
<asrwt>0</asrwt>
<pdfrwt beam="1">  1        1 0.53655014E+00 0.16534178E+04</pdfrwt>
<pdfrwt beam="2">  1       -1 0.12710155E+00 0.16534178E+04</pdfrwt>
<totfact> 0.12910316E-01</totfact>
</mgrwt>
</event>
<event>
12    1  0.1444206E-007  0.5294307E+03  0.7818608E-02  0.1006370E+00
          2   -1    0    0  501    0  0.00000000000E+00  0.00000000000E+00  0.19475515919E+04  0.19475515919E+04  0.00000000000E+00 0. -1.
         -2   -1    0    0    0  501 -0.00000000000E+00 -0.00000000000E+00 -0.14664836935E+03  0.14664836935E+03  0.00000000000E+00 0.  1.
         23    2    1    2    0    0 -0.35681821319E+03 -0.24992732495E+02  0.65910957676E+03  0.75568189303E+03  0.93197721688E+02 0.  0.
    5000000    2    1    2    0    0  0.35681821319E+03  0.24992732495E+02  0.11417936458E+04  0.13385180682E+04  0.59999501286E+03 0.  0.
         23    2    4    4    0    0  0.51065473099E+03  0.31436259410E+01  0.87409450257E+03  0.10163861822E+04  0.90672682434E+02 0.  0.
         23    2    4    4    0    0 -0.15383651780E+03  0.21849106554E+02  0.26769914325E+03  0.32213188602E+03  0.89235996268E+02 0.  0.
          4    1    3    3  502    0 -0.15510200067E+03  0.35352217996E+02  0.28570854442E+03  0.32701037030E+03  0.00000000000E+00 0. -1.
         -4    1    3    3    0  502 -0.20171621252E+03 -0.60344950491E+02  0.37340103234E+03  0.42867152272E+03  0.00000000000E+00 0.  1.
         11    1    5    5    0    0  0.46496932898E+03 -0.12651998799E+02  0.74216538946E+03  0.87588013750E+03  0.00000000000E+00 0.  1.
        -11    1    5    5    0    0  0.45685402004E+02  0.15795624740E+02  0.13192911311E+03  0.14050604472E+03  0.00000000000E+00 0. -1.
          3    1    6    6  503    0 -0.94464042541E+02  0.53404424425E+02  0.19461342902E+03  0.22282251824E+03  0.00000000000E+00 0. -1.
         -3    1    6    6    0  503 -0.59372475256E+02 -0.31555317872E+02  0.73085714230E+02  0.99309367779E+02  0.00000000000E+00 0.  1.
<mgrwt>
<rscale>  0 0.52943074E+03</rscale>
<asrwt>0</asrwt>
<pdfrwt beam="1">  1        2 0.29962330E+00 0.52943074E+03</pdfrwt>
<pdfrwt beam="2">  1       -2 0.22561289E-01 0.52943074E+03</pdfrwt>
<totfact> 0.12945781E+02</totfact>
</mgrwt>
</event>
<event>
12    1  0.1444206E-007  0.6658214E+03  0.7818608E-02  0.9777536E-01
         -1   -1    0    0    0  501 -0.00000000000E+00  0.00000000000E+00  0.78894966362E+03  0.78894966362E+03  0.00000000000E+00 0.  1.
          1   -1    0    0  501    0  0.00000000000E+00 -0.00000000000E+00 -0.71965600847E+03  0.71965600847E+03  0.00000000000E+00 0. -1.
         23    2    1    2    0    0 -0.50564232409E+03 -0.27934201283E+03 -0.21886271272E+03  0.62711406845E+03  0.10800485078E+03 0.  0.
    5000000    2    1    2    0    0  0.50564232409E+03  0.27934201283E+03  0.28815636787E+03  0.88149160364E+03  0.60023931469E+03 0.  0.
         23    2    4    4    0    0  0.56376954084E+03  0.11268632839E+03  0.33934923228E+03  0.67409184291E+03  0.93314561813E+02 0.  0.
         23    2    4    4    0    0 -0.58127216749E+02  0.16665568444E+03 -0.51192864409E+02  0.20739976073E+03  0.96130436915E+02 0.  0.
          1    1    3    3  502    0 -0.44965672017E+03 -0.25901682824E+03 -0.22809739767E+03  0.56684151765E+03  0.00000000000E+00 0. -1.
         -1    1    3    3    0  502 -0.55985603920E+02 -0.20325184590E+02  0.92346849468E+01  0.60272550809E+02  0.00000000000E+00 0.  1.
         13    1    5    5    0    0  0.31852150058E+03  0.80899711465E+02  0.24286604580E+03  0.40863752379E+03  0.00000000000E+00 0. -1.
        -13    1    5    5    0    0  0.24524804025E+03  0.31786616924E+02  0.96483186475E+02  0.26545431911E+03  0.00000000000E+00 0.  1.
          4    1    6    6  503    0 -0.33978370794E+01  0.27252226579E+02 -0.50673356487E+02  0.57636951758E+02  0.00000000000E+00 0. -1.
         -4    1    6    6    0  503 -0.54729379670E+02  0.13940345786E+03 -0.51950792186E+00  0.14976280897E+03  0.00000000000E+00 0.  1.
<mgrwt>
<rscale>  0 0.66582143E+03</rscale>
<asrwt>0</asrwt>
<pdfrwt beam="1">  1        1 0.11071631E+00 0.66582143E+03</pdfrwt>
<pdfrwt beam="2">  1       -1 0.12137687E+00 0.66582143E+03</pdfrwt>
<totfact> 0.16333002E+01</totfact>
</mgrwt>
</event>
<event>
12    1  0.1444206E-007  0.4608505E+03  0.7818608E-02  0.1024535E+00
         -2   -1    0    0    0  501 -0.00000000000E+00  0.00000000000E+00  0.11640265835E+03  0.11640265835E+03  0.00000000000E+00 0.  1.
          2   -1    0    0  501    0  0.00000000000E+00 -0.00000000000E+00 -0.21314019954E+04  0.21314019954E+04  0.00000000000E+00 0. -1.
         23    2    1    2    0    0 -0.22103733530E+03  0.17020524486E+03 -0.35260899764E+03  0.45860453882E+03  0.90319924910E+02 0.  0.
    5000000    2    1    2    0    0  0.22103733530E+03 -0.17020524486E+03 -0.16623903394E+04  0.17892001149E+04  0.59989005800E+03 0.  0.
         23    2    4    4    0    0  0.35925980468E+03 -0.26097064757E+03 -0.97702346749E+03  0.10771554685E+04  0.92280882396E+02 0.  0.
         23    2    4    4    0    0 -0.13822246938E+03  0.90765402708E+02 -0.68536687188E+03  0.71204464633E+03  0.99679586301E+02 0.  0.
          3    1    3    3  502    0 -0.28112825163E+02  0.45791202128E+02 -0.26801819357E+02  0.60045837922E+02  0.00000000000E+00 0. -1.
         -3    1    3    3    0  502 -0.19292451014E+03  0.12441404273E+03 -0.32580717829E+03  0.39855870090E+03  0.00000000000E+00 0.  1.
         13    1    5    5    0    0  0.16458812672E+03 -0.90124260185E+02 -0.32056623926E+03  0.37144898369E+03  0.00000000000E+00 0.  1.
        -13    1    5    5    0    0  0.19467167796E+03 -0.17084638738E+03 -0.65645722823E+03  0.70570648486E+03  0.00000000000E+00 0. -1.
          3    1    6    6  503    0 -0.85755293266E+02  0.10672494327E+03 -0.52509316678E+03  0.54264815271E+03  0.00000000000E+00 0.  1.
         -3    1    6    6    0  503 -0.52467176110E+02 -0.15959540564E+02 -0.16027370510E+03  0.16939649362E+03  0.00000000000E+00 0. -1.
<mgrwt>
<rscale>  0 0.46085048E+03</rscale>
<asrwt>0</asrwt>
<pdfrwt beam="1">  1        2 0.32790795E+00 0.46085048E+03</pdfrwt>
<pdfrwt beam="2">  1       -2 0.17908104E-01 0.46085048E+03</pdfrwt>
<totfact> 0.15556272E+02</totfact>
</mgrwt>
</event>
<event>
12    1  0.1444206E-007  0.1038973E+04  0.7818608E-02  0.9266804E-01
          2   -1    0    0  501    0  0.00000000000E+00  0.00000000000E+00  0.15385799613E+04  0.15385799613E+04  0.00000000000E+00 0. -1.
         -2   -1    0    0    0  501 -0.00000000000E+00 -0.00000000000E+00 -0.11967486924E+04  0.11967486924E+04  0.00000000000E+00 0.  1.
         23    2    1    2    0    0 -0.20121097681E+03  0.97337424539E+03 -0.66413110797E+03  0.11989468059E+04  0.91978454689E+02 0.  0.
    5000000    2    1    2    0    0  0.20121097681E+03 -0.97337424539E+03  0.10059623769E+04  0.15363818478E+04  0.60047114796E+03 0.  0.
         23    2    4    4    0    0  0.32543137605E+03 -0.56447081516E+03  0.84690972086E+03  0.10715016419E+04  0.79541257259E+02 0.  0.
         23    2    4    4    0    0 -0.12422039924E+03 -0.40890343023E+03  0.15905265607E+03  0.46488020586E+03  0.90460685151E+02 0.  0.
          4    1    3    3  502    0 -0.15084439692E+03  0.77111014497E+03 -0.56725217498E+03  0.96909231644E+03  0.00000000000E+00 0. -1.
         -4    1    3    3    0  502 -0.50366579894E+02  0.20226410042E+03 -0.96878932996E+02  0.22985448951E+03  0.00000000000E+00 0.  1.
         11    1    5    5    0    0  0.68754854537E+02 -0.19292251617E+03  0.26595141320E+03  0.33567317655E+03  0.00000000000E+00 0. -1.
        -11    1    5    5    0    0  0.25667652152E+03 -0.37154829899E+03  0.58095830766E+03  0.73582846535E+03  0.00000000000E+00 0.  1.
          4    1    6    6  503    0 -0.35959500448E+02 -0.12618990307E+03  0.94649129722E+02  0.16178824144E+03  0.00000000000E+00 0. -1.
         -4    1    6    6    0  503 -0.88260898793E+02 -0.28271352715E+03  0.64403526347E+02  0.30309196442E+03  0.00000000000E+00 0.  1.
<mgrwt>
<rscale>  0 0.10389728E+04</rscale>
<asrwt>0</asrwt>
<pdfrwt beam="1">  1        2 0.23670461E+00 0.10389728E+04</pdfrwt>
<pdfrwt beam="2">  1       -2 0.18411518E+00 0.10389728E+04</pdfrwt>
<totfact> 0.20271501E+00</totfact>
</mgrwt>
</event>
<event>
12    1  0.1444206E-007  0.5541180E+03  0.7818608E-02  0.1000545E+00
         -2   -1    0    0    0  501 -0.00000000000E+00  0.00000000000E+00  0.34776632441E+03  0.34776632441E+03  0.00000000000E+00 0.  1.
          2   -1    0    0  501    0  0.00000000000E+00 -0.00000000000E+00 -0.14447767230E+04  0.14447767230E+04  0.00000000000E+00 0. -1.
         23    2    1    2    0    0 -0.46047612293E+03 -0.24526810091E+03 -0.14009646168E+03  0.54837271994E+03  0.94291676655E+02 0.  0.
    5000000    2    1    2    0    0  0.46047612293E+03  0.24526810091E+03 -0.95691393691E+03  0.12441703275E+04  0.60006734623E+03 0.  0.
         23    2    4    4    0    0  0.18518642714E+03  0.24142790072E+03 -0.89271722474E+03  0.94737049196E+03  0.89360850737E+02 0.  0.
         23    2    4    4    0    0  0.27528969578E+03  0.38402001957E+01 -0.64196712169E+02  0.29679983552E+03  0.90386728935E+02 0.  0.
          4    1    3    3  502    0 -0.11801299098E+03 -0.36831927501E+02  0.19638948144E+00  0.12362724413E+03  0.00000000000E+00 0. -1.
         -4    1    3    3    0  502 -0.34246313195E+03 -0.20843617341E+03 -0.14029285116E+03  0.42474547581E+03  0.00000000000E+00 0.  1.
         11    1    5    5    0    0  0.56768254821E+02  0.45585086470E+02 -0.32867385474E+03  0.33664096253E+03  0.00000000000E+00 0.  1.
        -11    1    5    5    0    0  0.12841817232E+03  0.19584281425E+03 -0.56404337000E+03  0.61072952943E+03  0.00000000000E+00 0. -1.
          1    1    6    6  503    0  0.13723000546E+03 -0.11927921488E+02  0.12094035950E+02  0.13827731345E+03  0.00000000000E+00 0. -1.
         -1    1    6    6    0  503  0.13805969032E+03  0.15768121684E+02 -0.76290748119E+02  0.15852252207E+03  0.00000000000E+00 0.  1.
<mgrwt>
<rscale>  0 0.55411795E+03</rscale>
<asrwt>0</asrwt>
<pdfrwt beam="1">  1        2 0.22227334E+00 0.55411795E+03</pdfrwt>
<pdfrwt beam="2">  1       -2 0.53502512E-01 0.55411795E+03</pdfrwt>
<totfact> 0.46974667E+01</totfact>
</mgrwt>
</event>
<event>
12    1  0.1444206E-007  0.9171940E+03  0.7818608E-02  0.9404340E-01
          1   -1    0    0  501    0  0.00000000000E+00  0.00000000000E+00  0.16772179962E+04  0.16772179962E+04  0.00000000000E+00 0. -1.
         -1   -1    0    0    0  501 -0.00000000000E+00 -0.00000000000E+00 -0.18848643901E+04  0.18848643901E+04  0.00000000000E+00 0.  1.
         23    2    1    2    0    0  0.28224377536E+02  0.83202537880E+03  0.14139301269E+04  0.16430869304E+04  0.86448890780E+02 0.  0.
    5000000    2    1    2    0    0 -0.28224377536E+02 -0.83202537880E+03 -0.16215765207E+04  0.19189954559E+04  0.59997525004E+03 0.  0.
         23    2    4    4    0    0 -0.27807920922E+03 -0.31646512064E+03 -0.85854798733E+03  0.96068129867E+03  0.91245229443E+02 0.  0.
         23    2    4    4    0    0  0.24985483168E+03 -0.51556025816E+03 -0.76302853342E+03  0.95831415722E+03  0.89014967359E+02 0.  0.
          3    1    3    3  502    0  0.37571392132E+02  0.21651227561E+03  0.41868364390E+03  0.47284793398E+03  0.00000000000E+00 0. -1.
         -3    1    3    3    0  502 -0.93470145961E+01  0.61551310319E+03  0.99524648299E+03  0.11702389964E+04  0.00000000000E+00 0.  1.
         11    1    5    5    0    0 -0.18585314991E+03 -0.20103159251E+03 -0.64801239351E+03  0.70347363608E+03  0.00000000000E+00 0. -1.
        -11    1    5    5    0    0 -0.92226059308E+02 -0.11543352813E+03 -0.21053559382E+03  0.25720766259E+03  0.00000000000E+00 0.  1.
          2    1    6    6  503    0  0.20149648251E+03 -0.46874520198E+03 -0.69911255543E+03  0.86549480761E+03  0.00000000000E+00 0. -1.
         -2    1    6    6    0  503  0.48358349174E+02 -0.46815056180E+02 -0.63915977985E+02  0.92819349608E+02  0.00000000000E+00 0.  1.
<mgrwt>
<rscale>  0 0.91719403E+03</rscale>
<asrwt>0</asrwt>
<pdfrwt beam="1">  1        1 0.25803354E+00 0.91719403E+03</pdfrwt>
<pdfrwt beam="2">  1       -1 0.28997914E+00 0.91719403E+03</pdfrwt>
<totfact> 0.19592413E-01</totfact>
</mgrwt>
</event>
<event>
12    1  0.1444206E-007  0.7654738E+03  0.7818608E-02  0.9611382E-01
         -1   -1    0    0    0  501 -0.00000000000E+00  0.00000000000E+00  0.12220720057E+04  0.12220720057E+04  0.00000000000E+00 0.  1.
          1   -1    0    0  501    0  0.00000000000E+00 -0.00000000000E+00 -0.15640014637E+04  0.15640014637E+04  0.00000000000E+00 0. -1.
         23    2    1    2    0    0  0.43616914179E+03  0.49474265398E+03 -0.13097868861E+04  0.14700990950E+04  0.10313024758E+03 0.  0.
    5000000    2    1    2    0    0 -0.43616914179E+03 -0.49474265398E+03  0.96785742814E+03  0.13159743744E+04  0.60002228209E+03 0.  0.
         23    2    4    4    0    0  0.12865030394E+03 -0.55399542884E+02  0.23715707132E+03  0.29002225838E+03  0.90826338815E+02 0.  0.
         23    2    4    4    0    0 -0.56481944572E+03 -0.43934311110E+03  0.73070035682E+03  0.10259521160E+04  0.81310254075E+02 0.  0.
          2    1    3    3  502    0  0.20586544043E+03  0.23158555469E+03 -0.50295801164E+03  0.59074462349E+03  0.00000000000E+00 0.  1.
         -2    1    3    3    0  502  0.23030370136E+03  0.26315709929E+03 -0.80682887449E+03  0.87935447146E+03  0.00000000000E+00 0. -1.
         13    1    5    5    0    0  0.28585965892E+02  0.12506787150E+02  0.10146669789E+02  0.32810548282E+02  0.00000000000E+00 0.  1.
        -13    1    5    5    0    0  0.10006433805E+03 -0.67906330033E+02  0.22701040153E+03  0.25721171009E+03  0.00000000000E+00 0. -1.
          3    1    6    6  503    0 -0.33412757689E+03 -0.30438406682E+03  0.43385121621E+03  0.62651239061E+03  0.00000000000E+00 0. -1.
         -3    1    6    6    0  503 -0.23069186883E+03 -0.13495904428E+03  0.29684914061E+03  0.39943972544E+03  0.00000000000E+00 0.  1.
<mgrwt>
<rscale>  0 0.76547383E+03</rscale>
<asrwt>0</asrwt>
<pdfrwt beam="1">  1        1 0.24061561E+00 0.76547383E+03</pdfrwt>
<pdfrwt beam="2">  1       -1 0.18801108E+00 0.76547383E+03</pdfrwt>
<totfact> 0.11310462E+00</totfact>
</mgrwt>
</event>
<event>
12    1  0.1444206E-007  0.4796862E+03  0.7818608E-02  0.1019221E+00
         -1   -1    0    0    0  501 -0.00000000000E+00  0.00000000000E+00  0.74240963746E+02  0.74240963746E+02  0.00000000000E+00 0.  1.
          1   -1    0    0  501    0  0.00000000000E+00 -0.00000000000E+00 -0.38439918676E+04  0.38439918676E+04  0.00000000000E+00 0. -1.
         23    2    1    2    0    0 -0.30400188334E+03  0.60632225691E+02 -0.64584035328E+03  0.72220082188E+03  0.91492367602E+02 0.  0.
    5000000    2    1    2    0    0  0.30400188334E+03 -0.60632225691E+02 -0.31239105506E+04  0.31960320095E+04  0.59975833942E+03 0.  0.
         23    2    4    4    0    0  0.94655332839E+02  0.24272415890E+03 -0.17103965333E+04  0.17324927827E+04  0.90555462130E+02 0.  0.
         23    2    4    4    0    0  0.20934655050E+03 -0.30335638459E+03 -0.14135140173E+04  0.14635392267E+04  0.89856090030E+02 0.  0.
          1    1    3    3  502    0 -0.13948005178E+03 -0.16935269582E+02 -0.25626771559E+03  0.29225781470E+03  0.00000000000E+00 0. -1.
         -1    1    3    3    0  502 -0.16452183156E+03  0.77567495273E+02 -0.38957263770E+03  0.42994300718E+03  0.00000000000E+00 0.  1.
         11    1    5    5    0    0  0.45501867985E+02  0.12285085839E+03 -0.11434881886E+04  0.11509682840E+04  0.00000000000E+00 0. -1.
        -11    1    5    5    0    0  0.49153464855E+02  0.11987330051E+03 -0.56690834473E+03  0.58152449871E+03  0.00000000000E+00 0.  1.
          1    1    6    6  503    0  0.27039658345E+02 -0.98673144766E+02 -0.47061094537E+03  0.48160377337E+03  0.00000000000E+00 0. -1.
         -1    1    6    6    0  503  0.18230689215E+03 -0.20468323982E+03 -0.94290307191E+03  0.98193545338E+03  0.00000000000E+00 0.  1.
<mgrwt>
<rscale>  0 0.47968624E+03</rscale>
<asrwt>0</asrwt>
<pdfrwt beam="1">  1        1 0.59138326E+00 0.47968624E+03</pdfrwt>
<pdfrwt beam="2">  1       -1 0.11421689E-01 0.47968624E+03</pdfrwt>
<totfact> 0.77375055E+00</totfact>
</mgrwt>
</event>
<event>
12    1  0.1444206E-007  0.7351534E+03  0.7818608E-02  0.9658935E-01
          1   -1    0    0  501    0  0.00000000000E+00  0.00000000000E+00  0.83938643601E+03  0.83938643601E+03  0.00000000000E+00 0. -1.
         -1   -1    0    0    0  501 -0.00000000000E+00 -0.00000000000E+00 -0.10948502470E+04  0.10948502470E+04  0.00000000000E+00 0.  1.
         23    2    1    2    0    0 -0.58358342145E+03  0.20581552296E+03  0.49010379889E+03  0.79478831730E+03  0.92504574713E+02 0.  0.
    5000000    2    1    2    0    0  0.58358342145E+03 -0.20581552296E+03 -0.74556760989E+03  0.11394483657E+04  0.59961811007E+03 0.  0.
         23    2    4    4    0    0  0.33433918368E+03  0.17530139152E+03 -0.41457311320E+03  0.56847516432E+03  0.93701006646E+02 0.  0.
         23    2    4    4    0    0  0.24924423777E+03 -0.38111691449E+03 -0.33099449669E+03  0.57097320139E+03  0.95290331627E+02 0.  0.
          2    1    3    3  502    0 -0.29638170600E+03  0.69640201922E+02  0.28110935698E+03  0.41438429502E+03  0.00000000000E+00 0. -1.
         -2    1    3    3    0  502 -0.28720171545E+03  0.13617532104E+03  0.20899444191E+03  0.38040402228E+03  0.00000000000E+00 0.  1.
         11    1    5    5    0    0  0.21994872844E+03  0.67865309382E+02 -0.27334045777E+03  0.35734877811E+03  0.00000000000E+00 0.  1.
        -11    1    5    5    0    0  0.11439045525E+03  0.10743608214E+03 -0.14123265542E+03  0.21112638621E+03  0.00000000000E+00 0. -1.
          1    1    6    6  503    0  0.43715713906E+02 -0.12548749472E+03 -0.61362700686E+02  0.14636787902E+03  0.00000000000E+00 0. -1.
         -1    1    6    6    0  503  0.20552852386E+03 -0.25562941977E+03 -0.26963179601E+03  0.42460532238E+03  0.00000000000E+00 0.  1.
<mgrwt>
<rscale>  0 0.73515340E+03</rscale>
<asrwt>0</asrwt>
<pdfrwt beam="1">  1        1 0.12913637E+00 0.73515340E+03</pdfrwt>
<pdfrwt beam="2">  1       -1 0.16843850E+00 0.73515340E+03</pdfrwt>
<totfact> 0.53614172E+00</totfact>
</mgrwt>
</event>
<event>
12    1  0.1444206E-007  0.4384427E+03  0.7818608E-02  0.1031226E+00
         -2   -1    0    0    0  501 -0.00000000000E+00  0.00000000000E+00  0.57832603037E+03  0.57832603037E+03  0.00000000000E+00 0.  1.
          2   -1    0    0  501    0  0.00000000000E+00 -0.00000000000E+00 -0.18134342554E+04  0.18134342554E+04  0.00000000000E+00 0. -1.
         23    2    1    2    0    0  0.40355157879E+03  0.37687547976E+02 -0.15481140103E+04  0.16029993004E+04  0.93142580071E+02 0.  0.
    5000000    2    1    2    0    0 -0.40355157879E+03 -0.37687547976E+02  0.31300578535E+03  0.78876098529E+03  0.59991419572E+03 0.  0.
         23    2    4    4    0    0 -0.22561419691E+03  0.96468393104E+02  0.44371550837E+03  0.51516376121E+03  0.91117132205E+02 0.  0.
         23    2    4    4    0    0 -0.17793738189E+03 -0.13415594108E+03 -0.13070972302E+03  0.27359722408E+03  0.90060429329E+02 0.  0.
          4    1    3    3  502    0  0.26911979285E+02  0.73360955033E+01 -0.23344480724E+03  0.23510540392E+03  0.00000000000E+00 0. -1.
         -4    1    3    3    0  502  0.37663959951E+03  0.30351452473E+02 -0.13146692031E+04  0.13678938965E+04  0.00000000000E+00 0.  1.
         11    1    5    5    0    0 -0.14283253511E+03  0.68456956702E+02  0.36362031271E+03  0.39661974209E+03  0.00000000000E+00 0. -1.
        -11    1    5    5    0    0 -0.82781661800E+02  0.28011436402E+02  0.80095195665E+02  0.11854401912E+03  0.00000000000E+00 0.  1.
          3    1    6    6  503    0 -0.39200004687E+02 -0.48253437179E+02 -0.82778736202E+02  0.10352465278E+03  0.00000000000E+00 0. -1.
         -3    1    6    6    0  503 -0.13873737720E+03 -0.85902503901E+02 -0.47930986819E+02  0.17007257129E+03  0.00000000000E+00 0.  1.
<mgrwt>
<rscale>  0 0.43844271E+03</rscale>
<asrwt>0</asrwt>
<pdfrwt beam="1">  1        2 0.27898988E+00 0.43844271E+03</pdfrwt>
<pdfrwt beam="2">  1       -2 0.88973236E-01 0.43844271E+03</pdfrwt>
<totfact> 0.10076025E+01</totfact>
</mgrwt>
</event>
<event>
12    1  0.1444206E-007  0.1196573E+04  0.7818608E-02  0.9115861E-01
          2   -1    0    0  501    0  0.00000000000E+00  0.00000000000E+00  0.12520814484E+04  0.12520814484E+04  0.00000000000E+00 0. -1.
         -2   -1    0    0    0  501 -0.00000000000E+00 -0.00000000000E+00 -0.11787299098E+04  0.11787299098E+04  0.00000000000E+00 0.  1.
         23    2    1    2    0    0  0.10454129280E+04  0.43825961468E+03  0.14440939522E+03  0.11463012111E+04  0.90513607843E+02 0.  0.
    5000000    2    1    2    0    0 -0.10454129280E+04 -0.43825961468E+03 -0.71057856653E+02  0.12845101471E+04  0.59996451476E+03 0.  0.
         23    2    4    4    0    0 -0.22728982010E+03  0.12422506608E+03  0.57845179349E+02  0.28019208719E+03  0.89827677192E+02 0.  0.
         23    2    4    4    0    0 -0.81812310795E+03 -0.56248468076E+03 -0.12890303600E+03  0.10043180599E+04  0.79525699372E+02 0.  0.
          1    1    3    3  502    0  0.16667236232E+03  0.59554885196E+02 -0.89476089153E+01  0.17721884893E+03  0.00000000000E+00 0. -1.
         -1    1    3    3    0  502  0.87874056573E+03  0.37870472948E+03  0.15335700413E+03  0.96908236219E+03  0.00000000000E+00 0.  1.
         11    1    5    5    0    0 -0.44612621374E+02  0.54138677319E+02  0.46579058703E+02  0.84207428873E+02  0.00000000000E+00 0.  1.
        -11    1    5    5    0    0 -0.18267719872E+03  0.70086388766E+02  0.11266120646E+02  0.19598465832E+03  0.00000000000E+00 0. -1.
          1    1    6    6  503    0 -0.28623511648E+03 -0.17634648112E+03 -0.77663119564E+02  0.34505098674E+03  0.00000000000E+00 0. -1.
         -1    1    6    6    0  503 -0.53188799147E+03 -0.38613819964E+03 -0.51239916439E+02  0.65926707314E+03  0.00000000000E+00 0.  1.
<mgrwt>
<rscale>  0 0.11965732E+04</rscale>
<asrwt>0</asrwt>
<pdfrwt beam="1">  1        2 0.19262791E+00 0.11965732E+04</pdfrwt>
<pdfrwt beam="2">  1       -2 0.18134306E+00 0.11965732E+04</pdfrwt>
<totfact> 0.30411464E+00</totfact>
</mgrwt>
</event>
<event>
12    1  0.1444206E-007  0.1853965E+04  0.7818608E-02  0.8678116E-01
         -2   -1    0    0    0  501 -0.00000000000E+00  0.00000000000E+00  0.15730652242E+04  0.15730652242E+04  0.00000000000E+00 0.  1.
          2   -1    0    0  501    0  0.00000000000E+00 -0.00000000000E+00 -0.24428621448E+04  0.24428621448E+04  0.00000000000E+00 0. -1.
         23    2    1    2    0    0  0.21774619748E+02 -0.18065669065E+04  0.22012025725E+03  0.18222811059E+04  0.89985441930E+02 0.  0.
    5000000    2    1    2    0    0 -0.21774619748E+02  0.18065669065E+04 -0.10899171779E+04  0.21936462630E+04  0.60000529249E+03 0.  0.
         23    2    4    4    0    0 -0.15119282069E+03  0.16998055250E+04 -0.10197528046E+04  0.19900396675E+04  0.90354877437E+02 0.  0.
         23    2    4    4    0    0  0.12941820094E+03  0.10676138148E+03 -0.70164373266E+02  0.20360659553E+03  0.91572611390E+02 0.  0.
          1    1    3    3  502    0 -0.35030008404E+02 -0.65997553216E+03  0.85923154133E+02  0.66646649800E+03  0.00000000000E+00 0. -1.
         -1    1    3    3    0  502  0.56804628153E+02 -0.11465913743E+04  0.13419710311E+03  0.11558146079E+04  0.00000000000E+00 0.  1.
         11    1    5    5    0    0 -0.23304635763E+02  0.67719082049E+03 -0.37606213767E+03  0.77495370494E+03  0.00000000000E+00 0.  1.
        -11    1    5    5    0    0 -0.12788818492E+03  0.10226147045E+04 -0.64369066692E+03  0.12150859625E+04  0.00000000000E+00 0. -1.
          3    1    6    6  503    0  0.23078933794E+02 -0.16270578711E+02 -0.14359126976E+02  0.31678911664E+02  0.00000000000E+00 0. -1.
         -3    1    6    6    0  503  0.10633926714E+03  0.12303196019E+03 -0.55805246291E+02  0.17192768386E+03  0.00000000000E+00 0.  1.
<mgrwt>
<rscale>  0 0.18539655E+04</rscale>
<asrwt>0</asrwt>
<pdfrwt beam="1">  1        2 0.37582495E+00 0.18539655E+04</pdfrwt>
<pdfrwt beam="2">  1       -2 0.24201003E+00 0.18539655E+04</pdfrwt>
<totfact> 0.24418616E-01</totfact>
</mgrwt>
</event>
<event>
12    1  0.1444206E-007  0.7903338E+03  0.7818608E-02  0.9574115E-01
          1   -1    0    0  501    0  0.00000000000E+00  0.00000000000E+00  0.15498077951E+04  0.15498077951E+04  0.00000000000E+00 0. -1.
         -1   -1    0    0    0  501 -0.00000000000E+00 -0.00000000000E+00 -0.79018906455E+03  0.79018906455E+03  0.00000000000E+00 0.  1.
         23    2    1    2    0    0 -0.47365684686E+03  0.60862800931E+03 -0.35833807279E+03  0.85521044897E+03  0.90553162987E+02 0.  0.
    5000000    2    1    2    0    0  0.47365684686E+03 -0.60862800931E+03  0.11179568034E+04  0.14847864107E+04  0.59998700727E+03 0.  0.
         23    2    4    4    0    0  0.44116335215E+02 -0.10156968156E+03 -0.38583251701E+02  0.14788335574E+03  0.90100878740E+02 0.  0.
         23    2    4    4    0    0  0.42954051165E+03 -0.50705832775E+03  0.11565400551E+04  0.13369030550E+04  0.90064868108E+02 0.  0.
          3    1    3    3  502    0 -0.41098512939E+03  0.48942328559E+03 -0.32245753206E+03  0.71583712466E+03  0.00000000000E+00 0. -1.
         -3    1    3    3    0  502 -0.62671717470E+02  0.11920472371E+03 -0.35880540737E+02  0.13937332431E+03  0.00000000000E+00 0.  1.
         11    1    5    5    0    0 -0.21031097315E+02 -0.56992993075E+02 -0.32022580800E+02  0.68672803897E+02  0.00000000000E+00 0. -1.
        -11    1    5    5    0    0  0.65147432529E+02 -0.44576688482E+02 -0.65606709005E+01  0.79210551847E+02  0.00000000000E+00 0.  1.
          3    1    6    6  503    0  0.19588450329E+03 -0.18597434501E+03  0.53539831974E+03  0.59967370829E+03  0.00000000000E+00 0. -1.
         -3    1    6    6    0  503  0.23365600836E+03 -0.32108398273E+03  0.62114173535E+03  0.73722934668E+03  0.00000000000E+00 0.  1.
<mgrwt>
<rscale>  0 0.79033383E+03</rscale>
<asrwt>0</asrwt>
<pdfrwt beam="1">  1        1 0.23843197E+00 0.79033383E+03</pdfrwt>
<pdfrwt beam="2">  1       -1 0.12156755E+00 0.79033383E+03</pdfrwt>
<totfact> 0.37572377E+00</totfact>
</mgrwt>
</event>
<event>
12    1  0.1444206E-007  0.9681516E+03  0.7818608E-02  0.9344182E-01
         -2   -1    0    0    0  501 -0.00000000000E+00  0.00000000000E+00  0.15377027898E+04  0.15377027898E+04  0.00000000000E+00 0.  1.
          2   -1    0    0  501    0  0.00000000000E+00 -0.00000000000E+00 -0.62826661274E+03  0.62826661274E+03  0.00000000000E+00 0. -1.
         23    2    1    2    0    0 -0.74645885758E+03 -0.47110711326E+03  0.52226173577E+03  0.10305597986E+04  0.10076427775E+03 0.  0.
    5000000    2    1    2    0    0  0.74645885758E+03  0.47110711326E+03  0.38717444125E+03  0.11354096039E+04  0.60009014523E+03 0.  0.
         23    2    4    4    0    0  0.37041422077E+02  0.32304315858E+03  0.12855616809E+03  0.36126466903E+03  0.90865414102E+02 0.  0.
         23    2    4    4    0    0  0.70941743550E+03  0.14806395468E+03  0.25861827316E+03  0.77414493485E+03  0.84976093554E+02 0.  0.
          3    1    3    3  502    0 -0.11431451676E+03 -0.52130358152E+02  0.11201914461E+03  0.16832608753E+03  0.00000000000E+00 0. -1.
         -3    1    3    3    0  502 -0.63214434082E+03 -0.41897675511E+03  0.41024259116E+03  0.86223371110E+03  0.00000000000E+00 0.  1.
         11    1    5    5    0    0  0.41810030046E+02  0.25826548600E+03  0.63266041970E+02  0.26916859389E+03  0.00000000000E+00 0. -1.
        -11    1    5    5    0    0 -0.47686079692E+01  0.64777672580E+02  0.65290126121E+02  0.92096075137E+02  0.00000000000E+00 0.  1.
          4    1    6    6  503    0  0.21368577167E+03  0.62474599900E+02  0.42648149618E+02  0.22667939763E+03  0.00000000000E+00 0.  1.
         -4    1    6    6    0  503  0.49573166384E+03  0.85589354782E+02  0.21597012354E+03  0.54746553722E+03  0.00000000000E+00 0. -1.
<mgrwt>
<rscale>  0 0.96815156E+03</rscale>
<asrwt>0</asrwt>
<pdfrwt beam="1">  1        2 0.96656402E-01 0.96815156E+03</pdfrwt>
<pdfrwt beam="2">  1       -2 0.23656966E+00 0.96815156E+03</pdfrwt>
<totfact> 0.36496749E+00</totfact>
</mgrwt>
</event>
<event>
12    1  0.1444206E-007  0.1132297E+04  0.7818608E-02  0.9174273E-01
          1   -1    0    0  501    0  0.00000000000E+00  0.00000000000E+00  0.41024021629E+04  0.41024021629E+04  0.00000000000E+00 0. -1.
         -1   -1    0    0    0  501 -0.00000000000E+00 -0.00000000000E+00 -0.35112154241E+03  0.35112154241E+03  0.00000000000E+00 0.  1.
         23    2    1    2    0    0 -0.13926904381E+03  0.10661070075E+04  0.23643012481E+04  0.25988916495E+04  0.91309342412E+02 0.  0.
    5000000    2    1    2    0    0  0.13926904381E+03 -0.10661070075E+04  0.13869793723E+04  0.18546320558E+04  0.59997355353E+03 0.  0.
         23    2    4    4    0    0 -0.12124476026E+03 -0.42825665702E+02  0.28550151255E+03  0.32622020430E+03  0.91510537588E+02 0.  0.
         23    2    4    4    0    0  0.26051380407E+03 -0.10232813418E+04  0.11014778598E+04  0.15284118515E+04  0.88414735682E+02 0.  0.
          1    1    3    3  502    0 -0.84068958199E+02  0.60268853302E+03  0.12287250036E+04  0.13711550576E+04  0.00000000000E+00 0. -1.
         -1    1    3    3    0  502 -0.55200085614E+02  0.46341847450E+03  0.11355762445E+04  0.12277365919E+04  0.00000000000E+00 0.  1.
         13    1    5    5    0    0 -0.50570133454E+02 -0.30380313918E+02  0.22422539471E+03  0.23185626907E+03  0.00000000000E+00 0. -1.
        -13    1    5    5    0    0 -0.70674626804E+02 -0.12445351784E+02  0.61276117841E+02  0.94363935232E+02  0.00000000000E+00 0.  1.
          1    1    6    6  503    0  0.15550155987E+03 -0.45833576597E+03  0.53672995263E+03  0.72272501793E+03  0.00000000000E+00 0. -1.
         -1    1    6    6    0  503  0.10501224420E+03 -0.56494557585E+03  0.56474790716E+03  0.80568683355E+03  0.00000000000E+00 0.  1.
<mgrwt>
<rscale>  0 0.11322966E+04</rscale>
<asrwt>0</asrwt>
<pdfrwt beam="1">  1        1 0.63113876E+00 0.11322966E+04</pdfrwt>
<pdfrwt beam="2">  1       -1 0.54018702E-01 0.11322966E+04</pdfrwt>
<totfact> 0.27788097E-01</totfact>
</mgrwt>
</event>
<event>
12    1  0.1444206E-007  0.3786658E+03  0.7818608E-02  0.1051428E+00
          1   -1    0    0  501    0  0.00000000000E+00  0.00000000000E+00  0.84176184167E+03  0.84176184167E+03  0.00000000000E+00 0. -1.
         -1   -1    0    0    0  501 -0.00000000000E+00 -0.00000000000E+00 -0.58122531827E+03  0.58122531827E+03  0.00000000000E+00 0.  1.
         23    2    1    2    0    0  0.55018968240E+02  0.24038083073E+03 -0.41213259381E+03  0.48850401969E+03  0.89290938620E+02 0.  0.
    5000000    2    1    2    0    0 -0.55018968240E+02 -0.24038083073E+03  0.67266911722E+03  0.93448314026E+03  0.59997080555E+03 0.  0.
         23    2    4    4    0    0 -0.22328363441E+03 -0.41996252699E+02  0.48845930133E+02  0.25212346154E+03  0.97780613260E+02 0.  0.
         23    2    4    4    0    0  0.16826466617E+03 -0.19838457803E+03  0.62382318709E+03  0.68235967872E+03  0.93754593044E+02 0.  0.
          4    1    3    3  502    0  0.14342872299E+01  0.35492844537E+02 -0.13570015409E+03  0.14027234586E+03  0.00000000000E+00 0. -1.
         -4    1    3    3    0  502  0.53584681010E+02  0.20488798619E+03 -0.27643243972E+03  0.34823167382E+03  0.00000000000E+00 0.  1.
         13    1    5    5    0    0 -0.11798492459E+03 -0.71322386325E+02  0.22554332329E+02  0.13969976066E+03  0.00000000000E+00 0. -1.
        -13    1    5    5    0    0 -0.10529870982E+03  0.29326133626E+02  0.26291597804E+02  0.11242370088E+03  0.00000000000E+00 0.  1.
          1    1    6    6  503    0  0.79046029898E+02 -0.12219866101E+03  0.23682717837E+03  0.27797104167E+03  0.00000000000E+00 0. -1.
         -1    1    6    6    0  503  0.89218636272E+02 -0.76185917023E+02  0.38699600872E+03  0.40438863705E+03  0.00000000000E+00 0.  1.
<mgrwt>
<rscale>  0 0.37866579E+03</rscale>
<asrwt>0</asrwt>
<pdfrwt beam="1">  1        1 0.12950182E+00 0.37866579E+03</pdfrwt>
<pdfrwt beam="2">  1       -1 0.89419280E-01 0.37866579E+03</pdfrwt>
<totfact> 0.27110607E+01</totfact>
</mgrwt>
</event>
<event>
12    1  0.1444206E-007  0.7316645E+03  0.7818608E-02  0.9664563E-01
          1   -1    0    0  501    0  0.00000000000E+00  0.00000000000E+00  0.10623461846E+04  0.10623461846E+04  0.00000000000E+00 0. -1.
         -1   -1    0    0    0  501 -0.00000000000E+00 -0.00000000000E+00 -0.73630391967E+03  0.73630391967E+03  0.00000000000E+00 0.  1.
         23    2    1    2    0    0 -0.62231247115E+03 -0.46173614845E+02 -0.33038892009E+03  0.71206338865E+03  0.92046816770E+02 0.  0.
    5000000    2    1    2    0    0  0.62231247115E+03  0.46173614845E+02  0.65643118500E+03  0.10865867156E+04  0.60030323624E+03 0.  0.
         23    2    4    4    0    0  0.51406653836E+03  0.26730027218E+03  0.35894444985E+03  0.68876547204E+03  0.99211471273E+02 0.  0.
         23    2    4    4    0    0  0.10824593279E+03 -0.22112665733E+03  0.29748673515E+03  0.39782124357E+03  0.95651469913E+02 0.  0.
          3    1    3    3  502    0 -0.22938759104E+03 -0.61419547186E+02 -0.13013195766E+03  0.27078654713E+03  0.00000000000E+00 0. -1.
         -3    1    3    3    0  502 -0.39292488011E+03  0.15245932340E+02 -0.20025696243E+03  0.44127684152E+03  0.00000000000E+00 0.  1.
         13    1    5    5    0    0  0.11079499551E+03  0.10114691931E+03  0.11495593849E+03  0.18900025955E+03  0.00000000000E+00 0. -1.
        -13    1    5    5    0    0  0.40327154285E+03  0.16615335287E+03  0.24398851136E+03  0.49976521249E+03  0.00000000000E+00 0.  1.
          2    1    6    6  503    0  0.67989304850E+02 -0.12616397283E+03  0.24054752096E+03  0.28000536325E+03  0.00000000000E+00 0. -1.
         -2    1    6    6    0  503  0.40256627939E+02 -0.94962684504E+02  0.56939214197E+02  0.11781588032E+03  0.00000000000E+00 0.  1.
<mgrwt>
<rscale>  0 0.73166455E+03</rscale>
<asrwt>0</asrwt>
<pdfrwt beam="1">  1        1 0.16343787E+00 0.73166455E+03</pdfrwt>
<pdfrwt beam="2">  1       -1 0.11327753E+00 0.73166455E+03</pdfrwt>
<totfact> 0.99827894E+00</totfact>
</mgrwt>
</event>
<event>
12    1  0.1444206E-007  0.9920163E+03  0.7818608E-02  0.9317345E-01
          2   -1    0    0  501    0  0.00000000000E+00  0.00000000000E+00  0.11005158903E+04  0.11005158903E+04  0.00000000000E+00 0. -1.
         -2   -1    0    0    0  501 -0.00000000000E+00 -0.00000000000E+00 -0.23125747639E+04  0.23125747639E+04  0.00000000000E+00 0.  1.
         23    2    1    2    0    0 -0.66636960608E+03 -0.61672145686E+03  0.74211839249E+03  0.11762929398E+04  0.92366468055E+02 0.  0.
    5000000    2    1    2    0    0  0.66636960608E+03  0.61672145686E+03 -0.19541772661E+04  0.22367977144E+04  0.60005118164E+03 0.  0.
         23    2    4    4    0    0 -0.62780283143E+02  0.21028000066E+03 -0.57481692927E+03  0.62204841146E+03  0.91491427997E+02 0.  0.
         23    2    4    4    0    0  0.72914988923E+03  0.40644145620E+03 -0.13793603368E+04  0.16147493030E+04  0.89028951947E+02 0.  0.
          2    1    3    3  502    0 -0.35808280940E+03 -0.26865895041E+03  0.35964435017E+03  0.57423426285E+03  0.00000000000E+00 0.  1.
         -2    1    3    3    0  502 -0.30828679668E+03 -0.34806250645E+03  0.38247404232E+03  0.60205867692E+03  0.00000000000E+00 0. -1.
         11    1    5    5    0    0 -0.23852081791E+02  0.19059781631E+03 -0.49718936981E+03  0.53300442666E+03  0.00000000000E+00 0. -1.
        -11    1    5    5    0    0 -0.38928201352E+02  0.19682184343E+02 -0.77627559461E+02  0.89043984799E+02  0.00000000000E+00 0.  1.
          3    1    6    6  503    0  0.27348200661E+03  0.17439850779E+03 -0.61163101383E+03  0.69231477273E+03  0.00000000000E+00 0. -1.
         -3    1    6    6    0  503  0.45566788261E+03  0.23204294841E+03 -0.76772932301E+03  0.92243453023E+03  0.00000000000E+00 0.  1.
<mgrwt>
<rscale>  0 0.99201632E+03</rscale>
<asrwt>0</asrwt>
<pdfrwt beam="1">  1        2 0.16931014E+00 0.99201632E+03</pdfrwt>
<pdfrwt beam="2">  1       -2 0.35578073E+00 0.99201632E+03</pdfrwt>
<totfact> 0.31557091E-01</totfact>
</mgrwt>
</event>
<event>
12    1  0.1444206E-007  0.6486216E+03  0.7818608E-02  0.9809369E-01
         -2   -1    0    0    0  501 -0.00000000000E+00  0.00000000000E+00  0.18603125028E+03  0.18603125028E+03  0.00000000000E+00 0.  1.
          2   -1    0    0  501    0  0.00000000000E+00 -0.00000000000E+00 -0.35690655499E+04  0.35690655499E+04  0.00000000000E+00 0. -1.
         23    2    1    2    0    0  0.15098488778E+03 -0.58250052989E+03 -0.22863063924E+04  0.23676226824E+04  0.12781605017E+03 0.  0.
    5000000    2    1    2    0    0 -0.15098488778E+03  0.58250052989E+03 -0.10967279072E+04  0.13874741178E+04  0.60014083460E+03 0.  0.
         23    2    4    4    0    0 -0.17866784400E+03  0.10895813535E+03 -0.48223966770E+02  0.23324091091E+03  0.91003834047E+02 0.  0.
         23    2    4    4    0    0  0.27682956217E+02  0.47354239454E+03 -0.10485039404E+04  0.11542332069E+04  0.88797731984E+02 0.  0.
          3    1    3    3  502    0  0.21612036074E+02 -0.39029273668E+02 -0.33372119233E+03  0.33669006299E+03  0.00000000000E+00 0. -1.
         -3    1    3    3    0  502  0.12937285171E+03 -0.54347125622E+03 -0.19525852001E+04  0.20309326195E+04  0.00000000000E+00 0.  1.
         13    1    5    5    0    0 -0.17140158035E+03  0.11068976823E+03 -0.65604031113E+02  0.21432362314E+03  0.00000000000E+00 0. -1.
        -13    1    5    5    0    0 -0.72662636531E+01 -0.17316328864E+01  0.17380064342E+02  0.18917287768E+02  0.00000000000E+00 0.  1.
          4    1    6    6  503    0  0.15449214157E+02  0.46924564427E+03 -0.10243174759E+04  0.11267903285E+04  0.00000000000E+00 0. -1.
         -4    1    6    6    0  503  0.12233742060E+02  0.42967502728E+01 -0.24186464508E+02  0.27442878367E+02  0.00000000000E+00 0.  1.
<mgrwt>
<rscale>  0 0.64862161E+03</rscale>
<asrwt>0</asrwt>
<pdfrwt beam="1">  1        2 0.54908697E+00 0.64862161E+03</pdfrwt>
<pdfrwt beam="2">  1       -2 0.28620194E-01 0.64862161E+03</pdfrwt>
<totfact> 0.89961778E+00</totfact>
</mgrwt>
</event>
<event>
12    1  0.1444206E-007  0.9649759E+03  0.7818608E-02  0.9347815E-01
         -2   -1    0    0    0  501 -0.00000000000E+00  0.00000000000E+00  0.48468936985E+03  0.48468936985E+03  0.00000000000E+00 0.  1.
          2   -1    0    0  501    0  0.00000000000E+00 -0.00000000000E+00 -0.20435028825E+04  0.20435028825E+04  0.00000000000E+00 0. -1.
         23    2    1    2    0    0 -0.84567170879E+03  0.30190321641E+03 -0.60289132801E+03  0.10859173854E+04  0.97120664605E+02 0.  0.
    5000000    2    1    2    0    0  0.84567170879E+03 -0.30190321641E+03 -0.95592218466E+03  0.14422748669E+04  0.60005281230E+03 0.  0.
         23    2    4    4    0    0  0.13503528904E+03  0.12170938077E+03 -0.37857323746E+03  0.42943605161E+03  0.89721366717E+02 0.  0.
         23    2    4    4    0    0  0.71063641975E+03 -0.42361259718E+03 -0.57734894720E+03  0.10128388153E+04  0.89771406586E+02 0.  0.
          3    1    3    3  502    0 -0.39059582412E+03  0.10760483837E+03 -0.31718056333E+03  0.51453611031E+03  0.00000000000E+00 0. -1.
         -3    1    3    3    0  502 -0.45507588467E+03  0.19429837804E+03 -0.28571076468E+03  0.57138127513E+03  0.00000000000E+00 0.  1.
         13    1    5    5    0    0  0.58616331330E+02  0.34157625745E+01 -0.79186795782E+02  0.98580375120E+02  0.00000000000E+00 0. -1.
        -13    1    5    5    0    0  0.76418957712E+02  0.11829361820E+03 -0.29938644168E+03  0.33085567649E+03  0.00000000000E+00 0.  1.
          3    1    6    6  503    0  0.41332378968E+03 -0.20475670395E+03 -0.35301282340E+03  0.58084414124E+03  0.00000000000E+00 0. -1.
         -3    1    6    6    0  503  0.29731263007E+03 -0.21885589323E+03 -0.22433612380E+03  0.43199467409E+03  0.00000000000E+00 0.  1.
<mgrwt>
<rscale>  0 0.96497586E+03</rscale>
<asrwt>0</asrwt>
<pdfrwt beam="1">  1        2 0.31438506E+00 0.96497586E+03</pdfrwt>
<pdfrwt beam="2">  1       -2 0.74567596E-01 0.96497586E+03</pdfrwt>
<totfact> 0.10293761E+01</totfact>
</mgrwt>
</event>
<event>
12    1  0.1444206E-007  0.5508902E+03  0.7818608E-02  0.1001288E+00
          3   -1    0    0  501    0  0.00000000000E+00  0.00000000000E+00  0.65250626567E+03  0.65250626567E+03  0.00000000000E+00 0. -1.
         -3   -1    0    0    0  501 -0.00000000000E+00 -0.00000000000E+00 -0.11265112998E+04  0.11265112998E+04  0.00000000000E+00 0.  1.
         23    2    1    2    0    0 -0.98208502130E+02  0.44354738262E+03  0.40968178706E+03  0.61804248870E+03  0.88080421619E+02 0.  0.
    5000000    2    1    2    0    0  0.98208502130E+02 -0.44354738262E+03 -0.88368682122E+03  0.11609750768E+04  0.60048442147E+03 0.  0.
         23    2    4    4    0    0  0.99750523084E+02  0.67259647587E+02 -0.48143190641E+03  0.50463225017E+03  0.91667880670E+02 0.  0.
         23    2    4    4    0    0 -0.15420209538E+01 -0.51080703020E+03 -0.40225491480E+03  0.65634282663E+03  0.89725635405E+02 0.  0.
          3    1    3    3  502    0 -0.55324957182E+02  0.37998402388E+03  0.31836928474E+03  0.49880628580E+03  0.00000000000E+00 0. -1.
         -3    1    3    3    0  502 -0.42883544948E+02  0.63563358740E+02  0.91312502325E+02  0.11923620290E+03  0.00000000000E+00 0.  1.
         11    1    5    5    0    0  0.91047680485E+02  0.69105108490E+02 -0.27238304700E+03  0.29539417806E+03  0.00000000000E+00 0.  1.
        -11    1    5    5    0    0  0.87028425987E+01 -0.18454609024E+01 -0.20904885941E+03  0.20923807210E+03  0.00000000000E+00 0. -1.
          1    1    6    6  503    0 -0.42493956099E+02 -0.20343204001E+03 -0.17842132186E+03  0.27390600450E+03  0.00000000000E+00 0. -1.
         -1    1    6    6    0  503  0.40951935145E+02 -0.30737499019E+03 -0.22383359294E+03  0.38243682213E+03  0.00000000000E+00 0.  1.
<mgrwt>
<rscale>  0 0.55089020E+03</rscale>
<asrwt>0</asrwt>
<pdfrwt beam="1">  1        3 0.10038558E+00 0.55089020E+03</pdfrwt>
<pdfrwt beam="2">  1       -3 0.17330943E+00 0.55089020E+03</pdfrwt>
<totfact> 0.50054230E-01</totfact>
</mgrwt>
</event>
<event>
12    1  0.1444206E-007  0.7500888E+03  0.7818608E-02  0.9635211E-01
          3   -1    0    0  501    0  0.00000000000E+00  0.00000000000E+00  0.13620843590E+04  0.13620843590E+04  0.00000000000E+00 0. -1.
         -3   -1    0    0    0  501 -0.00000000000E+00 -0.00000000000E+00 -0.50309171853E+03  0.50309171853E+03  0.00000000000E+00 0.  1.
         23    2    1    2    0    0  0.63984678926E+03  0.24610355927E+03  0.14285683360E+03  0.70628010426E+03  0.91938213811E+02 0.  0.
    5000000    2    1    2    0    0 -0.63984678926E+03 -0.24610355927E+03  0.71613580689E+03  0.11588959733E+04  0.60018206187E+03 0.  0.
         23    2    4    4    0    0 -0.24604423096E+03 -0.31931990294E+03  0.60490149427E+03  0.73255612580E+03  0.90717670137E+02 0.  0.
         23    2    4    4    0    0 -0.39380255830E+03  0.73216343672E+02  0.11123431261E+03  0.42633984749E+03  0.94612395322E+02 0.  0.
          1    1    3    3  502    0  0.35355063344E+03  0.92007891443E+02  0.54617682336E+02  0.36938678065E+03  0.00000000000E+00 0. -1.
         -1    1    3    3    0  502  0.28629615581E+03  0.15409566782E+03  0.88239151259E+02  0.33689332361E+03  0.00000000000E+00 0.  1.
         13    1    5    5    0    0 -0.15046153052E+02 -0.33442851351E+02  0.20022399682E+02  0.41781664845E+02  0.00000000000E+00 0. -1.
        -13    1    5    5    0    0 -0.23099807790E+03 -0.28587705159E+03  0.58487909459E+03  0.69077446096E+03  0.00000000000E+00 0.  1.
          1    1    6    6  503    0 -0.18092194669E+03  0.16848632394E+01  0.86065131348E+02  0.20035667295E+03  0.00000000000E+00 0. -1.
         -1    1    6    6    0  503 -0.21288061160E+03  0.71531480433E+02  0.25169181266E+02  0.22598317454E+03  0.00000000000E+00 0.  1.
<mgrwt>
<rscale>  0 0.75008881E+03</rscale>
<asrwt>0</asrwt>
<pdfrwt beam="1">  1        3 0.20955144E+00 0.75008881E+03</pdfrwt>
<pdfrwt beam="2">  1       -3 0.77398726E-01 0.75008881E+03</pdfrwt>
<totfact> 0.52430837E-01</totfact>
</mgrwt>
</event>
<event>
12    1  0.1444206E-007  0.1690355E+04  0.7818608E-02  0.8766884E-01
          2   -1    0    0  501    0  0.00000000000E+00  0.00000000000E+00  0.21614630089E+04  0.21614630089E+04  0.00000000000E+00 0. -1.
         -2   -1    0    0    0  501 -0.00000000000E+00 -0.00000000000E+00 -0.13537277038E+04  0.13537277038E+04  0.00000000000E+00 0.  1.
         23    2    1    2    0    0 -0.13085279271E+04 -0.99084139811E+03  0.16089257424E+03  0.16517596418E+04  0.91714129624E+02 0.  0.
    5000000    2    1    2    0    0  0.13085279271E+04  0.99084139811E+03  0.64684273089E+03  0.18634310709E+04  0.59996485357E+03 0.  0.
         23    2    4    4    0    0  0.20658783571E+03 -0.46796125828E+02  0.57498000839E+02  0.23648463040E+03  0.88037202691E+02 0.  0.
         23    2    4    4    0    0  0.11019400913E+04  0.10376375239E+04  0.58934473006E+03  0.16269464405E+04  0.93080145768E+02 0.  0.
          4    1    3    3  502    0 -0.43467066284E+03 -0.38184938312E+03  0.44236553686E+02  0.58026236239E+03  0.00000000000E+00 0. -1.
         -4    1    3    3    0  502 -0.87385726423E+03 -0.60899201499E+03  0.11665602055E+03  0.10714972794E+04  0.00000000000E+00 0.  1.
         11    1    5    5    0    0  0.14606507636E+03 -0.61404779363E+02  0.11097893258E+02  0.15883550199E+03  0.00000000000E+00 0. -1.
        -11    1    5    5    0    0  0.60522759358E+02  0.14608653535E+02  0.46400107581E+02  0.77649128405E+02  0.00000000000E+00 0.  1.
          2    1    6    6  503    0  0.24019961749E+03  0.17678133500E+03  0.10680705511E+03  0.31678895761E+03  0.00000000000E+00 0. -1.
         -2    1    6    6    0  503  0.86174047386E+03  0.86085618894E+03  0.48253767495E+03  0.13101574829E+04  0.00000000000E+00 0.  1.
<mgrwt>
<rscale>  0 0.16903553E+04</rscale>
<asrwt>0</asrwt>
<pdfrwt beam="1">  1        2 0.33253277E+00 0.16903553E+04</pdfrwt>
<pdfrwt beam="2">  1       -2 0.20826580E+00 0.16903553E+04</pdfrwt>
<totfact> 0.58754371E-01</totfact>
</mgrwt>
</event>
<event>
12    1  0.1444206E-007  0.9561749E+03  0.7818608E-02  0.9357962E-01
          2   -1    0    0  501    0  0.00000000000E+00  0.00000000000E+00  0.10292017337E+04  0.10292017337E+04  0.00000000000E+00 0. -1.
         -2   -1    0    0    0  501 -0.00000000000E+00 -0.00000000000E+00 -0.15616977814E+04  0.15616977814E+04  0.00000000000E+00 0.  1.
         23    2    1    2    0    0 -0.73970610013E+03  0.52589375956E+03  0.54265234946E+03  0.10613399364E+04  0.90782858303E+02 0.  0.
    5000000    2    1    2    0    0  0.73970610013E+03 -0.52589375956E+03 -0.10751483972E+04  0.15295595787E+04  0.59989921491E+03 0.  0.
         23    2    4    4    0    0  0.75685096587E+03 -0.44322359243E+03 -0.67567717122E+03  0.11109494606E+04  0.91643476365E+02 0.  0.
         23    2    4    4    0    0 -0.17144865743E+02 -0.82670167127E+02 -0.39947122593E+03  0.41861011817E+03  0.92351869139E+02 0.  0.
          4    1    3    3  502    0 -0.34703952432E+03  0.24869512672E+03  0.30812314281E+03  0.52652214449E+03  0.00000000000E+00 0. -1.
         -4    1    3    3    0  502 -0.39266657581E+03  0.27719863283E+03  0.23452920665E+03  0.53481779194E+03  0.00000000000E+00 0.  1.
         13    1    5    5    0    0  0.40066239215E+03 -0.27605396389E+03 -0.33782616347E+03  0.59233661054E+03  0.00000000000E+00 0. -1.
        -13    1    5    5    0    0  0.35618857372E+03 -0.16716962854E+03 -0.33785100775E+03  0.51861285001E+03  0.00000000000E+00 0.  1.
          2    1    6    6  503    0 -0.30412393497E+02 -0.99069569892E+02 -0.34366121669E+03  0.35894668854E+03  0.00000000000E+00 0. -1.
         -2    1    6    6    0  503  0.13267527755E+02  0.16399402765E+02 -0.55810009243E+02  0.59663429632E+02  0.00000000000E+00 0.  1.
<mgrwt>
<rscale>  0 0.95617491E+03</rscale>
<asrwt>0</asrwt>
<pdfrwt beam="1">  1        2 0.15833873E+00 0.95617491E+03</pdfrwt>
<pdfrwt beam="2">  1       -2 0.24026120E+00 0.95617491E+03</pdfrwt>
<totfact> 0.17829035E+00</totfact>
</mgrwt>
</event>
<event>
12    1  0.1444206E-007  0.1097862E+04  0.7818608E-02  0.9207278E-01
          1   -1    0    0  501    0  0.00000000000E+00  0.00000000000E+00  0.10681915849E+04  0.10681915849E+04  0.00000000000E+00 0. -1.
         -1   -1    0    0    0  501 -0.00000000000E+00 -0.00000000000E+00 -0.14771838180E+04  0.14771838180E+04  0.00000000000E+00 0.  1.
         23    2    1    2    0    0 -0.37538779031E+03 -0.10208976668E+04 -0.66363652847E+03  0.12773498341E+04  0.89783726514E+02 0.  0.
    5000000    2    1    2    0    0  0.37538779031E+03  0.10208976668E+04  0.25464429545E+03  0.12680255688E+04  0.59991423267E+03 0.  0.
         23    2    4    4    0    0  0.21162941576E+03  0.48328953224E+03  0.41399193784E+03  0.67678178697E+03  0.91041095092E+02 0.  0.
         23    2    4    4    0    0  0.16375837455E+03  0.53760813460E+03 -0.15934764240E+03  0.59124378179E+03  0.91313891283E+02 0.  0.
          3    1    3    3  502    0 -0.16905689606E+03 -0.58668178997E+03 -0.38093403096E+03  0.71964330938E+03  0.00000000000E+00 0. -1.
         -3    1    3    3    0  502 -0.20633089425E+03 -0.43421587687E+03 -0.28270249750E+03  0.55770652474E+03  0.00000000000E+00 0.  1.
         11    1    5    5    0    0  0.19475060202E+02  0.54600309857E+01  0.18777391677E+02  0.27598556963E+02  0.00000000000E+00 0. -1.
        -11    1    5    5    0    0  0.19215435555E+03  0.47782950125E+03  0.39521454617E+03  0.64918323001E+03  0.00000000000E+00 0.  1.
          2    1    6    6  503    0  0.63503782307E+02  0.87937389094E+02 -0.36317564089E+02  0.11438828712E+03  0.00000000000E+00 0. -1.
         -2    1    6    6    0  503  0.10025459224E+03  0.44967074551E+03 -0.12303007831E+03  0.47685549467E+03  0.00000000000E+00 0.  1.
<mgrwt>
<rscale>  0 0.10978623E+04</rscale>
<asrwt>0</asrwt>
<pdfrwt beam="1">  1        1 0.16433717E+00 0.10978623E+04</pdfrwt>
<pdfrwt beam="2">  1       -1 0.22725905E+00 0.10978623E+04</pdfrwt>
<totfact> 0.13104261E+00</totfact>
</mgrwt>
</event>
<event>
12    1  0.1444206E-007  0.7898385E+03  0.7818608E-02  0.9574843E-01
         -2   -1    0    0    0  501 -0.00000000000E+00  0.00000000000E+00  0.55821150574E+03  0.55821150574E+03  0.00000000000E+00 0.  1.
          2   -1    0    0  501    0  0.00000000000E+00 -0.00000000000E+00 -0.16171690209E+04  0.16171690209E+04  0.00000000000E+00 0. -1.
         23    2    1    2    0    0 -0.62257910544E+03 -0.30848970211E+03  0.88858213622E+02  0.70559006788E+03  0.84799309703E+02 0.  0.
    5000000    2    1    2    0    0  0.62257910544E+03  0.30848970211E+03 -0.11478157288E+04  0.14697904588E+04  0.60002700492E+03 0.  0.
         23    2    4    4    0    0  0.19959633272E+02 -0.12668148898E+03 -0.29250636371E+03  0.33280329321E+03  0.93549305444E+02 0.  0.
         23    2    4    4    0    0  0.60261947217E+03  0.43517119108E+03 -0.85530936511E+03  0.11369871656E+04  0.93067238611E+02 0.  0.
          1    1    3    3  502    0 -0.58035088888E+02 -0.58022223153E+02  0.38431267958E+01  0.82154851016E+02  0.00000000000E+00 0. -1.
         -1    1    3    3    0  502 -0.56454401655E+03 -0.25046747895E+03  0.85015086826E+02  0.62343521686E+03  0.00000000000E+00 0.  1.
         13    1    5    5    0    0  0.17544359588E+02 -0.12803761622E+03 -0.18728702998E+03  0.22754750563E+03  0.00000000000E+00 0. -1.
        -13    1    5    5    0    0  0.24152736833E+01  0.13561272384E+01 -0.10521933373E+03  0.10525578758E+03  0.00000000000E+00 0.  1.
          4    1    6    6  503    0  0.47989930609E+03  0.30255928385E+03 -0.67473474073E+03  0.88153980885E+03  0.00000000000E+00 0. -1.
         -4    1    6    6    0  503  0.12272016608E+03  0.13261190723E+03 -0.18057462438E+03  0.25544735676E+03  0.00000000000E+00 0.  1.
<mgrwt>
<rscale>  0 0.78983854E+03</rscale>
<asrwt>0</asrwt>
<pdfrwt beam="1">  1        2 0.24879523E+00 0.78983854E+03</pdfrwt>
<pdfrwt beam="2">  1       -2 0.85878693E-01 0.78983854E+03</pdfrwt>
<totfact> 0.13112090E+01</totfact>
</mgrwt>
</event>
<event>
12    1  0.1444206E-007  0.1634432E+04  0.7818608E-02  0.8799670E-01
         -1   -1    0    0    0  501 -0.00000000000E+00  0.00000000000E+00  0.17024794191E+04  0.17024794191E+04  0.00000000000E+00 0.  1.
          1   -1    0    0  501    0  0.00000000000E+00 -0.00000000000E+00 -0.16694639537E+04  0.16694639537E+04  0.00000000000E+00 0. -1.
         23    2    1    2    0    0 -0.15141163655E+04  0.57269053247E+03 -0.18525296483E+03  0.16317691061E+04  0.88481298699E+02 0.  0.
    5000000    2    1    2    0    0  0.15141163655E+04 -0.57269053247E+03  0.21826843022E+03  0.17401742666E+04  0.60003546247E+03 0.  0.
         23    2    4    4    0    0  0.23201177600E+03 -0.19233101363E+03  0.24678882464E+03  0.39987431985E+03  0.90410534220E+02 0.  0.
         23    2    4    4    0    0  0.12821045895E+04 -0.38035951883E+03 -0.28520394422E+02  0.13402999468E+04  0.84409669739E+02 0.  0.
          2    1    3    3  502    0 -0.96545793876E+03  0.35347066772E+03 -0.76136890068E+02  0.10309448921E+04  0.00000000000E+00 0. -1.
         -2    1    3    3    0  502 -0.54865842679E+03  0.21921986475E+03 -0.10911607476E+03  0.60082421403E+03  0.00000000000E+00 0.  1.
         13    1    5    5    0    0  0.14089917814E+03 -0.16010943040E+03  0.20047435255E+03  0.29270731821E+03  0.00000000000E+00 0. -1.
        -13    1    5    5    0    0  0.91112597862E+02 -0.32221583233E+02  0.46314472094E+02  0.10716700164E+03  0.00000000000E+00 0.  1.
          2    1    6    6  503    0  0.10393440207E+04 -0.34227373555E+03 -0.20872555023E+02  0.10944509888E+04  0.00000000000E+00 0. -1.
         -2    1    6    6    0  503  0.24276056888E+03 -0.38085783280E+02 -0.76478393988E+01  0.24584895798E+03  0.00000000000E+00 0.  1.
<mgrwt>
<rscale>  0 0.16344325E+04</rscale>
<asrwt>0</asrwt>
<pdfrwt beam="1">  1        1 0.25684061E+00 0.16344325E+04</pdfrwt>
<pdfrwt beam="2">  1       -1 0.26191991E+00 0.16344325E+04</pdfrwt>
<totfact> 0.27134405E-01</totfact>
</mgrwt>
</event>
<event>
12    1  0.1444206E-007  0.1280781E+04  0.7818608E-02  0.9044946E-01
          1   -1    0    0  501    0  0.00000000000E+00  0.00000000000E+00  0.16134029230E+04  0.16134029230E+04  0.00000000000E+00 0. -1.
         -1   -1    0    0    0  501 -0.00000000000E+00 -0.00000000000E+00 -0.14973686490E+04  0.14973686490E+04  0.00000000000E+00 0.  1.
         23    2    1    2    0    0 -0.54191287709E+03 -0.11407224578E+04 -0.74429776825E+03  0.14690791540E+04  0.96421475100E+02 0.  0.
    5000000    2    1    2    0    0  0.54191287709E+03  0.11407224578E+04  0.86033204222E+03  0.16416924180E+04  0.60005456448E+03 0.  0.
         23    2    4    4    0    0  0.81930333146E+02  0.45818200639E+03  0.38869346756E+02  0.47530475526E+03  0.88093437818E+02 0.  0.
         23    2    4    4    0    0  0.45998254394E+03  0.68254045137E+03  0.82146269546E+03  0.11663876627E+04  0.90630078868E+02 0.  0.
          3    1    3    3  502    0 -0.17713760207E+03 -0.30674401643E+03 -0.24697998087E+03  0.43182025501E+03  0.00000000000E+00 0. -1.
         -3    1    3    3    0  502 -0.36477527502E+03 -0.83397844133E+03 -0.49731778738E+03  0.10372588990E+04  0.00000000000E+00 0.  1.
         13    1    5    5    0    0  0.38218673526E+02  0.83119379545E+02 -0.18596143744E+02  0.93355850508E+02  0.00000000000E+00 0.  1.
        -13    1    5    5    0    0  0.43711659621E+02  0.37506262684E+03  0.57465490500E+02  0.38194890475E+03  0.00000000000E+00 0. -1.
          2    1    6    6  503    0  0.59164350157E+02  0.15169318375E+03  0.16668850675E+03  0.23301566602E+03  0.00000000000E+00 0. -1.
         -2    1    6    6    0  503  0.40081819378E+03  0.53084726762E+03  0.65477418871E+03  0.93337199669E+03  0.00000000000E+00 0.  1.
<mgrwt>
<rscale>  0 0.12807811E+04</rscale>
<asrwt>0</asrwt>
<pdfrwt beam="1">  1        1 0.24821583E+00 0.12807811E+04</pdfrwt>
<pdfrwt beam="2">  1       -1 0.23036441E+00 0.12807811E+04</pdfrwt>
<totfact> 0.49744746E-01</totfact>
</mgrwt>
</event>
<event>
12    1  0.1444206E-007  0.4119622E+03  0.7818608E-02  0.1039715E+00
         -2   -1    0    0    0  501 -0.00000000000E+00  0.00000000000E+00  0.38260158560E+03  0.38260158560E+03  0.00000000000E+00 0.  1.
          2   -1    0    0  501    0  0.00000000000E+00 -0.00000000000E+00 -0.72496107360E+03  0.72496107360E+03  0.00000000000E+00 0. -1.
         23    2    1    2    0    0  0.22168708932E+03  0.10696388372E+02 -0.39963262643E+03  0.46527629458E+03  0.86696112346E+02 0.  0.
    5000000    2    1    2    0    0 -0.22168708932E+03 -0.10696388372E+02  0.57273138421E+02  0.64228636462E+03  0.59999331955E+03 0.  0.
         23    2    4    4    0    0  0.68416015603E+02  0.20950370866E+03  0.11610603268E+03  0.26250410052E+03  0.82796357582E+02 0.  0.
         23    2    4    4    0    0 -0.29010310492E+03 -0.22020009704E+03 -0.58832894261E+02  0.37978226410E+03  0.90140803535E+02 0.  0.
          2    1    3    3  502    0  0.63907164114E+02  0.69035672949E+01 -0.49212616529E+02  0.80954718776E+02  0.00000000000E+00 0.  1.
         -2    1    3    3    0  502  0.15777992520E+03  0.37928210770E+01 -0.35042000990E+03  0.38432157580E+03  0.00000000000E+00 0. -1.
         13    1    5    5    0    0  0.23035026472E+02  0.12837175812E+02  0.37629683985E+02  0.45949958043E+02  0.00000000000E+00 0. -1.
        -13    1    5    5    0    0  0.45380989131E+02  0.19666653285E+03  0.78476348698E+02  0.21655414248E+03  0.00000000000E+00 0.  1.
          4    1    6    6  503    0 -0.27795978759E+03 -0.17887342486E+03 -0.40662348074E+02  0.33303268937E+03  0.00000000000E+00 0. -1.
         -4    1    6    6    0  503 -0.12143317330E+02 -0.41326672180E+02 -0.18170546188E+02  0.46749574736E+02  0.00000000000E+00 0.  1.
<mgrwt>
<rscale>  0 0.41196215E+03</rscale>
<asrwt>0</asrwt>
<pdfrwt beam="1">  1        2 0.11153247E+00 0.41196215E+03</pdfrwt>
<pdfrwt beam="2">  1       -2 0.58861783E-01 0.41196215E+03</pdfrwt>
<totfact> 0.10986111E+02</totfact>
</mgrwt>
</event>
<event>
12    1  0.1444206E-007  0.1025482E+04  0.7818608E-02  0.9281030E-01
         -2   -1    0    0    0  501 -0.00000000000E+00  0.00000000000E+00  0.59583115193E+03  0.59583115193E+03  0.00000000000E+00 0.  1.
          2   -1    0    0  501    0  0.00000000000E+00 -0.00000000000E+00 -0.22059564371E+04  0.22059564371E+04  0.00000000000E+00 0. -1.
         23    2    1    2    0    0 -0.54040283657E+03 -0.84161282169E+03 -0.11999031203E+04  0.15654545337E+04  0.10263055932E+03 0.  0.
    5000000    2    1    2    0    0  0.54040283657E+03  0.84161282169E+03 -0.41022216487E+03  0.12363330553E+04  0.59990818597E+03 0.  0.
         23    2    4    4    0    0  0.52426643444E+03  0.76014811711E+03 -0.13838931184E+03  0.93817934126E+03  0.91369691434E+02 0.  0.
         23    2    4    4    0    0  0.16136402134E+02  0.81464704582E+02 -0.27183285303E+03  0.29815371401E+03  0.90031414669E+02 0.  0.
          1    1    3    3  502    0 -0.46707185979E+03 -0.74797891489E+03 -0.10040393320E+04  0.13363096795E+04  0.00000000000E+00 0. -1.
         -1    1    3    3    0  502 -0.73330976783E+02 -0.93633906804E+02 -0.19586378830E+03  0.22914485425E+03  0.00000000000E+00 0.  1.
         11    1    5    5    0    0  0.22750260234E+03  0.25350735028E+03 -0.58586027517E+02  0.34562368747E+03  0.00000000000E+00 0. -1.
        -11    1    5    5    0    0  0.29676383210E+03  0.50664076683E+03 -0.79803284327E+02  0.59255565380E+03  0.00000000000E+00 0.  1.
          3    1    6    6  503    0 -0.27010990290E+02  0.73813710814E+02 -0.17910113040E+03  0.19558955087E+03  0.00000000000E+00 0. -1.
         -3    1    6    6    0  503  0.43147392424E+02  0.76509937681E+01 -0.92731722626E+02  0.10256416314E+03  0.00000000000E+00 0.  1.
<mgrwt>
<rscale>  0 0.10254823E+04</rscale>
<asrwt>0</asrwt>
<pdfrwt beam="1">  1        2 0.33937791E+00 0.10254823E+04</pdfrwt>
<pdfrwt beam="2">  1       -2 0.91666332E-01 0.10254823E+04</pdfrwt>
<totfact> 0.51951403E+00</totfact>
</mgrwt>
</event>
<event>
12    1  0.1444206E-007  0.1397577E+04  0.7818608E-02  0.8955574E-01
          2   -1    0    0  501    0  0.00000000000E+00  0.00000000000E+00  0.16492138233E+04  0.16492138233E+04  0.00000000000E+00 0. -1.
         -2   -1    0    0    0  501 -0.00000000000E+00 -0.00000000000E+00 -0.13297402257E+04  0.13297402257E+04  0.00000000000E+00 0.  1.
         23    2    1    2    0    0 -0.10566833889E+03 -0.13660637531E+04  0.52039656843E+03  0.14697154005E+04  0.10933798429E+03 0.  0.
    5000000    2    1    2    0    0  0.10566833889E+03  0.13660637531E+04 -0.20092297089E+03  0.15092386484E+04  0.60011272472E+03 0.  0.
         23    2    4    4    0    0 -0.12965656535E+03  0.47235111818E+03 -0.29013708845E+03  0.57621693387E+03  0.88994499837E+02 0.  0.
         23    2    4    4    0    0  0.23532490423E+03  0.89371263490E+03  0.89214117562E+02  0.93302171456E+03  0.92034106403E+02 0.  0.
          4    1    3    3  502    0 -0.31478939266E+02 -0.86612282011E+03  0.37026316155E+03  0.94247253113E+03  0.00000000000E+00 0. -1.
         -4    1    3    3    0  502 -0.74189399622E+02 -0.49994093297E+03  0.15013340688E+03  0.52724286940E+03  0.00000000000E+00 0.  1.
         13    1    5    5    0    0 -0.74293459704E+02  0.39838696812E+03 -0.24251095704E+03  0.47227455871E+03  0.00000000000E+00 0.  1.
        -13    1    5    5    0    0 -0.55363105642E+02  0.73964150063E+02 -0.47626131411E+02  0.10394237516E+03  0.00000000000E+00 0. -1.
          1    1    6    6  503    0  0.11314094789E+03  0.33873619677E+03  0.73040012360E+02  0.36452424954E+03  0.00000000000E+00 0. -1.
         -1    1    6    6    0  503  0.12218395634E+03  0.55497643812E+03  0.16174105201E+02  0.56849746503E+03  0.00000000000E+00 0.  1.
<mgrwt>
<rscale>  0 0.13975769E+04</rscale>
<asrwt>0</asrwt>
<pdfrwt beam="1">  1        2 0.25372520E+00 0.13975769E+04</pdfrwt>
<pdfrwt beam="2">  1       -2 0.20457542E+00 0.13975769E+04</pdfrwt>
<totfact> 0.12344843E+00</totfact>
</mgrwt>
</event>
<event>
12    1  0.1444206E-007  0.1270717E+04  0.7818608E-02  0.9053114E-01
         -2   -1    0    0    0  501 -0.00000000000E+00  0.00000000000E+00  0.71710912192E+03  0.71710912192E+03  0.00000000000E+00 0. -1.
          2   -1    0    0  501    0  0.00000000000E+00 -0.00000000000E+00 -0.32098527659E+04  0.32098527659E+04  0.00000000000E+00 0.  1.
         23    2    1    2    0    0 -0.10840935854E+04 -0.53214099654E+03 -0.14524981819E+03  0.12196884805E+04  0.90052971090E+02 0.  0.
    5000000    2    1    2    0    0  0.10840935854E+04  0.53214099654E+03 -0.23474938258E+04  0.27072734073E+04  0.60014089819E+03 0.  0.
         23    2    4    4    0    0  0.96008327579E+03  0.21841019372E+03 -0.18737767400E+04  0.21186869678E+04  0.91281363058E+02 0.  0.
         23    2    4    4    0    0  0.12401030964E+03  0.31373080282E+03 -0.47371708584E+03  0.58858643950E+03  0.90667225697E+02 0.  0.
          4    1    3    3  502    0 -0.65672147009E+03 -0.35358950376E+03 -0.12341780371E+03  0.75600302957E+03  0.00000000000E+00 0. -1.
         -4    1    3    3    0  502 -0.42737211534E+03 -0.17855149278E+03 -0.21832014477E+02  0.46368545092E+03  0.00000000000E+00 0.  1.
         13    1    5    5    0    0  0.89341130562E+03  0.20917245466E+03 -0.17875845211E+04  0.20093270756E+04  0.00000000000E+00 0.  1.
        -13    1    5    5    0    0  0.66671970162E+02  0.92377390578E+01 -0.86192218907E+02  0.10935989223E+03  0.00000000000E+00 0. -1.
          2    1    6    6  503    0  0.46866349798E+01  0.11933131245E+03 -0.13519575722E+03  0.18038796925E+03  0.00000000000E+00 0.  1.
         -2    1    6    6    0  503  0.11932367466E+03  0.19439949037E+03 -0.33852132862E+03  0.40819847026E+03  0.00000000000E+00 0. -1.
<mgrwt>
<rscale>  0 0.12707175E+04</rscale>
<asrwt>0</asrwt>
<pdfrwt beam="1">  1        2 0.49382351E+00 0.12707175E+04</pdfrwt>
<pdfrwt beam="2">  1       -2 0.11032448E+00 0.12707175E+04</pdfrwt>
<totfact> 0.81959246E-01</totfact>
</mgrwt>
</event>
<event>
12    1  0.1444206E-007  0.9119861E+03  0.7818608E-02  0.9410721E-01
         -2   -1    0    0    0  501 -0.00000000000E+00  0.00000000000E+00  0.10426657258E+04  0.10426657258E+04  0.00000000000E+00 0.  1.
          2   -1    0    0  501    0  0.00000000000E+00 -0.00000000000E+00 -0.85679218091E+03  0.85679218091E+03  0.00000000000E+00 0. -1.
         23    2    1    2    0    0  0.82438433068E+03  0.24590928501E+02  0.28202531886E+03  0.87506178335E+03  0.77334376270E+02 0.  0.
    5000000    2    1    2    0    0 -0.82438433068E+03 -0.24590928501E+02 -0.96151773989E+02  0.10243961234E+04  0.59994000989E+03 0.  0.
         23    2    4    4    0    0 -0.76437689983E+03 -0.21538701171E+03 -0.82353684597E+02  0.80294614131E+03  0.85303966378E+02 0.  0.
         23    2    4    4    0    0 -0.60007430857E+02  0.19079608321E+03 -0.13798089391E+02  0.22144998204E+03  0.94051422899E+02 0.  0.
          2    1    3    3  502    0  0.65239837727E+03  0.49767755099E+02  0.21391945957E+03  0.68837635585E+03  0.00000000000E+00 0. -1.
         -2    1    3    3    0  502  0.17198595341E+03 -0.25176826597E+02  0.68105859297E+02  0.18668542749E+03  0.00000000000E+00 0.  1.
         13    1    5    5    0    0 -0.54206840782E+03 -0.12810128974E+03 -0.88776593637E+02  0.56402959388E+03  0.00000000000E+00 0.  1.
        -13    1    5    5    0    0 -0.22230849200E+03 -0.87285721979E+02  0.64229090398E+01  0.23891654743E+03  0.00000000000E+00 0. -1.
          3    1    6    6  503    0 -0.15858240972E+02  0.54650621095E+02  0.38901554820E+02  0.68931162475E+02  0.00000000000E+00 0. -1.
         -3    1    6    6    0  503 -0.44149189885E+02  0.13614546212E+03 -0.52699644211E+02  0.15251881957E+03  0.00000000000E+00 0.  1.
<mgrwt>
<rscale>  0 0.91198605E+03</rscale>
<asrwt>0</asrwt>
<pdfrwt beam="1">  1        2 0.13181418E+00 0.91198605E+03</pdfrwt>
<pdfrwt beam="2">  1       -2 0.16041011E+00 0.91198605E+03</pdfrwt>
<totfact> 0.78514461E+00</totfact>
</mgrwt>
</event>
<event>
12    1  0.1444206E-007  0.6116042E+03  0.7818608E-02  0.9881619E-01
         -1   -1    0    0    0  501 -0.00000000000E+00  0.00000000000E+00  0.28441915124E+03  0.28441915124E+03  0.00000000000E+00 0.  1.
          1   -1    0    0  501    0  0.00000000000E+00 -0.00000000000E+00 -0.28061966362E+04  0.28061966362E+04  0.00000000000E+00 0. -1.
         23    2    1    2    0    0 -0.33882052223E+03  0.33120390395E+03 -0.29888664572E+02  0.48402194300E+03  0.94279036723E+02 0.  0.
    5000000    2    1    2    0    0  0.33882052223E+03 -0.33120390395E+03 -0.24918888204E+04  0.26065938444E+04  0.60027177546E+03 0.  0.
         23    2    4    4    0    0 -0.25362312583E+02 -0.37435811854E+03 -0.13214052403E+04  0.13767301463E+04  0.92124040250E+02 0.  0.
         23    2    4    4    0    0  0.36418283481E+03  0.43154214595E+02 -0.11704835801E+04  0.12298636982E+04  0.89674307131E+02 0.  0.
          3    1    3    3  502    0 -0.15068057222E+03  0.97461823924E+02 -0.39764902842E+02  0.18380611923E+03  0.00000000000E+00 0. -1.
         -3    1    3    3    0  502 -0.18813995000E+03  0.23374208002E+03  0.98762382693E+01  0.30021582377E+03  0.00000000000E+00 0.  1.
         11    1    5    5    0    0 -0.12513416046E+02 -0.29040292973E+03 -0.86622125821E+03  0.91369016376E+03  0.00000000000E+00 0. -1.
        -11    1    5    5    0    0 -0.12848896537E+02 -0.83955188815E+02 -0.45518398205E+03  0.46303998249E+03  0.00000000000E+00 0.  1.
          3    1    6    6  503    0  0.21090566085E+03  0.92134753030E+01 -0.53180403248E+03  0.57217271420E+03  0.00000000000E+00 0. -1.
         -3    1    6    6    0  503  0.15327717395E+03  0.33940739292E+02 -0.63867954763E+03  0.65769098397E+03  0.00000000000E+00 0.  1.
<mgrwt>
<rscale>  0 0.61160423E+03</rscale>
<asrwt>0</asrwt>
<pdfrwt beam="1">  1        1 0.43172256E+00 0.61160423E+03</pdfrwt>
<pdfrwt beam="2">  1       -1 0.43756792E-01 0.61160423E+03</pdfrwt>
<totfact> 0.46649647E+00</totfact>
</mgrwt>
</event>
<event>
12    1  0.1444206E-007  0.6491326E+03  0.7818608E-02  0.9808408E-01
         -2   -1    0    0    0  501 -0.00000000000E+00  0.00000000000E+00  0.31567360222E+03  0.31567360222E+03  0.00000000000E+00 0.  1.
          2   -1    0    0  501    0  0.00000000000E+00 -0.00000000000E+00 -0.13891658596E+04  0.13891658596E+04  0.00000000000E+00 0. -1.
         23    2    1    2    0    0 -0.51941162451E+03  0.32341503366E+02 -0.47342108981E+03  0.70943874298E+03  0.91331228200E+02 0.  0.
    5000000    2    1    2    0    0  0.51941162451E+03 -0.32341503366E+02 -0.60007116761E+03  0.99540071889E+03  0.59991897490E+03 0.  0.
         23    2    4    4    0    0 -0.10143396724E+03  0.56909921458E+02 -0.49517949644E+02  0.15604109710E+03  0.91483374307E+02 0.  0.
         23    2    4    4    0    0  0.62084559175E+03 -0.89251424824E+02 -0.55055321797E+03  0.83935962179E+03  0.89446426685E+02 0.  0.
          3    1    3    3  502    0 -0.17900191592E+03  0.36397819135E+02 -0.11903108452E+03  0.21802496697E+03  0.00000000000E+00 0.  1.
         -3    1    3    3    0  502 -0.34040970859E+03 -0.40563157694E+01 -0.35439000528E+03  0.49141377600E+03  0.00000000000E+00 0. -1.
         13    1    5    5    0    0 -0.40696846857E+02 -0.23038217241E+02 -0.23420355270E+02  0.52302063427E+02  0.00000000000E+00 0.  1.
        -13    1    5    5    0    0 -0.60737120387E+02  0.79948138699E+02 -0.26097594374E+02  0.10373903367E+03  0.00000000000E+00 0. -1.
          1    1    6    6  503    0  0.35017609728E+03 -0.34747489407E+02 -0.36307222125E+03  0.50562053456E+03  0.00000000000E+00 0. -1.
         -1    1    6    6    0  503  0.27066949448E+03 -0.54503935417E+02 -0.18748099671E+03  0.33373908723E+03  0.00000000000E+00 0.  1.
<mgrwt>
<rscale>  0 0.64913265E+03</rscale>
<asrwt>0</asrwt>
<pdfrwt beam="1">  1        2 0.21371782E+00 0.64913265E+03</pdfrwt>
<pdfrwt beam="2">  1       -2 0.48565171E-01 0.64913265E+03</pdfrwt>
<totfact> 0.60728995E+01</totfact>
</mgrwt>
</event>
<event>
12    1  0.1444206E-007  0.3066262E+03  0.7818608E-02  0.1081974E+00
          2   -1    0    0  501    0  0.00000000000E+00  0.00000000000E+00  0.56016248365E+03  0.56016248365E+03  0.00000000000E+00 0. -1.
         -2   -1    0    0    0  501 -0.00000000000E+00 -0.00000000000E+00 -0.31600342036E+03  0.31600342036E+03  0.00000000000E+00 0.  1.
         23    2    1    2    0    0  0.12339498698E+03 -0.64585599776E+02 -0.74505413107E+02  0.18262057144E+03  0.91660209575E+02 0.  0.
    5000000    2    1    2    0    0 -0.12339498698E+03  0.64585599776E+02  0.31866447639E+03  0.69354533257E+03  0.60005037898E+03 0.  0.
         23    2    4    4    0    0  0.69060375349E+02 -0.12582352740E+03 -0.91194658032E+02  0.19314226286E+03  0.91578231915E+02 0.  0.
         23    2    4    4    0    0 -0.19245536233E+03  0.19040912717E+03  0.40985913442E+03  0.50040306971E+03  0.95519735696E+02 0.  0.
          3    1    3    3  502    0  0.51535621605E+02  0.20396890304E+02 -0.25897987362E+02  0.61177276645E+02  0.00000000000E+00 0. -1.
         -3    1    3    3    0  502  0.71859365377E+02 -0.84982490080E+02 -0.48607425745E+02  0.12144329479E+03  0.00000000000E+00 0.  1.
         13    1    5    5    0    0  0.81028199232E+02 -0.56759242213E+02 -0.41829060632E+02  0.10740973401E+03  0.00000000000E+00 0.  1.
        -13    1    5    5    0    0 -0.11967823884E+02 -0.69064285182E+02 -0.49365597400E+02  0.85732528850E+02  0.00000000000E+00 0. -1.
          2    1    6    6  503    0 -0.13651493574E+02  0.45063636046E+02  0.12773076422E+03  0.13613318000E+03  0.00000000000E+00 0. -1.
         -2    1    6    6    0  503 -0.17880386876E+03  0.14534549112E+03  0.28212837020E+03  0.36426988971E+03  0.00000000000E+00 0.  1.
<mgrwt>
<rscale>  0 0.30662621E+03</rscale>
<asrwt>0</asrwt>
<pdfrwt beam="1">  1        2 0.86178844E-01 0.30662621E+03</pdfrwt>
<pdfrwt beam="2">  1       -2 0.48615911E-01 0.30662621E+03</pdfrwt>
<totfact> 0.22342641E+02</totfact>
</mgrwt>
</event>
<event>
12    1  0.1444206E-007  0.1050140E+04  0.7818608E-02  0.9255200E-01
         -2   -1    0    0    0  501 -0.00000000000E+00  0.00000000000E+00  0.11881362083E+04  0.11881362083E+04  0.00000000000E+00 0.  1.
          2   -1    0    0  501    0  0.00000000000E+00 -0.00000000000E+00 -0.11134084349E+04  0.11134084349E+04  0.00000000000E+00 0. -1.
         23    2    1    2    0    0 -0.32497945017E+03  0.96949411929E+03 -0.27979947399E+03  0.10640843398E+04  0.91963286694E+02 0.  0.
    5000000    2    1    2    0    0  0.32497945017E+03 -0.96949411929E+03  0.35452724735E+03  0.12374603035E+04  0.60007328158E+03 0.  0.
         23    2    4    4    0    0  0.36329808116E+03 -0.65422247393E+03  0.47006407756E+03  0.88796107205E+03  0.86729967574E+02 0.  0.
         23    2    4    4    0    0 -0.38318630998E+02 -0.31527164535E+03 -0.11553683021E+03  0.34949923146E+03  0.89086619684E+02 0.  0.
          4    1    3    3  502    0 -0.23392508345E+03  0.80839293911E+03 -0.23239374418E+03  0.87305609270E+03  0.00000000000E+00 0.  1.
         -4    1    3    3    0  502 -0.91054366717E+02  0.16110118018E+03 -0.47405729814E+02  0.19102824706E+03  0.00000000000E+00 0. -1.
         13    1    5    5    0    0  0.69632311007E+02 -0.78628288789E+02  0.89870357971E+02  0.13823077724E+03  0.00000000000E+00 0.  1.
        -13    1    5    5    0    0  0.29366577016E+03 -0.57559418514E+03  0.38019371959E+03  0.74973029481E+03  0.00000000000E+00 0. -1.
          1    1    6    6  503    0 -0.33204501193E+02 -0.31559401731E+03 -0.12308968262E+03  0.34037213845E+03  0.00000000000E+00 0. -1.
         -1    1    6    6    0  503 -0.51141298044E+01  0.32237195883E+00  0.75528524062E+01  0.91270930096E+01  0.00000000000E+00 0.  1.
<mgrwt>
<rscale>  0 0.10501398E+04</rscale>
<asrwt>0</asrwt>
<pdfrwt beam="1">  1        2 0.17129361E+00 0.10501398E+04</pdfrwt>
<pdfrwt beam="2">  1       -2 0.18279018E+00 0.10501398E+04</pdfrwt>
<totfact> 0.36565968E+00</totfact>
</mgrwt>
</event>
<event>
12    1  0.1444206E-007  0.1252630E+04  0.7818608E-02  0.9067997E-01
         -2   -1    0    0    0  501 -0.00000000000E+00  0.00000000000E+00  0.10247582132E+04  0.10247582132E+04  0.00000000000E+00 0.  1.
          2   -1    0    0  501    0  0.00000000000E+00 -0.00000000000E+00 -0.16823751924E+04  0.16823751924E+04  0.00000000000E+00 0. -1.
         23    2    1    2    0    0  0.65100410590E+03  0.10560661948E+04 -0.39164308729E+03  0.13038309055E+04  0.86651997093E+02 0.  0.
    5000000    2    1    2    0    0 -0.65100410590E+03 -0.10560661948E+04 -0.26597389192E+03  0.14033025001E+04  0.59952784918E+03 0.  0.
         23    2    4    4    0    0 -0.83040337033E+02 -0.32692634526E+03  0.15591366159E+03  0.38329018330E+03  0.93945526471E+02 0.  0.
         23    2    4    4    0    0 -0.56796376886E+03 -0.72913984950E+03 -0.42188755351E+03  0.10200123168E+04  0.90599424458E+02 0.  0.
          1    1    3    3  502    0  0.37849993204E+03  0.53429335522E+03 -0.21781686218E+03  0.69005490610E+03  0.00000000000E+00 0. -1.
         -1    1    3    3    0  502  0.27250417386E+03  0.52177283954E+03 -0.17382622511E+03  0.61377599936E+03  0.00000000000E+00 0.  1.
         13    1    5    5    0    0 -0.71127376254E+02 -0.28302908119E+03  0.16732448397E+03  0.33639567089E+03  0.00000000000E+00 0. -1.
        -13    1    5    5    0    0 -0.11912960779E+02 -0.43897264063E+02 -0.11410822384E+02  0.46894512410E+02  0.00000000000E+00 0.  1.
          3    1    6    6  503    0 -0.56157576557E+03 -0.72432768802E+03 -0.42636810990E+03  0.10108450451E+04  0.00000000000E+00 0. -1.
         -3    1    6    6    0  503 -0.63880032901E+01 -0.48121614765E+01  0.44805563873E+01  0.91672716579E+01  0.00000000000E+00 0.  1.
<mgrwt>
<rscale>  0 0.12526302E+04</rscale>
<asrwt>0</asrwt>
<pdfrwt beam="1">  1        2 0.25882695E+00 0.12526302E+04</pdfrwt>
<pdfrwt beam="2">  1       -2 0.15765511E+00 0.12526302E+04</pdfrwt>
<totfact> 0.25417212E+00</totfact>
</mgrwt>
</event>
<event>
12    1  0.1444206E-007  0.4868669E+03  0.7818608E-02  0.1017265E+00
         -2   -1    0    0    0  501 -0.00000000000E+00  0.00000000000E+00  0.20928444146E+03  0.20928444146E+03  0.00000000000E+00 0.  1.
          2   -1    0    0  501    0  0.00000000000E+00 -0.00000000000E+00 -0.13444723163E+04  0.13444723163E+04  0.00000000000E+00 0. -1.
         23    2    1    2    0    0  0.17575162585E+03  0.30433384227E+03 -0.33673279754E+03  0.49496086787E+03  0.89941993804E+02 0.  0.
    5000000    2    1    2    0    0 -0.17575162585E+03 -0.30433384227E+03 -0.79845507726E+03  0.10587958898E+04  0.60000875361E+03 0.  0.
         23    2    4    4    0    0  0.10360450529E+03  0.84033777155E+02 -0.39266133719E+03  0.42467849124E+03  0.91505879466E+02 0.  0.
         23    2    4    4    0    0 -0.27935613114E+03 -0.38836761943E+03 -0.40579374007E+03  0.63411739861E+03  0.92558413495E+02 0.  0.
          1    1    3    3  502    0  0.16169798151E+03  0.21667546513E+03 -0.22158542228E+03  0.34956343313E+03  0.00000000000E+00 0. -1.
         -1    1    3    3    0  502  0.14053644341E+02  0.87658377140E+02 -0.11514737526E+03  0.14539743475E+03  0.00000000000E+00 0.  1.
         11    1    5    5    0    0  0.95420551697E+01  0.20700819024E+02 -0.88262810988E+01  0.24443362354E+02  0.00000000000E+00 0. -1.
        -11    1    5    5    0    0  0.94062450121E+02  0.63332958131E+02 -0.38383505609E+03  0.40023512888E+03  0.00000000000E+00 0.  1.
          3    1    6    6  503    0 -0.41919609046E+02 -0.59220562648E+02 -0.22714416835E+02  0.76028109243E+02  0.00000000000E+00 0. -1.
         -3    1    6    6    0  503 -0.23743652209E+03 -0.32914705678E+03 -0.38307932323E+03  0.55808928936E+03  0.00000000000E+00 0.  1.
<mgrwt>
<rscale>  0 0.48686694E+03</rscale>
<asrwt>0</asrwt>
<pdfrwt beam="1">  1        2 0.20684189E+00 0.48686694E+03</pdfrwt>
<pdfrwt beam="2">  1       -2 0.32197607E-01 0.48686694E+03</pdfrwt>
<totfact> 0.14548785E+02</totfact>
</mgrwt>
</event>
<event>
12    1  0.1444206E-007  0.1000551E+04  0.7818608E-02  0.9307941E-01
          2   -1    0    0  501    0  0.00000000000E+00  0.00000000000E+00  0.20098848619E+04  0.20098848619E+04  0.00000000000E+00 0. -1.
         -2   -1    0    0    0  501 -0.00000000000E+00 -0.00000000000E+00 -0.52615294728E+03  0.52615294728E+03  0.00000000000E+00 0.  1.
         23    2    1    2    0    0  0.77346778034E+02 -0.93421543298E+03  0.62511847769E+03  0.11303479527E+04  0.90401236946E+02 0.  0.
    5000000    2    1    2    0    0 -0.77346778034E+02  0.93421543298E+03  0.85861343694E+03  0.14056898565E+04  0.60000494945E+03 0.  0.
         23    2    4    4    0    0 -0.25125501573E+03  0.79034174562E+03  0.79986360915E+03  0.11557636695E+04  0.90767332548E+02 0.  0.
         23    2    4    4    0    0  0.17390823770E+03  0.14387368736E+03  0.58749827787E+02  0.24992618705E+03  0.89821175964E+02 0.  0.
          3    1    3    3  502    0  0.27064840941E+02 -0.57795721224E+02  0.46138386746E+02  0.78750249133E+02  0.00000000000E+00 0. -1.
         -3    1    3    3    0  502  0.50281937093E+02 -0.87641971176E+03  0.57898009094E+03  0.10515977035E+04  0.00000000000E+00 0.  1.
         13    1    5    5    0    0 -0.43507701132E+02  0.18157855857E+03  0.23136416546E+03  0.29730972074E+03  0.00000000000E+00 0.  1.
        -13    1    5    5    0    0 -0.20774731460E+03  0.60876318705E+03  0.56849944369E+03  0.85845394874E+03  0.00000000000E+00 0. -1.
          4    1    6    6  503    0  0.70080489175E+02  0.84804603813E+02  0.69276318092E+02  0.13000886139E+03  0.00000000000E+00 0. -1.
         -4    1    6    6    0  503  0.10382774852E+03  0.59069083549E+02 -0.10526490306E+02  0.11991732566E+03  0.00000000000E+00 0.  1.
<mgrwt>
<rscale>  0 0.10005509E+04</rscale>
<asrwt>0</asrwt>
<pdfrwt beam="1">  1        2 0.30921305E+00 0.10005509E+04</pdfrwt>
<pdfrwt beam="2">  1       -2 0.80946608E-01 0.10005509E+04</pdfrwt>
<totfact> 0.88995820E+00</totfact>
</mgrwt>
</event>
<event>
12    1  0.1444206E-007  0.6013836E+03  0.7818608E-02  0.9902540E-01
          1   -1    0    0  501    0  0.00000000000E+00  0.00000000000E+00  0.71938612998E+03  0.71938612998E+03  0.00000000000E+00 0. -1.
         -1   -1    0    0    0  501 -0.00000000000E+00 -0.00000000000E+00 -0.93923678347E+03  0.93923678347E+03  0.00000000000E+00 0.  1.
         23    2    1    2    0    0  0.27153127317E+03  0.37950162259E+03 -0.63407383739E+03  0.79279532589E+03  0.93402803100E+02 0.  0.
    5000000    2    1    2    0    0 -0.27153127317E+03 -0.37950162259E+03  0.41422318390E+03  0.86582758756E+03  0.60027148145E+03 0.  0.
         23    2    4    4    0    0 -0.44472833234E+03 -0.25118303303E+03  0.33814342147E+03  0.61908309107E+03  0.89703369488E+02 0.  0.
         23    2    4    4    0    0  0.17319705917E+03 -0.12831858956E+03  0.76079762434E+02  0.24674449649E+03  0.92907666871E+02 0.  0.
          4    1    3    3  502    0  0.89933406142E+02  0.20524590730E+03 -0.28944212952E+03  0.36604732801E+03  0.00000000000E+00 0. -1.
         -4    1    3    3    0  502  0.18159786703E+03  0.17425571529E+03 -0.34463170787E+03  0.42674799788E+03  0.00000000000E+00 0.  1.
         11    1    5    5    0    0 -0.27888295333E+03 -0.14574832245E+03  0.15636428187E+03  0.35138022682E+03  0.00000000000E+00 0.  1.
        -11    1    5    5    0    0 -0.16584537901E+03 -0.10543471058E+03  0.18177913960E+03  0.26770286425E+03  0.00000000000E+00 0. -1.
          2    1    6    6  503    0  0.14242444547E+03 -0.11036769113E+03  0.21352695543E+02  0.18144334521E+03  0.00000000000E+00 0. -1.
         -2    1    6    6    0  503  0.30772613698E+02 -0.17950898436E+02  0.54727066891E+02  0.65301151284E+02  0.00000000000E+00 0.  1.
<mgrwt>
<rscale>  0 0.60138361E+03</rscale>
<asrwt>0</asrwt>
<pdfrwt beam="1">  1        1 0.11067479E+00 0.60138361E+03</pdfrwt>
<pdfrwt beam="2">  1       -1 0.14449797E+00 0.60138361E+03</pdfrwt>
<totfact> 0.10609957E+01</totfact>
</mgrwt>
</event>
<event>
12    1  0.1444206E-007  0.3643761E+03  0.7818608E-02  0.1056864E+00
          1   -1    0    0  501    0  0.00000000000E+00  0.00000000000E+00  0.54393229277E+03  0.54393229277E+03  0.00000000000E+00 0. -1.
         -1   -1    0    0    0  501 -0.00000000000E+00 -0.00000000000E+00 -0.29975957877E+03  0.29975957877E+03  0.00000000000E+00 0.  1.
         23    2    1    2    0    0  0.10912361260E+03  0.11746402301E+03  0.85410359985E+02  0.20279076201E+03  0.90129928627E+02 0.  0.
    5000000    2    1    2    0    0 -0.10912361260E+03 -0.11746402301E+03  0.15876235402E+03  0.64090110953E+03  0.59986914208E+03 0.  0.
         23    2    4    4    0    0  0.89931222062E+02 -0.26732224261E+03 -0.52828284163E+02  0.30149868963E+03  0.92530136416E+02 0.  0.
         23    2    4    4    0    0 -0.19905483466E+03  0.14985821961E+03  0.21159063818E+03  0.33940241990E+03  0.91340523774E+02 0.  0.
          4    1    3    3  502    0  0.78991133607E+01  0.50581553791E+02  0.59929935826E+02  0.78819330014E+02  0.00000000000E+00 0. -1.
         -4    1    3    3    0  502  0.10122449924E+03  0.66882469216E+02  0.25480424159E+02  0.12397143199E+03  0.00000000000E+00 0.  1.
         11    1    5    5    0    0  0.48644293211E+02 -0.23976298371E+03 -0.58473824345E+02  0.25153875199E+03  0.00000000000E+00 0. -1.
        -11    1    5    5    0    0  0.41286928852E+02 -0.27559258903E+02  0.56455401814E+01  0.49959937642E+02  0.00000000000E+00 0.  1.
          2    1    6    6  503    0 -0.84594918878E+02  0.16476226560E+02  0.44949881455E+02  0.97202151131E+02  0.00000000000E+00 0. -1.
         -2    1    6    6    0  503 -0.11445991578E+03  0.13338199305E+03  0.16664075673E+03  0.24220026877E+03  0.00000000000E+00 0.  1.
<mgrwt>
<rscale>  0 0.36437610E+03</rscale>
<asrwt>0</asrwt>
<pdfrwt beam="1">  1        1 0.83681891E-01 0.36437610E+03</pdfrwt>
<pdfrwt beam="2">  1       -1 0.46116858E-01 0.36437610E+03</pdfrwt>
<totfact> 0.19208419E+02</totfact>
</mgrwt>
</event>
<event>
12    1  0.1444206E-007  0.5316813E+03  0.7818608E-02  0.1005825E+00
          2   -1    0    0  501    0  0.00000000000E+00  0.00000000000E+00  0.14767097418E+04  0.14767097418E+04  0.00000000000E+00 0.  1.
         -2   -1    0    0    0  501 -0.00000000000E+00 -0.00000000000E+00 -0.20749558142E+03  0.20749558142E+03  0.00000000000E+00 0. -1.
         23    2    1    2    0    0 -0.30763951939E+03 -0.22369633743E+03  0.53421883202E+03  0.66197026417E+03  0.90181732597E+02 0.  0.
    5000000    2    1    2    0    0  0.30763951939E+03  0.22369633743E+03  0.73499532835E+03  0.10222350590E+04  0.60005354593E+03 0.  0.
         23    2    4    4    0    0  0.32277874259E+03 -0.10519009918E+03  0.48518014438E+03  0.59904984637E+03  0.90608345699E+02 0.  0.
         23    2    4    4    0    0 -0.15139223202E+02  0.32888643661E+03  0.24981518397E+03  0.42318521268E+03  0.91008866715E+02 0.  0.
          3    1    3    3  502    0 -0.15905014286E+03 -0.90206609065E+02  0.32366929038E+03  0.37174721223E+03  0.00000000000E+00 0. -1.
         -3    1    3    3    0  502 -0.14858937653E+03 -0.13348972836E+03  0.21054954164E+03  0.29022305194E+03  0.00000000000E+00 0.  1.
         13    1    5    5    0    0  0.22804776115E+03 -0.63872464900E+02  0.26241707162E+03  0.35348011629E+03  0.00000000000E+00 0. -1.
        -13    1    5    5    0    0  0.94730981436E+02 -0.41317634281E+02  0.22276307276E+03  0.24556973008E+03  0.00000000000E+00 0.  1.
          3    1    6    6  503    0 -0.49582216135E+02  0.13828442559E+03  0.91918632230E+02  0.17329170052E+03  0.00000000000E+00 0. -1.
         -3    1    6    6    0  503  0.34442992933E+02  0.19060201102E+03  0.15789655174E+03  0.24989351216E+03  0.00000000000E+00 0.  1.
<mgrwt>
<rscale>  0 0.53168131E+03</rscale>
<asrwt>0</asrwt>
<pdfrwt beam="1">  1        2 0.22718611E+00 0.53168131E+03</pdfrwt>
<pdfrwt beam="2">  1       -2 0.31922398E-01 0.53168131E+03</pdfrwt>
<totfact> 0.12411291E+02</totfact>
</mgrwt>
</event>
<event>
12    1  0.1444206E-007  0.1148181E+04  0.7818608E-02  0.9159463E-01
         -2   -1    0    0    0  501 -0.00000000000E+00  0.00000000000E+00  0.82145234710E+03  0.82145234710E+03  0.00000000000E+00 0. -1.
          2   -1    0    0  501    0  0.00000000000E+00 -0.00000000000E+00 -0.22365053425E+04  0.22365053425E+04  0.00000000000E+00 0.  1.
         23    2    1    2    0    0 -0.10954031454E+04 -0.31485504540E+03  0.73042361606E+00  0.11439183536E+04  0.97503413487E+02 0.  0.
    5000000    2    1    2    0    0  0.10954031454E+04  0.31485504540E+03 -0.14157834190E+04  0.19140393360E+04  0.60005178068E+03 0.  0.
         23    2    4    4    0    0  0.13080279339E+03  0.86650808070E+02 -0.60163070518E+03  0.62795789573E+03  0.88056119067E+02 0.  0.
         23    2    4    4    0    0  0.96460035201E+03  0.22820423733E+03 -0.81415271382E+03  0.12860814402E+04  0.92896805234E+02 0.  0.
          4    1    3    3  502    0 -0.36983903477E+03 -0.13760414720E+03  0.35547089120E+02  0.39620627016E+03  0.00000000000E+00 0. -1.
         -4    1    3    3    0  502 -0.72556411063E+03 -0.17725089821E+03 -0.34816665504E+02  0.74771208346E+03  0.00000000000E+00 0.  1.
         11    1    5    5    0    0  0.44709700710E+02  0.50471432744E+01 -0.30804169671E+03  0.31131032412E+03  0.00000000000E+00 0.  1.
        -11    1    5    5    0    0  0.86093092684E+02  0.81603664796E+02 -0.29358900847E+03  0.31664757161E+03  0.00000000000E+00 0. -1.
          1    1    6    6  503    0  0.14094744086E+03  0.31771949231E+02 -0.16366178607E+03  0.21831357737E+03  0.00000000000E+00 0. -1.
         -1    1    6    6    0  503  0.82365291116E+03  0.19643228810E+03 -0.65049092775E+03  0.10677678629E+04  0.00000000000E+00 0.  1.
<mgrwt>
<rscale>  0 0.11481808E+04</rscale>
<asrwt>0</asrwt>
<pdfrwt beam="1">  1        2 0.34407774E+00 0.11481808E+04</pdfrwt>
<pdfrwt beam="2">  1       -2 0.12637729E+00 0.11481808E+04</pdfrwt>
<totfact> 0.22587079E+00</totfact>
</mgrwt>
</event>
<event>
12    1  0.1444206E-007  0.1434234E+04  0.7818608E-02  0.8929404E-01
         -1   -1    0    0    0  501 -0.00000000000E+00  0.00000000000E+00  0.12173026448E+04  0.12173026448E+04  0.00000000000E+00 0.  1.
          1   -1    0    0  501    0  0.00000000000E+00 -0.00000000000E+00 -0.20332004207E+04  0.20332004207E+04  0.00000000000E+00 0. -1.
         23    2    1    2    0    0  0.11546711235E+04  0.78370665315E+03  0.21289159676E+03  0.14159045003E+04  0.10954999067E+03 0.  0.
    5000000    2    1    2    0    0 -0.11546711235E+04 -0.78370665315E+03 -0.10287893727E+04  0.18345985652E+04  0.59990232588E+03 0.  0.
         23    2    4    4    0    0 -0.11663976577E+03 -0.29263719623E+03 -0.66512189470E+02  0.33385292684E+03  0.88275375038E+02 0.  0.
         23    2    4    4    0    0 -0.10380313577E+04 -0.49106945693E+03 -0.96227718321E+03  0.15007456384E+04  0.87188202728E+02 0.  0.
          2    1    3    3  502    0  0.37865025470E+03  0.26648736314E+03  0.19258895271E+02  0.46342468119E+03  0.00000000000E+00 0. -1.
         -2    1    3    3    0  502  0.77602086881E+03  0.51721929002E+03  0.19363270149E+03  0.95247981914E+03  0.00000000000E+00 0.  1.
         13    1    5    5    0    0 -0.76901539382E+02 -0.25570859731E+03 -0.78448565096E+02  0.27830722388E+03  0.00000000000E+00 0.  1.
        -13    1    5    5    0    0 -0.39738226389E+02 -0.36928598917E+02  0.11936375627E+02  0.55545702963E+02  0.00000000000E+00 0. -1.
          4    1    6    6  503    0 -0.47872771793E+03 -0.17891405847E+03 -0.43394138176E+03  0.67044432360E+03  0.00000000000E+00 0. -1.
         -4    1    6    6    0  503 -0.55930363980E+03 -0.31215539846E+03 -0.52833580144E+03  0.83030131480E+03  0.00000000000E+00 0.  1.
<mgrwt>
<rscale>  0 0.14342345E+04</rscale>
<asrwt>0</asrwt>
<pdfrwt beam="1">  1        1 0.31280006E+00 0.14342345E+04</pdfrwt>
<pdfrwt beam="2">  1       -1 0.18727733E+00 0.14342345E+04</pdfrwt>
<totfact> 0.49812953E-01</totfact>
</mgrwt>
</event>
<event>
12    1  0.1444206E-007  0.1101316E+04  0.7818608E-02  0.9203910E-01
          1   -1    0    0  501    0  0.00000000000E+00  0.00000000000E+00  0.14187857384E+04  0.14187857384E+04  0.00000000000E+00 0. -1.
         -1   -1    0    0    0  501 -0.00000000000E+00 -0.00000000000E+00 -0.10942006462E+04  0.10942006462E+04  0.00000000000E+00 0.  1.
         23    2    1    2    0    0  0.66471355728E+02 -0.10371028621E+04  0.69936678435E+03  0.12558358334E+04  0.89492758244E+02 0.  0.
    5000000    2    1    2    0    0 -0.66471355728E+02  0.10371028621E+04 -0.37478169222E+03  0.12571505512E+04  0.59997116931E+03 0.  0.
         23    2    4    4    0    0  0.18138290439E+03  0.76305260180E+03 -0.12114585154E+03  0.79882261099E+03  0.91061602066E+02 0.  0.
         23    2    4    4    0    0 -0.24785426012E+03  0.27405026026E+03 -0.25363584068E+03  0.45832794023E+03  0.95906630183E+02 0.  0.
          1    1    3    3  502    0  0.34615238757E+01 -0.67557024212E+03  0.47194303522E+03  0.82409790843E+03  0.00000000000E+00 0. -1.
         -1    1    3    3    0  502  0.63009831852E+02 -0.36153261994E+03  0.22742374913E+03  0.43173792497E+03  0.00000000000E+00 0.  1.
         11    1    5    5    0    0  0.16975852263E+03  0.62874367949E+03 -0.12848910771E+03  0.66381173634E+03  0.00000000000E+00 0. -1.
        -11    1    5    5    0    0  0.11624381764E+02  0.13430892231E+03  0.73432561706E+01  0.13501087465E+03  0.00000000000E+00 0.  1.
          3    1    6    6  503    0 -0.10641045856E+03  0.76585124175E+02 -0.46509878189E+02  0.13911015673E+03  0.00000000000E+00 0. -1.
         -3    1    6    6    0  503 -0.14144380156E+03  0.19746513608E+03 -0.20712596249E+03  0.31921778351E+03  0.00000000000E+00 0.  1.
<mgrwt>
<rscale>  0 0.11013159E+04</rscale>
<asrwt>0</asrwt>
<pdfrwt beam="1">  1        1 0.21827473E+00 0.11013159E+04</pdfrwt>
<pdfrwt beam="2">  1       -1 0.16833856E+00 0.11013159E+04</pdfrwt>
<totfact> 0.18711783E+00</totfact>
</mgrwt>
</event>
<event>
12    1  0.1444206E-007  0.8013308E+03  0.7818608E-02  0.9558093E-01
         -2   -1    0    0    0  501 -0.00000000000E+00  0.00000000000E+00  0.11949944598E+04  0.11949944598E+04  0.00000000000E+00 0. -1.
          2   -1    0    0  501    0  0.00000000000E+00 -0.00000000000E+00 -0.57242964818E+03  0.57242964818E+03  0.00000000000E+00 0.  1.
         23    2    1    2    0    0  0.60222008790E+03 -0.38409287138E+03  0.31485321825E+03  0.78585885137E+03  0.90803177900E+02 0.  0.
    5000000    2    1    2    0    0 -0.60222008790E+03  0.38409287138E+03  0.30771159333E+03  0.98156525658E+03  0.59882181001E+03 0.  0.
         23    2    4    4    0    0 -0.56364748474E+03  0.87734992161E+02  0.33529852314E+03  0.66798673678E+03  0.91571092565E+02 0.  0.
         23    2    4    4    0    0 -0.38572603165E+02  0.29635787922E+03 -0.27586929808E+02  0.31357851980E+03  0.90854890321E+02 0.  0.
          1    1    3    3  502    0  0.37335101750E+03 -0.26825571197E+03  0.24022285715E+03  0.51870909994E+03  0.00000000000E+00 0. -1.
         -1    1    3    3    0  502  0.22886907040E+03 -0.11583715941E+03  0.74630361106E+02  0.26714975143E+03  0.00000000000E+00 0.  1.
         13    1    5    5    0    0 -0.52580285260E+03  0.10462294572E+03  0.31552061847E+03  0.62206740893E+03  0.00000000000E+00 0.  1.
        -13    1    5    5    0    0 -0.37844632133E+02 -0.16887953559E+02  0.19777904672E+02  0.45919327847E+02  0.00000000000E+00 0. -1.
          3    1    6    6  503    0 -0.22755521992E+02  0.15433099443E+02 -0.16339802926E+02  0.31984113232E+02  0.00000000000E+00 0. -1.
         -3    1    6    6    0  503 -0.15817081173E+02  0.28092477978E+03 -0.11247126882E+02  0.28159440657E+03  0.00000000000E+00 0.  1.
<mgrwt>
<rscale>  0 0.80133083E+03</rscale>
<asrwt>0</asrwt>
<pdfrwt beam="1">  1        2 0.88066100E-01 0.80133083E+03</pdfrwt>
<pdfrwt beam="2">  1       -2 0.18384530E+00 0.80133083E+03</pdfrwt>
<totfact> 0.90639834E+00</totfact>
</mgrwt>
</event>
<event>
12    1  0.1444206E-007  0.1304666E+04  0.7818608E-02  0.9025873E-01
         -2   -1    0    0    0  501 -0.00000000000E+00  0.00000000000E+00  0.11192292286E+04  0.11192292286E+04  0.00000000000E+00 0.  1.
          2   -1    0    0  501    0  0.00000000000E+00 -0.00000000000E+00 -0.15610242733E+04  0.15610242733E+04  0.00000000000E+00 0. -1.
         23    2    1    2    0    0 -0.11591356152E+04  0.43832136810E+03 -0.39065312033E+03  0.13024663355E+04  0.89931632730E+02 0.  0.
    5000000    2    1    2    0    0  0.11591356152E+04 -0.43832136810E+03 -0.51141924457E+02  0.13777871664E+04  0.59996748508E+03 0.  0.
         23    2    4    4    0    0  0.38715276202E+03  0.11470535968E+03  0.55677026584E+02  0.41770250031E+03  0.91273582160E+02 0.  0.
         23    2    4    4    0    0  0.77198285320E+03 -0.55302672778E+03 -0.10681895104E+03  0.96008466605E+03  0.92499677869E+02 0.  0.
          1    1    3    3  502    0 -0.58711158062E+03  0.17660855101E+03 -0.20829381979E+03  0.64751594865E+03  0.00000000000E+00 0. -1.
         -1    1    3    3    0  502 -0.57202403460E+03  0.26171281708E+03 -0.18235930053E+03  0.65495038688E+03  0.00000000000E+00 0.  1.
         13    1    5    5    0    0  0.10107663453E+03 -0.10099164510E+02  0.70734081749E+01  0.10182589197E+03  0.00000000000E+00 0. -1.
        -13    1    5    5    0    0  0.28607612749E+03  0.12480452419E+03  0.48603618409E+02  0.31587660835E+03  0.00000000000E+00 0.  1.
          2    1    6    6  503    0  0.23250420767E+03 -0.11958968167E+03 -0.44974547141E+02  0.26529720774E+03  0.00000000000E+00 0. -1.
         -2    1    6    6    0  503  0.53947864553E+03 -0.43343704611E+03 -0.61844403900E+02  0.69478745830E+03  0.00000000000E+00 0.  1.
<mgrwt>
<rscale>  0 0.13046659E+04</rscale>
<asrwt>0</asrwt>
<pdfrwt beam="1">  1        2 0.24015758E+00 0.13046659E+04</pdfrwt>
<pdfrwt beam="2">  1       -2 0.17218911E+00 0.13046659E+04</pdfrwt>
<totfact> 0.23167998E+00</totfact>
</mgrwt>
</event>
<event>
12    1  0.1444206E-007  0.1022797E+04  0.7818608E-02  0.9283889E-01
          1   -1    0    0  501    0  0.00000000000E+00  0.00000000000E+00  0.14339574029E+04  0.14339574029E+04  0.00000000000E+00 0. -1.
         -1   -1    0    0    0  501 -0.00000000000E+00 -0.00000000000E+00 -0.97539303473E+03  0.97539303473E+03  0.00000000000E+00 0.  1.
         23    2    1    2    0    0  0.96141056499E+02 -0.93314648078E+03 -0.37951929934E+03  0.10156208484E+04  0.86286451800E+02 0.  0.
    5000000    2    1    2    0    0 -0.96141056499E+02  0.93314648078E+03  0.83808366748E+03  0.13937295892E+04  0.60007705905E+03 0.  0.
         23    2    4    4    0    0  0.92045979775E+00  0.96807260065E+03  0.69334985288E+03  0.11943467195E+04  0.92545451719E+02 0.  0.
         23    2    4    4    0    0 -0.97061516297E+02 -0.34926119863E+02  0.14473381459E+03  0.19938286966E+03  0.90359724618E+02 0.  0.
          1    1    3    3  502    0  0.78590068207E+02 -0.79616493949E+03 -0.35542922573E+03  0.87543414613E+03  0.00000000000E+00 0. -1.
         -1    1    3    3    0  502  0.17550988292E+02 -0.13698154129E+03 -0.24090073605E+02  0.14018670226E+03  0.00000000000E+00 0.  1.
         11    1    5    5    0    0 -0.44489490141E+02  0.58966415921E+03  0.42562751120E+03  0.72858898817E+03  0.00000000000E+00 0. -1.
        -11    1    5    5    0    0  0.45409949939E+02  0.37840844144E+03  0.26772234169E+03  0.46575773138E+03  0.00000000000E+00 0.  1.
          3    1    6    6  503    0 -0.83995371689E+01  0.26061860317E+02  0.44913085139E+02  0.52601882138E+02  0.00000000000E+00 0. -1.
         -3    1    6    6    0  503 -0.88661979128E+02 -0.60987980180E+02  0.99820729455E+02  0.14678098752E+03  0.00000000000E+00 0.  1.
<mgrwt>
<rscale>  0 0.10227969E+04</rscale>
<asrwt>0</asrwt>
<pdfrwt beam="1">  1        1 0.22060883E+00 0.10227969E+04</pdfrwt>
<pdfrwt beam="2">  1       -1 0.15006047E+00 0.10227969E+04</pdfrwt>
<totfact> 0.25396909E+00</totfact>
</mgrwt>
</event>
<event>
12    1  0.1444206E-007  0.5724127E+03  0.7818608E-02  0.9964354E-01
          1   -1    0    0  501    0  0.00000000000E+00  0.00000000000E+00  0.19360815936E+04  0.19360815936E+04  0.00000000000E+00 0. -1.
         -1   -1    0    0    0  501 -0.00000000000E+00 -0.00000000000E+00 -0.30533375910E+03  0.30533375910E+03  0.00000000000E+00 0.  1.
         23    2    1    2    0    0  0.15525291019E+03 -0.54271720490E+03  0.23147009148E+03  0.61761870717E+03  0.96067859247E+02 0.  0.
    5000000    2    1    2    0    0 -0.15525291019E+03  0.54271720490E+03  0.13992777430E+04  0.16237966455E+04  0.60007658953E+03 0.  0.
         23    2    4    4    0    0 -0.42256978142E+02  0.11158258651E+03  0.10220484068E+04  0.10331881662E+04  0.93051142128E+02 0.  0.
         23    2    4    4    0    0 -0.11299593205E+03  0.43113461839E+03  0.37722933621E+03  0.59060847935E+03  0.88720143978E+02 0.  0.
          1    1    3    3  502    0  0.49409774846E+02 -0.12855774152E+03  0.15225543644E+02  0.13856491596E+03  0.00000000000E+00 0. -1.
         -1    1    3    3    0  502  0.10584313534E+03 -0.41415946338E+03  0.21624454784E+03  0.47905379121E+03  0.00000000000E+00 0.  1.
         11    1    5    5    0    0 -0.44648038470E+02  0.58102328493E+02  0.28748111812E+03  0.29667275101E+03  0.00000000000E+00 0. -1.
        -11    1    5    5    0    0  0.23910603278E+01  0.53480258015E+02  0.73456728870E+03  0.73651541518E+03  0.00000000000E+00 0.  1.
          1    1    6    6  503    0 -0.11884501861E+03  0.31716382318E+03  0.30315701765E+03  0.45455605434E+03  0.00000000000E+00 0. -1.
         -1    1    6    6    0  503  0.58490865669E+01  0.11397079521E+03  0.74072318553E+02  0.13605242501E+03  0.00000000000E+00 0.  1.
<mgrwt>
<rscale>  0 0.57241267E+03</rscale>
<asrwt>0</asrwt>
<pdfrwt beam="1">  1        1 0.29785870E+00 0.57241267E+03</pdfrwt>
<pdfrwt beam="2">  1       -1 0.46974426E-01 0.57241267E+03</pdfrwt>
<totfact> 0.15970259E+01</totfact>
</mgrwt>
</event>
<event>
12    1  0.1444206E-007  0.4844147E+03  0.7818608E-02  0.1017929E+00
         -2   -1    0    0    0  501 -0.00000000000E+00  0.00000000000E+00  0.76261891392E+03  0.76261891392E+03  0.00000000000E+00 0. -1.
          2   -1    0    0  501    0  0.00000000000E+00 -0.00000000000E+00 -0.35862574349E+03  0.35862574349E+03  0.00000000000E+00 0.  1.
         23    2    1    2    0    0 -0.32389058746E+03 -0.39508787209E+02  0.24927323163E+03  0.42092626198E+03  0.92605167826E+02 0.  0.
    5000000    2    1    2    0    0  0.32389058746E+03  0.39508787209E+02  0.15471993879E+03  0.70031839542E+03  0.60003461450E+03 0.  0.
         23    2    4    4    0    0  0.27866376795E+03 -0.22320693349E+03 -0.19301232229E+02  0.36907403920E+03  0.91478293152E+02 0.  0.
         23    2    4    4    0    0  0.45226819509E+02  0.26271572070E+03  0.17402117102E+03  0.33124435622E+03  0.91511968933E+02 0.  0.
          2    1    3    3  502    0 -0.10523286325E+03 -0.48671663924E+02  0.55168064618E+02  0.12839938369E+03  0.00000000000E+00 0.  1.
         -2    1    3    3    0  502 -0.21865772421E+03  0.91628767146E+01  0.19410516701E+03  0.29252687830E+03  0.00000000000E+00 0. -1.
         11    1    5    5    0    0  0.13808502364E+03 -0.58833410219E+02  0.11804079573E+02  0.15055955701E+03  0.00000000000E+00 0.  1.
        -11    1    5    5    0    0  0.14057874431E+03 -0.16437352327E+03 -0.31105311803E+02  0.21851448219E+03  0.00000000000E+00 0. -1.
          4    1    6    6  503    0  0.19199669551E+02  0.17786195567E+03  0.16261556795E+03  0.24175881685E+03  0.00000000000E+00 0. -1.
         -4    1    6    6    0  503  0.26027149957E+02  0.84853765033E+02  0.11405603073E+02  0.89485539371E+02  0.00000000000E+00 0.  1.
<mgrwt>
<rscale>  0 0.48441469E+03</rscale>
<asrwt>0</asrwt>
<pdfrwt beam="1">  1        2 0.55173191E-01 0.48441469E+03</pdfrwt>
<pdfrwt beam="2">  1       -2 0.11732599E+00 0.48441469E+03</pdfrwt>
<totfact> 0.52040550E+01</totfact>
</mgrwt>
</event>
<event>
12    1  0.1444206E-007  0.9168137E+03  0.7818608E-02  0.9404804E-01
         -1   -1    0    0    0  501 -0.00000000000E+00  0.00000000000E+00  0.46330782453E+03  0.46330782453E+03  0.00000000000E+00 0.  1.
          1   -1    0    0  501    0  0.00000000000E+00 -0.00000000000E+00 -0.24013987911E+04  0.24013987911E+04  0.00000000000E+00 0. -1.
         23    2    1    2    0    0  0.70052172688E+02  0.87816817201E+03 -0.34981355240E+03  0.95192494109E+03  0.87777712497E+02 0.  0.
    5000000    2    1    2    0    0 -0.70052172688E+02 -0.87816817201E+03 -0.15882774141E+04  0.19127816745E+04  0.60001828706E+03 0.  0.
         23    2    4    4    0    0 -0.18836517047E+03 -0.63690294694E+03 -0.65438502930E+03  0.93659973389E+03  0.88727074137E+02 0.  0.
         23    2    4    4    0    0  0.11831299778E+03 -0.24126522506E+03 -0.93389238485E+03  0.97618194061E+03  0.92570623992E+02 0.  0.
          3    1    3    3  502    0  0.38867289725E+02  0.44942287036E+03 -0.13201275007E+03  0.47002015786E+03  0.00000000000E+00 0. -1.
         -3    1    3    3    0  502  0.31184882963E+02  0.42874530164E+03 -0.21780080232E+03  0.48190478323E+03  0.00000000000E+00 0.  1.
         11    1    5    5    0    0 -0.11981650280E+03 -0.27263928249E+03 -0.32396693572E+03  0.44004857475E+03  0.00000000000E+00 0. -1.
        -11    1    5    5    0    0 -0.68548667673E+02 -0.36426366446E+03 -0.33041809358E+03  0.49655115914E+03  0.00000000000E+00 0.  1.
          3    1    6    6  503    0  0.12644456525E+03 -0.16695923210E+03 -0.69396911671E+03  0.72488395500E+03  0.00000000000E+00 0. -1.
         -3    1    6    6    0  503 -0.81315674608E+01 -0.74305992961E+02 -0.23992326814E+03  0.25129798561E+03  0.00000000000E+00 0.  1.
<mgrwt>
<rscale>  0 0.91681370E+03</rscale>
<asrwt>0</asrwt>
<pdfrwt beam="1">  1        1 0.36944597E+00 0.91681370E+03</pdfrwt>
<pdfrwt beam="2">  1       -1 0.71278127E-01 0.91681370E+03</pdfrwt>
<totfact> 0.32444017E+00</totfact>
</mgrwt>
</event>
<event>
12    1  0.1444206E-007  0.4874186E+03  0.7818608E-02  0.1017116E+00
         -1   -1    0    0    0  501 -0.00000000000E+00  0.00000000000E+00  0.19873923795E+03  0.19873923795E+03  0.00000000000E+00 0.  1.
          1   -1    0    0  501    0  0.00000000000E+00 -0.00000000000E+00 -0.15802564806E+04  0.15802564806E+04  0.00000000000E+00 0. -1.
         23    2    1    2    0    0  0.25774463522E+03  0.19349089727E+03 -0.85522946262E+03  0.91846714550E+03  0.91068322307E+02 0.  0.
    5000000    2    1    2    0    0 -0.25774463522E+03 -0.19349089727E+03 -0.52628778002E+03  0.86052857304E+03  0.59971624399E+03 0.  0.
         23    2    4    4    0    0  0.11887687792E+01 -0.33351774452E+03 -0.39598307076E+03  0.52585679125E+03  0.92126399546E+02 0.  0.
         23    2    4    4    0    0 -0.25893340400E+03  0.14002684724E+03 -0.13030470925E+03  0.33467178179E+03  0.91497861277E+02 0.  0.
          4    1    3    3  502    0  0.92279058060E+02  0.12310237889E+03 -0.43403287230E+03  0.46049338158E+03  0.00000000000E+00 0.  1.
         -4    1    3    3    0  502  0.16546557716E+03  0.70388518389E+02 -0.42119659032E+03  0.45797376392E+03  0.00000000000E+00 0. -1.
         13    1    5    5    0    0  0.30255968875E+02 -0.48926502497E+02 -0.44857073763E+02  0.72947812618E+02  0.00000000000E+00 0. -1.
        -13    1    5    5    0    0 -0.29067200096E+02 -0.28459124202E+03 -0.35112599700E+03  0.45290897863E+03  0.00000000000E+00 0.  1.
          2    1    6    6  503    0 -0.19665343264E+03  0.84143496834E+02 -0.13131231659E+03  0.25098929283E+03  0.00000000000E+00 0.  1.
         -2    1    6    6    0  503 -0.62279971359E+02  0.55883350410E+02  0.10076073388E+01  0.83682488957E+02  0.00000000000E+00 0. -1.
<mgrwt>
<rscale>  0 0.48741858E+03</rscale>
<asrwt>0</asrwt>
<pdfrwt beam="1">  1        1 0.24311639E+00 0.48741858E+03</pdfrwt>
<pdfrwt beam="2">  1       -1 0.30575266E-01 0.48741858E+03</pdfrwt>
<totfact> 0.60427579E+01</totfact>
</mgrwt>
</event>
<event>
12    1  0.1444206E-007  0.1110061E+04  0.7818608E-02  0.9195441E-01
          1   -1    0    0  501    0  0.00000000000E+00  0.00000000000E+00  0.17899561123E+04  0.17899561123E+04  0.00000000000E+00 0. -1.
         -1   -1    0    0    0  501 -0.00000000000E+00 -0.00000000000E+00 -0.78812394365E+03  0.78812394365E+03  0.00000000000E+00 0.  1.
         23    2    1    2    0    0 -0.70391931307E+03  0.81289242707E+03  0.76975610682E+03  0.13249727115E+04  0.82047089663E+02 0.  0.
    5000000    2    1    2    0    0  0.70391931307E+03 -0.81289242707E+03  0.23207606184E+03  0.12531073445E+04  0.60010184216E+03 0.  0.
         23    2    4    4    0    0  0.70600565816E+03 -0.72254108067E+03  0.35590258322E+03  0.10749935328E+04  0.91841408165E+02 0.  0.
         23    2    4    4    0    0 -0.20863450958E+01 -0.90351346398E+02 -0.12382652138E+03  0.17811381163E+03  0.90685190993E+02 0.  0.
          4    1    3    3  502    0 -0.32797178821E+03  0.43930680150E+03  0.37845393965E+03  0.66617065692E+03  0.00000000000E+00 0. -1.
         -4    1    3    3    0  502 -0.37594752486E+03  0.37358562557E+03  0.39130216717E+03  0.65880205458E+03  0.00000000000E+00 0.  1.
         11    1    5    5    0    0  0.42414989770E+03 -0.37279972627E+03  0.18155966580E+03  0.59316665775E+03  0.00000000000E+00 0.  1.
        -11    1    5    5    0    0  0.28185576047E+03 -0.34974135441E+03  0.17434291742E+03  0.48182687508E+03  0.00000000000E+00 0. -1.
          2    1    6    6  503    0 -0.42233857905E+02 -0.72872432377E+02 -0.82784530653E+02  0.11809897827E+03  0.00000000000E+00 0. -1.
         -2    1    6    6    0  503  0.40147512810E+02 -0.17478914021E+02 -0.41041990729E+02  0.60014833360E+02  0.00000000000E+00 0.  1.
<mgrwt>
<rscale>  0 0.11100611E+04</rscale>
<asrwt>0</asrwt>
<pdfrwt beam="1">  1        1 0.27537786E+00 0.11100611E+04</pdfrwt>
<pdfrwt beam="2">  1       -1 0.12124984E+00 0.11100611E+04</pdfrwt>
<totfact> 0.24827172E+00</totfact>
</mgrwt>
</event>
<event>
12    1  0.1444206E-007  0.9311396E+03  0.7818608E-02  0.9387471E-01
          3   -1    0    0  501    0  0.00000000000E+00  0.00000000000E+00  0.11889267375E+04  0.11889267375E+04  0.00000000000E+00 0. -1.
         -3   -1    0    0    0  501 -0.00000000000E+00 -0.00000000000E+00 -0.11581430939E+04  0.11581430939E+04  0.00000000000E+00 0.  1.
         23    2    1    2    0    0 -0.46691735661E+03  0.75917596429E+03 -0.62106145842E+03  0.10903189080E+04  0.93370355354E+02 0.  0.
    5000000    2    1    2    0    0  0.46691735661E+03 -0.75917596429E+03  0.65184510204E+03  0.12567509235E+04  0.60013405500E+03 0.  0.
         23    2    4    4    0    0  0.51284262104E+03 -0.64159236016E+03  0.71103601790E+03  0.10902281156E+04  0.91524941010E+02 0.  0.
         23    2    4    4    0    0 -0.45925264429E+02 -0.11758360413E+03 -0.59190915861E+02  0.16652280784E+03  0.91056285543E+02 0.  0.
          2    1    3    3  502    0 -0.24938551644E+02  0.95925310492E+02 -0.67207112243E+02  0.11975137781E+03  0.00000000000E+00 0. -1.
         -2    1    3    3    0  502 -0.44197880497E+03  0.66325065379E+03 -0.55385434618E+03  0.97056753015E+03  0.00000000000E+00 0.  1.
         13    1    5    5    0    0  0.37749659851E+03 -0.47705902918E+03  0.57739280792E+03  0.83873205129E+03  0.00000000000E+00 0.  1.
        -13    1    5    5    0    0  0.13534602253E+03 -0.16453333098E+03  0.13364320998E+03  0.25149606436E+03  0.00000000000E+00 0. -1.
          1    1    6    6  503    0  0.15513784613E+02 -0.54580492231E+02 -0.54060595467E+02  0.78372543837E+02  0.00000000000E+00 0. -1.
         -1    1    6    6    0  503 -0.61439049042E+02 -0.63003111895E+02 -0.51303203940E+01  0.88150263999E+02  0.00000000000E+00 0.  1.
<mgrwt>
<rscale>  0 0.93113958E+03</rscale>
<asrwt>0</asrwt>
<pdfrwt beam="1">  1        3 0.18291181E+00 0.93113958E+03</pdfrwt>
<pdfrwt beam="2">  1       -3 0.17817586E+00 0.93113958E+03</pdfrwt>
<totfact> 0.98245916E-02</totfact>
</mgrwt>
</event>
<event>
12    1  0.1444206E-007  0.8517354E+03  0.7818608E-02  0.9488011E-01
         -1   -1    0    0    0  501 -0.00000000000E+00  0.00000000000E+00  0.38223486755E+03  0.38223486755E+03  0.00000000000E+00 0.  1.
          1   -1    0    0  501    0  0.00000000000E+00 -0.00000000000E+00 -0.20598211263E+04  0.20598211263E+04  0.00000000000E+00 0. -1.
         23    2    1    2    0    0  0.72545155078E+03 -0.25564213866E+03 -0.94638512418E+03  0.12229103462E+04  0.90730678029E+02 0.  0.
    5000000    2    1    2    0    0 -0.72545155078E+03  0.25564213866E+03 -0.73120113458E+03  0.12191456477E+04  0.60002346243E+03 0.  0.
         23    2    4    4    0    0 -0.76458751022E+03  0.13882290692E+03 -0.72146623381E+03  0.10644337288E+04  0.92950397003E+02 0.  0.
         23    2    4    4    0    0  0.39135959446E+02  0.11681923174E+03 -0.97349007740E+01  0.15471191884E+03  0.93073375950E+02 0.  0.
          1    1    3    3  502    0  0.95064530842E+02 -0.52904325628E+02 -0.17742729197E+03  0.20812634776E+03  0.00000000000E+00 0. -1.
         -1    1    3    3    0  502  0.63038701994E+03 -0.20273781303E+03 -0.76895783221E+03  0.10147839984E+04  0.00000000000E+00 0.  1.
         11    1    5    5    0    0 -0.57061997384E+03  0.85941411669E+02 -0.48292242564E+03  0.75246737469E+03  0.00000000000E+00 0.  1.
        -11    1    5    5    0    0 -0.19396753638E+03  0.52881495252E+02 -0.23854380817E+03  0.31196635416E+03  0.00000000000E+00 0. -1.
          4    1    6    6  503    0  0.64024315527E+02  0.44671094665E+02 -0.37739319967E+01  0.78159210846E+02  0.00000000000E+00 0. -1.
         -4    1    6    6    0  503 -0.24888356082E+02  0.72148137075E+02 -0.59609687773E+01  0.76552707990E+02  0.00000000000E+00 0.  1.
<mgrwt>
<rscale>  0 0.85173541E+03</rscale>
<asrwt>0</asrwt>
<pdfrwt beam="1">  1        1 0.31689555E+00 0.85173541E+03</pdfrwt>
<pdfrwt beam="2">  1       -1 0.58805365E-01 0.85173541E+03</pdfrwt>
<totfact> 0.82071458E+00</totfact>
</mgrwt>
</event>
<event>
12    1  0.1444206E-007  0.3565576E+03  0.7818608E-02  0.1059955E+00
          2   -1    0    0  501    0  0.00000000000E+00  0.00000000000E+00  0.27532517526E+04  0.27532517526E+04  0.00000000000E+00 0. -1.
         -2   -1    0    0    0  501 -0.00000000000E+00 -0.00000000000E+00 -0.61950850523E+02  0.61950850523E+02  0.00000000000E+00 0.  1.
         23    2    1    2    0    0 -0.14786979977E+03  0.88028943462E+02  0.50856456420E+03  0.54506638265E+03  0.94047184762E+02 0.  0.
    5000000    2    1    2    0    0  0.14786979977E+03 -0.88028943462E+02  0.21827363379E+04  0.22701362205E+04  0.59963819612E+03 0.  0.
         23    2    4    4    0    0 -0.10667070450E+03  0.12064628281E+03  0.27136825668E+03  0.32851787354E+03  0.91373397358E+02 0.  0.
         23    2    4    4    0    0  0.25454050427E+03 -0.20867522627E+03  0.19113680812E+04  0.19416183469E+04  0.90651227123E+02 0.  0.
          1    1    3    3  502    0 -0.70122257720E+02 -0.98587345090E+01  0.19840883209E+03  0.21066653822E+03  0.00000000000E+00 0. -1.
         -1    1    3    3    0  502 -0.77747542055E+02  0.97887677971E+02  0.31015573211E+03  0.33439984443E+03  0.00000000000E+00 0.  1.
         13    1    5    5    0    0 -0.31697081452E+02  0.95098371996E+02  0.19083460050E+03  0.21556031657E+03  0.00000000000E+00 0.  1.
        -13    1    5    5    0    0 -0.74973623044E+02  0.25547910815E+02  0.80533656181E+02  0.11295755697E+03  0.00000000000E+00 0. -1.
          2    1    6    6  503    0  0.17636176643E+03 -0.96262680089E+02  0.12701673166E+04  0.12859607258E+04  0.00000000000E+00 0.  1.
         -2    1    6    6    0  503  0.78178737839E+02 -0.11241254618E+03  0.64120076459E+03  0.65565762109E+03  0.00000000000E+00 0. -1.
<mgrwt>
<rscale>  0 0.35655763E+03</rscale>
<asrwt>0</asrwt>
<pdfrwt beam="1">  1        2 0.42357710E+00 0.35655763E+03</pdfrwt>
<pdfrwt beam="2">  1       -2 0.95309022E-02 0.35655763E+03</pdfrwt>
<totfact> 0.20345535E+02</totfact>
</mgrwt>
</event>
<event>
12    1  0.1444206E-007  0.3997957E+03  0.7818608E-02  0.1043850E+00
         -2   -1    0    0    0  501 -0.00000000000E+00  0.00000000000E+00  0.96413526434E+02  0.96413526434E+02  0.00000000000E+00 0.  1.
          2   -1    0    0  501    0  0.00000000000E+00 -0.00000000000E+00 -0.21453305343E+04  0.21453305343E+04  0.00000000000E+00 0. -1.
         23    2    1    2    0    0 -0.10330597797E+03  0.20539444242E+03 -0.39534801198E+03  0.46767184219E+03  0.97764509582E+02 0.  0.
    5000000    2    1    2    0    0  0.10330597797E+03 -0.20539444242E+03 -0.16535689958E+04  0.17740722185E+04  0.60015232268E+03 0.  0.
         23    2    4    4    0    0 -0.10921413830E+03 -0.29254564703E+03 -0.13159949547E+04  0.13557303338E+04  0.93012544707E+02 0.  0.
         23    2    4    4    0    0  0.21252011627E+03  0.87151204614E+02 -0.33757404111E+03  0.41834188473E+03  0.91069023262E+02 0.  0.
          2    1    3    3  502    0 -0.11623176653E+03  0.16736376885E+03 -0.36224245107E+03  0.41562007655E+03  0.00000000000E+00 0. -1.
         -2    1    3    3    0  502  0.12925788566E+02  0.38030673570E+02 -0.33105560910E+02  0.52051765632E+02  0.00000000000E+00 0.  1.
         13    1    5    5    0    0 -0.93922485102E+02 -0.20201041089E+03 -0.75179389095E+03  0.78410694027E+03  0.00000000000E+00 0. -1.
        -13    1    5    5    0    0 -0.15291653196E+02 -0.90535236143E+02 -0.56420106378E+03  0.57162339352E+03  0.00000000000E+00 0.  1.
          4    1    6    6  503    0  0.75947450268E+02  0.70238546992E+02 -0.19149099847E+03  0.21764712536E+03  0.00000000000E+00 0.  1.
         -4    1    6    6    0  503  0.13657266600E+03  0.16912657621E+02 -0.14608304265E+03  0.20069475936E+03  0.00000000000E+00 0. -1.
<mgrwt>
<rscale>  0 0.39979569E+03</rscale>
<asrwt>0</asrwt>
<pdfrwt beam="1">  1        2 0.33005087E+00 0.39979569E+03</pdfrwt>
<pdfrwt beam="2">  1       -2 0.14832849E-01 0.39979569E+03</pdfrwt>
<totfact> 0.21237103E+02</totfact>
</mgrwt>
</event>
<event>
12    1  0.1444206E-007  0.5340698E+03  0.7818608E-02  0.1005250E+00
          2   -1    0    0  501    0  0.00000000000E+00  0.00000000000E+00  0.91229589386E+03  0.91229589386E+03  0.00000000000E+00 0. -1.
         -2   -1    0    0    0  501 -0.00000000000E+00 -0.00000000000E+00 -0.55815108616E+03  0.55815108616E+03  0.00000000000E+00 0.  1.
         23    2    1    2    0    0  0.37500667619E+03  0.17805449022E+03  0.56810868206E+03  0.71003721669E+03  0.95246867512E+02 0.  0.
    5000000    2    1    2    0    0 -0.37500667619E+03 -0.17805449022E+03 -0.21396387436E+03  0.76040976333E+03  0.60009087642E+03 0.  0.
         23    2    4    4    0    0  0.99712985023E+02  0.30400990124E+02  0.76374207495E+02  0.15962260791E+03  0.93698760952E+02 0.  0.
         23    2    4    4    0    0 -0.47471966121E+03 -0.20845548034E+03 -0.29033808186E+03  0.60078715542E+03  0.88524348704E+02 0.  0.
          1    1    3    3  502    0  0.22515324398E+03  0.74299520688E+02  0.38158633714E+03  0.44924663020E+03  0.00000000000E+00 0. -1.
         -1    1    3    3    0  502  0.14985343221E+03  0.10375496953E+03  0.18652234492E+03  0.26079058649E+03  0.00000000000E+00 0.  1.
         11    1    5    5    0    0  0.10165340491E+03  0.50874562572E+01  0.28929134031E+02  0.10581205856E+03  0.00000000000E+00 0.  1.
        -11    1    5    5    0    0 -0.19404198831E+01  0.25313533866E+02  0.47445073464E+02  0.53810549357E+02  0.00000000000E+00 0. -1.
          3    1    6    6  503    0 -0.14604636794E+03 -0.93499656253E+02 -0.13375650167E+03  0.21900349095E+03  0.00000000000E+00 0. -1.
         -3    1    6    6    0  503 -0.32867329328E+03 -0.11495582409E+03 -0.15658158018E+03  0.38178366447E+03  0.00000000000E+00 0.  1.
<mgrwt>
<rscale>  0 0.53406982E+03</rscale>
<asrwt>0</asrwt>
<pdfrwt beam="1">  1        2 0.14035321E+00 0.53406982E+03</pdfrwt>
<pdfrwt beam="2">  1       -2 0.85869398E-01 0.53406982E+03</pdfrwt>
<totfact> 0.35178906E+01</totfact>
</mgrwt>
</event>
<event>
12    1  0.1444206E-007  0.1040261E+04  0.7818608E-02  0.9265457E-01
         -2   -1    0    0    0  501 -0.00000000000E+00  0.00000000000E+00  0.54962876056E+03  0.54962876056E+03  0.00000000000E+00 0.  1.
          2   -1    0    0  501    0  0.00000000000E+00 -0.00000000000E+00 -0.20083063733E+04  0.20083063733E+04  0.00000000000E+00 0. -1.
         23    2    1    2    0    0  0.52490376179E+03  0.79904799049E+03 -0.53447168921E+03  0.10990733577E+04  0.91107676757E+02 0.  0.
    5000000    2    1    2    0    0 -0.52490376179E+03 -0.79904799049E+03 -0.92420592355E+03  0.14588617762E+04  0.60009952727E+03 0.  0.
         23    2    4    4    0    0  0.16390974071E+02 -0.48613167709E+03 -0.37573368170E+03  0.62217909543E+03  0.96635168174E+02 0.  0.
         23    2    4    4    0    0 -0.54129473586E+03 -0.31291631340E+03 -0.54847224185E+03  0.83668268075E+03  0.91101580222E+02 0.  0.
          4    1    3    3  502    0  0.13246628344E+03  0.19700378894E+03 -0.88900389964E+02  0.25349770894E+03  0.00000000000E+00 0. -1.
         -4    1    3    3    0  502  0.39243747836E+03  0.60204420155E+03 -0.44557129925E+03  0.84557564875E+03  0.00000000000E+00 0.  1.
         13    1    5    5    0    0  0.42657967964E+02 -0.43315343185E+03 -0.31398043066E+03  0.53667989397E+03  0.00000000000E+00 0.  1.
        -13    1    5    5    0    0 -0.26266993893E+02 -0.52978245242E+02 -0.61753251035E+02  0.85499201461E+02  0.00000000000E+00 0. -1.
          1    1    6    6  503    0 -0.92503388393E+02 -0.89691171065E+02 -0.13817043667E+03  0.18892446268E+03  0.00000000000E+00 0. -1.
         -1    1    6    6    0  503 -0.44879134747E+03 -0.22322514233E+03 -0.41030180518E+03  0.64775821806E+03  0.00000000000E+00 0.  1.
<mgrwt>
<rscale>  0 0.10402609E+04</rscale>
<asrwt>0</asrwt>
<pdfrwt beam="1">  1        2 0.30897021E+00 0.10402609E+04</pdfrwt>
<pdfrwt beam="2">  1       -2 0.84558271E-01 0.10402609E+04</pdfrwt>
<totfact> 0.80384953E+00</totfact>
</mgrwt>
</event>
<event>
12    1  0.1444206E-007  0.1015868E+04  0.7818608E-02  0.9291311E-01
         -1   -1    0    0    0  501 -0.00000000000E+00  0.00000000000E+00  0.42345032731E+03  0.42345032731E+03  0.00000000000E+00 0.  1.
          1   -1    0    0  501    0  0.00000000000E+00 -0.00000000000E+00 -0.24838598076E+04  0.24838598076E+04  0.00000000000E+00 0. -1.
         23    2    1    2    0    0  0.89745117396E+03  0.26014810520E+03 -0.99525228991E+03  0.13681993851E+04  0.91360770981E+02 0.  0.
    5000000    2    1    2    0    0 -0.89745117396E+03 -0.26014810520E+03 -0.10651571904E+04  0.15391107498E+04  0.60100450395E+03 0.  0.
         23    2    4    4    0    0 -0.83084080807E+03 -0.40089358631E+03 -0.84869373379E+03  0.12574378227E+04  0.99280956423E+02 0.  0.
         23    2    4    4    0    0 -0.66610365884E+02  0.14074548110E+03 -0.21646345661E+03  0.28167292714E+03  0.90757801542E+02 0.  0.
          2    1    3    3  502    0  0.19643533267E+03  0.59735879840E+02 -0.27642068268E+03  0.34433066821E+03  0.00000000000E+00 0. -1.
         -2    1    3    3    0  502  0.70101584129E+03  0.20041222536E+03 -0.71883160723E+03  0.10238687169E+04  0.00000000000E+00 0.  1.
         13    1    5    5    0    0 -0.37115228671E+03 -0.20029324831E+03 -0.32620109596E+03  0.53317779422E+03  0.00000000000E+00 0.  1.
        -13    1    5    5    0    0 -0.45968852136E+03 -0.20060033800E+03 -0.52249263783E+03  0.72426002849E+03  0.00000000000E+00 0. -1.
          3    1    6    6  503    0 -0.98357795854E+01 -0.93329093572E+01 -0.44298458352E+02  0.46327088938E+02  0.00000000000E+00 0. -1.
         -3    1    6    6    0  503 -0.56774586299E+02  0.15007839046E+03 -0.17216499825E+03  0.23534583820E+03  0.00000000000E+00 0.  1.
<mgrwt>
<rscale>  0 0.10158677E+04</rscale>
<asrwt>0</asrwt>
<pdfrwt beam="1">  1        1 0.38213228E+00 0.10158677E+04</pdfrwt>
<pdfrwt beam="2">  1       -1 0.65146205E-01 0.10158677E+04</pdfrwt>
<totfact> 0.33750176E+00</totfact>
</mgrwt>
</event>
<event>
12    1  0.1444206E-007  0.1012109E+04  0.7818608E-02  0.9295362E-01
          1   -1    0    0  501    0  0.00000000000E+00  0.00000000000E+00  0.16382455116E+04  0.16382455116E+04  0.00000000000E+00 0. -1.
         -1   -1    0    0    0  501 -0.00000000000E+00 -0.00000000000E+00 -0.12613078674E+04  0.12613078674E+04  0.00000000000E+00 0.  1.
         23    2    1    2    0    0 -0.82934370439E+03 -0.44688546438E+03  0.11886765197E+04  0.15187876514E+04  0.79034570453E+02 0.  0.
    5000000    2    1    2    0    0  0.82934370439E+03  0.44688546438E+03 -0.81173887545E+03  0.13807657275E+04  0.60006365843E+03 0.  0.
         23    2    4    4    0    0  0.29441590664E+03  0.45494872641E+03 -0.55317503852E+03  0.77970359956E+03  0.90972579246E+02 0.  0.
         23    2    4    4    0    0  0.53492779775E+03 -0.80632620279E+01 -0.25856383693E+03  0.60106212799E+03  0.90596130927E+02 0.  0.
          4    1    3    3  502    0 -0.40146476719E+03 -0.21555708593E+03  0.51164172188E+03  0.68513945161E+03  0.00000000000E+00 0. -1.
         -4    1    3    3    0  502 -0.42787893720E+03 -0.23132837846E+03  0.67703479785E+03  0.83364819983E+03  0.00000000000E+00 0.  1.
         11    1    5    5    0    0  0.25577238950E+03  0.43179018134E+03 -0.52640139645E+03  0.72729684869E+03  0.00000000000E+00 0. -1.
        -11    1    5    5    0    0  0.38643517137E+02  0.23158545069E+02 -0.26773642075E+02  0.52406750867E+02  0.00000000000E+00 0.  1.
          3    1    6    6  503    0  0.49309263436E+03 -0.31466255642E+01 -0.26273919676E+03  0.55873261299E+03  0.00000000000E+00 0. -1.
         -3    1    6    6    0  503  0.41835163389E+02 -0.49166364636E+01  0.41753598317E+01  0.42329514994E+02  0.00000000000E+00 0.  1.
<mgrwt>
<rscale>  0 0.10121093E+04</rscale>
<asrwt>0</asrwt>
<pdfrwt beam="1">  1        1 0.25203777E+00 0.10121093E+04</pdfrwt>
<pdfrwt beam="2">  1       -1 0.19404736E+00 0.10121093E+04</pdfrwt>
<totfact> 0.87499995E-01</totfact>
</mgrwt>
</event>
<event>
12    1  0.1444206E-007  0.4477464E+03  0.7818608E-02  0.1028396E+00
         -2   -1    0    0    0  501 -0.00000000000E+00  0.00000000000E+00  0.96866260267E+02  0.96866260267E+02  0.00000000000E+00 0. -1.
          2   -1    0    0  501    0  0.00000000000E+00 -0.00000000000E+00 -0.41537325830E+04  0.41537325830E+04  0.00000000000E+00 0.  1.
         23    2    1    2    0    0  0.17194403969E+03 -0.18845181663E+03 -0.19339191115E+03  0.33283885108E+03  0.91117668516E+02 0.  0.
    5000000    2    1    2    0    0 -0.17194403969E+03  0.18845181663E+03 -0.38634744115E+04  0.39177599921E+04  0.59777084858E+03 0.  0.
         23    2    4    4    0    0 -0.26818409274E+02  0.37589400328E+03 -0.26245076859E+04  0.26529564621E+04  0.90121403560E+02 0.  0.
         23    2    4    4    0    0 -0.14512563041E+03 -0.18744218664E+03 -0.12389667256E+04  0.12648035301E+04  0.92159647153E+02 0.  0.
          4    1    3    3  502    0  0.74891297938E+02 -0.22846324174E+02 -0.45827613401E+02  0.90723928404E+02  0.00000000000E+00 0.  1.
         -4    1    3    3    0  502  0.97052741750E+02 -0.16560549246E+03 -0.14756429775E+03  0.24211492268E+03  0.00000000000E+00 0. -1.
         11    1    5    5    0    0 -0.42933049874E+02  0.19708520057E+03 -0.11495260131E+04  0.11670886333E+04  0.00000000000E+00 0.  1.
        -11    1    5    5    0    0  0.16114640601E+02  0.17880880271E+03 -0.14749816728E+04  0.14858678288E+04  0.00000000000E+00 0. -1.
          1    1    6    6  503    0 -0.10001349708E+03 -0.16659018155E+03 -0.11041874742E+04  0.11211534089E+04  0.00000000000E+00 0. -1.
         -1    1    6    6    0  503 -0.45112133338E+02 -0.20852005089E+02 -0.13477925143E+03  0.14365012115E+03  0.00000000000E+00 0.  1.
<mgrwt>
<rscale>  0 0.44774645E+03</rscale>
<asrwt>0</asrwt>
<pdfrwt beam="1">  1        2 0.63903559E+00 0.44774645E+03</pdfrwt>
<pdfrwt beam="2">  1       -2 0.14902506E-01 0.44774645E+03</pdfrwt>
<totfact> 0.10863372E+01</totfact>
</mgrwt>
</event>
<event>
12    1  0.1444206E-007  0.8985075E+03  0.7818608E-02  0.9427449E-01
          1   -1    0    0  501    0  0.00000000000E+00  0.00000000000E+00  0.11944597010E+04  0.11944597010E+04  0.00000000000E+00 0. -1.
         -1   -1    0    0    0  501 -0.00000000000E+00 -0.00000000000E+00 -0.73194414484E+03  0.73194414484E+03  0.00000000000E+00 0.  1.
         23    2    1    2    0    0 -0.49852402644E+02  0.83014758048E+03  0.12053468817E+03  0.84527533338E+03  0.91277109681E+02 0.  0.
    5000000    2    1    2    0    0  0.49852402644E+02 -0.83014758048E+03  0.34198086801E+03  0.10811285125E+04  0.60021469409E+03 0.  0.
         23    2    4    4    0    0 -0.19030456601E+03 -0.57728867869E+03  0.46200768987E+02  0.61607610772E+03  0.89091038083E+02 0.  0.
         23    2    4    4    0    0  0.24015696865E+03 -0.25285890179E+03  0.29578009902E+03  0.46505240476E+03  0.84704653905E+02 0.  0.
          3    1    3    3  502    0 -0.48216790444E+02  0.53234927119E+03  0.11830655882E+03  0.54746419725E+03  0.00000000000E+00 0. -1.
         -3    1    3    3    0  502 -0.16356122004E+01  0.29779830929E+03  0.22281293580E+01  0.29781113613E+03  0.00000000000E+00 0.  1.
         13    1    5    5    0    0 -0.98999176377E+02 -0.33731703625E+03  0.69208681097E+02  0.35829242443E+03  0.00000000000E+00 0.  1.
        -13    1    5    5    0    0 -0.91305389630E+02 -0.23997164244E+03 -0.23007912110E+02  0.25778368329E+03  0.00000000000E+00 0. -1.
          3    1    6    6  503    0  0.95726037003E+02 -0.51848433243E+02  0.65946985292E+02  0.12728212388E+03  0.00000000000E+00 0.  1.
         -3    1    6    6    0  503  0.14443093165E+03 -0.20101046854E+03  0.22983311373E+03  0.33777028088E+03  0.00000000000E+00 0. -1.
<mgrwt>
<rscale>  0 0.89850752E+03</rscale>
<asrwt>0</asrwt>
<pdfrwt beam="1">  1        1 0.18376303E+00 0.89850752E+03</pdfrwt>
<pdfrwt beam="2">  1       -1 0.11260679E+00 0.89850752E+03</pdfrwt>
<totfact> 0.79041686E+00</totfact>
</mgrwt>
</event>
<event>
12    1  0.1444206E-007  0.6122218E+03  0.7818608E-02  0.9880369E-01
          1   -1    0    0  501    0  0.00000000000E+00  0.00000000000E+00  0.79412539067E+03  0.79412539067E+03  0.00000000000E+00 0. -1.
         -1   -1    0    0    0  501 -0.00000000000E+00 -0.00000000000E+00 -0.54446840893E+03  0.54446840893E+03  0.00000000000E+00 0.  1.
         23    2    1    2    0    0  0.91853505314E+01 -0.50879750041E+03  0.18523276266E+03  0.54924566661E+03  0.91653471481E+02 0.  0.
    5000000    2    1    2    0    0 -0.91853505314E+01  0.50879750041E+03  0.64424219076E+02  0.78934813298E+03  0.59996727239E+03 0.  0.
         23    2    4    4    0    0  0.93659930317E+02 -0.71063289409E+02 -0.90619521527E+02  0.17416807548E+03  0.91106790004E+02 0.  0.
         23    2    4    4    0    0 -0.10284528085E+03  0.57986078982E+03  0.15504374060E+03  0.61518005750E+03  0.87133542820E+02 0.  0.
          3    1    3    3  502    0 -0.34710873510E+02 -0.25317304947E+03  0.11701373793E+03  0.28105809468E+03  0.00000000000E+00 0. -1.
         -3    1    3    3    0  502  0.43896224042E+02 -0.25562445094E+03  0.68219024736E+02  0.26818757193E+03  0.00000000000E+00 0.  1.
         11    1    5    5    0    0  0.85855882640E+02 -0.71249263312E+02 -0.10789772347E+03  0.15520827567E+03  0.00000000000E+00 0. -1.
        -11    1    5    5    0    0  0.78040476764E+01  0.18597390256E+00  0.17278201941E+02  0.18959799808E+02  0.00000000000E+00 0.  1.
          1    1    6    6  503    0 -0.95760303322E+02  0.44850784448E+03  0.85974881316E+02  0.46660583202E+03  0.00000000000E+00 0. -1.
         -1    1    6    6    0  503 -0.70849775266E+01  0.13135294534E+03  0.69068859286E+02  0.14857422549E+03  0.00000000000E+00 0.  1.
<mgrwt>
<rscale>  0 0.61222180E+03</rscale>
<asrwt>0</asrwt>
<pdfrwt beam="1">  1        1 0.12217314E+00 0.61222180E+03</pdfrwt>
<pdfrwt beam="2">  1       -1 0.83764371E-01 0.61222180E+03</pdfrwt>
<totfact> 0.32926543E+01</totfact>
</mgrwt>
</event>
<event>
12    1  0.1444206E-007  0.6177118E+03  0.7818608E-02  0.9869326E-01
         -1   -1    0    0    0  501 -0.00000000000E+00  0.00000000000E+00  0.30752383868E+03  0.30752383868E+03  0.00000000000E+00 0.  1.
          1   -1    0    0  501    0  0.00000000000E+00 -0.00000000000E+00 -0.18902692085E+04  0.18902692085E+04  0.00000000000E+00 0. -1.
         23    2    1    2    0    0 -0.28688508303E+03 -0.48419588191E+03 -0.11125784328E+04  0.12502492185E+04  0.92431792591E+02 0.  0.
    5000000    2    1    2    0    0  0.28688508303E+03  0.48419588191E+03 -0.47016693709E+03  0.94754382875E+03  0.60002804579E+03 0.  0.
         23    2    4    4    0    0  0.33209724517E+03  0.27770349584E+03 -0.22088902782E+02  0.44248978202E+03  0.88890245361E+02 0.  0.
         23    2    4    4    0    0 -0.45212162136E+02  0.20649238608E+03 -0.44807803430E+03  0.50505404672E+03  0.98093935453E+02 0.  0.
          2    1    3    3  502    0 -0.18207273206E+03 -0.34722532432E+03 -0.68618112240E+03  0.79029136295E+03  0.00000000000E+00 0. -1.
         -2    1    3    3    0  502 -0.10481235097E+03 -0.13697055760E+03 -0.42639731038E+03  0.45995785553E+03  0.00000000000E+00 0.  1.
         13    1    5    5    0    0  0.18031437333E+03  0.20376413172E+03  0.94112232665E+00  0.27209186007E+03  0.00000000000E+00 0. -1.
        -13    1    5    5    0    0  0.15178287184E+03  0.73939364118E+02 -0.23030025109E+02  0.17039792196E+03  0.00000000000E+00 0.  1.
          3    1    6    6  503    0 -0.54525920601E+02  0.52517280121E+02 -0.18801054807E+03  0.20267981378E+03  0.00000000000E+00 0. -1.
         -3    1    6    6    0  503  0.93137584646E+01  0.15397510596E+03 -0.26006748623E+03  0.30237423294E+03  0.00000000000E+00 0.  1.
<mgrwt>
<rscale>  0 0.61771182E+03</rscale>
<asrwt>0</asrwt>
<pdfrwt beam="1">  1        1 0.29081065E+00 0.61771182E+03</pdfrwt>
<pdfrwt beam="2">  1       -1 0.47311360E-01 0.61771182E+03</pdfrwt>
<totfact> 0.16762116E+01</totfact>
</mgrwt>
</event>
<event>
12    1  0.1444206E-007  0.4702581E+03  0.7818608E-02  0.1021847E+00
         -2   -1    0    0    0  501 -0.00000000000E+00  0.00000000000E+00  0.58452325772E+03  0.58452325772E+03  0.00000000000E+00 0.  1.
          2   -1    0    0  501    0  0.00000000000E+00 -0.00000000000E+00 -0.23870879357E+04  0.23870879357E+04  0.00000000000E+00 0. -1.
         23    2    1    2    0    0  0.30191508243E+03  0.34160142620E+02  0.48927045880E+03  0.58311722376E+03  0.91216678601E+02 0.  0.
    5000000    2    1    2    0    0 -0.30191508243E+03 -0.34160142620E+02 -0.22918351368E+04  0.23884939697E+04  0.60006292719E+03 0.  0.
         23    2    4    4    0    0  0.49693836322E+02 -0.20332520414E+03 -0.46872906952E+03  0.52152307426E+03  0.92025867905E+02 0.  0.
         23    2    4    4    0    0 -0.35160891875E+03  0.16916506152E+03 -0.18231060673E+04  0.18669708954E+04  0.98076205176E+02 0.  0.
          3    1    3    3  502    0  0.27032429395E+03  0.23573208238E+01  0.39396549363E+03  0.47779660006E+03  0.00000000000E+00 0. -1.
         -3    1    3    3    0  502  0.31590788481E+02  0.31802821796E+02  0.95304965168E+02  0.10532062370E+03  0.00000000000E+00 0.  1.
         11    1    5    5    0    0 -0.18309756362E+02 -0.11156910200E+03 -0.26176419186E+03  0.28513751742E+03  0.00000000000E+00 0. -1.
        -11    1    5    5    0    0  0.68003592684E+02 -0.91756102143E+02 -0.20696487766E+03  0.23638555684E+03  0.00000000000E+00 0.  1.
          3    1    6    6  503    0 -0.24083359462E+02 -0.84208439356E+01 -0.20186454274E+03  0.20347042151E+03  0.00000000000E+00 0. -1.
         -3    1    6    6    0  503 -0.32752555929E+03  0.17758590546E+03 -0.16212415245E+04  0.16635004739E+04  0.00000000000E+00 0.  1.
<mgrwt>
<rscale>  0 0.47025811E+03</rscale>
<asrwt>0</asrwt>
<pdfrwt beam="1">  1        2 0.36724429E+00 0.47025811E+03</pdfrwt>
<pdfrwt beam="2">  1       -2 0.89926656E-01 0.47025811E+03</pdfrwt>
<totfact> 0.47743636E+00</totfact>
</mgrwt>
</event>
<event>
12    1  0.1444206E-007  0.6718047E+03  0.7818608E-02  0.9766703E-01
         -1   -1    0    0    0  501 -0.00000000000E+00  0.00000000000E+00  0.16539275074E+04  0.16539275074E+04  0.00000000000E+00 0.  1.
          1   -1    0    0  501    0  0.00000000000E+00 -0.00000000000E+00 -0.79081882574E+03  0.79081882574E+03  0.00000000000E+00 0. -1.
         23    2    1    2    0    0  0.49183259433E+03  0.25938410841E+03 -0.56560949381E+03  0.79840085532E+03  0.91380576417E+02 0.  0.
    5000000    2    1    2    0    0 -0.49183259433E+03 -0.25938410841E+03  0.14287181755E+04  0.16463454778E+04  0.60003199157E+03 0.  0.
         23    2    4    4    0    0 -0.53733508080E+03 -0.37486552483E+03  0.11748592821E+04  0.13488309908E+04  0.98982616097E+02 0.  0.
         23    2    4    4    0    0  0.45502486471E+02  0.11548141641E+03  0.25385889337E+03  0.29751448702E+03  0.93081138943E+02 0.  0.
          1    1    3    3  502    0  0.62624123495E+02  0.28185343316E+02 -0.11818938090E+03  0.13669280954E+03  0.00000000000E+00 0. -1.
         -1    1    3    3    0  502  0.42920847083E+03  0.23119876510E+03 -0.44742011291E+03  0.66170804578E+03  0.00000000000E+00 0.  1.
         11    1    5    5    0    0 -0.34384478047E+03 -0.27130634874E+03  0.85893766201E+03  0.96416299200E+03  0.00000000000E+00 0. -1.
        -11    1    5    5    0    0 -0.19349030033E+03 -0.10355917609E+03  0.31592162010E+03  0.38466799883E+03  0.00000000000E+00 0.  1.
          4    1    6    6  503    0  0.50789888159E+02  0.84912482368E+02  0.10043507508E+03  0.14098562589E+03  0.00000000000E+00 0. -1.
         -4    1    6    6    0  503 -0.52874016880E+01  0.30568934045E+02  0.15342381830E+03  0.15652886113E+03  0.00000000000E+00 0.  1.
<mgrwt>
<rscale>  0 0.67180473E+03</rscale>
<asrwt>0</asrwt>
<pdfrwt beam="1">  1        1 0.12166443E+00 0.67180473E+03</pdfrwt>
<pdfrwt beam="2">  1       -1 0.25445039E+00 0.67180473E+03</pdfrwt>
<totfact> 0.15635230E+00</totfact>
</mgrwt>
</event>
<event>
12    1  0.1444206E-007  0.5007561E+03  0.7818608E-02  0.1013582E+00
         -2   -1    0    0    0  501 -0.00000000000E+00  0.00000000000E+00  0.13321754146E+04  0.13321754146E+04  0.00000000000E+00 0.  1.
          2   -1    0    0  501    0  0.00000000000E+00 -0.00000000000E+00 -0.74304800330E+03  0.74304800330E+03  0.00000000000E+00 0. -1.
         23    2    1    2    0    0 -0.33661081089E+03  0.13032164004E+02 -0.60390177017E+03  0.69797902691E+03  0.94872012116E+02 0.  0.
    5000000    2    1    2    0    0  0.33661081089E+03 -0.13032164004E+02  0.11930291815E+04  0.13772443910E+04  0.60000567442E+03 0.  0.
         23    2    4    4    0    0  0.14962027542E+02 -0.24904663908E+03  0.33943504585E+03  0.43065135619E+03  0.89422310023E+02 0.  0.
         23    2    4    4    0    0  0.32164878334E+03  0.23601447508E+03  0.85359413561E+03  0.94659303478E+03  0.90855120245E+02 0.  0.
          1    1    3    3  502    0 -0.10031535131E+03  0.39004151378E+02 -0.24365068889E+03  0.26636469686E+03  0.00000000000E+00 0. -1.
         -1    1    3    3    0  502 -0.23629545957E+03 -0.25971987374E+02 -0.36025108128E+03  0.43161433005E+03  0.00000000000E+00 0.  1.
         13    1    5    5    0    0  0.12231387779E+02 -0.12789284269E+03  0.10186912179E+03  0.16396189812E+03  0.00000000000E+00 0. -1.
        -13    1    5    5    0    0  0.27306397631E+01 -0.12115379639E+03  0.23756592406E+03  0.26668945807E+03  0.00000000000E+00 0.  1.
          3    1    6    6  503    0  0.11572090663E+03  0.13283158752E+03  0.31723266377E+03  0.36286653447E+03  0.00000000000E+00 0. -1.
         -3    1    6    6    0  503  0.20592787671E+03  0.10318288756E+03  0.53636147183E+03  0.58372650031E+03  0.00000000000E+00 0.  1.
<mgrwt>
<rscale>  0 0.50075612E+03</rscale>
<asrwt>0</asrwt>
<pdfrwt beam="1">  1        2 0.11431508E+00 0.50075612E+03</pdfrwt>
<pdfrwt beam="2">  1       -2 0.20495006E+00 0.50075612E+03</pdfrwt>
<totfact> 0.49867475E+00</totfact>
</mgrwt>
</event>
<event>
12    1  0.1444206E-007  0.3870771E+03  0.7818608E-02  0.1048349E+00
         -2   -1    0    0    0  501 -0.00000000000E+00  0.00000000000E+00  0.50956748323E+03  0.50956748323E+03  0.00000000000E+00 0.  1.
          2   -1    0    0  501    0  0.00000000000E+00 -0.00000000000E+00 -0.17997529497E+04  0.17997529497E+04  0.00000000000E+00 0. -1.
         23    2    1    2    0    0 -0.54168082480E+02 -0.21537137838E+03  0.41973640375E+03  0.48371898825E+03  0.92121654169E+02 0.  0.
    5000000    2    1    2    0    0  0.54168082480E+02  0.21537137838E+03 -0.17099218702E+04  0.18256014447E+04  0.59972395381E+03 0.  0.
         23    2    4    4    0    0  0.21705609464E+03 -0.32354157366E+02 -0.12457204370E+04  0.12683720988E+04  0.93745582905E+02 0.  0.
         23    2    4    4    0    0 -0.16288801216E+03  0.24772553575E+03 -0.46420143327E+03  0.55722934586E+03  0.84386774225E+02 0.  0.
          3    1    3    3  502    0  0.21392922979E+02 -0.29463380264E+02  0.97807107203E+02  0.10436464032E+03  0.00000000000E+00 0. -1.
         -3    1    3    3    0  502 -0.75561005458E+02 -0.18590799812E+03  0.32192929655E+03  0.37935434792E+03  0.00000000000E+00 0.  1.
         11    1    5    5    0    0  0.24868137629E+02  0.27758080460E+02 -0.19559894530E+03  0.19911776089E+03  0.00000000000E+00 0. -1.
        -11    1    5    5    0    0  0.19218795701E+03 -0.60112237826E+02 -0.10501214917E+04  0.10692543379E+04  0.00000000000E+00 0.  1.
          1    1    6    6  503    0 -0.14482785052E+03  0.19644690927E+03 -0.42538857742E+03  0.49043035821E+03  0.00000000000E+00 0. -1.
         -1    1    6    6    0  503 -0.18060161643E+02  0.51278626476E+02 -0.38812855846E+02  0.66798987648E+02  0.00000000000E+00 0.  1.
<mgrwt>
<rscale>  0 0.38707714E+03</rscale>
<asrwt>0</asrwt>
<pdfrwt beam="1">  1        2 0.27688507E+00 0.38707714E+03</pdfrwt>
<pdfrwt beam="2">  1       -2 0.78394997E-01 0.38707714E+03</pdfrwt>
<totfact> 0.13810542E+01</totfact>
</mgrwt>
</event>
<event>
12    1  0.1444206E-007  0.1111101E+04  0.7818608E-02  0.9194439E-01
          2   -1    0    0  501    0  0.00000000000E+00  0.00000000000E+00  0.17428946693E+04  0.17428946693E+04  0.00000000000E+00 0. -1.
         -2   -1    0    0    0  501 -0.00000000000E+00 -0.00000000000E+00 -0.11066198606E+04  0.11066198606E+04  0.00000000000E+00 0.  1.
         23    2    1    2    0    0 -0.17217620857E+02 -0.10451742111E+04  0.11345115328E+04  0.15453806759E+04  0.91648444965E+02 0.  0.
    5000000    2    1    2    0    0  0.17217620857E+02  0.10451742111E+04 -0.49823672412E+03  0.13041338540E+04  0.59986639993E+03 0.  0.
         23    2    4    4    0    0 -0.50224603412E+01 -0.57528254374E+02 -0.36665960587E+02  0.10486239569E+03  0.79479583569E+02 0.  0.
         23    2    4    4    0    0  0.22240081198E+02  0.11027024655E+04 -0.46157076353E+03  0.11992714583E+04  0.93579443842E+02 0.  0.
          4    1    3    3  502    0 -0.82279125825E+00 -0.10135032132E+04  0.10908990302E+04  0.14890433621E+04  0.00000000000E+00 0. -1.
         -4    1    3    3    0  502 -0.16394829599E+02 -0.31670997913E+02  0.43612502607E+02  0.56337313834E+02  0.00000000000E+00 0.  1.
         11    1    5    5    0    0 -0.14026334523E+02 -0.72874274688E+01 -0.49725167541E+02  0.52176977166E+02  0.00000000000E+00 0. -1.
        -11    1    5    5    0    0  0.90038741822E+01 -0.50240826905E+02  0.13059206954E+02  0.52685418520E+02  0.00000000000E+00 0.  1.
          2    1    6    6  503    0  0.50172587999E+02  0.91953301278E+03 -0.40001520262E+03  0.10040270975E+04  0.00000000000E+00 0. -1.
         -2    1    6    6    0  503 -0.27932506801E+02  0.18316945270E+03 -0.61555560906E+02  0.19524436078E+03  0.00000000000E+00 0.  1.
<mgrwt>
<rscale>  0 0.11111010E+04</rscale>
<asrwt>0</asrwt>
<pdfrwt beam="1">  1        2 0.26813764E+00 0.11111010E+04</pdfrwt>
<pdfrwt beam="2">  1       -2 0.17024921E+00 0.11111010E+04</pdfrwt>
<totfact> 0.19327034E+00</totfact>
</mgrwt>
</event>
<event>
12    1  0.1444206E-007  0.5517183E+03  0.7818608E-02  0.1001097E+00
         -1   -1    0    0    0  501 -0.00000000000E+00  0.00000000000E+00  0.37318605964E+03  0.37318605964E+03  0.00000000000E+00 0.  1.
          1   -1    0    0  501    0  0.00000000000E+00 -0.00000000000E+00 -0.10132086626E+04  0.10132086626E+04  0.00000000000E+00 0. -1.
         23    2    1    2    0    0  0.32740086157E+03  0.32264012529E+03 -0.30706820881E+03  0.56043733440E+03  0.92255874221E+02 0.  0.
    5000000    2    1    2    0    0 -0.32740086157E+03 -0.32264012529E+03 -0.33295439418E+03  0.82595738786E+03  0.60004916745E+03 0.  0.
         23    2    4    4    0    0 -0.38325901813E+03 -0.10545036014E+03 -0.40274227726E+03  0.57384345032E+03  0.95329482125E+02 0.  0.
         23    2    4    4    0    0  0.55858156556E+02 -0.21718976515E+03  0.69787883077E+02  0.25211393754E+03  0.91649119681E+02 0.  0.
          1    1    3    3  502    0  0.20735204881E+03  0.16630870985E+03 -0.13186277773E+03  0.29671746034E+03  0.00000000000E+00 0. -1.
         -1    1    3    3    0  502  0.12004881276E+03  0.15633141544E+03 -0.17520543107E+03  0.26371987406E+03  0.00000000000E+00 0.  1.
         11    1    5    5    0    0 -0.27930002335E+03 -0.88414727789E+02 -0.34874456988E+03  0.45546508336E+03  0.00000000000E+00 0. -1.
        -11    1    5    5    0    0 -0.10395899478E+03 -0.17035632351E+02 -0.53997707372E+02  0.11837836697E+03  0.00000000000E+00 0.  1.
          3    1    6    6  503    0 -0.25500705004E+01  0.86126494713E+01  0.35283348758E+01  0.96503749911E+01  0.00000000000E+00 0. -1.
         -3    1    6    6    0  503  0.58408227056E+02 -0.22580241462E+03  0.66259548202E+02  0.24246356255E+03  0.00000000000E+00 0.  1.
<mgrwt>
<rscale>  0 0.55171832E+03</rscale>
<asrwt>0</asrwt>
<pdfrwt beam="1">  1        1 0.15587826E+00 0.55171832E+03</pdfrwt>
<pdfrwt beam="2">  1       -1 0.57413240E-01 0.55171832E+03</pdfrwt>
<totfact> 0.47603008E+01</totfact>
</mgrwt>
</event>
<event>
12    1  0.1444206E-007  0.4569872E+03  0.7818608E-02  0.1025659E+00
         -2   -1    0    0    0  501 -0.00000000000E+00  0.00000000000E+00  0.21842405529E+03  0.21842405529E+03  0.00000000000E+00 0.  1.
          2   -1    0    0  501    0  0.00000000000E+00 -0.00000000000E+00 -0.14259408170E+04  0.14259408170E+04  0.00000000000E+00 0. -1.
         23    2    1    2    0    0 -0.26265939533E+03  0.25396139990E+03 -0.23341736786E+03  0.44342520466E+03  0.93037056659E+02 0.  0.
    5000000    2    1    2    0    0  0.26265939533E+03 -0.25396139990E+03 -0.97409939386E+03  0.12009396676E+04  0.59991674891E+03 0.  0.
         23    2    4    4    0    0 -0.10141737691E+03 -0.56186617316E+02 -0.65093570946E+03  0.66761394556E+03  0.92458975524E+02 0.  0.
         23    2    4    4    0    0  0.36407677224E+03 -0.19777478258E+03 -0.32316368440E+03  0.53332572208E+03  0.91295116034E+02 0.  0.
          3    1    3    3  502    0 -0.17697836338E+03  0.21580218467E+03 -0.14493148601E+03  0.31447902895E+03  0.00000000000E+00 0. -1.
         -3    1    3    3    0  502 -0.85681031950E+02  0.38159215234E+02 -0.88485881845E+02  0.12894617571E+03  0.00000000000E+00 0.  1.
         13    1    5    5    0    0 -0.49727741425E+02 -0.44013117948E+02 -0.54582890972E+03  0.54985380012E+03  0.00000000000E+00 0.  1.
        -13    1    5    5    0    0 -0.51689635486E+02 -0.12173499368E+02 -0.10510679974E+03  0.11776014545E+03  0.00000000000E+00 0. -1.
          4    1    6    6  503    0  0.22020578836E+03 -0.75574138962E+02 -0.14844074674E+03  0.27610993282E+03  0.00000000000E+00 0. -1.
         -4    1    6    6    0  503  0.14387098388E+03 -0.12220064362E+03 -0.17472293766E+03  0.25721578927E+03  0.00000000000E+00 0.  1.
<mgrwt>
<rscale>  0 0.45698725E+03</rscale>
<asrwt>0</asrwt>
<pdfrwt beam="1">  1        2 0.21937552E+00 0.45698725E+03</pdfrwt>
<pdfrwt beam="2">  1       -2 0.33603700E-01 0.45698725E+03</pdfrwt>
<totfact> 0.12143685E+02</totfact>
</mgrwt>
</event>
<event>
12    1  0.1444206E-007  0.3853446E+03  0.7818608E-02  0.1048976E+00
          2   -1    0    0  501    0  0.00000000000E+00  0.00000000000E+00  0.30748111615E+03  0.30748111615E+03  0.00000000000E+00 0. -1.
         -2   -1    0    0    0  501 -0.00000000000E+00 -0.00000000000E+00 -0.75282725286E+03  0.75282725286E+03  0.00000000000E+00 0.  1.
         23    2    1    2    0    0  0.20572536439E+03  0.56354209944E+02  0.68340238418E+02  0.24219882479E+03  0.92147490540E+02 0.  0.
    5000000    2    1    2    0    0 -0.20572536439E+03 -0.56354209944E+02 -0.51368637512E+03  0.81810954421E+03  0.59994234041E+03 0.  0.
         23    2    4    4    0    0 -0.11939071853E+03  0.22096759738E+03 -0.66657138988E+02  0.27690700111E+03  0.95673874815E+02 0.  0.
         23    2    4    4    0    0 -0.86334645857E+02 -0.27732180733E+03 -0.44702923613E+03  0.54120254310E+03  0.93295223940E+02 0.  0.
          3    1    3    3  502    0  0.12226785481E+02 -0.13802791137E+02  0.26307619663E+02  0.32126347111E+02  0.00000000000E+00 0. -1.
         -3    1    3    3    0  502  0.19349857891E+03  0.70157001081E+02  0.42032618755E+02  0.21007247768E+03  0.00000000000E+00 0.  1.
         11    1    5    5    0    0 -0.21443386811E+02  0.84255294253E+02 -0.65283548903E+02  0.10872311256E+03  0.00000000000E+00 0. -1.
        -11    1    5    5    0    0 -0.97947331721E+02  0.13671230313E+03 -0.13735900848E+01  0.16818388855E+03  0.00000000000E+00 0.  1.
          3    1    6    6  503    0 -0.49053210752E+02 -0.19251485377E+03 -0.37303763740E+03  0.42264082307E+03  0.00000000000E+00 0. -1.
         -3    1    6    6    0  503 -0.37281435104E+02 -0.84806953551E+02 -0.73991598734E+02  0.11856172003E+03  0.00000000000E+00 0.  1.
<mgrwt>
<rscale>  0 0.38534455E+03</rscale>
<asrwt>0</asrwt>
<pdfrwt beam="1">  1        2 0.47304788E-01 0.38534455E+03</pdfrwt>
<pdfrwt beam="2">  1       -2 0.11581958E+00 0.38534455E+03</pdfrwt>
<totfact> 0.64190012E+01</totfact>
</mgrwt>
</event>
<event>
12    1  0.1444206E-007  0.9686684E+03  0.7818608E-02  0.9343592E-01
          2   -1    0    0  501    0  0.00000000000E+00  0.00000000000E+00  0.35984445148E+04  0.35984445148E+04  0.00000000000E+00 0. -1.
         -2   -1    0    0    0  501 -0.00000000000E+00 -0.00000000000E+00 -0.44430277422E+03  0.44430277422E+03  0.00000000000E+00 0.  1.
         23    2    1    2    0    0 -0.68964308645E+03 -0.56294524276E+03  0.27561834540E+04  0.28978382424E+04  0.91675042983E+02 0.  0.
    5000000    2    1    2    0    0  0.68964308645E+03  0.56294524276E+03  0.39795828650E+03  0.11449090466E+04  0.59994249241E+03 0.  0.
         23    2    4    4    0    0 -0.52793480891E+02  0.17904579104E+03 -0.14150555898E+02  0.20856060938E+03  0.91938798323E+02 0.  0.
         23    2    4    4    0    0  0.74243656734E+03  0.38389945172E+03  0.41210884240E+03  0.93634843724E+03  0.91235148827E+02 0.  0.
          2    1    3    3  502    0 -0.87890913940E+02 -0.10496807906E+03  0.49322795974E+03  0.51187589379E+03  0.00000000000E+00 0. -1.
         -2    1    3    3    0  502 -0.60175217251E+03 -0.45797716370E+03  0.22629554943E+04  0.23859623486E+04  0.00000000000E+00 0.  1.
         13    1    5    5    0    0 -0.63380098230E+02  0.57024724224E+02 -0.11699965733E+02  0.86056639620E+02  0.00000000000E+00 0.  1.
        -13    1    5    5    0    0  0.10586617339E+02  0.12202106682E+03 -0.24505901649E+01  0.12250396976E+03  0.00000000000E+00 0. -1.
          1    1    6    6  503    0  0.37473448040E+03  0.21260157736E+03  0.16495977298E+03  0.46134270147E+03  0.00000000000E+00 0. -1.
         -1    1    6    6    0  503  0.36770208695E+03  0.17129787435E+03  0.24714906942E+03  0.47500573577E+03  0.00000000000E+00 0.  1.
<mgrwt>
<rscale>  0 0.96866843E+03</rscale>
<asrwt>0</asrwt>
<pdfrwt beam="1">  1        2 0.55360683E+00 0.96866843E+03</pdfrwt>
<pdfrwt beam="2">  1       -2 0.68354275E-01 0.96866843E+03</pdfrwt>
<totfact> 0.14162948E+00</totfact>
</mgrwt>
</event>
<event>
12    1  0.1444206E-007  0.4447989E+03  0.7818608E-02  0.1029284E+00
         -4   -1    0    0    0  501 -0.00000000000E+00  0.00000000000E+00  0.15367072827E+03  0.15367072827E+03  0.00000000000E+00 0.  1.
          4   -1    0    0  501    0  0.00000000000E+00 -0.00000000000E+00 -0.21122250432E+04  0.21122250432E+04  0.00000000000E+00 0. -1.
         23    2    1    2    0    0 -0.16212099890E+03  0.33831830344E+03 -0.10177496986E+04  0.10886624670E+04  0.92892547669E+02 0.  0.
    5000000    2    1    2    0    0  0.16212099890E+03 -0.33831830344E+03 -0.94080461636E+03  0.11772333045E+04  0.60001869489E+03 0.  0.
         23    2    4    4    0    0 -0.16312463545E+02 -0.31695928934E+03 -0.91369149309E+03  0.97179875078E+03  0.93975421821E+02 0.  0.
         23    2    4    4    0    0  0.17843346245E+03 -0.21359014099E+02 -0.27113123275E+02  0.20543455368E+03  0.95778527796E+02 0.  0.
          2    1    3    3  502    0 -0.14728094930E+02  0.99768502518E+02 -0.19665755910E+03  0.22100874740E+03  0.00000000000E+00 0. -1.
         -2    1    3    3    0  502 -0.14739290397E+03  0.23854980092E+03 -0.82109213945E+03  0.86765371960E+03  0.00000000000E+00 0.  1.
         11    1    5    5    0    0  0.31214632676E+02 -0.15518573854E+03 -0.36662431866E+03  0.39933739841E+03  0.00000000000E+00 0.  1.
        -11    1    5    5    0    0 -0.47527096221E+02 -0.16177355080E+03 -0.54706717443E+03  0.57246135236E+03  0.00000000000E+00 0. -1.
          2    1    6    6  503    0  0.99898800739E+02  0.54389584992E+00  0.31806665067E+02  0.10484145246E+03  0.00000000000E+00 0. -1.
         -2    1    6    6    0  503  0.78534661709E+02 -0.21902909949E+02 -0.58919788342E+02  0.10059310122E+03  0.00000000000E+00 0.  1.
<mgrwt>
<rscale>  0 0.44479893E+03</rscale>
<asrwt>0</asrwt>
<pdfrwt beam="1">  1        4 0.32495768E+00 0.44479893E+03</pdfrwt>
<pdfrwt beam="2">  1       -4 0.23641652E-01 0.44479893E+03</pdfrwt>
<totfact> 0.76145761E-01</totfact>
</mgrwt>
</event>
<event>
12    1  0.1444206E-007  0.8621853E+03  0.7818608E-02  0.9474127E-01
         -2   -1    0    0    0  501 -0.00000000000E+00  0.00000000000E+00  0.61024118428E+03  0.61024118428E+03  0.00000000000E+00 0.  1.
          2   -1    0    0  501    0  0.00000000000E+00 -0.00000000000E+00 -0.16153599949E+04  0.16153599949E+04  0.00000000000E+00 0. -1.
         23    2    1    2    0    0  0.20560363145E+03 -0.79006420686E+03 -0.31567488327E+02  0.82055104503E+03  0.76375434244E+02 0.  0.
    5000000    2    1    2    0    0 -0.20560363145E+03  0.79006420686E+03 -0.97355132227E+03  0.14050501341E+04  0.59990782464E+03 0.  0.
         23    2    4    4    0    0  0.70399103330E+02  0.68635556451E+02  0.29337521853E+02  0.13591705586E+03  0.89139679864E+02 0.  0.
         23    2    4    4    0    0 -0.27600273478E+03  0.72142865041E+03 -0.10028888441E+04  0.12691330783E+04  0.90972135401E+02 0.  0.
          2    1    3    3  502    0  0.88724622506E+02 -0.39189528883E+03 -0.51519611758E+02  0.40510276035E+03  0.00000000000E+00 0. -1.
         -2    1    3    3    0  502  0.11687900894E+03 -0.39816891803E+03  0.19952123430E+02  0.41544828468E+03  0.00000000000E+00 0.  1.
         13    1    5    5    0    0  0.31672744768E+02 -0.17198510312E+02 -0.34513175047E+01  0.36205843597E+02  0.00000000000E+00 0. -1.
        -13    1    5    5    0    0  0.38726358562E+02  0.85834066763E+02  0.32788839357E+02  0.99711212263E+02  0.00000000000E+00 0.  1.
          1    1    6    6  503    0 -0.12692888427E+03  0.45174381088E+03 -0.58585130527E+03  0.75060320025E+03  0.00000000000E+00 0. -1.
         -1    1    6    6    0  503 -0.14907385051E+03  0.26968483953E+03 -0.41703753885E+03  0.51852987801E+03  0.00000000000E+00 0.  1.
<mgrwt>
<rscale>  0 0.86218526E+03</rscale>
<asrwt>0</asrwt>
<pdfrwt beam="1">  1        2 0.24851692E+00 0.86218526E+03</pdfrwt>
<pdfrwt beam="2">  1       -2 0.93883259E-01 0.86218526E+03</pdfrwt>
<totfact> 0.10602187E+01</totfact>
</mgrwt>
</event>
<event>
12    1  0.1444206E-007  0.3363682E+03  0.7818608E-02  0.1068353E+00
         -2   -1    0    0    0  501 -0.00000000000E+00  0.00000000000E+00  0.47299612970E+03  0.47299612970E+03  0.00000000000E+00 0.  1.
          2   -1    0    0  501    0  0.00000000000E+00 -0.00000000000E+00 -0.63057538701E+03  0.63057538701E+03  0.00000000000E+00 0. -1.
         23    2    1    2    0    0  0.26928496295E+03 -0.10599398601E+03 -0.29434659191E+03  0.42260031829E+03  0.90564874567E+02 0.  0.
    5000000    2    1    2    0    0 -0.26928496295E+03  0.10599398601E+03  0.13676733461E+03  0.68097119842E+03  0.60105519956E+03 0.  0.
         23    2    4    4    0    0 -0.37334822508E+02 -0.47817619443E+02  0.31838260935E+03  0.33678790343E+03  0.91532465591E+02 0.  0.
         23    2    4    4    0    0 -0.23195014044E+03  0.15381160546E+03 -0.18161527474E+03  0.34418329499E+03  0.89549734263E+02 0.  0.
          2    1    3    3  502    0  0.12597430122E+03 -0.93356241625E+02 -0.12595849725E+03  0.20112298588E+03  0.00000000000E+00 0. -1.
         -2    1    3    3    0  502  0.14331066173E+03 -0.12637744388E+02 -0.16838809466E+03  0.22147733241E+03  0.00000000000E+00 0.  1.
         13    1    5    5    0    0 -0.98617072647E+01 -0.51808186651E+02  0.74203438596E+02  0.91035662099E+02  0.00000000000E+00 0. -1.
        -13    1    5    5    0    0 -0.27473115243E+02  0.39905672080E+01  0.24417917075E+03  0.24575224133E+03  0.00000000000E+00 0.  1.
          3    1    6    6  503    0 -0.15462623185E+03  0.50773270017E+02 -0.88739827508E+02  0.18536977507E+03  0.00000000000E+00 0. -1.
         -3    1    6    6    0  503 -0.77323908596E+02  0.10303833544E+03 -0.92875447236E+02  0.15881351992E+03  0.00000000000E+00 0.  1.
<mgrwt>
<rscale>  0 0.33636816E+03</rscale>
<asrwt>0</asrwt>
<pdfrwt beam="1">  1        2 0.97011598E-01 0.33636816E+03</pdfrwt>
<pdfrwt beam="2">  1       -2 0.72768636E-01 0.33636816E+03</pdfrwt>
<totfact> 0.83682559E+01</totfact>
</mgrwt>
</event>
<event>
12    1  0.1444206E-007  0.4873699E+03  0.7818608E-02  0.1017129E+00
          1   -1    0    0  501    0  0.00000000000E+00  0.00000000000E+00  0.14619225116E+04  0.14619225116E+04  0.00000000000E+00 0. -1.
         -1   -1    0    0    0  501 -0.00000000000E+00 -0.00000000000E+00 -0.34203214501E+03  0.34203214501E+03  0.00000000000E+00 0.  1.
         23    2    1    2    0    0 -0.23952609941E+03  0.24246350255E+03 -0.13023303981E+03  0.37584353151E+03  0.90202068449E+02 0.  0.
    5000000    2    1    2    0    0  0.23952609941E+03 -0.24246350255E+03  0.12501234064E+04  0.14281111251E+04  0.60044279663E+03 0.  0.
         23    2    4    4    0    0  0.38670266681E+03 -0.25711507497E+03  0.11197227235E+04  0.12157440871E+04  0.92777116900E+02 0.  0.
         23    2    4    4    0    0 -0.14717656740E+03  0.14651572414E+02  0.13040068283E+03  0.21236703797E+03  0.78865773113E+02 0.  0.
          1    1    3    3  502    0 -0.20413420537E+03  0.15136061896E+03 -0.83372458999E+02  0.26745425346E+03  0.00000000000E+00 0.  1.
         -1    1    3    3    0  502 -0.35391894040E+02  0.91102883595E+02 -0.46860580810E+02  0.10838927805E+03  0.00000000000E+00 0. -1.
         13    1    5    5    0    0  0.29727012840E+03 -0.21912652100E+03  0.79105713174E+03  0.87301623532E+03  0.00000000000E+00 0. -1.
        -13    1    5    5    0    0  0.89432538403E+02 -0.37988553966E+02  0.32866559178E+03  0.34272785177E+03  0.00000000000E+00 0.  1.
          1    1    6    6  503    0 -0.11887621166E+03  0.32130973025E+02  0.65594293528E+02  0.13952263067E+03  0.00000000000E+00 0. -1.
         -1    1    6    6    0  503 -0.28300355740E+02 -0.17479400611E+02  0.64806389301E+02  0.72844407300E+02  0.00000000000E+00 0.  1.
<mgrwt>
<rscale>  0 0.48736991E+03</rscale>
<asrwt>0</asrwt>
<pdfrwt beam="1">  1        1 0.22491115E+00 0.48736991E+03</pdfrwt>
<pdfrwt beam="2">  1       -1 0.52620331E-01 0.48736991E+03</pdfrwt>
<totfact> 0.27208851E+01</totfact>
</mgrwt>
</event>
<event>
12    1  0.1444206E-007  0.2677575E+03  0.7818608E-02  0.1102570E+00
         -2   -1    0    0    0  501 -0.00000000000E+00  0.00000000000E+00  0.39135046998E+03  0.39135046998E+03  0.00000000000E+00 0.  1.
          2   -1    0    0  501    0  0.00000000000E+00 -0.00000000000E+00 -0.51016680742E+03  0.51016680742E+03  0.00000000000E+00 0. -1.
         23    2    1    2    0    0 -0.12643778668E+03  0.72571166704E+02  0.14965963705E+03  0.22839565778E+03  0.92268528722E+02 0.  0.
    5000000    2    1    2    0    0  0.12643778668E+03 -0.72571166704E+02 -0.26847597449E+03  0.67312161962E+03  0.59980019822E+03 0.  0.
         23    2    4    4    0    0  0.22757662410E+03 -0.71150697065E+02 -0.40627410416E+03  0.47952379370E+03  0.89615174423E+02 0.  0.
         23    2    4    4    0    0 -0.10113883742E+03 -0.14204696382E+01  0.13779812967E+03  0.19359782592E+03  0.90888456326E+02 0.  0.
          3    1    3    3  502    0 -0.10455931461E+03  0.61945576585E+02  0.60076649014E+02  0.13556957065E+03  0.00000000000E+00 0. -1.
         -3    1    3    3    0  502 -0.21878472073E+02  0.10625590119E+02  0.89582988040E+02  0.92826087129E+02  0.00000000000E+00 0.  1.
         13    1    5    5    0    0  0.12890125254E+00 -0.21903122906E+02 -0.31268184083E+02  0.38176730405E+02  0.00000000000E+00 0. -1.
        -13    1    5    5    0    0  0.22744772285E+03 -0.49247574159E+02 -0.37500592008E+03  0.44134706330E+03  0.00000000000E+00 0.  1.
          1    1    6    6  503    0  0.22593538060E+01 -0.28151323014E+02  0.20074582619E+02  0.34649538733E+02  0.00000000000E+00 0. -1.
         -1    1    6    6    0  503 -0.10339819122E+03  0.26730853376E+02  0.11772354705E+03  0.15894828719E+03  0.00000000000E+00 0.  1.
<mgrwt>
<rscale>  0 0.26775746E+03</rscale>
<asrwt>0</asrwt>
<pdfrwt beam="1">  1        2 0.78487201E-01 0.26775746E+03</pdfrwt>
<pdfrwt beam="2">  1       -2 0.60207765E-01 0.26775746E+03</pdfrwt>
<totfact> 0.16139325E+02</totfact>
</mgrwt>
</event>
<event>
12    1  0.1444206E-007  0.6429018E+03  0.7818608E-02  0.9820190E-01
         -2   -1    0    0    0  501 -0.00000000000E+00  0.00000000000E+00  0.16302090998E+04  0.16302090998E+04  0.00000000000E+00 0.  1.
          2   -1    0    0  501    0  0.00000000000E+00 -0.00000000000E+00 -0.31055062983E+03  0.31055062983E+03  0.00000000000E+00 0. -1.
         23    2    1    2    0    0  0.13543259103E+03  0.54164618570E+03  0.76005942827E+03  0.94738400161E+03  0.90130654027E+02 0.  0.
    5000000    2    1    2    0    0 -0.13543259103E+03 -0.54164618570E+03  0.55959904170E+03  0.99337572804E+03  0.60159926228E+03 0.  0.
         23    2    4    4    0    0 -0.27299632405E+03 -0.15113671622E+03  0.44952248016E+03  0.55479817303E+03  0.91439885697E+02 0.  0.
         23    2    4    4    0    0  0.13756373302E+03 -0.39050946948E+03  0.11007656154E+03  0.43857755501E+03  0.93872232087E+02 0.  0.
          3    1    3    3  502    0  0.99703351387E+02  0.37917299226E+03  0.59854245309E+03  0.71551798334E+03  0.00000000000E+00 0. -1.
         -3    1    3    3    0  502  0.35729239642E+02  0.16247319345E+03  0.16151697519E+03  0.23186601827E+03  0.00000000000E+00 0.  1.
         13    1    5    5    0    0 -0.16856255872E+03 -0.80134072444E+02  0.19083674532E+03  0.26693345450E+03  0.00000000000E+00 0.  1.
        -13    1    5    5    0    0 -0.10443376533E+03 -0.71002643777E+02  0.25868573484E+03  0.28786471853E+03  0.00000000000E+00 0. -1.
          3    1    6    6  503    0  0.11109842933E+03 -0.33548654928E+03  0.12648134514E+03  0.37535532022E+03  0.00000000000E+00 0. -1.
         -3    1    6    6    0  503  0.26465303685E+02 -0.55022920205E+02 -0.16404783597E+02  0.63222234790E+02  0.00000000000E+00 0.  1.
<mgrwt>
<rscale>  0 0.64290178E+03</rscale>
<asrwt>0</asrwt>
<pdfrwt beam="1">  1        2 0.47777021E-01 0.64290178E+03</pdfrwt>
<pdfrwt beam="2">  1       -2 0.25080140E+00 0.64290178E+03</pdfrwt>
<totfact> 0.69892905E+00</totfact>
</mgrwt>
</event>
<event>
12    1  0.1444206E-007  0.6856948E+03  0.7818608E-02  0.9742014E-01
         -1   -1    0    0    0  501 -0.00000000000E+00  0.00000000000E+00  0.97934067318E+03  0.97934067318E+03  0.00000000000E+00 0.  1.
          1   -1    0    0  501    0  0.00000000000E+00 -0.00000000000E+00 -0.54777271284E+03  0.54777271284E+03  0.00000000000E+00 0. -1.
         23    2    1    2    0    0 -0.36755304690E+03  0.46449311106E+03  0.31280033309E+03  0.67574460788E+03  0.89093401488E+02 0.  0.
    5000000    2    1    2    0    0  0.36755304690E+03 -0.46449311106E+03  0.11876762725E+03  0.85136877814E+03  0.59989495297E+03 0.  0.
         23    2    4    4    0    0  0.46494686841E+03 -0.44904967797E+03  0.21389894265E+03  0.68675503681E+03  0.89769255204E+02 0.  0.
         23    2    4    4    0    0 -0.97393821513E+02 -0.15443433095E+02 -0.95131315400E+02  0.16461374133E+03  0.91234097635E+02 0.  0.
          4    1    3    3  502    0 -0.92860883302E+02  0.65367464261E+02  0.45070876080E+02  0.12217787403E+03  0.00000000000E+00 0.  1.
         -4    1    3    3    0  502 -0.27469216360E+03  0.39912564680E+03  0.26772945701E+03  0.55356673385E+03  0.00000000000E+00 0. -1.
         11    1    5    5    0    0  0.32032856775E+03 -0.25975259058E+03  0.16108311561E+03  0.44275226681E+03  0.00000000000E+00 0.  1.
        -11    1    5    5    0    0  0.14461830067E+03 -0.18929708738E+03  0.52815827039E+02  0.24400276999E+03  0.00000000000E+00 0. -1.
          3    1    6    6  503    0 -0.14023522477E+02  0.26030045536E+02 -0.56565510401E+02  0.63826949013E+02  0.00000000000E+00 0.  1.
         -3    1    6    6    0  503 -0.83370299036E+02 -0.41473478631E+02 -0.38565804998E+02  0.10078679232E+03  0.00000000000E+00 0. -1.
<mgrwt>
<rscale>  0 0.68569477E+03</rscale>
<asrwt>0</asrwt>
<pdfrwt beam="1">  1        1 0.84272725E-01 0.68569477E+03</pdfrwt>
<pdfrwt beam="2">  1       -1 0.15066780E+00 0.68569477E+03</pdfrwt>
<totfact> 0.13941086E+01</totfact>
</mgrwt>
</event>
<event>
12    1  0.1444206E-007  0.8058919E+03  0.7818608E-02  0.9551528E-01
         -2   -1    0    0    0  501 -0.00000000000E+00  0.00000000000E+00  0.42452198717E+03  0.42452198717E+03  0.00000000000E+00 0.  1.
          2   -1    0    0  501    0  0.00000000000E+00 -0.00000000000E+00 -0.17235117426E+04  0.17235117426E+04  0.00000000000E+00 0. -1.
         23    2    1    2    0    0  0.10694697745E+03  0.69481685907E+03 -0.88914356202E+03  0.11370985866E+04  0.90602417669E+02 0.  0.
    5000000    2    1    2    0    0 -0.10694697745E+03 -0.69481685907E+03 -0.40984619340E+03  0.10109351432E+04  0.59983984346E+03 0.  0.
         23    2    4    4    0    0 -0.27113929368E+03 -0.67209913752E+03 -0.28293973789E+03  0.78326842263E+03  0.90668403450E+02 0.  0.
         23    2    4    4    0    0  0.16419231623E+03 -0.22717721556E+02 -0.12690645550E+03  0.22766672053E+03  0.90838734077E+02 0.  0.
          3    1    3    3  502    0  0.91639815508E+02  0.42662523327E+03 -0.60654530208E+03  0.74719753006E+03  0.00000000000E+00 0. -1.
         -3    1    3    3    0  502  0.15307161946E+02  0.26819162580E+03 -0.28259825994E+03  0.38990105652E+03  0.00000000000E+00 0.  1.
         13    1    5    5    0    0 -0.10203504292E+02 -0.92026884668E+00 -0.33331141916E+01  0.10773488052E+02  0.00000000000E+00 0. -1.
        -13    1    5    5    0    0 -0.26093578939E+03 -0.67117886867E+03 -0.27960662370E+03  0.77249493458E+03  0.00000000000E+00 0.  1.
          2    1    6    6  503    0  0.68397676929E+01 -0.17732411774E+02  0.77278524637E+01  0.20516835846E+02  0.00000000000E+00 0. -1.
         -2    1    6    6    0  503  0.15735254853E+03 -0.49853097825E+01 -0.13463430797E+03  0.20714988469E+03  0.00000000000E+00 0.  1.
<mgrwt>
<rscale>  0 0.80589191E+03</rscale>
<asrwt>0</asrwt>
<pdfrwt beam="1">  1        2 0.26515565E+00 0.80589191E+03</pdfrwt>
<pdfrwt beam="2">  1       -2 0.65311075E-01 0.80589191E+03</pdfrwt>
<totfact> 0.20994248E+01</totfact>
</mgrwt>
</event>
<event>
12    1  0.1444206E-007  0.1229954E+04  0.7818608E-02  0.9087035E-01
          2   -1    0    0  501    0  0.00000000000E+00  0.00000000000E+00  0.16616897159E+04  0.16616897159E+04  0.00000000000E+00 0. -1.
         -2   -1    0    0    0  501 -0.00000000000E+00 -0.00000000000E+00 -0.98813258529E+03  0.98813258529E+03  0.00000000000E+00 0.  1.
         23    2    1    2    0    0 -0.11189376196E+04 -0.36790464651E+03  0.60226953622E+03  0.13259880846E+04  0.90225166069E+02 0.  0.
    5000000    2    1    2    0    0  0.11189376196E+04  0.36790464651E+03  0.71287594357E+02  0.13238342166E+04  0.60006656828E+03 0.  0.
         23    2    4    4    0    0  0.29952860027E+03 -0.10848517425E+03 -0.12053544845E+03  0.35223040285E+03  0.89727626460E+02 0.  0.
         23    2    4    4    0    0  0.81940901937E+03  0.47638982076E+03  0.19182304280E+03  0.97160381374E+03  0.94018555585E+02 0.  0.
          4    1    3    3  502    0 -0.88564606280E+03 -0.25890665377E+03  0.49425868071E+03  0.10467536708E+04  0.00000000000E+00 0. -1.
         -4    1    3    3    0  502 -0.23329155683E+03 -0.10899799273E+03  0.10801085551E+03  0.27923441374E+03  0.00000000000E+00 0.  1.
         11    1    5    5    0    0  0.12981446800E+02  0.13618349462E+02 -0.12321374806E+02  0.22489857274E+02  0.00000000000E+00 0. -1.
        -11    1    5    5    0    0  0.28654715347E+03 -0.12210352371E+03 -0.10821407364E+03  0.32974054558E+03  0.00000000000E+00 0.  1.
          4    1    6    6  503    0  0.28751051565E+03  0.13731173224E+03  0.27712567593E+02  0.31981994126E+03  0.00000000000E+00 0. -1.
         -4    1    6    6    0  503  0.53189850371E+03  0.33907808851E+03  0.16411047521E+03  0.65178387249E+03  0.00000000000E+00 0.  1.
<mgrwt>
<rscale>  0 0.12299537E+04</rscale>
<asrwt>0</asrwt>
<pdfrwt beam="1">  1        2 0.25564457E+00 0.12299537E+04</pdfrwt>
<pdfrwt beam="2">  1       -2 0.15202040E+00 0.12299537E+04</pdfrwt>
<totfact> 0.28861322E+00</totfact>
</mgrwt>
</event>
<event>
12    1  0.1444206E-007  0.5549428E+03  0.7818608E-02  0.1000356E+00
         -2   -1    0    0    0  501 -0.00000000000E+00  0.00000000000E+00  0.11520089278E+03  0.11520089278E+03  0.00000000000E+00 0.  1.
          2   -1    0    0  501    0  0.00000000000E+00 -0.00000000000E+00 -0.29106126323E+04  0.29106126323E+04  0.00000000000E+00 0. -1.
         23    2    1    2    0    0  0.32516495231E+03 -0.21802899617E+03 -0.65350680258E+03  0.76725906850E+03  0.91358895530E+02 0.  0.
    5000000    2    1    2    0    0 -0.32516495231E+03  0.21802899617E+03 -0.21419049369E+04  0.22585544565E+04  0.60003548649E+03 0.  0.
         23    2    4    4    0    0  0.12042207538E+03  0.20392930480E+03 -0.91943782003E+03  0.95419090108E+03  0.95003858977E+02 0.  0.
         23    2    4    4    0    0 -0.44558702769E+03  0.14099691370E+02 -0.12224671169E+04  0.13043635555E+04  0.90508742238E+02 0.  0.
          1    1    3    3  502    0  0.21800483408E+03 -0.19418122391E+03 -0.48761790094E+03  0.56833412067E+03  0.00000000000E+00 0. -1.
         -1    1    3    3    0  502  0.10716011823E+03 -0.23847772259E+02 -0.16588890163E+03  0.19892494782E+03  0.00000000000E+00 0.  1.
         13    1    5    5    0    0  0.61415472626E+02  0.18153519822E+03 -0.71451460573E+03  0.73976888977E+03  0.00000000000E+00 0. -1.
        -13    1    5    5    0    0  0.59006602753E+02  0.22394106581E+02 -0.20492321430E+03  0.21442201131E+03  0.00000000000E+00 0.  1.
          2    1    6    6  503    0 -0.21488419910E+03  0.48115346295E+02 -0.54089025290E+03  0.58399706442E+03  0.00000000000E+00 0. -1.
         -2    1    6    6    0  503 -0.23070282859E+03 -0.34015654925E+02 -0.68157686399E+03  0.72036649105E+03  0.00000000000E+00 0.  1.
<mgrwt>
<rscale>  0 0.55494280E+03</rscale>
<asrwt>0</asrwt>
<pdfrwt beam="1">  1        2 0.44778655E+00 0.55494280E+03</pdfrwt>
<pdfrwt beam="2">  1       -2 0.17723215E-01 0.55494280E+03</pdfrwt>
<totfact> 0.56634842E+01</totfact>
</mgrwt>
</event>
<event>
12    1  0.1444206E-007  0.1036055E+04  0.7818608E-02  0.9269860E-01
          2   -1    0    0  501    0  0.00000000000E+00  0.00000000000E+00  0.18876094641E+04  0.18876094641E+04  0.00000000000E+00 0.  1.
         -2   -1    0    0    0  501 -0.00000000000E+00 -0.00000000000E+00 -0.76982450130E+03  0.76982450130E+03  0.00000000000E+00 0. -1.
         23    2    1    2    0    0 -0.95631730485E+03 -0.19046154570E+02 -0.13603469873E+03  0.97014947078E+03  0.88198712311E+02 0.  0.
    5000000    2    1    2    0    0  0.95631730485E+03  0.19046154570E+02  0.12538196616E+04  0.16872844947E+04  0.59996639791E+03 0.  0.
         23    2    4    4    0    0  0.38139312005E+03 -0.26799390035E+03  0.45682985109E+03  0.65937436287E+03  0.93806156071E+02 0.  0.
         23    2    4    4    0    0  0.57492418480E+03  0.28704005492E+03  0.79698981047E+03  0.10279101318E+04  0.92068830951E+02 0.  0.
          4    1    3    3  502    0 -0.19286941096E+03  0.44134021833E+00  0.77930721424E+01  0.19302729454E+03  0.00000000000E+00 0. -1.
         -4    1    3    3    0  502 -0.76344789389E+03 -0.19487494788E+02 -0.14382777087E+03  0.77712217625E+03  0.00000000000E+00 0.  1.
         11    1    5    5    0    0  0.20176138012E+03 -0.16481987510E+03  0.19453134141E+03  0.32513949087E+03  0.00000000000E+00 0.  1.
        -11    1    5    5    0    0  0.17963173993E+03 -0.10317402525E+03  0.26229850968E+03  0.33423487199E+03  0.00000000000E+00 0. -1.
          1    1    6    6  503    0  0.99960556873E+02  0.86917000053E+02  0.19006052736E+03  0.23166717914E+03  0.00000000000E+00 0. -1.
         -1    1    6    6    0  503  0.47496362793E+03  0.20012305486E+03  0.60692928311E+03  0.79624295265E+03  0.00000000000E+00 0.  1.
<mgrwt>
<rscale>  0 0.10360555E+04</rscale>
<asrwt>0</asrwt>
<pdfrwt beam="1">  1        2 0.29040145E+00 0.10360555E+04</pdfrwt>
<pdfrwt beam="2">  1       -2 0.11843454E+00 0.10360555E+04</pdfrwt>
<totfact> 0.42044085E+00</totfact>
</mgrwt>
</event>
<event>
12    1  0.1444206E-007  0.1504188E+04  0.7818608E-02  0.8881673E-01
          2   -1    0    0  501    0  0.00000000000E+00  0.00000000000E+00  0.24193961565E+04  0.24193961565E+04  0.00000000000E+00 0. -1.
         -2   -1    0    0    0  501 -0.00000000000E+00 -0.00000000000E+00 -0.10264999504E+04  0.10264999504E+04  0.00000000000E+00 0.  1.
         23    2    1    2    0    0 -0.14251728415E+04 -0.46803585918E+03  0.92228249408E+03  0.17631599002E+04  0.89177581281E+02 0.  0.
    5000000    2    1    2    0    0  0.14251728415E+04  0.46803585918E+03  0.47061371198E+03  0.16827362067E+04  0.59995723316E+03 0.  0.
         23    2    4    4    0    0  0.65567003695E+03  0.27725079992E+03 -0.66915204310E+02  0.72059885611E+03  0.89520184633E+02 0.  0.
         23    2    4    4    0    0  0.76950280460E+03  0.19078505926E+03  0.53752891630E+03  0.96213735057E+03  0.90760345913E+02 0.  0.
          3    1    3    3  502    0 -0.68990342551E+03 -0.27343972078E+03  0.45289355588E+03  0.86939553161E+03  0.00000000000E+00 0. -1.
         -3    1    3    3    0  502 -0.73526941604E+03 -0.19459613840E+03  0.46938893820E+03  0.89376436858E+03  0.00000000000E+00 0.  1.
         11    1    5    5    0    0  0.38761736685E+03  0.17039808237E+03  0.40446040134E+01  0.42343723074E+03  0.00000000000E+00 0.  1.
        -11    1    5    5    0    0  0.26805267010E+03  0.10685271755E+03 -0.70959808324E+02  0.29716162537E+03  0.00000000000E+00 0. -1.
          2    1    6    6  503    0  0.38716873429E+03  0.76619642854E+02  0.31710828818E+03  0.50628832192E+03  0.00000000000E+00 0. -1.
         -2    1    6    6    0  503  0.38233407031E+03  0.11416541641E+03  0.22042062812E+03  0.45584902865E+03  0.00000000000E+00 0.  1.
<mgrwt>
<rscale>  0 0.15041879E+04</rscale>
<asrwt>0</asrwt>
<pdfrwt beam="1">  1        2 0.37221479E+00 0.15041879E+04</pdfrwt>
<pdfrwt beam="2">  1       -2 0.15792307E+00 0.15041879E+04</pdfrwt>
<totfact> 0.95386713E-01</totfact>
</mgrwt>
</event>
<event>
12    1  0.1444206E-007  0.1638633E+04  0.7818608E-02  0.8797160E-01
         -2   -1    0    0    0  501 -0.00000000000E+00  0.00000000000E+00  0.16447664140E+04  0.16447664140E+04  0.00000000000E+00 0.  1.
          2   -1    0    0  501    0  0.00000000000E+00 -0.00000000000E+00 -0.19566022683E+04  0.19566022683E+04  0.00000000000E+00 0. -1.
         23    2    1    2    0    0 -0.10386505403E+04  0.12018618487E+04 -0.87083298169E+03  0.18137186904E+04  0.89210748820E+02 0.  0.
    5000000    2    1    2    0    0  0.10386505403E+04 -0.12018618487E+04  0.55899712737E+03  0.17876499919E+04  0.59995654591E+03 0.  0.
         23    2    4    4    0    0  0.90887290377E+03 -0.64394921916E+03  0.39170854085E+03  0.11841339458E+04  0.89538084134E+02 0.  0.
         23    2    4    4    0    0  0.12977763657E+03 -0.55791262950E+03  0.16728858652E+03  0.60351604613E+03  0.90207592003E+02 0.  0.
          1    1    3    3  502    0 -0.41858044680E+03  0.43468306136E+03 -0.29804620292E+03  0.67304568445E+03  0.00000000000E+00 0. -1.
         -1    1    3    3    0  502 -0.62007009354E+03  0.76717878729E+03 -0.57278677877E+03  0.11406730059E+04  0.00000000000E+00 0.  1.
         11    1    5    5    0    0  0.10417611419E+03 -0.73770035780E+02  0.76223681122E+02  0.14867659705E+03  0.00000000000E+00 0.  1.
        -11    1    5    5    0    0  0.80469678958E+03 -0.57017918338E+03  0.31548485972E+03  0.10354573487E+04  0.00000000000E+00 0. -1.
          3    1    6    6  503    0  0.22141429316E+02 -0.15002619009E+03  0.56403665508E+01  0.15175610149E+03  0.00000000000E+00 0. -1.
         -3    1    6    6    0  503  0.10763620725E+03 -0.40788643941E+03  0.16164821997E+03  0.45175994465E+03  0.00000000000E+00 0.  1.
<mgrwt>
<rscale>  0 0.16386330E+04</rscale>
<asrwt>0</asrwt>
<pdfrwt beam="1">  1        2 0.30101574E+00 0.16386330E+04</pdfrwt>
<pdfrwt beam="2">  1       -2 0.25304098E+00 0.16386330E+04</pdfrwt>
<totfact> 0.40181858E-01</totfact>
</mgrwt>
</event>
<event>
12    1  0.1444206E-007  0.5192202E+03  0.7818608E-02  0.1008880E+00
          1   -1    0    0  501    0  0.00000000000E+00  0.00000000000E+00  0.11959252250E+04  0.11959252250E+04  0.00000000000E+00 0. -1.
         -1   -1    0    0    0  501 -0.00000000000E+00 -0.00000000000E+00 -0.25859133178E+03  0.25859133178E+03  0.00000000000E+00 0.  1.
         23    2    1    2    0    0  0.36081531354E+03 -0.45197622126E+02  0.14252074897E+03  0.39443061471E+03  0.55071139458E+02 0.  0.
    5000000    2    1    2    0    0 -0.36081531354E+03  0.45197622126E+02  0.79481314426E+03  0.10600859421E+04  0.59985311100E+03 0.  0.
         23    2    4    4    0    0 -0.30667255794E+03 -0.23554498818E+03  0.50662354183E+03  0.64401266315E+03  0.92495393951E+02 0.  0.
         23    2    4    4    0    0 -0.54142755597E+02  0.28074261031E+03  0.28818960242E+03  0.41607327893E+03  0.91191421019E+02 0.  0.
          2    1    3    3  502    0  0.18813073212E+03 -0.83411018257E+01  0.98188843724E+02  0.21237654150E+03  0.00000000000E+00 0. -1.
         -2    1    3    3    0  502  0.17268458142E+03 -0.36856520300E+02  0.44331905245E+02  0.18205407321E+03  0.00000000000E+00 0.  1.
         13    1    5    5    0    0 -0.17919627389E+03 -0.13510695382E+03  0.21789417681E+03  0.31279876252E+03  0.00000000000E+00 0.  1.
        -13    1    5    5    0    0 -0.12747628406E+03 -0.10043803436E+03  0.28872936502E+03  0.33121390063E+03  0.00000000000E+00 0. -1.
          3    1    6    6  503    0 -0.14828149037E+02  0.13756751839E+03  0.78317811318E+02  0.15899174724E+03  0.00000000000E+00 0.  1.
         -3    1    6    6    0  503 -0.39314606560E+02  0.14317509192E+03  0.20987179111E+03  0.25708153169E+03  0.00000000000E+00 0. -1.
<mgrwt>
<rscale>  0 0.51922020E+03</rscale>
<asrwt>0</asrwt>
<pdfrwt beam="1">  1        1 0.18398849E+00 0.51922020E+03</pdfrwt>
<pdfrwt beam="2">  1       -1 0.39783283E-01 0.51922020E+03</pdfrwt>
<totfact> 0.69528460E+01</totfact>
</mgrwt>
</event>
<event>
12    1  0.1444206E-007  0.6424221E+03  0.7818608E-02  0.9821103E-01
         -1   -1    0    0    0  501 -0.00000000000E+00  0.00000000000E+00  0.45992775827E+03  0.45992775827E+03  0.00000000000E+00 0.  1.
          1   -1    0    0  501    0  0.00000000000E+00 -0.00000000000E+00 -0.98568847244E+03  0.98568847244E+03  0.00000000000E+00 0. -1.
         23    2    1    2    0    0  0.29229381014E+03  0.43616688575E+03 -0.10173177864E+03  0.54251361115E+03  0.91073815241E+02 0.  0.
    5000000    2    1    2    0    0 -0.29229381014E+03 -0.43616688575E+03 -0.42402893553E+03  0.90310261956E+03  0.60009714182E+03 0.  0.
         23    2    4    4    0    0  0.11401462193E+03 -0.30939307796E+03 -0.28757516711E+03  0.44665600198E+03  0.89881570210E+02 0.  0.
         23    2    4    4    0    0 -0.40630843207E+03 -0.12677380779E+03 -0.13645376842E+03  0.45644661758E+03  0.92551301824E+02 0.  0.
          4    1    3    3  502    0  0.16088019858E+03  0.23404165921E+03 -0.10098446979E+03  0.30142295812E+03  0.00000000000E+00 0. -1.
         -4    1    3    3    0  502  0.13141361156E+03  0.20212522654E+03 -0.74730884485E+00  0.24109065302E+03  0.00000000000E+00 0.  1.
         13    1    5    5    0    0  0.11654331071E+02 -0.26376517421E+02 -0.68751621987E+02  0.74554205984E+02  0.00000000000E+00 0.  1.
        -13    1    5    5    0    0  0.10236029086E+03 -0.28301656054E+03 -0.21882354513E+03  0.37210179600E+03  0.00000000000E+00 0. -1.
          1    1    6    6  503    0 -0.10088839381E+03 -0.59799051755E+02 -0.53644838541E+01  0.11740175588E+03  0.00000000000E+00 0. -1.
         -1    1    6    6    0  503 -0.30542003826E+03 -0.66974756037E+02 -0.13108928457E+03  0.33904486170E+03  0.00000000000E+00 0.  1.
<mgrwt>
<rscale>  0 0.64242210E+03</rscale>
<asrwt>0</asrwt>
<pdfrwt beam="1">  1        1 0.15164438E+00 0.64242210E+03</pdfrwt>
<pdfrwt beam="2">  1       -1 0.70758117E-01 0.64242210E+03</pdfrwt>
<totfact> 0.32575332E+01</totfact>
</mgrwt>
</event>
<event>
12    1  0.1444206E-007  0.9317976E+03  0.7818608E-02  0.9386683E-01
          2   -1    0    0  501    0  0.00000000000E+00  0.00000000000E+00  0.80111500023E+03  0.80111500023E+03  0.00000000000E+00 0.  1.
         -2   -1    0    0    0  501 -0.00000000000E+00 -0.00000000000E+00 -0.19255401458E+04  0.19255401458E+04  0.00000000000E+00 0. -1.
         23    2    1    2    0    0  0.31968020490E+03 -0.78189788835E+03 -0.14153160394E+04  0.16507566633E+04  0.91204872270E+02 0.  0.
    5000000    2    1    2    0    0 -0.31968020490E+03  0.78189788835E+03  0.29089089381E+03  0.10758984828E+04  0.59948335419E+03 0.  0.
         23    2    4    4    0    0  0.16332963599E+03  0.22790590666E+03  0.68160232403E+02  0.30259935577E+03  0.91120143482E+02 0.  0.
         23    2    4    4    0    0 -0.48300984089E+03  0.55399198169E+03  0.22273066141E+03  0.77329912701E+03  0.90426600803E+02 0.  0.
          1    1    3    3  502    0  0.25851026936E+03 -0.63331124227E+03 -0.10712476558E+04  0.12710162190E+04  0.00000000000E+00 0. -1.
         -1    1    3    3    0  502  0.61169935538E+02 -0.14858664608E+03 -0.34406838356E+03  0.37974044421E+03  0.00000000000E+00 0.  1.
         11    1    5    5    0    0  0.99366972973E+01  0.37687748580E+02  0.41266309380E+02  0.56762775092E+02  0.00000000000E+00 0. -1.
        -11    1    5    5    0    0  0.15339293870E+03  0.19021815808E+03  0.26893923023E+02  0.24583658068E+03  0.00000000000E+00 0.  1.
          1    1    6    6  503    0 -0.36144143553E+03  0.43279800958E+03  0.13192178760E+03  0.57910049772E+03  0.00000000000E+00 0. -1.
         -1    1    6    6    0  503 -0.12156840536E+03  0.12119397212E+03  0.90808873806E+02  0.19419862930E+03  0.00000000000E+00 0.  1.
<mgrwt>
<rscale>  0 0.93179763E+03</rscale>
<asrwt>0</asrwt>
<pdfrwt beam="1">  1        2 0.12324846E+00 0.93179763E+03</pdfrwt>
<pdfrwt beam="2">  1       -2 0.29623694E+00 0.93179763E+03</pdfrwt>
<totfact> 0.11677568E+00</totfact>
</mgrwt>
</event>
<event>
12    1  0.1444206E-007  0.4024776E+03  0.7818608E-02  0.1042925E+00
          2   -1    0    0  501    0  0.00000000000E+00  0.00000000000E+00  0.58258866968E+03  0.58258866968E+03  0.00000000000E+00 0. -1.
         -2   -1    0    0    0  501 -0.00000000000E+00 -0.00000000000E+00 -0.32504902528E+03  0.32504902528E+03  0.00000000000E+00 0.  1.
         23    2    1    2    0    0  0.91275383728E+01 -0.19222783979E+03  0.17170011674E+03  0.27162719349E+03  0.85238182802E+02 0.  0.
    5000000    2    1    2    0    0 -0.91275383728E+01  0.19222783979E+03  0.85839527666E+02  0.63601050148E+03  0.60008839277E+03 0.  0.
         23    2    4    4    0    0 -0.28229760672E+03  0.62390999060E+02  0.10035727370E+03  0.31970918846E+03  0.92508417326E+02 0.  0.
         23    2    4    4    0    0  0.27317006835E+03  0.12983684073E+03 -0.14517746030E+02  0.31630131302E+03  0.91412604265E+02 0.  0.
          4    1    3    3  502    0 -0.36507177603E+01 -0.49718968401E+02  0.23254734541E+01  0.49907027419E+02  0.00000000000E+00 0. -1.
         -4    1    3    3    0  502  0.12778256133E+02 -0.14250887139E+03  0.16937464328E+03  0.22172016607E+03  0.00000000000E+00 0.  1.
         11    1    5    5    0    0 -0.17041601350E+03  0.82070713024E+02  0.73879774902E+02  0.20306511451E+03  0.00000000000E+00 0.  1.
        -11    1    5    5    0    0 -0.11188159322E+03 -0.19679713964E+02  0.26477498794E+02  0.11664407394E+03  0.00000000000E+00 0. -1.
          3    1    6    6  503    0  0.45452496713E+02 -0.31612480904E+01 -0.25778685295E+02  0.52349437079E+02  0.00000000000E+00 0. -1.
         -3    1    6    6    0  503  0.22771757163E+03  0.13299808882E+03  0.11260939265E+02  0.26395187594E+03  0.00000000000E+00 0.  1.
<mgrwt>
<rscale>  0 0.40247759E+03</rscale>
<asrwt>0</asrwt>
<pdfrwt beam="1">  1        2 0.89629026E-01 0.40247759E+03</pdfrwt>
<pdfrwt beam="2">  1       -2 0.50007542E-01 0.40247759E+03</pdfrwt>
<totfact> 0.20016271E+02</totfact>
</mgrwt>
</event>
<event>
12    1  0.1444206E-007  0.3514462E+03  0.7818608E-02  0.1062023E+00
         -1   -1    0    0    0  501 -0.00000000000E+00  0.00000000000E+00  0.16079557557E+03  0.16079557557E+03  0.00000000000E+00 0.  1.
          1   -1    0    0  501    0  0.00000000000E+00 -0.00000000000E+00 -0.13894126855E+04  0.13894126855E+04  0.00000000000E+00 0. -1.
         23    2    1    2    0    0  0.61508473763E+02  0.12574571544E+03  0.22261558259E+02  0.15583435815E+03  0.64757184226E+02 0.  0.
    5000000    2    1    2    0    0 -0.61508473763E+02 -0.12574571544E+03 -0.12508786682E+04  0.13943739029E+04  0.59998821764E+03 0.  0.
         23    2    4    4    0    0  0.20992413649E+03 -0.16067385626E+03 -0.34440732552E+03  0.44310703488E+03  0.88561884130E+02 0.  0.
         23    2    4    4    0    0 -0.27143261025E+03  0.34928140817E+02 -0.90647134270E+03  0.95126686806E+03  0.91228954915E+02 0.  0.
          3    1    3    3  502    0  0.20651718287E+02  0.13995014486E+02  0.26992265502E+02  0.36755085302E+02  0.00000000000E+00 0. -1.
         -3    1    3    3    0  502  0.40856755476E+02  0.11175070096E+03 -0.47307072426E+01  0.11907927285E+03  0.00000000000E+00 0.  1.
         13    1    5    5    0    0  0.38624372379E+02 -0.68089499350E+02 -0.60945834940E+02  0.99208955543E+02  0.00000000000E+00 0. -1.
        -13    1    5    5    0    0  0.17129976411E+03 -0.92584356909E+02 -0.28346149058E+03  0.34389807933E+03  0.00000000000E+00 0.  1.
          1    1    6    6  503    0 -0.23889105216E+03  0.92360608175E+00 -0.70517216392E+03  0.74453849371E+03  0.00000000000E+00 0. -1.
         -1    1    6    6    0  503 -0.32541558088E+02  0.34004534736E+02 -0.20129917878E+03  0.20672837435E+03  0.00000000000E+00 0.  1.
<mgrwt>
<rscale>  0 0.35144617E+03</rscale>
<asrwt>0</asrwt>
<pdfrwt beam="1">  1        1 0.21375579E+00 0.35144617E+03</pdfrwt>
<pdfrwt beam="2">  1       -1 0.24737782E-01 0.35144617E+03</pdfrwt>
<totfact> 0.11944196E+02</totfact>
</mgrwt>
</event>
<event>
12    1  0.1444206E-007  0.6256684E+03  0.7818608E-02  0.9853538E-01
          1   -1    0    0  501    0  0.00000000000E+00  0.00000000000E+00  0.14121735236E+04  0.14121735236E+04  0.00000000000E+00 0. -1.
         -1   -1    0    0    0  501 -0.00000000000E+00 -0.00000000000E+00 -0.34941249753E+03  0.34941249753E+03  0.00000000000E+00 0.  1.
         23    2    1    2    0    0 -0.48133780547E+03 -0.23440864684E+03  0.18644823739E+03  0.57218545638E+03  0.77458082711E+02 0.  0.
    5000000    2    1    2    0    0  0.48133780547E+03  0.23440864684E+03  0.87631278872E+03  0.11894005648E+04  0.60009674483E+03 0.  0.
         23    2    4    4    0    0  0.38690179794E+03 -0.64280395220E+02  0.72598319898E+03  0.83010070124E+03  0.90501925677E+02 0.  0.
         23    2    4    4    0    0  0.94436007531E+02  0.29868904206E+03  0.15032958974E+03  0.35929986354E+03  0.91455470181E+02 0.  0.
          4    1    3    3  502    0 -0.35765425336E+03 -0.14048396159E+03  0.11396878748E+03  0.40080068978E+03  0.00000000000E+00 0. -1.
         -4    1    3    3    0  502 -0.12368355211E+03 -0.93924685247E+02  0.72479449913E+02  0.17138476659E+03  0.00000000000E+00 0.  1.
         13    1    5    5    0    0  0.11408597098E+03 -0.51835141190E+02  0.17609193073E+03  0.21612695044E+03  0.00000000000E+00 0.  1.
        -13    1    5    5    0    0  0.27281582696E+03 -0.12445254030E+02  0.54989126825E+03  0.61397375081E+03  0.00000000000E+00 0. -1.
          3    1    6    6  503    0  0.31484747595E+02  0.11261930863E+03  0.10621989962E+03  0.15797805253E+03  0.00000000000E+00 0. -1.
         -3    1    6    6    0  503  0.62951259936E+02  0.18606973343E+03  0.44109690127E+02  0.20132181101E+03  0.00000000000E+00 0.  1.
<mgrwt>
<rscale>  0 0.62566841E+03</rscale>
<asrwt>0</asrwt>
<pdfrwt beam="1">  1        1 0.21725746E+00 0.62566841E+03</pdfrwt>
<pdfrwt beam="2">  1       -1 0.53755769E-01 0.62566841E+03</pdfrwt>
<totfact> 0.27600318E+01</totfact>
</mgrwt>
</event>
<event>
12    1  0.1444206E-007  0.4993540E+03  0.7818608E-02  0.1013948E+00
          2   -1    0    0  501    0  0.00000000000E+00  0.00000000000E+00  0.31278100370E+04  0.31278100370E+04  0.00000000000E+00 0. -1.
         -2   -1    0    0    0  501 -0.00000000000E+00 -0.00000000000E+00 -0.15511556938E+03  0.15511556938E+03  0.00000000000E+00 0.  1.
         23    2    1    2    0    0 -0.30571645319E+03 -0.15352995939E+03  0.16036549806E+03  0.38702273616E+03  0.83877930097E+02 0.  0.
    5000000    2    1    2    0    0  0.30571645319E+03  0.15352995939E+03  0.28123289696E+04  0.28959028703E+04  0.60002100175E+03 0.  0.
         23    2    4    4    0    0  0.18718864964E+03  0.35883588138E+03  0.13809519648E+04  0.14419066681E+04  0.90905060740E+02 0.  0.
         23    2    4    4    0    0  0.11852780355E+03 -0.20530592199E+03  0.14313770048E+04  0.14539962021E+04  0.95212731527E+02 0.  0.
          4    1    3    3  502    0 -0.24456104939E+03 -0.11003303493E+03  0.86643675888E+02  0.28182353030E+03  0.00000000000E+00 0. -1.
         -4    1    3    3    0  502 -0.61155403793E+02 -0.43496924456E+02  0.73721822168E+02  0.10519920586E+03  0.00000000000E+00 0.  1.
         13    1    5    5    0    0  0.55326224002E+02  0.11599017270E+03  0.59706972605E+03  0.61074296475E+03  0.00000000000E+00 0. -1.
        -13    1    5    5    0    0  0.13186242564E+03  0.24284570868E+03  0.78388223879E+03  0.83116370337E+03  0.00000000000E+00 0.  1.
          2    1    6    6  503    0  0.10239159377E+03 -0.96677195525E+02  0.66125884483E+03  0.67608710865E+03  0.00000000000E+00 0. -1.
         -2    1    6    6    0  503  0.16136209779E+02 -0.10862872647E+03  0.77011815993E+03  0.77790909349E+03  0.00000000000E+00 0.  1.
<mgrwt>
<rscale>  0 0.49935398E+03</rscale>
<asrwt>0</asrwt>
<pdfrwt beam="1">  1        2 0.48120150E+00 0.49935398E+03</pdfrwt>
<pdfrwt beam="2">  1       -2 0.23863936E-01 0.49935398E+03</pdfrwt>
<totfact> 0.25161706E+01</totfact>
</mgrwt>
</event>
<event>
12    1  0.1444206E-007  0.5902046E+03  0.7818608E-02  0.9925939E-01
         -1   -1    0    0    0  501 -0.00000000000E+00  0.00000000000E+00  0.54528175565E+03  0.54528175565E+03  0.00000000000E+00 0.  1.
          1   -1    0    0  501    0  0.00000000000E+00 -0.00000000000E+00 -0.10101233745E+04  0.10101233745E+04  0.00000000000E+00 0. -1.
         23    2    1    2    0    0 -0.52692062396E+03 -0.18779320641E+03  0.77804312284E+02  0.57199179706E+03  0.90606139764E+02 0.  0.
    5000000    2    1    2    0    0  0.52692062396E+03  0.18779320641E+03 -0.54264593110E+03  0.98341333305E+03  0.59977124369E+03 0.  0.
         23    2    4    4    0    0  0.16993456070E+03 -0.59881381466E+02 -0.49836286314E+03  0.53770700574E+03  0.91102941230E+02 0.  0.
         23    2    4    4    0    0  0.35698606326E+03  0.24767458787E+03 -0.44283067961E+02  0.44570632731E+03  0.88945990667E+02 0.  0.
          3    1    3    3  502    0 -0.20891386348E+03 -0.92258254712E+02  0.73509013239E+02  0.23991699178E+03  0.00000000000E+00 0. -1.
         -3    1    3    3    0  502 -0.31800676048E+03 -0.95534951693E+02  0.42952990452E+01  0.33207480528E+03  0.00000000000E+00 0.  1.
         11    1    5    5    0    0  0.34697548242E+02  0.23669137468E+01 -0.28947115854E+02  0.45248841433E+02  0.00000000000E+00 0. -1.
        -11    1    5    5    0    0  0.13523701246E+03 -0.62248295213E+02 -0.46941574729E+03  0.49245816431E+03  0.00000000000E+00 0.  1.
          2    1    6    6  503    0  0.53442776994E+02  0.20703908835E+02 -0.33813680057E+02  0.66544325174E+02  0.00000000000E+00 0. -1.
         -2    1    6    6    0  503  0.30354328627E+03  0.22697067904E+03 -0.10469387904E+02  0.37916200213E+03  0.00000000000E+00 0.  1.
<mgrwt>
<rscale>  0 0.59020464E+03</rscale>
<asrwt>0</asrwt>
<pdfrwt beam="1">  1        1 0.15540359E+00 0.59020464E+03</pdfrwt>
<pdfrwt beam="2">  1       -1 0.83889502E-01 0.59020464E+03</pdfrwt>
<totfact> 0.22002123E+01</totfact>
</mgrwt>
</event>
<event>
12    1  0.1444206E-007  0.9926882E+03  0.7818608E-02  0.9316601E-01
         -2   -1    0    0    0  501 -0.00000000000E+00  0.00000000000E+00  0.63690147338E+03  0.63690147338E+03  0.00000000000E+00 0.  1.
          2   -1    0    0  501    0  0.00000000000E+00 -0.00000000000E+00 -0.18425120671E+04  0.18425120671E+04  0.00000000000E+00 0. -1.
         23    2    1    2    0    0  0.94005932356E+02  0.97504604052E+03 -0.33899547783E+03  0.10405021444E+04  0.90415054872E+02 0.  0.
    5000000    2    1    2    0    0 -0.94005932356E+02 -0.97504604052E+03 -0.86661511585E+03  0.14389113960E+04  0.59991028502E+03 0.  0.
         23    2    4    4    0    0 -0.13695895509E+03 -0.41791053479E+03 -0.60112602664E+02  0.45343454018E+03  0.92641172038E+02 0.  0.
         23    2    4    4    0    0  0.42953022731E+02 -0.55713550573E+03 -0.80650251319E+03  0.98547685583E+03  0.92051049374E+02 0.  0.
          2    1    3    3  502    0  0.63037629189E+02  0.29994028046E+03 -0.80033564524E+02  0.31677008379E+03  0.00000000000E+00 0. -1.
         -2    1    3    3    0  502  0.30968303167E+02  0.67510576007E+03 -0.25896191331E+03  0.72373206066E+03  0.00000000000E+00 0.  1.
         13    1    5    5    0    0 -0.60688647002E+02 -0.27770071127E+03 -0.72462603921E+02  0.29334557416E+03  0.00000000000E+00 0. -1.
        -13    1    5    5    0    0 -0.76270308086E+02 -0.14020982352E+03  0.12350001257E+02  0.16008896601E+03  0.00000000000E+00 0.  1.
          1    1    6    6  503    0  0.40323193996E+01 -0.18343452354E+03 -0.19482672012E+03  0.26762274735E+03  0.00000000000E+00 0. -1.
         -1    1    6    6    0  503  0.38920703332E+02 -0.37370098219E+03 -0.61167579307E+03  0.71785410848E+03  0.00000000000E+00 0.  1.
<mgrwt>
<rscale>  0 0.99268822E+03</rscale>
<asrwt>0</asrwt>
<pdfrwt beam="1">  1        2 0.28346339E+00 0.99268822E+03</pdfrwt>
<pdfrwt beam="2">  1       -2 0.97984843E-01 0.99268822E+03</pdfrwt>
<totfact> 0.70801021E+00</totfact>
</mgrwt>
</event>
<event>
12    1  0.1444206E-007  0.7144673E+03  0.7818608E-02  0.9692806E-01
         -3   -1    0    0    0  501 -0.00000000000E+00  0.00000000000E+00  0.43396397407E+03  0.43396397407E+03  0.00000000000E+00 0.  1.
          3   -1    0    0  501    0  0.00000000000E+00 -0.00000000000E+00 -0.13365625966E+04  0.13365625966E+04  0.00000000000E+00 0. -1.
         23    2    1    2    0    0 -0.25759014799E+03  0.58335868553E+03 -0.44522080712E+03  0.78283849387E+03  0.89188004062E+02 0.  0.
    5000000    2    1    2    0    0  0.25759014799E+03 -0.58335868553E+03 -0.45737781541E+03  0.98768807681E+03  0.59972763044E+03 0.  0.
         23    2    4    4    0    0 -0.26605253146E+02 -0.45299479868E+03 -0.52190233402E+02  0.46739226562E+03  0.99093805932E+02 0.  0.
         23    2    4    4    0    0  0.28419540113E+03 -0.13036388685E+03 -0.40518758201E+03  0.52029581119E+03  0.93642861474E+02 0.  0.
          3    1    3    3  502    0 -0.19588119936E+03  0.35544509886E+03 -0.25182197486E+03  0.47762429753E+03  0.00000000000E+00 0. -1.
         -3    1    3    3    0  502 -0.61708948628E+02  0.22791358667E+03 -0.19339883226E+03  0.30521419634E+03  0.00000000000E+00 0.  1.
         11    1    5    5    0    0 -0.63955447619E+02 -0.31662233587E+03 -0.32914739702E+02  0.32468967175E+03  0.00000000000E+00 0. -1.
        -11    1    5    5    0    0  0.37350194473E+02 -0.13637246281E+03 -0.19275493700E+02  0.14270259387E+03  0.00000000000E+00 0.  1.
          1    1    6    6  503    0  0.19843703725E+03 -0.49120650250E+02 -0.29386684006E+03  0.35797739554E+03  0.00000000000E+00 0. -1.
         -1    1    6    6    0  503  0.85758363888E+02 -0.81243236600E+02 -0.11132074195E+03  0.16231841565E+03  0.00000000000E+00 0.  1.
<mgrwt>
<rscale>  0 0.71446734E+03</rscale>
<asrwt>0</asrwt>
<pdfrwt beam="1">  1        3 0.20562501E+00 0.71446734E+03</pdfrwt>
<pdfrwt beam="2">  1       -3 0.66763690E-01 0.71446734E+03</pdfrwt>
<totfact> 0.76866045E-01</totfact>
</mgrwt>
</event>
<event>
12    1  0.1444206E-007  0.7151775E+03  0.7818608E-02  0.9691623E-01
          1   -1    0    0  501    0  0.00000000000E+00  0.00000000000E+00  0.92925813781E+03  0.92925813781E+03  0.00000000000E+00 0. -1.
         -1   -1    0    0    0  501 -0.00000000000E+00 -0.00000000000E+00 -0.79878851876E+03  0.79878851876E+03  0.00000000000E+00 0.  1.
         23    2    1    2    0    0  0.59667451427E+03 -0.69699467340E+01 -0.40474323139E+03  0.72679009456E+03  0.91311018247E+02 0.  0.
    5000000    2    1    2    0    0 -0.59667451427E+03  0.69699467340E+01  0.53521285044E+03  0.10012565620E+04  0.59999404293E+03 0.  0.
         23    2    4    4    0    0 -0.65763726109E+03 -0.11297283284E+03  0.36083914489E+03  0.76399966989E+03  0.90779837974E+02 0.  0.
         23    2    4    4    0    0  0.60962746814E+02  0.11994277957E+03  0.17437370554E+03  0.23725689211E+03  0.88215173293E+02 0.  0.
          4    1    3    3  502    0  0.28804045518E+03 -0.45173206703E+02 -0.17385026233E+03  0.33945815079E+03  0.00000000000E+00 0. -1.
         -4    1    3    3    0  502  0.30863405909E+03  0.38203259969E+02 -0.23089296906E+03  0.38733194377E+03  0.00000000000E+00 0.  1.
         13    1    5    5    0    0 -0.25230907917E+03 -0.45626632190E+02  0.89350708560E+02  0.27152386657E+03  0.00000000000E+00 0.  1.
        -13    1    5    5    0    0 -0.40532818191E+03 -0.67346200647E+02  0.27148843633E+03  0.49247580332E+03  0.00000000000E+00 0. -1.
          1    1    6    6  503    0 -0.58941592664E+01  0.84767751142E+02  0.10030071373E+03  0.13145549027E+03  0.00000000000E+00 0. -1.
         -1    1    6    6    0  503  0.66856906080E+02  0.35175028430E+02  0.74072991809E+02  0.10580140184E+03  0.00000000000E+00 0.  1.
<mgrwt>
<rscale>  0 0.71517748E+03</rscale>
<asrwt>0</asrwt>
<pdfrwt beam="1">  1        1 0.14296279E+00 0.71517748E+03</pdfrwt>
<pdfrwt beam="2">  1       -1 0.12289054E+00 0.71517748E+03</pdfrwt>
<totfact> 0.10425366E+01</totfact>
</mgrwt>
</event>
<event>
12    1  0.1444206E-007  0.9065830E+03  0.7818608E-02  0.9417390E-01
         -1   -1    0    0    0  501 -0.00000000000E+00  0.00000000000E+00  0.47397410333E+03  0.47397410333E+03  0.00000000000E+00 0.  1.
          1   -1    0    0  501    0  0.00000000000E+00 -0.00000000000E+00 -0.20183934725E+04  0.20183934725E+04  0.00000000000E+00 0. -1.
         23    2    1    2    0    0 -0.31304201320E+03 -0.82212630386E+03 -0.80581183877E+03  0.11965862619E+04  0.92730798831E+02 0.  0.
    5000000    2    1    2    0    0  0.31304201320E+03  0.82212630386E+03 -0.73860753036E+03  0.12957813139E+04  0.59968422364E+03 0.  0.
         23    2    4    4    0    0  0.53015920873E+02  0.59732507846E+02 -0.39883951242E+03  0.41685416696E+03  0.91190895821E+02 0.  0.
         23    2    4    4    0    0  0.26002609232E+03  0.76239379601E+03 -0.33976801794E+03  0.87892714696E+03  0.90624250439E+02 0.  0.
          2    1    3    3  502    0 -0.21082514619E+02 -0.13765318238E+03 -0.15034962207E+03  0.20493384274E+03  0.00000000000E+00 0. -1.
         -2    1    3    3    0  502 -0.29195949858E+03 -0.68447312148E+03 -0.65546221670E+03  0.99165241912E+03  0.00000000000E+00 0.  1.
         13    1    5    5    0    0  0.59856997307E+02 -0.94014714103E+00 -0.18282985289E+03  0.19238112982E+03  0.00000000000E+00 0.  1.
        -13    1    5    5    0    0 -0.68410764344E+01  0.60672654987E+02 -0.21600965953E+03  0.22447303714E+03  0.00000000000E+00 0. -1.
          1    1    6    6  503    0  0.43600127854E+02  0.23084619751E+03 -0.72757920885E+02  0.24593627855E+03  0.00000000000E+00 0. -1.
         -1    1    6    6    0  503  0.21642596447E+03  0.53154759850E+03 -0.26701009705E+03  0.63299086842E+03  0.00000000000E+00 0.  1.
<mgrwt>
<rscale>  0 0.90658298E+03</rscale>
<asrwt>0</asrwt>
<pdfrwt beam="1">  1        1 0.31052208E+00 0.90658298E+03</pdfrwt>
<pdfrwt beam="2">  1       -1 0.72919092E-01 0.90658298E+03</pdfrwt>
<totfact> 0.56234239E+00</totfact>
</mgrwt>
</event>
<event>
12    1  0.1444206E-007  0.5718257E+03  0.7818608E-02  0.9965647E-01
          2   -1    0    0  501    0  0.00000000000E+00  0.00000000000E+00  0.22911132363E+04  0.22911132363E+04  0.00000000000E+00 0. -1.
         -2   -1    0    0    0  501 -0.00000000000E+00 -0.00000000000E+00 -0.16983451800E+03  0.16983451800E+03  0.00000000000E+00 0.  1.
         23    2    1    2    0    0 -0.34335614604E+03 -0.31208863288E+03  0.10199363215E+04  0.11237050855E+04  0.84559218310E+02 0.  0.
    5000000    2    1    2    0    0  0.34335614604E+03  0.31208863288E+03  0.11013423968E+04  0.13372426689E+04  0.59997510162E+03 0.  0.
         23    2    4    4    0    0  0.19391069102E+03 -0.10026669557E+03  0.68747026350E+03  0.72735643336E+03  0.93686987464E+02 0.  0.
         23    2    4    4    0    0  0.14944545501E+03  0.41235532845E+03  0.41387213333E+03  0.60988623549E+03  0.91105524391E+02 0.  0.
          3    1    3    3  502    0 -0.98095714812E+02 -0.13276587890E+03  0.41861004930E+03  0.44998213436E+03  0.00000000000E+00 0. -1.
         -3    1    3    3    0  502 -0.24526043122E+03 -0.17932275398E+03  0.60132627220E+03  0.67372295112E+03  0.00000000000E+00 0.  1.
         11    1    5    5    0    0  0.11367534749E+03 -0.24178285217E+02  0.24334777543E+03  0.26967538617E+03  0.00000000000E+00 0. -1.
        -11    1    5    5    0    0  0.80235343537E+02 -0.76088410350E+02  0.44412248808E+03  0.45768104719E+03  0.00000000000E+00 0.  1.
          2    1    6    6  503    0  0.15254048797E+03  0.30943309761E+03  0.31746973833E+03  0.46883310157E+03  0.00000000000E+00 0. -1.
         -2    1    6    6    0  503 -0.30950329589E+01  0.10292223084E+03  0.96402394993E+02  0.14105313392E+03  0.00000000000E+00 0.  1.
<mgrwt>
<rscale>  0 0.57182568E+03</rscale>
<asrwt>0</asrwt>
<pdfrwt beam="1">  1        2 0.35247894E+00 0.57182568E+03</pdfrwt>
<pdfrwt beam="2">  1       -2 0.26128389E-01 0.57182568E+03</pdfrwt>
<totfact> 0.64368631E+01</totfact>
</mgrwt>
</event>
<event>
12    1  0.1444206E-007  0.7174097E+03  0.7818608E-02  0.9687914E-01
          1   -1    0    0  501    0  0.00000000000E+00  0.00000000000E+00  0.52322804489E+03  0.52322804489E+03  0.00000000000E+00 0. -1.
         -1   -1    0    0    0  501 -0.00000000000E+00 -0.00000000000E+00 -0.11330884261E+04  0.11330884261E+04  0.00000000000E+00 0.  1.
         23    2    1    2    0    0  0.39556887458E+03 -0.47508449223E+03 -0.47305123752E+03  0.78397947240E+03  0.93093128263E+02 0.  0.
    5000000    2    1    2    0    0 -0.39556887458E+03  0.47508449223E+03 -0.13680914365E+03  0.87233699855E+03  0.60006257004E+03 0.  0.
         23    2    4    4    0    0 -0.76800585530E+02 -0.96558052445E+02 -0.14602560193E+03  0.21182431860E+03  0.91237481888E+02 0.  0.
         23    2    4    4    0    0 -0.31876828905E+03  0.57164254467E+03  0.92164582729E+01  0.66051267996E+03  0.88338192715E+02 0.  0.
          4    1    3    3  502    0  0.93623047670E+02 -0.72664993967E+02 -0.12478606461E+03  0.17209601484E+03  0.00000000000E+00 0. -1.
         -4    1    3    3    0  502  0.30194582691E+03 -0.40241949826E+03 -0.34826517291E+03  0.61188345756E+03  0.00000000000E+00 0.  1.
         13    1    5    5    0    0 -0.88779693914E+02 -0.44244156178E+02 -0.85763099342E+02  0.13112851946E+03  0.00000000000E+00 0. -1.
        -13    1    5    5    0    0  0.11979108385E+02 -0.52313896267E+02 -0.60262502583E+02  0.80695799134E+02  0.00000000000E+00 0.  1.
          3    1    6    6  503    0 -0.18652000777E+03  0.24483031568E+03  0.10233399493E+02  0.30795506043E+03  0.00000000000E+00 0. -1.
         -3    1    6    6    0  503 -0.13224828129E+03  0.32681222899E+03 -0.10169412204E+01  0.35255761953E+03  0.00000000000E+00 0.  1.
<mgrwt>
<rscale>  0 0.71740970E+03</rscale>
<asrwt>0</asrwt>
<pdfrwt beam="1">  1        1 0.80496624E-01 0.71740970E+03</pdfrwt>
<pdfrwt beam="2">  1       -1 0.17432129E+00 0.71740970E+03</pdfrwt>
<totfact> 0.98535608E+00</totfact>
</mgrwt>
</event>
<event>
12    1  0.1444206E-007  0.5596413E+03  0.7818608E-02  0.9992867E-01
         -1   -1    0    0    0  501 -0.00000000000E+00  0.00000000000E+00  0.10009983426E+04  0.10009983426E+04  0.00000000000E+00 0.  1.
          1   -1    0    0  501    0  0.00000000000E+00 -0.00000000000E+00 -0.14016991002E+04  0.14016991002E+04  0.00000000000E+00 0. -1.
         23    2    1    2    0    0 -0.14854574193E+03  0.42158137317E+03 -0.12144370612E+04  0.12972326760E+04  0.90324684260E+02 0.  0.
    5000000    2    1    2    0    0  0.14854574193E+03 -0.42158137317E+03  0.81373630351E+03  0.11054647667E+04  0.60007406807E+03 0.  0.
         23    2    4    4    0    0 -0.17362302616E+03 -0.15967519723E+03  0.92621750397E+02  0.26849131040E+03  0.88699894531E+02 0.  0.
         23    2    4    4    0    0  0.32216876809E+03 -0.26190617594E+03  0.72111455312E+03  0.83697345633E+03  0.90170991763E+02 0.  0.
          3    1    3    3  502    0 -0.84095738981E+02  0.11344435848E+03 -0.37488159055E+03  0.40059695795E+03  0.00000000000E+00 0. -1.
         -3    1    3    3    0  502 -0.64450002948E+02  0.30813701468E+03 -0.83955547063E+03  0.89663571809E+03  0.00000000000E+00 0.  1.
         13    1    5    5    0    0 -0.12099673533E+03 -0.14213023149E+03  0.10124973068E+03  0.21235046651E+03  0.00000000000E+00 0. -1.
        -13    1    5    5    0    0 -0.52626290825E+02 -0.17544965740E+02 -0.86279802794E+01  0.56140843889E+02  0.00000000000E+00 0.  1.
          4    1    6    6  503    0  0.64809758903E+02 -0.92777844617E+02  0.24598072746E+03  0.27076659983E+03  0.00000000000E+00 0. -1.
         -4    1    6    6    0  503  0.25735900918E+03 -0.16912833132E+03  0.47513382565E+03  0.56620685649E+03  0.00000000000E+00 0.  1.
<mgrwt>
<rscale>  0 0.55964127E+03</rscale>
<asrwt>0</asrwt>
<pdfrwt beam="1">  1        1 0.21564601E+00 0.55964127E+03</pdfrwt>
<pdfrwt beam="2">  1       -1 0.15399975E+00 0.55964127E+03</pdfrwt>
<totfact> 0.27058047E+00</totfact>
</mgrwt>
</event>
<event>
12    1  0.1444206E-007  0.5804070E+03  0.7818608E-02  0.9946910E-01
          2   -1    0    0  501    0  0.00000000000E+00  0.00000000000E+00  0.72839440898E+03  0.72839440898E+03  0.00000000000E+00 0. -1.
         -2   -1    0    0    0  501 -0.00000000000E+00 -0.00000000000E+00 -0.90447994866E+03  0.90447994866E+03  0.00000000000E+00 0.  1.
         23    2    1    2    0    0 -0.41035507611E+03 -0.37516799066E+03  0.34739817740E+03  0.66175011619E+03  0.89918924109E+02 0.  0.
    5000000    2    1    2    0    0  0.41035507611E+03  0.37516799066E+03 -0.52348371707E+03  0.97112424145E+03  0.59992064524E+03 0.  0.
         23    2    4    4    0    0  0.38640193808E+03  0.31750250742E+03 -0.81061338831E+02  0.51510985676E+03  0.93021093885E+02 0.  0.
         23    2    4    4    0    0  0.23953138033E+02  0.57665483236E+02 -0.44242237824E+03  0.45601438469E+03  0.91172898903E+02 0.  0.
          2    1    3    3  502    0 -0.30254360902E+03 -0.29652279194E+03  0.30402534651E+03  0.52143054458E+03  0.00000000000E+00 0. -1.
         -2    1    3    3    0  502 -0.10781146709E+03 -0.78645198716E+02  0.43372830882E+02  0.14031957160E+03  0.00000000000E+00 0.  1.
         11    1    5    5    0    0  0.25184015821E+03  0.17918803442E+03 -0.92823683912E+01  0.30922156996E+03  0.00000000000E+00 0.  1.
        -11    1    5    5    0    0  0.13456177987E+03  0.13831447300E+03 -0.71778970440E+02  0.20588828680E+03  0.00000000000E+00 0. -1.
          2    1    6    6  503    0  0.46591547079E+02  0.63069908571E+02 -0.24543020079E+03  0.25765203102E+03  0.00000000000E+00 0. -1.
         -2    1    6    6    0  503 -0.22638409046E+02 -0.54044253350E+01 -0.19699217745E+03  0.19836235367E+03  0.00000000000E+00 0.  1.
<mgrwt>
<rscale>  0 0.58040697E+03</rscale>
<asrwt>0</asrwt>
<pdfrwt beam="1">  1        2 0.11206068E+00 0.58040697E+03</pdfrwt>
<pdfrwt beam="2">  1       -2 0.13915076E+00 0.58040697E+03</pdfrwt>
<totfact> 0.14706772E+01</totfact>
</mgrwt>
</event>
<event>
12    1  0.1444206E-007  0.9870588E+03  0.7818608E-02  0.9322853E-01
          2   -1    0    0  501    0  0.00000000000E+00  0.00000000000E+00  0.20961826105E+04  0.20961826105E+04  0.00000000000E+00 0. -1.
         -2   -1    0    0    0  501 -0.00000000000E+00 -0.00000000000E+00 -0.49093624396E+03  0.49093624396E+03  0.00000000000E+00 0.  1.
         23    2    1    2    0    0  0.43145124779E+03  0.81616027962E+03  0.72767377766E+03  0.11790658837E+04  0.91757561590E+02 0.  0.
    5000000    2    1    2    0    0 -0.43145124779E+03 -0.81616027962E+03  0.87757258891E+03  0.14080529708E+04  0.60017642284E+03 0.  0.
         23    2    4    4    0    0 -0.34800924929E+03 -0.15898656535E+03  0.15842443044E+03  0.42572293885E+03  0.98765150483E+02 0.  0.
         23    2    4    4    0    0 -0.83441998492E+02 -0.65717371427E+03  0.71914815847E+03  0.98233003195E+03  0.94648613264E+02 0.  0.
          3    1    3    3  502    0  0.16012787548E+03  0.37325743436E+03  0.35956395645E+03  0.54244657580E+03  0.00000000000E+00 0. -1.
         -3    1    3    3    0  502  0.27132337230E+03  0.44290284526E+03  0.36810982121E+03  0.63661930788E+03  0.00000000000E+00 0.  1.
         11    1    5    5    0    0 -0.23316496165E+03 -0.11214648743E+03  0.55659549820E+02  0.26465207248E+03  0.00000000000E+00 0.  1.
        -11    1    5    5    0    0 -0.11484428765E+03 -0.46840077920E+02  0.10276488062E+03  0.16107086637E+03  0.00000000000E+00 0. -1.
          4    1    6    6  503    0 -0.40982268661E+02 -0.53284193883E+03  0.61440198700E+03  0.81430330943E+03  0.00000000000E+00 0.  1.
         -4    1    6    6    0  503 -0.42459729831E+02 -0.12433177545E+03  0.10474617147E+03  0.16802672252E+03  0.00000000000E+00 0. -1.
<mgrwt>
<rscale>  0 0.98705881E+03</rscale>
<asrwt>0</asrwt>
<pdfrwt beam="1">  1        2 0.32248963E+00 0.98705881E+03</pdfrwt>
<pdfrwt beam="2">  1       -2 0.75528654E-01 0.98705881E+03</pdfrwt>
<totfact> 0.93327083E+00</totfact>
</mgrwt>
</event>
<event>
12    1  0.1444206E-007  0.8705805E+03  0.7818608E-02  0.9463123E-01
         -1   -1    0    0    0  501 -0.00000000000E+00  0.00000000000E+00  0.70568094371E+03  0.70568094371E+03  0.00000000000E+00 0.  1.
          1   -1    0    0  501    0  0.00000000000E+00 -0.00000000000E+00 -0.28893137392E+04  0.28893137392E+04  0.00000000000E+00 0. -1.
         23    2    1    2    0    0  0.67806897728E+03 -0.50516815733E+03  0.30165467246E+03  0.90212889356E+03  0.88705095945E+02 0.  0.
    5000000    2    1    2    0    0 -0.67806897728E+03  0.50516815733E+03 -0.24852874680E+04  0.26928657894E+04  0.59991662422E+03 0.  0.
         23    2    4    4    0    0 -0.14270903029E+03  0.25699696642E+03 -0.30516725606E+03  0.43251591766E+03  0.86773594991E+02 0.  0.
         23    2    4    4    0    0 -0.53535994699E+03  0.24817119091E+03 -0.21801202119E+04  0.22603498717E+04  0.89767429120E+02 0.  0.
          1    1    3    3  502    0  0.38130200071E+03 -0.31077973758E+03  0.13455175388E+03  0.50997983833E+03  0.00000000000E+00 0. -1.
         -1    1    3    3    0  502  0.29676697656E+03 -0.19438841976E+03  0.16710291858E+03  0.39214905522E+03  0.00000000000E+00 0.  1.
         13    1    5    5    0    0 -0.13629714541E+03  0.26212719045E+03 -0.28398977898E+03  0.40980211125E+03  0.00000000000E+00 0.  1.
        -13    1    5    5    0    0 -0.64118848726E+01 -0.51302240315E+01 -0.21177477082E+02  0.22713806414E+02  0.00000000000E+00 0. -1.
          1    1    6    6  503    0 -0.82066786700E+01  0.82880589489E+01 -0.14432036136E+02  0.18556000726E+02  0.00000000000E+00 0. -1.
         -1    1    6    6    0  503 -0.52715326832E+03  0.23988313197E+03 -0.21656881758E+04  0.22417938710E+04  0.00000000000E+00 0.  1.
<mgrwt>
<rscale>  0 0.87058046E+03</rscale>
<asrwt>0</asrwt>
<pdfrwt beam="1">  1        1 0.44450981E+00 0.87058046E+03</pdfrwt>
<pdfrwt beam="2">  1       -1 0.10856630E+00 0.87058046E+03</pdfrwt>
<totfact> 0.59477191E-01</totfact>
</mgrwt>
</event>
<event>
12    1  0.1444206E-007  0.8844065E+03  0.7818608E-02  0.9445287E-01
          1   -1    0    0  501    0  0.00000000000E+00  0.00000000000E+00  0.63728828505E+03  0.63728828505E+03  0.00000000000E+00 0. -1.
         -1   -1    0    0    0  501 -0.00000000000E+00 -0.00000000000E+00 -0.16319928428E+04  0.16319928428E+04  0.00000000000E+00 0.  1.
         23    2    1    2    0    0 -0.65840678624E+03  0.51447815574E+03 -0.90714352793E+03  0.12368626539E+04  0.93448249660E+02 0.  0.
    5000000    2    1    2    0    0  0.65840678624E+03 -0.51447815574E+03 -0.87561029773E+02  0.10324184739E+04  0.60002808476E+03 0.  0.
         23    2    4    4    0    0  0.56477985231E+03 -0.21112997060E+03 -0.25485791838E+03  0.66148531747E+03  0.95174159353E+02 0.  0.
         23    2    4    4    0    0  0.93626933937E+02 -0.30334818513E+03  0.16729688860E+03  0.37093315647E+03  0.93899059907E+02 0.  0.
          1    1    3    3  502    0 -0.36755451468E+03  0.25365466356E+03 -0.54009599936E+03  0.70081431073E+03  0.00000000000E+00 0. -1.
         -1    1    3    3    0  502 -0.29085227156E+03  0.26082349218E+03 -0.36704752857E+03  0.53604834313E+03  0.00000000000E+00 0.  1.
         11    1    5    5    0    0  0.19612483381E+03 -0.88312159255E+02 -0.13864843836E+03  0.25590501630E+03  0.00000000000E+00 0.  1.
        -11    1    5    5    0    0  0.36865501850E+03 -0.12281781135E+03 -0.11620948001E+03  0.40558030116E+03  0.00000000000E+00 0. -1.
          2    1    6    6  503    0  0.90700326207E+02 -0.30872378753E+03  0.17036183204E+03  0.36408801131E+03  0.00000000000E+00 0. -1.
         -2    1    6    6    0  503  0.29266077297E+01  0.53756024011E+01 -0.30649434394E+01  0.68451451602E+01  0.00000000000E+00 0.  1.
<mgrwt>
<rscale>  0 0.88440647E+03</rscale>
<asrwt>0</asrwt>
<pdfrwt beam="1">  1        1 0.98044351E-01 0.88440647E+03</pdfrwt>
<pdfrwt beam="2">  1       -1 0.25107582E+00 0.88440647E+03</pdfrwt>
<totfact> 0.22025299E+00</totfact>
</mgrwt>
</event>
<event>
12    1  0.1444206E-007  0.1897913E+04  0.7818608E-02  0.8655896E-01
          1   -1    0    0  501    0  0.00000000000E+00  0.00000000000E+00  0.44804734565E+04  0.44804734565E+04  0.00000000000E+00 0. -1.
         -1   -1    0    0    0  501 -0.00000000000E+00 -0.00000000000E+00 -0.84567311383E+03  0.84567311383E+03  0.00000000000E+00 0.  1.
         23    2    1    2    0    0  0.18523152133E+04  0.25967439178E+03  0.13250881563E+04  0.22941010310E+04  0.92403892301E+02 0.  0.
    5000000    2    1    2    0    0 -0.18523152133E+04 -0.25967439178E+03  0.23097121863E+04  0.30320455393E+04  0.60002277406E+03 0.  0.
         23    2    4    4    0    0 -0.79320985168E+03  0.95153788892E+02  0.67316890099E+03  0.10486387324E+04  0.90833416173E+02 0.  0.
         23    2    4    4    0    0 -0.10591053616E+04 -0.35482818067E+03  0.16365432853E+04  0.19834068069E+04  0.89562447252E+02 0.  0.
          4    1    3    3  502    0  0.11208192208E+04  0.11145120169E+03  0.79783314220E+03  0.13802879478E+04  0.00000000000E+00 0. -1.
         -4    1    3    3    0  502  0.73149599251E+03  0.14822319009E+03  0.52725501414E+03  0.91381308323E+03  0.00000000000E+00 0.  1.
         13    1    5    5    0    0 -0.44554046703E+03  0.94322559552E+02  0.35627230329E+03  0.57821536394E+03  0.00000000000E+00 0.  1.
        -13    1    5    5    0    0 -0.34766938465E+03  0.83122934016E+00  0.31689659770E+03  0.47042336847E+03  0.00000000000E+00 0. -1.
          4    1    6    6  503    0 -0.36138898312E+03 -0.79992050941E+02  0.51274662767E+03  0.63238424199E+03  0.00000000000E+00 0. -1.
         -4    1    6    6    0  503 -0.69771637852E+03 -0.27483612973E+03  0.11237966576E+04  0.13510225649E+04  0.00000000000E+00 0.  1.
<mgrwt>
<rscale>  0 0.18979130E+04</rscale>
<asrwt>0</asrwt>
<pdfrwt beam="1">  1        1 0.68930359E+00 0.18979130E+04</pdfrwt>
<pdfrwt beam="2">  1       -1 0.13010356E+00 0.18979130E+04</pdfrwt>
<totfact> 0.15737539E-02</totfact>
</mgrwt>
</event>
<event>
12    1  0.1444206E-007  0.6599285E+03  0.7818608E-02  0.9788325E-01
          2   -1    0    0  501    0  0.00000000000E+00  0.00000000000E+00  0.18646611692E+04  0.18646611692E+04  0.00000000000E+00 0. -1.
         -2   -1    0    0    0  501 -0.00000000000E+00 -0.00000000000E+00 -0.25294456659E+03  0.25294456659E+03  0.00000000000E+00 0.  1.
         23    2    1    2    0    0  0.14517160135E+03 -0.53162846478E+03  0.65381934321E+03  0.86005149909E+03  0.92223799074E+02 0.  0.
    5000000    2    1    2    0    0 -0.14517160135E+03  0.53162846478E+03  0.95789725943E+03  0.12575542367E+04  0.60014321648E+03 0.  0.
         23    2    4    4    0    0 -0.31470865307E+03  0.48871871945E+03  0.84540454769E+03  0.10305440901E+04  0.97081147861E+02 0.  0.
         23    2    4    4    0    0  0.16953705172E+03  0.42909745335E+02  0.11249271174E+03  0.22701014665E+03  0.91076552079E+02 0.  0.
          4    1    3    3  502    0  0.51335885345E+02 -0.65211398159E+02  0.96673234065E+02  0.12741119950E+03  0.00000000000E+00 0. -1.
         -4    1    3    3    0  502  0.93835716007E+02 -0.46641706662E+03  0.55714610915E+03  0.73264029959E+03  0.00000000000E+00 0.  1.
         13    1    5    5    0    0 -0.28341597704E+03  0.38646649262E+03  0.72955299555E+03  0.87288518104E+03  0.00000000000E+00 0. -1.
        -13    1    5    5    0    0 -0.31292676030E+02  0.10225222683E+03  0.11585155214E+03  0.15765890903E+03  0.00000000000E+00 0.  1.
          2    1    6    6  503    0  0.16196043169E+03  0.40245612194E+02  0.12748114963E+03  0.21000555765E+03  0.00000000000E+00 0. -1.
         -2    1    6    6    0  503  0.75766200358E+01  0.26641331411E+01 -0.14988437896E+02  0.17004589002E+02  0.00000000000E+00 0.  1.
<mgrwt>
<rscale>  0 0.65992849E+03</rscale>
<asrwt>0</asrwt>
<pdfrwt beam="1">  1        2 0.28687094E+00 0.65992849E+03</pdfrwt>
<pdfrwt beam="2">  1       -2 0.38914550E-01 0.65992849E+03</pdfrwt>
<totfact> 0.51509234E+01</totfact>
</mgrwt>
</event>
<event>
12    1  0.1444206E-007  0.4200199E+03  0.7818608E-02  0.1037060E+00
         -2   -1    0    0    0  501 -0.00000000000E+00  0.00000000000E+00  0.11082018599E+04  0.11082018599E+04  0.00000000000E+00 0.  1.
          2   -1    0    0  501    0  0.00000000000E+00 -0.00000000000E+00 -0.33517022550E+03  0.33517022550E+03  0.00000000000E+00 0. -1.
         23    2    1    2    0    0 -0.17988327273E+02 -0.32219405416E+03 -0.86247185654E+02  0.34674563535E+03  0.93066482391E+02 0.  0.
    5000000    2    1    2    0    0  0.17988327273E+02  0.32219405416E+03  0.85927882010E+03  0.10966264501E+04  0.60008073783E+03 0.  0.
         23    2    4    4    0    0 -0.31800435683E+02  0.40695492571E+03  0.28215300083E+03  0.50449643176E+03  0.91009639669E+02 0.  0.
         23    2    4    4    0    0  0.49788762956E+02 -0.84760871546E+02  0.57712581927E+03  0.59213001833E+03  0.88771735857E+02 0.  0.
          1    1    3    3  502    0 -0.47708846209E+02 -0.18505680900E+03 -0.21847510017E+02  0.19235246361E+03  0.00000000000E+00 0. -1.
         -1    1    3    3    0  502  0.29720518936E+02 -0.13713724516E+03 -0.64399675637E+02  0.15439317173E+03  0.00000000000E+00 0.  1.
         13    1    5    5    0    0  0.11805369210E+01  0.69271569643E+02  0.10961695505E+02  0.70143444430E+02  0.00000000000E+00 0.  1.
        -13    1    5    5    0    0 -0.32980972604E+02  0.33768335606E+03  0.27119130533E+03  0.43435298733E+03  0.00000000000E+00 0. -1.
          3    1    6    6  503    0  0.12508663830E+02 -0.39327415638E+02  0.67425236644E+02  0.79052354981E+02  0.00000000000E+00 0. -1.
         -3    1    6    6    0  503  0.37280099126E+02 -0.45433455908E+02  0.50970058262E+03  0.51307766335E+03  0.00000000000E+00 0.  1.
<mgrwt>
<rscale>  0 0.42001993E+03</rscale>
<asrwt>0</asrwt>
<pdfrwt beam="1">  1        2 0.51564651E-01 0.42001993E+03</pdfrwt>
<pdfrwt beam="2">  1       -2 0.17049259E+00 0.42001993E+03</pdfrwt>
<totfact> 0.21537297E+01</totfact>
</mgrwt>
</event>
<event>
12    1  0.1444206E-007  0.1301073E+04  0.7818608E-02  0.9028714E-01
          2   -1    0    0  501    0  0.00000000000E+00  0.00000000000E+00  0.12557000767E+04  0.12557000767E+04  0.00000000000E+00 0. -1.
         -2   -1    0    0    0  501 -0.00000000000E+00 -0.00000000000E+00 -0.16400301209E+04  0.16400301209E+04  0.00000000000E+00 0.  1.
         23    2    1    2    0    0  0.11577216365E+04 -0.54094405037E+03 -0.68455590814E+03  0.14524645091E+04  0.89980584091E+02 0.  0.
    5000000    2    1    2    0    0 -0.11577216365E+04  0.54094405037E+03  0.30022586396E+03  0.14432656885E+04  0.59995035214E+03 0.  0.
         23    2    4    4    0    0 -0.63967661491E+03  0.12284817004E+03  0.39150593366E+03  0.76549689834E+03  0.91819174046E+02 0.  0.
         23    2    4    4    0    0 -0.51804502158E+03  0.41809588033E+03 -0.91280069702E+02  0.67776879018E+03  0.88677349349E+02 0.  0.
          3    1    3    3  502    0  0.44206374493E+03 -0.22094224561E+03 -0.21759679453E+03  0.53998536598E+03  0.00000000000E+00 0. -1.
         -3    1    3    3    0  502  0.71565789156E+03 -0.32000180475E+03 -0.46695911361E+03  0.91247914309E+03  0.00000000000E+00 0.  1.
         13    1    5    5    0    0 -0.19046049388E+03  0.77506701024E+02  0.13880187967E+03  0.24808960122E+03  0.00000000000E+00 0. -1.
        -13    1    5    5    0    0 -0.44921612103E+03  0.45341469014E+02  0.25270405399E+03  0.51740729712E+03  0.00000000000E+00 0.  1.
          1    1    6    6  503    0 -0.37849599029E+03  0.28249530116E+03 -0.27868700158E+02  0.47311676602E+03  0.00000000000E+00 0. -1.
         -1    1    6    6    0  503 -0.13954903129E+03  0.13560057917E+03 -0.63411369544E+02  0.20465202416E+03  0.00000000000E+00 0.  1.
<mgrwt>
<rscale>  0 0.13010734E+04</rscale>
<asrwt>0</asrwt>
<pdfrwt beam="1">  1        2 0.19318463E+00 0.13010734E+04</pdfrwt>
<pdfrwt beam="2">  1       -2 0.25231233E+00 0.13010734E+04</pdfrwt>
<totfact> 0.10498043E+00</totfact>
</mgrwt>
</event>
<event>
12    1  0.1444206E-007  0.6183034E+03  0.7818608E-02  0.9868143E-01
          1   -1    0    0  501    0  0.00000000000E+00  0.00000000000E+00  0.85371084330E+03  0.85371084330E+03  0.00000000000E+00 0.  1.
         -1   -1    0    0    0  501 -0.00000000000E+00 -0.00000000000E+00 -0.59124183674E+03  0.59124183674E+03  0.00000000000E+00 0. -1.
         23    2    1    2    0    0  0.54007948058E+03 -0.52657621376E+02 -0.99432436684E+02  0.55883720932E+03  0.89182658764E+02 0.  0.
    5000000    2    1    2    0    0 -0.54007948058E+03  0.52657621376E+02  0.36190144324E+03  0.88611547072E+03  0.59980772119E+03 0.  0.
         23    2    4    4    0    0 -0.50008936411E+03 -0.11185608773E+03  0.43755049293E+03  0.68015068779E+03  0.92484419097E+02 0.  0.
         23    2    4    4    0    0 -0.39990116469E+02  0.16451370910E+03 -0.75649049690E+02  0.20596478294E+03  0.89636729036E+02 0.  0.
          1    1    3    3  502    0  0.41877046279E+03 -0.26022337089E+02 -0.11125295338E+03  0.43407727673E+03  0.00000000000E+00 0. -1.
         -1    1    3    3    0  502  0.12130901779E+03 -0.26635284287E+02  0.11820516699E+02  0.12475993260E+03  0.00000000000E+00 0.  1.
         11    1    5    5    0    0 -0.30688441815E+03 -0.22982044509E+02  0.27033286183E+03  0.40961698776E+03  0.00000000000E+00 0.  1.
        -11    1    5    5    0    0 -0.19320494596E+03 -0.88874043219E+02  0.16721763109E+03  0.27053370003E+03  0.00000000000E+00 0. -1.
          1    1    6    6  503    0  0.27665100030E+01  0.51732567991E+02 -0.67481754287E+02  0.85074669145E+02  0.00000000000E+00 0. -1.
         -1    1    6    6    0  503 -0.42756626472E+02  0.11278114111E+03 -0.81672954031E+01  0.12089011379E+03  0.00000000000E+00 0.  1.
<mgrwt>
<rscale>  0 0.61830343E+03</rscale>
<asrwt>0</asrwt>
<pdfrwt beam="1">  1        1 0.13134013E+00 0.61830343E+03</pdfrwt>
<pdfrwt beam="2">  1       -1 0.90960283E-01 0.61830343E+03</pdfrwt>
<totfact> 0.24490465E+01</totfact>
</mgrwt>
</event>
<event>
12    1  0.1444206E-007  0.1361844E+04  0.7818608E-02  0.8981910E-01
         -2   -1    0    0    0  501 -0.00000000000E+00  0.00000000000E+00  0.14631521997E+04  0.14631521997E+04  0.00000000000E+00 0. -1.
          2   -1    0    0  501    0  0.00000000000E+00 -0.00000000000E+00 -0.20552590103E+04  0.20552590103E+04  0.00000000000E+00 0.  1.
         23    2    1    2    0    0 -0.81561232890E+02 -0.13057633528E+04  0.78341929115E+03  0.15277134778E+04  0.92154849181E+02 0.  0.
    5000000    2    1    2    0    0  0.81561232890E+02  0.13057633528E+04 -0.13755261018E+04  0.19906977322E+04  0.59927893020E+03 0.  0.
         23    2    4    4    0    0 -0.21393842662E+03  0.75871285414E+03 -0.91882277289E+03  0.12138873291E+04  0.88726063359E+02 0.  0.
         23    2    4    4    0    0  0.29549965951E+03  0.54705049863E+03 -0.45670332893E+03  0.77681040315E+03  0.90951497809E+02 0.  0.
          2    1    3    3  502    0  0.18158568322E+02 -0.23668984717E+03  0.12660113585E+03  0.26903469099E+03  0.00000000000E+00 0. -1.
         -2    1    3    3    0  502 -0.99719801212E+02 -0.10690735056E+04  0.65681815530E+03  0.12586787868E+04  0.00000000000E+00 0.  1.
         13    1    5    5    0    0 -0.12092703518E+03  0.49419004937E+03 -0.65005545423E+03  0.82548122105E+03  0.00000000000E+00 0. -1.
        -13    1    5    5    0    0 -0.93011391445E+02  0.26452280477E+03 -0.26876731866E+03  0.38840610804E+03  0.00000000000E+00 0.  1.
          1    1    6    6  503    0  0.16944713423E+03  0.35967653177E+03 -0.24344739972E+03  0.46620400603E+03  0.00000000000E+00 0. -1.
         -1    1    6    6    0  503  0.12605252528E+03  0.18737396686E+03 -0.21325592921E+03  0.31060639712E+03  0.00000000000E+00 0.  1.
<mgrwt>
<rscale>  0 0.13618443E+04</rscale>
<asrwt>0</asrwt>
<pdfrwt beam="1">  1        2 0.31619369E+00 0.13618443E+04</pdfrwt>
<pdfrwt beam="2">  1       -2 0.22510034E+00 0.13618443E+04</pdfrwt>
<totfact> 0.54410209E-01</totfact>
</mgrwt>
</event>
<event>
12    1  0.1444206E-007  0.8746704E+03  0.7818608E-02  0.9457811E-01
         -2   -1    0    0    0  501 -0.00000000000E+00  0.00000000000E+00  0.47641443960E+03  0.47641443960E+03  0.00000000000E+00 0.  1.
          2   -1    0    0  501    0  0.00000000000E+00 -0.00000000000E+00 -0.34455339150E+04  0.34455339150E+04  0.00000000000E+00 0. -1.
         23    2    1    2    0    0  0.13474696240E+03 -0.82353737933E+03 -0.27444653878E+04  0.28697726222E+04  0.84463478672E+02 0.  0.
    5000000    2    1    2    0    0 -0.13474696240E+03  0.82353737933E+03 -0.22465408768E+03  0.10521757325E+04  0.60019476329E+03 0.  0.
         23    2    4    4    0    0  0.11453469116E+03  0.26253915149E+03 -0.30342987226E+03  0.42663804934E+03  0.88911957680E+02 0.  0.
         23    2    4    4    0    0 -0.24928165356E+03  0.56099822784E+03  0.78775784576E+02  0.62553768314E+03  0.90727142320E+02 0.  0.
          3    1    3    3  502    0  0.90861219991E+01 -0.87641832649E+02 -0.21255608527E+03  0.23009506259E+03  0.00000000000E+00 0. -1.
         -3    1    3    3    0  502  0.12566084040E+03 -0.73589554668E+03 -0.25319093025E+04  0.26396775596E+04  0.00000000000E+00 0.  1.
         11    1    5    5    0    0 -0.21013913846E+01  0.92250460388E+02 -0.11213938991E+03  0.14522329723E+03  0.00000000000E+00 0. -1.
        -11    1    5    5    0    0  0.11663608255E+03  0.17028869110E+03 -0.19129048235E+03  0.28141475211E+03  0.00000000000E+00 0.  1.
          3    1    6    6  503    0 -0.12801337982E+03  0.22606874194E+03  0.70672746612E+02  0.26923807051E+03  0.00000000000E+00 0.  1.
         -3    1    6    6    0  503 -0.12126827374E+03  0.33492948590E+03  0.81030379638E+01  0.35629961263E+03  0.00000000000E+00 0. -1.
<mgrwt>
<rscale>  0 0.87467041E+03</rscale>
<asrwt>0</asrwt>
<pdfrwt beam="1">  1        2 0.53008214E+00 0.87467041E+03</pdfrwt>
<pdfrwt beam="2">  1       -2 0.73294529E-01 0.87467041E+03</pdfrwt>
<totfact> 0.15762602E+00</totfact>
</mgrwt>
</event>
<event>
12    1  0.1444206E-007  0.1004281E+04  0.7818608E-02  0.9303862E-01
         -1   -1    0    0    0  501 -0.00000000000E+00  0.00000000000E+00  0.79423264068E+03  0.79423264068E+03  0.00000000000E+00 0.  1.
          1   -1    0    0  501    0  0.00000000000E+00 -0.00000000000E+00 -0.13435935459E+04  0.13435935459E+04  0.00000000000E+00 0. -1.
         23    2    1    2    0    0 -0.63025833692E+03 -0.66846261177E+03 -0.28668000564E+02  0.92323850705E+03  0.86484981704E+02 0.  0.
    5000000    2    1    2    0    0  0.63025833692E+03  0.66846261177E+03 -0.52069290469E+03  0.12145876796E+04  0.60002857910E+03 0.  0.
         23    2    4    4    0    0  0.96380188131E+02  0.51308813708E+03 -0.21315465467E+03  0.57261562824E+03  0.99524739717E+02 0.  0.
         23    2    4    4    0    0  0.53387814879E+03  0.15537447469E+03 -0.30753825002E+03  0.64197205132E+03  0.91549081402E+02 0.  0.
          1    1    3    3  502    0 -0.38275608044E+03 -0.35946290837E+03 -0.44911805142E+02  0.52700367157E+03  0.00000000000E+00 0. -1.
         -1    1    3    3    0  502 -0.24750225648E+03 -0.30899970339E+03  0.16243804578E+02  0.39623483548E+03  0.00000000000E+00 0.  1.
         11    1    5    5    0    0  0.91880113866E+02  0.22235858068E+03 -0.90831996562E+02  0.25716870985E+03  0.00000000000E+00 0. -1.
        -11    1    5    5    0    0  0.45000742654E+01  0.29072955640E+03 -0.12232265811E+03  0.31544691839E+03  0.00000000000E+00 0.  1.
          3    1    6    6  503    0  0.22068020159E+03  0.56813504405E+02 -0.17737732878E+03  0.28877368721E+03  0.00000000000E+00 0. -1.
         -3    1    6    6    0  503  0.31319794720E+03  0.98560970280E+02 -0.13016092124E+03  0.35319836411E+03  0.00000000000E+00 0.  1.
<mgrwt>
<rscale>  0 0.10042812E+04</rscale>
<asrwt>0</asrwt>
<pdfrwt beam="1">  1        1 0.20670670E+00 0.10042812E+04</pdfrwt>
<pdfrwt beam="2">  1       -1 0.12218964E+00 0.10042812E+04</pdfrwt>
<totfact> 0.50046713E+00</totfact>
</mgrwt>
</event>
<event>
12    1  0.1444206E-007  0.9124578E+03  0.7818608E-02  0.9410141E-01
          2   -1    0    0  501    0  0.00000000000E+00  0.00000000000E+00  0.36343812813E+04  0.36343812813E+04  0.00000000000E+00 0.  1.
         -2   -1    0    0    0  501 -0.00000000000E+00 -0.00000000000E+00 -0.25973233281E+03  0.25973233281E+03  0.00000000000E+00 0. -1.
         23    2    1    2    0    0 -0.51043654153E+03  0.67307987493E+03  0.19984032435E+04  0.21714896917E+04  0.90387922290E+02 0.  0.
    5000000    2    1    2    0    0  0.51043654153E+03 -0.67307987493E+03  0.13762457050E+04  0.17226239224E+04  0.59983244050E+03 0.  0.
         23    2    4    4    0    0  0.48740187685E+03 -0.26608948432E+03  0.10526877945E+04  0.11943731800E+04  0.10005746946E+03 0.  0.
         23    2    4    4    0    0  0.23034664677E+02 -0.40699039061E+03  0.32355791048E+03  0.52825074242E+03  0.90483985376E+02 0.  0.
          2    1    3    3  502    0 -0.45107995379E+03  0.54946103376E+03  0.17208239976E+04  0.18618850080E+04  0.00000000000E+00 0. -1.
         -2    1    3    3    0  502 -0.59356587739E+02  0.12361884116E+03  0.27757924593E+03  0.30960468370E+03  0.00000000000E+00 0.  1.
         13    1    5    5    0    0  0.35169506201E+02 -0.41764609602E+02  0.15699892424E+03  0.16622225781E+03  0.00000000000E+00 0. -1.
        -13    1    5    5    0    0  0.45223237065E+03 -0.22432487472E+03  0.89568887028E+03  0.10281509222E+04  0.00000000000E+00 0.  1.
          1    1    6    6  503    0 -0.33291818447E+02 -0.20858230394E+03  0.16926067649E+03  0.27067341816E+03  0.00000000000E+00 0. -1.
         -1    1    6    6    0  503  0.56326483124E+02 -0.19840808667E+03  0.15429723399E+03  0.25757732426E+03  0.00000000000E+00 0.  1.
<mgrwt>
<rscale>  0 0.91245780E+03</rscale>
<asrwt>0</asrwt>
<pdfrwt beam="1">  1        2 0.55913555E+00 0.91245780E+03</pdfrwt>
<pdfrwt beam="2">  1       -2 0.39958823E-01 0.91245780E+03</pdfrwt>
<totfact> 0.40823726E+00</totfact>
</mgrwt>
</event>
<event>
12    1  0.1444206E-007  0.1079274E+04  0.7818608E-02  0.9225631E-01
         -1   -1    0    0    0  501 -0.00000000000E+00  0.00000000000E+00  0.18073311556E+04  0.18073311556E+04  0.00000000000E+00 0.  1.
          1   -1    0    0  501    0  0.00000000000E+00 -0.00000000000E+00 -0.12700164829E+04  0.12700164829E+04  0.00000000000E+00 0. -1.
         23    2    1    2    0    0 -0.92735965933E+03  0.47474020315E+03  0.12892961794E+04  0.16593502994E+04  0.76056423689E+02 0.  0.
    5000000    2    1    2    0    0  0.92735965933E+03 -0.47474020315E+03 -0.75198150668E+03  0.14179973391E+04  0.59988838060E+03 0.  0.
         23    2    4    4    0    0  0.58825641021E+03 -0.49977876107E+03 -0.72711724054E+03  0.10647343732E+04  0.95579233434E+02 0.  0.
         23    2    4    4    0    0  0.33910324912E+03  0.25038557914E+02 -0.24864266137E+02  0.35326296592E+03  0.92512423015E+02 0.  0.
          1    1    3    3  502    0 -0.70459832013E+03  0.35989906339E+03  0.92568919115E+03  0.12177383164E+04  0.00000000000E+00 0.  1.
         -1    1    3    3    0  502 -0.22276133920E+03  0.11484113976E+03  0.36360698828E+03  0.44161198302E+03  0.00000000000E+00 0. -1.
         11    1    5    5    0    0  0.29633486305E+02 -0.68045461560E+01 -0.46845140335E+02  0.55847224927E+02  0.00000000000E+00 0. -1.
        -11    1    5    5    0    0  0.55862292390E+03 -0.49297421491E+03 -0.68027210021E+03  0.10088871483E+04  0.00000000000E+00 0.  1.
          1    1    6    6  503    0  0.53356578331E+02 -0.67475458912E+01 -0.37356517887E+02  0.65482541607E+02  0.00000000000E+00 0. -1.
         -1    1    6    6    0  503  0.28574667079E+03  0.31786103805E+02  0.12492251750E+02  0.28778042431E+03  0.00000000000E+00 0.  1.
<mgrwt>
<rscale>  0 0.10792743E+04</rscale>
<asrwt>0</asrwt>
<pdfrwt beam="1">  1        1 0.19538715E+00 0.10792743E+04</pdfrwt>
<pdfrwt beam="2">  1       -1 0.27805095E+00 0.10792743E+04</pdfrwt>
<totfact> 0.43547592E-01</totfact>
</mgrwt>
</event>
<event>
12    1  0.1444206E-007  0.1351921E+04  0.7818608E-02  0.8989375E-01
          1   -1    0    0  501    0  0.00000000000E+00  0.00000000000E+00  0.17637384268E+04  0.17637384268E+04  0.00000000000E+00 0. -1.
         -1   -1    0    0    0  501 -0.00000000000E+00 -0.00000000000E+00 -0.11376850634E+04  0.11376850634E+04  0.00000000000E+00 0.  1.
         23    2    1    2    0    0  0.78079526330E+03 -0.10693358880E+04  0.22773890574E+02  0.13275955495E+04  0.94184969639E+02 0.  0.
    5000000    2    1    2    0    0 -0.78079526330E+03  0.10693358880E+04  0.60327947283E+03  0.15738279408E+04  0.59988980681E+03 0.  0.
         23    2    4    4    0    0 -0.64151526695E+01  0.96545540629E+02 -0.76560448509E+02  0.15378446331E+03  0.91793045929E+02 0.  0.
         23    2    4    4    0    0 -0.77438011063E+03  0.97279034733E+03  0.67983992134E+03  0.14200434774E+04  0.91408662624E+02 0.  0.
          4    1    3    3  502    0  0.40238369836E+02 -0.93590981141E+02 -0.86636575690E+01  0.10224214943E+03  0.00000000000E+00 0. -1.
         -4    1    3    3    0  502  0.74055689346E+03 -0.97574490681E+03  0.31437548143E+02  0.12253534001E+04  0.00000000000E+00 0.  1.
         11    1    5    5    0    0  0.35642566341E+02  0.81006649618E+02 -0.52463117111E+02  0.10288269278E+03  0.00000000000E+00 0. -1.
        -11    1    5    5    0    0 -0.42057719010E+02  0.15538891012E+02 -0.24097331398E+02  0.50901770527E+02  0.00000000000E+00 0.  1.
          1    1    6    6  503    0 -0.23151468451E+03  0.27090982001E+03  0.24043567762E+03  0.42988428070E+03  0.00000000000E+00 0. -1.
         -1    1    6    6    0  503 -0.54286542612E+03  0.70188052731E+03  0.43940424373E+03  0.99015919674E+03  0.00000000000E+00 0.  1.
<mgrwt>
<rscale>  0 0.13519209E+04</rscale>
<asrwt>0</asrwt>
<pdfrwt beam="1">  1        1 0.27134437E+00 0.13519209E+04</pdfrwt>
<pdfrwt beam="2">  1       -1 0.17502847E+00 0.13519209E+04</pdfrwt>
<totfact> 0.93899125E-01</totfact>
</mgrwt>
</event>
<event>
12    1  0.1444206E-007  0.7092973E+03  0.7818608E-02  0.9701463E-01
         -1   -1    0    0    0  501 -0.00000000000E+00  0.00000000000E+00  0.10123206779E+04  0.10123206779E+04  0.00000000000E+00 0.  1.
          1   -1    0    0  501    0  0.00000000000E+00 -0.00000000000E+00 -0.55955414737E+03  0.55955414737E+03  0.00000000000E+00 0. -1.
         23    2    1    2    0    0  0.18170232478E+03  0.59515516213E+03  0.28962746335E+03  0.69220257200E+03  0.89637778435E+02 0.  0.
    5000000    2    1    2    0    0 -0.18170232478E+03 -0.59515516213E+03  0.16313906714E+03  0.87967225321E+03  0.59998626318E+03 0.  0.
         23    2    4    4    0    0  0.15101647169E+03 -0.13918021341E+03 -0.10579591229E+03  0.24796791466E+03  0.90101082783E+02 0.  0.
         23    2    4    4    0    0 -0.33271879647E+03 -0.45597494872E+03  0.26893497942E+03  0.63170433855E+03  0.90052189307E+02 0.  0.
          1    1    3    3  502    0  0.54959394639E+02  0.33253075549E+03  0.15104719315E+03  0.36934061917E+03  0.00000000000E+00 0. -1.
         -1    1    3    3    0  502  0.12674293014E+03  0.26262440664E+03  0.13858027020E+03  0.32286195284E+03  0.00000000000E+00 0.  1.
         13    1    5    5    0    0  0.76074824380E+02 -0.14496075330E+02 -0.24006964291E+02  0.81079278727E+02  0.00000000000E+00 0. -1.
        -13    1    5    5    0    0  0.74941647313E+02 -0.12468413808E+03 -0.81788947995E+02  0.16688863594E+03  0.00000000000E+00 0.  1.
          3    1    6    6  503    0 -0.81377634172E+02 -0.75348587520E+02  0.22134172366E+02  0.11309133729E+03  0.00000000000E+00 0. -1.
         -3    1    6    6    0  503 -0.25134116230E+03 -0.38062636120E+03  0.24680080706E+03  0.51861300126E+03  0.00000000000E+00 0.  1.
<mgrwt>
<rscale>  0 0.70929726E+03</rscale>
<asrwt>0</asrwt>
<pdfrwt beam="1">  1        1 0.86085253E-01 0.70929726E+03</pdfrwt>
<pdfrwt beam="2">  1       -1 0.15574164E+00 0.70929726E+03</pdfrwt>
<totfact> 0.12332490E+01</totfact>
</mgrwt>
</event>
<event>
12    1  0.1444206E-007  0.3380475E+03  0.7818608E-02  0.1067631E+00
          2   -1    0    0  501    0  0.00000000000E+00  0.00000000000E+00  0.14126494643E+04  0.14126494643E+04  0.00000000000E+00 0. -1.
         -2   -1    0    0    0  501 -0.00000000000E+00 -0.00000000000E+00 -0.14615751644E+03  0.14615751644E+03  0.00000000000E+00 0.  1.
         23    2    1    2    0    0  0.13550172704E+03 -0.13249452437E+03  0.62879848060E+03  0.66294955237E+03  0.90548676205E+02 0.  0.
    5000000    2    1    2    0    0 -0.13550172704E+03  0.13249452437E+03  0.63769346724E+03  0.89585742835E+03  0.59999338059E+03 0.  0.
         23    2    4    4    0    0 -0.27963298863E+03 -0.11268765948E+02  0.95064493771E+02  0.30888205411E+03  0.89717734920E+02 0.  0.
         23    2    4    4    0    0  0.14413126159E+03  0.14376329032E+03  0.54262897347E+03  0.58697537424E+03  0.93017110830E+02 0.  0.
          3    1    3    3  502    0  0.60035895674E+02 -0.63134547001E+02  0.43578790250E+03  0.44441126871E+03  0.00000000000E+00 0. -1.
         -3    1    3    3    0  502  0.75465831367E+02 -0.69359977369E+02  0.19301057810E+03  0.21853828365E+03  0.00000000000E+00 0.  1.
         11    1    5    5    0    0 -0.15216006536E+03  0.12918316005E+02  0.85709670284E+01  0.15294780108E+03  0.00000000000E+00 0.  1.
        -11    1    5    5    0    0 -0.12747292327E+03 -0.24187081953E+02  0.86493526742E+02  0.15593425303E+03  0.00000000000E+00 0. -1.
          2    1    6    6  503    0  0.55623200788E+02  0.64891039630E+02  0.35411133971E+03  0.36427960196E+03  0.00000000000E+00 0. -1.
         -2    1    6    6    0  503  0.88508060800E+02  0.78872250687E+02  0.18851763375E+03  0.22269577228E+03  0.00000000000E+00 0.  1.
<mgrwt>
<rscale>  0 0.33804751E+03</rscale>
<asrwt>0</asrwt>
<pdfrwt beam="1">  1        2 0.21733068E+00 0.33804751E+03</pdfrwt>
<pdfrwt beam="2">  1       -2 0.22485773E-01 0.33804751E+03</pdfrwt>
<totfact> 0.26004750E+02</totfact>
</mgrwt>
</event>
<event>
12    1  0.1444206E-007  0.6378468E+03  0.7818608E-02  0.9829855E-01
         -2   -1    0    0    0  501 -0.00000000000E+00  0.00000000000E+00  0.24146720341E+03  0.24146720341E+03  0.00000000000E+00 0.  1.
          2   -1    0    0  501    0  0.00000000000E+00 -0.00000000000E+00 -0.23797847837E+04  0.23797847837E+04  0.00000000000E+00 0. -1.
         23    2    1    2    0    0  0.25729993694E+03  0.50565157731E+03 -0.14005843238E+04  0.15139442766E+04  0.92217404067E+02 0.  0.
    5000000    2    1    2    0    0 -0.25729993694E+03 -0.50565157731E+03 -0.73773325649E+03  0.11073077104E+04  0.59999436053E+03 0.  0.
         23    2    4    4    0    0  0.88785102382E+02 -0.81794290448E+01 -0.37376740076E+03  0.39455662110E+03  0.89572093397E+02 0.  0.
         23    2    4    4    0    0 -0.34608503933E+03 -0.49747214826E+03 -0.36396585573E+03  0.71275108933E+03  0.91047122250E+02 0.  0.
          3    1    3    3  502    0  0.78983303085E+02  0.25164937673E+03 -0.60642034243E+03  0.66129524623E+03  0.00000000000E+00 0. -1.
         -3    1    3    3    0  502  0.17831663386E+03  0.25400220058E+03 -0.79416398134E+03  0.85264903041E+03  0.00000000000E+00 0.  1.
         13    1    5    5    0    0  0.46001276095E+02  0.48071370812E+00 -0.32837218285E+03  0.33157900862E+03  0.00000000000E+00 0. -1.
        -13    1    5    5    0    0  0.42783826287E+02 -0.86601427529E+01 -0.45395217916E+02  0.62977612481E+02  0.00000000000E+00 0.  1.
          1    1    6    6  503    0 -0.20052817042E+03 -0.35806881265E+03 -0.26181717056E+03  0.48679878032E+03  0.00000000000E+00 0. -1.
         -1    1    6    6    0  503 -0.14555686891E+03 -0.13940333561E+03 -0.10214868517E+03  0.22595230901E+03  0.00000000000E+00 0.  1.
<mgrwt>
<rscale>  0 0.63784680E+03</rscale>
<asrwt>0</asrwt>
<pdfrwt beam="1">  1        2 0.36612072E+00 0.63784680E+03</pdfrwt>
<pdfrwt beam="2">  1       -2 0.37148802E-01 0.63784680E+03</pdfrwt>
<totfact> 0.29532937E+01</totfact>
</mgrwt>
</event>
<event>
12    1  0.1444206E-007  0.6008292E+03  0.7818608E-02  0.9903687E-01
         -1   -1    0    0    0  501 -0.00000000000E+00  0.00000000000E+00  0.16506841180E+04  0.16506841180E+04  0.00000000000E+00 0. -1.
          1   -1    0    0  501    0  0.00000000000E+00 -0.00000000000E+00 -0.38799927531E+03  0.38799927531E+03  0.00000000000E+00 0.  1.
         23    2    1    2    0    0  0.56086675534E+03  0.46999961053E+02  0.48982432438E+02  0.57241122573E+03  0.92058780485E+02 0.  0.
    5000000    2    1    2    0    0 -0.56086675534E+03 -0.46999961053E+02  0.12137024103E+04  0.14662721676E+04  0.60008334020E+03 0.  0.
         23    2    4    4    0    0 -0.64414715619E+02  0.82778155745E+02 -0.70124200321E+01  0.13889567555E+03  0.90781914470E+02 0.  0.
         23    2    4    4    0    0 -0.49645203972E+03 -0.12977811680E+03  0.12207148303E+04  0.13273764920E+04  0.92068818719E+02 0.  0.
          4    1    3    3  502    0  0.31275777005E+03  0.34515491593E+02  0.72426996012E+02  0.32288451750E+03  0.00000000000E+00 0. -1.
         -4    1    3    3    0  502  0.24810898529E+03  0.12484469460E+02 -0.23444563574E+02  0.24952670823E+03  0.00000000000E+00 0.  1.
         11    1    5    5    0    0 -0.76819260959E+02  0.65308514952E+02 -0.32183649188E+02  0.10584039047E+03  0.00000000000E+00 0. -1.
        -11    1    5    5    0    0  0.12404545340E+02  0.17469640793E+02  0.25171229156E+02  0.33055285081E+02  0.00000000000E+00 0.  1.
          2    1    6    6  503    0 -0.29616056845E+03 -0.48200005183E+02  0.61697182244E+03  0.68606745477E+03  0.00000000000E+00 0. -1.
         -2    1    6    6    0  503 -0.20029147128E+03 -0.81578111615E+02  0.60374300784E+03  0.64130903727E+03  0.00000000000E+00 0.  1.
<mgrwt>
<rscale>  0 0.60082924E+03</rscale>
<asrwt>0</asrwt>
<pdfrwt beam="1">  1        1 0.59692197E-01 0.60082924E+03</pdfrwt>
<pdfrwt beam="2">  1       -1 0.25395140E+00 0.60082924E+03</pdfrwt>
<totfact> 0.43786427E+00</totfact>
</mgrwt>
</event>
<event>
12    1  0.1444206E-007  0.1019307E+04  0.7818608E-02  0.9287619E-01
          2   -1    0    0  501    0  0.00000000000E+00  0.00000000000E+00  0.10219942544E+04  0.10219942544E+04  0.00000000000E+00 0.  1.
         -2   -1    0    0    0  501 -0.00000000000E+00 -0.00000000000E+00 -0.15129243678E+04  0.15129243678E+04  0.00000000000E+00 0. -1.
         23    2    1    2    0    0 -0.70764495525E+03 -0.63891611513E+03  0.45832480319E+03  0.10618081864E+04  0.91650502704E+02 0.  0.
    5000000    2    1    2    0    0  0.70764495525E+03  0.63891611513E+03 -0.94925491658E+03  0.14731104359E+04  0.59999522898E+03 0.  0.
         23    2    4    4    0    0 -0.47260030277E+02  0.13700604983E+03 -0.22558182362E+02  0.17346148615E+03  0.92605871495E+02 0.  0.
         23    2    4    4    0    0  0.75490498552E+03  0.50191006530E+03 -0.92669673422E+03  0.12996489497E+04  0.92332575543E+02 0.  0.
          4    1    3    3  502    0 -0.26418824612E+03 -0.29635551902E+03  0.20562709892E+03  0.44710684053E+03  0.00000000000E+00 0. -1.
         -4    1    3    3    0  502 -0.44345670913E+03 -0.34256059610E+03  0.25269770427E+03  0.61470134587E+03  0.00000000000E+00 0.  1.
         13    1    5    5    0    0 -0.71631605090E+02  0.76541530436E+02 -0.26570640649E+02  0.10814662118E+03  0.00000000000E+00 0. -1.
        -13    1    5    5    0    0  0.24371574813E+02  0.60464519390E+02  0.40124582870E+01  0.65314864966E+02  0.00000000000E+00 0.  1.
          1    1    6    6  503    0  0.39509412289E+03  0.20727958970E+03 -0.45188730522E+03  0.63503254315E+03  0.00000000000E+00 0. -1.
         -1    1    6    6    0  503  0.35981086263E+03  0.29463047560E+03 -0.47480942900E+03  0.66461640658E+03  0.00000000000E+00 0.  1.
<mgrwt>
<rscale>  0 0.10193068E+04</rscale>
<asrwt>0</asrwt>
<pdfrwt beam="1">  1        2 0.15722989E+00 0.10193068E+04</pdfrwt>
<pdfrwt beam="2">  1       -2 0.23275759E+00 0.10193068E+04</pdfrwt>
<totfact> 0.19887083E+00</totfact>
</mgrwt>
</event>
<event>
12    1  0.1444206E-007  0.4670078E+03  0.7818608E-02  0.1022768E+00
          2   -1    0    0  501    0  0.00000000000E+00  0.00000000000E+00  0.32659915424E+04  0.32659915424E+04  0.00000000000E+00 0. -1.
         -2   -1    0    0    0  501 -0.00000000000E+00 -0.00000000000E+00 -0.26071982075E+03  0.26071982075E+03  0.00000000000E+00 0.  1.
         23    2    1    2    0    0 -0.38768793248E+03 -0.12253608366E+03  0.27136871136E+04  0.27454464268E+04  0.89784783944E+02 0.  0.
    5000000    2    1    2    0    0  0.38768793248E+03  0.12253608366E+03  0.29158460808E+03  0.78126493632E+03  0.60003024279E+03 0.  0.
         23    2    4    4    0    0  0.41421737592E+03  0.12212136094E+03  0.42925091958E+03  0.61572274813E+03  0.91479447349E+02 0.  0.
         23    2    4    4    0    0 -0.26529443439E+02  0.41472271735E+00 -0.13766631151E+03  0.16554218819E+03  0.88023970500E+02 0.  0.
          1    1    3    3  502    0 -0.29974153891E+03 -0.70580176748E+02  0.22241133673E+04  0.22453300029E+04  0.00000000000E+00 0. -1.
         -1    1    3    3    0  502 -0.87946393563E+02 -0.51955906911E+02  0.48957374629E+03  0.50011642391E+03  0.00000000000E+00 0.  1.
         13    1    5    5    0    0  0.18245747989E+03  0.91175239989E+02  0.16086484084E+03  0.25977134825E+03  0.00000000000E+00 0. -1.
        -13    1    5    5    0    0  0.23175989603E+03  0.30946120952E+02  0.26838607874E+03  0.35595139988E+03  0.00000000000E+00 0.  1.
          4    1    6    6  503    0  0.10649123217E+01  0.38829729190E+02 -0.91696292232E+02  0.99584596782E+02  0.00000000000E+00 0. -1.
         -4    1    6    6    0  503 -0.27594355760E+02 -0.38415006472E+02 -0.45970019275E+02  0.65957591407E+02  0.00000000000E+00 0.  1.
<mgrwt>
<rscale>  0 0.46700781E+03</rscale>
<asrwt>0</asrwt>
<pdfrwt beam="1">  1        2 0.50246021E+00 0.46700781E+03</pdfrwt>
<pdfrwt beam="2">  1       -2 0.40110744E-01 0.46700781E+03</pdfrwt>
<totfact> 0.79412324E+00</totfact>
</mgrwt>
</event>
<event>
12    1  0.1444206E-007  0.4173344E+03  0.7818608E-02  0.1037937E+00
          2   -1    0    0  501    0  0.00000000000E+00  0.00000000000E+00  0.14657976400E+04  0.14657976400E+04  0.00000000000E+00 0. -1.
         -2   -1    0    0    0  501 -0.00000000000E+00 -0.00000000000E+00 -0.15907660276E+03  0.15907660276E+03  0.00000000000E+00 0.  1.
         23    2    1    2    0    0 -0.24469900104E+03  0.60556022993E+02  0.63956836778E+03  0.69343448569E+03  0.90879347815E+02 0.  0.
    5000000    2    1    2    0    0  0.24469900104E+03 -0.60556022993E+02  0.66715266942E+03  0.93143975702E+03  0.59911827181E+03 0.  0.
         23    2    4    4    0    0  0.19389932107E+03 -0.28280431141E+03  0.56292261802E+03  0.66509000561E+03  0.88812253835E+02 0.  0.
         23    2    4    4    0    0  0.50799679966E+02  0.22224828841E+03  0.10423005140E+03  0.26634975140E+03  0.90018760658E+02 0.  0.
          3    1    3    3  502    0 -0.12784919516E+03 -0.18458243653E+01  0.23230080560E+03  0.26516502042E+03  0.00000000000E+00 0. -1.
         -3    1    3    3    0  502 -0.11684980588E+03  0.62401847359E+02  0.40726756218E+03  0.42826946528E+03  0.00000000000E+00 0.  1.
         13    1    5    5    0    0  0.77466440011E+02 -0.73175671467E+02  0.24245387541E+03  0.26483883764E+03  0.00000000000E+00 0.  1.
        -13    1    5    5    0    0  0.11643288106E+03 -0.20962863994E+03  0.32046874261E+03  0.40025116797E+03  0.00000000000E+00 0. -1.
          2    1    6    6  503    0  0.12310907106E+02  0.55368901079E+02  0.72702934798E+02  0.92211660698E+02  0.00000000000E+00 0. -1.
         -2    1    6    6    0  503  0.38488772859E+02  0.16687938733E+03  0.31527116604E+02  0.17413809071E+03  0.00000000000E+00 0.  1.
<mgrwt>
<rscale>  0 0.41733437E+03</rscale>
<asrwt>0</asrwt>
<pdfrwt beam="1">  1        2 0.22550732E+00 0.41733437E+03</pdfrwt>
<pdfrwt beam="2">  1       -2 0.24473324E-01 0.41733437E+03</pdfrwt>
<totfact> 0.20713032E+02</totfact>
</mgrwt>
</event>
<event>
12    1  0.1444206E-007  0.1106102E+04  0.7818608E-02  0.9199265E-01
          2   -1    0    0  501    0  0.00000000000E+00  0.00000000000E+00  0.33355695361E+04  0.33355695361E+04  0.00000000000E+00 0. -1.
         -2   -1    0    0    0  501 -0.00000000000E+00 -0.00000000000E+00 -0.41252072351E+03  0.41252072351E+03  0.00000000000E+00 0.  1.
         23    2    1    2    0    0  0.46734168056E+03 -0.98893177135E+03  0.14162982802E+04  0.17919075306E+04  0.92938069618E+02 0.  0.
    5000000    2    1    2    0    0 -0.46734168056E+03  0.98893177135E+03  0.15067505324E+04  0.19561827290E+04  0.59996617226E+03 0.  0.
         23    2    4    4    0    0 -0.42277538707E+03  0.97174838614E+03  0.10752960980E+04  0.15124868527E+04  0.91218569308E+02 0.  0.
         23    2    4    4    0    0 -0.44566293483E+02  0.17183385217E+02  0.43145443441E+03  0.44369587636E+03  0.91824171595E+02 0.  0.
          4    1    3    3  502    0  0.33606489287E+03 -0.75602186835E+03  0.11256213673E+04  0.13969724908E+04  0.00000000000E+00 0. -1.
         -4    1    3    3    0  502  0.13127678769E+03 -0.23290990301E+03  0.29067691294E+03  0.39493503975E+03  0.00000000000E+00 0.  1.
         13    1    5    5    0    0 -0.36848407649E+03  0.90404177857E+03  0.10010578771E+04  0.13982807033E+04  0.00000000000E+00 0.  1.
        -13    1    5    5    0    0 -0.54291310581E+02  0.67706607565E+02  0.74238220907E+02  0.11420614938E+03  0.00000000000E+00 0. -1.
          2    1    6    6  503    0 -0.25273546884E+02  0.23137359698E+02  0.44251192678E+02  0.55966576091E+02  0.00000000000E+00 0. -1.
         -2    1    6    6    0  503 -0.19292746598E+02 -0.59539744811E+01  0.38720324173E+03  0.38772930027E+03  0.00000000000E+00 0.  1.
<mgrwt>
<rscale>  0 0.11061021E+04</rscale>
<asrwt>0</asrwt>
<pdfrwt beam="1">  1        2 0.51316453E+00 0.11061021E+04</pdfrwt>
<pdfrwt beam="2">  1       -2 0.63464729E-01 0.11061021E+04</pdfrwt>
<totfact> 0.24600678E+00</totfact>
</mgrwt>
</event>
<event>
12    1  0.1444206E-007  0.7229644E+03  0.7818608E-02  0.9678746E-01
          2   -1    0    0  501    0  0.00000000000E+00  0.00000000000E+00  0.14301409207E+04  0.14301409207E+04  0.00000000000E+00 0. -1.
         -2   -1    0    0    0  501 -0.00000000000E+00 -0.00000000000E+00 -0.46307596910E+03  0.46307596910E+03  0.00000000000E+00 0.  1.
         23    2    1    2    0    0 -0.17216636365E+03  0.66180954756E+03  0.24506618638E+03  0.73210401113E+03  0.91025894067E+02 0.  0.
    5000000    2    1    2    0    0  0.17216636365E+03 -0.66180954756E+03  0.72199876518E+03  0.11611128786E+04  0.59938949440E+03 0.  0.
         23    2    4    4    0    0 -0.15589236661E+02 -0.49891001890E+03  0.73857047362E+03  0.89613503978E+03  0.91746573604E+02 0.  0.
         23    2    4    4    0    0  0.18775560031E+03 -0.16289952866E+03 -0.16571708441E+02  0.26497783885E+03  0.90278522784E+02 0.  0.
          1    1    3    3  502    0 -0.44304448948E+02  0.34609597232E+03  0.13525665085E+03  0.37421874332E+03  0.00000000000E+00 0. -1.
         -1    1    3    3    0  502 -0.12786191470E+03  0.31571357524E+03  0.10980953553E+03  0.35788526781E+03  0.00000000000E+00 0.  1.
         13    1    5    5    0    0 -0.51355153165E+02 -0.36528391686E+03  0.52300661718E+03  0.64000438537E+03  0.00000000000E+00 0.  1.
        -13    1    5    5    0    0  0.35765916505E+02 -0.13362610204E+03  0.21556385644E+03  0.25613065442E+03  0.00000000000E+00 0. -1.
          3    1    6    6  503    0  0.55495359450E+02 -0.58924464936E+02  0.36184836640E+02  0.88663238668E+02  0.00000000000E+00 0. -1.
         -3    1    6    6    0  503  0.13226024086E+03 -0.10397506372E+03 -0.52756545081E+02  0.17631460018E+03  0.00000000000E+00 0.  1.
<mgrwt>
<rscale>  0 0.72296444E+03</rscale>
<asrwt>0</asrwt>
<pdfrwt beam="1">  1        2 0.22002168E+00 0.72296444E+03</pdfrwt>
<pdfrwt beam="2">  1       -2 0.71242457E-01 0.72296444E+03</pdfrwt>
<totfact> 0.25513866E+01</totfact>
</mgrwt>
</event>
<event>
12    1  0.1444206E-007  0.4660282E+03  0.7818608E-02  0.1023047E+00
          1   -1    0    0  501    0  0.00000000000E+00  0.00000000000E+00  0.12989321609E+04  0.12989321609E+04  0.00000000000E+00 0. -1.
         -1   -1    0    0    0  501 -0.00000000000E+00 -0.00000000000E+00 -0.20430902933E+03  0.20430902933E+03  0.00000000000E+00 0.  1.
         23    2    1    2    0    0 -0.25788082577E+03 -0.10816727102E+03  0.10451834266E+03  0.31216057760E+03  0.91200128499E+02 0.  0.
    5000000    2    1    2    0    0  0.25788082577E+03  0.10816727102E+03  0.99010478889E+03  0.11910806126E+04  0.60013569628E+03 0.  0.
         23    2    4    4    0    0  0.18702162642E+03  0.34129014750E+03  0.63847731940E+03  0.75354793104E+03  0.93408476358E+02 0.  0.
         23    2    4    4    0    0  0.70859199350E+02 -0.23312287648E+03  0.35162746949E+03  0.43753268158E+03  0.91791440107E+02 0.  0.
          2    1    3    3  502    0 -0.16654922441E+03 -0.33079532648E+02  0.30086001126E+02  0.17244728787E+03  0.00000000000E+00 0. -1.
         -2    1    3    3    0  502 -0.91331601357E+02 -0.75087738367E+02  0.74432341535E+02  0.13971328973E+03  0.00000000000E+00 0.  1.
         13    1    5    5    0    0  0.12182793062E+03  0.28888518817E+03  0.53925453493E+03  0.62377251468E+03  0.00000000000E+00 0. -1.
        -13    1    5    5    0    0  0.65193695793E+02  0.52404959326E+02  0.99222784466E+02  0.12977541636E+03  0.00000000000E+00 0.  1.
          1    1    6    6  503    0  0.43629556167E+02 -0.78155158844E+02  0.65211118114E+02  0.11074410572E+03  0.00000000000E+00 0. -1.
         -1    1    6    6    0  503  0.27229643183E+02 -0.15496771764E+03  0.28641635138E+03  0.32678857587E+03  0.00000000000E+00 0.  1.
<mgrwt>
<rscale>  0 0.46602821E+03</rscale>
<asrwt>0</asrwt>
<pdfrwt beam="1">  1        1 0.19983571E+00 0.46602821E+03</pdfrwt>
<pdfrwt beam="2">  1       -1 0.31432159E-01 0.46602821E+03</pdfrwt>
<totfact> 0.89899073E+01</totfact>
</mgrwt>
</event>
<event>
12    1  0.1444206E-007  0.3341610E+03  0.7818608E-02  0.1069310E+00
          1   -1    0    0  501    0  0.00000000000E+00  0.00000000000E+00  0.20737602048E+04  0.20737602048E+04  0.00000000000E+00 0. -1.
         -1   -1    0    0    0  501 -0.00000000000E+00 -0.00000000000E+00 -0.12619670858E+03  0.12619670858E+03  0.00000000000E+00 0.  1.
         23    2    1    2    0    0  0.23755337999E+03  0.16903098731E+03  0.96443123646E+03  0.10118884300E+04  0.93741676156E+02 0.  0.
    5000000    2    1    2    0    0 -0.23755337999E+03 -0.16903098731E+03  0.98313225971E+03  0.11880684834E+04  0.59996216385E+03 0.  0.
         23    2    4    4    0    0 -0.19592598080E+03 -0.48928895355E+02  0.31863028320E+02  0.22403411028E+03  0.91624250291E+02 0.  0.
         23    2    4    4    0    0 -0.41627399188E+02 -0.12010209195E+03  0.95126923139E+03  0.96403437308E+03  0.91059151271E+02 0.  0.
          2    1    3    3  502    0  0.18893581580E+03  0.14101635996E+03  0.87589237818E+03  0.90706659867E+03  0.00000000000E+00 0.  1.
         -2    1    3    3    0  502  0.48617564191E+02  0.28014627352E+02  0.88538858282E+02  0.10482183131E+03  0.00000000000E+00 0. -1.
         13    1    5    5    0    0 -0.48319384533E+02  0.26370511178E+02 -0.12186014343E+01  0.55060437438E+02  0.00000000000E+00 0. -1.
        -13    1    5    5    0    0 -0.14760659627E+03 -0.75299406534E+02  0.33081629754E+02  0.16897367284E+03  0.00000000000E+00 0.  1.
          1    1    6    6  503    0 -0.69496384438E+02 -0.71728394537E+02  0.65154236798E+03  0.65915261306E+03  0.00000000000E+00 0. -1.
         -1    1    6    6    0  503  0.27868985250E+02 -0.48373697416E+02  0.29972686341E+03  0.30488176001E+03  0.00000000000E+00 0.  1.
<mgrwt>
<rscale>  0 0.33416097E+03</rscale>
<asrwt>0</asrwt>
<pdfrwt beam="1">  1        1 0.31904001E+00 0.33416097E+03</pdfrwt>
<pdfrwt beam="2">  1       -1 0.19414880E-01 0.33416097E+03</pdfrwt>
<totfact> 0.63255168E+01</totfact>
</mgrwt>
</event>
<event>
12    1  0.1444206E-007  0.1669026E+04  0.7818608E-02  0.8779230E-01
         -2   -1    0    0    0  501 -0.00000000000E+00  0.00000000000E+00  0.20580826771E+04  0.20580826771E+04  0.00000000000E+00 0.  1.
          2   -1    0    0  501    0  0.00000000000E+00 -0.00000000000E+00 -0.15309252827E+04  0.15309252827E+04  0.00000000000E+00 0. -1.
         23    2    1    2    0    0  0.56508450940E+02  0.16632642170E+04 -0.19519514757E+03  0.16781395444E+04  0.91706729983E+02 0.  0.
    5000000    2    1    2    0    0 -0.56508450940E+02 -0.16632642170E+04  0.72235254201E+03  0.19108684154E+04  0.59998653765E+03 0.  0.
         23    2    4    4    0    0 -0.52824433994E+02 -0.14128773248E+04  0.80812337883E+03  0.16311280082E+04  0.92208611657E+02 0.  0.
         23    2    4    4    0    0 -0.36840169458E+01 -0.25038689223E+03 -0.85770836821E+02  0.27974040718E+03  0.90503542333E+02 0.  0.
          3    1    3    3  502    0 -0.12868688739E+02  0.47198192829E+03 -0.25639793401E+02  0.47285298221E+03  0.00000000000E+00 0. -1.
         -3    1    3    3    0  502  0.69377139679E+02  0.11912822887E+04 -0.16955535417E+03  0.12052865622E+04  0.00000000000E+00 0.  1.
         11    1    5    5    0    0  0.22589811463E+02 -0.59027434832E+03  0.32697525910E+03  0.67516436957E+03  0.00000000000E+00 0. -1.
        -11    1    5    5    0    0 -0.75414245457E+02 -0.82260297645E+03  0.48114811973E+03  0.95596363864E+03  0.00000000000E+00 0.  1.
          3    1    6    6  503    0  0.22462130471E+02 -0.68789490334E+02 -0.60924527743E+02  0.94595662514E+02  0.00000000000E+00 0.  1.
         -3    1    6    6    0  503 -0.26146147416E+02 -0.18159740190E+03 -0.24846309078E+02  0.18514474466E+03  0.00000000000E+00 0. -1.
<mgrwt>
<rscale>  0 0.16690256E+04</rscale>
<asrwt>0</asrwt>
<pdfrwt beam="1">  1        2 0.23552697E+00 0.16690256E+04</pdfrwt>
<pdfrwt beam="2">  1       -2 0.31662810E+00 0.16690256E+04</pdfrwt>
<totfact> 0.28318063E-01</totfact>
</mgrwt>
</event>
<event>
12    1  0.1444206E-007  0.1027772E+04  0.7818608E-02  0.9278599E-01
         -2   -1    0    0    0  501 -0.00000000000E+00  0.00000000000E+00  0.13955586197E+04  0.13955586197E+04  0.00000000000E+00 0.  1.
          2   -1    0    0  501    0  0.00000000000E+00 -0.00000000000E+00 -0.81504264159E+03  0.81504264159E+03  0.00000000000E+00 0. -1.
         23    2    1    2    0    0 -0.95451336919E+03  0.13385588189E+03  0.85915313894E+02  0.97219063624E+03  0.93594994363E+02 0.  0.
    5000000    2    1    2    0    0  0.95451336919E+03 -0.13385588189E+03  0.49460066418E+03  0.12384106250E+04  0.60001490819E+03 0.  0.
         23    2    4    4    0    0  0.27710532259E+03 -0.26825984679E+03  0.22981245768E+02  0.39734525483E+03  0.92759951899E+02 0.  0.
         23    2    4    4    0    0  0.67740804659E+03  0.13440396489E+03  0.47161941841E+03  0.84106537017E+03  0.89554417601E+02 0.  0.
          4    1    3    3  502    0 -0.53003668165E+03  0.57001384605E+02  0.40225734803E+01  0.53310807801E+03  0.00000000000E+00 0. -1.
         -4    1    3    3    0  502 -0.42447668754E+03  0.76854497286E+02  0.81892740413E+02  0.43908255824E+03  0.00000000000E+00 0.  1.
         11    1    5    5    0    0  0.10879675041E+03 -0.16689746680E+03 -0.23765890476E+01  0.19924142516E+03  0.00000000000E+00 0. -1.
        -11    1    5    5    0    0  0.16830857218E+03 -0.10136237999E+03  0.25357834816E+02  0.19810382968E+03  0.00000000000E+00 0.  1.
          4    1    6    6  503    0  0.18594315959E+03  0.74324347036E+02  0.11545185860E+03  0.23114518990E+03  0.00000000000E+00 0.  1.
         -4    1    6    6    0  503  0.49146488700E+03  0.60079617859E+02  0.35616755981E+03  0.60992018027E+03  0.00000000000E+00 0. -1.
<mgrwt>
<rscale>  0 0.10277716E+04</rscale>
<asrwt>0</asrwt>
<pdfrwt beam="1">  1        2 0.12539118E+00 0.10277716E+04</pdfrwt>
<pdfrwt beam="2">  1       -2 0.21470133E+00 0.10277716E+04</pdfrwt>
<totfact> 0.35563375E+00</totfact>
</mgrwt>
</event>
<event>
12    1  0.1444206E-007  0.1261845E+04  0.7818608E-02  0.9060382E-01
         -1   -1    0    0    0  501 -0.00000000000E+00  0.00000000000E+00  0.21267423443E+04  0.21267423443E+04  0.00000000000E+00 0.  1.
          1   -1    0    0  501    0  0.00000000000E+00 -0.00000000000E+00 -0.92975797678E+03  0.92975797678E+03  0.00000000000E+00 0. -1.
         23    2    1    2    0    0  0.96342808130E+03  0.74613291063E+03  0.11785406822E+04  0.16980831878E+04  0.98083560372E+02 0.  0.
    5000000    2    1    2    0    0 -0.96342808130E+03 -0.74613291063E+03  0.18443685340E+02  0.13584171333E+04  0.60004079063E+03 0.  0.
         23    2    4    4    0    0 -0.90374479860E+03 -0.50203471175E+03  0.16802393232E+03  0.10517108990E+04  0.95237915025E+02 0.  0.
         23    2    4    4    0    0 -0.59683282696E+02 -0.24409819889E+03 -0.14958024698E+03  0.30670623432E+03  0.92457768483E+02 0.  0.
          4    1    3    3  502    0  0.53523274572E+03  0.47459535233E+03  0.67736527996E+03  0.98515915619E+03  0.00000000000E+00 0. -1.
         -4    1    3    3    0  502  0.42819533558E+03  0.27153755830E+03  0.50117540224E+03  0.71292403157E+03  0.00000000000E+00 0.  1.
         11    1    5    5    0    0 -0.54235207713E+03 -0.32655503640E+03  0.61315775346E+02  0.63603741373E+03  0.00000000000E+00 0. -1.
        -11    1    5    5    0    0 -0.36139272147E+03 -0.17547967535E+03  0.10670815697E+03  0.41567348527E+03  0.00000000000E+00 0.  1.
          2    1    6    6  503    0 -0.83299375345E+02 -0.19227914859E+03 -0.12944365317E+03  0.24630411337E+03  0.00000000000E+00 0. -1.
         -2    1    6    6    0  503  0.23616092649E+02 -0.51819050297E+02 -0.20136593806E+02  0.60402120955E+02  0.00000000000E+00 0.  1.
<mgrwt>
<rscale>  0 0.12618447E+04</rscale>
<asrwt>0</asrwt>
<pdfrwt beam="1">  1        1 0.14303969E+00 0.12618447E+04</pdfrwt>
<pdfrwt beam="2">  1       -1 0.32719113E+00 0.12618447E+04</pdfrwt>
<totfact> 0.37032666E-01</totfact>
</mgrwt>
</event>
<event>
12    1  0.1444206E-007  0.1360524E+04  0.7818608E-02  0.8982899E-01
          2   -1    0    0  501    0  0.00000000000E+00  0.00000000000E+00  0.30875174639E+04  0.30875174639E+04  0.00000000000E+00 0. -1.
         -2   -1    0    0    0  501 -0.00000000000E+00 -0.00000000000E+00 -0.63622427012E+03  0.63622427012E+03  0.00000000000E+00 0.  1.
         23    2    1    2    0    0  0.12721971393E+04  0.38229109803E+03  0.98573629677E+03  0.16567167420E+04  0.91663905109E+02 0.  0.
    5000000    2    1    2    0    0 -0.12721971393E+04 -0.38229109803E+03  0.14655568970E+04  0.20670249920E+04  0.60008603916E+03 0.  0.
         23    2    4    4    0    0 -0.41736301616E+03  0.51214689563E+02  0.76037120207E+03  0.87350812845E+03  0.89650732527E+02 0.  0.
         23    2    4    4    0    0 -0.85483412316E+03 -0.43350578759E+03  0.70518569493E+03  0.11935168636E+04  0.92341720347E+02 0.  0.
          4    1    3    3  502    0  0.38376980586E+03  0.10722220671E+03  0.34794517080E+03  0.52900066861E+03  0.00000000000E+00 0.  1.
         -4    1    3    3    0  502  0.88842733346E+03  0.27506889131E+03  0.63779112598E+03  0.11277160734E+04  0.00000000000E+00 0. -1.
         13    1    5    5    0    0 -0.21904168537E+03  0.71817580628E+02  0.40169488386E+03  0.46313691769E+03  0.00000000000E+00 0.  1.
        -13    1    5    5    0    0 -0.19832133080E+03 -0.20602891065E+02  0.35867631822E+03  0.41037121076E+03  0.00000000000E+00 0. -1.
          3    1    6    6  503    0 -0.60501919505E+03 -0.26019638379E+03  0.49545517567E+03  0.82415181588E+03  0.00000000000E+00 0. -1.
         -3    1    6    6    0  503 -0.24981492810E+03 -0.17330940381E+03  0.20973051926E+03  0.36936504770E+03  0.00000000000E+00 0.  1.
<mgrwt>
<rscale>  0 0.13605242E+04</rscale>
<asrwt>0</asrwt>
<pdfrwt beam="1">  1        2 0.47500268E+00 0.13605242E+04</pdfrwt>
<pdfrwt beam="2">  1       -2 0.97880659E-01 0.13605242E+04</pdfrwt>
<totfact> 0.12954921E+00</totfact>
</mgrwt>
</event>
<event>
12    1  0.1444206E-007  0.1314442E+04  0.7818608E-02  0.9018190E-01
          2   -1    0    0  501    0  0.00000000000E+00  0.00000000000E+00  0.11978384085E+04  0.11978384085E+04  0.00000000000E+00 0. -1.
         -2   -1    0    0    0  501 -0.00000000000E+00 -0.00000000000E+00 -0.19287820621E+04  0.19287820621E+04  0.00000000000E+00 0.  1.
         23    2    1    2    0    0 -0.54701334417E+02 -0.12975069025E+04 -0.10359948001E+04  0.16638848167E+04  0.93333057314E+02 0.  0.
    5000000    2    1    2    0    0  0.54701334417E+02  0.12975069025E+04  0.30505114649E+03  0.14627356539E+04  0.60001916081E+03 0.  0.
         23    2    4    4    0    0 -0.76991395719E+02  0.84175084590E+03 -0.67257200393E+02  0.85295303789E+03  0.92375279420E+02 0.  0.
         23    2    4    4    0    0  0.13169273014E+03  0.45575605657E+03  0.37230834688E+03  0.60978261604E+03  0.90359146714E+02 0.  0.
          2    1    3    3  502    0  0.10790652101E+02 -0.51633583786E+03 -0.37076092295E+03  0.63575372403E+03  0.00000000000E+00 0. -1.
         -2    1    3    3    0  502 -0.65491986518E+02 -0.78117106461E+03 -0.66523387713E+03  0.10281310927E+04  0.00000000000E+00 0.  1.
         11    1    5    5    0    0 -0.28965688862E+01  0.12670080657E+03 -0.42421984507E+02  0.13364546108E+03  0.00000000000E+00 0.  1.
        -11    1    5    5    0    0 -0.74094826833E+02  0.71505003933E+03 -0.24835215885E+02  0.71930757681E+03  0.00000000000E+00 0. -1.
          1    1    6    6  503    0  0.49622522695E+02  0.32333763796E+03  0.24974324411E+03  0.41155960790E+03  0.00000000000E+00 0. -1.
         -1    1    6    6    0  503  0.82070207441E+02  0.13241841861E+03  0.12256510277E+03  0.19822300814E+03  0.00000000000E+00 0.  1.
<mgrwt>
<rscale>  0 0.13144425E+04</rscale>
<asrwt>0</asrwt>
<pdfrwt beam="1">  1        2 0.18428283E+00 0.13144425E+04</pdfrwt>
<pdfrwt beam="2">  1       -2 0.29673570E+00 0.13144425E+04</pdfrwt>
<totfact> 0.60894369E-01</totfact>
</mgrwt>
</event>
<event>
12    1  0.1444206E-007  0.1089427E+04  0.7818608E-02  0.9215558E-01
         -2   -1    0    0    0  501 -0.00000000000E+00  0.00000000000E+00  0.72186905429E+03  0.72186905429E+03  0.00000000000E+00 0.  1.
          2   -1    0    0  501    0  0.00000000000E+00 -0.00000000000E+00 -0.17459781837E+04  0.17459781837E+04  0.00000000000E+00 0. -1.
         23    2    1    2    0    0  0.99458565433E+03 -0.16910235680E+03 -0.75509794437E+03  0.12636086055E+04  0.93474977525E+02 0.  0.
    5000000    2    1    2    0    0 -0.99458565433E+03  0.16910235680E+03 -0.26901118505E+03  0.12042386325E+04  0.60002286241E+03 0.  0.
         23    2    4    4    0    0 -0.98528258028E+03  0.27186547729E+03 -0.27196803436E+03  0.10615599345E+04  0.90831063120E+02 0.  0.
         23    2    4    4    0    0 -0.93030740532E+01 -0.10276312049E+03  0.29568493119E+01  0.14267869801E+03  0.98497014112E+02 0.  0.
          1    1    3    3  502    0  0.31296872127E+03 -0.84612076403E+02 -0.28104636947E+03  0.42906373158E+03  0.00000000000E+00 0. -1.
         -1    1    3    3    0  502  0.68161693306E+03 -0.84490280393E+02 -0.47405157491E+03  0.83454487392E+03  0.00000000000E+00 0.  1.
         13    1    5    5    0    0 -0.78471206823E+03  0.25284596714E+03 -0.22721842536E+03  0.85517970389E+03  0.00000000000E+00 0. -1.
        -13    1    5    5    0    0 -0.20057051205E+03  0.19019510143E+02 -0.44749609001E+02  0.20638023058E+03  0.00000000000E+00 0.  1.
          4    1    6    6  503    0  0.43065339717E+02 -0.62251085442E+02 -0.56801192790E+01  0.75908397946E+02  0.00000000000E+00 0. -1.
         -4    1    6    6    0  503 -0.52368413770E+02 -0.40512035049E+02  0.86369685909E+01  0.66770300067E+02  0.00000000000E+00 0.  1.
<mgrwt>
<rscale>  0 0.10894275E+04</rscale>
<asrwt>0</asrwt>
<pdfrwt beam="1">  1        2 0.26861202E+00 0.10894275E+04</pdfrwt>
<pdfrwt beam="2">  1       -2 0.11105678E+00 0.10894275E+04</pdfrwt>
<totfact> 0.58588168E+00</totfact>
</mgrwt>
</event>
<event>
12    1  0.1444206E-007  0.7146700E+03  0.7818608E-02  0.9692468E-01
         -2   -1    0    0    0  501 -0.00000000000E+00  0.00000000000E+00  0.13918891493E+03  0.13918891493E+03  0.00000000000E+00 0.  1.
          2   -1    0    0  501    0  0.00000000000E+00 -0.00000000000E+00 -0.39726560480E+04  0.39726560480E+04  0.00000000000E+00 0. -1.
         23    2    1    2    0    0  0.10785765161E+03 -0.58371529134E+03 -0.20943645418E+04  0.21787124117E+04  0.89822737509E+02 0.  0.
    5000000    2    1    2    0    0 -0.10785765161E+03  0.58371529134E+03 -0.17391025912E+04  0.19331325513E+04  0.60013900363E+03 0.  0.
         23    2    4    4    0    0 -0.30527779557E+03  0.52743437355E+03 -0.13376689590E+04  0.14726214551E+04  0.88736437620E+02 0.  0.
         23    2    4    4    0    0  0.19742014395E+03  0.56280917792E+02 -0.40143363219E+03  0.46051109613E+03  0.93697671560E+02 0.  0.
          4    1    3    3  502    0  0.60376112976E+02 -0.43237988909E+03 -0.14014134759E+04  0.14678410588E+04  0.00000000000E+00 0. -1.
         -4    1    3    3    0  502  0.47481538638E+02 -0.15133540226E+03 -0.69295106593E+03  0.71087135282E+03  0.00000000000E+00 0.  1.
         11    1    5    5    0    0 -0.10194057030E+03  0.13021800628E+03 -0.44253873577E+03  0.47242898057E+03  0.00000000000E+00 0. -1.
        -11    1    5    5    0    0 -0.20333722527E+03  0.39721636727E+03 -0.89513022323E+03  0.10001924746E+04  0.00000000000E+00 0.  1.
          1    1    6    6  503    0  0.77358618382E+02 -0.20503884863E+02 -0.18252572311E+03  0.19929978607E+03  0.00000000000E+00 0. -1.
         -1    1    6    6    0  503  0.12006152557E+03  0.76784802655E+02 -0.21890790909E+03  0.26121131006E+03  0.00000000000E+00 0.  1.
<mgrwt>
<rscale>  0 0.71466998E+03</rscale>
<asrwt>0</asrwt>
<pdfrwt beam="1">  1        2 0.61117773E+00 0.71466998E+03</pdfrwt>
<pdfrwt beam="2">  1       -2 0.21413684E-01 0.71466998E+03</pdfrwt>
<totfact> 0.75548791E+00</totfact>
</mgrwt>
</event>
<event>
12    1  0.1444206E-007  0.9341194E+03  0.7818608E-02  0.9383908E-01
         -1   -1    0    0    0  501 -0.00000000000E+00  0.00000000000E+00  0.67555474941E+03  0.67555474941E+03  0.00000000000E+00 0.  1.
          1   -1    0    0  501    0  0.00000000000E+00 -0.00000000000E+00 -0.14491247941E+04  0.14491247941E+04  0.00000000000E+00 0. -1.
         23    2    1    2    0    0  0.29939808475E+03  0.84462738118E+03 -0.34283287659E+03  0.96377159641E+03  0.91031217720E+02 0.  0.
    5000000    2    1    2    0    0 -0.29939808475E+03 -0.84462738118E+03 -0.43073716809E+03  0.11609079471E+04  0.59928134245E+03 0.  0.
         23    2    4    4    0    0 -0.70062931999E+02 -0.65176685775E+03 -0.44027474949E+02  0.66338170017E+03  0.91804195281E+02 0.  0.
         23    2    4    4    0    0 -0.22933515275E+03 -0.19286052343E+03 -0.38670969314E+03  0.49752624690E+03  0.90543833587E+02 0.  0.
          3    1    3    3  502    0  0.59940538701E+02  0.14917967305E+03 -0.25766482041E+02  0.16282307769E+03  0.00000000000E+00 0. -1.
         -3    1    3    3    0  502  0.23945754605E+03  0.69544770813E+03 -0.31706639454E+03  0.80094851873E+03  0.00000000000E+00 0.  1.
         11    1    5    5    0    0 -0.89627327217E+02 -0.43230023917E+03 -0.24252982147E+02  0.44215920403E+03  0.00000000000E+00 0.  1.
        -11    1    5    5    0    0  0.19564395218E+02 -0.21946661858E+03 -0.19774492801E+02  0.22122249614E+03  0.00000000000E+00 0. -1.
          1    1    6    6  503    0  0.66405507426E+01 -0.31987838340E+01 -0.23809098060E+02  0.24923929920E+02  0.00000000000E+00 0. -1.
         -1    1    6    6    0  503 -0.23597570350E+03 -0.18966173959E+03 -0.36290059508E+03  0.47260231698E+03  0.00000000000E+00 0.  1.
<mgrwt>
<rscale>  0 0.93411939E+03</rscale>
<asrwt>0</asrwt>
<pdfrwt beam="1">  1        1 0.22294228E+00 0.93411939E+03</pdfrwt>
<pdfrwt beam="2">  1       -1 0.10393150E+00 0.93411939E+03</pdfrwt>
<totfact> 0.62701991E+00</totfact>
</mgrwt>
</event>
<event>
12    1  0.1444206E-007  0.4888856E+03  0.7818608E-02  0.1016721E+00
          1   -1    0    0  501    0  0.00000000000E+00  0.00000000000E+00  0.14804796327E+04  0.14804796327E+04  0.00000000000E+00 0. -1.
         -1   -1    0    0    0  501 -0.00000000000E+00 -0.00000000000E+00 -0.24969272847E+03  0.24969272847E+03  0.00000000000E+00 0.  1.
         23    2    1    2    0    0 -0.68813337284E+02 -0.30772755489E+03  0.93396068971E+03  0.99031739230E+03  0.94944426597E+02 0.  0.
    5000000    2    1    2    0    0  0.68813337284E+02  0.30772755489E+03  0.29682621454E+03  0.73985496889E+03  0.59987336158E+03 0.  0.
         23    2    4    4    0    0  0.17849962319E+03  0.43109611804E+03  0.27281992616E+03  0.54779715806E+03  0.89134930293E+02 0.  0.
         23    2    4    4    0    0 -0.10968628590E+03 -0.12336856316E+03  0.24006288381E+02  0.19205781083E+03  0.95178869130E+02 0.  0.
          4    1    3    3  502    0 -0.69254662932E+02 -0.10124675559E+03  0.36326908529E+03  0.38342084213E+03  0.00000000000E+00 0. -1.
         -4    1    3    3    0  502  0.44132564774E+00 -0.20648079930E+03  0.57069160442E+03  0.60689655016E+03  0.00000000000E+00 0.  1.
         13    1    5    5    0    0  0.16350419448E+03  0.41377742056E+03  0.23393006116E+03  0.50266156496E+03  0.00000000000E+00 0.  1.
        -13    1    5    5    0    0  0.14995428713E+02  0.17318697486E+02  0.38889864996E+02  0.45135593098E+02  0.00000000000E+00 0. -1.
          2    1    6    6  503    0  0.86035342946E+00 -0.45682696310E+02  0.33432245167E+02  0.56615933862E+02  0.00000000000E+00 0. -1.
         -2    1    6    6    0  503 -0.11054663933E+03 -0.77685866846E+02 -0.94259567860E+01  0.13544187697E+03  0.00000000000E+00 0.  1.
<mgrwt>
<rscale>  0 0.48888564E+03</rscale>
<asrwt>0</asrwt>
<pdfrwt beam="1">  1        1 0.22776609E+00 0.48888564E+03</pdfrwt>
<pdfrwt beam="2">  1       -1 0.38414267E-01 0.48888564E+03</pdfrwt>
<totfact> 0.47184019E+01</totfact>
</mgrwt>
</event>
<event>
12    1  0.1444206E-007  0.1209853E+04  0.7818608E-02  0.9104276E-01
          1   -1    0    0  501    0  0.00000000000E+00  0.00000000000E+00  0.22861824503E+04  0.22861824503E+04  0.00000000000E+00 0. -1.
         -1   -1    0    0    0  501 -0.00000000000E+00 -0.00000000000E+00 -0.99012564348E+03  0.99012564348E+03  0.00000000000E+00 0.  1.
         23    2    1    2    0    0 -0.11107252488E+04 -0.39191333196E+03 -0.28549699003E+03  0.12152670763E+04  0.89771361957E+02 0.  0.
    5000000    2    1    2    0    0  0.11107252488E+04  0.39191333196E+03  0.15815537968E+04  0.20610410175E+04  0.59939221327E+03 0.  0.
         23    2    4    4    0    0  0.70427112806E+02 -0.32800921826E+02  0.44039059793E+03  0.45683501112E+03  0.93372747356E+02 0.  0.
         23    2    4    4    0    0  0.10402981360E+04  0.42471425379E+03  0.11411631989E+04  0.16042060063E+04  0.92849637438E+02 0.  0.
          3    1    3    3  502    0 -0.20089081459E+03 -0.88675841695E+02 -0.22002421677E+02  0.22069125684E+03  0.00000000000E+00 0. -1.
         -3    1    3    3    0  502 -0.90983443419E+03 -0.30323749027E+03 -0.26349456835E+03  0.99457581948E+03  0.00000000000E+00 0.  1.
         13    1    5    5    0    0  0.40245100645E+02 -0.60600547713E+02  0.19685329159E+03  0.20986498736E+03  0.00000000000E+00 0.  1.
        -13    1    5    5    0    0  0.30182012161E+02  0.27799625887E+02  0.24353730634E+03  0.24697002376E+03  0.00000000000E+00 0. -1.
          1    1    6    6  503    0  0.71692348483E+03  0.33734612561E+03  0.81543742743E+03  0.11369784033E+04  0.00000000000E+00 0. -1.
         -1    1    6    6    0  503  0.32337465114E+03  0.87368128181E+02  0.32572577148E+03  0.46722760303E+03  0.00000000000E+00 0.  1.
<mgrwt>
<rscale>  0 0.12098525E+04</rscale>
<asrwt>0</asrwt>
<pdfrwt beam="1">  1        1 0.35172037E+00 0.12098525E+04</pdfrwt>
<pdfrwt beam="2">  1       -1 0.15232702E+00 0.12098525E+04</pdfrwt>
<totfact> 0.62603750E-01</totfact>
</mgrwt>
</event>
<event>
12    1  0.1444206E-007  0.1006130E+04  0.7818608E-02  0.9301847E-01
         -1   -1    0    0    0  501 -0.00000000000E+00  0.00000000000E+00  0.39009710051E+03  0.39009710051E+03  0.00000000000E+00 0.  1.
          1   -1    0    0  501    0  0.00000000000E+00 -0.00000000000E+00 -0.32191874566E+04  0.32191874566E+04  0.00000000000E+00 0. -1.
         23    2    1    2    0    0  0.95918319957E+03 -0.80726906725E+02 -0.68911411578E+03  0.11872561167E+04  0.90275014033E+02 0.  0.
    5000000    2    1    2    0    0 -0.95918319957E+03  0.80726906725E+02 -0.21399762404E+04  0.24220284405E+04  0.60014516035E+03 0.  0.
         23    2    4    4    0    0 -0.86966908990E+03  0.17154362896E+03 -0.20621356539E+04  0.22464703133E+04  0.92053631941E+02 0.  0.
         23    2    4    4    0    0 -0.89514109668E+02 -0.90816722232E+02 -0.77840586465E+02  0.17555812715E+03  0.92201118433E+02 0.  0.
          3    1    3    3  502    0  0.77830303319E+03 -0.99233815428E+02 -0.57213944287E+03  0.97105432582E+03  0.00000000000E+00 0. -1.
         -3    1    3    3    0  502  0.18088016638E+03  0.18506908703E+02 -0.11697467291E+03  0.21620179084E+03  0.00000000000E+00 0.  1.
         13    1    5    5    0    0 -0.29472977852E+03  0.10249870110E+03 -0.73639853310E+03  0.79978398685E+03  0.00000000000E+00 0. -1.
        -13    1    5    5    0    0 -0.57493931138E+03  0.69044927854E+02 -0.13257371208E+04  0.14466863265E+04  0.00000000000E+00 0.  1.
          1    1    6    6  503    0  0.17645844724E+02 -0.84796785100E+01 -0.21686881293E+02  0.29216461180E+02  0.00000000000E+00 0. -1.
         -1    1    6    6    0  503 -0.10715995439E+03 -0.82337043722E+02 -0.56153705172E+02  0.14634166597E+03  0.00000000000E+00 0.  1.
<mgrwt>
<rscale>  0 0.10061298E+04</rscale>
<asrwt>0</asrwt>
<pdfrwt beam="1">  1        1 0.49525962E+00 0.10061298E+04</pdfrwt>
<pdfrwt beam="2">  1       -1 0.60014937E-01 0.10061298E+04</pdfrwt>
<totfact> 0.11945014E+00</totfact>
</mgrwt>
</event>
<event>
12    1  0.1444206E-007  0.7284137E+03  0.7818608E-02  0.9669838E-01
          1   -1    0    0  501    0  0.00000000000E+00  0.00000000000E+00  0.82318871164E+03  0.82318871164E+03  0.00000000000E+00 0. -1.
         -1   -1    0    0    0  501 -0.00000000000E+00 -0.00000000000E+00 -0.74634499008E+03  0.74634499008E+03  0.00000000000E+00 0.  1.
         23    2    1    2    0    0 -0.17247362768E+03  0.61044854875E+03  0.23365866422E+03  0.68244512867E+03  0.93490103027E+02 0.  0.
    5000000    2    1    2    0    0  0.17247362768E+03 -0.61044854875E+03 -0.15681494267E+03  0.88708857305E+03  0.59995052069E+03 0.  0.
         23    2    4    4    0    0  0.42630192410E+02  0.91198829281E+02 -0.94486579656E+02  0.16511326244E+03  0.90554491511E+02 0.  0.
         23    2    4    4    0    0  0.12984343527E+03 -0.70164737803E+03 -0.62328363009E+02  0.72197531060E+03  0.90527142366E+02 0.  0.
          2    1    3    3  502    0 -0.87002774947E+02  0.31011455769E+03  0.16834324514E+03  0.36342808082E+03  0.00000000000E+00 0. -1.
         -2    1    3    3    0  502 -0.85470852736E+02  0.30033399106E+03  0.65315419078E+02  0.31901704785E+03  0.00000000000E+00 0.  1.
         13    1    5    5    0    0  0.96051893320E+01  0.63685823750E+02 -0.35197055327E+01  0.64502187063E+02  0.00000000000E+00 0. -1.
        -13    1    5    5    0    0  0.33025003078E+02  0.27513005531E+02 -0.90966874123E+02  0.10061107538E+03  0.00000000000E+00 0.  1.
          2    1    6    6  503    0  0.22592227509E+01 -0.10179250795E+03  0.18221458373E+02  0.10343519859E+03  0.00000000000E+00 0. -1.
         -2    1    6    6    0  503  0.12758421252E+03 -0.59985487008E+03 -0.80549821383E+02  0.61854011201E+03  0.00000000000E+00 0.  1.
<mgrwt>
<rscale>  0 0.72841366E+03</rscale>
<asrwt>0</asrwt>
<pdfrwt beam="1">  1        1 0.12664442E+00 0.72841366E+03</pdfrwt>
<pdfrwt beam="2">  1       -1 0.11482231E+00 0.72841366E+03</pdfrwt>
<totfact> 0.15007935E+01</totfact>
</mgrwt>
</event>
<event>
12    1  0.1444206E-007  0.3922498E+03  0.7818608E-02  0.1046497E+00
          2   -1    0    0  501    0  0.00000000000E+00  0.00000000000E+00  0.80406595891E+03  0.80406595891E+03  0.00000000000E+00 0. -1.
         -2   -1    0    0    0  501 -0.00000000000E+00 -0.00000000000E+00 -0.52047373738E+03  0.52047373738E+03  0.00000000000E+00 0.  1.
         23    2    1    2    0    0  0.35238945681E+03  0.11463598504E+03 -0.23686594938E+03  0.44805520103E+03  0.85605180089E+02 0.  0.
    5000000    2    1    2    0    0 -0.35238945681E+03 -0.11463598504E+03  0.52045817090E+03  0.87648449526E+03  0.60002385323E+03 0.  0.
         23    2    4    4    0    0 -0.22563645758E+03 -0.11585260434E+03 -0.60092927829E+02  0.27551289153E+03  0.89233158067E+02 0.  0.
         23    2    4    4    0    0 -0.12675299922E+03  0.12166192975E+01  0.58055109873E+03  0.60097160374E+03  0.89774647260E+02 0.  0.
          4    1    3    3  502    0  0.22746438725E+03  0.66920965436E+02 -0.10194891129E+03  0.25809309095E+03  0.00000000000E+00 0. -1.
         -4    1    3    3    0  502  0.12492506955E+03  0.47715019607E+02 -0.13491703808E+03  0.18996211007E+03  0.00000000000E+00 0.  1.
         13    1    5    5    0    0 -0.10881332558E+03 -0.83390832677E+02 -0.69868650098E+02  0.15387007203E+03  0.00000000000E+00 0. -1.
        -13    1    5    5    0    0 -0.11682313200E+03 -0.32461771664E+02  0.97757222690E+01  0.12164281950E+03  0.00000000000E+00 0.  1.
          2    1    6    6  503    0 -0.10314584169E+03  0.39416117688E+02  0.41456796237E+03  0.42902131697E+03  0.00000000000E+00 0. -1.
         -2    1    6    6    0  503 -0.23607157530E+02 -0.38199498391E+02  0.16598313636E+03  0.17195028677E+03  0.00000000000E+00 0.  1.
<mgrwt>
<rscale>  0 0.39224979E+03</rscale>
<asrwt>0</asrwt>
<pdfrwt beam="1">  1        2 0.12370245E+00 0.39224979E+03</pdfrwt>
<pdfrwt beam="2">  1       -2 0.80072883E-01 0.39224979E+03</pdfrwt>
<totfact> 0.49735290E+01</totfact>
</mgrwt>
</event>
<event>
12    1  0.1444206E-007  0.1474096E+04  0.7818608E-02  0.8901864E-01
         -2   -1    0    0    0  501 -0.00000000000E+00  0.00000000000E+00  0.16293964791E+04  0.16293964791E+04  0.00000000000E+00 0.  1.
          2   -1    0    0  501    0  0.00000000000E+00 -0.00000000000E+00 -0.14130659782E+04  0.14130659782E+04  0.00000000000E+00 0. -1.
         23    2    1    2    0    0  0.13490563742E+04  0.45235532262E+03  0.41701762584E+03  0.14852490777E+04  0.86502508226E+02 0.  0.
    5000000    2    1    2    0    0 -0.13490563742E+04 -0.45235532262E+03 -0.20068712493E+03  0.15572133796E+04  0.60004978858E+03 0.  0.
         23    2    4    4    0    0 -0.11613635113E+04 -0.57554290296E+03 -0.19965583940E+03  0.13140264888E+04  0.82391264223E+02 0.  0.
         23    2    4    4    0    0 -0.18769286285E+03  0.12318758034E+03 -0.10312855327E+01  0.24318689078E+03  0.93461273190E+02 0.  0.
          3    1    3    3  502    0  0.16529521524E+03  0.27831142058E+02  0.39287480888E+02  0.17216441793E+03  0.00000000000E+00 0. -1.
         -3    1    3    3    0  502  0.11837611590E+04  0.42452418057E+03  0.37773014495E+03  0.13130846598E+04  0.00000000000E+00 0.  1.
         13    1    5    5    0    0 -0.90493565993E+03 -0.44183029602E+03 -0.12068654148E+03  0.10142424761E+04  0.00000000000E+00 0. -1.
        -13    1    5    5    0    0 -0.25642785141E+03 -0.13371260694E+03 -0.78969297914E+02  0.29978401266E+03  0.00000000000E+00 0.  1.
          1    1    6    6  503    0 -0.14958300597E+03  0.11253030470E+03 -0.35720916512E+02  0.19056266430E+03  0.00000000000E+00 0. -1.
         -1    1    6    6    0  503 -0.38109856880E+02  0.10657275643E+02  0.34689630979E+02  0.52624226484E+02  0.00000000000E+00 0.  1.
<mgrwt>
<rscale>  0 0.14740963E+04</rscale>
<asrwt>0</asrwt>
<pdfrwt beam="1">  1        2 0.21739477E+00 0.14740963E+04</pdfrwt>
<pdfrwt beam="2">  1       -2 0.25067638E+00 0.14740963E+04</pdfrwt>
<totfact> 0.85434029E-01</totfact>
</mgrwt>
</event>
<event>
12    1  0.1444206E-007  0.1256406E+04  0.7818608E-02  0.9064869E-01
          2   -1    0    0  501    0  0.00000000000E+00  0.00000000000E+00  0.18351440397E+04  0.18351440397E+04  0.00000000000E+00 0. -1.
         -2   -1    0    0    0  501 -0.00000000000E+00 -0.00000000000E+00 -0.11309803310E+04  0.11309803310E+04  0.00000000000E+00 0.  1.
         23    2    1    2    0    0  0.81488186119E+03  0.94741736223E+03  0.93159294248E+03  0.15613491578E+04  0.91179362661E+02 0.  0.
    5000000    2    1    2    0    0 -0.81488186119E+03 -0.94741736223E+03 -0.22742923380E+03  0.14047752129E+04  0.60003102965E+03 0.  0.
         23    2    4    4    0    0 -0.25248250270E+03 -0.33224467326E+03  0.19098612468E+03  0.46772045922E+03  0.90292807439E+02 0.  0.
         23    2    4    4    0    0 -0.56239935849E+03 -0.61517268897E+03 -0.41841535849E+03  0.93705475372E+03  0.90938020419E+02 0.  0.
          3    1    3    3  502    0  0.60386634565E+03  0.72231319886E+03  0.74672482318E+03  0.12016608849E+04  0.00000000000E+00 0. -1.
         -3    1    3    3    0  502  0.21101551553E+03  0.22510416337E+03  0.18486811930E+03  0.35968827294E+03  0.00000000000E+00 0.  1.
         11    1    5    5    0    0 -0.21791998485E+03 -0.23181907136E+03  0.16489095989E+03  0.35835489433E+03  0.00000000000E+00 0.  1.
        -11    1    5    5    0    0 -0.34562517849E+02 -0.10042560190E+03  0.26095164797E+02  0.10936556488E+03  0.00000000000E+00 0. -1.
          3    1    6    6  503    0 -0.31164915665E+03 -0.40632374160E+03 -0.25997483193E+03  0.57429181873E+03  0.00000000000E+00 0. -1.
         -3    1    6    6    0  503 -0.25075020184E+03 -0.20884894738E+03 -0.15844052656E+03  0.36276293498E+03  0.00000000000E+00 0.  1.
<mgrwt>
<rscale>  0 0.12564056E+04</rscale>
<asrwt>0</asrwt>
<pdfrwt beam="1">  1        2 0.28232985E+00 0.12564056E+04</pdfrwt>
<pdfrwt beam="2">  1       -2 0.17399697E+00 0.12564056E+04</pdfrwt>
<totfact> 0.15898595E+00</totfact>
</mgrwt>
</event>
<event>
12    1  0.1444206E-007  0.3187322E+03  0.7818608E-02  0.1076234E+00
          2   -1    0    0  501    0  0.00000000000E+00  0.00000000000E+00  0.21732345614E+03  0.21732345614E+03  0.00000000000E+00 0. -1.
         -2   -1    0    0    0  501 -0.00000000000E+00 -0.00000000000E+00 -0.18676962816E+04  0.18676962816E+04  0.00000000000E+00 0.  1.
         23    2    1    2    0    0  0.19534863661E+02  0.16377729961E+03  0.10979501088E+03  0.21831972197E+03  0.91673015770E+02 0.  0.
    5000000    2    1    2    0    0 -0.19534863661E+02 -0.16377729961E+03 -0.17601678363E+04  0.18667000157E+04  0.59931087258E+03 0.  0.
         23    2    4    4    0    0 -0.14183590758E+03 -0.24146170741E+03 -0.16162314029E+04  0.16427993172E+04  0.90357444679E+02 0.  0.
         23    2    4    4    0    0  0.12230104392E+03  0.77684407799E+02 -0.14393643336E+03  0.22390069856E+03  0.91768259255E+02 0.  0.
          3    1    3    3  502    0 -0.32764906831E+02  0.39684839700E+02  0.47157328471E+02  0.69801427279E+02  0.00000000000E+00 0. -1.
         -3    1    3    3    0  502  0.52299770492E+02  0.12409245991E+03  0.62637682412E+02  0.14851829469E+03  0.00000000000E+00 0.  1.
         11    1    5    5    0    0 -0.54106062333E+02 -0.80075158490E+02 -0.81886213135E+03  0.82454513954E+03  0.00000000000E+00 0.  1.
        -11    1    5    5    0    0 -0.87729845249E+02 -0.16138654892E+03 -0.79736927160E+03  0.81825417763E+03  0.00000000000E+00 0. -1.
          3    1    6    6  503    0  0.93633607681E+02  0.60266385786E+01 -0.87417516034E+02  0.12823959985E+03  0.00000000000E+00 0. -1.
         -3    1    6    6    0  503  0.28667436239E+02  0.71657769221E+02 -0.56518917323E+02  0.95661098706E+02  0.00000000000E+00 0.  1.
<mgrwt>
<rscale>  0 0.31873216E+03</rscale>
<asrwt>0</asrwt>
<pdfrwt beam="1">  1        2 0.33434379E-01 0.31873216E+03</pdfrwt>
<pdfrwt beam="2">  1       -2 0.28733788E+00 0.31873216E+03</pdfrwt>
<totfact> 0.66909319E+00</totfact>
</mgrwt>
</event>
<event>
12    1  0.1444206E-007  0.3755058E+03  0.7818608E-02  0.1052607E+00
          2   -1    0    0  501    0  0.00000000000E+00  0.00000000000E+00  0.84575955316E+03  0.84575955316E+03  0.00000000000E+00 0. -1.
         -2   -1    0    0    0  501 -0.00000000000E+00 -0.00000000000E+00 -0.21390039298E+03  0.21390039298E+03  0.00000000000E+00 0.  1.
         23    2    1    2    0    0  0.56310904452E+01  0.16434659755E+03  0.29903299676E+03  0.35366770342E+03  0.92836404417E+02 0.  0.
    5000000    2    1    2    0    0 -0.56310904452E+01 -0.16434659755E+03  0.33282616343E+03  0.70599224272E+03  0.60050835000E+03 0.  0.
         23    2    4    4    0    0  0.17564229457E+03 -0.30460247679E+03  0.26355127971E+03  0.44855131122E+03  0.90033978348E+02 0.  0.
         23    2    4    4    0    0 -0.18127338501E+03  0.14025587923E+03  0.69274883718E+02  0.25744093150E+03  0.94578390374E+02 0.  0.
          1    1    3    3  502    0  0.15940615606E+02  0.12750335822E+03  0.13971167555E+03  0.18981718012E+03  0.00000000000E+00 0. -1.
         -1    1    3    3    0  502 -0.10309525161E+02  0.36843239328E+02  0.15932132121E+03  0.16385052330E+03  0.00000000000E+00 0.  1.
         11    1    5    5    0    0  0.14090586881E+03 -0.20250112392E+03  0.22536633280E+03  0.33414241426E+03  0.00000000000E+00 0.  1.
        -11    1    5    5    0    0  0.34736425758E+02 -0.10210135287E+03  0.38184946912E+02  0.11440889696E+03  0.00000000000E+00 0. -1.
          1    1    6    6  503    0 -0.80569750579E+02  0.52795252030E+02 -0.18067880837E+02  0.98006487863E+02  0.00000000000E+00 0. -1.
         -1    1    6    6    0  503 -0.10070363443E+03  0.87460627205E+02  0.87342764555E+02  0.15943444364E+03  0.00000000000E+00 0.  1.
<mgrwt>
<rscale>  0 0.37550576E+03</rscale>
<asrwt>0</asrwt>
<pdfrwt beam="1">  1        2 0.13011685E+00 0.37550576E+03</pdfrwt>
<pdfrwt beam="2">  1       -2 0.32907753E-01 0.37550576E+03</pdfrwt>
<totfact> 0.28397122E+02</totfact>
</mgrwt>
</event>
<event>
12    1  0.1444206E-007  0.6856281E+03  0.7818608E-02  0.9742131E-01
          1   -1    0    0  501    0  0.00000000000E+00  0.00000000000E+00  0.18242997687E+04  0.18242997687E+04  0.00000000000E+00 0. -1.
         -1   -1    0    0    0  501 -0.00000000000E+00 -0.00000000000E+00 -0.28377846734E+03  0.28377846734E+03  0.00000000000E+00 0.  1.
         23    2    1    2    0    0 -0.24529645574E+03  0.52337839437E+03  0.46259493953E+03  0.74562078917E+03  0.88662214424E+02 0.  0.
    5000000    2    1    2    0    0  0.24529645574E+03 -0.52337839437E+03  0.10779263618E+04  0.13624574469E+04  0.60022475631E+03 0.  0.
         23    2    4    4    0    0  0.41226616229E+03 -0.35502097998E+03  0.56137922113E+03  0.78714829945E+03  0.91937645282E+02 0.  0.
         23    2    4    4    0    0 -0.16696970654E+03 -0.16835741439E+03  0.51654714069E+03  0.57530914740E+03  0.89087398927E+02 0.  0.
          3    1    3    3  502    0 -0.15021770128E+03  0.36824256552E+03  0.36161149206E+03  0.53752285163E+03  0.00000000000E+00 0. -1.
         -3    1    3    3    0  502 -0.95078754463E+02  0.15513582885E+03  0.10098344747E+03  0.20809793754E+03  0.00000000000E+00 0.  1.
         13    1    5    5    0    0  0.38213922502E+03 -0.33302471389E+03  0.55043324791E+03  0.74827308369E+03  0.00000000000E+00 0. -1.
        -13    1    5    5    0    0  0.30126937266E+02 -0.21996266093E+02  0.10945973212E+02  0.38875215763E+02  0.00000000000E+00 0.  1.
          2    1    6    6  503    0 -0.14419569528E+03 -0.17188958697E+03  0.49619747892E+03  0.54456438255E+03  0.00000000000E+00 0. -1.
         -2    1    6    6    0  503 -0.22774011264E+02  0.35321725820E+01  0.20349661767E+02  0.30744764859E+02  0.00000000000E+00 0.  1.
<mgrwt>
<rscale>  0 0.68562812E+03</rscale>
<asrwt>0</asrwt>
<pdfrwt beam="1">  1        1 0.28066150E+00 0.68562812E+03</pdfrwt>
<pdfrwt beam="2">  1       -1 0.43658227E-01 0.68562812E+03</pdfrwt>
<totfact> 0.21294824E+01</totfact>
</mgrwt>
</event>
<event>
12    1  0.1877458E-007  0.1372477E+04  0.7818608E-02  0.8973986E-01
          1   -1    0    0  501    0  0.00000000000E+00  0.00000000000E+00  0.29546127645E+04  0.29546127645E+04  0.00000000000E+00 0.  1.
         -1   -1    0    0    0  501 -0.00000000000E+00 -0.00000000000E+00 -0.98006128183E+03  0.98006128183E+03  0.00000000000E+00 0. -1.
         23    2    1    2    0    0 -0.12411241102E+04 -0.52506452823E+03 -0.13836860838E+03  0.13577660993E+04  0.91110333709E+02 0.  0.
    5000000    2    1    2    0    0  0.12411241102E+04  0.52506452823E+03  0.21129200911E+04  0.25769079471E+04  0.59995119874E+03 0.  0.
         23    2    4    4    0    0  0.56400496177E+03  0.41756127454E+03  0.65902798698E+03  0.96692533233E+03  0.90375305116E+02 0.  0.
         23    2    4    4    0    0  0.67711914839E+03  0.10750325369E+03  0.14538921041E+04  0.16099826147E+04  0.90523360633E+02 0.  0.
          3    1    3    3  502    0 -0.54661942586E+03 -0.27270456124E+03 -0.87231230447E+02  0.61706552489E+03  0.00000000000E+00 0. -1.
         -3    1    3    3    0  502 -0.69450468430E+03 -0.25235996699E+03 -0.51137377930E+02  0.74070057437E+03  0.00000000000E+00 0.  1.
         13    1    5    5    0    0  0.42919246143E+03  0.27984196862E+03  0.51382886584E+03  0.72562924399E+03  0.00000000000E+00 0. -1.
        -13    1    5    5    0    0  0.13481250033E+03  0.13771930592E+03  0.14519912113E+03  0.24129608834E+03  0.00000000000E+00 0.  1.
          1    1    6    6  503    0  0.39891945896E+03  0.10226267318E+03  0.81535555526E+03  0.91345447098E+03  0.00000000000E+00 0. -1.
         -1    1    6    6    0  503  0.27819968943E+03  0.52405805126E+01  0.63853654881E+03  0.69652814376E+03  0.00000000000E+00 0.  1.
<mgrwt>
<rscale>  0 0.13724771E+04</rscale>
<asrwt>0</asrwt>
<pdfrwt beam="1">  1        1 0.45455581E+00 0.13724771E+04</pdfrwt>
<pdfrwt beam="2">  1       -1 0.15077866E+00 0.13724771E+04</pdfrwt>
<totfact> 0.21471745E-01</totfact>
</mgrwt>
</event>
<event>
12    1  0.1444206E-007  0.9300344E+03  0.7818608E-02  0.9388797E-01
          2   -1    0    0  501    0  0.00000000000E+00  0.00000000000E+00  0.37517886994E+04  0.37517886994E+04  0.00000000000E+00 0. -1.
         -2   -1    0    0    0  501 -0.00000000000E+00 -0.00000000000E+00 -0.28582975119E+03  0.28582975119E+03  0.00000000000E+00 0.  1.
         23    2    1    2    0    0 -0.56052809723E+03  0.66114200726E+03  0.23299544623E+04  0.24877870300E+04  0.95372998280E+02 0.  0.
    5000000    2    1    2    0    0  0.56052809723E+03 -0.66114200726E+03  0.11360044860E+04  0.15498314206E+04  0.60014226534E+03 0.  0.
         23    2    4    4    0    0 -0.46907765412E+00 -0.35183048065E+03  0.63026647907E+03  0.72793088151E+03  0.94141523584E+02 0.  0.
         23    2    4    4    0    0  0.56099717488E+03 -0.30931152661E+03  0.50573800688E+03  0.82190053910E+03  0.96737344626E+02 0.  0.
          3    1    3    3  502    0 -0.48738960378E+03  0.58563720916E+03  0.19502184041E+04  0.20937696603E+04  0.00000000000E+00 0. -1.
         -3    1    3    3    0  502 -0.73138493449E+02  0.75504798104E+02  0.37973605816E+03  0.39401736970E+03  0.00000000000E+00 0.  1.
         11    1    5    5    0    0  0.69667196459E+01 -0.23482043629E+03  0.32576342124E+03  0.40163538079E+03  0.00000000000E+00 0. -1.
        -11    1    5    5    0    0 -0.74357973001E+01 -0.11701004437E+03  0.30450305783E+03  0.32629550072E+03  0.00000000000E+00 0.  1.
          4    1    6    6  503    0  0.53478644965E+02 -0.23692442304E+02  0.15117265431E+02  0.60413814676E+02  0.00000000000E+00 0. -1.
         -4    1    6    6    0  503  0.50751852992E+03 -0.28561908430E+03  0.49062074145E+03  0.76148672442E+03  0.00000000000E+00 0.  1.
<mgrwt>
<rscale>  0 0.93003437E+03</rscale>
<asrwt>0</asrwt>
<pdfrwt beam="1">  1        2 0.57719822E+00 0.93003437E+03</pdfrwt>
<pdfrwt beam="2">  1       -2 0.43973811E-01 0.93003437E+03</pdfrwt>
<totfact> 0.27716811E+00</totfact>
</mgrwt>
</event>
<event>
12    1  0.1444206E-007  0.6865077E+03  0.7818608E-02  0.9740588E-01
         -2   -1    0    0    0  501 -0.00000000000E+00  0.00000000000E+00  0.26696343424E+03  0.26696343424E+03  0.00000000000E+00 0.  1.
          2   -1    0    0  501    0  0.00000000000E+00 -0.00000000000E+00 -0.25925366879E+04  0.25925366879E+04  0.00000000000E+00 0. -1.
         23    2    1    2    0    0 -0.25331513594E+03  0.61124518531E+03 -0.52820026152E+03  0.85226739503E+03  0.97851733206E+02 0.  0.
    5000000    2    1    2    0    0  0.25331513594E+03 -0.61124518531E+03 -0.17973729921E+04  0.20072327271E+04  0.60053668766E+03 0.  0.
         23    2    4    4    0    0  0.18011910402E+03 -0.20257811439E+03 -0.18907722963E+03  0.34367974761E+03  0.94259143254E+02 0.  0.
         23    2    4    4    0    0  0.73196031916E+02 -0.40866707092E+03 -0.16082957625E+04  0.16635529795E+04  0.91797723010E+02 0.  0.
          1    1    3    3  502    0 -0.97398913055E+02  0.29517603324E+03 -0.19294362064E+03  0.36584515797E+03  0.00000000000E+00 0. -1.
         -1    1    3    3    0  502 -0.15591622289E+03  0.31606915208E+03 -0.33525664088E+03  0.48642223706E+03  0.00000000000E+00 0.  1.
         11    1    5    5    0    0  0.88811837301E+02 -0.33928411921E+02 -0.57615775167E+02  0.11116769822E+03  0.00000000000E+00 0. -1.
        -11    1    5    5    0    0  0.91307266724E+02 -0.16864970247E+03 -0.13146145446E+03  0.23251204939E+03  0.00000000000E+00 0.  1.
          4    1    6    6  503    0  0.32910016200E+02 -0.38943315073E+02 -0.14382113449E+03  0.15259151248E+03  0.00000000000E+00 0. -1.
         -4    1    6    6    0  503  0.40286015716E+02 -0.36972375585E+03 -0.14644746280E+04  0.15109614670E+04  0.00000000000E+00 0.  1.
<mgrwt>
<rscale>  0 0.68650767E+03</rscale>
<asrwt>0</asrwt>
<pdfrwt beam="1">  1        2 0.39885180E+00 0.68650767E+03</pdfrwt>
<pdfrwt beam="2">  1       -2 0.41071297E-01 0.68650767E+03</pdfrwt>
<totfact> 0.18290098E+01</totfact>
</mgrwt>
</event>
<event>
12    1  0.1444206E-007  0.1145571E+04  0.7818608E-02  0.9161880E-01
          2   -1    0    0  501    0  0.00000000000E+00  0.00000000000E+00  0.81675026326E+03  0.81675026326E+03  0.00000000000E+00 0. -1.
         -2   -1    0    0    0  501 -0.00000000000E+00 -0.00000000000E+00 -0.17936583588E+04  0.17936583588E+04  0.00000000000E+00 0.  1.
         23    2    1    2    0    0  0.47595963941E+02  0.10997563043E+04 -0.16439683896E+03  0.11163502442E+04  0.86499956493E+02 0.  0.
    5000000    2    1    2    0    0 -0.47595963941E+02 -0.10997563043E+04 -0.81251125663E+03  0.14940583779E+04  0.60025543712E+03 0.  0.
         23    2    4    4    0    0 -0.23856156330E+03 -0.45841749061E+03 -0.57337179116E+03  0.77747110061E+03  0.92994011677E+02 0.  0.
         23    2    4    4    0    0  0.19096559936E+03 -0.64133881368E+03 -0.23913946546E+03  0.71658727728E+03  0.92338009206E+02 0.  0.
          1    1    3    3  502    0  0.34641313465E+00  0.28994961686E+03 -0.80024106490E+02  0.30079022247E+03  0.00000000000E+00 0. -1.
         -1    1    3    3    0  502  0.47249550806E+02  0.80980668743E+03 -0.84372732472E+02  0.81556002173E+03  0.00000000000E+00 0.  1.
         13    1    5    5    0    0 -0.13455069404E+03 -0.32332011264E+03 -0.43106039543E+03  0.55538531581E+03  0.00000000000E+00 0. -1.
        -13    1    5    5    0    0 -0.10401086926E+03 -0.13509737797E+03 -0.14231139573E+03  0.22208578481E+03  0.00000000000E+00 0.  1.
          1    1    6    6  503    0  0.11531732706E+03 -0.41063853178E+03 -0.19839007058E+03  0.47040483608E+03  0.00000000000E+00 0. -1.
         -1    1    6    6    0  503  0.75648272299E+02 -0.23070028190E+03 -0.40749394881E+02  0.24618244120E+03  0.00000000000E+00 0.  1.
<mgrwt>
<rscale>  0 0.11455706E+04</rscale>
<asrwt>0</asrwt>
<pdfrwt beam="1">  1        2 0.12565389E+00 0.11455706E+04</pdfrwt>
<pdfrwt beam="2">  1       -2 0.27594744E+00 0.11455706E+04</pdfrwt>
<totfact> 0.14696430E+00</totfact>
</mgrwt>
</event>
<event>
12    1  0.1444206E-007  0.4657846E+03  0.7818608E-02  0.1023117E+00
         -1   -1    0    0    0  501 -0.00000000000E+00  0.00000000000E+00  0.25989507195E+03  0.25989507195E+03  0.00000000000E+00 0.  1.
          1   -1    0    0  501    0  0.00000000000E+00 -0.00000000000E+00 -0.10545434520E+04  0.10545434520E+04  0.00000000000E+00 0. -1.
         23    2    1    2    0    0  0.19473190887E+03 -0.28179522339E+03 -0.30506811609E+03  0.46766827369E+03  0.91203039999E+02 0.  0.
    5000000    2    1    2    0    0 -0.19473190887E+03  0.28179522339E+03 -0.48958026391E+03  0.84677025022E+03  0.60000163133E+03 0.  0.
         23    2    4    4    0    0  0.37965845293E+02  0.33265811425E+03 -0.47880316131E+03  0.59136660623E+03  0.91428492838E+02 0.  0.
         23    2    4    4    0    0 -0.23269775416E+03 -0.50862890863E+02 -0.10777102599E+02  0.25540364399E+03  0.91540138544E+02 0.  0.
          3    1    3    3  502    0  0.84818753602E+02 -0.15273169952E+03 -0.98904481284E+02  0.20075679171E+03  0.00000000000E+00 0. -1.
         -3    1    3    3    0  502  0.10991315526E+03 -0.12906352386E+03 -0.20616363481E+03  0.26691148197E+03  0.00000000000E+00 0.  1.
         13    1    5    5    0    0  0.56875135967E+02  0.27091090782E+03 -0.42556033220E+03  0.50767026445E+03  0.00000000000E+00 0. -1.
        -13    1    5    5    0    0 -0.18909290675E+02  0.61747206430E+02 -0.53242829105E+02  0.83696341777E+02  0.00000000000E+00 0.  1.
          3    1    6    6  503    0 -0.19207892257E+03 -0.65245643505E+02  0.17895764400E+02  0.20364568464E+03  0.00000000000E+00 0. -1.
         -3    1    6    6    0  503 -0.40618831590E+02  0.14382752642E+02 -0.28672866999E+02  0.51757959342E+02  0.00000000000E+00 0.  1.
<mgrwt>
<rscale>  0 0.46578461E+03</rscale>
<asrwt>0</asrwt>
<pdfrwt beam="1">  1        1 0.16223746E+00 0.46578461E+03</pdfrwt>
<pdfrwt beam="2">  1       -1 0.39983857E-01 0.46578461E+03</pdfrwt>
<totfact> 0.88067834E+01</totfact>
</mgrwt>
</event>
<event>
12    1  0.1444206E-007  0.1282202E+04  0.7818608E-02  0.9043799E-01
          2   -1    0    0  501    0  0.00000000000E+00  0.00000000000E+00  0.20247068940E+04  0.20247068940E+04  0.00000000000E+00 0.  1.
         -2   -1    0    0    0  501 -0.00000000000E+00 -0.00000000000E+00 -0.88231832958E+03  0.88231832958E+03  0.00000000000E+00 0. -1.
         23    2    1    2    0    0  0.91105648663E+02 -0.12638460956E+04  0.52406129694E+03  0.13747291624E+04  0.98147003020E+02 0.  0.
    5000000    2    1    2    0    0 -0.91105648663E+02  0.12638460956E+04  0.61832726750E+03  0.15322960612E+04  0.59999618074E+03 0.  0.
         23    2    4    4    0    0  0.36477694749E+02  0.88518909071E+03  0.67705941920E+03  0.11187370526E+04  0.90954862985E+02 0.  0.
         23    2    4    4    0    0 -0.12758334341E+03  0.37865700492E+03 -0.58732151697E+02  0.41355900869E+03  0.89010960762E+02 0.  0.
          1    1    3    3  502    0  0.55628448713E+02 -0.93945180040E+03  0.43301669327E+03  0.10359380610E+04  0.00000000000E+00 0. -1.
         -1    1    3    3    0  502  0.35477199949E+02 -0.32439429524E+03  0.91044603672E+02  0.33879110136E+03  0.00000000000E+00 0.  1.
         13    1    5    5    0    0  0.59644999280E+02  0.37637453294E+03  0.27852824925E+03  0.47200985225E+03  0.00000000000E+00 0. -1.
        -13    1    5    5    0    0 -0.23167304531E+02  0.50881455778E+03  0.39853116994E+03  0.64672720031E+03  0.00000000000E+00 0.  1.
          4    1    6    6  503    0 -0.10604598841E+03  0.36712771816E+03 -0.66594057797E+02  0.38789596754E+03  0.00000000000E+00 0. -1.
         -4    1    6    6    0  503 -0.21537354998E+02  0.11529286756E+02  0.78619060998E+01  0.25663041148E+02  0.00000000000E+00 0.  1.
<mgrwt>
<rscale>  0 0.12822024E+04</rscale>
<asrwt>0</asrwt>
<pdfrwt beam="1">  1        2 0.31149337E+00 0.12822024E+04</pdfrwt>
<pdfrwt beam="2">  1       -2 0.13574128E+00 0.12822024E+04</pdfrwt>
<totfact> 0.24331494E+00</totfact>
</mgrwt>
</event>
