<event>
12    6  0.1538774E-007  0.2067750E+04  0.7818608E-02  0.8575584E-01
          2   -1    0    0  501    0  0.00000000000E+00  0.00000000000E+00  0.19441912758E+04  0.19441912758E+04  0.00000000000E+00 0. -1.
         -1   -1    0    0    0  501 -0.00000000000E+00 -0.00000000000E+00 -0.54979033222E+03  0.54979033222E+03  0.00000000000E+00 0.  1.
         24    2    1    2    0    0  0.60097008198E+03 -0.40325442379E+03  0.55551378162E+02  0.73028348597E+03  0.80304698091E+02 0.  0.
        254    2    1    2    0    0 -0.60097008198E+03  0.40325442379E+03  0.13388495654E+04  0.17636981220E+04  0.89125402503E+03 0.  0.
         23    2    4    4    0    0 -0.79741957784E+03  0.16766852641E+03  0.10535786636E+04  0.13348731964E+04  0.88700237433E+02 0.  0.
         23    2    4    4    0    0  0.19644949587E+03  0.23558589738E+03  0.28527090172E+03  0.42882492559E+03  0.91750803654E+02 0.  0.
          4    1    3    3  502    0  0.29650763681E+03 -0.17984740262E+03  0.63556070104E+02  0.35256381120E+03  0.00000000000E+00 0. -1.
         -3    1    3    3    0  502  0.30446244516E+03 -0.22340702116E+03 -0.80046919423E+01  0.37771967478E+03  0.00000000000E+00 0.  1.
         11    1    5    5    0    0 -0.38509658535E+03  0.90652154768E+02  0.44103070553E+03  0.59247386140E+03  0.00000000000E+00 0.  1.
        -11    1    5    5    0    0 -0.41232299249E+03  0.77016371640E+02  0.61254795811E+03  0.74239933501E+03  0.00000000000E+00 0. -1.
          3    1    6    6  503    0  0.14598649587E+03  0.21071112426E+03  0.19347577646E+03  0.32116056878E+03  0.00000000000E+00 0. -1.
         -3    1    6    6    0  503  0.50462999999E+02  0.24874773122E+02  0.91795125259E+02  0.10766435681E+03  0.00000000000E+00 0.  1.
<mgrwt>
<rscale>  0 0.20677501E+04</rscale>
<asrwt>0</asrwt>
<pdfrwt beam="1">  1        2 0.29910635E+00 0.20677501E+04</pdfrwt>
<pdfrwt beam="2">  1       -1 0.84583129E-01 0.20677501E+04</pdfrwt>
<totfact> 0.10445511E+01</totfact>
</mgrwt>
</event>
<event>
12    6  0.1538774E-007  0.1732265E+04  0.7818608E-02  0.8743173E-01
          2   -1    0    0  501    0  0.00000000000E+00  0.00000000000E+00  0.10359342259E+04  0.10359342259E+04  0.00000000000E+00 0. -1.
         -1   -1    0    0    0  501 -0.00000000000E+00 -0.00000000000E+00 -0.72416365910E+03  0.72416365910E+03  0.00000000000E+00 0.  1.
         24    2    1    2    0    0  0.42602523210E+02 -0.21927038634E+02 -0.55268295129E+03  0.56055368597E+03  0.80412811183E+02 0.  0.
        254    2    1    2    0    0 -0.42602523210E+02  0.21927038634E+02  0.86445351810E+03  0.11995441990E+04  0.83025937541E+03 0.  0.
         23    2    4    4    0    0 -0.39347099762E+03  0.13798818752E+03  0.59964124763E+03  0.73561109090E+03  0.87714795417E+02 0.  0.
         23    2    4    4    0    0  0.35086847442E+03 -0.11606114889E+03  0.26481227047E+03  0.46393310812E+03  0.92355365842E+02 0.  0.
          2    1    3    3  502    0  0.15545869510E+02  0.21383469304E+02 -0.36776107231E+03  0.36871009360E+03  0.00000000000E+00 0. -1.
         -1    1    3    3    0  502  0.27056653700E+02 -0.43310507938E+02 -0.18492187898E+03  0.19184359237E+03  0.00000000000E+00 0.  1.
         11    1    5    5    0    0 -0.26677144184E+03  0.10667237950E+03  0.47506677364E+03  0.55518865095E+03  0.00000000000E+00 0.  1.
        -11    1    5    5    0    0 -0.12669955579E+03  0.31315808016E+02  0.12457447399E+03  0.18042243995E+03  0.00000000000E+00 0. -1.
          3    1    6    6  503    0  0.20092809814E+03 -0.19970283979E+02  0.15678591086E+03  0.25564180939E+03  0.00000000000E+00 0. -1.
         -3    1    6    6    0  503  0.14994037628E+03 -0.96090864907E+02  0.10802635961E+03  0.20829129873E+03  0.00000000000E+00 0.  1.
<mgrwt>
<rscale>  0 0.17322655E+04</rscale>
<asrwt>0</asrwt>
<pdfrwt beam="1">  1        2 0.15937450E+00 0.17322655E+04</pdfrwt>
<pdfrwt beam="2">  1       -1 0.11140979E+00 0.17322655E+04</pdfrwt>
<totfact> 0.19158697E+01</totfact>
</mgrwt>
</event>
<event>
12    6  0.1538774E-007  0.2305452E+04  0.7818608E-02  0.8475775E-01
         -1   -1    0    0    0  501 -0.00000000000E+00  0.00000000000E+00  0.85441045790E+03  0.85441045790E+03  0.00000000000E+00 0.  1.
          2   -1    0    0  501    0  0.00000000000E+00 -0.00000000000E+00 -0.15551971120E+04  0.15551971120E+04  0.00000000000E+00 0. -1.
         24    2    1    2    0    0  0.62873046747E+03 -0.33707634349E+03  0.39675436570E+03  0.82003759913E+03  0.78263498636E+02 0.  0.
        254    2    1    2    0    0 -0.62873046747E+03  0.33707634349E+03 -0.10975410198E+04  0.15895699708E+04  0.90178375446E+03 0.  0.
         23    2    4    4    0    0 -0.36844765420E+03  0.10146481842E+03 -0.11573577435E+04  0.12222667258E+04  0.91707248639E+02 0.  0.
         23    2    4    4    0    0 -0.26028281327E+03  0.23561152507E+03  0.59816723622E+02  0.36730324498E+03  0.89853768555E+02 0.  0.
          2    1    3    3  502    0  0.18078967049E+03 -0.71805477245E+02  0.77830264185E+02  0.20951964476E+03  0.00000000000E+00 0. -1.
         -1    1    3    3    0  502  0.44794079698E+03 -0.26527086624E+03  0.31892410152E+03  0.61051795437E+03  0.00000000000E+00 0.  1.
         11    1    5    5    0    0 -0.21406919291E+03  0.10530714702E+03 -0.70817731729E+03  0.74728195970E+03  0.00000000000E+00 0.  1.
        -11    1    5    5    0    0 -0.15437846130E+03 -0.38423285985E+01 -0.44918042617E+03  0.47498476613E+03  0.00000000000E+00 0. -1.
          1    1    6    6  503    0 -0.25001382814E+03  0.18601709279E+03  0.48028647007E+02  0.31530306691E+03  0.00000000000E+00 0. -1.
         -1    1    6    6    0  503 -0.10268985121E+02  0.49594432284E+02  0.11788076615E+02  0.52000178070E+02  0.00000000000E+00 0.  1.
<mgrwt>
<rscale>  0 0.23054515E+04</rscale>
<asrwt>0</asrwt>
<pdfrwt beam="1">  1        2 0.23926109E+00 0.23054515E+04</pdfrwt>
<pdfrwt beam="2">  1       -1 0.13144776E+00 0.23054515E+04</pdfrwt>
<totfact> 0.60143606E+00</totfact>
</mgrwt>
</event>
<event>
12    6  0.1538774E-007  0.2125732E+04  0.7818608E-02  0.8549992E-01
         -1   -1    0    0    0  501 -0.00000000000E+00  0.00000000000E+00  0.10589279221E+04  0.10589279221E+04  0.00000000000E+00 0.  1.
          2   -1    0    0  501    0  0.00000000000E+00 -0.00000000000E+00 -0.10668184666E+04  0.10668184666E+04  0.00000000000E+00 0. -1.
         24    2    1    2    0    0  0.38910793414E+03 -0.75239352433E+03  0.18665740178E+03  0.87091222084E+03  0.78397135821E+02 0.  0.
        254    2    1    2    0    0 -0.38910793414E+03  0.75239352433E+03 -0.19454794630E+03  0.12548341679E+04  0.90512920933E+03 0.  0.
         23    2    4    4    0    0 -0.34767414539E+03  0.94897565862E+03 -0.19976651342E+03  0.10342319703E+04  0.91087850648E+02 0.  0.
         23    2    4    4    0    0 -0.41433788748E+02 -0.19658213429E+03  0.52185671194E+01  0.22060219754E+03  0.90976929749E+02 0.  0.
          2    1    3    3  502    0  0.17089720364E+03 -0.27253804246E+03  0.98663449038E+02  0.33647780755E+03  0.00000000000E+00 0. -1.
         -1    1    3    3    0  502  0.21821073050E+03 -0.47985548187E+03  0.87993952737E+02  0.53443441328E+03  0.00000000000E+00 0.  1.
         11    1    5    5    0    0 -0.33448694202E+02  0.94944050278E+02 -0.48510981659E+02  0.11174302291E+03  0.00000000000E+00 0.  1.
        -11    1    5    5    0    0 -0.31422545119E+03  0.85403160834E+03 -0.15125553176E+03  0.92248894742E+03  0.00000000000E+00 0. -1.
          1    1    6    6  503    0 -0.65315077531E+02 -0.13327579424E+03 -0.16990835096E+02  0.14938937432E+03  0.00000000000E+00 0. -1.
         -1    1    6    6    0  503  0.23881288783E+02 -0.63306340052E+02  0.22209402215E+02  0.71212823224E+02  0.00000000000E+00 0.  1.
<mgrwt>
<rscale>  0 0.21257317E+04</rscale>
<asrwt>0</asrwt>
<pdfrwt beam="1">  1        2 0.16412592E+00 0.21257317E+04</pdfrwt>
<pdfrwt beam="2">  1       -1 0.16291199E+00 0.21257317E+04</pdfrwt>
<totfact> 0.66564911E+00</totfact>
</mgrwt>
</event>
<event>
12    6  0.1538774E-007  0.2053607E+04  0.7818608E-02  0.8581960E-01
         -1   -1    0    0    0  501 -0.00000000000E+00  0.00000000000E+00  0.51756392958E+03  0.51756392958E+03  0.00000000000E+00 0.  1.
          2   -1    0    0  501    0  0.00000000000E+00 -0.00000000000E+00 -0.20370930741E+04  0.20370930741E+04  0.00000000000E+00 0. -1.
         24    2    1    2    0    0 -0.72213138867E+02 -0.30273980910E+03  0.33649963995E+03  0.46490114426E+03  0.77684855715E+02 0.  0.
        254    2    1    2    0    0  0.72213138867E+02  0.30273980910E+03 -0.18560287845E+04  0.20897558595E+04  0.90849907751E+03 0.  0.
         23    2    4    4    0    0  0.16865362258E+02  0.62055395670E+03 -0.12100914734E+04  0.13630502800E+04  0.90625813789E+02 0.  0.
         23    2    4    4    0    0  0.55347776608E+02 -0.31781414760E+03 -0.64593731106E+03  0.72670557946E+03  0.82442589714E+02 0.  0.
          4    1    3    3  502    0 -0.13344097271E+02 -0.79116817659E+02  0.42304693469E+02  0.90704039921E+02  0.00000000000E+00 0. -1.
         -3    1    3    3    0  502 -0.58869041596E+02 -0.22362299144E+03  0.29419494648E+03  0.37419710433E+03  0.00000000000E+00 0.  1.
         11    1    5    5    0    0 -0.30760167318E+01  0.29836474390E+02 -0.11254893068E+03  0.11647720326E+03  0.00000000000E+00 0. -1.
        -11    1    5    5    0    0  0.19941378990E+02  0.59071748231E+03 -0.10975425427E+04  0.12465730767E+04  0.00000000000E+00 0.  1.
          1    1    6    6  503    0  0.12486070272E+02 -0.20157369045E+03 -0.32444778345E+03  0.38217040547E+03  0.00000000000E+00 0. -1.
         -1    1    6    6    0  503  0.42861706336E+02 -0.11624045715E+03 -0.32148952761E+03  0.34453517398E+03  0.00000000000E+00 0.  1.
<mgrwt>
<rscale>  0 0.20536075E+04</rscale>
<asrwt>0</asrwt>
<pdfrwt beam="1">  1        2 0.31339893E+00 0.20536075E+04</pdfrwt>
<pdfrwt beam="2">  1       -1 0.79625221E-01 0.20536075E+04</pdfrwt>
<totfact> 0.10570224E+01</totfact>
</mgrwt>
</event>
<event>
12    6  0.1538774E-007  0.2333126E+04  0.7818608E-02  0.8464973E-01
          2   -1    0    0  501    0  0.00000000000E+00  0.00000000000E+00  0.14377076023E+04  0.14377076023E+04  0.00000000000E+00 0. -1.
         -1   -1    0    0    0  501 -0.00000000000E+00 -0.00000000000E+00 -0.94655504744E+03  0.94655504744E+03  0.00000000000E+00 0.  1.
         24    2    1    2    0    0 -0.96118930453E+03 -0.57390294737E+02  0.44520058845E+03  0.10637235240E+04  0.78266509673E+02 0.  0.
        254    2    1    2    0    0  0.96118930453E+03  0.57390294737E+02  0.45951966410E+02  0.13205391257E+04  0.90251508256E+03 0.  0.
         23    2    4    4    0    0  0.71927939347E+03  0.21516838761E+03 -0.34073267118E+03  0.82958700774E+03  0.91954169590E+02 0.  0.
         23    2    4    4    0    0  0.24190991106E+03 -0.15777809287E+03  0.38668463759E+03  0.49095211797E+03  0.89970225818E+02 0.  0.
          4    1    3    3  502    0 -0.85754477606E+03 -0.28611563894E+02  0.38477589984E+03  0.94034789182E+03  0.00000000000E+00 0. -1.
         -3    1    3    3    0  502 -0.10364452847E+03 -0.28778730843E+02  0.60424688608E+02  0.12337563221E+03  0.00000000000E+00 0.  1.
         11    1    5    5    0    0  0.45529404697E+03  0.16327129284E+03 -0.25756549109E+03  0.54798737802E+03  0.00000000000E+00 0.  1.
        -11    1    5    5    0    0  0.26398534651E+03  0.51897094763E+02 -0.83167180091E+02  0.28159962972E+03  0.00000000000E+00 0. -1.
          1    1    6    6  503    0  0.36283057028E+02 -0.27238694996E+02  0.17427196197E+02  0.48601583304E+02  0.00000000000E+00 0. -1.
         -1    1    6    6    0  503  0.20562685403E+03 -0.13053939787E+03  0.36925744139E+03  0.44235053467E+03  0.00000000000E+00 0.  1.
<mgrwt>
<rscale>  0 0.23331261E+04</rscale>
<asrwt>0</asrwt>
<pdfrwt beam="1">  1        2 0.22118579E+00 0.23331261E+04</pdfrwt>
<pdfrwt beam="2">  1       -1 0.14562385E+00 0.23331261E+04</pdfrwt>
<totfact> 0.53583411E+00</totfact>
</mgrwt>
</event>
<event>
12    6  0.1538774E-007  0.2082389E+04  0.7818608E-02  0.8569041E-01
         -1   -1    0    0    0  501 -0.00000000000E+00  0.00000000000E+00  0.36158145056E+03  0.36158145056E+03  0.00000000000E+00 0.  1.
          2   -1    0    0  501    0  0.00000000000E+00 -0.00000000000E+00 -0.29981798062E+04  0.29981798062E+04  0.00000000000E+00 0. -1.
         24    2    1    2    0    0  0.17679542702E+03 -0.43132178495E+02  0.24360527061E+03  0.31470996592E+03  0.81128459535E+02 0.  0.
        254    2    1    2    0    0 -0.17679542702E+03  0.43132178495E+02 -0.28802036263E+04  0.30450512909E+04  0.97141516738E+03 0.  0.
         23    2    4    4    0    0 -0.43259345786E+03  0.34122694731E+03 -0.19933652157E+04  0.20701482541E+04  0.91847599655E+02 0.  0.
         23    2    4    4    0    0  0.25579803085E+03 -0.29809476882E+03 -0.88683841061E+03  0.97490303677E+03  0.98287541445E+02 0.  0.
          4    1    3    3  502    0  0.17091117430E+03 -0.41928584925E+02  0.18328196115E+03  0.25408839607E+03  0.00000000000E+00 0. -1.
         -3    1    3    3    0  502  0.58842527206E+01 -0.12035935693E+01  0.60323309458E+02  0.60621569854E+02  0.00000000000E+00 0.  1.
         11    1    5    5    0    0 -0.10495527468E+03  0.63515237287E+02 -0.58603731121E+03  0.59873994787E+03  0.00000000000E+00 0. -1.
        -11    1    5    5    0    0 -0.32763818318E+03  0.27771171002E+03 -0.14073279045E+04  0.14714083062E+04  0.00000000000E+00 0.  1.
          3    1    6    6  503    0  0.34617345872E+02 -0.26924347904E+02 -0.19171836153E+03  0.19667031116E+03  0.00000000000E+00 0. -1.
         -3    1    6    6    0  503  0.22118068497E+03 -0.27117042091E+03 -0.69512004908E+03  0.77823272561E+03  0.00000000000E+00 0.  1.
<mgrwt>
<rscale>  0 0.20823892E+04</rscale>
<asrwt>0</asrwt>
<pdfrwt beam="1">  1        2 0.46125845E+00 0.20823892E+04</pdfrwt>
<pdfrwt beam="2">  1       -1 0.55627913E-01 0.20823892E+04</pdfrwt>
<totfact> 0.60035076E+00</totfact>
</mgrwt>
</event>
<event>
12    6  0.1538774E-007  0.2145413E+04  0.7818608E-02  0.8541498E-01
         -1   -1    0    0    0  501 -0.00000000000E+00  0.00000000000E+00  0.27634113518E+03  0.27634113518E+03  0.00000000000E+00 0.  1.
          2   -1    0    0  501    0  0.00000000000E+00 -0.00000000000E+00 -0.41640518538E+04  0.41640518538E+04  0.00000000000E+00 0. -1.
         24    2    1    2    0    0  0.10123782903E+03 -0.43360213581E+03 -0.31676920022E+04  0.31998385328E+04  0.80212876228E+02 0.  0.
        254    2    1    2    0    0 -0.10123782903E+03  0.43360213581E+03 -0.72001871650E+03  0.12405544562E+04  0.90680124416E+03 0.  0.
         23    2    4    4    0    0  0.22083522757E+03  0.52626725685E+03 -0.19895036287E+03  0.61314789974E+03  0.10316819615E+03 0.  0.
         23    2    4    4    0    0 -0.32207305660E+03 -0.92665121035E+02 -0.52106835362E+03  0.62740655644E+03  0.99039787308E+02 0.  0.
          4    1    3    3  502    0  0.81411285524E+02 -0.33878278361E+03 -0.22153777876E+04  0.22426101564E+04  0.00000000000E+00 0. -1.
         -3    1    3    3    0  502  0.19826543510E+02 -0.94819352207E+02 -0.95231421458E+03  0.95722837645E+03  0.00000000000E+00 0.  1.
         11    1    5    5    0    0  0.28739323935E+01  0.51954094968E+02  0.59586883727E+01  0.52373594859E+02  0.00000000000E+00 0.  1.
        -11    1    5    5    0    0  0.21796129517E+03  0.47431316188E+03 -0.20490905125E+03  0.56077430488E+03  0.00000000000E+00 0. -1.
          4    1    6    6  503    0 -0.27291752847E+03 -0.99250472922E+02 -0.48775666305E+03  0.56766292469E+03  0.00000000000E+00 0. -1.
         -4    1    6    6    0  503 -0.49155528128E+02  0.65853518861E+01 -0.33311690569E+02  0.59743631740E+02  0.00000000000E+00 0.  1.
<mgrwt>
<rscale>  0 0.21454126E+04</rscale>
<asrwt>0</asrwt>
<pdfrwt beam="1">  1        2 0.64062338E+00 0.21454126E+04</pdfrwt>
<pdfrwt beam="2">  1       -1 0.42514020E-01 0.21454126E+04</pdfrwt>
<totfact> 0.14341353E+00</totfact>
</mgrwt>
</event>
<event>
12    6  0.1538774E-007  0.3293516E+04  0.7818608E-02  0.8164547E-01
          2   -1    0    0  501    0  0.00000000000E+00  0.00000000000E+00  0.15917115904E+04  0.15917115904E+04  0.00000000000E+00 0. -1.
         -1   -1    0    0    0  501 -0.00000000000E+00 -0.00000000000E+00 -0.17037083638E+04  0.17037083638E+04  0.00000000000E+00 0.  1.
         24    2    1    2    0    0  0.42981696257E+03  0.49911022659E+03  0.13202227161E+04  0.14776507786E+04  0.81302913239E+02 0.  0.
        254    2    1    2    0    0 -0.42981696257E+03 -0.49911022659E+03 -0.14322194896E+04  0.18177691756E+04  0.90508478605E+03 0.  0.
         23    2    4    4    0    0  0.12926208156E+03 -0.52707193136E+03 -0.74973025845E+03  0.93035505917E+03  0.94612732469E+02 0.  0.
         23    2    4    4    0    0 -0.55907904412E+03  0.27961704766E+02 -0.68248923114E+03  0.88741411646E+03  0.91438662287E+02 0.  0.
          2    1    3    3  502    0  0.29234078420E+03  0.38014818663E+03  0.90012901371E+03  0.10199058874E+04  0.00000000000E+00 0. -1.
         -1    1    3    3    0  502  0.13747617836E+03  0.11896203996E+03  0.42009370239E+03  0.45774489113E+03  0.00000000000E+00 0.  1.
         11    1    5    5    0    0  0.62843300517E+02 -0.12917469116E+03 -0.24758349784E+03  0.28623935729E+03  0.00000000000E+00 0. -1.
        -11    1    5    5    0    0  0.66418781039E+02 -0.39789724019E+03 -0.50214676061E+03  0.64411570189E+03  0.00000000000E+00 0.  1.
          1    1    6    6  503    0 -0.97542193868E+02 -0.26008250469E+02 -0.97740053579E+02  0.14051343975E+03  0.00000000000E+00 0. -1.
         -1    1    6    6    0  503 -0.46153685026E+03  0.53969955235E+02 -0.58474917756E+03  0.74690067671E+03  0.00000000000E+00 0.  1.
<mgrwt>
<rscale>  0 0.32935163E+04</rscale>
<asrwt>0</asrwt>
<pdfrwt beam="1">  1        2 0.24487871E+00 0.32935163E+04</pdfrwt>
<pdfrwt beam="2">  1       -1 0.26210898E+00 0.32935163E+04</pdfrwt>
<totfact> 0.62335012E-01</totfact>
</mgrwt>
</event>
<event>
12    6  0.1538774E-007  0.2464826E+04  0.7818608E-02  0.8415625E-01
          2   -1    0    0  501    0  0.00000000000E+00  0.00000000000E+00  0.22019305263E+04  0.22019305263E+04  0.00000000000E+00 0. -1.
         -1   -1    0    0    0  501 -0.00000000000E+00 -0.00000000000E+00 -0.68977739170E+03  0.68977739170E+03  0.00000000000E+00 0.  1.
         24    2    1    2    0    0  0.99672382293E+03  0.35718127258E+03  0.52424030581E+03  0.11842391749E+04  0.80979530681E+02 0.  0.
        254    2    1    2    0    0 -0.99672382293E+03 -0.35718127258E+03  0.98791282879E+03  0.17074687431E+04  0.90467724124E+03 0.  0.
         23    2    4    4    0    0 -0.30794654808E+02 -0.68398429106E+01 -0.14534956859E+03  0.17488841083E+03  0.92001983321E+02 0.  0.
         23    2    4    4    0    0 -0.96592916812E+03 -0.35034142967E+03  0.11332623974E+04  0.15325803323E+04  0.93597748357E+02 0.  0.
          2    1    3    3  502    0  0.57449246552E+02  0.40419190309E+02  0.26871279747E+02  0.75207662840E+02  0.00000000000E+00 0. -1.
         -1    1    3    3    0  502  0.93927457638E+03  0.31676208227E+03  0.49736902606E+03  0.11090315120E+04  0.00000000000E+00 0.  1.
         11    1    5    5    0    0 -0.48895091773E+02 -0.18185431861E+02 -0.35786678934E+02  0.63262361010E+02  0.00000000000E+00 0. -1.
        -11    1    5    5    0    0  0.18100436964E+02  0.11345588951E+02 -0.10956288966E+03  0.11162604981E+03  0.00000000000E+00 0.  1.
          3    1    6    6  503    0 -0.62017613007E+03 -0.23053021928E+03  0.79451313807E+03  0.10339312070E+04  0.00000000000E+00 0. -1.
         -3    1    6    6    0  503 -0.34575303805E+03 -0.11981121039E+03  0.33874925931E+03  0.49864912528E+03  0.00000000000E+00 0.  1.
<mgrwt>
<rscale>  0 0.24648261E+04</rscale>
<asrwt>0</asrwt>
<pdfrwt beam="1">  1        2 0.33875854E+00 0.24648261E+04</pdfrwt>
<pdfrwt beam="2">  1       -1 0.10611960E+00 0.24648261E+04</pdfrwt>
<totfact> 0.43525528E+00</totfact>
</mgrwt>
</event>
<event>
12    6  0.2233507E-007  0.2290125E+04  0.7818608E-02  0.8481825E-01
          2   -1    0    0  501    0  0.00000000000E+00  0.00000000000E+00  0.14788510765E+04  0.14788510765E+04  0.00000000000E+00 0. -1.
         -1   -1    0    0    0  501 -0.00000000000E+00 -0.00000000000E+00 -0.88661244204E+03  0.88661244204E+03  0.00000000000E+00 0.  1.
         24    2    1    2    0    0 -0.54378114007E+03  0.61493668217E+03  0.78599089648E+03  0.11393212047E+04  0.80162751602E+02 0.  0.
        254    2    1    2    0    0  0.54378114007E+03 -0.61493668217E+03 -0.19375226199E+03  0.12261423139E+04  0.88996628220E+03 0.  0.
         23    2    4    4    0    0  0.76703815834E+03 -0.35353301482E+03 -0.19078269593E+03  0.87059935429E+03  0.90620470626E+02 0.  0.
         23    2    4    4    0    0 -0.22325701827E+03 -0.26140366734E+03 -0.29695660657E+01  0.35554295958E+03  0.90699527404E+02 0.  0.
          2    1    3    3  502    0 -0.51690360205E+03  0.60046422546E+03  0.74008397271E+03  0.10841913607E+04  0.00000000000E+00 0. -1.
         -1    1    3    3    0  502 -0.26877538023E+02  0.14472456709E+02  0.45906923766E+02  0.55129844032E+02  0.00000000000E+00 0.  1.
         11    1    5    5    0    0  0.70548204038E+03 -0.35005823561E+03 -0.18211713652E+03  0.80833924130E+03  0.00000000000E+00 0.  1.
        -11    1    5    5    0    0  0.61556117960E+02 -0.34747792198E+01 -0.86655594045E+01  0.62260112983E+02  0.00000000000E+00 0. -1.
          1    1    6    6  503    0 -0.28220345023E+02 -0.37275801957E+02 -0.32548204476E+02  0.56967173876E+02  0.00000000000E+00 0. -1.
         -1    1    6    6    0  503 -0.19503667325E+03 -0.22412786539E+03  0.29578638411E+02  0.29857578570E+03  0.00000000000E+00 0.  1.
<mgrwt>
<rscale>  0 0.22901247E+04</rscale>
<asrwt>0</asrwt>
<pdfrwt beam="1">  1        2 0.22751555E+00 0.22901247E+04</pdfrwt>
<pdfrwt beam="2">  1       -1 0.13640191E+00 0.22901247E+04</pdfrwt>
<totfact> 0.60502677E+00</totfact>
</mgrwt>
</event>
<event>
12    6  0.1538774E-007  0.1571594E+04  0.7818608E-02  0.8838191E-01
         -1   -1    0    0    0  501 -0.00000000000E+00  0.00000000000E+00  0.51307002174E+03  0.51307002174E+03  0.00000000000E+00 0.  1.
          2   -1    0    0  501    0  0.00000000000E+00 -0.00000000000E+00 -0.12034945209E+04  0.12034945209E+04  0.00000000000E+00 0. -1.
         24    2    1    2    0    0 -0.28583264712E+03  0.44382599650E+03 -0.23078558663E+03  0.58169288597E+03  0.80142431055E+02 0.  0.
        254    2    1    2    0    0  0.28583264712E+03 -0.44382599650E+03 -0.45963891256E+03  0.11348716567E+04  0.89329946262E+03 0.  0.
         23    2    4    4    0    0  0.54128722303E+02  0.17230341338E+03  0.13674616766E+03  0.24202149828E+03  0.85185130287E+02 0.  0.
         23    2    4    4    0    0  0.23170392481E+03 -0.61612940988E+03 -0.59638508022E+03  0.89285015842E+03  0.90576393120E+02 0.  0.
          4    1    3    3  502    0 -0.13004001966E+03  0.16839469226E+03 -0.13116545831E+03  0.24994310663E+03  0.00000000000E+00 0. -1.
         -3    1    3    3    0  502 -0.15579262745E+03  0.27543130424E+03 -0.99620128322E+02  0.33174977934E+03  0.00000000000E+00 0.  1.
         11    1    5    5    0    0  0.22859421855E+02  0.16622380584E+03  0.11676454905E+03  0.20441836197E+03  0.00000000000E+00 0. -1.
        -11    1    5    5    0    0  0.31269300448E+02  0.60796075365E+01  0.19981618610E+02  0.37603136313E+02  0.00000000000E+00 0.  1.
          1    1    6    6  503    0  0.16425221108E+03 -0.34864469270E+03 -0.30393483203E+03  0.49082409549E+03  0.00000000000E+00 0. -1.
         -1    1    6    6    0  503  0.67451713736E+02 -0.26748471718E+03 -0.29245024818E+03  0.40202606293E+03  0.00000000000E+00 0.  1.
<mgrwt>
<rscale>  0 0.15715940E+04</rscale>
<asrwt>0</asrwt>
<pdfrwt beam="1">  1        2 0.18515300E+00 0.15715940E+04</pdfrwt>
<pdfrwt beam="2">  1       -1 0.78933850E-01 0.15715940E+04</pdfrwt>
<totfact> 0.33157851E+01</totfact>
</mgrwt>
</event>
<event>
12    6  0.1538774E-007  0.1840054E+04  0.7818608E-02  0.8685284E-01
          2   -1    0    0  501    0  0.00000000000E+00  0.00000000000E+00  0.13922605148E+04  0.13922605148E+04  0.00000000000E+00 0. -1.
         -1   -1    0    0    0  501 -0.00000000000E+00 -0.00000000000E+00 -0.60796795773E+03  0.60796795773E+03  0.00000000000E+00 0.  1.
         24    2    1    2    0    0  0.64612718031E+03  0.24713618854E+03  0.55016895582E+03  0.88764557750E+03  0.81683306076E+02 0.  0.
        254    2    1    2    0    0 -0.64612718031E+03 -0.24713618854E+03  0.23412360129E+03  0.11125828951E+04  0.83932723587E+03 0.  0.
         23    2    4    4    0    0 -0.91429342673E+02 -0.41667699787E+03 -0.84919212661E+02  0.44440808170E+03  0.91149465946E+02 0.  0.
         23    2    4    4    0    0 -0.55469783763E+03  0.16954080933E+03  0.31904281395E+03  0.66817481336E+03  0.90749583853E+02 0.  0.
          4    1    3    3  502    0  0.62626925095E+03  0.22300568470E+03  0.53236411508E+03  0.85167849633E+03  0.00000000000E+00 0. -1.
         -3    1    3    3    0  502  0.19857929361E+02  0.24130503840E+02  0.17804840742E+02  0.35967081171E+02  0.00000000000E+00 0.  1.
         11    1    5    5    0    0  0.14794569792E+02 -0.12364936233E+03 -0.24695200229E+02  0.12695627993E+03  0.00000000000E+00 0. -1.
        -11    1    5    5    0    0 -0.10622391247E+03 -0.29302763554E+03 -0.60224012432E+02  0.31745180176E+03  0.00000000000E+00 0.  1.
          3    1    6    6  503    0 -0.40947709997E+02  0.96080725482E+01  0.53777908709E+02  0.68272201351E+02  0.00000000000E+00 0. -1.
         -3    1    6    6    0  503 -0.51375012764E+03  0.15993273678E+03  0.26526490524E+03  0.59990261201E+03  0.00000000000E+00 0.  1.
<mgrwt>
<rscale>  0 0.18400541E+04</rscale>
<asrwt>0</asrwt>
<pdfrwt beam="1">  1        2 0.21419393E+00 0.18400541E+04</pdfrwt>
<pdfrwt beam="2">  1       -1 0.93533532E-01 0.18400541E+04</pdfrwt>
<totfact> 0.17386012E+01</totfact>
</mgrwt>
</event>
<event>
12    6  0.1538774E-007  0.1666090E+04  0.7818608E-02  0.8780944E-01
          2   -1    0    0  501    0  0.00000000000E+00  0.00000000000E+00  0.24519706946E+04  0.24519706946E+04  0.00000000000E+00 0. -1.
         -1   -1    0    0    0  501 -0.00000000000E+00 -0.00000000000E+00 -0.28302286977E+03  0.28302286977E+03  0.00000000000E+00 0.  1.
         24    2    1    2    0    0  0.26400154251E+02  0.28617346500E+03 -0.38858422526E+02  0.30103903099E+03  0.80760763764E+02 0.  0.
        254    2    1    2    0    0 -0.26400154251E+02 -0.28617346500E+03  0.22078062473E+04  0.24339545333E+04  0.98342972520E+03 0.  0.
         23    2    4    4    0    0 -0.71830175178E+02 -0.64091848133E+03  0.15142388382E+04  0.16483488668E+04  0.90546416792E+02 0.  0.
         23    2    4    4    0    0  0.45430020927E+02  0.35474501633E+03  0.69356740909E+03  0.78560566656E+03  0.90733670561E+02 0.  0.
          2    1    3    3  502    0 -0.44641658004E+01  0.14591191506E+03  0.16947071685E+02  0.14696060347E+03  0.00000000000E+00 0. -1.
         -1    1    3    3    0  502  0.30864320052E+02  0.14026154994E+03 -0.55805494212E+02  0.15407842753E+03  0.00000000000E+00 0.  1.
         11    1    5    5    0    0 -0.63118629499E+02 -0.25914240644E+03  0.55051714918E+03  0.61172533031E+03  0.00000000000E+00 0. -1.
        -11    1    5    5    0    0 -0.87115456787E+01 -0.38177607490E+03  0.96372168906E+03  0.10366235365E+04  0.00000000000E+00 0.  1.
          2    1    6    6  503    0  0.31817912073E+02  0.32684171424E+03  0.67156157407E+03  0.74755122464E+03  0.00000000000E+00 0. -1.
         -2    1    6    6    0  503  0.13612108854E+02  0.27903302094E+02  0.22005835019E+02  0.38054441923E+02  0.00000000000E+00 0.  1.
<mgrwt>
<rscale>  0 0.16660898E+04</rscale>
<asrwt>0</asrwt>
<pdfrwt beam="1">  1        2 0.37722625E+00 0.16660898E+04</pdfrwt>
<pdfrwt beam="2">  1       -1 0.43541982E-01 0.16660898E+04</pdfrwt>
<totfact> 0.21029866E+01</totfact>
</mgrwt>
</event>
<event>
12    6  0.1538774E-007  0.1886011E+04  0.7818608E-02  0.8661851E-01
          2   -1    0    0  501    0  0.00000000000E+00  0.00000000000E+00  0.32415307762E+04  0.32415307762E+04  0.00000000000E+00 0. -1.
         -1   -1    0    0    0  501 -0.00000000000E+00 -0.00000000000E+00 -0.27433308349E+03  0.27433308349E+03  0.00000000000E+00 0.  1.
         24    2    1    2    0    0 -0.32050092138E+03 -0.53498499958E+03  0.44525668747E+03  0.77025554711E+03  0.78168406246E+02 0.  0.
        254    2    1    2    0    0  0.32050092138E+03  0.53498499958E+03  0.25219410052E+04  0.27456083126E+04  0.88839674798E+03 0.  0.
         23    2    4    4    0    0 -0.23538352082E+03 -0.55720420967E+02  0.49541711954E+03  0.56080887938E+03  0.10275363579E+03 0.  0.
         23    2    4    4    0    0  0.55588444221E+03  0.59070542055E+03  0.20265238857E+04  0.21847994332E+04  0.92785220017E+02 0.  0.
          4    1    3    3  502    0 -0.11734802457E+03 -0.22500651849E+03  0.13817343869E+03  0.28894703908E+03  0.00000000000E+00 0. -1.
         -1    1    3    3    0  502 -0.20315289681E+03 -0.30997848109E+03  0.30708324878E+03  0.48130850803E+03  0.00000000000E+00 0.  1.
         11    1    5    5    0    0 -0.76040609729E+02 -0.61152222827E+02  0.13378317424E+03  0.16558896822E+03  0.00000000000E+00 0.  1.
        -11    1    5    5    0    0 -0.15934291110E+03  0.54318018599E+01  0.36163394530E+03  0.39521991117E+03  0.00000000000E+00 0. -1.
          1    1    6    6  503    0  0.53357860412E+03  0.53426314254E+03  0.18513360906E+04  0.19993970473E+04  0.00000000000E+00 0. -1.
         -1    1    6    6    0  503  0.22305838089E+02  0.56442278010E+02  0.17518779508E+03  0.18540238592E+03  0.00000000000E+00 0.  1.
<mgrwt>
<rscale>  0 0.18860107E+04</rscale>
<asrwt>0</asrwt>
<pdfrwt beam="1">  1        2 0.49869701E+00 0.18860107E+04</pdfrwt>
<pdfrwt beam="2">  1       -1 0.42205092E-01 0.18860107E+04</pdfrwt>
<totfact> 0.72072574E+00</totfact>
</mgrwt>
</event>
<event>
12    6  0.1538774E-007  0.2554120E+04  0.7818608E-02  0.8383955E-01
          2   -1    0    0  501    0  0.00000000000E+00  0.00000000000E+00  0.79186348701E+03  0.79186348701E+03  0.00000000000E+00 0. -1.
         -1   -1    0    0    0  501 -0.00000000000E+00 -0.00000000000E+00 -0.20595502841E+04  0.20595502841E+04  0.00000000000E+00 0.  1.
         24    2    1    2    0    0  0.73139835007E+03 -0.45348907401E+03 -0.13383542223E+04  0.15932963231E+04  0.82494013233E+02 0.  0.
        254    2    1    2    0    0 -0.73139835007E+03  0.45348907401E+03  0.70667425170E+02  0.12581174480E+04  0.91502444847E+03 0.  0.
         23    2    4    4    0    0 -0.41366046244E+03  0.71748493409E+03  0.53374758882E+02  0.83496980415E+03  0.91793791311E+02 0.  0.
         23    2    4    4    0    0 -0.31773788763E+03 -0.26399586008E+03  0.17292666288E+02  0.42314764387E+03  0.90020624489E+02 0.  0.
          4    1    3    3  502    0  0.10583888358E+02  0.16824338087E+01 -0.28569361063E+02  0.30513237584E+02  0.00000000000E+00 0. -1.
         -3    1    3    3    0  502  0.72081446172E+03 -0.45517150782E+03 -0.13097848612E+04  0.15627830855E+04  0.00000000000E+00 0.  1.
         11    1    5    5    0    0 -0.35349980128E+02  0.77354145153E+02 -0.21273382998E+02  0.87668932305E+02  0.00000000000E+00 0.  1.
        -11    1    5    5    0    0 -0.37831048231E+03  0.64013078894E+03  0.74648141880E+02  0.74730087184E+03  0.00000000000E+00 0. -1.
          1    1    6    6  503    0 -0.26706294523E+03 -0.24923286481E+03  0.36196695066E+02  0.36708287667E+03  0.00000000000E+00 0. -1.
         -1    1    6    6    0  503 -0.50674942407E+02 -0.14762995270E+02 -0.18904028778E+02  0.56064767201E+02  0.00000000000E+00 0.  1.
<mgrwt>
<rscale>  0 0.25541203E+04</rscale>
<asrwt>0</asrwt>
<pdfrwt beam="1">  1        2 0.12182515E+00 0.25541203E+04</pdfrwt>
<pdfrwt beam="2">  1       -1 0.31685389E+00 0.25541203E+04</pdfrwt>
<totfact> 0.90743297E-01</totfact>
</mgrwt>
</event>
<event>
12    6  0.1538774E-007  0.1600783E+04  0.7818608E-02  0.8820067E-01
         -1   -1    0    0    0  501 -0.00000000000E+00  0.00000000000E+00  0.52190263962E+03  0.52190263962E+03  0.00000000000E+00 0.  1.
          2   -1    0    0  501    0  0.00000000000E+00 -0.00000000000E+00 -0.12274822247E+04  0.12274822247E+04  0.00000000000E+00 0. -1.
         24    2    1    2    0    0 -0.16701566184E+03  0.53639029526E+01 -0.80621754832E+03  0.82704920668E+03  0.78106672533E+02 0.  0.
        254    2    1    2    0    0  0.16701566184E+03 -0.53639029526E+01  0.10063796325E+03  0.92233565764E+03  0.90147216427E+03 0.  0.
         23    2    4    4    0    0  0.52088317482E+03 -0.13094057177E+02  0.15851058132E+03  0.55234041700E+03  0.91997802761E+02 0.  0.
         23    2    4    4    0    0 -0.35386751298E+03  0.77301542246E+01 -0.57872618076E+02  0.36999524064E+03  0.90913509150E+02 0.  0.
          4    1    3    3  502    0 -0.12943584668E+03 -0.29651057346E+02 -0.60198993939E+03  0.61646144303E+03  0.00000000000E+00 0. -1.
         -3    1    3    3    0  502 -0.37579815160E+02  0.35014960299E+02 -0.20422760893E+03  0.21058776365E+03  0.00000000000E+00 0.  1.
         11    1    5    5    0    0  0.36006040349E+03  0.31501930679E+02  0.12229152736E+03  0.38156399655E+03  0.00000000000E+00 0.  1.
        -11    1    5    5    0    0  0.16082277133E+03 -0.44595987856E+02  0.36219053962E+02  0.17077642044E+03  0.00000000000E+00 0. -1.
          2    1    6    6  503    0 -0.11431625277E+03  0.33132185388E+02 -0.49647520785E+02  0.12896055085E+03  0.00000000000E+00 0. -1.
         -2    1    6    6    0  503 -0.23955126021E+03 -0.25402031163E+02 -0.82250972901E+01  0.24103468979E+03  0.00000000000E+00 0.  1.
<mgrwt>
<rscale>  0 0.16007826E+04</rscale>
<asrwt>0</asrwt>
<pdfrwt beam="1">  1        2 0.18884342E+00 0.16007826E+04</pdfrwt>
<pdfrwt beam="2">  1       -1 0.80292715E-01 0.16007826E+04</pdfrwt>
<totfact> 0.30867803E+01</totfact>
</mgrwt>
</event>
<event>
12    6  0.1538774E-007  0.1725569E+04  0.7818608E-02  0.8746914E-01
         -1   -1    0    0    0  501 -0.00000000000E+00  0.00000000000E+00  0.83687010403E+03  0.83687010403E+03  0.00000000000E+00 0.  1.
          2   -1    0    0  501    0  0.00000000000E+00 -0.00000000000E+00 -0.88950141795E+03  0.88950141795E+03  0.00000000000E+00 0. -1.
         24    2    1    2    0    0  0.14826662848E+03  0.58146526876E+03  0.14293497555E+03  0.62097285818E+03  0.71358471587E+02 0.  0.
        254    2    1    2    0    0 -0.14826662848E+03 -0.58146526876E+03 -0.19556628947E+03  0.11053986638E+04  0.90751042995E+03 0.  0.
         23    2    4    4    0    0  0.34380667703E+03 -0.43751129127E+03 -0.60299639546E+02  0.56765219472E+03  0.94730177273E+02 0.  0.
         23    2    4    4    0    0 -0.49207330551E+03 -0.14395397749E+03 -0.13526664992E+03  0.53774646908E+03  0.89528279317E+02 0.  0.
          4    1    3    3  502    0  0.81231452806E+02  0.25507145675E+03  0.31075865300E+02  0.26949157014E+03  0.00000000000E+00 0. -1.
         -3    1    3    3    0  502  0.67035175679E+02  0.32639381201E+03  0.11185911025E+03  0.35148128804E+03  0.00000000000E+00 0.  1.
         11    1    5    5    0    0  0.12886281833E+03 -0.22276775085E+03 -0.57998866109E+02  0.26380857688E+03  0.00000000000E+00 0. -1.
        -11    1    5    5    0    0  0.21494385870E+03 -0.21474354042E+03 -0.23007734376E+01  0.30384361784E+03  0.00000000000E+00 0.  1.
          4    1    6    6  503    0 -0.27262911149E+02  0.10280527602E+02  0.18089036709E+01  0.29192939294E+02  0.00000000000E+00 0. -1.
         -4    1    6    6    0  503 -0.46481039436E+03 -0.15423450509E+03 -0.13707555359E+03  0.50855352979E+03  0.00000000000E+00 0.  1.
<mgrwt>
<rscale>  0 0.17255691E+04</rscale>
<asrwt>0</asrwt>
<pdfrwt beam="1">  1        2 0.13684637E+00 0.17255691E+04</pdfrwt>
<pdfrwt beam="2">  1       -1 0.12874925E+00 0.17255691E+04</pdfrwt>
<totfact> 0.16790842E+01</totfact>
</mgrwt>
</event>
<event>
12    6  0.1538774E-007  0.1158312E+04  0.7818608E-02  0.9150149E-01
          2   -1    0    0  501    0  0.00000000000E+00  0.00000000000E+00  0.47715928862E+03  0.47715928862E+03  0.00000000000E+00 0. -1.
         -1   -1    0    0    0  501 -0.00000000000E+00 -0.00000000000E+00 -0.70295546040E+03  0.70295546040E+03  0.00000000000E+00 0.  1.
         24    2    1    2    0    0 -0.10344956558E+03 -0.27147711955E+02  0.16752229548E+03  0.21423534637E+03  0.79964074870E+02 0.  0.
        254    2    1    2    0    0  0.10344956558E+03  0.27147711955E+02 -0.39331846726E+03  0.96587940264E+03  0.87566248800E+03 0.  0.
         23    2    4    4    0    0 -0.30885695989E+03 -0.22191925429E+03 -0.16029679982E+03  0.42292465307E+03  0.92354864760E+02 0.  0.
         23    2    4    4    0    0  0.41230652547E+03  0.24906696625E+03 -0.23302166743E+03  0.54295474957E+03  0.92031179284E+02 0.  0.
          4    1    3    3  502    0 -0.10151193635E+03 -0.44612071235E+02  0.16100732507E+03  0.19549493305E+03  0.00000000000E+00 0. -1.
         -3    1    3    3    0  502 -0.19376292342E+01  0.17464359281E+02  0.65149704045E+01  0.18740413323E+02  0.00000000000E+00 0.  1.
         11    1    5    5    0    0 -0.55056849882E+02 -0.61697228422E+02 -0.67860427475E-01  0.82691047393E+02  0.00000000000E+00 0.  1.
        -11    1    5    5    0    0 -0.25380011001E+03 -0.16022202587E+03 -0.16022893939E+03  0.34023360568E+03  0.00000000000E+00 0. -1.
          3    1    6    6  503    0  0.34442995895E+03  0.20045796597E+03 -0.15171708766E+03  0.42641935631E+03  0.00000000000E+00 0. -1.
         -3    1    6    6    0  503  0.67876566521E+02  0.48609000284E+02 -0.81304579770E+02  0.11653539326E+03  0.00000000000E+00 0.  1.
<mgrwt>
<rscale>  0 0.11583121E+04</rscale>
<asrwt>0</asrwt>
<pdfrwt beam="1">  1        2 0.73409121E-01 0.11583121E+04</pdfrwt>
<pdfrwt beam="2">  1       -1 0.10814699E+00 0.11583121E+04</pdfrwt>
<totfact> 0.58477797E+01</totfact>
</mgrwt>
</event>
<event>
12    6  0.1538774E-007  0.2269266E+04  0.7818608E-02  0.8490139E-01
          2   -1    0    0  501    0  0.00000000000E+00  0.00000000000E+00  0.78174868013E+03  0.78174868013E+03  0.00000000000E+00 0. -1.
         -1   -1    0    0    0  501 -0.00000000000E+00 -0.00000000000E+00 -0.16468101906E+04  0.16468101906E+04  0.00000000000E+00 0.  1.
         24    2    1    2    0    0 -0.66388613438E+03 -0.51987917521E+03 -0.84132867011E+03  0.11937864392E+04  0.79202114475E+02 0.  0.
        254    2    1    2    0    0  0.66388613438E+03  0.51987917521E+03 -0.23732840357E+02  0.12347724316E+04  0.90170979465E+03 0.  0.
         23    2    4    4    0    0  0.39556292896E+02 -0.18575536218E+03  0.16626141198E+03  0.26939807081E+03  0.94141959600E+02 0.  0.
         23    2    4    4    0    0  0.62432984149E+03  0.70563453739E+03 -0.18999425233E+03  0.96537436074E+03  0.90232971386E+02 0.  0.
          2    1    3    3  502    0 -0.12631097927E+01 -0.73659759590E+01 -0.16752921074E+02  0.18344301913E+02  0.00000000000E+00 0. -1.
         -1    1    3    3    0  502 -0.66262302459E+03 -0.51251319925E+03 -0.82457574904E+03  0.11754421373E+04  0.00000000000E+00 0.  1.
         11    1    5    5    0    0 -0.83885415321E+00 -0.34435413798E+02 -0.77262508138E+01  0.35301506362E+02  0.00000000000E+00 0.  1.
        -11    1    5    5    0    0  0.40395147049E+02 -0.15131994838E+03  0.17398766279E+03  0.23409656445E+03  0.00000000000E+00 0. -1.
          1    1    6    6  503    0  0.34930973750E+03  0.35871625850E+03 -0.13971887963E+03  0.51982305850E+03  0.00000000000E+00 0. -1.
         -1    1    6    6    0  503  0.27502010399E+03  0.34691827890E+03 -0.50275372698E+02  0.44555130225E+03  0.00000000000E+00 0.  1.
<mgrwt>
<rscale>  0 0.22692657E+04</rscale>
<asrwt>0</asrwt>
<pdfrwt beam="1">  1        2 0.12026903E+00 0.22692657E+04</pdfrwt>
<pdfrwt beam="2">  1       -1 0.25335541E+00 0.22692657E+04</pdfrwt>
<totfact> 0.24413442E+00</totfact>
</mgrwt>
</event>
<event>
12    6  0.1538774E-007  0.1112578E+04  0.7818608E-02  0.9193018E-01
          2   -1    0    0  501    0  0.00000000000E+00  0.00000000000E+00  0.21659157528E+04  0.21659157528E+04  0.00000000000E+00 0. -1.
         -1   -1    0    0    0  501 -0.00000000000E+00 -0.00000000000E+00 -0.14287607615E+03  0.14287607615E+03  0.00000000000E+00 0.  1.
         24    2    1    2    0    0  0.37347845760E+02 -0.38444529521E+02  0.55271995287E+03  0.56098363087E+03  0.79564089651E+02 0.  0.
        254    2    1    2    0    0 -0.37347845760E+02  0.38444529521E+02  0.14703197238E+04  0.17478081981E+04  0.94346200967E+03 0.  0.
         23    2    4    4    0    0 -0.35916024859E+03  0.29184723487E+03  0.48310448456E+03  0.67514702330E+03  0.90899215633E+02 0.  0.
         23    2    4    4    0    0  0.32181240283E+03 -0.25340270535E+03  0.98721523921E+03  0.10726611748E+04  0.90729893830E+02 0.  0.
          2    1    3    3  502    0  0.25427578014E+02 -0.56226212563E+02  0.50405467145E+03  0.50781794032E+03  0.00000000000E+00 0. -1.
         -1    1    3    3    0  502  0.11920267746E+02  0.17781683042E+02  0.48665281426E+02  0.53165690546E+02  0.00000000000E+00 0.  1.
         11    1    5    5    0    0 -0.44522712858E+02  0.80904902645E+02  0.10704211660E+03  0.14137146091E+03  0.00000000000E+00 0.  1.
        -11    1    5    5    0    0 -0.31463753573E+03  0.21094233222E+03  0.37606236796E+03  0.53377556240E+03  0.00000000000E+00 0. -1.
          1    1    6    6  503    0  0.26122553195E+03 -0.23246787439E+03  0.76021323047E+03  0.83678207853E+03  0.00000000000E+00 0. -1.
         -1    1    6    6    0  503  0.60586870878E+02 -0.20934830954E+02  0.22700200874E+03  0.23587909624E+03  0.00000000000E+00 0.  1.
<mgrwt>
<rscale>  0 0.11125782E+04</rscale>
<asrwt>0</asrwt>
<pdfrwt beam="1">  1        2 0.33321778E+00 0.11125782E+04</pdfrwt>
<pdfrwt beam="2">  1       -1 0.21980936E-01 0.11125782E+04</pdfrwt>
<totfact> 0.10680585E+02</totfact>
</mgrwt>
</event>
<event>
12    6  0.1538774E-007  0.1767835E+04  0.7818608E-02  0.8723594E-01
         -1   -1    0    0    0  501 -0.00000000000E+00  0.00000000000E+00  0.54949484120E+03  0.54949484120E+03  0.00000000000E+00 0.  1.
          2   -1    0    0  501    0  0.00000000000E+00 -0.00000000000E+00 -0.14218704665E+04  0.14218704665E+04  0.00000000000E+00 0. -1.
         24    2    1    2    0    0 -0.14843559961E+03 -0.49842358472E+02  0.38184778819E+03  0.42047227763E+03  0.80447591469E+02 0.  0.
        254    2    1    2    0    0  0.14843559961E+03  0.49842358472E+02 -0.12542234135E+04  0.15508930301E+04  0.89870764535E+03 0.  0.
         23    2    4    4    0    0 -0.36493830964E+03 -0.50783341139E+02 -0.49749648008E+03  0.62631161203E+03  0.94892413240E+02 0.  0.
         23    2    4    4    0    0  0.51337390926E+03  0.10062569961E+03 -0.75672693340E+03  0.92458141802E+03  0.92395046906E+02 0.  0.
          4    1    3    3  502    0 -0.11846791252E+03 -0.57143470619E+01  0.21821732629E+03  0.24836686887E+03  0.00000000000E+00 0. -1.
         -3    1    3    3    0  502 -0.29967687096E+02 -0.44128011410E+02  0.16363046190E+03  0.17210540876E+03  0.00000000000E+00 0.  1.
         11    1    5    5    0    0 -0.31644344316E+02 -0.33895361921E+02 -0.51837140811E+02  0.69551055020E+02  0.00000000000E+00 0. -1.
        -11    1    5    5    0    0 -0.33329396533E+03 -0.16887979218E+02 -0.44565933927E+03  0.55676055701E+03  0.00000000000E+00 0.  1.
          2    1    6    6  503    0  0.22541465477E+03  0.30542144671E+02 -0.25373876037E+03  0.34077550924E+03  0.00000000000E+00 0. -1.
         -2    1    6    6    0  503  0.28795925449E+03  0.70083554940E+02 -0.50298817304E+03  0.58380590879E+03  0.00000000000E+00 0.  1.
<mgrwt>
<rscale>  0 0.17678354E+04</rscale>
<asrwt>0</asrwt>
<pdfrwt beam="1">  1        2 0.21874930E+00 0.17678354E+04</pdfrwt>
<pdfrwt beam="2">  1       -1 0.84537668E-01 0.17678354E+04</pdfrwt>
<totfact> 0.21011039E+01</totfact>
</mgrwt>
</event>
<event>
12    6  0.1538774E-007  0.1607599E+04  0.7818608E-02  0.8815893E-01
          2   -1    0    0  501    0  0.00000000000E+00  0.00000000000E+00  0.18979838573E+04  0.18979838573E+04  0.00000000000E+00 0. -1.
         -1   -1    0    0    0  501 -0.00000000000E+00 -0.00000000000E+00 -0.34041067179E+03  0.34041067179E+03  0.00000000000E+00 0.  1.
         24    2    1    2    0    0 -0.17186716773E+03 -0.93457399816E+00  0.12632834804E+04  0.12773902331E+04  0.79381728829E+02 0.  0.
        254    2    1    2    0    0  0.17186716773E+03  0.93457399816E+00  0.29428970505E+03  0.96100429598E+03  0.89854528524E+03 0.  0.
         23    2    4    4    0    0  0.49252993609E+03  0.18321719310E+03  0.15083030712E+03  0.55406284828E+03  0.89897611217E+02 0.  0.
         23    2    4    4    0    0 -0.32066276836E+03 -0.18228261910E+03  0.14345939793E+03  0.40694144771E+03  0.94705748328E+02 0.  0.
          2    1    3    3  502    0 -0.76567190232E+02  0.39068917416E+02  0.57649287356E+03  0.58286614946E+03  0.00000000000E+00 0. -1.
         -1    1    3    3    0  502 -0.95299977494E+02 -0.40003491414E+02  0.68679060685E+03  0.69452408360E+03  0.00000000000E+00 0.  1.
         11    1    5    5    0    0  0.38484384453E+03  0.16562637432E+03  0.87865703402E+02  0.42808557833E+03  0.00000000000E+00 0. -1.
        -11    1    5    5    0    0  0.10768609156E+03  0.17590818781E+02  0.62964603721E+02  0.12597726995E+03  0.00000000000E+00 0.  1.
          3    1    6    6  503    0 -0.79791140179E+02 -0.27566520004E+02  0.74222882046E+02  0.11240807487E+03  0.00000000000E+00 0. -1.
         -3    1    6    6    0  503 -0.24087162818E+03 -0.15471609910E+03  0.69236515883E+02  0.29453337284E+03  0.00000000000E+00 0.  1.
<mgrwt>
<rscale>  0 0.16075994E+04</rscale>
<asrwt>0</asrwt>
<pdfrwt beam="1">  1        2 0.29199751E+00 0.16075994E+04</pdfrwt>
<pdfrwt beam="2">  1       -1 0.52370874E-01 0.16075994E+04</pdfrwt>
<totfact> 0.30528352E+01</totfact>
</mgrwt>
</event>
<event>
12    6  0.1538774E-007  0.1771813E+04  0.7818608E-02  0.8721434E-01
          2   -1    0    0  501    0  0.00000000000E+00  0.00000000000E+00  0.43437430651E+03  0.43437430651E+03  0.00000000000E+00 0. -1.
         -1   -1    0    0    0  501 -0.00000000000E+00 -0.00000000000E+00 -0.18068064721E+04  0.18068064721E+04  0.00000000000E+00 0.  1.
         24    2    1    2    0    0 -0.76153415403E+02 -0.20169640523E+03  0.28362054463E+03  0.36511632235E+03  0.79928298829E+02 0.  0.
        254    2    1    2    0    0  0.76153415403E+02  0.20169640523E+03 -0.16560527102E+04  0.18760644563E+04  0.85476691702E+03 0.  0.
         23    2    4    4    0    0  0.43298016442E+03 -0.12227207583E+02 -0.67559386841E+03  0.80725673811E+03  0.87264189705E+02 0.  0.
         23    2    4    4    0    0 -0.35682674902E+03  0.21392361281E+03 -0.98045884184E+03  0.10688077182E+04  0.89228677800E+02 0.  0.
          2    1    3    3  502    0 -0.83662448243E+02 -0.15803600991E+03  0.25809627186E+03  0.31398801127E+03  0.00000000000E+00 0. -1.
         -1    1    3    3    0  502  0.75090328397E+01 -0.43660395324E+02  0.25524272770E+02  0.51128311086E+02  0.00000000000E+00 0.  1.
         11    1    5    5    0    0  0.17975133074E+02 -0.13518577633E+02 -0.14714219348E+02  0.26876859959E+02  0.00000000000E+00 0. -1.
        -11    1    5    5    0    0  0.41500503135E+03  0.12913700499E+01 -0.66087964906E+03  0.78037987815E+03  0.00000000000E+00 0.  1.
          1    1    6    6  503    0 -0.20265876688E+03  0.12614647571E+03 -0.66974831885E+03  0.71101780550E+03  0.00000000000E+00 0. -1.
         -1    1    6    6    0  503 -0.15416798214E+03  0.87777137102E+02 -0.31071052298E+03  0.35778991267E+03  0.00000000000E+00 0.  1.
<mgrwt>
<rscale>  0 0.17718130E+04</rscale>
<asrwt>0</asrwt>
<pdfrwt beam="1">  1        2 0.66826816E-01 0.17718130E+04</pdfrwt>
<pdfrwt beam="2">  1       -1 0.27797023E+00 0.17718130E+04</pdfrwt>
<totfact> 0.35958523E+00</totfact>
</mgrwt>
</event>
<event>
12    6  0.1538774E-007  0.1987913E+04  0.7818608E-02  0.8612293E-01
         -1   -1    0    0    0  501 -0.00000000000E+00  0.00000000000E+00  0.58821551056E+03  0.58821551056E+03  0.00000000000E+00 0.  1.
          2   -1    0    0  501    0  0.00000000000E+00 -0.00000000000E+00 -0.16795705635E+04  0.16795705635E+04  0.00000000000E+00 0. -1.
         24    2    1    2    0    0 -0.75254139257E+03 -0.24413472895E+03 -0.44127451640E+03  0.90939457321E+03  0.79718113040E+02 0.  0.
        254    2    1    2    0    0  0.75254139257E+03  0.24413472895E+03 -0.65008053658E+03  0.13583915009E+04  0.89258190224E+03 0.  0.
         23    2    4    4    0    0 -0.19131062034E+03  0.20598093437E+02 -0.17110685451E+03  0.27263566352E+03  0.89602535974E+02 0.  0.
         23    2    4    4    0    0  0.94385201291E+03  0.22353663552E+03 -0.47897368207E+03  0.10857558374E+04  0.92869265895E+02 0.  0.
          4    1    3    3  502    0 -0.56871913567E+03 -0.19694103581E+03 -0.37102344450E+03  0.70702589997E+03  0.00000000000E+00 0. -1.
         -1    1    3    3    0  502 -0.18382225691E+03 -0.47193693142E+02 -0.70251071898E+02  0.20236867324E+03  0.00000000000E+00 0.  1.
         11    1    5    5    0    0 -0.19772683460E+03  0.77961757480E+01 -0.16109075142E+03  0.25516056057E+03  0.00000000000E+00 0.  1.
        -11    1    5    5    0    0  0.64162142592E+01  0.12801917689E+02 -0.10016103088E+02  0.17475102947E+02  0.00000000000E+00 0. -1.
          1    1    6    6  503    0  0.26705415540E+01 -0.38090306987E+01 -0.74805758848E+01  0.88090591225E+01  0.00000000000E+00 0. -1.
         -1    1    6    6    0  503  0.94118147136E+03  0.22734566621E+03 -0.47149310619E+03  0.10769467782E+04  0.00000000000E+00 0.  1.
<mgrwt>
<rscale>  0 0.19879129E+04</rscale>
<asrwt>0</asrwt>
<pdfrwt beam="1">  1        2 0.25839547E+00 0.19879129E+04</pdfrwt>
<pdfrwt beam="2">  1       -1 0.90494694E-01 0.19879129E+04</pdfrwt>
<totfact> 0.12725326E+01</totfact>
</mgrwt>
</event>
<event>
12    6  0.1538774E-007  0.1673711E+04  0.7818608E-02  0.8776502E-01
          2   -1    0    0  501    0  0.00000000000E+00  0.00000000000E+00  0.25514376161E+04  0.25514376161E+04  0.00000000000E+00 0. -1.
         -1   -1    0    0    0  501 -0.00000000000E+00 -0.00000000000E+00 -0.27448326195E+03  0.27448326195E+03  0.00000000000E+00 0.  1.
         24    2    1    2    0    0 -0.40638424454E+03 -0.22176003968E+03  0.18846211723E+03  0.50602846874E+03  0.78874407315E+02 0.  0.
        254    2    1    2    0    0  0.40638424454E+03  0.22176003968E+03  0.20884922369E+04  0.23198924093E+04  0.89764987479E+03 0.  0.
         23    2    4    4    0    0  0.25341151943E+03 -0.21252105273E+03  0.25737506394E+03  0.42964274582E+03  0.94701475524E+02 0.  0.
         23    2    4    4    0    0  0.15297272511E+03  0.43428109241E+03  0.18311171730E+04  0.18902496635E+04  0.89738326846E+02 0.  0.
          2    1    3    3  502    0 -0.21133603392E+03 -0.85275644388E+02  0.12378450964E+03  0.25934043184E+03  0.00000000000E+00 0. -1.
         -1    1    3    3    0  502 -0.19504821062E+03 -0.13648439530E+03  0.64677607593E+02  0.24668803690E+03  0.00000000000E+00 0.  1.
         11    1    5    5    0    0  0.20123539248E+03 -0.20891408366E+03  0.20201157479E+03  0.35348190037E+03  0.00000000000E+00 0. -1.
        -11    1    5    5    0    0  0.52176126945E+02 -0.36069690669E+01  0.55363489151E+02  0.76160845451E+02  0.00000000000E+00 0.  1.
          4    1    6    6  503    0 -0.10317170935E+01  0.10783886715E+03  0.45078095251E+03  0.46350162119E+03  0.00000000000E+00 0.  1.
         -4    1    6    6    0  503  0.15400444221E+03  0.32644222527E+03  0.13803362204E+04  0.14267480423E+04  0.00000000000E+00 0. -1.
<mgrwt>
<rscale>  0 0.16737108E+04</rscale>
<asrwt>0</asrwt>
<pdfrwt beam="1">  1        2 0.39252885E+00 0.16737108E+04</pdfrwt>
<pdfrwt beam="2">  1       -1 0.42228196E-01 0.16737108E+04</pdfrwt>
<totfact> 0.19486090E+01</totfact>
</mgrwt>
</event>
<event>
12    6  0.1538774E-007  0.2166338E+04  0.7818608E-02  0.8532571E-01
         -1   -1    0    0    0  501 -0.00000000000E+00  0.00000000000E+00  0.58545547706E+03  0.58545547706E+03  0.00000000000E+00 0.  1.
          2   -1    0    0  501    0  0.00000000000E+00 -0.00000000000E+00 -0.20040046097E+04  0.20040046097E+04  0.00000000000E+00 0. -1.
         24    2    1    2    0    0 -0.68413791928E+03 -0.26382660479E+03 -0.11989048962E+04  0.14074027855E+04  0.75897829046E+02 0.  0.
        254    2    1    2    0    0  0.68413791928E+03  0.26382660479E+03 -0.21964423647E+03  0.11820573013E+04  0.90075895943E+03 0.  0.
         23    2    4    4    0    0  0.10995942603E+03 -0.23806890927E+03 -0.30108704976E+03  0.40964549321E+03  0.91586776574E+02 0.  0.
         23    2    4    4    0    0  0.57417849325E+03  0.50189551406E+03  0.81442813291E+02  0.77241180811E+03  0.91689804877E+02 0.  0.
          2    1    3    3  502    0 -0.38854372511E+03 -0.18248962437E+03 -0.65757432351E+03  0.78528509490E+03  0.00000000000E+00 0. -1.
         -1    1    3    3    0  502 -0.29559419417E+03 -0.81336980428E+02 -0.54133057269E+03  0.62211769059E+03  0.00000000000E+00 0.  1.
         11    1    5    5    0    0  0.77103364786E+02 -0.22252455053E+03 -0.28549728443E+03  0.37009566853E+03  0.00000000000E+00 0. -1.
        -11    1    5    5    0    0  0.32856061247E+02 -0.15544358738E+02 -0.15589765331E+02  0.39549824682E+02  0.00000000000E+00 0.  1.
          3    1    6    6  503    0  0.19484938953E+03  0.21600920415E+03  0.59372743988E+02  0.29690298686E+03  0.00000000000E+00 0. -1.
         -3    1    6    6    0  503  0.37932910372E+03  0.28588630991E+03  0.22070069303E+02  0.47550882124E+03  0.00000000000E+00 0.  1.
<mgrwt>
<rscale>  0 0.21663384E+04</rscale>
<asrwt>0</asrwt>
<pdfrwt beam="1">  1        2 0.30830840E+00 0.21663384E+04</pdfrwt>
<pdfrwt beam="2">  1       -1 0.90070073E-01 0.21663384E+04</pdfrwt>
<totfact> 0.83620901E+00</totfact>
</mgrwt>
</event>
<event>
12    6  0.1538774E-007  0.2038014E+04  0.7818608E-02  0.8589051E-01
          2   -1    0    0  501    0  0.00000000000E+00  0.00000000000E+00  0.27545688645E+04  0.27545688645E+04  0.00000000000E+00 0. -1.
         -1   -1    0    0    0  501 -0.00000000000E+00 -0.00000000000E+00 -0.37696484346E+03  0.37696484346E+03  0.00000000000E+00 0.  1.
         24    2    1    2    0    0 -0.39206187955E+03  0.20558719881E+03  0.19782675607E+04  0.20288264179E+04  0.81335590326E+02 0.  0.
        254    2    1    2    0    0  0.39206187955E+03 -0.20558719881E+03  0.39933646031E+03  0.11027072901E+04  0.92763955576E+03 0.  0.
         23    2    4    4    0    0  0.93363646503E+02  0.24958075340E+03 -0.15319304764E+03  0.32147551827E+03  0.94186389932E+02 0.  0.
         23    2    4    4    0    0  0.29869823305E+03 -0.45516795221E+03  0.55252950795E+03  0.78123177183E+03  0.92928601703E+02 0.  0.
          4    1    3    3  502    0 -0.14093938407E+03  0.96693781003E+02  0.91946484420E+03  0.93521612315E+03  0.00000000000E+00 0. -1.
         -3    1    3    3    0  502 -0.25112249547E+03  0.10889341781E+03  0.10588027165E+04  0.10936102947E+04  0.00000000000E+00 0.  1.
         11    1    5    5    0    0  0.60650577536E+02  0.22683694714E+03 -0.10048491618E+03  0.25540303742E+03  0.00000000000E+00 0.  1.
        -11    1    5    5    0    0  0.32713068967E+02  0.22743806258E+02 -0.52708131455E+02  0.66072480851E+02  0.00000000000E+00 0. -1.
          2    1    6    6  503    0  0.62573963141E+02 -0.14323992324E+03  0.20612284562E+03  0.25868862356E+03  0.00000000000E+00 0. -1.
         -2    1    6    6    0  503  0.23612426990E+03 -0.31192802897E+03  0.34640666233E+03  0.52254314827E+03  0.00000000000E+00 0.  1.
<mgrwt>
<rscale>  0 0.20380143E+04</rscale>
<asrwt>0</asrwt>
<pdfrwt beam="1">  1        2 0.42377981E+00 0.20380143E+04</pdfrwt>
<pdfrwt beam="2">  1       -1 0.57994593E-01 0.20380143E+04</pdfrwt>
<totfact> 0.78304074E+00</totfact>
</mgrwt>
</event>
<event>
12    6  0.1538774E-007  0.1666711E+04  0.7818608E-02  0.8780581E-01
         -1   -1    0    0    0  501 -0.00000000000E+00  0.00000000000E+00  0.47397722102E+03  0.47397722102E+03  0.00000000000E+00 0.  1.
          2   -1    0    0  501    0  0.00000000000E+00 -0.00000000000E+00 -0.14652218543E+04  0.14652218543E+04  0.00000000000E+00 0. -1.
         24    2    1    2    0    0  0.27643829480E+03 -0.13320534724E+03  0.23152069360E+03  0.39276199704E+03  0.80612402177E+02 0.  0.
        254    2    1    2    0    0 -0.27643829480E+03  0.13320534724E+03 -0.12227653269E+04  0.15464370783E+04  0.89562871611E+03 0.  0.
         23    2    4    4    0    0 -0.13419031978E+03  0.44283738566E+02 -0.13209267752E+04  0.13316317181E+04  0.91800847350E+02 0.  0.
         23    2    4    4    0    0 -0.14224797502E+03  0.88921608676E+02  0.98161448317E+02  0.21480536026E+03  0.91455639384E+02 0.  0.
          4    1    3    3  502    0  0.16444400987E+02 -0.64164605116E+01  0.45615417472E+02  0.48911712304E+02  0.00000000000E+00 0. -1.
         -3    1    3    3    0  502  0.25999389381E+03 -0.12678888673E+03  0.18590527613E+03  0.34385028473E+03  0.00000000000E+00 0.  1.
         11    1    5    5    0    0 -0.45271606633E+01  0.37379767283E+02 -0.24035602071E+03  0.24328739975E+03  0.00000000000E+00 0.  1.
        -11    1    5    5    0    0 -0.12966315912E+03  0.69039712833E+01 -0.10805707545E+04  0.10883443183E+04  0.00000000000E+00 0. -1.
          1    1    6    6  503    0  0.11914094360E+02  0.56378519500E+01 -0.14330220684E+01  0.13258377400E+02  0.00000000000E+00 0. -1.
         -1    1    6    6    0  503 -0.15416206938E+03  0.83283756726E+02  0.99594470385E+02  0.20154698286E+03  0.00000000000E+00 0.  1.
<mgrwt>
<rscale>  0 0.16667115E+04</rscale>
<asrwt>0</asrwt>
<pdfrwt beam="1">  1        2 0.22541875E+00 0.16667115E+04</pdfrwt>
<pdfrwt beam="2">  1       -1 0.72919573E-01 0.16667115E+04</pdfrwt>
<totfact> 0.27380274E+01</totfact>
</mgrwt>
</event>
<event>
12    6  0.1538774E-007  0.1734471E+04  0.7818608E-02  0.8741945E-01
          2   -1    0    0  501    0  0.00000000000E+00  0.00000000000E+00  0.34455295231E+03  0.34455295231E+03  0.00000000000E+00 0. -1.
         -1   -1    0    0    0  501 -0.00000000000E+00 -0.00000000000E+00 -0.21828206912E+04  0.21828206912E+04  0.00000000000E+00 0.  1.
         24    2    1    2    0    0 -0.42585141337E+03 -0.13037040465E+02 -0.13398194366E+04  0.14083495302E+04  0.82540206349E+02 0.  0.
        254    2    1    2    0    0  0.42585141337E+03  0.13037040465E+02 -0.49844830227E+03  0.11190241133E+04  0.90677718626E+03 0.  0.
         23    2    4    4    0    0  0.70281703772E+02  0.40570537862E+03 -0.38253503279E+03  0.56922507937E+03  0.90264985179E+02 0.  0.
         23    2    4    4    0    0  0.35556970960E+03 -0.39266833816E+03 -0.11591326948E+03  0.54979903398E+03  0.90690956249E+02 0.  0.
          4    1    3    3  502    0 -0.13861745817E+03 -0.34551224178E+02 -0.52625223760E+03  0.54529808764E+03  0.00000000000E+00 0. -1.
         -1    1    3    3    0  502 -0.28723395520E+03  0.21514183713E+02 -0.81356719904E+03  0.86305144254E+03  0.00000000000E+00 0.  1.
         11    1    5    5    0    0  0.12790421948E+02  0.29873873405E+03 -0.29006688884E+03  0.41658999762E+03  0.00000000000E+00 0. -1.
        -11    1    5    5    0    0  0.57491281824E+02  0.10696664457E+03 -0.92468143950E+02  0.15263508176E+03  0.00000000000E+00 0.  1.
          3    1    6    6  503    0  0.33702017389E+03 -0.37151158877E+03 -0.86337143632E+02  0.50897697450E+03  0.00000000000E+00 0. -1.
         -3    1    6    6    0  503  0.18549535705E+02 -0.21156749382E+02 -0.29576125850E+02  0.40822059473E+02  0.00000000000E+00 0.  1.
<mgrwt>
<rscale>  0 0.17344709E+04</rscale>
<asrwt>0</asrwt>
<pdfrwt beam="1">  1        2 0.53008145E-01 0.17344709E+04</pdfrwt>
<pdfrwt beam="2">  1       -1 0.33581858E+00 0.17344709E+04</pdfrwt>
<totfact> 0.19732667E+00</totfact>
</mgrwt>
</event>
<event>
12    6  0.1538774E-007  0.1698464E+04  0.7818608E-02  0.8762241E-01
         -1   -1    0    0    0  501 -0.00000000000E+00  0.00000000000E+00  0.11744960672E+04  0.11744960672E+04  0.00000000000E+00 0.  1.
          2   -1    0    0  501    0  0.00000000000E+00 -0.00000000000E+00 -0.61404618919E+03  0.61404618919E+03  0.00000000000E+00 0. -1.
         24    2    1    2    0    0 -0.56092467974E+03  0.23557851622E+03  0.14043482909E+03  0.62936016545E+03  0.78984447756E+02 0.  0.
        254    2    1    2    0    0  0.56092467974E+03 -0.23557851622E+03  0.42001504890E+03  0.11591820909E+04  0.89283634837E+03 0.  0.
         23    2    4    4    0    0  0.19372895758E+02  0.16852441017E+03 -0.17029713194E+03  0.25801190140E+03  0.93772289110E+02 0.  0.
         23    2    4    4    0    0  0.54155178398E+03 -0.40410292638E+03  0.59031218085E+03  0.90117018952E+03  0.84034098902E+02 0.  0.
          2    1    3    3  502    0 -0.29252295591E+03  0.12441327784E+03  0.11377042710E+03  0.33762709240E+03  0.00000000000E+00 0. -1.
         -1    1    3    3    0  502 -0.26840172383E+03  0.11116523838E+03  0.26664401983E+02  0.29173307305E+03  0.00000000000E+00 0.  1.
         11    1    5    5    0    0  0.47345854281E+02  0.81885790114E+02 -0.12375305437E+03  0.15576177646E+03  0.00000000000E+00 0. -1.
        -11    1    5    5    0    0 -0.27972958523E+02  0.86638620053E+02 -0.46544077570E+02  0.10225012494E+03  0.00000000000E+00 0.  1.
          3    1    6    6  503    0  0.11685740894E+03 -0.66218770661E+02  0.80664670663E+02  0.15667599913E+03  0.00000000000E+00 0. -1.
         -3    1    6    6    0  503  0.42469437505E+03 -0.33788415572E+03  0.50964751018E+03  0.74449419039E+03  0.00000000000E+00 0.  1.
<mgrwt>
<rscale>  0 0.16984638E+04</rscale>
<asrwt>0</asrwt>
<pdfrwt beam="1">  1        2 0.94468645E-01 0.16984638E+04</pdfrwt>
<pdfrwt beam="2">  1       -1 0.18069170E+00 0.16984638E+04</pdfrwt>
<totfact> 0.10784134E+01</totfact>
</mgrwt>
</event>
<event>
12    6  0.1538774E-007  0.2291289E+04  0.7818608E-02  0.8481364E-01
         -1   -1    0    0    0  501 -0.00000000000E+00  0.00000000000E+00  0.19477343787E+04  0.19477343787E+04  0.00000000000E+00 0.  1.
          2   -1    0    0  501    0  0.00000000000E+00 -0.00000000000E+00 -0.67386073868E+03  0.67386073868E+03  0.00000000000E+00 0. -1.
         24    2    1    2    0    0  0.90849626282E+02 -0.16511059100E+03  0.16292502926E+04  0.16420107058E+04  0.78914383974E+02 0.  0.
        254    2    1    2    0    0 -0.90849626282E+02  0.16511059100E+03 -0.35537665262E+03  0.97958441159E+03  0.89318413126E+03 0.  0.
         23    2    4    4    0    0 -0.14866259552E+03 -0.22910438190E+03 -0.47547565420E+03  0.55528467149E+03  0.87604700467E+02 0.  0.
         23    2    4    4    0    0  0.57812969240E+02  0.39421497291E+03  0.12009900158E+03  0.42429974009E+03  0.82817359224E+02 0.  0.
          2    1    3    3  502    0  0.53493274834E+02 -0.42506090636E+02  0.37009444321E+03  0.37634850217E+03  0.00000000000E+00 0. -1.
         -1    1    3    3    0  502  0.37356351449E+02 -0.12260450037E+03  0.12591558494E+04  0.12656622036E+04  0.00000000000E+00 0.  1.
         11    1    5    5    0    0 -0.15832273377E+03 -0.19461712344E+03 -0.41061520200E+03  0.48119305573E+03  0.00000000000E+00 0. -1.
        -11    1    5    5    0    0  0.96601382517E+01 -0.34487258467E+02 -0.64860452196E+02  0.74091615765E+02  0.00000000000E+00 0.  1.
          4    1    6    6  503    0  0.57398899569E+02  0.38189926010E+03  0.97101643411E+02  0.39820900001E+03  0.00000000000E+00 0. -1.
         -4    1    6    6    0  503  0.41406967166E+00  0.12315712811E+02  0.22997358166E+02  0.26090740088E+02  0.00000000000E+00 0.  1.
<mgrwt>
<rscale>  0 0.22912894E+04</rscale>
<asrwt>0</asrwt>
<pdfrwt beam="1">  1        2 0.10367088E+00 0.22912894E+04</pdfrwt>
<pdfrwt beam="2">  1       -1 0.29965144E+00 0.22912894E+04</pdfrwt>
<totfact> 0.14778872E+00</totfact>
</mgrwt>
</event>
<event>
12    6  0.1538774E-007  0.1482088E+04  0.7818608E-02  0.8896452E-01
         -1   -1    0    0    0  501 -0.00000000000E+00  0.00000000000E+00  0.27901031119E+03  0.27901031119E+03  0.00000000000E+00 0.  1.
          2   -1    0    0  501    0  0.00000000000E+00 -0.00000000000E+00 -0.19681939876E+04  0.19681939876E+04  0.00000000000E+00 0. -1.
         24    2    1    2    0    0 -0.36433899644E+03  0.12880393625E+03 -0.88954721599E+03  0.97309329146E+03  0.79265037031E+02 0.  0.
        254    2    1    2    0    0  0.36433899644E+03 -0.12880393625E+03 -0.79963646044E+03  0.12741110073E+04  0.91356829621E+03 0.  0.
         23    2    4    4    0    0 -0.13901834518E+02 -0.67848836023E+02 -0.86899281106E+03  0.87578218080E+03  0.83959496086E+02 0.  0.
         23    2    4    4    0    0  0.37824083096E+03 -0.60955100226E+02  0.69356350620E+02  0.39832882654E+03  0.84106481529E+02 0.  0.
          4    1    3    3  502    0 -0.29756838383E+03  0.12689908466E+03 -0.67743913046E+03  0.75071572264E+03  0.00000000000E+00 0. -1.
         -3    1    3    3    0  502 -0.66770612609E+02  0.19048515873E+01 -0.21210808553E+03  0.22237756882E+03  0.00000000000E+00 0.  1.
         11    1    5    5    0    0  0.13877181787E+02 -0.17870032375E+02 -0.61569535626E+03  0.61611093640E+03  0.00000000000E+00 0.  1.
        -11    1    5    5    0    0 -0.27779016305E+02 -0.49978803648E+02 -0.25329745480E+03  0.25967124440E+03  0.00000000000E+00 0. -1.
          1    1    6    6  503    0  0.13233776162E+02 -0.15593652124E+01 -0.13909749657E+02  0.19262543625E+02  0.00000000000E+00 0. -1.
         -1    1    6    6    0  503  0.36500705479E+03 -0.59395735014E+02  0.83266100278E+02  0.37906628292E+03  0.00000000000E+00 0.  1.
<mgrwt>
<rscale>  0 0.14820883E+04</rscale>
<asrwt>0</asrwt>
<pdfrwt beam="1">  1        2 0.30279907E+00 0.14820883E+04</pdfrwt>
<pdfrwt beam="2">  1       -1 0.42924664E-01 0.14820883E+04</pdfrwt>
<totfact> 0.41026757E+01</totfact>
</mgrwt>
</event>
<event>
12    6  0.1538774E-007  0.1659124E+04  0.7818608E-02  0.8785027E-01
          2   -1    0    0  501    0  0.00000000000E+00  0.00000000000E+00  0.21256308700E+04  0.21256308700E+04  0.00000000000E+00 0. -1.
         -1   -1    0    0    0  501 -0.00000000000E+00 -0.00000000000E+00 -0.32374993921E+03  0.32374993921E+03  0.00000000000E+00 0.  1.
         24    2    1    2    0    0 -0.57994966898E+03  0.23334584523E+02  0.64022759662E+03  0.87033127373E+03  0.10343611150E+03 0.  0.
        254    2    1    2    0    0  0.57994966898E+03 -0.23334584523E+02  0.11616533341E+04  0.15790495355E+04  0.89837233112E+03 0.  0.
         23    2    4    4    0    0  0.14991647419E+03 -0.24898423263E+03  0.10206882433E+04  0.10650108402E+04  0.89305668342E+02 0.  0.
         23    2    4    4    0    0  0.43003319479E+03  0.22564964811E+03  0.14096509088E+03  0.51403869530E+03  0.92294697087E+02 0.  0.
          4    1    3    3  502    0 -0.18890189018E+03  0.33645074991E+02  0.15241916483E+03  0.24504594874E+03  0.00000000000E+00 0. -1.
         -3    1    3    3    0  502 -0.39104777880E+03 -0.10310490467E+02  0.48780843179E+03  0.62528532499E+03  0.00000000000E+00 0.  1.
         11    1    5    5    0    0  0.11538259089E+03 -0.22516831773E+03  0.76102034410E+03  0.80197623264E+03  0.00000000000E+00 0.  1.
        -11    1    5    5    0    0  0.34533883306E+02 -0.23815914905E+02  0.25966789916E+03  0.26303460752E+03  0.00000000000E+00 0. -1.
          1    1    6    6  503    0  0.26078735406E+03  0.18651406203E+03  0.91683875466E+02  0.33347184648E+03  0.00000000000E+00 0. -1.
         -1    1    6    6    0  503  0.16924584073E+03  0.39135586074E+02  0.49281215419E+02  0.18056684882E+03  0.00000000000E+00 0.  1.
<mgrwt>
<rscale>  0 0.16591237E+04</rscale>
<asrwt>0</asrwt>
<pdfrwt beam="1">  1        2 0.32702012E+00 0.16591237E+04</pdfrwt>
<pdfrwt beam="2">  1       -1 0.49807684E-01 0.16591237E+04</pdfrwt>
<totfact> 0.25001450E+01</totfact>
</mgrwt>
</event>
<event>
12    6  0.1538774E-007  0.2400200E+04  0.7818608E-02  0.8439429E-01
         -1   -1    0    0    0  501 -0.00000000000E+00  0.00000000000E+00  0.65404416921E+03  0.65404416921E+03  0.00000000000E+00 0.  1.
          2   -1    0    0  501    0  0.00000000000E+00 -0.00000000000E+00 -0.22020527192E+04  0.22020527192E+04  0.00000000000E+00 0. -1.
         24    2    1    2    0    0 -0.19937746619E+03 -0.38292616717E+03 -0.17790252064E+04  0.18324038940E+04  0.79934486745E+02 0.  0.
        254    2    1    2    0    0  0.19937746619E+03  0.38292616717E+03  0.23101665638E+03  0.10236929944E+04  0.89899656719E+03 0.  0.
         23    2    4    4    0    0  0.39758793967E+03  0.76748982014E+02  0.43066789741E+03  0.59816896374E+03  0.91458708257E+02 0.  0.
         23    2    4    4    0    0 -0.19821047347E+03  0.30617718516E+03 -0.19965124103E+03  0.42552403070E+03  0.90433523409E+02 0.  0.
          4    1    3    3  502    0 -0.12213614962E+03 -0.30077669190E+03 -0.13870617958E+04  0.14245435349E+04  0.00000000000E+00 0. -1.
         -3    1    3    3    0  502 -0.77241316574E+02 -0.82149475274E+02 -0.39196341053E+03  0.40786035903E+03  0.00000000000E+00 0.  1.
         11    1    5    5    0    0  0.14093391293E+03  0.88879364282E+01  0.94936494175E+02  0.17015963433E+03  0.00000000000E+00 0.  1.
        -11    1    5    5    0    0  0.25665402673E+03  0.67861045586E+02  0.33573140323E+03  0.42800932941E+03  0.00000000000E+00 0. -1.
          3    1    6    6  503    0 -0.33175494977E+02  0.93262730475E+02 -0.92911663273E+02  0.13576128879E+03  0.00000000000E+00 0. -1.
         -3    1    6    6    0  503 -0.16503497850E+03  0.21291445468E+03 -0.10673957776E+03  0.28976274191E+03  0.00000000000E+00 0.  1.
<mgrwt>
<rscale>  0 0.24001998E+04</rscale>
<asrwt>0</asrwt>
<pdfrwt beam="1">  1        2 0.33877734E+00 0.24001998E+04</pdfrwt>
<pdfrwt beam="2">  1       -1 0.10062218E+00 0.24001998E+04</pdfrwt>
<totfact> 0.49503053E+00</totfact>
</mgrwt>
</event>
<event>
12    6  0.1538774E-007  0.1819161E+04  0.7818608E-02  0.8696176E-01
          2   -1    0    0  501    0  0.00000000000E+00  0.00000000000E+00  0.29991733109E+04  0.29991733109E+04  0.00000000000E+00 0. -1.
         -1   -1    0    0    0  501 -0.00000000000E+00 -0.00000000000E+00 -0.27585493327E+03  0.27585493327E+03  0.00000000000E+00 0.  1.
         24    2    1    2    0    0 -0.49075737598E+03  0.12740159476E+03  0.18474127607E+04  0.19173725282E+04  0.79432581986E+02 0.  0.
        254    2    1    2    0    0  0.49075737598E+03 -0.12740159476E+03  0.87590561693E+03  0.13576557160E+04  0.90495548228E+03 0.  0.
         23    2    4    4    0    0  0.58810426765E+02 -0.95867484170E+02  0.90205890195E+03  0.91371566790E+03  0.92286609922E+02 0.  0.
         23    2    4    4    0    0  0.43194694922E+03 -0.31534110590E+02 -0.26153285018E+02  0.44394004807E+03  0.93947883905E+02 0.  0.
          4    1    3    3  502    0 -0.42852587128E+03  0.10967273758E+03  0.14949110450E+04  0.15589809377E+04  0.00000000000E+00 0. -1.
         -3    1    3    3    0  502 -0.62231504707E+02  0.17728857183E+02  0.35250171572E+03  0.35839159050E+03  0.00000000000E+00 0.  1.
         11    1    5    5    0    0  0.48771788809E+01 -0.88669433065E+02  0.63410858243E+03  0.64029661060E+03  0.00000000000E+00 0. -1.
        -11    1    5    5    0    0  0.53933247884E+02 -0.71980511052E+01  0.26795031952E+03  0.27341905730E+03  0.00000000000E+00 0.  1.
          1    1    6    6  503    0  0.34619054217E+03 -0.30571490772E+02  0.16959841467E+02  0.34795135258E+03  0.00000000000E+00 0. -1.
         -1    1    6    6    0  503  0.85756407043E+02 -0.96261981793E+00 -0.43113126485E+02  0.95988695486E+02  0.00000000000E+00 0.  1.
<mgrwt>
<rscale>  0 0.18191611E+04</rscale>
<asrwt>0</asrwt>
<pdfrwt beam="1">  1        2 0.46141126E+00 0.18191611E+04</pdfrwt>
<pdfrwt beam="2">  1       -1 0.42439223E-01 0.18191611E+04</pdfrwt>
<totfact> 0.10254887E+01</totfact>
</mgrwt>
</event>
<event>
12    6  0.1538774E-007  0.2303829E+04  0.7818608E-02  0.8476413E-01
         -1   -1    0    0    0  501 -0.00000000000E+00  0.00000000000E+00  0.58309326295E+03  0.58309326295E+03  0.00000000000E+00 0.  1.
          2   -1    0    0  501    0  0.00000000000E+00 -0.00000000000E+00 -0.22756334806E+04  0.22756334806E+04  0.00000000000E+00 0. -1.
         24    2    1    2    0    0 -0.62577476697E+03  0.10587929612E+03  0.19867150790E+03  0.66961847667E+03  0.78192403263E+02 0.  0.
        254    2    1    2    0    0  0.62577476697E+03 -0.10587929612E+03 -0.18912117256E+04  0.21891082669E+04  0.90150359343E+03 0.  0.
         23    2    4    4    0    0 -0.18031133896E+03 -0.11822367720E+03 -0.18004126928E+03  0.29533211534E+03  0.91198590434E+02 0.  0.
         23    2    4    4    0    0  0.80608610593E+03  0.12344381081E+02 -0.17111704563E+04  0.18937761515E+04  0.91414374344E+02 0.  0.
          4    1    3    3  502    0 -0.30095372025E+03  0.83968142420E+02  0.74696091764E+02  0.32125269928E+03  0.00000000000E+00 0. -1.
         -3    1    3    3    0  502 -0.32482104672E+03  0.21911153699E+02  0.12397541613E+03  0.34836577739E+03  0.00000000000E+00 0.  1.
         11    1    5    5    0    0 -0.12525181838E+03 -0.30866191561E+02 -0.81439111494E+02  0.15255513322E+03  0.00000000000E+00 0.  1.
        -11    1    5    5    0    0 -0.55059520578E+02 -0.87357485638E+02 -0.98602157789E+02  0.14277698212E+03  0.00000000000E+00 0. -1.
          3    1    6    6  503    0  0.36521120964E+02 -0.12387182574E+02 -0.52846314763E+02  0.65421460948E+02  0.00000000000E+00 0. -1.
         -3    1    6    6    0  503  0.76956498497E+03  0.24731563655E+02 -0.16583241415E+04  0.18283546906E+04  0.00000000000E+00 0.  1.
<mgrwt>
<rscale>  0 0.23038286E+04</rscale>
<asrwt>0</asrwt>
<pdfrwt beam="1">  1        2 0.35009745E+00 0.23038286E+04</pdfrwt>
<pdfrwt beam="2">  1       -1 0.89706657E-01 0.23038286E+04</pdfrwt>
<totfact> 0.58716992E+00</totfact>
</mgrwt>
</event>
<event>
12    6  0.1538774E-007  0.1985643E+04  0.7818608E-02  0.8613363E-01
         -1   -1    0    0    0  501 -0.00000000000E+00  0.00000000000E+00  0.72504062537E+03  0.72504062537E+03  0.00000000000E+00 0.  1.
          2   -1    0    0  501    0  0.00000000000E+00 -0.00000000000E+00 -0.13595020587E+04  0.13595020587E+04  0.00000000000E+00 0. -1.
         24    2    1    2    0    0 -0.65108573605E+03  0.24909441946E+03 -0.64973923817E+03  0.95627491305E+03  0.79623904916E+02 0.  0.
        254    2    1    2    0    0  0.65108573605E+03 -0.24909441946E+03  0.15277804853E+02  0.11282677710E+04  0.88701414097E+03 0.  0.
         23    2    4    4    0    0  0.66938609924E+03 -0.47652436940E+03  0.16304190612E+03  0.84224474676E+03  0.87408957246E+02 0.  0.
         23    2    4    4    0    0 -0.18300363198E+02  0.22742994995E+03 -0.14776410127E+03  0.28602302424E+03  0.88969968797E+02 0.  0.
          2    1    3    3  502    0 -0.38551692191E+03  0.12790950115E+03 -0.42488678811E+03  0.58780347079E+03  0.00000000000E+00 0. -1.
         -1    1    3    3    0  502 -0.26556881414E+03  0.12118491831E+03 -0.22485245006E+03  0.36847144226E+03  0.00000000000E+00 0.  1.
         11    1    5    5    0    0  0.65704682470E+02 -0.81967718912E+02  0.24593574973E+02  0.10789187259E+03  0.00000000000E+00 0. -1.
        -11    1    5    5    0    0  0.60368141677E+03 -0.39455665049E+03  0.13844833115E+03  0.73435287417E+03  0.00000000000E+00 0.  1.
          1    1    6    6  503    0 -0.18582387559E+02  0.23129253906E+03 -0.12624422582E+03  0.26415743091E+03  0.00000000000E+00 0.  1.
         -1    1    6    6    0  503  0.28202436109E+00 -0.38625891159E+01 -0.21519875448E+02  0.21865593331E+02  0.00000000000E+00 0. -1.
<mgrwt>
<rscale>  0 0.19856427E+04</rscale>
<asrwt>0</asrwt>
<pdfrwt beam="1">  1        2 0.20915416E+00 0.19856427E+04</pdfrwt>
<pdfrwt beam="2">  1       -1 0.11154471E+00 0.19856427E+04</pdfrwt>
<totfact> 0.11951009E+01</totfact>
</mgrwt>
</event>
<event>
12    6  0.1538774E-007  0.1305802E+04  0.7818608E-02  0.9024976E-01
         -1   -1    0    0    0  501 -0.00000000000E+00  0.00000000000E+00  0.10967058488E+04  0.10967058488E+04  0.00000000000E+00 0.  1.
          2   -1    0    0  501    0  0.00000000000E+00 -0.00000000000E+00 -0.38869122646E+03  0.38869122646E+03  0.00000000000E+00 0. -1.
         24    2    1    2    0    0  0.21388848148E+03 -0.97781833963E+02 -0.83911371999E+02  0.26128834833E+03  0.76947469496E+02 0.  0.
        254    2    1    2    0    0 -0.21388848148E+03  0.97781833963E+02  0.79192599435E+03  0.12241087269E+04  0.90331933737E+03 0.  0.
         23    2    4    4    0    0 -0.25358843609E+03  0.44564479549E+03  0.65650995156E+03  0.83775012293E+03  0.88958267221E+02 0.  0.
         23    2    4    4    0    0  0.39699954616E+02 -0.34786296153E+03  0.13541604279E+03  0.38635860400E+03  0.91382382565E+02 0.  0.
          4    1    3    3  502    0  0.18495136146E+03 -0.10108147787E+03 -0.93565050437E+02  0.23060548549E+03  0.00000000000E+00 0. -1.
         -3    1    3    3    0  502  0.28937120020E+02  0.32996439089E+01  0.96536784384E+01  0.30682862845E+02  0.00000000000E+00 0.  1.
         11    1    5    5    0    0 -0.24611644848E+03  0.44909789996E+03  0.64760322983E+03  0.82562229455E+03  0.00000000000E+00 0. -1.
        -11    1    5    5    0    0 -0.74719876119E+01 -0.34531044738E+01  0.89067217337E+01  0.12127828388E+02  0.00000000000E+00 0.  1.
          1    1    6    6  503    0 -0.19376257716E+02 -0.20141989008E+03  0.93941477138E+02  0.22309283406E+03  0.00000000000E+00 0. -1.
         -1    1    6    6    0  503  0.59076212332E+02 -0.14644307145E+03  0.41474565650E+02  0.16326576994E+03  0.00000000000E+00 0.  1.
<mgrwt>
<rscale>  0 0.13058023E+04</rscale>
<asrwt>0</asrwt>
<pdfrwt beam="1">  1        2 0.59798651E-01 0.13058023E+04</pdfrwt>
<pdfrwt beam="2">  1       -1 0.16872398E+00 0.13058023E+04</pdfrwt>
<totfact> 0.23158721E+01</totfact>
</mgrwt>
</event>
<event>
12    6  0.1538774E-007  0.1658706E+04  0.7818608E-02  0.8785273E-01
         -3   -1    0    0    0  501 -0.00000000000E+00  0.00000000000E+00  0.36011520435E+03  0.36011520435E+03  0.00000000000E+00 0.  1.
          4   -1    0    0  501    0  0.00000000000E+00 -0.00000000000E+00 -0.19100168300E+04  0.19100168300E+04  0.00000000000E+00 0. -1.
         24    2    1    2    0    0  0.17840760108E+03 -0.51103079223E+03 -0.24989458021E+03  0.60125159493E+03  0.77938671133E+02 0.  0.
        254    2    1    2    0    0 -0.17840760108E+03  0.51103079223E+03 -0.13000070454E+04  0.16688804394E+04  0.89563489223E+03 0.  0.
         23    2    4    4    0    0  0.12241048852E+03  0.42918112808E+03 -0.15869820574E+03  0.48201976469E+03  0.89314974327E+02 0.  0.
         23    2    4    4    0    0 -0.30081808960E+03  0.81849664144E+02 -0.11413088397E+04  0.11868606747E+04  0.94135557200E+02 0.  0.
          2    1    3    3  502    0  0.61854606725E+02 -0.19283330498E+03 -0.53001814406E+02  0.20933195698E+03  0.00000000000E+00 0. -1.
         -1    1    3    3    0  502  0.11655299436E+03 -0.31819748725E+03 -0.19689276581E+03  0.39191963795E+03  0.00000000000E+00 0.  1.
         11    1    5    5    0    0  0.33324693890E+02  0.17887986437E+03 -0.22146824341E+02  0.18330036260E+03  0.00000000000E+00 0.  1.
        -11    1    5    5    0    0  0.89085794630E+02  0.25030126371E+03 -0.13655138140E+03  0.29871940209E+03  0.00000000000E+00 0. -1.
          2    1    6    6  503    0 -0.25130192546E+03  0.98645968801E+02 -0.10117312848E+04  0.10471312609E+04  0.00000000000E+00 0.  1.
         -2    1    6    6    0  503 -0.49516164143E+02 -0.16796304658E+02 -0.12957755492E+03  0.13972941387E+03  0.00000000000E+00 0. -1.
<mgrwt>
<rscale>  0 0.16587056E+04</rscale>
<asrwt>0</asrwt>
<pdfrwt beam="1">  1        4 0.29384874E+00 0.16587056E+04</pdfrwt>
<pdfrwt beam="2">  1       -3 0.55402339E-01 0.16587056E+04</pdfrwt>
<totfact> 0.23705318E-01</totfact>
</mgrwt>
</event>
<event>
12    6  0.1538774E-007  0.1753909E+04  0.7818608E-02  0.8731201E-01
         -1   -1    0    0    0  501 -0.00000000000E+00  0.00000000000E+00  0.45999512215E+03  0.45999512215E+03  0.00000000000E+00 0.  1.
          2   -1    0    0  501    0  0.00000000000E+00 -0.00000000000E+00 -0.16718641923E+04  0.16718641923E+04  0.00000000000E+00 0. -1.
         24    2    1    2    0    0 -0.15227544486E+03 -0.39671434916E+03  0.12790912209E+03  0.45081012436E+03  0.79365853940E+02 0.  0.
        254    2    1    2    0    0  0.15227544486E+03  0.39671434916E+03 -0.13397781922E+04  0.16810491901E+04  0.92214461403E+03 0.  0.
         23    2    4    4    0    0 -0.66522897533E+02  0.64279544607E+03 -0.10321573370E+04  0.12211699458E+04  0.91082308308E+02 0.  0.
         23    2    4    4    0    0  0.21879834239E+03 -0.24608109691E+03 -0.30762085526E+03  0.45987924428E+03  0.91813440409E+02 0.  0.
          2    1    3    3  502    0 -0.65642287001E+02 -0.16269138811E+03  0.12523708063E+02  0.17588132610E+03  0.00000000000E+00 0. -1.
         -1    1    3    3    0  502 -0.86633157857E+02 -0.23402296105E+03  0.11538541403E+03  0.27492879826E+03  0.00000000000E+00 0.  1.
         11    1    5    5    0    0 -0.83949458905E+02  0.51197860753E+03 -0.78435448654E+03  0.94041563512E+03  0.00000000000E+00 0.  1.
        -11    1    5    5    0    0  0.17426561372E+02  0.13081683854E+03 -0.24780285044E+03  0.28075431069E+03  0.00000000000E+00 0. -1.
          1    1    6    6  503    0  0.69101742276E+02 -0.14572855037E+03 -0.13502606547E+03  0.21034233891E+03  0.00000000000E+00 0. -1.
         -1    1    6    6    0  503  0.14969660012E+03 -0.10035254654E+03 -0.17259478978E+03  0.24953690537E+03  0.00000000000E+00 0.  1.
<mgrwt>
<rscale>  0 0.17539092E+04</rscale>
<asrwt>0</asrwt>
<pdfrwt beam="1">  1        2 0.25720987E+00 0.17539092E+04</pdfrwt>
<pdfrwt beam="2">  1       -1 0.70768481E-01 0.17539092E+04</pdfrwt>
<totfact> 0.22138472E+01</totfact>
</mgrwt>
</event>
<event>
12    6  0.1538774E-007  0.1653250E+04  0.7818608E-02  0.8788486E-01
          2   -1    0    0  501    0  0.00000000000E+00  0.00000000000E+00  0.10068774241E+04  0.10068774241E+04  0.00000000000E+00 0. -1.
         -1   -1    0    0    0  501 -0.00000000000E+00 -0.00000000000E+00 -0.67864198503E+03  0.67864198503E+03  0.00000000000E+00 0.  1.
         24    2    1    2    0    0  0.49392132990E+03  0.10389255781E+03  0.40871172795E+03  0.65480143811E+03  0.83472768534E+02 0.  0.
        254    2    1    2    0    0 -0.49392132990E+03 -0.10389255781E+03 -0.80476288932E+02  0.10307179710E+04  0.89507047705E+03 0.  0.
         23    2    4    4    0    0 -0.37918439002E+03 -0.15420117950E+03  0.36704450111E+03  0.55764313992E+03  0.93195495104E+02 0.  0.
         23    2    4    4    0    0 -0.11473693989E+03  0.50308621684E+02 -0.44752079005E+03  0.47307483105E+03  0.88483984194E+02 0.  0.
          2    1    3    3  502    0  0.48653287956E+03  0.11210945042E+03  0.39206537563E+03  0.63482125873E+03  0.00000000000E+00 0. -1.
         -1    1    3    3    0  502  0.73884503441E+01 -0.82168926082E+01  0.16646352319E+02  0.19980179382E+02  0.00000000000E+00 0.  1.
         11    1    5    5    0    0 -0.10154318629E+03 -0.87229515474E+02  0.12777394313E+03  0.18505725491E+03  0.00000000000E+00 0.  1.
        -11    1    5    5    0    0 -0.27764120373E+03 -0.66971664025E+02  0.23927055799E+03  0.37258588501E+03  0.00000000000E+00 0. -1.
          3    1    6    6  503    0 -0.10963348359E+03  0.63678269885E+02 -0.43776561230E+03  0.45575558591E+03  0.00000000000E+00 0. -1.
         -3    1    6    6    0  503 -0.51034562969E+01 -0.13369648202E+02 -0.97551777469E+01  0.17319245136E+02  0.00000000000E+00 0.  1.
<mgrwt>
<rscale>  0 0.16532505E+04</rscale>
<asrwt>0</asrwt>
<pdfrwt beam="1">  1        2 0.15490422E+00 0.16532505E+04</pdfrwt>
<pdfrwt beam="2">  1       -1 0.10440646E+00 0.16532505E+04</pdfrwt>
<totfact> 0.23441109E+01</totfact>
</mgrwt>
</event>
<event>
12    6  0.1538774E-007  0.1657980E+04  0.7818608E-02  0.8785700E-01
          2   -1    0    0  501    0  0.00000000000E+00  0.00000000000E+00  0.72321222918E+03  0.72321222918E+03  0.00000000000E+00 0. -1.
         -1   -1    0    0    0  501 -0.00000000000E+00 -0.00000000000E+00 -0.95023885152E+03  0.95023885152E+03  0.00000000000E+00 0.  1.
         24    2    1    2    0    0  0.54167230517E+03 -0.14749875580E+03  0.23604754504E+01  0.56742789376E+03  0.82486808815E+02 0.  0.
        254    2    1    2    0    0 -0.54167230517E+03  0.14749875580E+03 -0.22938709779E+03  0.11060231869E+04  0.92493463567E+03 0.  0.
         23    2    4    4    0    0 -0.12625048249E+03  0.25051130689E+03 -0.50782212578E+03  0.58746631949E+03  0.92402737501E+02 0.  0.
         23    2    4    4    0    0 -0.41542182268E+03 -0.10301255109E+03  0.27843502798E+03  0.51855686745E+03  0.90489134862E+02 0.  0.
          2    1    3    3  502    0  0.48912351089E+03 -0.14846526644E+03  0.21192109284E+02  0.51159832852E+03  0.00000000000E+00 0. -1.
         -1    1    3    3    0  502  0.52548794274E+02  0.96651064086E+00 -0.18831633833E+02  0.55829565243E+02  0.00000000000E+00 0.  1.
         11    1    5    5    0    0 -0.31713399577E+02  0.17684018612E+02 -0.28099864247E+02  0.45913686387E+02  0.00000000000E+00 0.  1.
        -11    1    5    5    0    0 -0.94537082910E+02  0.23282728828E+03 -0.47972226153E+03  0.54155263310E+03  0.00000000000E+00 0. -1.
          2    1    6    6  503    0 -0.82117089210E+02 -0.43590712619E+02  0.26899236940E+02  0.96782929873E+02  0.00000000000E+00 0. -1.
         -2    1    6    6    0  503 -0.33330473347E+03 -0.59421838468E+02  0.25153579104E+03  0.42177393757E+03  0.00000000000E+00 0.  1.
<mgrwt>
<rscale>  0 0.16579799E+04</rscale>
<asrwt>0</asrwt>
<pdfrwt beam="1">  1        2 0.11126342E+00 0.16579799E+04</pdfrwt>
<pdfrwt beam="2">  1       -1 0.14619059E+00 0.16579799E+04</pdfrwt>
<totfact> 0.16019497E+01</totfact>
</mgrwt>
</event>
<event>
12    6  0.1538774E-007  0.1564989E+04  0.7818608E-02  0.8842350E-01
         -1   -1    0    0    0  501 -0.00000000000E+00  0.00000000000E+00  0.63832173580E+03  0.63832173580E+03  0.00000000000E+00 0.  1.
          2   -1    0    0  501    0  0.00000000000E+00 -0.00000000000E+00 -0.95923010279E+03  0.95923010279E+03  0.00000000000E+00 0. -1.
         24    2    1    2    0    0  0.16469711573E+03 -0.35237363993E+03 -0.45839018880E+03  0.60641671277E+03  0.79544593064E+02 0.  0.
        254    2    1    2    0    0 -0.16469711573E+03  0.35237363993E+03  0.13748182181E+03  0.99113512583E+03  0.90119657360E+03 0.  0.
         23    2    4    4    0    0  0.21252164776E+03 -0.18486649278E+03  0.14165885712E+03  0.32870248472E+03  0.92935573052E+02 0.  0.
         23    2    4    4    0    0 -0.37721876349E+03  0.53724013271E+03 -0.41770353092E+01  0.66243264111E+03  0.88761481836E+02 0.  0.
          2    1    3    3  502    0  0.15474623085E+03 -0.33732766636E+03 -0.45642850284E+03  0.58827147530E+03  0.00000000000E+00 0. -1.
         -1    1    3    3    0  502  0.99508848861E+01 -0.15045973573E+02 -0.19616859606E+01  0.18145237463E+02  0.00000000000E+00 0.  1.
         11    1    5    5    0    0  0.20984117655E+03 -0.18801918210E+03  0.15014456766E+03  0.31926152824E+03  0.00000000000E+00 0. -1.
        -11    1    5    5    0    0  0.26804712070E+01  0.31526893169E+01 -0.84857105428E+01  0.94409564789E+01  0.00000000000E+00 0.  1.
          3    1    6    6  503    0 -0.32844205772E+03  0.49255144773E+03  0.19048416173E+02  0.59232082193E+03  0.00000000000E+00 0. -1.
         -3    1    6    6    0  503 -0.48776705772E+02  0.44688684982E+02 -0.23225451482E+02  0.70111819174E+02  0.00000000000E+00 0.  1.
<mgrwt>
<rscale>  0 0.15649887E+04</rscale>
<asrwt>0</asrwt>
<pdfrwt beam="1">  1        2 0.14757386E+00 0.15649887E+04</pdfrwt>
<pdfrwt beam="2">  1       -1 0.98203345E-01 0.15649887E+04</pdfrwt>
<totfact> 0.29186335E+01</totfact>
</mgrwt>
</event>
<event>
12    6  0.1538774E-007  0.1233169E+04  0.7818608E-02  0.9084309E-01
         -1   -1    0    0    0  501 -0.00000000000E+00  0.00000000000E+00  0.16122874866E+03  0.16122874866E+03  0.00000000000E+00 0.  1.
          2   -1    0    0  501    0  0.00000000000E+00 -0.00000000000E+00 -0.23579944775E+04  0.23579944775E+04  0.00000000000E+00 0. -1.
         24    2    1    2    0    0  0.15663399355E+03  0.22306397913E+03 -0.36715235225E+03  0.46375647071E+03  0.77314084381E+02 0.  0.
        254    2    1    2    0    0 -0.15663399355E+03 -0.22306397913E+03 -0.18296133766E+04  0.20554667555E+04  0.89619569753E+03 0.  0.
         23    2    4    4    0    0 -0.36400753989E+01 -0.38384631089E+03 -0.17631036011E+04  0.18065935723E+04  0.88852612914E+02 0.  0.
         23    2    4    4    0    0 -0.15299391815E+03  0.16078233176E+03 -0.66509775553E+02  0.24887318319E+03  0.90863710431E+02 0.  0.
          4    1    3    3  502    0  0.51216231650E+02  0.68741282004E+02 -0.17947224447E+03  0.19889382285E+03  0.00000000000E+00 0. -1.
         -3    1    3    3    0  502  0.10541776190E+03  0.15432269713E+03 -0.18768010778E+03  0.26486264785E+03  0.00000000000E+00 0.  1.
         11    1    5    5    0    0 -0.41063988818E+02 -0.10634639071E+03 -0.51239173944E+03  0.52492008977E+03  0.00000000000E+00 0.  1.
        -11    1    5    5    0    0  0.37423913419E+02 -0.27749992018E+03 -0.12507118616E+04  0.12816734825E+04  0.00000000000E+00 0. -1.
          2    1    6    6  503    0 -0.11521748230E+03  0.11132616223E+03 -0.88299675228E+02  0.18293554949E+03  0.00000000000E+00 0. -1.
         -2    1    6    6    0  503 -0.37776435853E+02  0.49456169527E+02  0.21789899675E+02  0.65937633699E+02  0.00000000000E+00 0.  1.
<mgrwt>
<rscale>  0 0.12331691E+04</rscale>
<asrwt>0</asrwt>
<pdfrwt beam="1">  1        2 0.36276834E+00 0.12331691E+04</pdfrwt>
<pdfrwt beam="2">  1       -1 0.24804426E-01 0.12331691E+04</pdfrwt>
<totfact> 0.67179819E+01</totfact>
</mgrwt>
</event>
<event>
12    6  0.1538774E-007  0.1306390E+04  0.7818608E-02  0.9024513E-01
          2   -1    0    0  501    0  0.00000000000E+00  0.00000000000E+00  0.96916351924E+03  0.96916351924E+03  0.00000000000E+00 0. -1.
         -1   -1    0    0    0  501 -0.00000000000E+00 -0.00000000000E+00 -0.44023938663E+03  0.44023938663E+03  0.00000000000E+00 0.  1.
         24    2    1    2    0    0  0.59490895231E+02  0.34079540003E+03  0.18659399910E+03  0.40092805704E+03  0.79027306206E+02 0.  0.
        254    2    1    2    0    0 -0.59490895231E+02 -0.34079540003E+03  0.34233013351E+03  0.10084748488E+04  0.88326152930E+03 0.  0.
         23    2    4    4    0    0  0.68039608683E+02 -0.51699019559E+03 -0.69726237511E+02  0.53381890210E+03  0.90513100466E+02 0.  0.
         23    2    4    4    0    0 -0.12753050391E+03  0.17619479556E+03  0.41205637102E+03  0.47465594674E+03  0.90549320640E+02 0.  0.
          2    1    3    3  502    0  0.78481008620E+02  0.25014994442E+03  0.14148736530E+03  0.29791431310E+03  0.00000000000E+00 0. -1.
         -1    1    3    3    0  502 -0.18990113389E+02  0.90645455602E+02  0.45106633807E+02  0.10301374394E+03  0.00000000000E+00 0.  1.
         11    1    5    5    0    0  0.94751077843E+01 -0.48577722043E+01  0.68950073238E+01  0.12685296382E+02  0.00000000000E+00 0.  1.
        -11    1    5    5    0    0  0.58564500898E+02 -0.51213242338E+03 -0.76621244835E+02  0.52113360572E+03  0.00000000000E+00 0. -1.
          1    1    6    6  503    0 -0.98852111498E+02  0.17912547528E+03  0.37976468877E+03  0.43136862969E+03  0.00000000000E+00 0. -1.
         -1    1    6    6    0  503 -0.28678392416E+02 -0.29306797199E+01  0.32291682246E+02  0.43287317051E+02  0.00000000000E+00 0.  1.
<mgrwt>
<rscale>  0 0.13063904E+04</rscale>
<asrwt>0</asrwt>
<pdfrwt beam="1">  1        2 0.14910208E+00 0.13063904E+04</pdfrwt>
<pdfrwt beam="2">  1       -1 0.67729136E-01 0.13063904E+04</pdfrwt>
<totfact> 0.65093112E+01</totfact>
</mgrwt>
</event>
<event>
12    6  0.1538774E-007  0.2495637E+04  0.7818608E-02  0.8404542E-01
         -1   -1    0    0    0  501 -0.00000000000E+00  0.00000000000E+00  0.91898270996E+03  0.91898270996E+03  0.00000000000E+00 0.  1.
          2   -1    0    0  501    0  0.00000000000E+00 -0.00000000000E+00 -0.16943199805E+04  0.16943199805E+04  0.00000000000E+00 0. -1.
         24    2    1    2    0    0 -0.41492329287E+02  0.70047433947E+03  0.52733031874E+03  0.88122000280E+03  0.78009708506E+02 0.  0.
        254    2    1    2    0    0  0.41492329287E+02 -0.70047433947E+03 -0.13026675893E+04  0.17320826877E+04  0.90043415923E+03 0.  0.
         23    2    4    4    0    0  0.23458333168E+03  0.12709654047E+03 -0.26372347845E+03  0.38684335637E+03  0.94418426060E+02 0.  0.
         23    2    4    4    0    0 -0.19309100240E+03 -0.82757087994E+03 -0.10389441108E+04  0.13452393313E+04  0.90034973779E+02 0.  0.
          2    1    3    3  502    0 -0.17127538830E+02  0.10883659111E+03  0.51658045393E+02  0.12168529001E+03  0.00000000000E+00 0. -1.
         -1    1    3    3    0  502 -0.24364790457E+02  0.59163774836E+03  0.47567227334E+03  0.75953471279E+03  0.00000000000E+00 0.  1.
         11    1    5    5    0    0  0.22504423809E+02  0.23212469808E+02 -0.84215201583E+02  0.90207915524E+02  0.00000000000E+00 0. -1.
        -11    1    5    5    0    0  0.21207890787E+03  0.10388407066E+03 -0.17950827687E+03  0.29663544085E+03  0.00000000000E+00 0.  1.
          1    1    6    6  503    0 -0.14133301791E+03 -0.56847679617E+03 -0.77819441094E+03  0.97402640157E+03  0.00000000000E+00 0. -1.
         -1    1    6    6    0  503 -0.51757984487E+02 -0.25909408377E+03 -0.26074969989E+03  0.37121292973E+03  0.00000000000E+00 0.  1.
<mgrwt>
<rscale>  0 0.24956368E+04</rscale>
<asrwt>0</asrwt>
<pdfrwt beam="1">  1        2 0.26066461E+00 0.24956368E+04</pdfrwt>
<pdfrwt beam="2">  1       -1 0.14138196E+00 0.24956368E+04</pdfrwt>
<totfact> 0.40991405E+00</totfact>
</mgrwt>
</event>
<event>
12    6  0.1538774E-007  0.1678538E+04  0.7818608E-02  0.8773700E-01
         -1   -1    0    0    0  501 -0.00000000000E+00  0.00000000000E+00  0.10468981356E+04  0.10468981356E+04  0.00000000000E+00 0.  1.
          2   -1    0    0  501    0  0.00000000000E+00 -0.00000000000E+00 -0.67281884110E+03  0.67281884110E+03  0.00000000000E+00 0. -1.
         24    2    1    2    0    0  0.25107427989E+03  0.26818768027E+03  0.62803173223E+03  0.73225215628E+03  0.82501138239E+02 0.  0.
        254    2    1    2    0    0 -0.25107427989E+03 -0.26818768027E+03 -0.25395243776E+03  0.98746482039E+03  0.88069972465E+03 0.  0.
         23    2    4    4    0    0  0.15711706452E+03  0.16422132986E+03 -0.29258192382E+03  0.38460137423E+03  0.10324542494E+03 0.  0.
         23    2    4    4    0    0 -0.40819134441E+03 -0.43240901013E+03  0.38629486063E+02  0.60286344616E+03  0.91402252892E+02 0.  0.
          4    1    3    3  502    0  0.17333274070E+03  0.17278786503E+03  0.33903803311E+03  0.41814671253E+03  0.00000000000E+00 0. -1.
         -3    1    3    3    0  502  0.77741539195E+02  0.95399815245E+02  0.28899369911E+03  0.31410544375E+03  0.00000000000E+00 0.  1.
         11    1    5    5    0    0  0.98508855056E+02  0.66606629765E+02 -0.21850627437E+03  0.24876782266E+03  0.00000000000E+00 0. -1.
        -11    1    5    5    0    0  0.58608209460E+02  0.97614700090E+02 -0.74075649452E+02  0.13583355157E+03  0.00000000000E+00 0.  1.
          1    1    6    6  503    0 -0.24651022895E+03 -0.21578734254E+03  0.54383880310E+02  0.33209799249E+03  0.00000000000E+00 0. -1.
         -1    1    6    6    0  503 -0.16168111546E+03 -0.21662166759E+03 -0.15754394247E+02  0.27076545367E+03  0.00000000000E+00 0.  1.
<mgrwt>
<rscale>  0 0.16785384E+04</rscale>
<asrwt>0</asrwt>
<pdfrwt beam="1">  1        2 0.10351059E+00 0.16785384E+04</pdfrwt>
<pdfrwt beam="2">  1       -1 0.16106125E+00 0.16785384E+04</pdfrwt>
<totfact> 0.13450836E+01</totfact>
</mgrwt>
</event>
<event>
12    6  0.1538774E-007  0.1893657E+04  0.7818608E-02  0.8658020E-01
          2   -1    0    0  501    0  0.00000000000E+00  0.00000000000E+00  0.19995462844E+04  0.19995462844E+04  0.00000000000E+00 0. -1.
         -1   -1    0    0    0  501 -0.00000000000E+00 -0.00000000000E+00 -0.44834392962E+03  0.44834392962E+03  0.00000000000E+00 0.  1.
         24    2    1    2    0    0  0.49041271129E+03  0.48456484879E+03  0.91461313881E+03  0.11478883985E+04  0.76307677165E+02 0.  0.
        254    2    1    2    0    0 -0.49041271129E+03 -0.48456484879E+03  0.63658921597E+03  0.13000018155E+04  0.89969504302E+03 0.  0.
         23    2    4    4    0    0 -0.77240114947E+02  0.12459482502E+03  0.51996013968E+03  0.54888864226E+03  0.97109674930E+02 0.  0.
         23    2    4    4    0    0 -0.41317259634E+03 -0.60915967382E+03  0.11662907629E+03  0.75111317328E+03  0.93709951820E+02 0.  0.
          4    1    3    3  502    0  0.23575301281E+03  0.26355123256E+03  0.41625768402E+03  0.54617688961E+03  0.00000000000E+00 0. -1.
         -3    1    3    3    0  502  0.25465969848E+03  0.22101361623E+03  0.49835545479E+03  0.60171150887E+03  0.00000000000E+00 0.  1.
         11    1    5    5    0    0 -0.87367566371E+02  0.10775337489E+03  0.50628698167E+03  0.52494798720E+03  0.00000000000E+00 0.  1.
        -11    1    5    5    0    0  0.10127451425E+02  0.16841450130E+02  0.13673158013E+02  0.23940655063E+02  0.00000000000E+00 0. -1.
          2    1    6    6  503    0 -0.10426338101E+03 -0.15140009576E+03  0.70742134866E+02  0.19697028014E+03  0.00000000000E+00 0. -1.
         -2    1    6    6    0  503 -0.30890921534E+03 -0.45775957806E+03  0.45886941427E+02  0.55414289314E+03  0.00000000000E+00 0.  1.
<mgrwt>
<rscale>  0 0.18936572E+04</rscale>
<asrwt>0</asrwt>
<pdfrwt beam="1">  1        2 0.30762250E+00 0.18936572E+04</pdfrwt>
<pdfrwt beam="2">  1       -1 0.68975990E-01 0.18936572E+04</pdfrwt>
<totfact> 0.15169053E+01</totfact>
</mgrwt>
</event>
<event>
12    6  0.1538774E-007  0.1727139E+04  0.7818608E-02  0.8746036E-01
          2   -1    0    0  501    0  0.00000000000E+00  0.00000000000E+00  0.15457113667E+04  0.15457113667E+04  0.00000000000E+00 0. -1.
         -1   -1    0    0    0  501 -0.00000000000E+00 -0.00000000000E+00 -0.48246542023E+03  0.48246542023E+03  0.00000000000E+00 0.  1.
         24    2    1    2    0    0  0.29682135227E+03  0.25490044191E+03 -0.18700196247E+03  0.44092307332E+03  0.79788922632E+02 0.  0.
        254    2    1    2    0    0 -0.29682135227E+03 -0.25490044191E+03  0.12502479089E+04  0.15872537136E+04  0.89620163308E+03 0.  0.
         23    2    4    4    0    0  0.19645368486E+03 -0.31674643832E+03  0.22769225480E+03  0.44663156578E+03  0.93346859479E+02 0.  0.
         23    2    4    4    0    0 -0.49327503713E+03  0.61845996410E+02  0.10225556541E+04  0.11406221478E+04  0.90849484298E+02 0.  0.
          2    1    3    3  502    0  0.56404392182E+02  0.79781198975E+02 -0.19724955360E+02  0.99677324560E+02  0.00000000000E+00 0. -1.
         -1    1    3    3    0  502  0.24041696009E+03  0.17511924293E+03 -0.16727700711E+03  0.34124574876E+03  0.00000000000E+00 0.  1.
         11    1    5    5    0    0  0.13797058574E+03 -0.18634126944E+03  0.18745043134E+03  0.29815535453E+03  0.00000000000E+00 0. -1.
        -11    1    5    5    0    0  0.58483099119E+02 -0.13040516887E+03  0.40241823466E+02  0.14847621125E+03  0.00000000000E+00 0.  1.
          1    1    6    6  503    0 -0.20342794073E+03  0.10091254240E+02  0.32602373959E+03  0.38441675205E+03  0.00000000000E+00 0. -1.
         -1    1    6    6    0  503 -0.28984709640E+03  0.51754742170E+02  0.69653191454E+03  0.75620539578E+03  0.00000000000E+00 0.  1.
<mgrwt>
<rscale>  0 0.17271390E+04</rscale>
<asrwt>0</asrwt>
<pdfrwt beam="1">  1        2 0.23780175E+00 0.17271390E+04</pdfrwt>
<pdfrwt beam="2">  1       -1 0.74225450E-01 0.17271390E+04</pdfrwt>
<totfact> 0.23646643E+01</totfact>
</mgrwt>
</event>
<event>
12    6  0.1538774E-007  0.2973209E+04  0.7818608E-02  0.8251423E-01
          2   -1    0    0  501    0  0.00000000000E+00  0.00000000000E+00  0.16947762105E+04  0.16947762105E+04  0.00000000000E+00 0. -1.
         -1   -1    0    0    0  501 -0.00000000000E+00 -0.00000000000E+00 -0.13040031447E+04  0.13040031447E+04  0.00000000000E+00 0.  1.
         24    2    1    2    0    0  0.52341834089E+03 -0.15441617246E+02 -0.10830660262E+04  0.12057199748E+04  0.80767798965E+02 0.  0.
        254    2    1    2    0    0 -0.52341834089E+03  0.15441617246E+02  0.14738390920E+04  0.17930593804E+04  0.87672975854E+03 0.  0.
         23    2    4    4    0    0 -0.67561717698E+03 -0.13178593590E+03  0.13787752052E+04  0.15437955893E+04  0.91965495579E+02 0.  0.
         23    2    4    4    0    0  0.15219883609E+03  0.14722755315E+03  0.95063886832E+02  0.24926379114E+03  0.90856242949E+02 0.  0.
          2    1    3    3  502    0  0.54592453791E+01  0.93778188148E+01 -0.30025711429E+02  0.31926324446E+02  0.00000000000E+00 0. -1.
         -1    1    3    3    0  502  0.51795909551E+03 -0.24819436061E+02 -0.10530403148E+04  0.11737936503E+04  0.00000000000E+00 0.  1.
         11    1    5    5    0    0 -0.56876922859E+03 -0.14455132633E+03  0.11678365667E+04  0.13069949380E+04  0.00000000000E+00 0.  1.
        -11    1    5    5    0    0 -0.10684794840E+03  0.12765390434E+02  0.21093863842E+03  0.23680065129E+03  0.00000000000E+00 0. -1.
          4    1    6    6  503    0  0.27765473961E+01  0.64587590432E+01  0.34528785729E+02  0.35237222191E+02  0.00000000000E+00 0. -1.
         -4    1    6    6    0  503  0.14942228870E+03  0.14076879410E+03  0.60535101103E+02  0.21402656895E+03  0.00000000000E+00 0.  1.
<mgrwt>
<rscale>  0 0.29732094E+04</rscale>
<asrwt>0</asrwt>
<pdfrwt beam="1">  1        2 0.26073480E+00 0.29732094E+04</pdfrwt>
<pdfrwt beam="2">  1       -1 0.20061587E+00 0.29732094E+04</pdfrwt>
<totfact> 0.14368846E+00</totfact>
</mgrwt>
</event>
<event>
12    6  0.1538774E-007  0.3140908E+04  0.7818608E-02  0.8204600E-01
          2   -1    0    0  501    0  0.00000000000E+00  0.00000000000E+00  0.26432799054E+04  0.26432799054E+04  0.00000000000E+00 0. -1.
         -3   -1    0    0    0  501 -0.00000000000E+00 -0.00000000000E+00 -0.93305513930E+03  0.93305513930E+03  0.00000000000E+00 0.  1.
         24    2    1    2    0    0  0.61306441966E+03 -0.83983504017E+03 -0.34963821703E+03  0.10999158836E+04  0.79982441049E+02 0.  0.
        254    2    1    2    0    0 -0.61306441966E+03  0.83983504017E+03  0.20598629831E+04  0.24764191611E+04  0.89913596011E+03 0.  0.
         23    2    4    4    0    0 -0.42159441423E+03  0.23188645890E+03  0.23706349938E+03  0.54338835633E+03  0.86940342326E+02 0.  0.
         23    2    4    4    0    0 -0.19147000543E+03  0.60794858127E+03  0.18227994838E+04  0.19330308048E+04  0.88022120562E+02 0.  0.
          2    1    3    3  502    0  0.33440942453E+03 -0.48465828669E+03 -0.23620582567E+03  0.63444188871E+03  0.00000000000E+00 0. -1.
         -1    1    3    3    0  502  0.27865499513E+03 -0.35517675348E+03 -0.11343239135E+03  0.46547399490E+03  0.00000000000E+00 0.  1.
         11    1    5    5    0    0 -0.29318723472E+03  0.12327832263E+03  0.12742083083E+03  0.34262569601E+03  0.00000000000E+00 0. -1.
        -11    1    5    5    0    0 -0.12840717951E+03  0.10860813627E+03  0.10964266855E+03  0.20076266032E+03  0.00000000000E+00 0.  1.
          3    1    6    6  503    0 -0.64610363389E+02  0.16247735108E+03  0.39470065121E+03  0.43169664434E+03  0.00000000000E+00 0. -1.
         -3    1    6    6    0  503 -0.12685964204E+03  0.44547123019E+03  0.14280988326E+04  0.15013341604E+04  0.00000000000E+00 0.  1.
<mgrwt>
<rscale>  0 0.31409081E+04</rscale>
<asrwt>0</asrwt>
<pdfrwt beam="1">  1        2 0.40665845E+00 0.31409081E+04</pdfrwt>
<pdfrwt beam="2">  1       -3 0.14354695E+00 0.31409081E+04</pdfrwt>
<totfact> 0.55826533E-01</totfact>
</mgrwt>
</event>
<event>
12    6  0.2452047E-007  0.2795659E+04  0.7818608E-02  0.8304617E-01
         -1   -1    0    0    0  501 -0.00000000000E+00  0.00000000000E+00  0.12833249987E+04  0.12833249987E+04  0.00000000000E+00 0.  1.
          2   -1    0    0  501    0  0.00000000000E+00 -0.00000000000E+00 -0.15225502151E+04  0.15225502151E+04  0.00000000000E+00 0. -1.
         24    2    1    2    0    0  0.68445004095E+03 -0.56307654419E+03  0.78223828080E+03  0.11844934886E+04  0.74840119363E+02 0.  0.
        254    2    1    2    0    0 -0.68445004095E+03  0.56307654419E+03 -0.10214634971E+04  0.16213817252E+04  0.89440704919E+03 0.  0.
         23    2    4    4    0    0 -0.81270011108E+03  0.32133190821E+03 -0.46432669666E+03  0.99379536891E+03  0.91072983043E+02 0.  0.
         23    2    4    4    0    0  0.12825007014E+03  0.24174463598E+03 -0.55713680045E+03  0.62758635627E+03  0.92599517527E+02 0.  0.
          2    1    3    3  502    0  0.11472678049E+03 -0.69904226881E+02  0.14466588283E+03  0.19742606908E+03  0.00000000000E+00 0. -1.
         -1    1    3    3    0  502  0.56972326046E+03 -0.49317231730E+03  0.63757239797E+03  0.98706741954E+03  0.00000000000E+00 0.  1.
         11    1    5    5    0    0 -0.77478539379E+02  0.14456289320E+02 -0.18952560047E+02  0.81062370417E+02  0.00000000000E+00 0. -1.
        -11    1    5    5    0    0 -0.73522157170E+03  0.30687561889E+03 -0.44537413662E+03  0.91273299849E+03  0.00000000000E+00 0.  1.
          3    1    6    6  503    0  0.16090991008E+01 -0.49767171396E+01  0.14498553437E-01  0.52304037714E+01  0.00000000000E+00 0. -1.
         -3    1    6    6    0  503  0.12664097103E+03  0.24672135312E+03 -0.55715129900E+03  0.62235595250E+03  0.00000000000E+00 0.  1.
<mgrwt>
<rscale>  0 0.27956586E+04</rscale>
<asrwt>0</asrwt>
<pdfrwt beam="1">  1        2 0.23423849E+00 0.27956586E+04</pdfrwt>
<pdfrwt beam="2">  1       -1 0.19743462E+00 0.27956586E+04</pdfrwt>
<totfact> 0.19158039E+00</totfact>
</mgrwt>
</event>
<event>
12    6  0.1538774E-007  0.1797747E+04  0.7818608E-02  0.8707499E-01
          2   -1    0    0  501    0  0.00000000000E+00  0.00000000000E+00  0.12657700392E+04  0.12657700392E+04  0.00000000000E+00 0. -1.
         -1   -1    0    0    0  501 -0.00000000000E+00 -0.00000000000E+00 -0.63832558036E+03  0.63832558036E+03  0.00000000000E+00 0.  1.
         24    2    1    2    0    0 -0.70031045864E+03 -0.22942951473E+03  0.31484258430E+03  0.80541537375E+03  0.80594234790E+02 0.  0.
        254    2    1    2    0    0  0.70031045864E+03  0.22942951473E+03  0.31260187450E+03  0.10986802458E+04  0.75253286293E+03 0.  0.
         23    2    4    4    0    0 -0.97774696571E+02  0.62118518044E+02  0.23173894465E+03  0.27463438802E+03  0.91118093924E+02 0.  0.
         23    2    4    4    0    0  0.79808515521E+03  0.16731099668E+03  0.80862929850E+02  0.82404585775E+03  0.87062492924E+02 0.  0.
          4    1    3    3  502    0 -0.40630375931E+03 -0.13897413123E+03  0.22589578620E+03  0.48520661599E+03  0.00000000000E+00 0. -1.
         -3    1    3    3    0  502 -0.29400669933E+03 -0.90455383499E+02  0.88946798104E+02  0.32020875777E+03  0.00000000000E+00 0.  1.
         11    1    5    5    0    0 -0.79741300386E+02  0.27656094745E+02  0.21735099578E+03  0.23316301150E+03  0.00000000000E+00 0.  1.
        -11    1    5    5    0    0 -0.18033396185E+02  0.34462423299E+02  0.14387948867E+02  0.41471376517E+02  0.00000000000E+00 0. -1.
          4    1    6    6  503    0  0.65456726372E+02  0.45954763818E-01  0.26449394587E+02  0.70598552486E+02  0.00000000000E+00 0. -1.
         -4    1    6    6    0  503  0.73262842884E+03  0.16726504192E+03  0.54413535263E+02  0.75344730527E+03  0.00000000000E+00 0.  1.
<mgrwt>
<rscale>  0 0.17977468E+04</rscale>
<asrwt>0</asrwt>
<pdfrwt beam="1">  1        2 0.19473385E+00 0.17977468E+04</pdfrwt>
<pdfrwt beam="2">  1       -1 0.98203936E-01 0.17977468E+04</pdfrwt>
<totfact> 0.18515402E+01</totfact>
</mgrwt>
</event>
<event>
12    6  0.1538774E-007  0.1704032E+04  0.7818608E-02  0.8759068E-01
         -1   -1    0    0    0  501 -0.00000000000E+00  0.00000000000E+00  0.54028865358E+03  0.54028865358E+03  0.00000000000E+00 0.  1.
          2   -1    0    0  501    0  0.00000000000E+00 -0.00000000000E+00 -0.13435997013E+04  0.13435997013E+04  0.00000000000E+00 0. -1.
         24    2    1    2    0    0 -0.30236284374E+03  0.32974301328E+03 -0.74814007442E+03  0.87558852752E+03  0.82389043471E+02 0.  0.
        254    2    1    2    0    0  0.30236284374E+03 -0.32974301328E+03 -0.55170973276E+02  0.10082998273E+04  0.90192625056E+03 0.  0.
         23    2    4    4    0    0 -0.28687269773E+03 -0.10092833302E+03  0.12752191549E+03  0.34362607788E+03  0.96615575144E+02 0.  0.
         23    2    4    4    0    0  0.58923554147E+03 -0.22881468026E+03 -0.18269288877E+03  0.66467374946E+03  0.94126618902E+02 0.  0.
          4    1    3    3  502    0 -0.27021708533E+03  0.29573510367E+03 -0.71001155211E+03  0.81522569199E+03  0.00000000000E+00 0. -1.
         -3    1    3    3    0  502 -0.32145758413E+02  0.34007909602E+02 -0.38128522314E+02  0.60362835531E+02  0.00000000000E+00 0.  1.
         11    1    5    5    0    0 -0.36653902989E+02  0.88448864315E+01 -0.81215966332E+01  0.38570726623E+02  0.00000000000E+00 0.  1.
        -11    1    5    5    0    0 -0.25021879474E+03 -0.10977321945E+03  0.13564351212E+03  0.30505535126E+03  0.00000000000E+00 0. -1.
          4    1    6    6  503    0  0.42894992326E+02  0.34183224740E+01  0.16450829767E+01  0.43062415088E+02  0.00000000000E+00 0.  1.
         -4    1    6    6    0  503  0.54634054914E+03 -0.23223300273E+03 -0.18433797174E+03  0.62161133438E+03  0.00000000000E+00 0. -1.
<mgrwt>
<rscale>  0 0.17040325E+04</rscale>
<asrwt>0</asrwt>
<pdfrwt beam="1">  1        2 0.20670765E+00 0.17040325E+04</pdfrwt>
<pdfrwt beam="2">  1       -1 0.83121331E-01 0.17040325E+04</pdfrwt>
<totfact> 0.24298603E+01</totfact>
</mgrwt>
</event>
<event>
12    6  0.1564164E-007  0.2291201E+04  0.7818608E-02  0.8481399E-01
          2   -1    0    0  501    0  0.00000000000E+00  0.00000000000E+00  0.28595370717E+04  0.28595370717E+04  0.00000000000E+00 0. -1.
         -1   -1    0    0    0  501 -0.00000000000E+00 -0.00000000000E+00 -0.45895543337E+03  0.45895543337E+03  0.00000000000E+00 0.  1.
         24    2    1    2    0    0  0.11070082556E+03  0.45936255686E+03  0.22416706421E+04  0.22922246488E+04  0.77058040777E+02 0.  0.
        254    2    1    2    0    0 -0.11070082556E+03 -0.45936255686E+03  0.15891099622E+03  0.10262678562E+04  0.89705316264E+03 0.  0.
         23    2    4    4    0    0 -0.23806282686E+02 -0.55628680030E+03  0.43163250467E+03  0.71033380132E+03  0.90806095217E+02 0.  0.
         23    2    4    4    0    0 -0.86894542877E+02  0.96924243437E+02 -0.27272150845E+03  0.31593405492E+03  0.92153867722E+02 0.  0.
          2    1    3    3  502    0  0.71619618204E+02  0.40693453464E+03  0.19560690798E+04  0.19992326854E+04  0.00000000000E+00 0. -1.
         -1    1    3    3    0  502  0.39081207360E+02  0.52428022219E+02  0.28560156226E+03  0.29299196346E+03  0.00000000000E+00 0.  1.
         11    1    5    5    0    0 -0.97427222350E+01 -0.53209325997E+03  0.38842914699E+03  0.65885913531E+03  0.00000000000E+00 0. -1.
        -11    1    5    5    0    0 -0.14063560451E+02 -0.24193540321E+02  0.43203357688E+02  0.51474666015E+02  0.00000000000E+00 0.  1.
          3    1    6    6  503    0 -0.90375261045E+02  0.95532303146E+02 -0.27910298975E+03  0.30853296038E+03  0.00000000000E+00 0. -1.
         -3    1    6    6    0  503  0.34807181677E+01  0.13919402909E+01  0.63814813000E+01  0.74010945351E+01  0.00000000000E+00 0.  1.
<mgrwt>
<rscale>  0 0.22912006E+04</rscale>
<asrwt>0</asrwt>
<pdfrwt beam="1">  1        2 0.43992877E+00 0.22912006E+04</pdfrwt>
<pdfrwt beam="2">  1       -1 0.70608530E-01 0.22912006E+04</pdfrwt>
<totfact> 0.44526595E+00</totfact>
</mgrwt>
</event>
<event>
12    6  0.1538774E-007  0.1199568E+04  0.7818608E-02  0.9113235E-01
         -1   -1    0    0    0  501 -0.00000000000E+00  0.00000000000E+00  0.14367832903E+03  0.14367832903E+03  0.00000000000E+00 0.  1.
          2   -1    0    0  501    0  0.00000000000E+00 -0.00000000000E+00 -0.25037925672E+04  0.25037925672E+04  0.00000000000E+00 0. -1.
         24    2    1    2    0    0  0.21730127814E+02  0.24770900149E+03 -0.47095111839E+03  0.53884435106E+03  0.82014211473E+02 0.  0.
        254    2    1    2    0    0 -0.21730127814E+02 -0.24770900149E+03 -0.18891631197E+04  0.21086265451E+04  0.90307068714E+03 0.  0.
         23    2    4    4    0    0  0.36172580846E+03  0.12599018247E+03 -0.74544516962E+03  0.84272321929E+03  0.88175035132E+02 0.  0.
         23    2    4    4    0    0 -0.38345593628E+03 -0.37369918396E+03 -0.11437179501E+04  0.12659033259E+04  0.87925797189E+02 0.  0.
          4    1    3    3  502    0  0.15822328844E+02  0.52236693444E+02 -0.18144330374E+03  0.18947477590E+03  0.00000000000E+00 0. -1.
         -3    1    3    3    0  502  0.59077989694E+01  0.19547230805E+03 -0.28950781465E+03  0.34936957516E+03  0.00000000000E+00 0.  1.
         11    1    5    5    0    0  0.20917991393E+03  0.87196166422E+02 -0.34846371952E+03  0.41567580114E+03  0.00000000000E+00 0. -1.
        -11    1    5    5    0    0  0.15254589454E+03  0.38794016046E+02 -0.39698145010E+03  0.42704741815E+03  0.00000000000E+00 0.  1.
          4    1    6    6  503    0 -0.20367609959E+02 -0.11242143545E+01 -0.26013226530E+02  0.33057394754E+02  0.00000000000E+00 0. -1.
         -4    1    6    6    0  503 -0.36308832632E+03 -0.37257496961E+03 -0.11177047236E+04  0.12328459311E+04  0.00000000000E+00 0.  1.
<mgrwt>
<rscale>  0 0.11995678E+04</rscale>
<asrwt>0</asrwt>
<pdfrwt beam="1">  1        2 0.38519884E+00 0.11995678E+04</pdfrwt>
<pdfrwt beam="2">  1       -1 0.22104359E-01 0.11995678E+04</pdfrwt>
<totfact> 0.67707749E+01</totfact>
</mgrwt>
</event>
<event>
12    6  0.1538774E-007  0.2451030E+04  0.7818608E-02  0.8420642E-01
         -1   -1    0    0    0  501 -0.00000000000E+00  0.00000000000E+00  0.78299101545E+03  0.78299101545E+03  0.00000000000E+00 0.  1.
          2   -1    0    0  501    0  0.00000000000E+00 -0.00000000000E+00 -0.19181406545E+04  0.19181406545E+04  0.00000000000E+00 0. -1.
         24    2    1    2    0    0  0.10091398491E+04 -0.28870748949E+03 -0.64177466407E+03  0.12328958291E+04  0.80263045540E+02 0.  0.
        254    2    1    2    0    0 -0.10091398491E+04  0.28870748949E+03 -0.49337497496E+03  0.14682358408E+04  0.90032348019E+03 0.  0.
         23    2    4    4    0    0  0.14580111489E+03  0.51832216468E+02  0.13782848633E+02  0.18148036080E+03  0.93811570035E+02 0.  0.
         23    2    4    4    0    0 -0.11549409640E+04  0.23687527302E+03 -0.50715782360E+03  0.12867554800E+04  0.92369270988E+02 0.  0.
          4    1    3    3  502    0  0.67743554088E+02 -0.24049109379E+01 -0.54649655929E+02  0.87072140264E+02  0.00000000000E+00 0. -1.
         -3    1    3    3    0  502  0.94139629497E+03 -0.28630257855E+03 -0.58712500814E+03  0.11458236888E+04  0.00000000000E+00 0.  1.
         11    1    5    5    0    0  0.63786410460E+02  0.16058480476E+02  0.52329578556E+02  0.84053350596E+02  0.00000000000E+00 0.  1.
        -11    1    5    5    0    0  0.82014704429E+02  0.35773735991E+02 -0.38546729922E+02  0.97427010203E+02  0.00000000000E+00 0. -1.
          4    1    6    6  503    0 -0.77769566040E+03  0.18672416663E+03 -0.30635282007E+03  0.85646278669E+03  0.00000000000E+00 0. -1.
         -4    1    6    6    0  503 -0.37724530355E+03  0.50151106393E+02 -0.20080500353E+03  0.43029269336E+03  0.00000000000E+00 0.  1.
<mgrwt>
<rscale>  0 0.24510299E+04</rscale>
<asrwt>0</asrwt>
<pdfrwt beam="1">  1        2 0.29509856E+00 0.24510299E+04</pdfrwt>
<pdfrwt beam="2">  1       -1 0.12046016E+00 0.24510299E+04</pdfrwt>
<totfact> 0.46370856E+00</totfact>
</mgrwt>
</event>
<event>
12    6  0.1538774E-007  0.3168146E+04  0.7818608E-02  0.8197281E-01
         -1   -1    0    0    0  501 -0.00000000000E+00  0.00000000000E+00  0.13442764112E+04  0.13442764112E+04  0.00000000000E+00 0.  1.
          2   -1    0    0  501    0  0.00000000000E+00 -0.00000000000E+00 -0.18666449842E+04  0.18666449842E+04  0.00000000000E+00 0. -1.
         24    2    1    2    0    0  0.13117833779E+04  0.48468305243E+03  0.17082024843E+03  0.14111271857E+04  0.80044270420E+02 0.  0.
        254    2    1    2    0    0 -0.13117833779E+04 -0.48468305243E+03 -0.69318882144E+03  0.17997942097E+04  0.89613345169E+03 0.  0.
         23    2    4    4    0    0 -0.49787508343E+03  0.24001457960E+03 -0.31472086860E+03  0.64246705016E+03  0.90708810387E+02 0.  0.
         23    2    4    4    0    0 -0.81390829447E+03 -0.72469763203E+03 -0.37846795284E+03  0.11573271595E+04  0.92383944522E+02 0.  0.
          4    1    3    3  502    0  0.56138382784E+03  0.22512760823E+03  0.11016735269E+03  0.61479353261E+03  0.00000000000E+00 0. -1.
         -3    1    3    3    0  502  0.75039955006E+03  0.25955544420E+03  0.60652895739E+02  0.79633365313E+03  0.00000000000E+00 0.  1.
         11    1    5    5    0    0 -0.22670652774E+03  0.11426199483E+03 -0.93272956966E+02  0.27046533546E+03  0.00000000000E+00 0.  1.
        -11    1    5    5    0    0 -0.27116855569E+03  0.12575258477E+03 -0.22144791163E+03  0.37200171470E+03  0.00000000000E+00 0. -1.
          3    1    6    6  503    0 -0.38540651563E+03 -0.38196930266E+03 -0.22624374690E+03  0.58789876975E+03  0.00000000000E+00 0. -1.
         -3    1    6    6    0  503 -0.42850177884E+03 -0.34272832937E+03 -0.15222420594E+03  0.56942838979E+03  0.00000000000E+00 0.  1.
<mgrwt>
<rscale>  0 0.31681457E+04</rscale>
<asrwt>0</asrwt>
<pdfrwt beam="1">  1        2 0.28717615E+00 0.31681457E+04</pdfrwt>
<pdfrwt beam="2">  1       -1 0.20681176E+00 0.31681457E+04</pdfrwt>
<totfact> 0.10287419E+00</totfact>
</mgrwt>
</event>
<event>
12    6  0.1538774E-007  0.1992361E+04  0.7818608E-02  0.8610200E-01
         -1   -1    0    0    0  501 -0.00000000000E+00  0.00000000000E+00  0.44244705692E+03  0.44244705692E+03  0.00000000000E+00 0.  1.
          2   -1    0    0  501    0  0.00000000000E+00 -0.00000000000E+00 -0.22429257423E+04  0.22429257423E+04  0.00000000000E+00 0. -1.
         24    2    1    2    0    0 -0.73500340581E+03  0.84510301610E+02 -0.11300530664E+04  0.13528619673E+04  0.76443261376E+02 0.  0.
        254    2    1    2    0    0  0.73500340581E+03 -0.84510301610E+02 -0.67042561899E+03  0.13325108319E+04  0.88246394194E+03 0.  0.
         23    2    4    4    0    0  0.79356357955E+03  0.19333498844E+03 -0.61950251922E+03  0.10294891473E+04  0.94567227321E+02 0.  0.
         23    2    4    4    0    0 -0.58560173746E+02 -0.27784529005E+03 -0.50923099768E+02  0.30302168460E+03  0.92745242978E+02 0.  0.
          4    1    3    3  502    0 -0.72011127940E+03  0.93344334870E+02 -0.10971140021E+04  0.13156490995E+04  0.00000000000E+00 0. -1.
         -3    1    3    3    0  502 -0.14892126406E+02 -0.88340332604E+01 -0.32939064280E+02  0.37212867777E+02  0.00000000000E+00 0.  1.
         11    1    5    5    0    0  0.51356435093E+03  0.14206647134E+03 -0.45525022568E+03  0.70084519889E+03  0.00000000000E+00 0. -1.
        -11    1    5    5    0    0  0.27999922862E+03  0.51268517097E+02 -0.16425229354E+03  0.32864394838E+03  0.00000000000E+00 0.  1.
          1    1    6    6  503    0 -0.77846121283E+02 -0.21083986141E+03 -0.16759081740E+02  0.22537598049E+03  0.00000000000E+00 0. -1.
         -1    1    6    6    0  503  0.19285947537E+02 -0.67005428635E+02 -0.34164018029E+02  0.77645704111E+02  0.00000000000E+00 0.  1.
<mgrwt>
<rscale>  0 0.19923613E+04</rscale>
<asrwt>0</asrwt>
<pdfrwt beam="1">  1        2 0.34506551E+00 0.19923613E+04</pdfrwt>
<pdfrwt beam="2">  1       -1 0.68068776E-01 0.19923613E+04</pdfrwt>
<totfact> 0.11294955E+01</totfact>
</mgrwt>
</event>
<event>
12    6  0.1538774E-007  0.2170332E+04  0.7818608E-02  0.8530879E-01
         -1   -1    0    0    0  501 -0.00000000000E+00  0.00000000000E+00  0.59072963682E+03  0.59072963682E+03  0.00000000000E+00 0.  1.
          2   -1    0    0  501    0  0.00000000000E+00 -0.00000000000E+00 -0.19934418844E+04  0.19934418844E+04  0.00000000000E+00 0. -1.
         24    2    1    2    0    0  0.31059968740E+03  0.21581598500E+03 -0.15472967146E+04  0.15951484722E+04  0.85573478138E+02 0.  0.
        254    2    1    2    0    0 -0.31059968740E+03 -0.21581598500E+03  0.14458446694E+03  0.98902304909E+03  0.90233764100E+03 0.  0.
         23    2    4    4    0    0 -0.34922545873E+03  0.79026012346E+02  0.43048974873E+03  0.56627809723E+03  0.84533590912E+02 0.  0.
         23    2    4    4    0    0  0.38625771326E+02 -0.29484199734E+03 -0.28590528179E+03  0.42274495186E+03  0.92453829337E+02 0.  0.
          2    1    3    3  502    0  0.23958099130E+03  0.12081057570E+03 -0.11201968436E+04  0.11518833339E+04  0.00000000000E+00 0. -1.
         -1    1    3    3    0  502  0.71018696105E+02  0.95005409292E+02 -0.42709987096E+03  0.44326513822E+03  0.00000000000E+00 0.  1.
         11    1    5    5    0    0 -0.17079903765E+03  0.69599667900E+02  0.17304518823E+03  0.25290524352E+03  0.00000000000E+00 0.  1.
        -11    1    5    5    0    0 -0.17842642108E+03  0.94263444463E+01  0.25744456050E+03  0.31337285371E+03  0.00000000000E+00 0. -1.
          2    1    6    6  503    0  0.45081396430E+02 -0.11050562967E+03 -0.15920093246E+03  0.19896925237E+03  0.00000000000E+00 0.  1.
         -2    1    6    6    0  503 -0.64556251040E+01 -0.18433636767E+03 -0.12670434933E+03  0.22377569949E+03  0.00000000000E+00 0. -1.
<mgrwt>
<rscale>  0 0.21703320E+04</rscale>
<asrwt>0</asrwt>
<pdfrwt beam="1">  1        2 0.30668336E+00 0.21703320E+04</pdfrwt>
<pdfrwt beam="2">  1       -1 0.90881483E-01 0.21703320E+04</pdfrwt>
<totfact> 0.83067464E+00</totfact>
</mgrwt>
</event>
<event>
12    6  0.1538774E-007  0.1890044E+04  0.7818608E-02  0.8659828E-01
          2   -1    0    0  501    0  0.00000000000E+00  0.00000000000E+00  0.33800266573E+03  0.33800266573E+03  0.00000000000E+00 0. -1.
         -1   -1    0    0    0  501 -0.00000000000E+00 -0.00000000000E+00 -0.26421887546E+04  0.26421887546E+04  0.00000000000E+00 0.  1.
         24    2    1    2    0    0 -0.63893293625E+03  0.21922623030E+03 -0.13358305971E+04  0.14993124955E+04  0.84847733894E+02 0.  0.
        254    2    1    2    0    0  0.63893293625E+03 -0.21922623030E+03 -0.96835549176E+03  0.14808789248E+04  0.89386497550E+03 0.  0.
         23    2    4    4    0    0  0.31711052959E+02 -0.38272426982E+03 -0.67375899088E+03  0.78028850315E+03  0.86113371606E+02 0.  0.
         23    2    4    4    0    0  0.60722188329E+03  0.16349803951E+03 -0.29459650088E+03  0.70059042165E+03  0.92681260813E+02 0.  0.
          4    1    3    3  502    0 -0.29563533513E+02 -0.25365380434E+00 -0.96696138976E+02  0.10111483643E+03  0.00000000000E+00 0. -1.
         -3    1    3    3    0  502 -0.60936940274E+03  0.21947988411E+03 -0.12391344581E+04  0.13981976590E+04  0.00000000000E+00 0.  1.
         11    1    5    5    0    0 -0.22340803636E+02 -0.82577851758E+02 -0.19076502691E+03  0.20906819127E+03  0.00000000000E+00 0.  1.
        -11    1    5    5    0    0  0.54051856594E+02 -0.30014641806E+03 -0.48299396397E+03  0.57122031188E+03  0.00000000000E+00 0. -1.
          1    1    6    6  503    0  0.57607531681E+03  0.17229939927E+03 -0.26638768389E+03  0.65765663667E+03  0.00000000000E+00 0. -1.
         -1    1    6    6    0  503  0.31146566483E+02 -0.88013597535E+01 -0.28208816986E+02  0.42933784983E+02  0.00000000000E+00 0.  1.
<mgrwt>
<rscale>  0 0.18900443E+04</rscale>
<asrwt>0</asrwt>
<pdfrwt beam="1">  1        2 0.52000408E-01 0.18900443E+04</pdfrwt>
<pdfrwt beam="2">  1       -1 0.40649059E+00 0.18900443E+04</pdfrwt>
<totfact> 0.66679453E-01</totfact>
</mgrwt>
</event>
<event>
12    6  0.1538774E-007  0.1921112E+04  0.7818608E-02  0.8644418E-01
          2   -1    0    0  501    0  0.00000000000E+00  0.00000000000E+00  0.25318011881E+04  0.25318011881E+04  0.00000000000E+00 0. -1.
         -1   -1    0    0    0  501 -0.00000000000E+00 -0.00000000000E+00 -0.36443142007E+03  0.36443142007E+03  0.00000000000E+00 0.  1.
         24    2    1    2    0    0 -0.41992423223E+03  0.60707544373E+03  0.10134212274E+04  0.12563187473E+04  0.80232509152E+02 0.  0.
        254    2    1    2    0    0  0.41992423223E+03 -0.60707544373E+03  0.11539485406E+04  0.16399138608E+04  0.90157821699E+03 0.  0.
         23    2    4    4    0    0  0.47023788034E+03 -0.18112479122E+02  0.83318438193E+03  0.96119229728E+03  0.90789272798E+02 0.  0.
         23    2    4    4    0    0 -0.50313648107E+02 -0.58896296461E+03  0.32076415864E+03  0.67872156352E+03  0.91457522639E+02 0.  0.
          2    1    3    3  502    0 -0.62356811518E+02  0.68789877062E+02  0.90574739043E+02  0.12970814347E+03  0.00000000000E+00 0. -1.
         -1    1    3    3    0  502 -0.35756742071E+03  0.53828556667E+03  0.92284648837E+03  0.11266106039E+04  0.00000000000E+00 0.  1.
         11    1    5    5    0    0  0.15446110913E+03 -0.17956952809E+02  0.36193669335E+03  0.39392747604E+03  0.00000000000E+00 0. -1.
        -11    1    5    5    0    0  0.31577677121E+03 -0.15552631243E+00  0.47124768858E+03  0.56726482124E+03  0.00000000000E+00 0.  1.
          2    1    6    6  503    0  0.20912290699E+01 -0.15248050215E+02 -0.58604701923E+01  0.16468800359E+02  0.00000000000E+00 0. -1.
         -2    1    6    6    0  503 -0.52404877177E+02 -0.57371491440E+03  0.32662462884E+03  0.66225276316E+03  0.00000000000E+00 0.  1.
<mgrwt>
<rscale>  0 0.19211121E+04</rscale>
<asrwt>0</asrwt>
<pdfrwt beam="1">  1        2 0.38950786E+00 0.19211121E+04</pdfrwt>
<pdfrwt beam="2">  1       -1 0.56066374E-01 0.19211121E+04</pdfrwt>
<totfact> 0.11438392E+01</totfact>
</mgrwt>
</event>
<event>
12    6  0.1538774E-007  0.1186598E+04  0.7818608E-02  0.9124669E-01
         -1   -1    0    0    0  501 -0.00000000000E+00  0.00000000000E+00  0.24133674378E+03  0.24133674378E+03  0.00000000000E+00 0.  1.
          2   -1    0    0  501    0  0.00000000000E+00 -0.00000000000E+00 -0.14585573180E+04  0.14585573180E+04  0.00000000000E+00 0. -1.
         24    2    1    2    0    0  0.71012058676E+02  0.14295239207E+03 -0.52157792664E+03  0.55124309537E+03  0.79670055639E+02 0.  0.
        254    2    1    2    0    0 -0.71012058676E+02 -0.14295239207E+03 -0.69564264760E+03  0.11486509664E+04  0.90000125036E+03 0.  0.
         23    2    4    4    0    0 -0.11429169549E+03 -0.50532010605E+03 -0.31225398767E+03  0.61169672110E+03  0.90880826069E+02 0.  0.
         23    2    4    4    0    0  0.43279636813E+02  0.36236771398E+03 -0.38338865993E+03  0.53695424533E+03  0.90274636058E+02 0.  0.
          4    1    3    3  502    0  0.47637578531E+02  0.14315709190E+03 -0.40152073009E+03  0.42893144970E+03  0.00000000000E+00 0. -1.
         -3    1    3    3    0  502  0.23374480146E+02 -0.20469983562E+00 -0.12005719655E+03  0.12231164568E+03  0.00000000000E+00 0.  1.
         11    1    5    5    0    0 -0.40154017364E+01 -0.21151830147E+03 -0.11121967631E+03  0.23901031716E+03  0.00000000000E+00 0. -1.
        -11    1    5    5    0    0 -0.11027629375E+03 -0.29380180458E+03 -0.20103431136E+03  0.37268640394E+03  0.00000000000E+00 0.  1.
          3    1    6    6  503    0  0.62882925782E+02  0.15718117475E+03 -0.15877616588E+03  0.23209923503E+03  0.00000000000E+00 0.  1.
         -3    1    6    6    0  503 -0.19603288970E+02  0.20518653923E+03 -0.22461249405E+03  0.30485501030E+03  0.00000000000E+00 0. -1.
<mgrwt>
<rscale>  0 0.11865976E+04</rscale>
<asrwt>0</asrwt>
<pdfrwt beam="1">  1        2 0.22439343E+00 0.11865976E+04</pdfrwt>
<pdfrwt beam="2">  1       -1 0.37128730E-01 0.11865976E+04</pdfrwt>
<totfact> 0.10513129E+02</totfact>
</mgrwt>
</event>
<event>
12    6  0.1538774E-007  0.1205976E+04  0.7818608E-02  0.9107642E-01
         -1   -1    0    0    0  501 -0.00000000000E+00  0.00000000000E+00  0.34408875407E+03  0.34408875407E+03  0.00000000000E+00 0.  1.
          2   -1    0    0  501    0  0.00000000000E+00 -0.00000000000E+00 -0.10566874731E+04  0.10566874731E+04  0.00000000000E+00 0. -1.
         24    2    1    2    0    0  0.92255952641E+02 -0.93150591132E+02 -0.40574606584E+03  0.43372645097E+03  0.79376135590E+02 0.  0.
        254    2    1    2    0    0 -0.92255952641E+02  0.93150591132E+02 -0.30685265320E+03  0.96704977621E+03  0.90765551035E+03 0.  0.
         23    2    4    4    0    0 -0.40156023232E+03 -0.19416017821E+03 -0.33057739035E+02  0.45657475954E+03  0.91754574551E+02 0.  0.
         23    2    4    4    0    0  0.30930427968E+03  0.28731076934E+03 -0.27379491416E+03  0.51047501668E+03  0.86049241840E+02 0.  0.
          2    1    3    3  502    0  0.31593830989E+01 -0.55978691742E+02 -0.16881237923E+03  0.17787977685E+03  0.00000000000E+00 0. -1.
         -1    1    3    3    0  502  0.89096569542E+02 -0.37171899390E+02 -0.23693368661E+03  0.25584667412E+03  0.00000000000E+00 0.  1.
         11    1    5    5    0    0 -0.26724566500E+03 -0.14235556867E+03 -0.63620806125E+02  0.30940743424E+03  0.00000000000E+00 0.  1.
        -11    1    5    5    0    0 -0.13431456732E+03 -0.51804609546E+02  0.30563067091E+02  0.14716732529E+03  0.00000000000E+00 0. -1.
          3    1    6    6  503    0  0.12825381281E+03  0.15636635308E+03 -0.16958029987E+03  0.26392604074E+03  0.00000000000E+00 0. -1.
         -3    1    6    6    0  503  0.18105046687E+03  0.13094441627E+03 -0.10421461429E+03  0.24654897594E+03  0.00000000000E+00 0.  1.
<mgrwt>
<rscale>  0 0.12059756E+04</rscale>
<asrwt>0</asrwt>
<pdfrwt beam="1">  1        2 0.16256730E+00 0.12059756E+04</pdfrwt>
<pdfrwt beam="2">  1       -1 0.52936732E-01 0.12059756E+04</pdfrwt>
<totfact> 0.93806652E+01</totfact>
</mgrwt>
</event>
<event>
12    6  0.1538774E-007  0.1473215E+04  0.7818608E-02  0.8902463E-01
         -1   -1    0    0    0  501 -0.00000000000E+00  0.00000000000E+00  0.26170673588E+03  0.26170673588E+03  0.00000000000E+00 0.  1.
          2   -1    0    0  501    0  0.00000000000E+00 -0.00000000000E+00 -0.20732774488E+04  0.20732774488E+04  0.00000000000E+00 0. -1.
         24    2    1    2    0    0  0.20099040584E+03 -0.18259360106E+03  0.12739904023E+02  0.28262603555E+03  0.77314968998E+02 0.  0.
        254    2    1    2    0    0 -0.20099040584E+03  0.18259360106E+03 -0.18243106169E+04  0.20523581491E+04  0.90018174766E+03 0.  0.
         23    2    4    4    0    0 -0.30748723249E+03  0.34780241119E+03 -0.17645796510E+04  0.18272585898E+04  0.98069841822E+02 0.  0.
         23    2    4    4    0    0  0.10649682665E+03 -0.16520881013E+03 -0.59730965863E+02  0.22509955926E+03  0.92013576527E+02 0.  0.
          4    1    3    3  502    0 -0.37727150998E+01 -0.21026502645E+02  0.33877702848E+01  0.21629243635E+02  0.00000000000E+00 0. -1.
         -3    1    3    3    0  502  0.20476312094E+03 -0.16156709842E+03  0.93521337381E+01  0.26099679192E+03  0.00000000000E+00 0.  1.
         11    1    5    5    0    0 -0.21735159615E+03  0.17403666179E+03 -0.10047191493E+04  0.10425886269E+04  0.00000000000E+00 0.  1.
        -11    1    5    5    0    0 -0.90135636337E+02  0.17376574941E+03 -0.75986050174E+03  0.78466996292E+03  0.00000000000E+00 0. -1.
          3    1    6    6  503    0  0.22206640178E+02 -0.64503197338E+02 -0.64228453599E+02  0.93696806704E+02  0.00000000000E+00 0. -1.
         -3    1    6    6    0  503  0.84290186475E+02 -0.10070561279E+03  0.44974877364E+01  0.13140275256E+03  0.00000000000E+00 0.  1.
<mgrwt>
<rscale>  0 0.14732151E+04</rscale>
<asrwt>0</asrwt>
<pdfrwt beam="1">  1        2 0.31896575E+00 0.14732151E+04</pdfrwt>
<pdfrwt beam="2">  1       -1 0.40262576E-01 0.14732151E+04</pdfrwt>
<totfact> 0.40387130E+01</totfact>
</mgrwt>
</event>
<event>
12    6  0.1538774E-007  0.1263763E+04  0.7818608E-02  0.9058805E-01
         -1   -1    0    0    0  501 -0.00000000000E+00  0.00000000000E+00  0.15330306970E+04  0.15330306970E+04  0.00000000000E+00 0.  1.
          2   -1    0    0  501    0  0.00000000000E+00 -0.00000000000E+00 -0.26044771759E+03  0.26044771759E+03  0.00000000000E+00 0. -1.
         24    2    1    2    0    0  0.20106743622E+03 -0.34534505909E+02  0.19021150126E+02  0.21976249147E+03  0.79454405145E+02 0.  0.
        254    2    1    2    0    0 -0.20106743622E+03  0.34534505909E+02  0.12535618293E+04  0.15737159231E+04  0.92927057461E+03 0.  0.
         23    2    4    4    0    0 -0.38462902519E+03  0.37484749936E+03  0.60800879702E+03  0.81592256126E+03  0.87205469583E+02 0.  0.
         23    2    4    4    0    0  0.18356158897E+03 -0.34031299345E+03  0.64555303223E+03  0.75779336183E+03  0.89466593527E+02 0.  0.
          2    1    3    3  502    0  0.18541306198E+03 -0.81806815947E+01  0.28294436672E+02  0.18773785513E+03  0.00000000000E+00 0. -1.
         -1    1    3    3    0  502  0.15654374242E+02 -0.26353824314E+02 -0.92732865464E+01  0.32024636333E+02  0.00000000000E+00 0.  1.
         11    1    5    5    0    0 -0.32388417818E+03  0.26696590735E+03  0.45345516263E+03  0.61789427985E+03  0.00000000000E+00 0.  1.
        -11    1    5    5    0    0 -0.60744847008E+02  0.10788159201E+03  0.15455363439E+03  0.19802828141E+03  0.00000000000E+00 0. -1.
          2    1    6    6  503    0  0.75105093534E+02 -0.66731638391E+02  0.20006434508E+03  0.22387413609E+03  0.00000000000E+00 0. -1.
         -2    1    6    6    0  503  0.10845649543E+03 -0.27358135506E+03  0.44548868715E+03  0.53391922574E+03  0.00000000000E+00 0.  1.
<mgrwt>
<rscale>  0 0.12637632E+04</rscale>
<asrwt>0</asrwt>
<pdfrwt beam="1">  1        2 0.40068880E-01 0.12637632E+04</pdfrwt>
<pdfrwt beam="2">  1       -1 0.23585087E+00 0.12637632E+04</pdfrwt>
<totfact> 0.12516362E+01</totfact>
</mgrwt>
</event>
<event>
12    6  0.1538774E-007  0.1933397E+04  0.7818608E-02  0.8638409E-01
          4   -1    0    0  501    0  0.00000000000E+00  0.00000000000E+00  0.11295276684E+04  0.11295276684E+04  0.00000000000E+00 0. -1.
         -3   -1    0    0    0  501 -0.00000000000E+00 -0.00000000000E+00 -0.82734248354E+03  0.82734248354E+03  0.00000000000E+00 0.  1.
         24    2    1    2    0    0  0.24100265399E+03 -0.49494108250E+03 -0.41528818087E+03  0.69435140373E+03  0.81305868821E+02 0.  0.
        254    2    1    2    0    0 -0.24100265399E+03  0.49494108250E+03  0.71747336573E+03  0.12625187482E+04  0.88098615463E+03 0.  0.
         23    2    4    4    0    0 -0.27837293281E+03  0.13880112070E+03  0.81769626111E+03  0.87965573867E+03  0.91704974241E+02 0.  0.
         23    2    4    4    0    0  0.37370278816E+02  0.35613996181E+03 -0.10022289539E+03  0.38286300954E+03  0.91144090194E+02 0.  0.
          4    1    3    3  502    0  0.34219054065E+02 -0.15361393392E+03 -0.11959607453E+03  0.19766488155E+03  0.00000000000E+00 0. -1.
         -3    1    3    3    0  502  0.20678359992E+03 -0.34132714858E+03 -0.29569210634E+03  0.49668652218E+03  0.00000000000E+00 0.  1.
         11    1    5    5    0    0 -0.26087375871E+03  0.10089267531E+03  0.66676856869E+03  0.72305931576E+03  0.00000000000E+00 0.  1.
        -11    1    5    5    0    0 -0.17499174091E+02  0.37908445389E+02  0.15092769242E+03  0.15659642290E+03  0.00000000000E+00 0. -1.
          2    1    6    6  503    0  0.87467730654E+01  0.67767190637E+02  0.16755382820E+02  0.70353685187E+02  0.00000000000E+00 0. -1.
         -2    1    6    6    0  503  0.28623505751E+02  0.28837277117E+03 -0.11697827821E+03  0.31250932435E+03  0.00000000000E+00 0.  1.
<mgrwt>
<rscale>  0 0.19333972E+04</rscale>
<asrwt>0</asrwt>
<pdfrwt beam="1">  1        4 0.17377349E+00 0.19333972E+04</pdfrwt>
<pdfrwt beam="2">  1       -3 0.12728346E+00 0.19333972E+04</pdfrwt>
<totfact> 0.20747228E-01</totfact>
</mgrwt>
</event>
<event>
12    6  0.1538774E-007  0.1196301E+04  0.7818608E-02  0.9116100E-01
          2   -1    0    0  501    0  0.00000000000E+00  0.00000000000E+00  0.12129885087E+04  0.12129885087E+04  0.00000000000E+00 0. -1.
         -1   -1    0    0    0  501 -0.00000000000E+00 -0.00000000000E+00 -0.29496095490E+03  0.29496095490E+03  0.00000000000E+00 0.  1.
         24    2    1    2    0    0 -0.18337225972E+03  0.38818440082E+02  0.44710137746E+03  0.49145636461E+03  0.80606821471E+02 0.  0.
        254    2    1    2    0    0  0.18337225972E+03 -0.38818440082E+02  0.47092617638E+03  0.10164930990E+04  0.88110981146E+03 0.  0.
         23    2    4    4    0    0 -0.26030406209E+03  0.16199419353E+03  0.40408158934E+03  0.51592809309E+03  0.94337388750E+02 0.  0.
         23    2    4    4    0    0  0.44367632180E+03 -0.20081263361E+03  0.66844587035E+02  0.50056500594E+03  0.94460224495E+02 0.  0.
          2    1    3    3  502    0 -0.18692440381E+03  0.46735665321E+02  0.40536014625E+03  0.44882268584E+03  0.00000000000E+00 0. -1.
         -1    1    3    3    0  502  0.35521440930E+01 -0.79172252393E+01  0.41741231211E+02  0.42633678778E+02  0.00000000000E+00 0.  1.
         11    1    5    5    0    0 -0.10153548154E+03  0.11786456552E+03  0.18298298732E+03  0.24017552637E+03  0.00000000000E+00 0.  1.
        -11    1    5    5    0    0 -0.15876858055E+03  0.44129628010E+02  0.22109860202E+03  0.27575256672E+03  0.00000000000E+00 0. -1.
          2    1    6    6  503    0  0.28768732599E+02  0.30100404692E-01 -0.14919787406E+02  0.32407421027E+02  0.00000000000E+00 0. -1.
         -2    1    6    6    0  503  0.41490758920E+03 -0.20084273402E+03  0.81764374441E+02  0.46815758492E+03  0.00000000000E+00 0.  1.
<mgrwt>
<rscale>  0 0.11963014E+04</rscale>
<asrwt>0</asrwt>
<pdfrwt beam="1">  1        2 0.18661361E+00 0.11963014E+04</pdfrwt>
<pdfrwt beam="2">  1       -1 0.45378609E-01 0.11963014E+04</pdfrwt>
<totfact> 0.10087799E+02</totfact>
</mgrwt>
</event>
<event>
12    6  0.1538774E-007  0.1979420E+04  0.7818608E-02  0.8616303E-01
          2   -1    0    0  501    0  0.00000000000E+00  0.00000000000E+00  0.23855103597E+04  0.23855103597E+04  0.00000000000E+00 0. -1.
         -1   -1    0    0    0  501 -0.00000000000E+00 -0.00000000000E+00 -0.41061479160E+03  0.41061479160E+03  0.00000000000E+00 0.  1.
         24    2    1    2    0    0  0.20756986290E+03  0.43413425719E+03  0.17000309185E+04  0.17677818224E+04  0.58220672226E+02 0.  0.
        254    2    1    2    0    0 -0.20756986290E+03 -0.43413425719E+03  0.27486464963E+03  0.10283433289E+04  0.86624570718E+03 0.  0.
         23    2    4    4    0    0 -0.43628776025E+03  0.34674365423E+02  0.37700665414E+02  0.44834245944E+03  0.89667716623E+02 0.  0.
         23    2    4    4    0    0  0.22871789735E+03 -0.46880862261E+03  0.23716398422E+03  0.58000086945E+03  0.89782247389E+02 0.  0.
          4    1    3    3  502    0  0.17484867658E+03  0.34933100414E+03  0.14515517595E+04  0.15031988293E+04  0.00000000000E+00 0. -1.
         -3    1    3    3    0  502  0.32721186327E+02  0.84803253049E+02  0.24847915903E+03  0.26458299309E+03  0.00000000000E+00 0.  1.
         11    1    5    5    0    0 -0.29658102636E+03  0.49137105587E+02  0.58778644943E+02  0.30631632252E+03  0.00000000000E+00 0.  1.
        -11    1    5    5    0    0 -0.13970673389E+03 -0.14462740164E+02 -0.21077979529E+02  0.14202613692E+03  0.00000000000E+00 0. -1.
          1    1    6    6  503    0  0.18461288671E+03 -0.36997326517E+03  0.22596716058E+03  0.47119347676E+03  0.00000000000E+00 0. -1.
         -1    1    6    6    0  503  0.44105010632E+02 -0.98835357442E+02  0.11196823640E+02  0.10880739269E+03  0.00000000000E+00 0.  1.
<mgrwt>
<rscale>  0 0.19794200E+04</rscale>
<asrwt>0</asrwt>
<pdfrwt beam="1">  1        2 0.36700159E+00 0.19794200E+04</pdfrwt>
<pdfrwt beam="2">  1       -1 0.63171508E-01 0.19794200E+04</pdfrwt>
<totfact> 0.10914508E+01</totfact>
</mgrwt>
</event>
<event>
12    6  0.1538774E-007  0.4021768E+04  0.7818608E-02  0.8000170E-01
          2   -1    0    0  501    0  0.00000000000E+00  0.00000000000E+00  0.26043859150E+04  0.26043859150E+04  0.00000000000E+00 0. -1.
         -1   -1    0    0    0  501 -0.00000000000E+00 -0.00000000000E+00 -0.15526326499E+04  0.15526326499E+04  0.00000000000E+00 0.  1.
         24    2    1    2    0    0 -0.39573740645E+03 -0.18493551055E+04  0.22597356085E+03  0.19063506671E+04  0.79915046577E+02 0.  0.
        254    2    1    2    0    0  0.39573740645E+03  0.18493551055E+04  0.82577970429E+03  0.22506678978E+04  0.89826024371E+03 0.  0.
         23    2    4    4    0    0  0.52496131705E+03  0.58778760357E+03  0.50246447340E+03  0.93906110271E+03  0.91030523918E+02 0.  0.
         23    2    4    4    0    0 -0.12922391060E+03  0.12615675019E+04  0.32331523089E+03  0.13116067951E+04  0.86765578618E+02 0.  0.
          4    1    3    3  502    0 -0.21280736772E+02 -0.48050558434E+02 -0.11898751052E+01  0.52565594510E+02  0.00000000000E+00 0. -1.
         -3    1    3    3    0  502 -0.37445666968E+03 -0.18013045470E+04  0.22716343595E+03  0.18537850726E+04  0.00000000000E+00 0.  1.
         11    1    5    5    0    0  0.42389148172E+03  0.44837513277E+03  0.35188923211E+03  0.71031702756E+03  0.00000000000E+00 0.  1.
        -11    1    5    5    0    0  0.10106983532E+03  0.13941247080E+03  0.15057524129E+03  0.22874407515E+03  0.00000000000E+00 0. -1.
          1    1    6    6  503    0 -0.71387460023E+02  0.75140652521E+03  0.14870771453E+03  0.76929962949E+03  0.00000000000E+00 0. -1.
         -1    1    6    6    0  503 -0.57836450575E+02  0.51016097668E+03  0.17460751635E+03  0.54230716564E+03  0.00000000000E+00 0.  1.
<mgrwt>
<rscale>  0 0.40217681E+04</rscale>
<asrwt>0</asrwt>
<pdfrwt beam="1">  1        2 0.40067476E+00 0.40217681E+04</pdfrwt>
<pdfrwt beam="2">  1       -1 0.23886656E+00 0.40217681E+04</pdfrwt>
<totfact> 0.22328038E-01</totfact>
</mgrwt>
</event>
<event>
12    6  0.1538774E-007  0.2246093E+04  0.7818608E-02  0.8499484E-01
          2   -1    0    0  501    0  0.00000000000E+00  0.00000000000E+00  0.72797229001E+03  0.72797229001E+03  0.00000000000E+00 0. -1.
         -1   -1    0    0    0  501 -0.00000000000E+00 -0.00000000000E+00 -0.17325301875E+04  0.17325301875E+04  0.00000000000E+00 0.  1.
         24    2    1    2    0    0 -0.60637014797E+03  0.27779623707E+03 -0.11603039951E+04  0.13407486056E+04  0.80286716305E+02 0.  0.
        254    2    1    2    0    0  0.60637014797E+03 -0.27779623707E+03  0.15574609762E+03  0.11197538719E+04  0.88585347599E+03 0.  0.
         23    2    4    4    0    0 -0.12196336647E+03  0.36970130628E+02 -0.19206513469E+03  0.24770889723E+03  0.90712890384E+02 0.  0.
         23    2    4    4    0    0  0.72833351444E+03 -0.31476636770E+03  0.34781123231E+03  0.87204497463E+03  0.99710631144E+02 0.  0.
          4    1    3    3  502    0 -0.20203805404E+03  0.11582052781E+03 -0.46962704053E+03  0.52419779391E+03  0.00000000000E+00 0. -1.
         -3    1    3    3    0  502 -0.40433209393E+03  0.16197570926E+03 -0.69067695454E+03  0.81655081171E+03  0.00000000000E+00 0.  1.
         11    1    5    5    0    0 -0.66498237586E+02  0.12887838916E+02 -0.17058193556E+03  0.18353830317E+03  0.00000000000E+00 0. -1.
        -11    1    5    5    0    0 -0.55465128880E+02  0.24082291712E+02 -0.21483199136E+02  0.64170594052E+02  0.00000000000E+00 0.  1.
          3    1    6    6  503    0  0.18106443266E+03 -0.11078995937E+03  0.58021722284E+02  0.22005741099E+03  0.00000000000E+00 0. -1.
         -3    1    6    6    0  503  0.54726908178E+03 -0.20397640832E+03  0.28978951003E+03  0.65198756364E+03  0.00000000000E+00 0.  1.
<mgrwt>
<rscale>  0 0.22460935E+04</rscale>
<asrwt>0</asrwt>
<pdfrwt beam="1">  1        2 0.11199574E+00 0.22460935E+04</pdfrwt>
<pdfrwt beam="2">  1       -1 0.26654311E+00 0.22460935E+04</pdfrwt>
<totfact> 0.22034260E+00</totfact>
</mgrwt>
</event>
<event>
12    6  0.1538774E-007  0.1876748E+04  0.7818608E-02  0.8666518E-01
         -1   -1    0    0    0  501 -0.00000000000E+00  0.00000000000E+00  0.29349509719E+03  0.29349509719E+03  0.00000000000E+00 0.  1.
          2   -1    0    0  501    0  0.00000000000E+00 -0.00000000000E+00 -0.30002071597E+04  0.30002071597E+04  0.00000000000E+00 0. -1.
         24    2    1    2    0    0  0.40076401761E+03 -0.22815396321E+03 -0.20136134780E+04  0.20674484571E+04  0.83891926344E+02 0.  0.
        254    2    1    2    0    0 -0.40076401761E+03  0.22815396321E+03 -0.69309858461E+03  0.12262537999E+04  0.90035920885E+03 0.  0.
         23    2    4    4    0    0 -0.47221362626E+03 -0.17387581570E+03 -0.13613804708E+03  0.52965455532E+03  0.93711642832E+02 0.  0.
         23    2    4    4    0    0  0.71449608652E+02  0.40202977891E+03 -0.55696053753E+03  0.69659924454E+03  0.91172788816E+02 0.  0.
          4    1    3    3  502    0  0.25432735324E+03 -0.11059622363E+03 -0.13232998883E+04  0.13520490086E+04  0.00000000000E+00 0. -1.
         -3    1    3    3    0  502  0.14643666437E+03 -0.11755773958E+03 -0.69031358963E+03  0.71539944844E+03  0.00000000000E+00 0.  1.
         11    1    5    5    0    0 -0.26277176065E+03 -0.74530458646E+02 -0.30252328823E+02  0.27480718851E+03  0.00000000000E+00 0. -1.
        -11    1    5    5    0    0 -0.20944186561E+03 -0.99345357058E+02 -0.10588571826E+03  0.25484736681E+03  0.00000000000E+00 0.  1.
          1    1    6    6  503    0  0.10438894506E+02  0.16620895581E+03 -0.29590948933E+03  0.33955384461E+03  0.00000000000E+00 0. -1.
         -1    1    6    6    0  503  0.61010714146E+02  0.23582082310E+03 -0.26105104819E+03  0.35704539993E+03  0.00000000000E+00 0.  1.
<mgrwt>
<rscale>  0 0.18767483E+04</rscale>
<asrwt>0</asrwt>
<pdfrwt beam="1">  1        2 0.46157032E+00 0.18767483E+04</pdfrwt>
<pdfrwt beam="2">  1       -1 0.45153093E-01 0.18767483E+04</pdfrwt>
<totfact> 0.90772471E+00</totfact>
</mgrwt>
</event>
<event>
12    6  0.1538774E-007  0.1345031E+04  0.7818608E-02  0.8994598E-01
          2   -1    0    0  501    0  0.00000000000E+00  0.00000000000E+00  0.10796047621E+04  0.10796047621E+04  0.00000000000E+00 0. -1.
         -1   -1    0    0    0  501 -0.00000000000E+00 -0.00000000000E+00 -0.41892843656E+03  0.41892843656E+03  0.00000000000E+00 0.  1.
         24    2    1    2    0    0  0.13434839007E+03  0.13771376937E+02 -0.19421413972E+03  0.25122617514E+03  0.84595025072E+02 0.  0.
        254    2    1    2    0    0 -0.13434839007E+03 -0.13771376937E+02  0.85489046524E+03  0.12473070235E+04  0.89816366135E+03 0.  0.
         23    2    4    4    0    0  0.17489380148E+03  0.34441325226E+03  0.54664321242E+03  0.67536713107E+03  0.89964603707E+02 0.  0.
         23    2    4    4    0    0 -0.30924219155E+03 -0.35818462919E+03  0.30824725282E+03  0.57193989243E+03  0.90398617522E+02 0.  0.
          4    1    3    3  502    0  0.85929850315E+02 -0.32253258339E+01 -0.53082275751E+02  0.10105478663E+03  0.00000000000E+00 0. -1.
         -1    1    3    3    0  502  0.48418539758E+02  0.16996702771E+02 -0.14113186397E+03  0.15017138851E+03  0.00000000000E+00 0.  1.
         11    1    5    5    0    0  0.35791113853E+02  0.13951419368E+03  0.25400958728E+03  0.29200356933E+03  0.00000000000E+00 0.  1.
        -11    1    5    5    0    0  0.13910268763E+03  0.20489905858E+03  0.29263362514E+03  0.38336356175E+03  0.00000000000E+00 0. -1.
          1    1    6    6  503    0 -0.30927096822E+03 -0.34105761853E+03  0.30951064925E+03  0.55476632283E+03  0.00000000000E+00 0. -1.
         -1    1    6    6    0  503  0.28776667568E-01 -0.17127010663E+02 -0.12633964272E+01  0.17173569602E+02  0.00000000000E+00 0.  1.
<mgrwt>
<rscale>  0 0.13450311E+04</rscale>
<asrwt>0</asrwt>
<pdfrwt beam="1">  1        2 0.16609304E+00 0.13450311E+04</pdfrwt>
<pdfrwt beam="2">  1       -1 0.64450529E-01 0.13450311E+04</pdfrwt>
<totfact> 0.61026710E+01</totfact>
</mgrwt>
</event>
<event>
12    6  0.1538774E-007  0.2916086E+04  0.7818608E-02  0.8268107E-01
          2   -1    0    0  501    0  0.00000000000E+00  0.00000000000E+00  0.38048722594E+04  0.38048722594E+04  0.00000000000E+00 0. -1.
         -3   -1    0    0    0  501 -0.00000000000E+00 -0.00000000000E+00 -0.55872819815E+03  0.55872819815E+03  0.00000000000E+00 0.  1.
         24    2    1    2    0    0  0.40483326043E+03 -0.31131924166E+03  0.32126749464E+04  0.32539870407E+04  0.79634859529E+02 0.  0.
        254    2    1    2    0    0 -0.40483326043E+03  0.31131924166E+03  0.33469114857E+02  0.11096134169E+04  0.98453649716E+03 0.  0.
         23    2    4    4    0    0 -0.96404350553E+02  0.45481461149E+03  0.38654393672E+03  0.61132856496E+03  0.90312068347E+02 0.  0.
         23    2    4    4    0    0 -0.30842890987E+03 -0.14349536982E+03 -0.35307482186E+03  0.49828485189E+03  0.88919346523E+02 0.  0.
          2    1    3    3  502    0  0.34264687702E+03 -0.23111358188E+03  0.24554147816E+04  0.24899562485E+04  0.00000000000E+00 0. -1.
         -1    1    3    3    0  502  0.62186383407E+02 -0.80205659785E+02  0.75726016481E+03  0.76403079215E+03  0.00000000000E+00 0.  1.
         11    1    5    5    0    0 -0.61603939281E+02  0.10741915629E+03  0.87421299809E+02  0.15157969565E+03  0.00000000000E+00 0. -1.
        -11    1    5    5    0    0 -0.34800411272E+02  0.34739545519E+03  0.29912263691E+03  0.45974886931E+03  0.00000000000E+00 0.  1.
          4    1    6    6  503    0 -0.55228395191E+02 -0.34296214922E+02 -0.12315623365E+03  0.13926185364E+03  0.00000000000E+00 0. -1.
         -4    1    6    6    0  503 -0.25320051468E+03 -0.10919915490E+03 -0.22991858822E+03  0.35902299825E+03  0.00000000000E+00 0.  1.
<mgrwt>
<rscale>  0 0.29160860E+04</rscale>
<asrwt>0</asrwt>
<pdfrwt beam="1">  1        2 0.58536495E+00 0.29160860E+04</pdfrwt>
<pdfrwt beam="2">  1       -3 0.85958187E-01 0.29160860E+04</pdfrwt>
<totfact> 0.33364071E-01</totfact>
</mgrwt>
</event>
<event>
12    6  0.1538774E-007  0.1821153E+04  0.7818608E-02  0.8695131E-01
          2   -1    0    0  501    0  0.00000000000E+00  0.00000000000E+00  0.21191704284E+04  0.21191704284E+04  0.00000000000E+00 0. -1.
         -1   -1    0    0    0  501 -0.00000000000E+00 -0.00000000000E+00 -0.39126141688E+03  0.39126141688E+03  0.00000000000E+00 0.  1.
         24    2    1    2    0    0  0.53337302333E+03  0.41902758205E+03  0.53040562510E+03  0.86475245163E+03  0.79973613901E+02 0.  0.
        254    2    1    2    0    0 -0.53337302333E+03 -0.41902758205E+03  0.11975033864E+04  0.16456793937E+04  0.90231669036E+03 0.  0.
         23    2    4    4    0    0  0.15597417610E+03 -0.13497431195E+03  0.72244387180E+03  0.75692922580E+03  0.92036386676E+02 0.  0.
         23    2    4    4    0    0 -0.68934719943E+03 -0.28405327010E+03  0.47505951462E+03  0.88875016786E+03  0.91156441484E+02 0.  0.
          2    1    3    3  502    0  0.38032916159E+03  0.29780598097E+03  0.42209646302E+03  0.64148585140E+03  0.00000000000E+00 0. -1.
         -1    1    3    3    0  502  0.15304386174E+03  0.12122160108E+03  0.10830916209E+03  0.22326660023E+03  0.00000000000E+00 0.  1.
         11    1    5    5    0    0  0.66456106260E+02 -0.10588426274E+03  0.31829935011E+03  0.34196837198E+03  0.00000000000E+00 0. -1.
        -11    1    5    5    0    0  0.89518069841E+02 -0.29090049217E+02  0.40414452169E+03  0.41496085382E+03  0.00000000000E+00 0.  1.
          1    1    6    6  503    0 -0.14857483259E+03 -0.10011921359E+03  0.96503789611E+02  0.20349771306E+03  0.00000000000E+00 0. -1.
         -1    1    6    6    0  503 -0.54077236684E+03 -0.18393405652E+03  0.37855572501E+03  0.68525245481E+03  0.00000000000E+00 0.  1.
<mgrwt>
<rscale>  0 0.18211531E+04</rscale>
<asrwt>0</asrwt>
<pdfrwt beam="1">  1        2 0.32602621E+00 0.18211531E+04</pdfrwt>
<pdfrwt beam="2">  1       -1 0.60194065E-01 0.18211531E+04</pdfrwt>
<totfact> 0.17219748E+01</totfact>
</mgrwt>
</event>
<event>
12    6  0.1538774E-007  0.1953239E+04  0.7818608E-02  0.8628801E-01
         -1   -1    0    0    0  501 -0.00000000000E+00  0.00000000000E+00  0.87539315164E+03  0.87539315164E+03  0.00000000000E+00 0.  1.
          2   -1    0    0  501    0  0.00000000000E+00 -0.00000000000E+00 -0.10895506686E+04  0.10895506686E+04  0.00000000000E+00 0. -1.
         24    2    1    2    0    0 -0.24056451511E+03  0.42046041141E+03 -0.68939035399E+03  0.84619409467E+03  0.78276063960E+02 0.  0.
        254    2    1    2    0    0  0.24056451511E+03 -0.42046041141E+03  0.47523283701E+03  0.11187497256E+04  0.88943603232E+03 0.  0.
         23    2    4    4    0    0 -0.17723989724E+03 -0.48743880192E+03  0.80074565116E+02  0.53267613709E+03  0.91221511992E+02 0.  0.
         23    2    4    4    0    0  0.41780441235E+03  0.66978390510E+02  0.39515827190E+03  0.58607358848E+03  0.91025048714E+02 0.  0.
          2    1    3    3  502    0 -0.10381168486E+03  0.25802688989E+03 -0.40392065890E+03  0.49041476375E+03  0.00000000000E+00 0. -1.
         -1    1    3    3    0  502 -0.13675283025E+03  0.16243352153E+03 -0.28546969509E+03  0.35577933092E+03  0.00000000000E+00 0.  1.
         11    1    5    5    0    0 -0.10910045116E+02 -0.97792854386E+01  0.17818112886E+02  0.23068347469E+02  0.00000000000E+00 0. -1.
        -11    1    5    5    0    0 -0.16632985212E+03 -0.47765951649E+03  0.62256452230E+02  0.50960778962E+03  0.00000000000E+00 0.  1.
          2    1    6    6  503    0  0.40435655847E+02  0.15631864488E+02  0.10148972907E+02  0.44524140668E+02  0.00000000000E+00 0. -1.
         -2    1    6    6    0  503  0.37736875650E+03  0.51346526022E+02  0.38500929899E+03  0.54154944782E+03  0.00000000000E+00 0.  1.
<mgrwt>
<rscale>  0 0.19532385E+04</rscale>
<asrwt>0</asrwt>
<pdfrwt beam="1">  1        2 0.16762318E+00 0.19532385E+04</pdfrwt>
<pdfrwt beam="2">  1       -1 0.13467587E+00 0.19532385E+04</pdfrwt>
<totfact> 0.10902040E+01</totfact>
</mgrwt>
</event>
<event>
12    6  0.1538774E-007  0.1775499E+04  0.7818608E-02  0.8719438E-01
         -1   -1    0    0    0  501 -0.00000000000E+00  0.00000000000E+00  0.62705211378E+03  0.62705211378E+03  0.00000000000E+00 0.  1.
          2   -1    0    0  501    0  0.00000000000E+00 -0.00000000000E+00 -0.12568321119E+04  0.12568321119E+04  0.00000000000E+00 0. -1.
         24    2    1    2    0    0  0.25358990769E+03  0.82082425303E+02 -0.86934788923E+03  0.91276518897E+03  0.79556092592E+02 0.  0.
        254    2    1    2    0    0 -0.25358990769E+03 -0.82082425303E+02  0.23956789108E+03  0.97111903674E+03  0.90257079681E+03 0.  0.
         23    2    4    4    0    0 -0.57092556675E+03 -0.11647947644E+03  0.57736448529E+02  0.59271506569E+03  0.91946617154E+02 0.  0.
         23    2    4    4    0    0  0.31733565906E+03  0.34397051138E+02  0.18183144255E+03  0.37840397106E+03  0.90784437963E+02 0.  0.
          2    1    3    3  502    0  0.23639387072E+03  0.96577252651E+02 -0.80997833746E+03  0.84927859681E+03  0.00000000000E+00 0. -1.
         -1    1    3    3    0  502  0.17196036972E+02 -0.14494827349E+02 -0.59369551770E+02  0.63486592165E+02  0.00000000000E+00 0.  1.
         11    1    5    5    0    0 -0.49918057067E+03 -0.82630069965E+02  0.75076274746E+02  0.51151287141E+03  0.00000000000E+00 0.  1.
        -11    1    5    5    0    0 -0.71744996080E+02 -0.33849406476E+02 -0.17339826217E+02  0.81202194271E+02  0.00000000000E+00 0. -1.
          1    1    6    6  503    0  0.26839972270E+02  0.47325620265E+01  0.52263033542E+02  0.58942395012E+02  0.00000000000E+00 0. -1.
         -1    1    6    6    0  503  0.29049568679E+03  0.29664489111E+02  0.12956840900E+03  0.31946157604E+03  0.00000000000E+00 0.  1.
<mgrwt>
<rscale>  0 0.17754991E+04</rscale>
<asrwt>0</asrwt>
<pdfrwt beam="1">  1        2 0.19335879E+00 0.17754991E+04</pdfrwt>
<pdfrwt beam="2">  1       -1 0.96469557E-01 0.17754991E+04</pdfrwt>
<totfact> 0.19549168E+01</totfact>
</mgrwt>
</event>
<event>
12    6  0.1538774E-007  0.2273196E+04  0.7818608E-02  0.8488565E-01
         -1   -1    0    0    0  501 -0.00000000000E+00  0.00000000000E+00  0.12409342609E+04  0.12409342609E+04  0.00000000000E+00 0.  1.
          2   -1    0    0  501    0  0.00000000000E+00 -0.00000000000E+00 -0.10410341638E+04  0.10410341638E+04  0.00000000000E+00 0. -1.
         24    2    1    2    0    0  0.88531048781E+03 -0.15727894306E+03 -0.24996533750E+03  0.93690008269E+03  0.82387919254E+02 0.  0.
        254    2    1    2    0    0 -0.88531048781E+03  0.15727894306E+03  0.44986543461E+03  0.13450683421E+04  0.89348677090E+03 0.  0.
         23    2    4    4    0    0 -0.90657757447E+03 -0.69428186601E+02  0.10239046354E+03  0.91947230535E+03  0.90787343041E+02 0.  0.
         23    2    4    4    0    0  0.21267086660E+02  0.22670712966E+03  0.34747497108E+03  0.42559603670E+03  0.92437650976E+02 0.  0.
          2    1    3    3  502    0  0.63689669423E+03 -0.91547452261E+02 -0.21002075373E+03  0.67685083447E+03  0.00000000000E+00 0. -1.
         -1    1    3    3    0  502  0.24841379358E+03 -0.65731490800E+02 -0.39944583768E+02  0.26004924822E+03  0.00000000000E+00 0.  1.
         11    1    5    5    0    0 -0.33553589930E+03  0.13458125454E+02  0.57609670432E+02  0.34071151285E+03  0.00000000000E+00 0.  1.
        -11    1    5    5    0    0 -0.57104167516E+03 -0.82886312056E+02  0.44780793106E+02  0.57876079250E+03  0.00000000000E+00 0. -1.
          3    1    6    6  503    0 -0.80397690651E+01  0.19071839976E+03  0.22761230889E+03  0.29706145669E+03  0.00000000000E+00 0. -1.
         -3    1    6    6    0  503  0.29306855725E+02  0.35988729906E+02  0.11986266219E+03  0.12853458002E+03  0.00000000000E+00 0.  1.
<mgrwt>
<rscale>  0 0.22731960E+04</rscale>
<asrwt>0</asrwt>
<pdfrwt beam="1">  1        2 0.16015910E+00 0.22731960E+04</pdfrwt>
<pdfrwt beam="2">  1       -1 0.19091296E+00 0.22731960E+04</pdfrwt>
<totfact> 0.42779162E+00</totfact>
</mgrwt>
</event>
<event>
12    6  0.1657998E-007  0.1961151E+04  0.7818608E-02  0.8625002E-01
          2   -1    0    0  501    0  0.00000000000E+00  0.00000000000E+00  0.14018329907E+04  0.14018329907E+04  0.00000000000E+00 0. -1.
         -1   -1    0    0    0  501 -0.00000000000E+00 -0.00000000000E+00 -0.68590810294E+03  0.68590810294E+03  0.00000000000E+00 0.  1.
         24    2    1    2    0    0 -0.58987160420E+01 -0.10587863009E+03 -0.52293954296E+03  0.53933454880E+03  0.78555144840E+02 0.  0.
        254    2    1    2    0    0  0.58987160420E+01  0.10587863009E+03  0.12388644307E+04  0.15484065449E+04  0.92278527907E+03 0.  0.
         23    2    4    4    0    0 -0.22250378979E+03  0.38086315167E+03  0.30583403985E+03  0.54496305533E+03  0.94263433898E+02 0.  0.
         23    2    4    4    0    0  0.22840250583E+03 -0.27498452158E+03  0.93303039088E+03  0.10034434895E+04  0.92568540042E+02 0.  0.
          2    1    3    3  502    0  0.20221363090E+02 -0.16814019192E+02 -0.42250442880E+02  0.49766602157E+02  0.00000000000E+00 0. -1.
         -1    1    3    3    0  502 -0.26120079132E+02 -0.89064610899E+02 -0.48068910008E+03  0.48956794665E+03  0.00000000000E+00 0.  1.
         11    1    5    5    0    0 -0.20148620052E+02  0.64801515814E+02  0.13357830056E+02  0.69163827002E+02  0.00000000000E+00 0.  1.
        -11    1    5    5    0    0 -0.20235516973E+03  0.31606163585E+03  0.29247620980E+03  0.47579922832E+03  0.00000000000E+00 0. -1.
          4    1    6    6  503    0  0.40169508641E+02 -0.13967518023E+02  0.17179161182E+03  0.17697750952E+03  0.00000000000E+00 0.  1.
         -4    1    6    6    0  503  0.18823299719E+03 -0.26101700355E+03  0.76123877905E+03  0.82646598001E+03  0.00000000000E+00 0. -1.
<mgrwt>
<rscale>  0 0.19611513E+04</rscale>
<asrwt>0</asrwt>
<pdfrwt beam="1">  1        2 0.21566661E+00 0.19611513E+04</pdfrwt>
<pdfrwt beam="2">  1       -1 0.10552432E+00 0.19611513E+04</pdfrwt>
<totfact> 0.12903023E+01</totfact>
</mgrwt>
</event>
<event>
12    6  0.1538774E-007  0.1677195E+04  0.7818608E-02  0.8774479E-01
         -1   -1    0    0    0  501 -0.00000000000E+00  0.00000000000E+00  0.32996426344E+03  0.32996426344E+03  0.00000000000E+00 0.  1.
          2   -1    0    0  501    0  0.00000000000E+00 -0.00000000000E+00 -0.21312777047E+04  0.21312777047E+04  0.00000000000E+00 0. -1.
         24    2    1    2    0    0  0.95419874851E+02  0.49977293369E+03 -0.19308514262E+03  0.54976760400E+03  0.78003899565E+02 0.  0.
        254    2    1    2    0    0 -0.95419874851E+02 -0.49977293369E+03 -0.16082282987E+04  0.19114743642E+04  0.89914295110E+03 0.  0.
         23    2    4    4    0    0 -0.32064847110E+03  0.11571029875E+03 -0.39077547733E+03  0.52581940071E+03  0.87041675229E+02 0.  0.
         23    2    4    4    0    0  0.22522859625E+03 -0.61548323243E+03 -0.12174528213E+04  0.13856549635E+04  0.91108592441E+02 0.  0.
          4    1    3    3  502    0  0.14049581436E+02  0.23803798965E+03 -0.11521937766E+03  0.26483009694E+03  0.00000000000E+00 0. -1.
         -1    1    3    3    0  502  0.81370293415E+02  0.26173494403E+03 -0.77865764965E+02  0.28493750706E+03  0.00000000000E+00 0.  1.
         11    1    5    5    0    0 -0.29083987734E+03  0.79641645174E+02 -0.36092641800E+03  0.47031745142E+03  0.00000000000E+00 0. -1.
        -11    1    5    5    0    0 -0.29808593756E+02  0.36068653574E+02 -0.29849059333E+02  0.55501949294E+02  0.00000000000E+00 0.  1.
          1    1    6    6  503    0  0.20250794001E+03 -0.54192500305E+03 -0.11274599376E+04  0.12672245601E+04  0.00000000000E+00 0. -1.
         -1    1    6    6    0  503  0.22720656242E+02 -0.73558229382E+02 -0.89992883740E+02  0.11843040342E+03  0.00000000000E+00 0.  1.
<mgrwt>
<rscale>  0 0.16771947E+04</rscale>
<asrwt>0</asrwt>
<pdfrwt beam="1">  1        2 0.32788887E+00 0.16771947E+04</pdfrwt>
<pdfrwt beam="2">  1       -1 0.50763734E-01 0.16771947E+04</pdfrwt>
<totfact> 0.23900856E+01</totfact>
</mgrwt>
</event>
<event>
12    6  0.1538774E-007  0.2131192E+04  0.7818608E-02  0.8547626E-01
          2   -1    0    0  501    0  0.00000000000E+00  0.00000000000E+00  0.11992582204E+04  0.11992582204E+04  0.00000000000E+00 0. -1.
         -1   -1    0    0    0  501 -0.00000000000E+00 -0.00000000000E+00 -0.94683072629E+03  0.94683072629E+03  0.00000000000E+00 0.  1.
         24    2    1    2    0    0 -0.31499354937E+03 -0.54736366114E+03  0.72299976654E+03  0.96332952103E+03  0.80294395787E+02 0.  0.
        254    2    1    2    0    0  0.31499354937E+03  0.54736366114E+03 -0.47057227241E+03  0.11827594257E+04  0.88241355486E+03 0.  0.
         23    2    4    4    0    0  0.13505667941E+03  0.45624269769E+03  0.16308360870E+03  0.51180646280E+03  0.94614407397E+02 0.  0.
         23    2    4    4    0    0  0.17993686996E+03  0.91120963450E+02 -0.63365588111E+03  0.67095296288E+03  0.89318506385E+02 0.  0.
          4    1    3    3  502    0 -0.29020364186E+03 -0.52092794185E+03  0.70333381167E+03  0.92209680890E+03  0.00000000000E+00 0. -1.
         -3    1    3    3    0  502 -0.24789907507E+02 -0.26435719288E+02  0.19665954868E+02  0.41232712127E+02  0.00000000000E+00 0.  1.
         11    1    5    5    0    0 -0.50273025174E+01  0.74028540228E+02  0.26199071154E+01  0.74245285724E+02  0.00000000000E+00 0. -1.
        -11    1    5    5    0    0  0.14008398193E+03  0.38221415747E+03  0.16046370159E+03  0.43756117708E+03  0.00000000000E+00 0.  1.
          1    1    6    6  503    0  0.33049663016E+02 -0.14983769643E+02 -0.15383943138E+03  0.15806126732E+03  0.00000000000E+00 0. -1.
         -1    1    6    6    0  503  0.14688720694E+03  0.10610473309E+03 -0.47981644973E+03  0.51289169557E+03  0.00000000000E+00 0.  1.
<mgrwt>
<rscale>  0 0.21311917E+04</rscale>
<asrwt>0</asrwt>
<pdfrwt beam="1">  1        2 0.18450127E+00 0.21311917E+04</pdfrwt>
<pdfrwt beam="2">  1       -1 0.14566627E+00 0.21311917E+04</pdfrwt>
<totfact> 0.75000651E+00</totfact>
</mgrwt>
</event>
<event>
12    6  0.1538774E-007  0.2672547E+04  0.7818608E-02  0.8343968E-01
         -1   -1    0    0    0  501 -0.00000000000E+00  0.00000000000E+00  0.14005826750E+04  0.14005826750E+04  0.00000000000E+00 0.  1.
          2   -1    0    0  501    0  0.00000000000E+00 -0.00000000000E+00 -0.12749168791E+04  0.12749168791E+04  0.00000000000E+00 0. -1.
         24    2    1    2    0    0  0.57597048302E+02 -0.56732923168E+03 -0.98463857468E+03  0.11406808827E+04  0.80373355503E+02 0.  0.
        254    2    1    2    0    0 -0.57597048302E+02  0.56732923168E+03  0.11103043705E+04  0.15348186714E+04  0.89314762601E+03 0.  0.
         23    2    4    4    0    0 -0.22184993725E+03 -0.13336766413E+03  0.56357193312E+03  0.62667320535E+03  0.90009188427E+02 0.  0.
         23    2    4    4    0    0  0.16425288895E+03  0.70069689580E+03  0.54673243741E+03  0.90814546609E+03  0.88637904628E+02 0.  0.
          4    1    3    3  502    0  0.23698937403E+02 -0.28959377771E+03 -0.42264533153E+03  0.51288914201E+03  0.00000000000E+00 0. -1.
         -3    1    3    3    0  502  0.33898110899E+02 -0.27773545396E+03 -0.56199324315E+03  0.62779174067E+03  0.00000000000E+00 0.  1.
         11    1    5    5    0    0 -0.18541660915E+02  0.11504865214E+02  0.25864864715E+02  0.33840010931E+02  0.00000000000E+00 0.  1.
        -11    1    5    5    0    0 -0.20330827634E+03 -0.14487252934E+03  0.53770706841E+03  0.59283319441E+03  0.00000000000E+00 0. -1.
          4    1    6    6  503    0  0.76403668288E+02  0.18409780424E+03  0.17977929999E+03  0.26842153185E+03  0.00000000000E+00 0.  1.
         -4    1    6    6    0  503  0.87849220662E+02  0.51659909156E+03  0.36695313742E+03  0.63972393424E+03  0.00000000000E+00 0. -1.
<mgrwt>
<rscale>  0 0.26725467E+04</rscale>
<asrwt>0</asrwt>
<pdfrwt beam="1">  1        2 0.19614106E+00 0.26725467E+04</pdfrwt>
<pdfrwt beam="2">  1       -1 0.21547426E+00 0.26725467E+04</pdfrwt>
<totfact> 0.20221604E+00</totfact>
</mgrwt>
</event>
<event>
12    6  0.1538774E-007  0.1796049E+04  0.7818608E-02  0.8708403E-01
         -1   -1    0    0    0  501 -0.00000000000E+00  0.00000000000E+00  0.79556038745E+03  0.79556038745E+03  0.00000000000E+00 0.  1.
          2   -1    0    0  501    0  0.00000000000E+00 -0.00000000000E+00 -0.10136852699E+04  0.10136852699E+04  0.00000000000E+00 0. -1.
         24    2    1    2    0    0 -0.60132610406E+03  0.28644772039E+03  0.12617704769E+02  0.67118136452E+03  0.81730273854E+02 0.  0.
        254    2    1    2    0    0  0.60132610406E+03 -0.28644772039E+03 -0.23074258721E+03  0.11380642928E+04  0.89347793096E+03 0.  0.
         23    2    4    4    0    0 -0.20447507635E+03  0.59851644325E+02 -0.29479714837E+02  0.23333676421E+03  0.90469418975E+02 0.  0.
         23    2    4    4    0    0  0.80580118041E+03 -0.34629936472E+03 -0.20126287237E+03  0.90472752861E+03  0.93735611607E+02 0.  0.
          4    1    3    3  502    0 -0.53827452429E+03  0.26026367991E+03 -0.13599843501E+02  0.59804816054E+03  0.00000000000E+00 0. -1.
         -3    1    3    3    0  502 -0.63051579773E+02  0.26184040480E+02  0.26217548269E+02  0.73133203984E+02  0.00000000000E+00 0.  1.
         11    1    5    5    0    0  0.75834335577E+01  0.80757408292E+01 -0.86542622182E+01  0.14057820208E+02  0.00000000000E+00 0. -1.
        -11    1    5    5    0    0 -0.21205850990E+03  0.51775903496E+02 -0.20825452619E+02  0.21927894400E+03  0.00000000000E+00 0.  1.
          2    1    6    6  503    0  0.19135850886E+03 -0.78160787721E+02 -0.73144686927E+01  0.20683493202E+03  0.00000000000E+00 0. -1.
         -2    1    6    6    0  503  0.61444267155E+03 -0.26813857699E+03 -0.19394840368E+03  0.69789259659E+03  0.00000000000E+00 0.  1.
<mgrwt>
<rscale>  0 0.17960488E+04</rscale>
<asrwt>0</asrwt>
<pdfrwt beam="1">  1        2 0.15595158E+00 0.17960488E+04</pdfrwt>
<pdfrwt beam="2">  1       -1 0.12239391E+00 0.17960488E+04</pdfrwt>
<totfact> 0.15683832E+01</totfact>
</mgrwt>
</event>
<event>
12    6  0.1538774E-007  0.2352998E+04  0.7818608E-02  0.8457313E-01
          2   -1    0    0  501    0  0.00000000000E+00  0.00000000000E+00  0.81699043939E+03  0.81699043939E+03  0.00000000000E+00 0. -1.
         -1   -1    0    0    0  501 -0.00000000000E+00 -0.00000000000E+00 -0.16942064424E+04  0.16942064424E+04  0.00000000000E+00 0.  1.
         24    2    1    2    0    0  0.91180297196E+03 -0.13688611899E+02  0.65620067045E+02  0.91776764866E+03  0.80121320217E+02 0.  0.
        254    2    1    2    0    0 -0.91180297196E+03  0.13688611899E+02 -0.94283607009E+03  0.15934292332E+04  0.90471256665E+03 0.  0.
         23    2    4    4    0    0  0.11786063599E+03  0.10203778559E+03  0.16437108678E+02  0.18038566124E+03  0.89252277475E+02 0.  0.
         23    2    4    4    0    0 -0.10296636079E+04 -0.88349173694E+02 -0.95927317876E+03  0.14130435719E+04  0.92056409973E+02 0.  0.
          2    1    3    3  502    0  0.40350147320E+02 -0.86837733491E+01  0.17919039257E+02  0.44995936219E+02  0.00000000000E+00 0. -1.
         -1    1    3    3    0  502  0.87145282464E+03 -0.50048385501E+01  0.47701027788E+02  0.87277171244E+03  0.00000000000E+00 0.  1.
         11    1    5    5    0    0  0.51031519036E+02  0.70297156384E+02  0.48796812631E+02  0.99634507344E+02  0.00000000000E+00 0. -1.
        -11    1    5    5    0    0  0.66829116953E+02  0.31740629209E+02 -0.32359703953E+02  0.80751153894E+02  0.00000000000E+00 0.  1.
          4    1    6    6  503    0 -0.45244945664E+03 -0.25343186309E+02 -0.36145315606E+03  0.57965608073E+03  0.00000000000E+00 0. -1.
         -4    1    6    6    0  503 -0.57721415131E+03 -0.63005987385E+02 -0.59782002270E+03  0.83338749118E+03  0.00000000000E+00 0.  1.
<mgrwt>
<rscale>  0 0.23529985E+04</rscale>
<asrwt>0</asrwt>
<pdfrwt beam="1">  1        2 0.12569084E+00 0.23529985E+04</pdfrwt>
<pdfrwt beam="2">  1       -1 0.26064714E+00 0.23529985E+04</pdfrwt>
<totfact> 0.20492116E+00</totfact>
</mgrwt>
</event>
<event>
12    6  0.1538774E-007  0.2039915E+04  0.7818608E-02  0.8588183E-01
         -1   -1    0    0    0  501 -0.00000000000E+00  0.00000000000E+00  0.43637153617E+03  0.43637153617E+03  0.00000000000E+00 0.  1.
          2   -1    0    0  501    0  0.00000000000E+00 -0.00000000000E+00 -0.23840087412E+04  0.23840087412E+04  0.00000000000E+00 0. -1.
         24    2    1    2    0    0 -0.16799703239E+03 -0.36631777445E+03  0.20370580510E+03  0.45829801359E+03  0.78289842637E+02 0.  0.
        254    2    1    2    0    0  0.16799703239E+03  0.36631777445E+03 -0.21513430102E+04  0.23620822638E+04  0.88811269491E+03 0.  0.
         23    2    4    4    0    0  0.39010223392E+03  0.52066304312E+03 -0.17515788045E+04  0.18707011209E+04  0.90689678653E+02 0.  0.
         23    2    4    4    0    0 -0.22210520152E+03 -0.15434526867E+03 -0.39976420565E+03  0.49138114294E+03  0.92145672803E+02 0.  0.
          4    1    3    3  502    0 -0.10855648099E+01 -0.68199967753E+02  0.24389912763E+02  0.72438124610E+02  0.00000000000E+00 0. -1.
         -3    1    3    3    0  502 -0.16691146758E+03 -0.29811780670E+03  0.17931589234E+03  0.38585988898E+03  0.00000000000E+00 0.  1.
         11    1    5    5    0    0  0.21044367235E+03  0.32303528476E+03 -0.92806144728E+03  0.10049559116E+04  0.00000000000E+00 0. -1.
        -11    1    5    5    0    0  0.17965856157E+03  0.19762775837E+03 -0.82351735723E+03  0.86574520922E+03  0.00000000000E+00 0.  1.
          2    1    6    6  503    0 -0.20292875699E+03 -0.12603062184E+03 -0.38717998632E+03  0.45494190823E+03  0.00000000000E+00 0.  1.
         -2    1    6    6    0  503 -0.19176444536E+02 -0.28314646838E+02 -0.12584219326E+02  0.36439234716E+02  0.00000000000E+00 0. -1.
<mgrwt>
<rscale>  0 0.20399152E+04</rscale>
<asrwt>0</asrwt>
<pdfrwt beam="1">  1        2 0.36677058E+00 0.20399152E+04</pdfrwt>
<pdfrwt beam="2">  1       -1 0.67134082E-01 0.20399152E+04</pdfrwt>
<totfact> 0.96217446E+00</totfact>
</mgrwt>
</event>
<event>
12    6  0.1538774E-007  0.2630635E+04  0.7818608E-02  0.8357869E-01
          2   -1    0    0  501    0  0.00000000000E+00  0.00000000000E+00  0.24515518646E+04  0.24515518646E+04  0.00000000000E+00 0. -1.
         -1   -1    0    0    0  501 -0.00000000000E+00 -0.00000000000E+00 -0.70569981722E+03  0.70569981722E+03  0.00000000000E+00 0.  1.
         24    2    1    2    0    0 -0.43997284208E+03 -0.98761035574E+03  0.26358120578E+03  0.11156854680E+04  0.79553094619E+02 0.  0.
        254    2    1    2    0    0  0.43997284208E+03  0.98761035574E+03  0.14822708416E+04  0.20415662139E+04  0.89549731498E+03 0.  0.
         23    2    4    4    0    0  0.45122134335E+03  0.94098521181E+03  0.15823160938E+04  0.18976681720E+04  0.91468033205E+02 0.  0.
         23    2    4    4    0    0 -0.11248501272E+02  0.46625143935E+02 -0.10004525212E+03  0.14389804183E+03  0.91636025362E+02 0.  0.
          2    1    3    3  502    0 -0.76849538546E+01 -0.21365835407E+01  0.15802662675E+01  0.81314664391E+01  0.00000000000E+00 0. -1.
         -1    1    3    3    0  502 -0.43228788823E+03 -0.98547377220E+03  0.26200093951E+03  0.11075540015E+04  0.00000000000E+00 0.  1.
         11    1    5    5    0    0  0.45298997065E+03  0.94205262372E+03  0.15771674276E+04  0.18921205443E+04  0.00000000000E+00 0.  1.
        -11    1    5    5    0    0 -0.17686273005E+01 -0.10674119164E+01  0.51486661470E+01  0.55476277651E+01  0.00000000000E+00 0. -1.
          3    1    6    6  503    0  0.30766669184E+02  0.28029877454E+01 -0.52618967336E+01  0.31338988979E+02  0.00000000000E+00 0. -1.
         -3    1    6    6    0  503 -0.42015170456E+02  0.43822156190E+02 -0.94783355383E+02  0.11255905285E+03  0.00000000000E+00 0.  1.
<mgrwt>
<rscale>  0 0.26306347E+04</rscale>
<asrwt>0</asrwt>
<pdfrwt beam="1">  1        2 0.37716182E+00 0.26306347E+04</pdfrwt>
<pdfrwt beam="2">  1       -1 0.10856920E+00 0.26306347E+04</pdfrwt>
<totfact> 0.29319618E+00</totfact>
</mgrwt>
</event>
<event>
12    6  0.1538774E-007  0.1537166E+04  0.7818608E-02  0.8860108E-01
         -1   -1    0    0    0  501 -0.00000000000E+00  0.00000000000E+00  0.79639809350E+03  0.79639809350E+03  0.00000000000E+00 0.  1.
          2   -1    0    0  501    0  0.00000000000E+00 -0.00000000000E+00 -0.74173898440E+03  0.74173898440E+03  0.00000000000E+00 0. -1.
         24    2    1    2    0    0  0.24282566578E+03  0.22729669222E+03  0.31548107625E+03  0.46620582817E+03  0.84802561782E+02 0.  0.
        254    2    1    2    0    0 -0.24282566578E+03 -0.22729669222E+03 -0.26082196715E+03  0.10719312497E+04  0.98507888788E+03 0.  0.
         23    2    4    4    0    0 -0.59769113000E+02  0.37440419974E+03 -0.18688477784E+03  0.43224515533E+03  0.90327750220E+02 0.  0.
         23    2    4    4    0    0 -0.18305655278E+03 -0.60170089196E+03 -0.73937189305E+02  0.63968609441E+03  0.90431888788E+02 0.  0.
          4    1    3    3  502    0  0.15016276109E+03  0.10336293318E+03  0.21415417092E+03  0.28123790587E+03  0.00000000000E+00 0. -1.
         -3    1    3    3    0  502  0.92662904688E+02  0.12393375904E+03  0.10132690534E+03  0.18496792230E+03  0.00000000000E+00 0.  1.
         11    1    5    5    0    0  0.11428050834E+02  0.25465832351E+02  0.39805412380E+01  0.28194922801E+02  0.00000000000E+00 0. -1.
        -11    1    5    5    0    0 -0.71197163834E+02  0.34893836739E+03 -0.19086531908E+03  0.40405023252E+03  0.00000000000E+00 0.  1.
          3    1    6    6  503    0 -0.22813119974E+02 -0.39507553050E+02  0.15746113039E+02  0.48262047893E+02  0.00000000000E+00 0. -1.
         -3    1    6    6    0  503 -0.16024343281E+03 -0.56219333891E+03 -0.89683302344E+02  0.59142404651E+03  0.00000000000E+00 0.  1.
<mgrwt>
<rscale>  0 0.15371656E+04</rscale>
<asrwt>0</asrwt>
<pdfrwt beam="1">  1        2 0.11411369E+00 0.15371656E+04</pdfrwt>
<pdfrwt beam="2">  1       -1 0.12252278E+00 0.15371656E+04</pdfrwt>
<totfact> 0.24624724E+01</totfact>
</mgrwt>
</event>
<event>
12    6  0.1538774E-007  0.2484779E+04  0.7818608E-02  0.8408428E-01
         -1   -1    0    0    0  501 -0.00000000000E+00  0.00000000000E+00  0.38644028541E+03  0.38644028541E+03  0.00000000000E+00 0.  1.
          2   -1    0    0  501    0  0.00000000000E+00 -0.00000000000E+00 -0.39942302479E+04  0.39942302479E+04  0.00000000000E+00 0. -1.
         24    2    1    2    0    0 -0.56873584132E+03 -0.43540408715E+03 -0.15166270390E+03  0.73700103604E+03  0.84449837590E+02 0.  0.
        254    2    1    2    0    0  0.56873584132E+03  0.43540408715E+03 -0.34561272585E+04  0.36436694972E+04  0.90469586132E+03 0.  0.
         23    2    4    4    0    0  0.48805628498E+03  0.39674287349E+03 -0.34582605339E+04  0.35164656943E+04  0.10179004821E+03 0.  0.
         23    2    4    4    0    0  0.80679556339E+02  0.38661213660E+02  0.21332753181E+01  0.12720380296E+03  0.90401196739E+02 0.  0.
          2    1    3    3  502    0 -0.16432166053E+03 -0.12982260817E+03 -0.55975335781E+01  0.20949188551E+03  0.00000000000E+00 0. -1.
         -1    1    3    3    0  502 -0.40441418078E+03 -0.30558147898E+03 -0.14606517033E+03  0.52750915054E+03  0.00000000000E+00 0.  1.
         11    1    5    5    0    0  0.31645347015E+03  0.31655033639E+03 -0.24629502817E+04  0.25032920334E+04  0.00000000000E+00 0. -1.
        -11    1    5    5    0    0  0.17160281483E+03  0.80192537101E+02 -0.99531025213E+03  0.10131736609E+04  0.00000000000E+00 0.  1.
          3    1    6    6  503    0  0.31699097908E+01 -0.76355733376E+00 -0.33185288637E+02  0.33345085542E+02  0.00000000000E+00 0. -1.
         -3    1    6    6    0  503  0.77509646548E+02  0.39424770994E+02  0.35318563955E+02  0.93858717420E+02  0.00000000000E+00 0.  1.
<mgrwt>
<rscale>  0 0.24847788E+04</rscale>
<asrwt>0</asrwt>
<pdfrwt beam="1">  1        2 0.61449699E+00 0.24847788E+04</pdfrwt>
<pdfrwt beam="2">  1       -1 0.59452349E-01 0.24847788E+04</pdfrwt>
<totfact> 0.10109773E+00</totfact>
</mgrwt>
</event>
<event>
12    6  0.1538774E-007  0.1479466E+04  0.7818608E-02  0.8898224E-01
         -3   -1    0    0    0  501 -0.00000000000E+00  0.00000000000E+00  0.32086797110E+03  0.32086797110E+03  0.00000000000E+00 0.  1.
          2   -1    0    0  501    0  0.00000000000E+00 -0.00000000000E+00 -0.17053901249E+04  0.17053901249E+04  0.00000000000E+00 0. -1.
         24    2    1    2    0    0  0.23379699537E+03  0.14678039796E+03 -0.95305563575E+03  0.99541132883E+03  0.79518227192E+02 0.  0.
        254    2    1    2    0    0 -0.23379699537E+03 -0.14678039796E+03 -0.43146651802E+03  0.10308467671E+04  0.89458156748E+03 0.  0.
         23    2    4    4    0    0  0.29283299146E+03 -0.26817555454E+02  0.37737446527E+02  0.31001632861E+03  0.90640316427E+02 0.  0.
         23    2    4    4    0    0 -0.52662998683E+03 -0.11996284251E+03 -0.46920396455E+03  0.72083043853E+03  0.87829005164E+02 0.  0.
          2    1    3    3  502    0  0.22701527464E+03  0.11452054749E+03 -0.84933386481E+03  0.88657707202E+03  0.00000000000E+00 0. -1.
         -1    1    3    3    0  502  0.67817207318E+01  0.32259850468E+02 -0.10372177094E+03  0.10883425681E+03  0.00000000000E+00 0.  1.
         11    1    5    5    0    0  0.87815776794E+02 -0.46768159689E+02 -0.50993174533E+01  0.99623664122E+02  0.00000000000E+00 0.  1.
        -11    1    5    5    0    0  0.20501721467E+03  0.19950604236E+02  0.42836763980E+02  0.21039266448E+03  0.00000000000E+00 0. -1.
          3    1    6    6  503    0 -0.32282781718E+03 -0.11571866362E+03 -0.30796299538E+03  0.46092278657E+03  0.00000000000E+00 0. -1.
         -3    1    6    6    0  503 -0.20380216965E+03 -0.42441788927E+01 -0.16124096917E+03  0.25990765196E+03  0.00000000000E+00 0.  1.
<mgrwt>
<rscale>  0 0.14794662E+04</rscale>
<asrwt>0</asrwt>
<pdfrwt beam="1">  1        2 0.26236771E+00 0.14794662E+04</pdfrwt>
<pdfrwt beam="2">  1       -3 0.49364303E-01 0.14794662E+04</pdfrwt>
<totfact> 0.24620918E+01</totfact>
</mgrwt>
</event>
<event>
12    6  0.1538774E-007  0.1458840E+04  0.7818608E-02  0.8912295E-01
          2   -1    0    0  501    0  0.00000000000E+00  0.00000000000E+00  0.21151564544E+04  0.21151564544E+04  0.00000000000E+00 0. -1.
         -1   -1    0    0    0  501 -0.00000000000E+00 -0.00000000000E+00 -0.25154318098E+03  0.25154318098E+03  0.00000000000E+00 0.  1.
         24    2    1    2    0    0  0.96485768831E+02  0.37493971298E+03  0.21071770514E+03  0.44791100949E+03  0.79580331790E+02 0.  0.
        254    2    1    2    0    0 -0.96485768831E+02 -0.37493971298E+03  0.16528955683E+04  0.19187886259E+04  0.89431355757E+03 0.  0.
         23    2    4    4    0    0 -0.39140791684E+03 -0.49219774740E+03  0.12097814004E+04  0.13664946199E+04  0.90982028164E+02 0.  0.
         23    2    4    4    0    0  0.29492214800E+03  0.11725803442E+03  0.44311416785E+03  0.55229400600E+03  0.89162678847E+02 0.  0.
          4    1    3    3  502    0  0.51350715120E+01  0.49622291609E+02  0.59698050075E+02  0.77798444500E+02  0.00000000000E+00 0. -1.
         -3    1    3    3    0  502  0.91350697319E+02  0.32531742137E+03  0.15101965507E+03  0.37011256499E+03  0.00000000000E+00 0.  1.
         11    1    5    5    0    0 -0.16238992591E+03 -0.26263095720E+03  0.53146877758E+03  0.61465809134E+03  0.00000000000E+00 0.  1.
        -11    1    5    5    0    0 -0.22901799093E+03 -0.22956679020E+03  0.67831262283E+03  0.75183652852E+03  0.00000000000E+00 0. -1.
          2    1    6    6  503    0  0.17362783914E+03  0.21213889648E+02  0.23141272136E+03  0.29008361423E+03  0.00000000000E+00 0. -1.
         -2    1    6    6    0  503  0.12129430887E+03  0.96044144770E+02  0.21170144649E+03  0.26221039177E+03  0.00000000000E+00 0.  1.
<mgrwt>
<rscale>  0 0.14588395E+04</rscale>
<asrwt>0</asrwt>
<pdfrwt beam="1">  1        2 0.32540867E+00 0.14588395E+04</pdfrwt>
<pdfrwt beam="2">  1       -1 0.38698952E-01 0.14588395E+04</pdfrwt>
<totfact> 0.41194379E+01</totfact>
</mgrwt>
</event>
<event>
12    6  0.1538774E-007  0.1618994E+04  0.7818608E-02  0.8808964E-01
         -1   -1    0    0    0  501 -0.00000000000E+00  0.00000000000E+00  0.15041669911E+03  0.15041669911E+03  0.00000000000E+00 0.  1.
          2   -1    0    0  501    0  0.00000000000E+00 -0.00000000000E+00 -0.43564647021E+04  0.43564647021E+04  0.00000000000E+00 0. -1.
         24    2    1    2    0    0  0.37980596357E+01 -0.40850126963E+03 -0.24811293858E+04  0.25158124648E+04  0.80134989789E+02 0.  0.
        254    2    1    2    0    0 -0.37980596357E+01  0.40850126963E+03 -0.17249186172E+04  0.19910689364E+04  0.90671029605E+03 0.  0.
         23    2    4    4    0    0 -0.36481773855E+03  0.44932869448E+03 -0.79419601296E+03  0.98703638814E+03  0.92224001540E+02 0.  0.
         23    2    4    4    0    0  0.36101967892E+03 -0.40827424846E+02 -0.93072260426E+03  0.10040325483E+04  0.99170079803E+02 0.  0.
          4    1    3    3  502    0 -0.34029805347E+01 -0.37532516602E+03 -0.21091523844E+04  0.21422895092E+04  0.00000000000E+00 0. -1.
         -3    1    3    3    0  502  0.72010401704E+01 -0.33176103613E+02 -0.37197700135E+03  0.37352295561E+03  0.00000000000E+00 0.  1.
         11    1    5    5    0    0 -0.17789146730E+03  0.22712123582E+03 -0.31865030328E+03  0.42984583943E+03  0.00000000000E+00 0. -1.
        -11    1    5    5    0    0 -0.18692627125E+03  0.22220745866E+03 -0.47554570969E+03  0.55719054871E+03  0.00000000000E+00 0.  1.
          2    1    6    6  503    0  0.37149843182E+02 -0.31029916485E+02 -0.17947946537E+03  0.18589202526E+03  0.00000000000E+00 0. -1.
         -2    1    6    6    0  503  0.32386983574E+03 -0.97975083612E+01 -0.75124313889E+03  0.81814052301E+03  0.00000000000E+00 0.  1.
<mgrwt>
<rscale>  0 0.16189936E+04</rscale>
<asrwt>0</asrwt>
<pdfrwt beam="1">  1        2 0.67022532E+00 0.16189936E+04</pdfrwt>
<pdfrwt beam="2">  1       -1 0.23141031E-01 0.16189936E+04</pdfrwt>
<totfact> 0.30157696E+00</totfact>
</mgrwt>
</event>
<event>
12    6  0.1538774E-007  0.1050452E+04  0.7818608E-02  0.9254877E-01
          2   -1    0    0  501    0  0.00000000000E+00  0.00000000000E+00  0.10327054626E+04  0.10327054626E+04  0.00000000000E+00 0. -1.
         -1   -1    0    0    0  501 -0.00000000000E+00 -0.00000000000E+00 -0.26712611726E+03  0.26712611726E+03  0.00000000000E+00 0.  1.
         24    2    1    2    0    0  0.10194585712E+02 -0.18682817528E+02 -0.42005717567E+02  0.90671145883E+02  0.77484186378E+02 0.  0.
        254    2    1    2    0    0 -0.10194585712E+02  0.18682817528E+02  0.80758506288E+03  0.12091604340E+04  0.89967902276E+03 0.  0.
         23    2    4    4    0    0  0.38682149925E+03  0.52922263901E+02  0.13617020307E+03  0.42321736008E+03  0.90216247808E+02 0.  0.
         23    2    4    4    0    0 -0.39701608496E+03 -0.34239446373E+02  0.67141485981E+03  0.78594307387E+03  0.90080463988E+02 0.  0.
          4    1    3    3  502    0 -0.15374216695E+02  0.16030867450E+02  0.89290787617E+01  0.23939166605E+02  0.00000000000E+00 0. -1.
         -3    1    3    3    0  502  0.25568802407E+02 -0.34713684978E+02 -0.50934796329E+02  0.66731979278E+02  0.00000000000E+00 0.  1.
         11    1    5    5    0    0  0.25978945265E+03  0.41087834639E+02  0.46058310866E+02  0.26702085661E+03  0.00000000000E+00 0. -1.
        -11    1    5    5    0    0  0.12703204660E+03  0.11834429261E+02  0.90111892209E+02  0.15619650347E+03  0.00000000000E+00 0.  1.
          2    1    6    6  503    0 -0.32080680080E+03 -0.45923263937E+02  0.59417421885E+03  0.67680791364E+03  0.00000000000E+00 0. -1.
         -2    1    6    6    0  503 -0.76209284156E+02  0.11683817565E+02  0.77240640957E+02  0.10913516024E+03  0.00000000000E+00 0.  1.
<mgrwt>
<rscale>  0 0.10504525E+04</rscale>
<asrwt>0</asrwt>
<pdfrwt beam="1">  1        2 0.15887776E+00 0.10504525E+04</pdfrwt>
<pdfrwt beam="2">  1       -1 0.41096326E-01 0.10504525E+04</pdfrwt>
<totfact> 0.15782024E+02</totfact>
</mgrwt>
</event>
<event>
12    6  0.1538774E-007  0.1377933E+04  0.7818608E-02  0.8969949E-01
         -1   -1    0    0    0  501 -0.00000000000E+00  0.00000000000E+00  0.47699965158E+03  0.47699965158E+03  0.00000000000E+00 0.  1.
          2   -1    0    0  501    0  0.00000000000E+00 -0.00000000000E+00 -0.99512554058E+03  0.99512554058E+03  0.00000000000E+00 0. -1.
         24    2    1    2    0    0  0.26435297005E+03 -0.63075631193E+02 -0.45198667682E+03  0.53350271139E+03  0.80449729732E+02 0.  0.
        254    2    1    2    0    0 -0.26435297005E+03  0.63075631193E+02 -0.66139212188E+02  0.93862248077E+03  0.89597809013E+03 0.  0.
         23    2    4    4    0    0  0.20411431544E+03 -0.25292265371E+03 -0.12900043576E+03  0.36196965256E+03  0.93532852093E+02 0.  0.
         23    2    4    4    0    0 -0.46846728549E+03  0.31599828490E+03  0.62861223571E+02  0.57665282821E+03  0.96231165540E+02 0.  0.
          2    1    3    3  502    0  0.60806524112E+01 -0.16732565129E+01 -0.58494027809E+02  0.58833029927E+02  0.00000000000E+00 0. -1.
         -1    1    3    3    0  502  0.25827231764E+03 -0.61402374680E+02 -0.39349264901E+03  0.47466968146E+03  0.00000000000E+00 0.  1.
         11    1    5    5    0    0 -0.96660942299E+00  0.43822273640E+01  0.49789975874E+01  0.67028850073E+01  0.00000000000E+00 0. -1.
        -11    1    5    5    0    0  0.20508092486E+03 -0.25730488107E+03 -0.13397943335E+03  0.35526676755E+03  0.00000000000E+00 0.  1.
          4    1    6    6  503    0 -0.20151389346E+03  0.10121404740E+03 -0.12429659648E+02  0.22584647238E+03  0.00000000000E+00 0. -1.
         -4    1    6    6    0  503 -0.26695339203E+03  0.21478423750E+03  0.75290883219E+02  0.35080635583E+03  0.00000000000E+00 0.  1.
<mgrwt>
<rscale>  0 0.13779326E+04</rscale>
<asrwt>0</asrwt>
<pdfrwt beam="1">  1        2 0.15309623E+00 0.13779326E+04</pdfrwt>
<pdfrwt beam="2">  1       -1 0.73384563E-01 0.13779326E+04</pdfrwt>
<totfact> 0.52809697E+01</totfact>
</mgrwt>
</event>
<event>
12    6  0.1538774E-007  0.1769494E+04  0.7818608E-02  0.8722693E-01
         -1   -1    0    0    0  501 -0.00000000000E+00  0.00000000000E+00  0.11752087713E+04  0.11752087713E+04  0.00000000000E+00 0.  1.
          2   -1    0    0  501    0  0.00000000000E+00 -0.00000000000E+00 -0.66607492754E+03  0.66607492754E+03  0.00000000000E+00 0. -1.
         24    2    1    2    0    0 -0.24976860597E+03  0.36427179218E+03 -0.31166797491E+03  0.54664079052E+03  0.81246120951E+02 0.  0.
        254    2    1    2    0    0  0.24976860597E+03 -0.36427179218E+03  0.82080181865E+03  0.12946429083E+04  0.89850227570E+03 0.  0.
         23    2    4    4    0    0  0.56590648458E+03 -0.17730218798E+03  0.36303470425E+03  0.70084128856E+03  0.87738817548E+02 0.  0.
         23    2    4    4    0    0 -0.31613787861E+03 -0.18696960420E+03  0.45776711440E+03  0.59380161975E+03  0.90270933348E+02 0.  0.
          2    1    3    3  502    0 -0.83098810256E+02  0.19145939506E+03 -0.15461938259E+03  0.25974846620E+03  0.00000000000E+00 0. -1.
         -1    1    3    3    0  502 -0.16666979571E+03  0.17281239712E+03 -0.15704859232E+03  0.28689232431E+03  0.00000000000E+00 0.  1.
         11    1    5    5    0    0  0.21593908238E+03 -0.49832551948E+02  0.90782310302E+02  0.23948778340E+03  0.00000000000E+00 0. -1.
        -11    1    5    5    0    0  0.34996740220E+03 -0.12746963603E+03  0.27225239395E+03  0.46135350516E+03  0.00000000000E+00 0.  1.
          2    1    6    6  503    0 -0.73323370029E+02 -0.17052472266E+02  0.14214644770E+03  0.16084997979E+03  0.00000000000E+00 0. -1.
         -2    1    6    6    0  503 -0.24281450858E+03 -0.16991713194E+03  0.31562066670E+03  0.43295163997E+03  0.00000000000E+00 0.  1.
<mgrwt>
<rscale>  0 0.17694938E+04</rscale>
<asrwt>0</asrwt>
<pdfrwt beam="1">  1        2 0.10247307E+00 0.17694938E+04</pdfrwt>
<pdfrwt beam="2">  1       -1 0.18080135E+00 0.17694938E+04</pdfrwt>
<totfact> 0.96799453E+00</totfact>
</mgrwt>
</event>
<event>
12    6  0.1538774E-007  0.2375493E+04  0.7818608E-02  0.8448736E-01
         -3   -1    0    0    0  501 -0.00000000000E+00  0.00000000000E+00  0.14940637864E+04  0.14940637864E+04  0.00000000000E+00 0.  1.
          2   -1    0    0  501    0  0.00000000000E+00 -0.00000000000E+00 -0.94423103399E+03  0.94423103399E+03  0.00000000000E+00 0. -1.
         24    2    1    2    0    0 -0.29118094673E+03  0.70489556000E+03 -0.36465473394E+03  0.84912685908E+03  0.79870229593E+02 0.  0.
        254    2    1    2    0    0  0.29118094673E+03 -0.70489556000E+03  0.91448748636E+03  0.15891679613E+04  0.10523798517E+04 0.  0.
         23    2    4    4    0    0  0.24410533254E+03 -0.45959100430E+03 -0.10224013688E+03  0.53843773631E+03  0.93009922565E+02 0.  0.
         23    2    4    4    0    0  0.47075614196E+02 -0.24530455571E+03  0.10167276232E+04  0.10507302250E+04  0.88929789085E+02 0.  0.
          2    1    3    3  502    0 -0.10951748257E+03  0.25946444263E+03 -0.17780113147E+03  0.33306023229E+03  0.00000000000E+00 0. -1.
         -1    1    3    3    0  502 -0.18166346416E+03  0.44543111737E+03 -0.18685360246E+03  0.51606662679E+03  0.00000000000E+00 0.  1.
         11    1    5    5    0    0  0.68975259214E+02 -0.14820437435E+03 -0.75846339945E+02  0.18020763092E+03  0.00000000000E+00 0. -1.
        -11    1    5    5    0    0  0.17513007332E+03 -0.31138662994E+03 -0.26393796931E+02  0.35823010539E+03  0.00000000000E+00 0.  1.
          1    1    6    6  503    0  0.37370528280E+02 -0.15428094738E+03  0.79772910546E+03  0.81337008355E+03  0.00000000000E+00 0. -1.
         -1    1    6    6    0  503  0.97050859164E+01 -0.91023608332E+02  0.21899851777E+03  0.23736014146E+03  0.00000000000E+00 0.  1.
<mgrwt>
<rscale>  0 0.23754927E+04</rscale>
<asrwt>0</asrwt>
<pdfrwt beam="1">  1        2 0.14526631E+00 0.23754927E+04</pdfrwt>
<pdfrwt beam="2">  1       -3 0.22985597E+00 0.23754927E+04</pdfrwt>
<totfact> 0.14885692E+00</totfact>
</mgrwt>
</event>
<event>
12    6  0.1538774E-007  0.1564255E+04  0.7818608E-02  0.8842814E-01
          2   -1    0    0  501    0  0.00000000000E+00  0.00000000000E+00  0.11412106533E+04  0.11412106533E+04  0.00000000000E+00 0. -1.
         -1   -1    0    0    0  501 -0.00000000000E+00 -0.00000000000E+00 -0.53603010828E+03  0.53603010828E+03  0.00000000000E+00 0.  1.
         24    2    1    2    0    0  0.24196550453E+03  0.24973531940E+03  0.59252084330E+03  0.69184101865E+03  0.81535330962E+02 0.  0.
        254    2    1    2    0    0 -0.24196550453E+03 -0.24973531940E+03  0.12659701686E+02  0.98539974291E+03  0.92192046845E+03 0.  0.
         23    2    4    4    0    0  0.21424470629E+03 -0.25680163055E+03  0.28332481099E+03  0.44762661550E+03  0.90822721588E+02 0.  0.
         23    2    4    4    0    0 -0.45621021082E+03  0.70663111475E+01 -0.27066510931E+03  0.53777312741E+03  0.88105879244E+02 0.  0.
          4    1    3    3  502    0  0.20512942936E+03  0.24500223422E+03  0.54120445511E+03  0.62849537770E+03  0.00000000000E+00 0. -1.
         -3    1    3    3    0  502  0.36836075172E+02  0.47330851762E+01  0.51316388196E+02  0.63345640946E+02  0.00000000000E+00 0.  1.
         11    1    5    5    0    0  0.19611695392E+03 -0.26227990036E+03  0.26509565317E+03  0.42134108638E+03  0.00000000000E+00 0. -1.
        -11    1    5    5    0    0  0.18127752368E+02  0.54782698092E+01  0.18229157824E+02  0.26285529118E+02  0.00000000000E+00 0.  1.
          2    1    6    6  503    0 -0.40201923506E+03  0.13914314951E+02 -0.26745238820E+03  0.48305678080E+03  0.00000000000E+00 0. -1.
         -2    1    6    6    0  503 -0.54190975756E+02 -0.68480038037E+01 -0.32127211080E+01  0.54716346611E+02  0.00000000000E+00 0.  1.
<mgrwt>
<rscale>  0 0.15642548E+04</rscale>
<asrwt>0</asrwt>
<pdfrwt beam="1">  1        2 0.17557087E+00 0.15642548E+04</pdfrwt>
<pdfrwt beam="2">  1       -1 0.82466171E-01 0.15642548E+04</pdfrwt>
<totfact> 0.32949597E+01</totfact>
</mgrwt>
</event>
<event>
12    6  0.1538774E-007  0.1922125E+04  0.7818608E-02  0.8643921E-01
          2   -1    0    0  501    0  0.00000000000E+00  0.00000000000E+00  0.21750232696E+04  0.21750232696E+04  0.00000000000E+00 0. -1.
         -1   -1    0    0    0  501 -0.00000000000E+00 -0.00000000000E+00 -0.42465811367E+03  0.42465811367E+03  0.00000000000E+00 0.  1.
         24    2    1    2    0    0  0.58495722321E+03  0.35660870833E+03  0.10590535653E+04  0.12637846443E+04  0.78819090918E+02 0.  0.
        254    2    1    2    0    0 -0.58495722321E+03 -0.35660870833E+03  0.69131159064E+03  0.13358967390E+04  0.91507576631E+03 0.  0.
         23    2    4    4    0    0  0.18107045756E+03 -0.10323498976E+03 -0.53743030529E+02  0.23393304483E+03  0.91609947183E+02 0.  0.
         23    2    4    4    0    0 -0.76602768077E+03 -0.25337371857E+03  0.74505462117E+03  0.11019636942E+04  0.90669431367E+02 0.  0.
          2    1    3    3  502    0  0.29571390306E+03  0.22082889141E+03  0.60160654650E+03  0.70579214258E+03  0.00000000000E+00 0. -1.
         -1    1    3    3    0  502  0.28924332015E+03  0.13577981692E+03  0.45744701881E+03  0.55799250170E+03  0.00000000000E+00 0.  1.
         11    1    5    5    0    0  0.18346212626E+01  0.13514486298E+02 -0.13598913999E+01  0.13706074555E+02  0.00000000000E+00 0. -1.
        -11    1    5    5    0    0  0.17923583630E+03 -0.11674947606E+03 -0.52383139129E+02  0.22022697028E+03  0.00000000000E+00 0.  1.
          4    1    6    6  503    0 -0.28076250872E+03 -0.13263895930E+03  0.25486635195E+03  0.40171823108E+03  0.00000000000E+00 0. -1.
         -4    1    6    6    0  503 -0.48526517205E+03 -0.12073475926E+03  0.49018826922E+03  0.70024546309E+03  0.00000000000E+00 0.  1.
<mgrwt>
<rscale>  0 0.19221252E+04</rscale>
<asrwt>0</asrwt>
<pdfrwt beam="1">  1        2 0.33461896E+00 0.19221252E+04</pdfrwt>
<pdfrwt beam="2">  1       -1 0.65332019E-01 0.19221252E+04</pdfrwt>
<totfact> 0.13485578E+01</totfact>
</mgrwt>
</event>
<event>
12    6  0.1538774E-007  0.1742052E+04  0.7818608E-02  0.8737738E-01
         -1   -1    0    0    0  501 -0.00000000000E+00  0.00000000000E+00  0.63367693030E+03  0.63367693030E+03  0.00000000000E+00 0.  1.
          2   -1    0    0  501    0  0.00000000000E+00 -0.00000000000E+00 -0.11972758797E+04  0.11972758797E+04  0.00000000000E+00 0. -1.
         24    2    1    2    0    0  0.25187493806E+03 -0.53415613845E+03 -0.53418065681E+03  0.80038104253E+03  0.80604432065E+02 0.  0.
        254    2    1    2    0    0 -0.25187493806E+03  0.53415613845E+03 -0.29418292580E+02  0.10305717674E+04  0.84406692108E+03 0.  0.
         23    2    4    4    0    0 -0.41407265652E+03  0.21876767521E+03 -0.31054227888E+03  0.56923602806E+03  0.90981800820E+02 0.  0.
         23    2    4    4    0    0  0.16219771846E+03  0.31538846324E+03  0.28112398630E+03  0.46133573939E+03  0.89565541047E+02 0.  0.
          4    1    3    3  502    0  0.25746240466E+03 -0.52927224887E+03 -0.52858661721E+03  0.79108774175E+03  0.00000000000E+00 0. -1.
         -3    1    3    3    0  502 -0.55874666070E+01 -0.48838895763E+01 -0.55940395917E+01  0.92933007824E+01  0.00000000000E+00 0.  1.
         11    1    5    5    0    0 -0.38606319768E+03  0.18123407263E+03 -0.25630390359E+03  0.49757639883E+03  0.00000000000E+00 0. -1.
        -11    1    5    5    0    0 -0.28009458844E+02  0.37533602579E+02 -0.54238375288E+02  0.71659629228E+02  0.00000000000E+00 0.  1.
          2    1    6    6  503    0  0.11659921229E+03  0.28906001140E+03  0.25415950776E+03  0.40217921612E+03  0.00000000000E+00 0. -1.
         -2    1    6    6    0  503  0.45598506176E+02  0.26328451844E+02  0.26964478535E+02  0.59156523264E+02  0.00000000000E+00 0.  1.
<mgrwt>
<rscale>  0 0.17420518E+04</rscale>
<asrwt>0</asrwt>
<pdfrwt beam="1">  1        2 0.18419629E+00 0.17420518E+04</pdfrwt>
<pdfrwt beam="2">  1       -1 0.97488760E-01 0.17420518E+04</pdfrwt>
<totfact> 0.20768781E+01</totfact>
</mgrwt>
</event>
<event>
12    6  0.1538774E-007  0.1704251E+04  0.7818608E-02  0.8758943E-01
         -1   -1    0    0    0  501 -0.00000000000E+00  0.00000000000E+00  0.44283687390E+03  0.44283687390E+03  0.00000000000E+00 0.  1.
          2   -1    0    0  501    0  0.00000000000E+00 -0.00000000000E+00 -0.16396964828E+04  0.16396964828E+04  0.00000000000E+00 0. -1.
         24    2    1    2    0    0  0.26348806048E+03 -0.55215141960E+03 -0.44120883469E+03  0.75854758265E+03  0.80200069575E+02 0.  0.
        254    2    1    2    0    0 -0.26348806048E+03  0.55215141960E+03 -0.75565077418E+03  0.13239857740E+04  0.89868408748E+03 0.  0.
         23    2    4    4    0    0 -0.36634594461E+03  0.72258064045E+03 -0.40524640130E+03  0.91045595681E+03  0.91505576023E+02 0.  0.
         23    2    4    4    0    0  0.10285788413E+03 -0.17042922086E+03 -0.35040437288E+03  0.41352981720E+03  0.92724438684E+02 0.  0.
          4    1    3    3  502    0  0.23388998611E+03 -0.49127644658E+03 -0.35817172187E+03  0.65141695934E+03  0.00000000000E+00 0. -1.
         -1    1    3    3    0  502  0.29598074370E+02 -0.60874973020E+02 -0.83037112816E+02  0.10713062331E+03  0.00000000000E+00 0.  1.
         11    1    5    5    0    0  0.46092133583E+00  0.23314413297E+02 -0.24492592774E+02  0.33818063467E+02  0.00000000000E+00 0. -1.
        -11    1    5    5    0    0 -0.36680686594E+03  0.69926622716E+03 -0.38075380852E+03  0.87663789334E+03  0.00000000000E+00 0.  1.
          1    1    6    6  503    0 -0.15479005637E+02 -0.26546805286E+02 -0.74822090067E+02  0.80886819992E+02  0.00000000000E+00 0. -1.
         -1    1    6    6    0  503  0.11833688977E+03 -0.14388241557E+03 -0.27558228281E+03  0.33264299721E+03  0.00000000000E+00 0.  1.
<mgrwt>
<rscale>  0 0.17042512E+04</rscale>
<asrwt>0</asrwt>
<pdfrwt beam="1">  1        2 0.25226100E+00 0.17042512E+04</pdfrwt>
<pdfrwt beam="2">  1       -1 0.68128748E-01 0.17042512E+04</pdfrwt>
<totfact> 0.25044794E+01</totfact>
</mgrwt>
</event>
<event>
12    6  0.1538774E-007  0.1094365E+04  0.7818608E-02  0.9210701E-01
          2   -1    0    0  501    0  0.00000000000E+00  0.00000000000E+00  0.75583521330E+03  0.75583521330E+03  0.00000000000E+00 0. -1.
         -1   -1    0    0    0  501 -0.00000000000E+00 -0.00000000000E+00 -0.39612965234E+03  0.39612965234E+03  0.00000000000E+00 0.  1.
         24    2    1    2    0    0  0.10424902220E+03 -0.12400827473E+03  0.72531589030E+02  0.19469694495E+03  0.80000988336E+02 0.  0.
        254    2    1    2    0    0 -0.10424902220E+03  0.12400827473E+03  0.28717397193E+03  0.95726792069E+03  0.89869186655E+03 0.  0.
         23    2    4    4    0    0 -0.13370428082E+03  0.13995823001E+03 -0.29752162467E+03  0.36447649614E+03  0.82818224046E+02 0.  0.
         23    2    4    4    0    0  0.29455258618E+02 -0.15949955276E+02  0.58469559660E+03  0.59279142455E+03  0.91709972181E+02 0.  0.
          2    1    3    3  502    0  0.13389342047E+02 -0.36037628300E+02  0.54874773288E+02  0.67001685630E+02  0.00000000000E+00 0. -1.
         -1    1    3    3    0  502  0.90859680151E+02 -0.87970646432E+02  0.17656815742E+02  0.12769525932E+03  0.00000000000E+00 0.  1.
         11    1    5    5    0    0 -0.27330141606E+02 -0.77820640114E+01 -0.37142896901E+02  0.46766354900E+02  0.00000000000E+00 0. -1.
        -11    1    5    5    0    0 -0.10637413921E+03  0.14774029402E+03 -0.26037872777E+03  0.31771014124E+03  0.00000000000E+00 0.  1.
          3    1    6    6  503    0 -0.21771865680E+02  0.63677900124E+01  0.46867956017E+02  0.52068879247E+02  0.00000000000E+00 0. -1.
         -3    1    6    6    0  503  0.51227124298E+02 -0.22317745288E+02  0.53782764059E+03  0.54072254530E+03  0.00000000000E+00 0.  1.
<mgrwt>
<rscale>  0 0.10943651E+04</rscale>
<asrwt>0</asrwt>
<pdfrwt beam="1">  1        2 0.11628234E+00 0.10943651E+04</pdfrwt>
<pdfrwt beam="2">  1       -1 0.60943023E-01 0.10943651E+04</pdfrwt>
<totfact> 0.11496546E+02</totfact>
</mgrwt>
</event>
<event>
12    6  0.1538774E-007  0.1545028E+04  0.7818608E-02  0.8855050E-01
          2   -1    0    0  501    0  0.00000000000E+00  0.00000000000E+00  0.20419513374E+04  0.20419513374E+04  0.00000000000E+00 0. -1.
         -1   -1    0    0    0  501 -0.00000000000E+00 -0.00000000000E+00 -0.29225851104E+03  0.29225851104E+03  0.00000000000E+00 0.  1.
         24    2    1    2    0    0 -0.21944457766E+02 -0.15299827606E+03  0.10635643716E+04  0.10778427407E+04  0.81766554803E+02 0.  0.
        254    2    1    2    0    0  0.21944457766E+02  0.15299827606E+03  0.68612845478E+03  0.12563671077E+04  0.10410552441E+04 0.  0.
         23    2    4    4    0    0  0.43571414198E+03 -0.63645335581E+01  0.66695149374E+03  0.80334121120E+03  0.10317696351E+03 0.  0.
         23    2    4    4    0    0 -0.41376968422E+03  0.15936280961E+03  0.19176961034E+02  0.45302589655E+03  0.90900222457E+02 0.  0.
          2    1    3    3  502    0 -0.35560887248E+02 -0.12787796057E+03  0.99110260552E+03  0.99995086087E+03  0.00000000000E+00 0. -1.
         -1    1    3    3    0  502  0.13616429482E+02 -0.25120315491E+02  0.72461766088E+02  0.77891879851E+02  0.00000000000E+00 0.  1.
         11    1    5    5    0    0  0.41887933810E+03 -0.18581752139E+02  0.65898421174E+03  0.78106681706E+03  0.00000000000E+00 0. -1.
        -11    1    5    5    0    0  0.16834803884E+02  0.12217218581E+02  0.79672820053E+01  0.22274394138E+02  0.00000000000E+00 0.  1.
          2    1    6    6  503    0 -0.12297393444E+03  0.53193425536E+02 -0.35627329499E+02  0.13864139237E+03  0.00000000000E+00 0. -1.
         -2    1    6    6    0  503 -0.29079574978E+03  0.10616938408E+03  0.54804290533E+02  0.31438450417E+03  0.00000000000E+00 0.  1.
<mgrwt>
<rscale>  0 0.15450277E+04</rscale>
<asrwt>0</asrwt>
<pdfrwt beam="1">  1        2 0.31414635E+00 0.15450277E+04</pdfrwt>
<pdfrwt beam="2">  1       -1 0.44962849E-01 0.15450277E+04</pdfrwt>
<totfact> 0.34074909E+01</totfact>
</mgrwt>
</event>
<event>
12    6  0.1538774E-007  0.1454214E+04  0.7818608E-02  0.8915484E-01
          2   -1    0    0  501    0  0.00000000000E+00  0.00000000000E+00  0.42660200236E+04  0.42660200236E+04  0.00000000000E+00 0. -1.
         -1   -1    0    0    0  501 -0.00000000000E+00 -0.00000000000E+00 -0.12392930545E+03  0.12392930545E+03  0.00000000000E+00 0.  1.
         24    2    1    2    0    0 -0.30730137881E+03 -0.31454896978E+03  0.12933190592E+04  0.13683691213E+04  0.79904140096E+02 0.  0.
        254    2    1    2    0    0  0.30730137881E+03  0.31454896978E+03  0.28487716589E+04  0.30215802077E+04  0.90613012022E+03 0.  0.
         23    2    4    4    0    0  0.14211594207E+03  0.33599638048E+03  0.34379736068E+03  0.50974160809E+03  0.92462820211E+02 0.  0.
         23    2    4    4    0    0  0.16518543674E+03 -0.21447410701E+02  0.25049742983E+04  0.25118385996E+04  0.81796671328E+02 0.  0.
          2    1    3    3  502    0 -0.54791219501E+02 -0.39862699954E+02  0.12877726026E+03  0.14551527529E+03  0.00000000000E+00 0. -1.
         -1    1    3    3    0  502 -0.25251015931E+03 -0.27468626983E+03  0.11645417989E+04  0.12228538461E+04  0.00000000000E+00 0.  1.
         11    1    5    5    0    0  0.41681332215E+01  0.82558591158E+02  0.44009464460E+02  0.93648957659E+02  0.00000000000E+00 0. -1.
        -11    1    5    5    0    0  0.13794780885E+03  0.25343778932E+03  0.29978789622E+03  0.41609265043E+03  0.00000000000E+00 0.  1.
          2    1    6    6  503    0  0.21244867354E+02  0.57191460811E+01  0.88011859304E+03  0.88039354316E+03  0.00000000000E+00 0.  1.
         -2    1    6    6    0  503  0.14394056939E+03 -0.27166556782E+02  0.16248557052E+04  0.16314450564E+04  0.00000000000E+00 0. -1.
<mgrwt>
<rscale>  0 0.14542144E+04</rscale>
<asrwt>0</asrwt>
<pdfrwt beam="1">  1        2 0.65631066E+00 0.14542144E+04</pdfrwt>
<pdfrwt beam="2">  1       -1 0.19066050E-01 0.14542144E+04</pdfrwt>
<totfact> 0.51392020E+00</totfact>
</mgrwt>
</event>
<event>
12    6  0.1538774E-007  0.1599995E+04  0.7818608E-02  0.8820551E-01
          2   -1    0    0  501    0  0.00000000000E+00  0.00000000000E+00  0.11450020176E+04  0.11450020176E+04  0.00000000000E+00 0. -1.
         -1   -1    0    0    0  501 -0.00000000000E+00 -0.00000000000E+00 -0.55894746500E+03  0.55894746500E+03  0.00000000000E+00 0.  1.
         24    2    1    2    0    0  0.41555227424E+03  0.33966326594E+03  0.10343813276E+03  0.55245156497E+03  0.80302288121E+02 0.  0.
        254    2    1    2    0    0 -0.41555227424E+03 -0.33966326594E+03  0.48261641985E+03  0.11514979176E+04  0.89720344336E+03 0.  0.
         23    2    4    4    0    0 -0.24993155954E+03  0.20780083014E+03  0.46076402070E+03  0.57169686043E+03  0.94270080016E+02 0.  0.
         23    2    4    4    0    0 -0.16562071469E+03 -0.54746409608E+03  0.21852399144E+02  0.57980105721E+03  0.92436902632E+02 0.  0.
          4    1    3    3  502    0  0.12046517228E+03  0.14772680342E+03  0.39806720865E+02  0.19472966186E+03  0.00000000000E+00 0. -1.
         -3    1    3    3    0  502  0.29508710196E+03  0.19193646251E+03  0.63631411898E+02  0.35772190311E+03  0.00000000000E+00 0.  1.
         11    1    5    5    0    0 -0.20962349259E+03  0.16815292989E+03  0.30773058110E+03  0.40855296722E+03  0.00000000000E+00 0. -1.
        -11    1    5    5    0    0 -0.40308066949E+02  0.39647900252E+02  0.15303343960E+03  0.16314389321E+03  0.00000000000E+00 0.  1.
          4    1    6    6  503    0 -0.15456007316E+03 -0.42950707389E+03  0.46359537182E+02  0.45881842751E+03  0.00000000000E+00 0. -1.
         -4    1    6    6    0  503 -0.11060641528E+02 -0.11795702219E+03 -0.24507138037E+02  0.12098262970E+03  0.00000000000E+00 0.  1.
<mgrwt>
<rscale>  0 0.15999950E+04</rscale>
<asrwt>0</asrwt>
<pdfrwt beam="1">  1        2 0.17615416E+00 0.15999950E+04</pdfrwt>
<pdfrwt beam="2">  1       -1 0.85991918E-01 0.15999950E+04</pdfrwt>
<totfact> 0.29852678E+01</totfact>
</mgrwt>
</event>
<event>
12    6  0.1538774E-007  0.2518296E+04  0.7818608E-02  0.8396497E-01
         -1   -1    0    0    0  501 -0.00000000000E+00  0.00000000000E+00  0.86691346568E+03  0.86691346568E+03  0.00000000000E+00 0.  1.
          2   -1    0    0  501    0  0.00000000000E+00 -0.00000000000E+00 -0.18288481883E+04  0.18288481883E+04  0.00000000000E+00 0. -1.
         24    2    1    2    0    0 -0.45064762940E+02 -0.37247277928E+03  0.68163227625E+03  0.78213619706E+03  0.79672244598E+02 0.  0.
        254    2    1    2    0    0  0.45064762940E+02  0.37247277928E+03 -0.16435669989E+04  0.19136254569E+04  0.90547396726E+03 0.  0.
         23    2    4    4    0    0 -0.11288425757E+03 -0.13422835248E+03 -0.11967260488E+04  0.12131234088E+04  0.93568493090E+02 0.  0.
         23    2    4    4    0    0  0.15794902051E+03  0.50670113177E+03 -0.44684095008E+03  0.70050204811E+03  0.96655857181E+02 0.  0.
          2    1    3    3  502    0  0.22082731204E+02 -0.60489933312E+02  0.11833841885E+03  0.13472438690E+03  0.00000000000E+00 0. -1.
         -1    1    3    3    0  502 -0.67147494145E+02 -0.31198284597E+03  0.56329385740E+03  0.64741181016E+03  0.00000000000E+00 0.  1.
         11    1    5    5    0    0 -0.74742083875E+02 -0.44637335386E+02 -0.79556629310E+03  0.80031531132E+03  0.00000000000E+00 0.  1.
        -11    1    5    5    0    0 -0.38142173694E+02 -0.89591017098E+02 -0.40115975570E+03  0.41280809749E+03  0.00000000000E+00 0. -1.
          2    1    6    6  503    0 -0.12682350897E+01  0.11201579893E+03 -0.70329506963E+02  0.13227012959E+03  0.00000000000E+00 0. -1.
         -2    1    6    6    0  503  0.15921725560E+03  0.39468533283E+03 -0.37651144311E+03  0.56823191852E+03  0.00000000000E+00 0.  1.
<mgrwt>
<rscale>  0 0.25182956E+04</rscale>
<asrwt>0</asrwt>
<pdfrwt beam="1">  1        2 0.28136126E+00 0.25182956E+04</pdfrwt>
<pdfrwt beam="2">  1       -1 0.13337130E+00 0.25182956E+04</pdfrwt>
<totfact> 0.40056358E+00</totfact>
</mgrwt>
</event>
<event>
12    6  0.1538774E-007  0.1469416E+04  0.7818608E-02  0.8905050E-01
         -1   -1    0    0    0  501 -0.00000000000E+00  0.00000000000E+00  0.32362104275E+03  0.32362104275E+03  0.00000000000E+00 0.  1.
          2   -1    0    0  501    0  0.00000000000E+00 -0.00000000000E+00 -0.16679863956E+04  0.16679863956E+04  0.00000000000E+00 0. -1.
         24    2    1    2    0    0  0.33014796982E+03 -0.27413226954E+03 -0.20071497464E+03  0.47737153170E+03  0.58744319329E+02 0.  0.
        254    2    1    2    0    0 -0.33014796982E+03  0.27413226954E+03 -0.11436503782E+04  0.15142359066E+04  0.89488994307E+03 0.  0.
         23    2    4    4    0    0 -0.35037362400E+03 -0.18095775476E+03 -0.90684922116E+03  0.99281607702E+03  0.88322519552E+02 0.  0.
         23    2    4    4    0    0  0.20225654179E+02  0.45509002430E+03 -0.23680115702E+03  0.52141982961E+03  0.91037593507E+02 0.  0.
          2    1    3    3  502    0  0.21380758248E+01 -0.14875513085E+02 -0.70078907149E+01  0.16582001991E+02  0.00000000000E+00 0. -1.
         -1    1    3    3    0  502  0.32800989400E+03 -0.25925675645E+03 -0.19370708392E+03  0.46078952971E+03  0.00000000000E+00 0.  1.
         11    1    5    5    0    0 -0.32763791581E+03 -0.19083561122E+03 -0.85763662979E+03  0.93771286818E+03  0.00000000000E+00 0.  1.
        -11    1    5    5    0    0 -0.22735708194E+02  0.98778564573E+01 -0.49212591373E+02  0.55103208844E+02  0.00000000000E+00 0. -1.
          1    1    6    6  503    0  0.55500874741E+02  0.22744517091E+03 -0.12376334911E+03  0.26481884270E+03  0.00000000000E+00 0. -1.
         -1    1    6    6    0  503 -0.35275220562E+02  0.22764485340E+03 -0.11303780791E+03  0.25660098691E+03  0.00000000000E+00 0.  1.
<mgrwt>
<rscale>  0 0.14694155E+04</rscale>
<asrwt>0</asrwt>
<pdfrwt beam="1">  1        2 0.25661329E+00 0.14694155E+04</pdfrwt>
<pdfrwt beam="2">  1       -1 0.49787853E-01 0.14694155E+04</pdfrwt>
<totfact> 0.45615185E+01</totfact>
</mgrwt>
</event>
<event>
12    6  0.1538774E-007  0.1636704E+04  0.7818608E-02  0.8798311E-01
          2   -1    0    0  501    0  0.00000000000E+00  0.00000000000E+00  0.39358842390E+04  0.39358842390E+04  0.00000000000E+00 0. -1.
         -1   -1    0    0    0  501 -0.00000000000E+00 -0.00000000000E+00 -0.17015244386E+03  0.17015244386E+03  0.00000000000E+00 0.  1.
         24    2    1    2    0    0  0.11105055741E+03  0.55092886629E+03  0.15226642711E+04  0.16249999204E+04  0.79141750978E+02 0.  0.
        254    2    1    2    0    0 -0.11105055741E+03 -0.55092886629E+03  0.22430675241E+04  0.24810367625E+04  0.89907544583E+03 0.  0.
         23    2    4    4    0    0  0.51597194794E+02 -0.76096631507E+03  0.14653122654E+04  0.16544259999E+04  0.90847954385E+02 0.  0.
         23    2    4    4    0    0 -0.16264775221E+03  0.21003744878E+03  0.77775525864E+03  0.82661076257E+03  0.88386024175E+02 0.  0.
          4    1    3    3  502    0  0.38359436401E+02  0.21645068193E+03  0.48899947851E+03  0.53613695457E+03  0.00000000000E+00 0. -1.
         -3    1    3    3    0  502  0.72691121009E+02  0.33447818436E+03  0.10336647926E+04  0.10888629658E+04  0.00000000000E+00 0.  1.
         11    1    5    5    0    0 -0.80678689512E+01 -0.50555037818E+03  0.94687295516E+03  0.10734126274E+04  0.00000000000E+00 0.  1.
        -11    1    5    5    0    0  0.59665063746E+02 -0.25541593689E+03  0.51843931025E+03  0.58101337254E+03  0.00000000000E+00 0. -1.
          1    1    6    6  503    0 -0.11954106287E+03  0.11498730129E+03  0.36594481075E+03  0.40178072338E+03  0.00000000000E+00 0. -1.
         -1    1    6    6    0  503 -0.43106689337E+02  0.95050147494E+02  0.41181044789E+03  0.42483003918E+03  0.00000000000E+00 0.  1.
<mgrwt>
<rscale>  0 0.16367044E+04</rscale>
<asrwt>0</asrwt>
<pdfrwt beam="1">  1        2 0.60552058E+00 0.16367044E+04</pdfrwt>
<pdfrwt beam="2">  1       -1 0.26177302E-01 0.16367044E+04</pdfrwt>
<totfact> 0.55239092E+00</totfact>
</mgrwt>
</event>
<event>
12    6  0.1538774E-007  0.1154083E+04  0.7818608E-02  0.9154025E-01
         -1   -1    0    0    0  501 -0.00000000000E+00  0.00000000000E+00  0.30879467415E+03  0.30879467415E+03  0.00000000000E+00 0.  1.
          2   -1    0    0  501    0  0.00000000000E+00 -0.00000000000E+00 -0.10783125690E+04  0.10783125690E+04  0.00000000000E+00 0. -1.
         24    2    1    2    0    0  0.18550457074E+03  0.81131732239E+02 -0.22026101776E+03  0.30977814895E+03  0.80332321502E+02 0.  0.
        254    2    1    2    0    0 -0.18550457074E+03 -0.81131732239E+02 -0.54925687708E+03  0.10773290942E+04  0.90441171843E+03 0.  0.
         23    2    4    4    0    0 -0.12215391831E+03  0.21970415264E+03 -0.68096865203E+03  0.73106650642E+03  0.86881743270E+02 0.  0.
         23    2    4    4    0    0 -0.63350652432E+02 -0.30083588488E+03  0.13171177496E+03  0.34626258777E+03  0.89633995958E+02 0.  0.
          2    1    3    3  502    0  0.30442053733E+02  0.51655450577E+02 -0.58468503978E+02  0.83747060648E+02  0.00000000000E+00 0. -1.
         -1    1    3    3    0  502  0.15506251701E+03  0.29476281663E+02 -0.16179251379E+03  0.22603108830E+03  0.00000000000E+00 0.  1.
         11    1    5    5    0    0 -0.40814979031E+02  0.14352434354E+03 -0.31591653695E+03  0.34938282445E+03  0.00000000000E+00 0.  1.
        -11    1    5    5    0    0 -0.81338939274E+02  0.76179809103E+02 -0.36505211508E+03  0.38168368197E+03  0.00000000000E+00 0. -1.
          3    1    6    6  503    0 -0.23784467512E+02 -0.26018404852E+03  0.12334447711E+03  0.28892092349E+03  0.00000000000E+00 0. -1.
         -3    1    6    6    0  503 -0.39566184921E+02 -0.40651836362E+02  0.83672978452E+01  0.57341664276E+02  0.00000000000E+00 0.  1.
<mgrwt>
<rscale>  0 0.11540835E+04</rscale>
<asrwt>0</asrwt>
<pdfrwt beam="1">  1        2 0.16589424E+00 0.11540835E+04</pdfrwt>
<pdfrwt beam="2">  1       -1 0.47506873E-01 0.11540835E+04</pdfrwt>
<totfact> 0.11211502E+02</totfact>
</mgrwt>
</event>
<event>
12    6  0.1538774E-007  0.1205057E+04  0.7818608E-02  0.9108441E-01
          2   -1    0    0  501    0  0.00000000000E+00  0.00000000000E+00  0.14060977058E+04  0.14060977058E+04  0.00000000000E+00 0. -1.
         -1   -1    0    0    0  501 -0.00000000000E+00 -0.00000000000E+00 -0.25819037169E+03  0.25819037169E+03  0.00000000000E+00 0.  1.
         24    2    1    2    0    0 -0.20699188331E+03  0.51642289117E+02  0.53187567701E+02  0.23411411585E+03  0.80423479768E+02 0.  0.
        254    2    1    2    0    0  0.20699188331E+03 -0.51642289117E+02  0.10947197664E+04  0.14301739616E+04  0.89525059495E+03 0.  0.
         23    2    4    4    0    0  0.13402267185E+03  0.21888618018E+03 -0.24355540742E+02  0.27302477938E+03  0.89867131618E+02 0.  0.
         23    2    4    4    0    0  0.72969211462E+02 -0.27052846930E+03  0.11190753071E+04  0.11571491822E+04  0.90302427400E+02 0.  0.
          4    1    3    3  502    0 -0.52401848897E+01  0.21037429944E+02  0.15379753564E+02  0.26581381003E+02  0.00000000000E+00 0. -1.
         -3    1    3    3    0  502 -0.20175169842E+03  0.30604859172E+02  0.37807814137E+02  0.20753273484E+03  0.00000000000E+00 0.  1.
         11    1    5    5    0    0  0.10342152534E+03  0.12580130702E+03  0.22517023424E+02  0.16440497893E+03  0.00000000000E+00 0. -1.
        -11    1    5    5    0    0  0.30601146515E+02  0.93084873156E+02 -0.46872564167E+02  0.10861980045E+03  0.00000000000E+00 0.  1.
          2    1    6    6  503    0  0.42718282749E+02 -0.25809997263E+03  0.10026026192E+04  0.10361720222E+04  0.00000000000E+00 0. -1.
         -2    1    6    6    0  503  0.30250928712E+02 -0.12428496665E+02  0.11647268795E+03  0.12097716006E+03  0.00000000000E+00 0.  1.
<mgrwt>
<rscale>  0 0.12050575E+04</rscale>
<asrwt>0</asrwt>
<pdfrwt beam="1">  1        2 0.21632272E+00 0.12050575E+04</pdfrwt>
<pdfrwt beam="2">  1       -1 0.39721597E-01 0.12050575E+04</pdfrwt>
<totfact> 0.99495935E+01</totfact>
</mgrwt>
</event>
<event>
12    6  0.1538774E-007  0.2356254E+04  0.7818608E-02  0.8456065E-01
          2   -1    0    0  501    0  0.00000000000E+00  0.00000000000E+00  0.67892967908E+03  0.67892967908E+03  0.00000000000E+00 0. -1.
         -1   -1    0    0    0  501 -0.00000000000E+00 -0.00000000000E+00 -0.20443701917E+04  0.20443701917E+04  0.00000000000E+00 0.  1.
         24    2    1    2    0    0  0.87082795176E+02  0.82840724425E+03  0.71589127454E+02  0.83984918676E+03  0.79872885190E+02 0.  0.
        254    2    1    2    0    0 -0.87082795176E+02 -0.82840724425E+03 -0.14370296401E+04  0.18834506840E+04  0.88796977264E+03 0.  0.
         23    2    4    4    0    0 -0.37076648106E+03 -0.83708516029E+03 -0.10556356724E+04  0.13999649121E+04  0.85765571717E+02 0.  0.
         23    2    4    4    0    0  0.28368368588E+03  0.86779160307E+01 -0.38139396768E+03  0.48348577190E+03  0.88007915464E+02 0.  0.
          4    1    3    3  502    0  0.53164297553E+02  0.46411495884E+03  0.56034733007E+00  0.46715035218E+03  0.00000000000E+00 0. -1.
         -3    1    3    3    0  502  0.33918497623E+02  0.36429228542E+03  0.71028780124E+02  0.37269883459E+03  0.00000000000E+00 0.  1.
         11    1    5    5    0    0 -0.98350900402E+02 -0.17384843244E+03 -0.27682565202E+03  0.34136288417E+03  0.00000000000E+00 0.  1.
        -11    1    5    5    0    0 -0.27241558065E+03 -0.66323672785E+03 -0.77881002035E+03  0.10586020279E+04  0.00000000000E+00 0. -1.
          2    1    6    6  503    0  0.21408771740E+03  0.39689980501E+02 -0.31175457218E+03  0.38026274938E+03  0.00000000000E+00 0. -1.
         -2    1    6    6    0  503  0.69595968482E+02 -0.31012064470E+02 -0.69639395498E+02  0.10322302251E+03  0.00000000000E+00 0.  1.
<mgrwt>
<rscale>  0 0.23562543E+04</rscale>
<asrwt>0</asrwt>
<pdfrwt beam="1">  1        2 0.10445072E+00 0.23562543E+04</pdfrwt>
<pdfrwt beam="2">  1       -1 0.31451848E+00 0.23562543E+04</pdfrwt>
<totfact> 0.11657223E+00</totfact>
</mgrwt>
</event>
<event>
12    6  0.1538774E-007  0.1264552E+04  0.7818608E-02  0.9058158E-01
          2   -1    0    0  501    0  0.00000000000E+00  0.00000000000E+00  0.94053330724E+03  0.94053330724E+03  0.00000000000E+00 0. -1.
         -1   -1    0    0    0  501 -0.00000000000E+00 -0.00000000000E+00 -0.42504911286E+03  0.42504911286E+03  0.00000000000E+00 0.  1.
         24    2    1    2    0    0 -0.58955216272E+01  0.26401322328E+03  0.28925183915E+03  0.39991095557E+03  0.80773799505E+02 0.  0.
        254    2    1    2    0    0  0.58955216272E+01 -0.26401322328E+03  0.22623235522E+03  0.96567146453E+03  0.90088987097E+03 0.  0.
         23    2    4    4    0    0 -0.18765597472E+02  0.32686496042E+03  0.97751278115E+02  0.35430011339E+03  0.93703831162E+02 0.  0.
         23    2    4    4    0    0  0.24661119099E+02 -0.59087818371E+03  0.12848107710E+03  0.61137135114E+03  0.86731442081E+02 0.  0.
          4    1    3    3  502    0  0.14187532220E+02  0.24871411237E+03  0.24779787649E+03  0.35137413586E+03  0.00000000000E+00 0. -1.
         -3    1    3    3    0  502 -0.20083053847E+02  0.15299110918E+02  0.41453962662E+02  0.48536819705E+02  0.00000000000E+00 0.  1.
         11    1    5    5    0    0 -0.46642370895E+02  0.11634371063E+03  0.58582087234E+02  0.13835906443E+03  0.00000000000E+00 0. -1.
        -11    1    5    5    0    0  0.27876773423E+02  0.21052124979E+03  0.39169190881E+02  0.21594104896E+03  0.00000000000E+00 0.  1.
          1    1    6    6  503    0  0.41127824003E+02 -0.17780569180E+03  0.17527074581E+02  0.18334001279E+03  0.00000000000E+00 0. -1.
         -1    1    6    6    0  503 -0.16466704904E+02 -0.41307249190E+03  0.11095400252E+03  0.42803133835E+03  0.00000000000E+00 0.  1.
<mgrwt>
<rscale>  0 0.12645519E+04</rscale>
<asrwt>0</asrwt>
<pdfrwt beam="1">  1        2 0.14469743E+00 0.12645519E+04</pdfrwt>
<pdfrwt beam="2">  1       -1 0.65392172E-01 0.12645519E+04</pdfrwt>
<totfact> 0.73216133E+01</totfact>
</mgrwt>
</event>
<event>
12    6  0.1538774E-007  0.1958928E+04  0.7818608E-02  0.8626068E-01
          2   -1    0    0  501    0  0.00000000000E+00  0.00000000000E+00  0.13742639026E+04  0.13742639026E+04  0.00000000000E+00 0. -1.
         -1   -1    0    0    0  501 -0.00000000000E+00 -0.00000000000E+00 -0.69808226398E+03  0.69808226398E+03  0.00000000000E+00 0.  1.
         24    2    1    2    0    0  0.23441504703E+03  0.73019055083E+03  0.32759732906E+03  0.83814160332E+03  0.83861089954E+02 0.  0.
        254    2    1    2    0    0 -0.23441504703E+03 -0.73019055083E+03  0.34858430958E+03  0.12342045633E+04  0.90200955004E+03 0.  0.
         23    2    4    4    0    0  0.24108473299E+03 -0.63852623026E+03  0.15347820076E+03  0.70415910284E+03  0.80292520215E+02 0.  0.
         23    2    4    4    0    0 -0.47549978002E+03 -0.91664320575E+02  0.19510610882E+03  0.53004546044E+03  0.91539106270E+02 0.  0.
          2    1    3    3  502    0  0.27009894749E+01 -0.16191216917E+01  0.40323848423E+01  0.51163489631E+01  0.00000000000E+00 0. -1.
         -1    1    3    3    0  502  0.23171405755E+03  0.73180967252E+03  0.32356494421E+03  0.83302525435E+03  0.00000000000E+00 0.  1.
         11    1    5    5    0    0  0.23155394055E+03 -0.63131336279E+03  0.14135651936E+03  0.68713568892E+03  0.00000000000E+00 0.  1.
        -11    1    5    5    0    0  0.95307924423E+01 -0.72128674630E+01  0.12121681398E+02  0.17023413921E+02  0.00000000000E+00 0. -1.
          4    1    6    6  503    0 -0.24115164345E+03 -0.40309802234E+02  0.49656496151E+02  0.24948900357E+03  0.00000000000E+00 0. -1.
         -4    1    6    6    0  503 -0.23434813657E+03 -0.51354518341E+02  0.14544961267E+03  0.28055645687E+03  0.00000000000E+00 0.  1.
<mgrwt>
<rscale>  0 0.19589275E+04</rscale>
<asrwt>0</asrwt>
<pdfrwt beam="1">  1        2 0.21142521E+00 0.19589275E+04</pdfrwt>
<pdfrwt beam="2">  1       -1 0.10739727E+00 0.19589275E+04</pdfrwt>
<totfact> 0.12844774E+01</totfact>
</mgrwt>
</event>
<event>
12    6  0.1538774E-007  0.1264142E+04  0.7818608E-02  0.9058494E-01
          2   -1    0    0  501    0  0.00000000000E+00  0.00000000000E+00  0.13155395601E+04  0.13155395601E+04  0.00000000000E+00 0. -1.
         -1   -1    0    0    0  501 -0.00000000000E+00 -0.00000000000E+00 -0.30368815224E+03  0.30368815224E+03  0.00000000000E+00 0.  1.
         24    2    1    2    0    0 -0.48662959857E+02  0.62516276120E+01 -0.12165218305E+03  0.15815894821E+03  0.88361941742E+02 0.  0.
        254    2    1    2    0    0  0.48662959857E+02 -0.62516276120E+01  0.11335035909E+04  0.14610687641E+04  0.92058914637E+03 0.  0.
         23    2    4    4    0    0 -0.38809117973E+03  0.29008937545E+02  0.25077526322E+03  0.47140647288E+03  0.88766816937E+02 0.  0.
         23    2    4    4    0    0  0.43675413959E+03 -0.35260565157E+02  0.88272832767E+03  0.98966229124E+03  0.90689935095E+02 0.  0.
          2    1    3    3  502    0 -0.48925094254E+01 -0.37448768105E+02 -0.33572430338E+02  0.50531722312E+02  0.00000000000E+00 0. -1.
         -1    1    3    3    0  502 -0.43770450432E+02  0.43700395717E+02 -0.88079752710E+02  0.10762722590E+03  0.00000000000E+00 0.  1.
         11    1    5    5    0    0 -0.45706769744E+02  0.24060010443E+02  0.60938853080E+02  0.79884521140E+02  0.00000000000E+00 0.  1.
        -11    1    5    5    0    0 -0.34238440999E+03  0.49489271026E+01  0.18983641014E+03  0.39152195174E+03  0.00000000000E+00 0. -1.
          2    1    6    6  503    0  0.31731782689E+03  0.82720392375E+01  0.57682570236E+03  0.65839723632E+03  0.00000000000E+00 0. -1.
         -2    1    6    6    0  503  0.11943631269E+03 -0.43532604395E+02  0.30590262532E+03  0.33126505492E+03  0.00000000000E+00 0.  1.
<mgrwt>
<rscale>  0 0.12641420E+04</rscale>
<asrwt>0</asrwt>
<pdfrwt beam="1">  1        2 0.20239070E+00 0.12641420E+04</pdfrwt>
<pdfrwt beam="2">  1       -1 0.46721255E-01 0.12641420E+04</pdfrwt>
<totfact> 0.82729754E+01</totfact>
</mgrwt>
</event>
<event>
12    6  0.1538774E-007  0.1918587E+04  0.7818608E-02  0.8645660E-01
         -1   -1    0    0    0  501 -0.00000000000E+00  0.00000000000E+00  0.35809547591E+03  0.35809547591E+03  0.00000000000E+00 0.  1.
          2   -1    0    0  501    0  0.00000000000E+00 -0.00000000000E+00 -0.25698275068E+04  0.25698275068E+04  0.00000000000E+00 0. -1.
         24    2    1    2    0    0  0.18298132970E+03  0.72500582635E+03 -0.99766241030E+03  0.12492926421E+04  0.79285594457E+02 0.  0.
        254    2    1    2    0    0 -0.18298132970E+03 -0.72500582635E+03 -0.12140696205E+04  0.16786303405E+04  0.88584375677E+03 0.  0.
         23    2    4    4    0    0 -0.23953000210E+03 -0.66613535741E+03 -0.33028485632E+03  0.78644204871E+03  0.91060822330E+02 0.  0.
         23    2    4    4    0    0  0.56548672404E+02 -0.58870468934E+02 -0.88378476421E+03  0.89218829183E+03  0.90889791268E+02 0.  0.
          4    1    3    3  502    0  0.11058415972E+03  0.51903922523E+03 -0.75530527147E+03  0.92310163407E+03  0.00000000000E+00 0. -1.
         -3    1    3    3    0  502  0.72397169971E+02  0.20596660112E+03 -0.24235713883E+03  0.32619100806E+03  0.00000000000E+00 0.  1.
         11    1    5    5    0    0 -0.23796350707E+03 -0.62063060347E+03 -0.28833569706E+03  0.72453188394E+03  0.00000000000E+00 0.  1.
        -11    1    5    5    0    0 -0.15664950336E+01 -0.45504753948E+02 -0.41949159265E+02  0.61910164768E+02  0.00000000000E+00 0. -1.
          1    1    6    6  503    0  0.55805638295E+02 -0.34651556419E+02 -0.83632700629E+03  0.83890277212E+03  0.00000000000E+00 0.  1.
         -1    1    6    6    0  503  0.74303410834E+00 -0.24218912515E+02 -0.47457757928E+02  0.53285519709E+02  0.00000000000E+00 0. -1.
<mgrwt>
<rscale>  0 0.19185866E+04</rscale>
<asrwt>0</asrwt>
<pdfrwt beam="1">  1        2 0.39535809E+00 0.19185866E+04</pdfrwt>
<pdfrwt beam="2">  1       -1 0.55091610E-01 0.19185866E+04</pdfrwt>
<totfact> 0.11249691E+01</totfact>
</mgrwt>
</event>
<event>
12    6  0.1538774E-007  0.2301063E+04  0.7818608E-02  0.8477502E-01
          2   -1    0    0  501    0  0.00000000000E+00  0.00000000000E+00  0.17238654287E+04  0.17238654287E+04  0.00000000000E+00 0. -1.
         -1   -1    0    0    0  501 -0.00000000000E+00 -0.00000000000E+00 -0.76788022062E+03  0.76788022062E+03  0.00000000000E+00 0.  1.
         24    2    1    2    0    0  0.87384969544E+03 -0.29365461574E+03  0.54684085239E+02  0.92685467432E+03  0.78885452244E+02 0.  0.
        254    2    1    2    0    0 -0.87384969544E+03  0.29365461574E+03  0.90130112286E+03  0.15648909750E+04  0.88695756720E+03 0.  0.
         23    2    4    4    0    0 -0.69668181964E+03  0.36079468652E+02  0.10027932980E+04  0.12247275121E+04  0.87725678242E+02 0.  0.
         23    2    4    4    0    0 -0.17716787580E+03  0.25757514709E+03 -0.10149217513E+03  0.34016346286E+03  0.87619103186E+02 0.  0.
          2    1    3    3  502    0  0.14095294411E+03 -0.38572769212E+02  0.36493247790E+02  0.15062319912E+03  0.00000000000E+00 0. -1.
         -1    1    3    3    0  502  0.73289675133E+03 -0.25508184653E+03  0.18190837449E+02  0.77623147521E+03  0.00000000000E+00 0.  1.
         11    1    5    5    0    0 -0.23024235130E+02 -0.13378930766E-01  0.68962070030E+02  0.72704076124E+02  0.00000000000E+00 0.  1.
        -11    1    5    5    0    0 -0.67365758451E+03  0.36092847583E+02  0.93383122796E+03  0.11520234360E+04  0.00000000000E+00 0. -1.
          3    1    6    6  503    0  0.76032831727E+01  0.31076057114E+02 -0.14971304688E+02  0.35322389568E+02  0.00000000000E+00 0. -1.
         -3    1    6    6    0  503 -0.18477115897E+03  0.22649908997E+03 -0.86520870443E+02  0.30484107330E+03  0.00000000000E+00 0.  1.
<mgrwt>
<rscale>  0 0.23010625E+04</rscale>
<asrwt>0</asrwt>
<pdfrwt beam="1">  1        2 0.26521006E+00 0.23010625E+04</pdfrwt>
<pdfrwt beam="2">  1       -1 0.11813542E+00 0.23010625E+04</pdfrwt>
<totfact> 0.63152568E+00</totfact>
</mgrwt>
</event>
<event>
12    6  0.1538774E-007  0.1373701E+04  0.7818608E-02  0.8973079E-01
         -1   -1    0    0    0  501 -0.00000000000E+00  0.00000000000E+00  0.50825712514E+03  0.50825712514E+03  0.00000000000E+00 0.  1.
          2   -1    0    0  501    0  0.00000000000E+00 -0.00000000000E+00 -0.92819805198E+03  0.92819805198E+03  0.00000000000E+00 0. -1.
         24    2    1    2    0    0  0.33297450000E+03  0.72761867933E+02 -0.32454742085E+03  0.47757229274E+03  0.81104619701E+02 0.  0.
        254    2    1    2    0    0 -0.33297450000E+03 -0.72761867933E+02 -0.95393505989E+02  0.95888288438E+03  0.89117347239E+03 0.  0.
         23    2    4    4    0    0 -0.17550456506E+03 -0.36586706035E+03  0.23801434000E+03  0.47917847147E+03  0.91107756364E+02 0.  0.
         23    2    4    4    0    0 -0.15746993494E+03  0.29310519242E+03 -0.33340784599E+03  0.47970441290E+03  0.90819038514E+02 0.  0.
          4    1    3    3  502    0  0.25880387773E+03  0.26596047269E+02 -0.26795818158E+03  0.37348143720E+03  0.00000000000E+00 0. -1.
         -3    1    3    3    0  502  0.74170622271E+02  0.46165820663E+02 -0.56589239270E+02  0.10409085554E+03  0.00000000000E+00 0.  1.
         11    1    5    5    0    0 -0.24177927979E+02 -0.13776238925E+03  0.57180760444E+02  0.15110488893E+03  0.00000000000E+00 0. -1.
        -11    1    5    5    0    0 -0.15132663708E+03 -0.22810467111E+03  0.18083357956E+03  0.32807358255E+03  0.00000000000E+00 0.  1.
          3    1    6    6  503    0 -0.11932323334E+02  0.23540438622E+02  0.71358906181E+00  0.26401549197E+02  0.00000000000E+00 0. -1.
         -3    1    6    6    0  503 -0.14553761160E+03  0.26956475380E+03 -0.33412143505E+03  0.45330286371E+03  0.00000000000E+00 0.  1.
<mgrwt>
<rscale>  0 0.13737005E+04</rscale>
<asrwt>0</asrwt>
<pdfrwt beam="1">  1        2 0.14279970E+00 0.13737005E+04</pdfrwt>
<pdfrwt beam="2">  1       -1 0.78193405E-01 0.13737005E+04</pdfrwt>
<totfact> 0.51162817E+01</totfact>
</mgrwt>
</event>
<event>
12    6  0.1538774E-007  0.1299371E+04  0.7818608E-02  0.9030064E-01
         -1   -1    0    0    0  501 -0.00000000000E+00  0.00000000000E+00  0.82504927387E+03  0.82504927387E+03  0.00000000000E+00 0.  1.
          2   -1    0    0  501    0  0.00000000000E+00 -0.00000000000E+00 -0.51159547229E+03  0.51159547229E+03  0.00000000000E+00 0. -1.
         24    2    1    2    0    0  0.31087697543E+03  0.88374022709E+02  0.27137505770E+02  0.33375045128E+03  0.78730284957E+02 0.  0.
        254    2    1    2    0    0 -0.31087697543E+03 -0.88374022709E+02  0.28631629582E+03  0.10028942949E+04  0.90518809300E+03 0.  0.
         23    2    4    4    0    0 -0.42132078699E+03 -0.47788673302E+02  0.54957811814E+03  0.70027659939E+03  0.92499972282E+02 0.  0.
         23    2    4    4    0    0  0.11044381156E+03 -0.40585349407E+02 -0.26326182232E+03  0.30261769549E+03  0.91791483437E+02 0.  0.
          2    1    3    3  502    0  0.19205497579E+03  0.92833141390E+02  0.93275813015E+01  0.21351840585E+03  0.00000000000E+00 0. -1.
         -1    1    3    3    0  502  0.11882199964E+03 -0.44591186812E+01  0.17809924468E+02  0.12023204543E+03  0.00000000000E+00 0.  1.
         11    1    5    5    0    0 -0.27283046312E+03 -0.75175160146E+02  0.35937314880E+03  0.45742412090E+03  0.00000000000E+00 0.  1.
        -11    1    5    5    0    0 -0.14849032387E+03  0.27386486844E+02  0.19020496934E+03  0.24285247849E+03  0.00000000000E+00 0. -1.
          2    1    6    6  503    0  0.23159362458E+02  0.16733522804E+02 -0.12894640541E+02  0.31347067001E+02  0.00000000000E+00 0. -1.
         -2    1    6    6    0  503  0.87284449105E+02 -0.57318872211E+02 -0.25036718178E+03  0.27127062848E+03  0.00000000000E+00 0.  1.
<mgrwt>
<rscale>  0 0.12993713E+04</rscale>
<asrwt>0</asrwt>
<pdfrwt beam="1">  1        2 0.78706996E-01 0.12993713E+04</pdfrwt>
<pdfrwt beam="2">  1       -1 0.12693066E+00 0.12993713E+04</pdfrwt>
<totfact> 0.36203633E+01</totfact>
</mgrwt>
</event>
<event>
12    6  0.1538774E-007  0.1879013E+04  0.7818608E-02  0.8665374E-01
          2   -1    0    0  501    0  0.00000000000E+00  0.00000000000E+00  0.14815208984E+04  0.14815208984E+04  0.00000000000E+00 0. -1.
         -1   -1    0    0    0  501 -0.00000000000E+00 -0.00000000000E+00 -0.59578831271E+03  0.59578831271E+03  0.00000000000E+00 0.  1.
         24    2    1    2    0    0 -0.62125060085E+03  0.30271096459E+03  0.86610427760E+02  0.70109324933E+03  0.80275406684E+02 0.  0.
        254    2    1    2    0    0  0.62125060085E+03 -0.30271096459E+03  0.79912215791E+03  0.13762159618E+04  0.88192284981E+03 0.  0.
         23    2    4    4    0    0  0.29351368806E+03  0.28904706257E+02 -0.12804168334E+03  0.33412452394E+03  0.90877707398E+02 0.  0.
         23    2    4    4    0    0  0.32773691279E+03 -0.33161567085E+03  0.92716384125E+03  0.10420914378E+04  0.94558654364E+02 0.  0.
          4    1    3    3  502    0 -0.37352588692E+03  0.18127051645E+03  0.91540799606E+02  0.42515915411E+03  0.00000000000E+00 0. -1.
         -3    1    3    3    0  502 -0.24772471393E+03  0.12144044814E+03 -0.49303718456E+01  0.27593409522E+03  0.00000000000E+00 0.  1.
         11    1    5    5    0    0  0.37790133924E+02  0.29460758330E+02  0.48286260960E+00  0.47919345359E+02  0.00000000000E+00 0.  1.
        -11    1    5    5    0    0  0.25572355414E+03 -0.55605207221E+00 -0.12852454595E+03  0.28620517858E+03  0.00000000000E+00 0. -1.
          3    1    6    6  503    0  0.31343107079E+03 -0.32438213798E+03  0.83982567562E+03  0.95329427409E+03  0.00000000000E+00 0. -1.
         -3    1    6    6    0  503  0.14305842004E+02 -0.72335328724E+01  0.87338165627E+02  0.88797163741E+02  0.00000000000E+00 0.  1.
<mgrwt>
<rscale>  0 0.18790134E+04</rscale>
<asrwt>0</asrwt>
<pdfrwt beam="1">  1        2 0.22792629E+00 0.18790134E+04</pdfrwt>
<pdfrwt beam="2">  1       -1 0.91659741E-01 0.18790134E+04</pdfrwt>
<totfact> 0.16124243E+01</totfact>
</mgrwt>
</event>
<event>
12    6  0.1538774E-007  0.2149135E+04  0.7818608E-02  0.8539903E-01
         -1   -1    0    0    0  501 -0.00000000000E+00  0.00000000000E+00  0.19686093165E+04  0.19686093165E+04  0.00000000000E+00 0.  1.
          2   -1    0    0  501    0  0.00000000000E+00 -0.00000000000E+00 -0.58655365182E+03  0.58655365182E+03  0.00000000000E+00 0. -1.
         24    2    1    2    0    0 -0.51079219545E+00 -0.61946321753E+02 -0.47804273649E+03  0.48832175773E+03  0.78074794106E+02 0.  0.
        254    2    1    2    0    0  0.51079219545E+00  0.61946321753E+02  0.18600984012E+04  0.20668412106E+04  0.89890428862E+03 0.  0.
         23    2    4    4    0    0 -0.35985539410E+03  0.25787719057E+03  0.12215630489E+04  0.13024380143E+04  0.90177317241E+02 0.  0.
         23    2    4    4    0    0  0.36036618630E+03 -0.19593086881E+03  0.63853535228E+03  0.76440319632E+03  0.91280648814E+02 0.  0.
          4    1    3    3  502    0  0.36071954707E+01 -0.63454071294E+02 -0.47950523984E+03  0.48369898289E+03  0.00000000000E+00 0. -1.
         -3    1    3    3    0  502 -0.41179876661E+01  0.15077495416E+01  0.14625033501E+01  0.46227748320E+01  0.00000000000E+00 0.  1.
         11    1    5    5    0    0 -0.78559391890E+02  0.10530682902E+03  0.33062356898E+03  0.35577106495E+03  0.00000000000E+00 0.  1.
        -11    1    5    5    0    0 -0.28129600221E+03  0.15257036154E+03  0.89093947990E+03  0.94666694932E+03  0.00000000000E+00 0. -1.
          1    1    6    6  503    0  0.35736890865E+03 -0.20326790197E+03  0.61676546109E+03  0.74123546248E+03  0.00000000000E+00 0. -1.
         -1    1    6    6    0  503  0.29972776500E+01  0.73370331583E+01  0.21769891187E+02  0.23167733837E+02  0.00000000000E+00 0.  1.
<mgrwt>
<rscale>  0 0.21491347E+04</rscale>
<asrwt>0</asrwt>
<pdfrwt beam="1">  1        2 0.90239024E-01 0.21491347E+04</pdfrwt>
<pdfrwt beam="2">  1       -1 0.30286297E+00 0.21491347E+04</pdfrwt>
<totfact> 0.16910538E+00</totfact>
</mgrwt>
</event>
<event>
12    6  0.1538774E-007  0.2063391E+04  0.7818608E-02  0.8577544E-01
         -1   -1    0    0    0  501 -0.00000000000E+00  0.00000000000E+00  0.23134578196E+03  0.23134578196E+03  0.00000000000E+00 0.  1.
          2   -1    0    0  501    0  0.00000000000E+00 -0.00000000000E+00 -0.46008851208E+04  0.46008851208E+04  0.00000000000E+00 0. -1.
         24    2    1    2    0    0 -0.80493116298E+03  0.42176078832E+02 -0.22889578911E+04  0.24280402722E+04  0.79739184694E+02 0.  0.
        254    2    1    2    0    0  0.80493116298E+03 -0.42176078832E+02 -0.20805814477E+04  0.24041906305E+04  0.89533257980E+03 0.  0.
         23    2    4    4    0    0  0.18767789636E+03 -0.73155461581E+02  0.98000545044E+01  0.22255051324E+03  0.94116818534E+02 0.  0.
         23    2    4    4    0    0  0.61725326661E+03  0.30979382749E+02 -0.20903815022E+04  0.21816401172E+04  0.88867649553E+02 0.  0.
          2    1    3    3  502    0 -0.70319478977E+03  0.11126700796E+02 -0.19645810283E+04  0.20866684769E+04  0.00000000000E+00 0. -1.
         -1    1    3    3    0  502 -0.10173637321E+03  0.31049378036E+02 -0.32437686277E+03  0.34137179528E+03  0.00000000000E+00 0.  1.
         11    1    5    5    0    0  0.55810126749E+02 -0.70562957724E+02 -0.31634760237E+01  0.90021713109E+02  0.00000000000E+00 0. -1.
        -11    1    5    5    0    0  0.13186776962E+03 -0.25925038562E+01  0.12963530528E+02  0.13252880013E+03  0.00000000000E+00 0.  1.
          1    1    6    6  503    0  0.61040997355E+01  0.10345949554E+02 -0.59251870030E+02  0.60457280850E+02  0.00000000000E+00 0. -1.
         -1    1    6    6    0  503  0.61114916688E+03  0.20633433195E+02 -0.20311296322E+04  0.21211828364E+04  0.00000000000E+00 0.  1.
<mgrwt>
<rscale>  0 0.20633908E+04</rscale>
<asrwt>0</asrwt>
<pdfrwt beam="1">  1        2 0.70782847E+00 0.20633908E+04</pdfrwt>
<pdfrwt beam="2">  1       -1 0.35591659E-01 0.20633908E+04</pdfrwt>
<totfact> 0.78515585E-01</totfact>
</mgrwt>
</event>
<event>
12    6  0.1538774E-007  0.1419655E+04  0.7818608E-02  0.8939713E-01
          2   -1    0    0  501    0  0.00000000000E+00  0.00000000000E+00  0.10332223213E+04  0.10332223213E+04  0.00000000000E+00 0. -1.
         -1   -1    0    0    0  501 -0.00000000000E+00 -0.00000000000E+00 -0.48765427451E+03  0.48765427451E+03  0.00000000000E+00 0.  1.
         24    2    1    2    0    0  0.57721750887E+02 -0.19639027293E+03  0.54327537094E+03  0.58638307450E+03  0.82438107476E+02 0.  0.
        254    2    1    2    0    0 -0.57721750887E+02  0.19639027293E+03  0.22926758420E+01  0.93449352129E+03  0.91179599974E+03 0.  0.
         23    2    4    4    0    0 -0.10660393134E+03  0.13421069904E+03 -0.43720089282E+03  0.47856978101E+03  0.92236135547E+02 0.  0.
         23    2    4    4    0    0  0.48882180458E+02  0.62179573891E+02  0.43949356866E+03  0.45592374028E+03  0.91957017541E+02 0.  0.
          4    1    3    3  502    0  0.28052453058E+02 -0.18209071871E+03  0.49278902385E+03  0.52610359435E+03  0.00000000000E+00 0. -1.
         -3    1    3    3    0  502  0.29669297829E+02 -0.14299554221E+02  0.50486347089E+02  0.60279480149E+02  0.00000000000E+00 0.  1.
         11    1    5    5    0    0 -0.28847658162E+02  0.64061887769E+02 -0.28694069733E+03  0.29541678461E+03  0.00000000000E+00 0.  1.
        -11    1    5    5    0    0 -0.77756273182E+02  0.70148811273E+02 -0.15026019549E+03  0.18315299640E+03  0.00000000000E+00 0. -1.
          1    1    6    6  503    0  0.17862830143E+02  0.49011207002E+02  0.84296016047E+02  0.99131213217E+02  0.00000000000E+00 0. -1.
         -1    1    6    6    0  503  0.31019350315E+02  0.13168366890E+02  0.35519755262E+03  0.35679252706E+03  0.00000000000E+00 0.  1.
<mgrwt>
<rscale>  0 0.14196553E+04</rscale>
<asrwt>0</asrwt>
<pdfrwt beam="1">  1        2 0.15895728E+00 0.14196553E+04</pdfrwt>
<pdfrwt beam="2">  1       -1 0.75023735E-01 0.14196553E+04</pdfrwt>
<totfact> 0.47528095E+01</totfact>
</mgrwt>
</event>
<event>
12    6  0.1538774E-007  0.3666763E+04  0.7818608E-02  0.8075368E-01
         -1   -1    0    0    0  501 -0.00000000000E+00  0.00000000000E+00  0.12221490685E+04  0.12221490685E+04  0.00000000000E+00 0.  1.
          2   -1    0    0  501    0  0.00000000000E+00 -0.00000000000E+00 -0.27503093031E+04  0.27503093031E+04  0.00000000000E+00 0. -1.
         24    2    1    2    0    0 -0.68101953271E+03  0.11902995159E+04 -0.18487120936E+04  0.23035625666E+04  0.89797281667E+02 0.  0.
        254    2    1    2    0    0  0.68101953271E+03 -0.11902995159E+04  0.32055185896E+03  0.16688958050E+04  0.89546589669E+03 0.  0.
         23    2    4    4    0    0 -0.14071016434E+03 -0.18586927216E+01  0.12143248550E+03  0.20744898126E+03  0.92121800913E+02 0.  0.
         23    2    4    4    0    0  0.82172969705E+03 -0.11884408232E+04  0.19911937346E+03  0.14614468237E+04  0.92450032318E+02 0.  0.
          4    1    3    3  502    0 -0.50553206359E+03  0.95538305848E+03 -0.14690226822E+04  0.18238275951E+04  0.00000000000E+00 0. -1.
         -3    1    3    3    0  502 -0.17548746912E+03  0.23491645741E+03 -0.37968941141E+03  0.47973497154E+03  0.00000000000E+00 0.  1.
         11    1    5    5    0    0 -0.37109651579E+02 -0.58397980792E+01 -0.11109413806E+02  0.39174590707E+02  0.00000000000E+00 0.  1.
        -11    1    5    5    0    0 -0.10360051276E+03  0.39811053575E+01  0.13254189930E+03  0.16827439055E+03  0.00000000000E+00 0. -1.
          3    1    6    6  503    0  0.65432669393E+03 -0.88882201519E+03  0.12980356948E+03  0.11113041725E+04  0.00000000000E+00 0. -1.
         -3    1    6    6    0  503  0.16740300312E+03 -0.29961880798E+03  0.69315803982E+02  0.35014265126E+03  0.00000000000E+00 0.  1.
<mgrwt>
<rscale>  0 0.36667631E+04</rscale>
<asrwt>0</asrwt>
<pdfrwt beam="1">  1        2 0.42312451E+00 0.36667631E+04</pdfrwt>
<pdfrwt beam="2">  1       -1 0.18802293E+00 0.36667631E+04</pdfrwt>
<totfact> 0.41613416E-01</totfact>
</mgrwt>
</event>
<event>
12    6  0.1538774E-007  0.2316476E+04  0.7818608E-02  0.8471453E-01
          2   -1    0    0  501    0  0.00000000000E+00  0.00000000000E+00  0.16673919021E+04  0.16673919021E+04  0.00000000000E+00 0. -1.
         -1   -1    0    0    0  501 -0.00000000000E+00 -0.00000000000E+00 -0.80455924118E+03  0.80455924118E+03  0.00000000000E+00 0.  1.
         24    2    1    2    0    0 -0.26026917017E+03  0.70119399651E+03  0.10385672541E+04  0.12825352180E+04  0.82834669921E+02 0.  0.
        254    2    1    2    0    0  0.26026917017E+03 -0.70119399651E+03 -0.17573459314E+03  0.11894159253E+04  0.90797276083E+03 0.  0.
         23    2    4    4    0    0  0.53587004564E+03 -0.19040151407E+03 -0.17348938001E+03  0.60176919912E+03  0.92834054405E+02 0.  0.
         23    2    4    4    0    0 -0.27560087548E+03 -0.51079248244E+03 -0.22452131259E+01  0.58764672616E+03  0.91971903883E+02 0.  0.
          2    1    3    3  502    0 -0.20503822579E+03  0.50609987895E+03  0.69854168014E+03  0.88664437088E+03  0.00000000000E+00 0. -1.
         -1    1    3    3    0  502 -0.55230944376E+02  0.19509411756E+03  0.34002557394E+03  0.39589084715E+03  0.00000000000E+00 0.  1.
         11    1    5    5    0    0  0.40447795268E+03 -0.10014915579E+03 -0.11990336820E+03  0.43360014451E+03  0.00000000000E+00 0. -1.
        -11    1    5    5    0    0  0.13139209296E+03 -0.90252358283E+02 -0.53586011813E+02  0.16816905462E+03  0.00000000000E+00 0.  1.
          1    1    6    6  503    0 -0.28019459894E+03 -0.49687854255E+03 -0.11066979672E+02  0.57054340533E+03  0.00000000000E+00 0. -1.
         -1    1    6    6    0  503  0.45937234646E+01 -0.13913939887E+02  0.88217665463E+01  0.17103320831E+02  0.00000000000E+00 0.  1.
<mgrwt>
<rscale>  0 0.23164763E+04</rscale>
<asrwt>0</asrwt>
<pdfrwt beam="1">  1        2 0.25652183E+00 0.23164763E+04</pdfrwt>
<pdfrwt beam="2">  1       -1 0.12377835E+00 0.23164763E+04</pdfrwt>
<totfact> 0.60460757E+00</totfact>
</mgrwt>
</event>
<event>
12    6  0.1538774E-007  0.1604354E+04  0.7818608E-02  0.8817878E-01
         -1   -1    0    0    0  501 -0.00000000000E+00  0.00000000000E+00  0.25818319799E+03  0.25818319799E+03  0.00000000000E+00 0.  1.
          2   -1    0    0  501    0  0.00000000000E+00 -0.00000000000E+00 -0.24923692969E+04  0.24923692969E+04  0.00000000000E+00 0. -1.
         24    2    1    2    0    0 -0.41766203893E+03  0.97615434386E+02 -0.13288489160E+04  0.13986755980E+04  0.80521022764E+02 0.  0.
        254    2    1    2    0    0  0.41766203893E+03 -0.97615434386E+02 -0.90533718288E+03  0.13518768968E+04  0.90772538674E+03 0.  0.
         23    2    4    4    0    0  0.82388968914E+02 -0.22392402709E+03 -0.94838765393E+03  0.98181128735E+03  0.87088172123E+02 0.  0.
         23    2    4    4    0    0  0.33527307002E+03  0.12630859270E+03  0.43050471053E+02  0.37006560950E+03  0.82056810853E+02 0.  0.
          4    1    3    3  502    0 -0.30417505327E+03  0.85286392013E+02 -0.10725183856E+04  0.11180750955E+04  0.00000000000E+00 0. -1.
         -3    1    3    3    0  502 -0.11348698566E+03  0.12329042373E+02 -0.25633053043E+03  0.28060050255E+03  0.00000000000E+00 0.  1.
         11    1    5    5    0    0  0.75931595545E+02 -0.17570655620E+03 -0.85874552024E+03  0.87981945285E+03  0.00000000000E+00 0.  1.
        -11    1    5    5    0    0  0.64573733698E+01 -0.48217470889E+02 -0.89642133697E+02  0.10199183449E+03  0.00000000000E+00 0. -1.
          3    1    6    6  503    0  0.33831557538E+03  0.12866583910E+03  0.38337717699E+02  0.36398091611E+03  0.00000000000E+00 0. -1.
         -3    1    6    6    0  503 -0.30425053595E+01 -0.23572464012E+01  0.47127533540E+01  0.60846933887E+01  0.00000000000E+00 0.  1.
<mgrwt>
<rscale>  0 0.16043539E+04</rscale>
<asrwt>0</asrwt>
<pdfrwt beam="1">  1        2 0.38344142E+00 0.16043539E+04</pdfrwt>
<pdfrwt beam="2">  1       -1 0.39720493E-01 0.16043539E+04</pdfrwt>
<totfact> 0.23735669E+01</totfact>
</mgrwt>
</event>
<event>
12    6  0.1538774E-007  0.2038552E+04  0.7818608E-02  0.8588805E-01
         -1   -1    0    0    0  501 -0.00000000000E+00  0.00000000000E+00  0.21499506970E+04  0.21499506970E+04  0.00000000000E+00 0.  1.
          2   -1    0    0  501    0  0.00000000000E+00 -0.00000000000E+00 -0.48323134687E+03  0.48323134687E+03  0.00000000000E+00 0. -1.
         24    2    1    2    0    0  0.24503957645E+03  0.34934146773E+03  0.15762555765E+04  0.16349278407E+04  0.79520730841E+02 0.  0.
        254    2    1    2    0    0 -0.24503957645E+03 -0.34934146773E+03  0.90463773613E+02  0.99825420319E+03  0.89791085567E+03 0.  0.
         23    2    4    4    0    0 -0.55370735126E+03 -0.12573136714E+03 -0.60761174057E+02  0.57839728595E+03  0.91930912064E+02 0.  0.
         23    2    4    4    0    0  0.30866777481E+03 -0.22361010059E+03  0.15122494767E+03  0.41985691724E+03  0.90186328606E+02 0.  0.
          2    1    3    3  502    0  0.22749156671E+02  0.70804682830E+02  0.35680061202E+03  0.36446879699E+03  0.00000000000E+00 0. -1.
         -1    1    3    3    0  502  0.22229041978E+03  0.27853678490E+03  0.12194549645E+04  0.12704590437E+04  0.00000000000E+00 0.  1.
         11    1    5    5    0    0 -0.19348499598E+03 -0.77152620057E+02 -0.52526281513E+02  0.21482081068E+03  0.00000000000E+00 0. -1.
        -11    1    5    5    0    0 -0.36022235528E+03 -0.48578747086E+02 -0.82348925440E+01  0.36357647527E+03  0.00000000000E+00 0.  1.
          3    1    6    6  503    0  0.10107649272E+03 -0.10891633882E+03  0.23358453070E+02  0.15041556959E+03  0.00000000000E+00 0. -1.
         -3    1    6    6    0  503  0.20759128208E+03 -0.11469376177E+03  0.12786649460E+03  0.26944134766E+03  0.00000000000E+00 0.  1.
<mgrwt>
<rscale>  0 0.20385520E+04</rscale>
<asrwt>0</asrwt>
<pdfrwt beam="1">  1        2 0.74343286E-01 0.20385520E+04</pdfrwt>
<pdfrwt beam="2">  1       -1 0.33076164E+00 0.20385520E+04</pdfrwt>
<totfact> 0.14122885E+00</totfact>
</mgrwt>
</event>
<event>
12    6  0.1538774E-007  0.2432622E+04  0.7818608E-02  0.8427390E-01
          2   -1    0    0  501    0  0.00000000000E+00  0.00000000000E+00  0.22843508331E+04  0.22843508331E+04  0.00000000000E+00 0. -1.
         -1   -1    0    0    0  501 -0.00000000000E+00 -0.00000000000E+00 -0.64762948442E+03  0.64762948442E+03  0.00000000000E+00 0.  1.
         24    2    1    2    0    0 -0.42527906797E+03  0.48449605255E+03 -0.28610756588E+03  0.71302587112E+03  0.10464054210E+03 0.  0.
        254    2    1    2    0    0  0.42527906797E+03 -0.48449605255E+03  0.19228289146E+04  0.22189544464E+04  0.90049380341E+03 0.  0.
         23    2    4    4    0    0 -0.16516287126E+03 -0.41664079744E+03  0.11643157537E+04  0.12511728097E+04  0.94519296051E+02 0.  0.
         23    2    4    4    0    0  0.59044193923E+03 -0.67855255109E+02  0.75851316093E+03  0.96778163675E+03  0.89627350070E+02 0.  0.
          2    1    3    3  502    0 -0.19434242732E+02  0.43925018935E+02  0.25353458611E+01  0.48099117015E+02  0.00000000000E+00 0. -1.
         -1    1    3    3    0  502 -0.40584482524E+03  0.44057103361E+03 -0.28864291174E+03  0.66492675411E+03  0.00000000000E+00 0.  1.
         11    1    5    5    0    0 -0.11107173502E+03 -0.18548863827E+03  0.64231818183E+03  0.67772827295E+03  0.00000000000E+00 0.  1.
        -11    1    5    5    0    0 -0.54091136243E+02 -0.23115215916E+03  0.52199757185E+03  0.57344453674E+03  0.00000000000E+00 0. -1.
          2    1    6    6  503    0  0.40912595918E+03 -0.15236312552E+02  0.56152302225E+03  0.69492755034E+03  0.00000000000E+00 0. -1.
         -2    1    6    6    0  503  0.18131598005E+03 -0.52618942558E+02  0.19699013867E+03  0.27285408641E+03  0.00000000000E+00 0.  1.
<mgrwt>
<rscale>  0 0.24326224E+04</rscale>
<asrwt>0</asrwt>
<pdfrwt beam="1">  1        2 0.35143859E+00 0.24326224E+04</pdfrwt>
<pdfrwt beam="2">  1       -1 0.99635306E-01 0.24326224E+04</pdfrwt>
<totfact> 0.45368019E+00</totfact>
</mgrwt>
</event>
<event>
12    6  0.2408974E-007  0.1499586E+04  0.7818608E-02  0.8884728E-01
         -1   -1    0    0    0  501 -0.00000000000E+00  0.00000000000E+00  0.33685729911E+03  0.33685729911E+03  0.00000000000E+00 0.  1.
          2   -1    0    0  501    0  0.00000000000E+00 -0.00000000000E+00 -0.16689254043E+04  0.16689254043E+04  0.00000000000E+00 0. -1.
         24    2    1    2    0    0  0.18693838375E+03 -0.30395887915E+03 -0.89307964635E+03  0.96482031622E+03  0.77136426788E+02 0.  0.
        254    2    1    2    0    0 -0.18693838375E+03  0.30395887915E+03 -0.43898845885E+03  0.10409623872E+04  0.87381626503E+03 0.  0.
         23    2    4    4    0    0 -0.76939221801E+02  0.13598210645E+03 -0.68631403389E+03  0.70964914715E+03  0.90355862080E+02 0.  0.
         23    2    4    4    0    0 -0.10999916195E+03  0.16797677270E+03  0.24732557503E+03  0.33131324006E+03  0.91008302783E+02 0.  0.
          2    1    3    3  502    0  0.18553866876E+03 -0.27918164824E+03 -0.77880800281E+03  0.84788495420E+03  0.00000000000E+00 0. -1.
         -1    1    3    3    0  502  0.13997149917E+01 -0.24777230903E+02 -0.11427164354E+03  0.11693536202E+03  0.00000000000E+00 0.  1.
         11    1    5    5    0    0 -0.59869193100E+02  0.47763662233E+02 -0.18304608081E+03  0.19842266859E+03  0.00000000000E+00 0.  1.
        -11    1    5    5    0    0 -0.17070028701E+02  0.88218444217E+02 -0.50326795308E+03  0.51122647855E+03  0.00000000000E+00 0. -1.
          1    1    6    6  503    0 -0.10453136991E+03  0.15960256171E+03  0.25516572022E+03  0.31860528837E+03  0.00000000000E+00 0. -1.
         -1    1    6    6    0  503 -0.54677920438E+01  0.83742109880E+01 -0.78401451903E+01  0.12707951688E+02  0.00000000000E+00 0.  1.
<mgrwt>
<rscale>  0 0.14995862E+04</rscale>
<asrwt>0</asrwt>
<pdfrwt beam="1">  1        2 0.25675775E+00 0.14995862E+04</pdfrwt>
<pdfrwt beam="2">  1       -1 0.51824200E-01 0.14995862E+04</pdfrwt>
<totfact> 0.42102786E+01</totfact>
</mgrwt>
</event>
<event>
12    6  0.1538774E-007  0.1618029E+04  0.7818608E-02  0.8809548E-01
         -1   -1    0    0    0  501 -0.00000000000E+00  0.00000000000E+00  0.40745889828E+03  0.40745889828E+03  0.00000000000E+00 0.  1.
          2   -1    0    0  501    0  0.00000000000E+00 -0.00000000000E+00 -0.16063083009E+04  0.16063083009E+04  0.00000000000E+00 0. -1.
         24    2    1    2    0    0 -0.41875044548E+03  0.21646458235E+03 -0.78663597731E+03  0.91934576069E+03  0.64742689871E+02 0.  0.
        254    2    1    2    0    0  0.41875044548E+03 -0.21646458235E+03 -0.41221342533E+03  0.10944214385E+04  0.89756867483E+03 0.  0.
         23    2    4    4    0    0  0.60517145531E+03 -0.94614741830E+02 -0.18315953794E+01  0.61905492716E+03  0.89672785199E+02 0.  0.
         23    2    4    4    0    0 -0.18642100983E+03 -0.12184984052E+03 -0.41038182996E+03  0.47536651135E+03  0.89218256061E+02 0.  0.
          2    1    3    3  502    0 -0.26715874927E+03  0.13531066817E+03 -0.43768991505E+03  0.53033502238E+03  0.00000000000E+00 0. -1.
         -1    1    3    3    0  502 -0.15159169622E+03  0.81153914173E+02 -0.34894606226E+03  0.38901073831E+03  0.00000000000E+00 0.  1.
         11    1    5    5    0    0  0.37583839062E+03 -0.29259300578E+02 -0.33664626564E+02  0.37847577151E+03  0.00000000000E+00 0.  1.
        -11    1    5    5    0    0  0.22933306469E+03 -0.65355441251E+02  0.31833031185E+02  0.24057915565E+03  0.00000000000E+00 0. -1.
          2    1    6    6  503    0  0.76880953895E+01 -0.31616178887E+01 -0.31547581896E+01  0.88912956102E+01  0.00000000000E+00 0. -1.
         -2    1    6    6    0  503 -0.19410910522E+03 -0.11868822263E+03 -0.40722707177E+03  0.46647521574E+03  0.00000000000E+00 0.  1.
<mgrwt>
<rscale>  0 0.16180292E+04</rscale>
<asrwt>0</asrwt>
<pdfrwt beam="1">  1        2 0.24712435E+00 0.16180292E+04</pdfrwt>
<pdfrwt beam="2">  1       -1 0.62685985E-01 0.16180292E+04</pdfrwt>
<totfact> 0.31149709E+01</totfact>
</mgrwt>
</event>
<event>
12    6  0.1816173E-007  0.2071150E+04  0.7818608E-02  0.8574060E-01
          2   -1    0    0  501    0  0.00000000000E+00  0.00000000000E+00  0.17847911220E+04  0.17847911220E+04  0.00000000000E+00 0. -1.
         -1   -1    0    0    0  501 -0.00000000000E+00 -0.00000000000E+00 -0.60086323158E+03  0.60086323158E+03  0.00000000000E+00 0.  1.
         24    2    1    2    0    0 -0.30125761896E+03  0.77577032643E+03  0.35111324512E+03  0.90683683347E+03  0.80602601051E+02 0.  0.
        254    2    1    2    0    0  0.30125761896E+03 -0.77577032643E+03  0.83281464530E+03  0.14788175201E+04  0.89484371372E+03 0.  0.
         23    2    4    4    0    0  0.30727899431E+03 -0.76232106533E+03  0.99373854133E+03  0.12928370373E+04  0.91419524470E+02 0.  0.
         23    2    4    4    0    0 -0.60213753497E+01 -0.13449261098E+02 -0.16092389603E+03  0.18598048282E+03  0.92060306815E+02 0.  0.
          4    1    3    3  502    0 -0.73327840396E+02  0.10881941159E+03  0.59167776812E+02  0.14394256608E+03  0.00000000000E+00 0. -1.
         -3    1    3    3    0  502 -0.22792977856E+03  0.66695091484E+03  0.29194546831E+03  0.76289426740E+03  0.00000000000E+00 0.  1.
         11    1    5    5    0    0  0.27611284619E+03 -0.72248427219E+03  0.95617603758E+03  0.12298351281E+04  0.00000000000E+00 0. -1.
        -11    1    5    5    0    0  0.31166148118E+02 -0.39836793144E+02  0.37562503744E+02  0.63001909209E+02  0.00000000000E+00 0.  1.
          3    1    6    6  503    0 -0.16611597197E+02  0.14244084908E+02 -0.15398250980E+03  0.15552958703E+03  0.00000000000E+00 0. -1.
         -3    1    6    6    0  503  0.10590221847E+02 -0.27693346006E+02 -0.69413862311E+01  0.30450895793E+02  0.00000000000E+00 0.  1.
<mgrwt>
<rscale>  0 0.20711498E+04</rscale>
<asrwt>0</asrwt>
<pdfrwt beam="1">  1        2 0.27458325E+00 0.20711498E+04</pdfrwt>
<pdfrwt beam="2">  1       -1 0.92440497E-01 0.20711498E+04</pdfrwt>
<totfact> 0.10533917E+01</totfact>
</mgrwt>
</event>
<event>
12    6  0.1538774E-007  0.1888568E+04  0.7818608E-02  0.8660568E-01
          2   -1    0    0  501    0  0.00000000000E+00  0.00000000000E+00  0.18358563553E+04  0.18358563553E+04  0.00000000000E+00 0. -1.
         -1   -1    0    0    0  501 -0.00000000000E+00 -0.00000000000E+00 -0.48569815738E+03  0.48569815738E+03  0.00000000000E+00 0.  1.
         24    2    1    2    0    0 -0.28087289101E+03 -0.61421119534E+03  0.84816949351E+03  0.10874932345E+04  0.84291589485E+02 0.  0.
        254    2    1    2    0    0  0.28087289101E+03  0.61421119534E+03  0.50198870441E+03  0.12340612781E+04  0.90264589150E+03 0.  0.
         23    2    4    4    0    0  0.20275198266E+03  0.38153078813E+03  0.75315756751E+03  0.87307650263E+03  0.91335366488E+02 0.  0.
         23    2    4    4    0    0  0.78120908347E+02  0.23268040721E+03 -0.25116886311E+03  0.36098477550E+03  0.83553349012E+02 0.  0.
          4    1    3    3  502    0 -0.25662102439E+03 -0.57435745839E+03  0.75070062065E+03  0.97943466449E+03  0.00000000000E+00 0. -1.
         -3    1    3    3    0  502 -0.24251866612E+02 -0.39853736955E+02  0.97468872861E+02  0.10805857005E+03  0.00000000000E+00 0.  1.
         11    1    5    5    0    0 -0.79942602917E+01  0.35634054759E+02  0.65799686990E+02  0.75254852761E+02  0.00000000000E+00 0. -1.
        -11    1    5    5    0    0  0.21074624295E+03  0.34589673337E+03  0.68735788052E+03  0.79782164987E+03  0.00000000000E+00 0.  1.
          1    1    6    6  503    0 -0.93332357038E+01  0.30818185491E+02 -0.66000775058E+02  0.73436858279E+02  0.00000000000E+00 0. -1.
         -1    1    6    6    0  503  0.87454144051E+02  0.20186222172E+03 -0.18516808805E+03  0.28754791723E+03  0.00000000000E+00 0.  1.
<mgrwt>
<rscale>  0 0.18885678E+04</rscale>
<asrwt>0</asrwt>
<pdfrwt beam="1">  1        2 0.28243944E+00 0.18885678E+04</pdfrwt>
<pdfrwt beam="2">  1       -1 0.74722794E-01 0.18885678E+04</pdfrwt>
<totfact> 0.15853842E+01</totfact>
</mgrwt>
</event>
<event>
12    6  0.1538774E-007  0.1927095E+04  0.7818608E-02  0.8641486E-01
         -1   -1    0    0    0  501 -0.00000000000E+00  0.00000000000E+00  0.37027335427E+03  0.37027335427E+03  0.00000000000E+00 0.  1.
          2   -1    0    0  501    0  0.00000000000E+00 -0.00000000000E+00 -0.25074019220E+04  0.25074019220E+04  0.00000000000E+00 0. -1.
         24    2    1    2    0    0 -0.15686700414E+03 -0.13165230679E+03 -0.19263507071E+04  0.19388282146E+04  0.79298246191E+02 0.  0.
        254    2    1    2    0    0  0.15686700414E+03  0.13165230679E+03 -0.21077786060E+03  0.93884706171E+03  0.89166524654E+03 0.  0.
         23    2    4    4    0    0  0.42821357144E+03  0.22515763565E+02  0.15210495460E+03  0.46389855863E+03  0.90510403310E+02 0.  0.
         23    2    4    4    0    0 -0.27134656730E+03  0.10913654323E+03 -0.36288281520E+03  0.47494850308E+03  0.91391456698E+02 0.  0.
          2    1    3    3  502    0 -0.12898376471E+03 -0.13559949289E+03 -0.17785042862E+04  0.17883236648E+04  0.00000000000E+00 0. -1.
         -1    1    3    3    0  502 -0.27883239427E+02  0.39471860947E+01 -0.14784642094E+03  0.15050454978E+03  0.00000000000E+00 0.  1.
         11    1    5    5    0    0  0.11488906311E+02  0.12905684960E+02  0.20436570880E+02  0.26762008554E+02  0.00000000000E+00 0. -1.
        -11    1    5    5    0    0  0.41672466513E+03  0.96100786048E+01  0.13166838372E+03  0.43713655007E+03  0.00000000000E+00 0.  1.
          3    1    6    6  503    0 -0.45167561956E+02 -0.12006594004E+02 -0.33877686746E+02  0.57723172226E+02  0.00000000000E+00 0. -1.
         -3    1    6    6    0  503 -0.22617900534E+03  0.12114313723E+03 -0.32900512846E+03  0.41722533086E+03  0.00000000000E+00 0.  1.
<mgrwt>
<rscale>  0 0.19270953E+04</rscale>
<asrwt>0</asrwt>
<pdfrwt beam="1">  1        2 0.38575414E+00 0.19270953E+04</pdfrwt>
<pdfrwt beam="2">  1       -1 0.56965131E-01 0.19270953E+04</pdfrwt>
<totfact> 0.11449986E+01</totfact>
</mgrwt>
</event>
<event>
12    6  0.1538774E-007  0.2072127E+04  0.7818608E-02  0.8573622E-01
         -1   -1    0    0    0  501 -0.00000000000E+00  0.00000000000E+00  0.12885306829E+04  0.12885306829E+04  0.00000000000E+00 0.  1.
          2   -1    0    0  501    0  0.00000000000E+00 -0.00000000000E+00 -0.83306289521E+03  0.83306289521E+03  0.00000000000E+00 0. -1.
         24    2    1    2    0    0  0.80959635570E+03  0.62068960951E+02 -0.14054113261E+02  0.81599340066E+03  0.79679964522E+02 0.  0.
        254    2    1    2    0    0 -0.80959635570E+03 -0.62068960951E+02  0.46952190093E+03  0.13056001774E+04  0.90820823207E+03 0.  0.
         23    2    4    4    0    0 -0.29985431482E+03 -0.86400685782E+02 -0.25637727679E+03  0.41388149276E+03  0.90503554473E+02 0.  0.
         23    2    4    4    0    0 -0.50974204087E+03  0.24331724831E+02  0.72589917773E+03  0.89171868468E+03  0.88338073964E+02 0.  0.
          2    1    3    3  502    0  0.64096859178E+03  0.27397846615E+02  0.13225909862E+02  0.64169019187E+03  0.00000000000E+00 0. -1.
         -1    1    3    3    0  502  0.16862776392E+03  0.34671114336E+02 -0.27280023123E+02  0.17430320879E+03  0.00000000000E+00 0.  1.
         11    1    5    5    0    0 -0.21091227224E+03 -0.98444576867E+02 -0.20675018123E+03  0.31132131108E+03  0.00000000000E+00 0.  1.
        -11    1    5    5    0    0 -0.88942042589E+02  0.12043891085E+02 -0.49627095560E+02  0.10256018168E+03  0.00000000000E+00 0. -1.
          1    1    6    6  503    0 -0.14362238566E+03 -0.14203269082E+01  0.27569700007E+03  0.31086692143E+03  0.00000000000E+00 0. -1.
         -1    1    6    6    0  503 -0.36611965521E+03  0.25752051739E+02  0.45020217766E+03  0.58085176325E+03  0.00000000000E+00 0.  1.
<mgrwt>
<rscale>  0 0.20721265E+04</rscale>
<asrwt>0</asrwt>
<pdfrwt beam="1">  1        2 0.12816352E+00 0.20721265E+04</pdfrwt>
<pdfrwt beam="2">  1       -1 0.19823549E+00 0.20721265E+04</pdfrwt>
<totfact> 0.53213726E+00</totfact>
</mgrwt>
</event>
<event>
12    6  0.1538774E-007  0.1596489E+04  0.7818608E-02  0.8822708E-01
         -3   -1    0    0    0  501 -0.00000000000E+00  0.00000000000E+00  0.50748285034E+03  0.50748285034E+03  0.00000000000E+00 0.  1.
          2   -1    0    0  501    0  0.00000000000E+00 -0.00000000000E+00 -0.12555980073E+04  0.12555980073E+04  0.00000000000E+00 0. -1.
         24    2    1    2    0    0  0.18687247760E+03  0.33485197463E+03 -0.68609552733E+03  0.79019583981E+03  0.81456889388E+02 0.  0.
        254    2    1    2    0    0 -0.18687247760E+03 -0.33485197463E+03 -0.62019629674E+02  0.97288501787E+03  0.89197065856E+03 0.  0.
         23    2    4    4    0    0 -0.29499498893E+03 -0.54178636086E+03  0.15341372481E+03  0.64227874377E+03  0.91824340085E+02 0.  0.
         23    2    4    4    0    0  0.10812251133E+03  0.20693438623E+03 -0.21543335448E+03  0.33060627410E+03  0.91524098413E+02 0.  0.
          4    1    3    3  502    0  0.14024667362E+03  0.30494528959E+03 -0.56814860148E+03  0.65988907588E+03  0.00000000000E+00 0. -1.
         -3    1    3    3    0  502  0.46625803986E+02  0.29906685038E+02 -0.11794692585E+03  0.13030676393E+03  0.00000000000E+00 0.  1.
         11    1    5    5    0    0 -0.13594797057E+03 -0.16586688515E+03  0.70590022091E+02  0.22578003789E+03  0.00000000000E+00 0.  1.
        -11    1    5    5    0    0 -0.15904701836E+03 -0.37591947571E+03  0.82823702718E+02  0.41649870588E+03  0.00000000000E+00 0. -1.
          3    1    6    6  503    0  0.56014221698E+02  0.12614989434E+03 -0.66178071980E+02  0.15307163711E+03  0.00000000000E+00 0. -1.
         -3    1    6    6    0  503  0.52108289628E+02  0.80784491885E+02 -0.14925528250E+03  0.17753463699E+03  0.00000000000E+00 0.  1.
<mgrwt>
<rscale>  0 0.15964892E+04</rscale>
<asrwt>0</asrwt>
<pdfrwt beam="1">  1        2 0.19316893E+00 0.15964892E+04</pdfrwt>
<pdfrwt beam="2">  1       -3 0.78074284E-01 0.15964892E+04</pdfrwt>
<totfact> 0.16456217E+01</totfact>
</mgrwt>
</event>
<event>
12    6  0.1538774E-007  0.1699233E+04  0.7818608E-02  0.8761802E-01
          2   -1    0    0  501    0  0.00000000000E+00  0.00000000000E+00  0.67136131314E+03  0.67136131314E+03  0.00000000000E+00 0. -1.
         -1   -1    0    0    0  501 -0.00000000000E+00 -0.00000000000E+00 -0.10752001731E+04  0.10752001731E+04  0.00000000000E+00 0.  1.
         24    2    1    2    0    0 -0.24847393824E+03 -0.53345587138E+03  0.40401687966E+01  0.59381232694E+03  0.79260910690E+02 0.  0.
        254    2    1    2    0    0  0.24847393824E+03  0.53345587138E+03 -0.40787902874E+03  0.11527491593E+04  0.90341068039E+03 0.  0.
         23    2    4    4    0    0  0.47863820351E+03  0.10053209825E+03 -0.42457882469E+03  0.65406548339E+03  0.91286612072E+02 0.  0.
         23    2    4    4    0    0 -0.23016426527E+03  0.43292377313E+03  0.16699795947E+02  0.49868367590E+03  0.89487111218E+02 0.  0.
          4    1    3    3  502    0 -0.22254304675E+03 -0.43871471710E+03  0.27930027769E+02  0.49272314448E+03  0.00000000000E+00 0. -1.
         -3    1    3    3    0  502 -0.25930891495E+02 -0.94741154277E+02 -0.23889858973E+02  0.10108918245E+03  0.00000000000E+00 0.  1.
         11    1    5    5    0    0  0.23887338913E+03  0.43922932188E+02 -0.27029114038E+03  0.36338274667E+03  0.00000000000E+00 0.  1.
        -11    1    5    5    0    0  0.23976481438E+03  0.56609166063E+02 -0.15428768431E+03  0.29068273672E+03  0.00000000000E+00 0. -1.
          1    1    6    6  503    0 -0.13340164686E+03  0.16441738854E+03 -0.10443601740E+02  0.21198619261E+03  0.00000000000E+00 0. -1.
         -1    1    6    6    0  503 -0.96762618413E+02  0.26850638459E+03  0.27143397687E+02  0.28669748329E+03  0.00000000000E+00 0.  1.
<mgrwt>
<rscale>  0 0.16992325E+04</rscale>
<asrwt>0</asrwt>
<pdfrwt beam="1">  1        2 0.10328636E+00 0.16992325E+04</pdfrwt>
<pdfrwt beam="2">  1       -1 0.16541541E+00 0.16992325E+04</pdfrwt>
<totfact> 0.12488687E+01</totfact>
</mgrwt>
</event>
<event>
12    6  0.1538774E-007  0.2104536E+04  0.7818608E-02  0.8559248E-01
          2   -1    0    0  501    0  0.00000000000E+00  0.00000000000E+00  0.13149049391E+04  0.13149049391E+04  0.00000000000E+00 0. -1.
         -1   -1    0    0    0  501 -0.00000000000E+00 -0.00000000000E+00 -0.84208942314E+03  0.84208942314E+03  0.00000000000E+00 0.  1.
         24    2    1    2    0    0  0.16735353473E+03  0.74578842955E+03  0.58968426843E+03  0.96864987173E+03  0.79670887566E+02 0.  0.
        254    2    1    2    0    0 -0.16735353473E+03 -0.74578842955E+03 -0.11686875250E+03  0.11883444905E+04  0.90238391802E+03 0.  0.
         23    2    4    4    0    0  0.64800687938E+02 -0.85692992892E+03 -0.22768362142E+03  0.89379224775E+03  0.92177646078E+02 0.  0.
         23    2    4    4    0    0 -0.23215422267E+03  0.11114149938E+03  0.11081486891E+03  0.29455224273E+03  0.90736280159E+02 0.  0.
          4    1    3    3  502    0 -0.50350335231E+01  0.17093122274E+02  0.25412029099E+02  0.31037036176E+02  0.00000000000E+00 0. -1.
         -3    1    3    3    0  502  0.17238856825E+03  0.72869530728E+03  0.56427223933E+03  0.93761283555E+03  0.00000000000E+00 0.  1.
         11    1    5    5    0    0  0.72792118122E+02 -0.84249620987E+03 -0.23171815140E+03  0.87680776559E+03  0.00000000000E+00 0.  1.
        -11    1    5    5    0    0 -0.79914301843E+01 -0.14433719055E+02  0.40345299883E+01  0.16984482164E+02  0.00000000000E+00 0. -1.
          4    1    6    6  503    0 -0.19119410061E+02 -0.15531463570E+02  0.14908847263E+02  0.28793261858E+02  0.00000000000E+00 0. -1.
         -4    1    6    6    0  503 -0.21303481261E+03  0.12667296295E+03  0.95906021649E+02  0.26575898087E+03  0.00000000000E+00 0.  1.
<mgrwt>
<rscale>  0 0.21045356E+04</rscale>
<asrwt>0</asrwt>
<pdfrwt beam="1">  1        2 0.20229307E+00 0.21045356E+04</pdfrwt>
<pdfrwt beam="2">  1       -1 0.12955222E+00 0.21045356E+04</pdfrwt>
<totfact> 0.87045283E+00</totfact>
</mgrwt>
</event>
<event>
12    6  0.1538774E-007  0.2392659E+04  0.7818608E-02  0.8442257E-01
          2   -1    0    0  501    0  0.00000000000E+00  0.00000000000E+00  0.19816856453E+04  0.19816856453E+04  0.00000000000E+00 0. -1.
         -1   -1    0    0    0  501 -0.00000000000E+00 -0.00000000000E+00 -0.72221531894E+03  0.72221531894E+03  0.00000000000E+00 0.  1.
         24    2    1    2    0    0  0.38234990904E+03  0.19831537384E+03  0.15450294836E+04  0.16059331745E+04  0.79905038959E+02 0.  0.
        254    2    1    2    0    0 -0.38234990904E+03 -0.19831537384E+03 -0.28555915720E+03  0.10979677898E+04  0.96874599082E+03 0.  0.
         23    2    4    4    0    0 -0.35152666773E+03  0.19729932182E+03 -0.49087272254E+03  0.64223567473E+03  0.94934775760E+02 0.  0.
         23    2    4    4    0    0 -0.30823241312E+02 -0.39561469566E+03  0.20531356534E+03  0.45573211507E+03  0.89872359308E+02 0.  0.
          4    1    3    3  502    0  0.24477266970E+03  0.13872467250E+03  0.11350267346E+04  0.11693775621E+04  0.00000000000E+00 0. -1.
         -3    1    3    3    0  502  0.13757723935E+03  0.59590701343E+02  0.41000274899E+03  0.43655561232E+03  0.00000000000E+00 0.  1.
         11    1    5    5    0    0 -0.27869606862E+03  0.15119396447E+03 -0.43935759662E+03  0.54181750735E+03  0.00000000000E+00 0.  1.
        -11    1    5    5    0    0 -0.72830599108E+02  0.46105357347E+02 -0.51515125917E+02  0.10041816738E+03  0.00000000000E+00 0. -1.
          2    1    6    6  503    0 -0.46175974493E+02 -0.23974784300E+03  0.86058745687E+02  0.25887710704E+03  0.00000000000E+00 0. -1.
         -2    1    6    6    0  503  0.15352733181E+02 -0.15586685266E+03  0.11925481965E+03  0.19685500803E+03  0.00000000000E+00 0.  1.
<mgrwt>
<rscale>  0 0.23926585E+04</rscale>
<asrwt>0</asrwt>
<pdfrwt beam="1">  1        2 0.30487471E+00 0.23926585E+04</pdfrwt>
<pdfrwt beam="2">  1       -1 0.11111005E+00 0.23926585E+04</pdfrwt>
<totfact> 0.52190347E+00</totfact>
</mgrwt>
</event>
<event>
12    6  0.1538774E-007  0.1790860E+04  0.7818608E-02  0.8711175E-01
          2   -1    0    0  501    0  0.00000000000E+00  0.00000000000E+00  0.12755328023E+04  0.12755328023E+04  0.00000000000E+00 0. -1.
         -1   -1    0    0    0  501 -0.00000000000E+00 -0.00000000000E+00 -0.62859601453E+03  0.62859601453E+03  0.00000000000E+00 0.  1.
         24    2    1    2    0    0  0.67935490078E+02  0.64951913684E+03  0.12378973739E+03  0.66967862782E+03  0.81579565652E+02 0.  0.
        254    2    1    2    0    0 -0.67935490078E+02 -0.64951913684E+03  0.52314705039E+03  0.12344501890E+04  0.90757594332E+03 0.  0.
         23    2    4    4    0    0  0.58286345453E+02 -0.57985009376E+03 -0.91149179331E+02  0.59684647854E+03  0.91072041500E+02 0.  0.
         23    2    4    4    0    0 -0.12622183553E+03 -0.69669043080E+02  0.61429622972E+03  0.63760371048E+03  0.91612807223E+02 0.  0.
          4    1    3    3  502    0  0.42164840915E+02  0.60466673330E+03  0.10880534566E+03  0.61582329885E+03  0.00000000000E+00 0. -1.
         -3    1    3    3    0  502  0.25770649163E+02  0.44852403548E+02  0.14984391735E+02  0.53855328966E+02  0.00000000000E+00 0.  1.
         11    1    5    5    0    0  0.17901210988E+01 -0.40743604522E+03 -0.78818382845E+02  0.41499358182E+03  0.00000000000E+00 0.  1.
        -11    1    5    5    0    0  0.56496224354E+02 -0.17241404855E+03 -0.12330796486E+02  0.18185289672E+03  0.00000000000E+00 0. -1.
          3    1    6    6  503    0 -0.93577952047E+02 -0.54965221789E+02  0.26334259979E+03  0.28482860387E+03  0.00000000000E+00 0. -1.
         -3    1    6    6    0  503 -0.32643883484E+02 -0.14703821291E+02  0.35095362993E+03  0.35277510662E+03  0.00000000000E+00 0.  1.
<mgrwt>
<rscale>  0 0.17908599E+04</rscale>
<asrwt>0</asrwt>
<pdfrwt beam="1">  1        2 0.19623582E+00 0.17908599E+04</pdfrwt>
<pdfrwt beam="2">  1       -1 0.96707079E-01 0.17908599E+04</pdfrwt>
<totfact> 0.18930162E+01</totfact>
</mgrwt>
</event>
<event>
12    6  0.1538774E-007  0.1792713E+04  0.7818608E-02  0.8710184E-01
         -1   -1    0    0    0  501 -0.00000000000E+00  0.00000000000E+00  0.97910985536E+03  0.97910985536E+03  0.00000000000E+00 0.  1.
          2   -1    0    0  501    0  0.00000000000E+00 -0.00000000000E+00 -0.82059712500E+03  0.82059712500E+03  0.00000000000E+00 0. -1.
         24    2    1    2    0    0 -0.14957970338E+03 -0.37030417404E+03 -0.48140986719E+03  0.63057099532E+03  0.79781269376E+02 0.  0.
        254    2    1    2    0    0  0.14957970338E+03  0.37030417404E+03  0.63992259755E+03  0.11691359850E+04  0.89324059002E+03 0.  0.
         23    2    4    4    0    0  0.20649821778E+03 -0.21799881206E+03  0.31245215409E+02  0.31520562402E+03  0.90627401600E+02 0.  0.
         23    2    4    4    0    0 -0.56918514394E+02  0.58830298610E+03  0.60867738214E+03  0.85393036101E+03  0.96792485208E+02 0.  0.
          2    1    3    3  502    0 -0.10565125625E+03 -0.32826926466E+03 -0.42800844869E+03  0.54964909735E+03  0.00000000000E+00 0. -1.
         -1    1    3    3    0  502 -0.43928447136E+02 -0.42034909378E+02 -0.53401418502E+02  0.80921897977E+02  0.00000000000E+00 0.  1.
         11    1    5    5    0    0  0.62861236104E+02 -0.12298142721E+03 -0.87824176754E+01  0.13839471559E+03  0.00000000000E+00 0.  1.
        -11    1    5    5    0    0  0.14363698167E+03 -0.95017384852E+02  0.40027633085E+02  0.17681090843E+03  0.00000000000E+00 0. -1.
          1    1    6    6  503    0 -0.78944299608E+02  0.32017311203E+03  0.32640872608E+03  0.46398887979E+03  0.00000000000E+00 0. -1.
         -1    1    6    6    0  503  0.22025785214E+02  0.26812987407E+03  0.28226865605E+03  0.38994148122E+03  0.00000000000E+00 0.  1.
<mgrwt>
<rscale>  0 0.17927127E+04</rscale>
<asrwt>0</asrwt>
<pdfrwt beam="1">  1        2 0.12624571E+00 0.17927127E+04</pdfrwt>
<pdfrwt beam="2">  1       -1 0.15063229E+00 0.17927127E+04</pdfrwt>
<totfact> 0.12383463E+01</totfact>
</mgrwt>
</event>
<event>
12    6  0.1538774E-007  0.1521872E+04  0.7818608E-02  0.8870037E-01
          2   -1    0    0  501    0  0.00000000000E+00  0.00000000000E+00  0.88580026529E+03  0.88580026529E+03  0.00000000000E+00 0. -1.
         -1   -1    0    0    0  501 -0.00000000000E+00 -0.00000000000E+00 -0.65367323609E+03  0.65367323609E+03  0.00000000000E+00 0.  1.
         24    2    1    2    0    0 -0.33014670930E+03  0.21007216416E+03  0.37162534274E+03  0.54564755168E+03  0.80614461931E+02 0.  0.
        254    2    1    2    0    0  0.33014670930E+03 -0.21007216416E+03 -0.13949831353E+03  0.99382594970E+03  0.90283059043E+03 0.  0.
         23    2    4    4    0    0 -0.20688150579E+03  0.83755463084E+02  0.17679726288E+03  0.29877962403E+03  0.90537597371E+02 0.  0.
         23    2    4    4    0    0  0.53702821509E+03 -0.29382762724E+03 -0.31629557641E+03  0.69504632567E+03  0.91173048870E+02 0.  0.
          4    1    3    3  502    0 -0.32316952083E+03  0.19372923496E+03  0.36953452708E+03  0.52775498328E+03  0.00000000000E+00 0. -1.
         -3    1    3    3    0  502 -0.69771884663E+01  0.16342929203E+02  0.20908156590E+01  0.17892568400E+02  0.00000000000E+00 0.  1.
         11    1    5    5    0    0 -0.13590036490E+03  0.97193387099E+02  0.10750178170E+03  0.19867585848E+03  0.00000000000E+00 0. -1.
        -11    1    5    5    0    0 -0.70981140896E+02 -0.13437924015E+02  0.69295481181E+02  0.10010376555E+03  0.00000000000E+00 0.  1.
          3    1    6    6  503    0  0.42157839343E+03 -0.25295789725E+03 -0.28639054529E+03  0.56897766566E+03  0.00000000000E+00 0. -1.
         -3    1    6    6    0  503  0.11544982166E+03 -0.40869729992E+02 -0.29905031122E+02  0.12606866002E+03  0.00000000000E+00 0.  1.
<mgrwt>
<rscale>  0 0.15218724E+04</rscale>
<asrwt>0</asrwt>
<pdfrwt beam="1">  1        2 0.13627696E+00 0.15218724E+04</pdfrwt>
<pdfrwt beam="2">  1       -1 0.10056511E+00 0.15218724E+04</pdfrwt>
<totfact> 0.31065911E+01</totfact>
</mgrwt>
</event>
<event>
12    6  0.1538774E-007  0.2351595E+04  0.7818608E-02  0.8457851E-01
         -1   -1    0    0    0  501 -0.00000000000E+00  0.00000000000E+00  0.23596136201E+04  0.23596136201E+04  0.00000000000E+00 0.  1.
          2   -1    0    0  501    0  0.00000000000E+00 -0.00000000000E+00 -0.58590109416E+03  0.58590109416E+03  0.00000000000E+00 0. -1.
         24    2    1    2    0    0 -0.42002270321E+03  0.44314215485E+03 -0.21707190254E+03  0.65136149139E+03  0.66011673115E+02 0.  0.
        254    2    1    2    0    0  0.42002270321E+03 -0.44314215485E+03  0.19907844285E+04  0.22941532228E+04  0.96287191705E+03 0.  0.
         23    2    4    4    0    0  0.45282202770E+03  0.18083152167E+03  0.70809386010E+03  0.86457382012E+03  0.91340832747E+02 0.  0.
         23    2    4    4    0    0 -0.32799324492E+02 -0.62397367652E+03  0.12826905684E+04  0.14295794027E+04  0.89348921837E+02 0.  0.
          4    1    3    3  502    0 -0.34894272416E+03  0.33027843576E+03 -0.16170469917E+03  0.50694504594E+03  0.00000000000E+00 0. -1.
         -3    1    3    3    0  502 -0.71079979042E+02  0.11286371909E+03 -0.55367203376E+02  0.14441644545E+03  0.00000000000E+00 0.  1.
         11    1    5    5    0    0  0.19426995258E+03  0.10205570207E+03  0.38677530875E+03  0.44469238835E+03  0.00000000000E+00 0. -1.
        -11    1    5    5    0    0  0.25855207512E+03  0.78775819607E+02  0.32131855135E+03  0.41988143177E+03  0.00000000000E+00 0.  1.
          2    1    6    6  503    0 -0.21933397778E+02 -0.30936749366E+02  0.70375565943E+02  0.79942958922E+02  0.00000000000E+00 0. -1.
         -2    1    6    6    0  503 -0.10865926714E+02 -0.59303692715E+03  0.12123150024E+04  0.13496364438E+04  0.00000000000E+00 0.  1.
<mgrwt>
<rscale>  0 0.23515954E+04</rscale>
<asrwt>0</asrwt>
<pdfrwt beam="1">  1        2 0.90138631E-01 0.23515954E+04</pdfrwt>
<pdfrwt beam="2">  1       -1 0.36301747E+00 0.23515954E+04</pdfrwt>
<totfact> 0.66971604E-01</totfact>
</mgrwt>
</event>
<event>
12    6  0.1538774E-007  0.1177280E+04  0.7818608E-02  0.9132979E-01
          2   -1    0    0  501    0  0.00000000000E+00  0.00000000000E+00  0.44187625886E+04  0.44187625886E+04  0.00000000000E+00 0. -1.
         -1   -1    0    0    0  501 -0.00000000000E+00 -0.00000000000E+00 -0.78414890345E+02  0.78414890345E+02  0.00000000000E+00 0.  1.
         24    2    1    2    0    0  0.19895890355E+03 -0.13423651084E+02  0.44128030399E+03  0.49035333506E+03  0.77157286148E+02 0.  0.
        254    2    1    2    0    0 -0.19895890355E+03  0.13423651084E+02  0.38990673943E+04  0.40068241439E+04  0.90119272926E+03 0.  0.
         23    2    4    4    0    0 -0.45710446357E+03  0.27792466344E+03  0.22597346320E+04  0.23240095369E+04  0.91831974872E+02 0.  0.
         23    2    4    4    0    0  0.25814556001E+03 -0.26450101236E+03  0.16393327623E+04  0.16828146070E+04  0.88618170724E+02 0.  0.
          4    1    3    3  502    0 -0.23729129241E+01  0.81557090553E+01  0.39863638652E+02  0.40758508223E+02  0.00000000000E+00 0. -1.
         -3    1    3    3    0  502  0.20133181648E+03 -0.21579360139E+02  0.40141666533E+03  0.44959482684E+03  0.00000000000E+00 0.  1.
         11    1    5    5    0    0 -0.31218571070E+03  0.21426111632E+03  0.17392668987E+04  0.17800048003E+04  0.00000000000E+00 0. -1.
        -11    1    5    5    0    0 -0.14491875287E+03  0.63663547122E+02  0.52046773326E+03  0.54400473668E+03  0.00000000000E+00 0.  1.
          4    1    6    6  503    0  0.99598991997E+02 -0.12577248064E+03  0.53379499862E+03  0.55738297125E+03  0.00000000000E+00 0. -1.
         -4    1    6    6    0  503  0.15854656801E+03 -0.13872853172E+03  0.11055377637E+04  0.11254316357E+04  0.00000000000E+00 0.  1.
<mgrwt>
<rscale>  0 0.11772795E+04</rscale>
<asrwt>0</asrwt>
<pdfrwt beam="1">  1        2 0.67980943E+00 0.11772795E+04</pdfrwt>
<pdfrwt beam="2">  1       -1 0.12063833E-01 0.11772795E+04</pdfrwt>
<totfact> 0.82109747E+00</totfact>
</mgrwt>
</event>
<event>
12    6  0.1538774E-007  0.2088059E+04  0.7818608E-02  0.8566522E-01
         -1   -1    0    0    0  501 -0.00000000000E+00  0.00000000000E+00  0.16669401127E+04  0.16669401127E+04  0.00000000000E+00 0.  1.
          2   -1    0    0  501    0  0.00000000000E+00 -0.00000000000E+00 -0.65389144528E+03  0.65389144528E+03  0.00000000000E+00 0. -1.
         24    2    1    2    0    0  0.29113592636E+00 -0.85576018797E+03  0.33277080270E+03  0.92161045782E+03  0.79396755412E+02 0.  0.
        254    2    1    2    0    0 -0.29113592636E+00  0.85576018797E+03  0.68027786475E+03  0.13992211002E+04  0.87333620667E+03 0.  0.
         23    2    4    4    0    0  0.15276487736E+03  0.66186616381E+03  0.84570910522E+03  0.10884375360E+04  0.89824565939E+02 0.  0.
         23    2    4    4    0    0 -0.15305601329E+03  0.19389402416E+03 -0.16543124046E+03  0.31078356416E+03  0.90542214584E+02 0.  0.
          4    1    3    3  502    0 -0.15975498597E+02 -0.60849873660E+03  0.20150900998E+03  0.64119560985E+03  0.00000000000E+00 0. -1.
         -3    1    3    3    0  502  0.16266634523E+02 -0.24726145137E+03  0.13126179272E+03  0.28041484797E+03  0.00000000000E+00 0.  1.
         11    1    5    5    0    0  0.10710024431E+03  0.45672173914E+03  0.51528190758E+03  0.69683617416E+03  0.00000000000E+00 0. -1.
        -11    1    5    5    0    0  0.45664633056E+02  0.20514442467E+03  0.33042719764E+03  0.39160136188E+03  0.00000000000E+00 0.  1.
          4    1    6    6  503    0 -0.13045672305E+03  0.15242381917E+03 -0.17049067145E+03  0.26328510458E+03  0.00000000000E+00 0. -1.
         -4    1    6    6    0  503 -0.22599290235E+02  0.41470204982E+02  0.50594309877E+01  0.47498459578E+02  0.00000000000E+00 0.  1.
<mgrwt>
<rscale>  0 0.20880593E+04</rscale>
<asrwt>0</asrwt>
<pdfrwt beam="1">  1        2 0.10059868E+00 0.20880593E+04</pdfrwt>
<pdfrwt beam="2">  1       -1 0.25645232E+00 0.20880593E+04</pdfrwt>
<totfact> 0.29740417E+00</totfact>
</mgrwt>
</event>
<event>
12    6  0.1538774E-007  0.3794824E+04  0.7818608E-02  0.8047267E-01
          2   -1    0    0  501    0  0.00000000000E+00  0.00000000000E+00  0.22631686149E+04  0.22631686149E+04  0.00000000000E+00 0. -1.
         -1   -1    0    0    0  501 -0.00000000000E+00 -0.00000000000E+00 -0.15907660587E+04  0.15907660587E+04  0.00000000000E+00 0.  1.
         24    2    1    2    0    0 -0.10942785907E+04  0.97824165391E+03  0.13516137102E+04  0.19968943695E+04  0.79530709722E+02 0.  0.
        254    2    1    2    0    0  0.10942785907E+04 -0.97824165391E+03 -0.67921115399E+03  0.18570403041E+04  0.91261631146E+03 0.  0.
         23    2    4    4    0    0  0.11300901633E+04 -0.72328824637E+03 -0.27998370769E+03  0.13734467422E+04  0.87837421555E+02 0.  0.
         23    2    4    4    0    0 -0.35811572614E+02 -0.25495340754E+03 -0.39922744630E+03  0.48359356189E+03  0.90534360750E+02 0.  0.
          2    1    3    3  502    0 -0.78808786736E+03  0.72539135909E+03  0.10284171894E+04  0.14848963014E+04  0.00000000000E+00 0. -1.
         -1    1    3    3    0  502 -0.30619072333E+03  0.25285029481E+03  0.32319652084E+03  0.51199806809E+03  0.00000000000E+00 0.  1.
         11    1    5    5    0    0  0.95745433114E+03 -0.61889653584E+03 -0.26917930691E+03  0.11714133419E+04  0.00000000000E+00 0. -1.
        -11    1    5    5    0    0  0.17263583217E+03 -0.10439171053E+03 -0.10804400781E+02  0.20203340034E+03  0.00000000000E+00 0.  1.
          2    1    6    6  503    0 -0.62732193463E+02 -0.12947787856E+03 -0.19361000854E+03  0.24121501724E+03  0.00000000000E+00 0. -1.
         -2    1    6    6    0  503  0.26920620849E+02 -0.12547552898E+03 -0.20561743776E+03  0.24237854466E+03  0.00000000000E+00 0.  1.
<mgrwt>
<rscale>  0 0.37948237E+04</rscale>
<asrwt>0</asrwt>
<pdfrwt beam="1">  1        2 0.34817979E+00 0.37948237E+04</pdfrwt>
<pdfrwt beam="2">  1       -1 0.24473324E+00 0.37948237E+04</pdfrwt>
<totfact> 0.32746967E-01</totfact>
</mgrwt>
</event>
<event>
12    6  0.1538774E-007  0.3493805E+04  0.7818608E-02  0.8115260E-01
          2   -1    0    0  501    0  0.00000000000E+00  0.00000000000E+00  0.15543606763E+04  0.15543606763E+04  0.00000000000E+00 0. -1.
         -1   -1    0    0    0  501 -0.00000000000E+00 -0.00000000000E+00 -0.19632952649E+04  0.19632952649E+04  0.00000000000E+00 0.  1.
         24    2    1    2    0    0  0.14941272718E+04  0.57652310889E+03  0.11366212921E+03  0.16075367337E+04  0.80374567238E+02 0.  0.
        254    2    1    2    0    0 -0.14941272718E+04 -0.57652310889E+03 -0.52259671784E+03  0.19101192076E+04  0.90036262596E+03 0.  0.
         23    2    4    4    0    0 -0.11031066312E+04 -0.10599698529E+03 -0.63646033878E+03  0.12812622322E+04  0.92040992204E+02 0.  0.
         23    2    4    4    0    0 -0.39102064060E+03 -0.47052612360E+03  0.11386362094E+03  0.62885697533E+03  0.90577021809E+02 0.  0.
          2    1    3    3  502    0  0.34160440097E+03  0.16400207163E+03  0.43158010825E+02  0.38138282625E+03  0.00000000000E+00 0. -1.
         -1    1    3    3    0  502  0.11525228708E+04  0.41252103726E+03  0.70504118384E+02  0.12261539074E+04  0.00000000000E+00 0.  1.
         11    1    5    5    0    0 -0.11326577870E+03  0.15799849240E+02 -0.75181919771E+02  0.13686158308E+03  0.00000000000E+00 0.  1.
        -11    1    5    5    0    0 -0.98984085249E+03 -0.12179683453E+03 -0.56127841901E+03  0.11444006492E+04  0.00000000000E+00 0. -1.
          2    1    6    6  503    0 -0.34191162632E+03 -0.43422821054E+03  0.12534937847E+03  0.56671877128E+03  0.00000000000E+00 0. -1.
         -2    1    6    6    0  503 -0.49109014277E+02 -0.36297913060E+02 -0.11485757528E+02  0.62138204044E+02  0.00000000000E+00 0.  1.
<mgrwt>
<rscale>  0 0.34938053E+04</rscale>
<asrwt>0</asrwt>
<pdfrwt beam="1">  1        2 0.23913241E+00 0.34938053E+04</pdfrwt>
<pdfrwt beam="2">  1       -1 0.30204542E+00 0.34938053E+04</pdfrwt>
<totfact> 0.35458464E-01</totfact>
</mgrwt>
</event>
<event>
12    6  0.1538774E-007  0.1777938E+04  0.7818608E-02  0.8718121E-01
         -1   -1    0    0    0  501 -0.00000000000E+00  0.00000000000E+00  0.35294531772E+03  0.35294531772E+03  0.00000000000E+00 0.  1.
          2   -1    0    0  501    0  0.00000000000E+00 -0.00000000000E+00 -0.22390600716E+04  0.22390600716E+04  0.00000000000E+00 0. -1.
         24    2    1    2    0    0 -0.66827927723E+03 -0.11624982175E+03 -0.76180405721E+03  0.10230683317E+04  0.78817360141E+02 0.  0.
        254    2    1    2    0    0  0.66827927723E+03  0.11624982175E+03 -0.11243106967E+04  0.15689370576E+04  0.85870701334E+03 0.  0.
         23    2    4    4    0    0  0.77774189173E+03  0.32005590128E+03 -0.89389430644E+03  0.12306778660E+04  0.90569026856E+02 0.  0.
         23    2    4    4    0    0 -0.10946261450E+03 -0.20380607953E+03 -0.23041639021E+03  0.33825919165E+03  0.88366202994E+02 0.  0.
          4    1    3    3  502    0 -0.47337475913E+03 -0.90023068848E+02 -0.59139776277E+03  0.76284934903E+03  0.00000000000E+00 0. -1.
         -3    1    3    3    0  502 -0.19490451810E+03 -0.26226752901E+02 -0.17040629444E+03  0.26021898264E+03  0.00000000000E+00 0.  1.
         11    1    5    5    0    0  0.12767454608E+03  0.36276980456E+02 -0.18657952446E+03  0.22897320362E+03  0.00000000000E+00 0. -1.
        -11    1    5    5    0    0  0.65006734565E+03  0.28377892082E+03 -0.70731478199E+03  0.10017046624E+04  0.00000000000E+00 0.  1.
          1    1    6    6  503    0  0.87043998372E+01 -0.60409974964E+02 -0.45622611488E+02  0.76200750198E+02  0.00000000000E+00 0. -1.
         -1    1    6    6    0  503 -0.11816701434E+03 -0.14339610457E+03 -0.18479377872E+03  0.26205844145E+03  0.00000000000E+00 0.  1.
<mgrwt>
<rscale>  0 0.17779379E+04</rscale>
<asrwt>0</asrwt>
<pdfrwt beam="1">  1        2 0.34447078E+00 0.17779379E+04</pdfrwt>
<pdfrwt beam="2">  1       -1 0.54299280E-01 0.17779379E+04</pdfrwt>
<totfact> 0.18114153E+01</totfact>
</mgrwt>
</event>
<event>
12    6  0.1538774E-007  0.2390013E+04  0.7818608E-02  0.8443252E-01
         -1   -1    0    0    0  501 -0.00000000000E+00  0.00000000000E+00  0.84233605204E+03  0.84233605204E+03  0.00000000000E+00 0.  1.
          2   -1    0    0  501    0  0.00000000000E+00 -0.00000000000E+00 -0.16953336906E+04  0.16953336906E+04  0.00000000000E+00 0. -1.
         24    2    1    2    0    0 -0.87622687092E+03  0.53324235712E+03 -0.36178623646E+03  0.10904922063E+04  0.78504970414E+02 0.  0.
        254    2    1    2    0    0  0.87622687092E+03 -0.53324235712E+03 -0.49121140213E+03  0.14471775364E+04  0.89493756175E+03 0.  0.
         23    2    4    4    0    0  0.48740891944E+03 -0.26848702862E+03 -0.71983277990E+03  0.91464021836E+03  0.93566867791E+02 0.  0.
         23    2    4    4    0    0  0.38881795148E+03 -0.26475532849E+03  0.22862137777E+03  0.53253731800E+03  0.10026703013E+03 0.  0.
          4    1    3    3  502    0 -0.68235169215E+03  0.39159068771E+03 -0.30480311382E+03  0.84371324315E+03  0.00000000000E+00 0. -1.
         -3    1    3    3    0  502 -0.19387517876E+03  0.14165166941E+03 -0.56983122648E+02  0.24677896315E+03  0.00000000000E+00 0.  1.
         11    1    5    5    0    0  0.48219294565E+03 -0.25230874803E+03 -0.71132993539E+03  0.89563386389E+03  0.00000000000E+00 0. -1.
        -11    1    5    5    0    0  0.52159737900E+01 -0.16178280597E+02 -0.85028445032E+01  0.19006354472E+02  0.00000000000E+00 0.  1.
          3    1    6    6  503    0  0.20008477772E+03 -0.19121230434E+03  0.15366166256E+03  0.31655642490E+03  0.00000000000E+00 0. -1.
         -3    1    6    6    0  503  0.18873317377E+03 -0.73543024159E+02  0.74959715209E+02  0.21598089311E+03  0.00000000000E+00 0.  1.
<mgrwt>
<rscale>  0 0.23900131E+04</rscale>
<asrwt>0</asrwt>
<pdfrwt beam="1">  1        2 0.26082056E+00 0.23900131E+04</pdfrwt>
<pdfrwt beam="2">  1       -1 0.12959016E+00 0.23900131E+04</pdfrwt>
<totfact> 0.51681367E+00</totfact>
</mgrwt>
</event>
<event>
12    6  0.1538774E-007  0.2155075E+04  0.7818608E-02  0.8537363E-01
         -1   -1    0    0    0  501 -0.00000000000E+00  0.00000000000E+00  0.18078312303E+04  0.18078312303E+04  0.00000000000E+00 0.  1.
          2   -1    0    0  501    0  0.00000000000E+00 -0.00000000000E+00 -0.64225406702E+03  0.64225406702E+03  0.00000000000E+00 0. -1.
         24    2    1    2    0    0 -0.38471255012E+03  0.69048432018E+03  0.22224854801E+02  0.79485627501E+03  0.80809721660E+02 0.  0.
        254    2    1    2    0    0  0.38471255012E+03 -0.69048432018E+03  0.11433523084E+04  0.16552290223E+04  0.89875262022E+03 0.  0.
         23    2    4    4    0    0 -0.19262857239E+03 -0.55654744094E+03  0.59346835230E+03  0.84118181325E+03  0.92365236053E+02 0.  0.
         23    2    4    4    0    0  0.57734112251E+03 -0.13393687924E+03  0.54988395614E+03  0.81404720904E+03  0.95071730590E+02 0.  0.
          4    1    3    3  502    0 -0.22043646622E+03  0.42563004127E+03 -0.23264969854E+02  0.47989001500E+03  0.00000000000E+00 0. -1.
         -3    1    3    3    0  502 -0.16427608390E+03  0.26485427891E+03  0.45489824655E+02  0.31496626002E+03  0.00000000000E+00 0.  1.
         11    1    5    5    0    0 -0.19823684724E+02 -0.99746264597E+01  0.14950840172E+02  0.26758162697E+02  0.00000000000E+00 0. -1.
        -11    1    5    5    0    0 -0.17280488767E+03 -0.54657281448E+03  0.57851751213E+03  0.81442365055E+03  0.00000000000E+00 0.  1.
          2    1    6    6  503    0  0.25325944854E+03 -0.74626587259E+02  0.18475203106E+03  0.32224647210E+03  0.00000000000E+00 0. -1.
         -2    1    6    6    0  503  0.32408167397E+03 -0.59310291983E+02  0.36513192508E+03  0.49180073693E+03  0.00000000000E+00 0.  1.
<mgrwt>
<rscale>  0 0.21550749E+04</rscale>
<asrwt>0</asrwt>
<pdfrwt beam="1">  1        2 0.98808319E-01 0.21550749E+04</pdfrwt>
<pdfrwt beam="2">  1       -1 0.27812788E+00 0.21550749E+04</pdfrwt>
<totfact> 0.21875879E+00</totfact>
</mgrwt>
</event>
<event>
12    6  0.1538774E-007  0.1822132E+04  0.7818608E-02  0.8694618E-01
          2   -1    0    0  501    0  0.00000000000E+00  0.00000000000E+00  0.21598348702E+04  0.21598348702E+04  0.00000000000E+00 0. -1.
         -1   -1    0    0    0  501 -0.00000000000E+00 -0.00000000000E+00 -0.38430777609E+03  0.38430777609E+03  0.00000000000E+00 0.  1.
         24    2    1    2    0    0 -0.65335257999E+03  0.20689577910E+03  0.71808450068E+03  0.99580379925E+03  0.79400247488E+02 0.  0.
        254    2    1    2    0    0  0.65335257999E+03 -0.20689577910E+03  0.10574425935E+04  0.15483388471E+04  0.89971822793E+03 0.  0.
         23    2    4    4    0    0  0.80125266928E+03 -0.36246222202E+03  0.92953498136E+03  0.12829002959E+04  0.91723417571E+02 0.  0.
         23    2    4    4    0    0 -0.14790008929E+03  0.15556644292E+03  0.12790761210E+03  0.26543855112E+03  0.89565130573E+02 0.  0.
          4    1    3    3  502    0 -0.62327717007E+03  0.18561713166E+03  0.69732986386E+03  0.95351826900E+03  0.00000000000E+00 0. -1.
         -3    1    3    3    0  502 -0.30075409921E+02  0.21278647443E+02  0.20754636821E+02  0.42285530250E+02  0.00000000000E+00 0.  1.
         11    1    5    5    0    0  0.16191802429E+02 -0.11508734472E+02  0.54652337447E+01  0.20603257387E+02  0.00000000000E+00 0. -1.
        -11    1    5    5    0    0  0.78506086685E+03 -0.35095348755E+03  0.92406974762E+03  0.12622970386E+04  0.00000000000E+00 0.  1.
          4    1    6    6  503    0 -0.25139307811E+02  0.59100086188E+02  0.99033093732E+00  0.64232279580E+02  0.00000000000E+00 0. -1.
         -4    1    6    6    0  503 -0.12276078148E+03  0.96466356729E+02  0.12691728116E+03  0.20120627154E+03  0.00000000000E+00 0.  1.
<mgrwt>
<rscale>  0 0.18221321E+04</rscale>
<asrwt>0</asrwt>
<pdfrwt beam="1">  1        2 0.33228228E+00 0.18221321E+04</pdfrwt>
<pdfrwt beam="2">  1       -1 0.59124274E-01 0.18221321E+04</pdfrwt>
<totfact> 0.16929112E+01</totfact>
</mgrwt>
</event>
<event>
12    6  0.1538774E-007  0.1322164E+04  0.7818608E-02  0.9012172E-01
         -1   -1    0    0    0  501 -0.00000000000E+00  0.00000000000E+00  0.16665188706E+03  0.16665188706E+03  0.00000000000E+00 0.  1.
          2   -1    0    0  501    0  0.00000000000E+00 -0.00000000000E+00 -0.26224076220E+04  0.26224076220E+04  0.00000000000E+00 0. -1.
         24    2    1    2    0    0 -0.47337793573E+02 -0.28032427781E+02 -0.12556473855E+04  0.12593377161E+04  0.79085034644E+02 0.  0.
        254    2    1    2    0    0  0.47337793573E+02  0.28032427781E+02 -0.12001083494E+04  0.15297217930E+04  0.94697520021E+03 0.  0.
         23    2    4    4    0    0  0.21242501047E+03  0.43908675870E+03 -0.62939641143E+03  0.80159351948E+03  0.92145325520E+02 0.  0.
         23    2    4    4    0    0 -0.16508721690E+03 -0.41105433092E+03 -0.57071193799E+03  0.72812827348E+03  0.90770118062E+02 0.  0.
          2    1    3    3  502    0 -0.36557377302E+02 -0.54316012937E+02 -0.99363869169E+03  0.99579341267E+03  0.00000000000E+00 0. -1.
         -1    1    3    3    0  502 -0.10780416270E+02  0.26283585156E+02 -0.26200869383E+03  0.26354430342E+03  0.00000000000E+00 0.  1.
         11    1    5    5    0    0  0.10436683033E+03  0.20806759287E+03 -0.37495474519E+03  0.44133390921E+03  0.00000000000E+00 0. -1.
        -11    1    5    5    0    0  0.10805818014E+03  0.23101916583E+03 -0.25444166624E+03  0.36025961028E+03  0.00000000000E+00 0.  1.
          2    1    6    6  503    0 -0.45009454516E+02 -0.63113434392E+02 -0.15205007647E+03  0.17067039097E+03  0.00000000000E+00 0. -1.
         -2    1    6    6    0  503 -0.12007776238E+03 -0.34794089653E+03 -0.41866186152E+03  0.55745788252E+03  0.00000000000E+00 0.  1.
<mgrwt>
<rscale>  0 0.13221636E+04</rscale>
<asrwt>0</asrwt>
<pdfrwt beam="1">  1        2 0.40344735E+00 0.13221636E+04</pdfrwt>
<pdfrwt beam="2">  1       -1 0.25638750E-01 0.13221636E+04</pdfrwt>
<totfact> 0.44392434E+01</totfact>
</mgrwt>
</event>
<event>
12    6  0.1538774E-007  0.2784629E+04  0.7818608E-02  0.8308056E-01
          2   -1    0    0  501    0  0.00000000000E+00  0.00000000000E+00  0.23146114159E+04  0.23146114159E+04  0.00000000000E+00 0. -1.
         -1   -1    0    0    0  501 -0.00000000000E+00 -0.00000000000E+00 -0.83752252864E+03  0.83752252864E+03  0.00000000000E+00 0.  1.
         24    2    1    2    0    0  0.99279630553E+03 -0.53291841315E+03  0.44717736164E+02  0.11304815952E+04  0.79639322666E+02 0.  0.
        254    2    1    2    0    0 -0.99279630553E+03  0.53291841315E+03  0.14323711511E+04  0.20216523494E+04  0.87506832188E+03 0.  0.
         23    2    4    4    0    0 -0.79065836821E+03  0.55189457262E+03  0.15038624762E+04  0.17885516041E+04  0.87098902552E+02 0.  0.
         23    2    4    4    0    0 -0.20213793732E+03 -0.18976159477E+02 -0.71491325055E+02  0.23310074529E+03  0.89471266703E+02 0.  0.
          4    1    3    3  502    0  0.52829000995E+03 -0.26398393306E+03 -0.12437975158E+02  0.59070513351E+03  0.00000000000E+00 0. -1.
         -3    1    3    3    0  502  0.46450629558E+03 -0.26893448008E+03  0.57155711322E+02  0.53977646164E+03  0.00000000000E+00 0.  1.
         11    1    5    5    0    0 -0.57220615361E+03  0.37500940524E+03  0.10009241616E+04  0.12123947845E+04  0.00000000000E+00 0. -1.
        -11    1    5    5    0    0 -0.21845221460E+03  0.17688516738E+03  0.50293831456E+03  0.57615681958E+03  0.00000000000E+00 0.  1.
          4    1    6    6  503    0 -0.33137372217E+01  0.62810342253E+01 -0.26841986814E+02  0.27765527213E+02  0.00000000000E+00 0.  1.
         -4    1    6    6    0  503 -0.19882420010E+03 -0.25257193702E+02 -0.44649338242E+02  0.20533521808E+03  0.00000000000E+00 0. -1.
<mgrwt>
<rscale>  0 0.27846287E+04</rscale>
<asrwt>0</asrwt>
<pdfrwt beam="1">  1        2 0.35609406E+00 0.27846287E+04</pdfrwt>
<pdfrwt beam="2">  1       -1 0.12884962E+00 0.27846287E+04</pdfrwt>
<totfact> 0.22850365E+00</totfact>
</mgrwt>
</event>
<event>
12    6  0.1538774E-007  0.1747086E+04  0.7818608E-02  0.8734956E-01
          2   -1    0    0  501    0  0.00000000000E+00  0.00000000000E+00  0.16158225493E+04  0.16158225493E+04  0.00000000000E+00 0. -1.
         -1   -1    0    0    0  501 -0.00000000000E+00 -0.00000000000E+00 -0.47225321002E+03  0.47225321002E+03  0.00000000000E+00 0.  1.
         24    2    1    2    0    0  0.17147297520E+03  0.53721073934E+03  0.77621171529E+03  0.96273400221E+03  0.79710553733E+02 0.  0.
        254    2    1    2    0    0 -0.17147297520E+03 -0.53721073934E+03  0.36735762399E+03  0.11253417571E+04  0.90191135192E+03 0.  0.
         23    2    4    4    0    0  0.13979632395E+03  0.64569929924E+02  0.40431398052E+03  0.44073923900E+03  0.84077309098E+02 0.  0.
         23    2    4    4    0    0 -0.31126929916E+03 -0.60178066926E+03 -0.36956356537E+02  0.68460251811E+03  0.91029033983E+02 0.  0.
          2    1    3    3  502    0  0.14940011203E+03  0.44828719889E+03  0.69425807163E+03  0.83980716607E+03  0.00000000000E+00 0. -1.
         -1    1    3    3    0  502  0.22072863170E+02  0.88923540444E+02  0.81953643665E+02  0.12292683614E+03  0.00000000000E+00 0.  1.
         11    1    5    5    0    0  0.15015197630E+03  0.52221084706E+02  0.35828550122E+03  0.39197086378E+03  0.00000000000E+00 0.  1.
        -11    1    5    5    0    0 -0.10355652345E+02  0.12348845218E+02  0.46028479307E+02  0.48768375214E+02  0.00000000000E+00 0. -1.
          3    1    6    6  503    0 -0.30302998209E+02 -0.13441948917E+03  0.30005108787E+01  0.13782551953E+03  0.00000000000E+00 0. -1.
         -3    1    6    6    0  503 -0.28096630095E+03 -0.46736118009E+03 -0.39956867415E+02  0.54677699858E+03  0.00000000000E+00 0.  1.
<mgrwt>
<rscale>  0 0.17470860E+04</rscale>
<asrwt>0</asrwt>
<pdfrwt beam="1">  1        2 0.24858808E+00 0.17470860E+04</pdfrwt>
<pdfrwt beam="2">  1       -1 0.72654341E-01 0.17470860E+04</pdfrwt>
<totfact> 0.22545666E+01</totfact>
</mgrwt>
</event>
<event>
12    6  0.1538774E-007  0.2337099E+04  0.7818608E-02  0.8463435E-01
         -1   -1    0    0    0  501 -0.00000000000E+00  0.00000000000E+00  0.71911985070E+03  0.71911985070E+03  0.00000000000E+00 0.  1.
          2   -1    0    0  501    0  0.00000000000E+00 -0.00000000000E+00 -0.18988601574E+04  0.18988601574E+04  0.00000000000E+00 0. -1.
         24    2    1    2    0    0  0.23899000955E+03 -0.44569966423E+03  0.45362595959E+03  0.68679468622E+03  0.10072742655E+03 0.  0.
        254    2    1    2    0    0 -0.23899000955E+03  0.44569966423E+03 -0.16333662663E+04  0.19311853219E+04  0.89767865756E+03 0.  0.
         23    2    4    4    0    0 -0.17415938650E+03  0.54975198198E+03 -0.16747317295E+04  0.17735362033E+04  0.90252784822E+02 0.  0.
         23    2    4    4    0    0 -0.64830623049E+02 -0.10405231776E+03  0.41365463244E+02  0.15764911851E+03  0.90068021528E+02 0.  0.
          2    1    3    3  502    0  0.16349914015E+03 -0.32921741147E+03  0.26751200462E+03  0.45461934128E+03  0.00000000000E+00 0. -1.
         -1    1    3    3    0  502  0.75490869403E+02 -0.11648225275E+03  0.18611395496E+03  0.23217534495E+03  0.00000000000E+00 0.  1.
         11    1    5    5    0    0 -0.80149178514E+02  0.20164809618E+03 -0.75780153572E+03  0.78825694608E+03  0.00000000000E+00 0.  1.
        -11    1    5    5    0    0 -0.94010207985E+02  0.34810388580E+03 -0.91693019379E+03  0.98527925726E+03  0.00000000000E+00 0. -1.
          4    1    6    6  503    0  0.24875639265E+01 -0.72428693093E+02 -0.14870436388E+00  0.72471550766E+02  0.00000000000E+00 0. -1.
         -4    1    6    6    0  503 -0.67318186976E+02 -0.31623624664E+02  0.41514167608E+02  0.85177567744E+02  0.00000000000E+00 0.  1.
<mgrwt>
<rscale>  0 0.23370991E+04</rscale>
<asrwt>0</asrwt>
<pdfrwt beam="1">  1        2 0.29213234E+00 0.23370991E+04</pdfrwt>
<pdfrwt beam="2">  1       -1 0.11063382E+00 0.23370991E+04</pdfrwt>
<totfact> 0.58898284E+00</totfact>
</mgrwt>
</event>
<event>
12    6  0.1538774E-007  0.1587755E+04  0.7818608E-02  0.8828106E-01
         -1   -1    0    0    0  501 -0.00000000000E+00  0.00000000000E+00  0.53800075179E+03  0.53800075179E+03  0.00000000000E+00 0.  1.
          2   -1    0    0  501    0  0.00000000000E+00 -0.00000000000E+00 -0.11714516267E+04  0.11714516267E+04  0.00000000000E+00 0. -1.
         24    2    1    2    0    0 -0.31308870719E+03  0.11950503486E+03 -0.67037639585E+03  0.75379517028E+03  0.80601828117E+02 0.  0.
        254    2    1    2    0    0  0.31308870719E+03 -0.11950503486E+03  0.36925520957E+02  0.95565720820E+03  0.89420982636E+03 0.  0.
         23    2    4    4    0    0  0.33359879354E+03 -0.18854473679E+03  0.40742297080E+03  0.56739406641E+03  0.95421573238E+02 0.  0.
         23    2    4    4    0    0 -0.20510086353E+02  0.69039701932E+02 -0.37049744984E+03  0.38826314179E+03  0.91064608109E+02 0.  0.
          4    1    3    3  502    0 -0.24667097854E+03  0.75863827821E+02 -0.44004367085E+03  0.51013755427E+03  0.00000000000E+00 0. -1.
         -3    1    3    3    0  502 -0.66417728646E+02  0.43641207039E+02 -0.23033272500E+03  0.24365761600E+03  0.00000000000E+00 0.  1.
         11    1    5    5    0    0  0.93267058658E+02 -0.84571776553E+01  0.80786861742E+02  0.12368017268E+03  0.00000000000E+00 0.  1.
        -11    1    5    5    0    0  0.24033173488E+03 -0.18008755914E+03  0.32663610906E+03  0.44371389373E+03  0.00000000000E+00 0. -1.
          1    1    6    6  503    0 -0.73771790215E+00  0.55746348042E+02 -0.35607338691E+03  0.36041150983E+03  0.00000000000E+00 0. -1.
         -1    1    6    6    0  503 -0.19772368451E+02  0.13293353890E+02 -0.14424062929E+02  0.27851631966E+02  0.00000000000E+00 0.  1.
<mgrwt>
<rscale>  0 0.15877555E+04</rscale>
<asrwt>0</asrwt>
<pdfrwt beam="1">  1        2 0.18022332E+00 0.15877555E+04</pdfrwt>
<pdfrwt beam="2">  1       -1 0.82769348E-01 0.15877555E+04</pdfrwt>
<totfact> 0.31279903E+01</totfact>
</mgrwt>
</event>
<event>
12    6  0.1538774E-007  0.1466988E+04  0.7818608E-02  0.8906707E-01
          2   -1    0    0  501    0  0.00000000000E+00  0.00000000000E+00  0.11536965308E+04  0.11536965308E+04  0.00000000000E+00 0. -1.
         -1   -1    0    0    0  501 -0.00000000000E+00 -0.00000000000E+00 -0.46633892981E+03  0.46633892981E+03  0.00000000000E+00 0.  1.
         24    2    1    2    0    0 -0.30871274881E+02 -0.42285974202E+03  0.38725103975E+03  0.58024450088E+03  0.83408128947E+02 0.  0.
        254    2    1    2    0    0  0.30871274881E+02  0.42285974202E+03  0.30010656127E+03  0.10397909598E+04  0.90074296824E+03 0.  0.
         23    2    4    4    0    0 -0.26442913853E+03  0.51028355797E+03 -0.23694899194E+02  0.58291713479E+03  0.94439710680E+02 0.  0.
         23    2    4    4    0    0  0.29530041341E+03 -0.87423815941E+02  0.32380146046E+03  0.45687382496E+03  0.95084427641E+02 0.  0.
          2    1    3    3  502    0 -0.48559004546E+02 -0.38239393743E+03  0.36473247342E+03  0.53067209977E+03  0.00000000000E+00 0. -1.
         -1    1    3    3    0  502  0.17687729665E+02 -0.40465804595E+02  0.22518566328E+02  0.49572401109E+02  0.00000000000E+00 0.  1.
         11    1    5    5    0    0 -0.69021925771E+02  0.72117445333E+02  0.17657514512E+02  0.10137425697E+03  0.00000000000E+00 0. -1.
        -11    1    5    5    0    0 -0.19540721276E+03  0.43816611263E+03 -0.41352413706E+02  0.48154287782E+03  0.00000000000E+00 0.  1.
          2    1    6    6  503    0  0.48456423554E+02 -0.49789670459E+02  0.98631970871E+02  0.12064535609E+03  0.00000000000E+00 0. -1.
         -2    1    6    6    0  503  0.24684398986E+03 -0.37634145482E+02  0.22516948959E+03  0.33622846887E+03  0.00000000000E+00 0.  1.
<mgrwt>
<rscale>  0 0.14669882E+04</rscale>
<asrwt>0</asrwt>
<pdfrwt beam="1">  1        2 0.17749177E+00 0.14669882E+04</pdfrwt>
<pdfrwt beam="2">  1       -1 0.71744451E-01 0.14669882E+04</pdfrwt>
<totfact> 0.43753527E+01</totfact>
</mgrwt>
</event>
<event>
12    6  0.1538774E-007  0.1389961E+04  0.7818608E-02  0.8961117E-01
         -1   -1    0    0    0  501 -0.00000000000E+00  0.00000000000E+00  0.36284234648E+03  0.36284234648E+03  0.00000000000E+00 0.  1.
          2   -1    0    0  501    0  0.00000000000E+00 -0.00000000000E+00 -0.13311511457E+04  0.13311511457E+04  0.00000000000E+00 0. -1.
         24    2    1    2    0    0 -0.15500126768E+03 -0.12559577225E+03  0.13617164848E+03  0.25515028616E+03  0.82214716978E+02 0.  0.
        254    2    1    2    0    0  0.15500126768E+03  0.12559577225E+03 -0.11044804477E+04  0.14388432060E+04  0.90032939594E+03 0.  0.
         23    2    4    4    0    0 -0.21061879758E+03  0.18549871583E+03 -0.27515419758E+02  0.29611423760E+03  0.90313298654E+02 0.  0.
         23    2    4    4    0    0  0.36562006526E+03 -0.59902943581E+02 -0.10769650279E+04  0.11427289684E+04  0.93324322196E+02 0.  0.
          4    1    3    3  502    0 -0.11413344629E+03 -0.10763181327E+03  0.62216404604E+02  0.16876590826E+03  0.00000000000E+00 0. -1.
         -3    1    3    3    0  502 -0.40867821393E+02 -0.17963958974E+02  0.73955243878E+02  0.86384377896E+02  0.00000000000E+00 0.  1.
         11    1    5    5    0    0 -0.55673702001E+02  0.72519515511E+02 -0.48003773219E+02  0.10326181999E+03  0.00000000000E+00 0.  1.
        -11    1    5    5    0    0 -0.15494509558E+03  0.11297920032E+03  0.20488353461E+02  0.19285241761E+03  0.00000000000E+00 0. -1.
          1    1    6    6  503    0  0.24908726189E+03  0.18647136083E+00 -0.75760670552E+03  0.79750386774E+03  0.00000000000E+00 0. -1.
         -1    1    6    6    0  503  0.11653280337E+03 -0.60089414942E+02 -0.31935832242E+03  0.34522510069E+03  0.00000000000E+00 0.  1.
<mgrwt>
<rscale>  0 0.13899612E+04</rscale>
<asrwt>0</asrwt>
<pdfrwt beam="1">  1        2 0.20479248E+00 0.13899612E+04</pdfrwt>
<pdfrwt beam="2">  1       -1 0.55821899E-01 0.13899612E+04</pdfrwt>
<totfact> 0.57133234E+01</totfact>
</mgrwt>
</event>
<event>
12    6  0.1538774E-007  0.1382171E+04  0.7818608E-02  0.8966826E-01
         -1   -1    0    0    0  501 -0.00000000000E+00  0.00000000000E+00  0.32928823869E+03  0.32928823869E+03  0.00000000000E+00 0.  1.
          2   -1    0    0  501    0  0.00000000000E+00 -0.00000000000E+00 -0.14503980211E+04  0.14503980211E+04  0.00000000000E+00 0. -1.
         24    2    1    2    0    0  0.18183944728E+03 -0.15648123409E+03  0.76267663880E+02  0.26453112114E+03  0.81289582910E+02 0.  0.
        254    2    1    2    0    0 -0.18183944728E+03  0.15648123409E+03 -0.11973774463E+04  0.15151551386E+04  0.89690043152E+03 0.  0.
         23    2    4    4    0    0 -0.10526278115E+03  0.11607709957E+03 -0.13240685967E+04  0.13364295395E+04  0.91280442896E+02 0.  0.
         23    2    4    4    0    0 -0.76576666130E+02  0.40404134519E+02  0.12669115043E+03  0.17872559908E+03  0.91628119521E+02 0.  0.
          2    1    3    3  502    0  0.67288596588E+02 -0.46069271661E+02 -0.12252667482E+02  0.82463694330E+02  0.00000000000E+00 0. -1.
         -1    1    3    3    0  502  0.11455085070E+03 -0.11041196243E+03  0.88520331361E+02  0.18206742681E+03  0.00000000000E+00 0.  1.
         11    1    5    5    0    0 -0.95596186206E+02  0.10050134615E+03 -0.79262234199E+03  0.80466721595E+03  0.00000000000E+00 0. -1.
        -11    1    5    5    0    0 -0.96665949469E+01  0.15575753415E+02 -0.53144625471E+03  0.53176232360E+03  0.00000000000E+00 0.  1.
          3    1    6    6  503    0 -0.51317197175E+02 -0.12315269597E+02  0.10283651485E+03  0.11558749663E+03  0.00000000000E+00 0. -1.
         -3    1    6    6    0  503 -0.25259468955E+02  0.52719404116E+02  0.23854635586E+02  0.63138102451E+02  0.00000000000E+00 0.  1.
<mgrwt>
<rscale>  0 0.13821708E+04</rscale>
<asrwt>0</asrwt>
<pdfrwt beam="1">  1        2 0.22313816E+00 0.13821708E+04</pdfrwt>
<pdfrwt beam="2">  1       -1 0.50659729E-01 0.13821708E+04</pdfrwt>
<totfact> 0.58869804E+01</totfact>
</mgrwt>
</event>
<event>
12    6  0.1538774E-007  0.1968726E+04  0.7818608E-02  0.8621383E-01
         -1   -1    0    0    0  501 -0.00000000000E+00  0.00000000000E+00  0.15643445456E+04  0.15643445456E+04  0.00000000000E+00 0.  1.
          2   -1    0    0  501    0  0.00000000000E+00 -0.00000000000E+00 -0.61941008014E+03  0.61941008014E+03  0.00000000000E+00 0. -1.
         24    2    1    2    0    0  0.14715969355E+03  0.31147405671E+03 -0.33675057831E+03  0.48773393516E+03  0.76232382221E+02 0.  0.
        254    2    1    2    0    0 -0.14715969355E+03 -0.31147405671E+03  0.12816850438E+04  0.16960206906E+04  0.10559818029E+04 0.  0.
         23    2    4    4    0    0  0.30562624340E+03  0.21734718246E+03  0.29759337344E+03  0.48710566651E+03  0.89793741723E+02 0.  0.
         23    2    4    4    0    0 -0.45278593695E+03 -0.52882123918E+03  0.98409167038E+03  0.12089150241E+04  0.91499246402E+02 0.  0.
          2    1    3    3  502    0  0.10569410650E+03  0.26686055655E+03 -0.24374858205E+03  0.37656230831E+03  0.00000000000E+00 0. -1.
         -1    1    3    3    0  502  0.41465587047E+02  0.44613500163E+02 -0.93001996267E+02  0.11117162685E+03  0.00000000000E+00 0.  1.
         11    1    5    5    0    0  0.87779111025E+01  0.12594349663E+01  0.33945277749E+02  0.35084466381E+02  0.00000000000E+00 0.  1.
        -11    1    5    5    0    0  0.29684833230E+03  0.21608774750E+03  0.26364809569E+03  0.45202120013E+03  0.00000000000E+00 0. -1.
          3    1    6    6  503    0 -0.42582931220E+03 -0.48128435765E+03  0.86224917043E+03  0.10753784766E+04  0.00000000000E+00 0. -1.
         -3    1    6    6    0  503 -0.26956624749E+02 -0.47536881526E+02  0.12184249994E+03  0.13353654749E+03  0.00000000000E+00 0.  1.
<mgrwt>
<rscale>  0 0.19687263E+04</rscale>
<asrwt>0</asrwt>
<pdfrwt beam="1">  1        2 0.95293859E-01 0.19687263E+04</pdfrwt>
<pdfrwt beam="2">  1       -1 0.24066839E+00 0.19687263E+04</pdfrwt>
<totfact> 0.40724674E+00</totfact>
</mgrwt>
</event>
<event>
12    6  0.1538774E-007  0.1550648E+04  0.7818608E-02  0.8851454E-01
          2   -1    0    0  501    0  0.00000000000E+00  0.00000000000E+00  0.26130815953E+04  0.26130815953E+04  0.00000000000E+00 0. -1.
         -1   -1    0    0    0  501 -0.00000000000E+00 -0.00000000000E+00 -0.23004532163E+03  0.23004532163E+03  0.00000000000E+00 0.  1.
         24    2    1    2    0    0 -0.45311303186E+03  0.23079296552E+03  0.65121473014E+03  0.83012099699E+03  0.80270992978E+02 0.  0.
        254    2    1    2    0    0  0.45311303186E+03 -0.23079296552E+03  0.17318215435E+04  0.20130059199E+04  0.89129689918E+03 0.  0.
         23    2    4    4    0    0  0.30374840636E+03  0.25999526066E+03  0.36065882748E+03  0.54621699669E+03  0.91747412547E+02 0.  0.
         23    2    4    4    0    0  0.14936462551E+03 -0.49078822618E+03  0.13711627160E+04  0.14667889232E+04  0.90552068783E+02 0.  0.
          4    1    3    3  502    0 -0.25042469914E+02  0.33733766711E+02  0.72629002975E+02  0.83905091556E+02  0.00000000000E+00 0. -1.
         -3    1    3    3    0  502 -0.42807056195E+03  0.19705919881E+03  0.57858572716E+03  0.74621590543E+03  0.00000000000E+00 0.  1.
         11    1    5    5    0    0  0.33709370965E+02 -0.21994383878E+01  0.27411652911E+02  0.43503539344E+02  0.00000000000E+00 0. -1.
        -11    1    5    5    0    0  0.27003903539E+03  0.26219469905E+03  0.33324717457E+03  0.50271345735E+03  0.00000000000E+00 0.  1.
          1    1    6    6  503    0 -0.26444765138E+01 -0.11799880451E+03  0.28961048138E+03  0.31273781679E+03  0.00000000000E+00 0. -1.
         -1    1    6    6    0  503  0.15200910202E+03 -0.37278942168E+03  0.10815522346E+04  0.11540511064E+04  0.00000000000E+00 0.  1.
<mgrwt>
<rscale>  0 0.15506479E+04</rscale>
<asrwt>0</asrwt>
<pdfrwt beam="1">  1        2 0.40201253E+00 0.15506479E+04</pdfrwt>
<pdfrwt beam="2">  1       -1 0.35391590E-01 0.15506479E+04</pdfrwt>
<totfact> 0.25006741E+01</totfact>
</mgrwt>
</event>
<event>
12    6  0.1538774E-007  0.1406105E+04  0.7818608E-02  0.8949411E-01
          2   -1    0    0  501    0  0.00000000000E+00  0.00000000000E+00  0.13903630273E+04  0.13903630273E+04  0.00000000000E+00 0. -1.
         -1   -1    0    0    0  501 -0.00000000000E+00 -0.00000000000E+00 -0.35550648862E+03  0.35550648862E+03  0.00000000000E+00 0.  1.
         24    2    1    2    0    0  0.21052642984E+03 -0.22113155383E+03  0.65971021412E+03  0.73118963270E+03  0.78741162053E+02 0.  0.
        254    2    1    2    0    0 -0.21052642984E+03  0.22113155383E+03  0.37514632457E+03  0.10146798832E+04  0.89197531290E+03 0.  0.
         23    2    4    4    0    0  0.20924862898E+03 -0.19101555168E+03 -0.24858743899E+02  0.29737403321E+03  0.86841400066E+02 0.  0.
         23    2    4    4    0    0 -0.41977505882E+03  0.41214710551E+03  0.40000506847E+03  0.71730585001E+03  0.91909145758E+02 0.  0.
          2    1    3    3  502    0  0.16633846639E+03 -0.20265379980E+03  0.50161898837E+03  0.56600234758E+03  0.00000000000E+00 0. -1.
         -1    1    3    3    0  502  0.44187963445E+02 -0.18477754033E+02  0.15809122575E+03  0.16518728512E+03  0.00000000000E+00 0.  1.
         11    1    5    5    0    0  0.13805452921E+03 -0.17315928104E+03 -0.31452004601E+02  0.22367927539E+03  0.00000000000E+00 0. -1.
        -11    1    5    5    0    0  0.71194099771E+02 -0.17856270639E+02  0.65932607028E+01  0.73694757819E+02  0.00000000000E+00 0.  1.
          2    1    6    6  503    0 -0.31550474706E+03  0.35614040976E+03  0.33850348427E+03  0.58392109548E+03  0.00000000000E+00 0. -1.
         -2    1    6    6    0  503 -0.10427031175E+03  0.56006695747E+02  0.61501584197E+02  0.13338475453E+03  0.00000000000E+00 0.  1.
<mgrwt>
<rscale>  0 0.14061054E+04</rscale>
<asrwt>0</asrwt>
<pdfrwt beam="1">  1        2 0.21390200E+00 0.14061054E+04</pdfrwt>
<pdfrwt beam="2">  1       -1 0.54693307E-01 0.14061054E+04</pdfrwt>
<totfact> 0.54881250E+01</totfact>
</mgrwt>
</event>
<event>
12    6  0.1538774E-007  0.2125257E+04  0.7818608E-02  0.8550198E-01
         -1   -1    0    0    0  501 -0.00000000000E+00  0.00000000000E+00  0.40131579388E+03  0.40131579388E+03  0.00000000000E+00 0.  1.
          2   -1    0    0  501    0  0.00000000000E+00 -0.00000000000E+00 -0.28136924143E+04  0.28136924143E+04  0.00000000000E+00 0. -1.
         24    2    1    2    0    0  0.25233033308E+03  0.81398086333E+03 -0.13149607395E+04  0.15689755340E+04  0.79542672854E+02 0.  0.
        254    2    1    2    0    0 -0.25233033308E+03 -0.81398086333E+03 -0.10974158809E+04  0.16460326742E+04  0.88253413877E+03 0.  0.
         23    2    4    4    0    0 -0.56674219661E+03 -0.60516234879E+03 -0.81269566584E+03  0.11645212107E+04  0.90648877483E+02 0.  0.
         23    2    4    4    0    0  0.31441186353E+03 -0.20881851454E+03 -0.28472021503E+03  0.48151146354E+03  0.91256214736E+02 0.  0.
          2    1    3    3  502    0 -0.51045015114E+01  0.24637535756E+02 -0.48238123831E+02  0.54405704614E+02  0.00000000000E+00 0. -1.
         -1    1    3    3    0  502  0.25743483459E+03  0.78934332757E+03 -0.12667226157E+04  0.15145698294E+04  0.00000000000E+00 0.  1.
         11    1    5    5    0    0 -0.20426333985E+03 -0.18901331035E+03 -0.22074754385E+03  0.35521686561E+03  0.00000000000E+00 0. -1.
        -11    1    5    5    0    0 -0.36247885676E+03 -0.41614903844E+03 -0.59194812199E+03  0.80930434505E+03  0.00000000000E+00 0.  1.
          2    1    6    6  503    0  0.11252212195E+03 -0.78167005712E+02 -0.51067544806E+02  0.14621628788E+03  0.00000000000E+00 0. -1.
         -2    1    6    6    0  503  0.20188974159E+03 -0.13065150883E+03 -0.23365267022E+03  0.33529517565E+03  0.00000000000E+00 0.  1.
<mgrwt>
<rscale>  0 0.21252569E+04</rscale>
<asrwt>0</asrwt>
<pdfrwt beam="1">  1        2 0.43287575E+00 0.21252569E+04</pdfrwt>
<pdfrwt beam="2">  1       -1 0.61740893E-01 0.21252569E+04</pdfrwt>
<totfact> 0.63238185E+00</totfact>
</mgrwt>
</event>
<event>
12    6  0.1538774E-007  0.2586867E+04  0.7818608E-02  0.8372676E-01
         -1   -1    0    0    0  501 -0.00000000000E+00  0.00000000000E+00  0.14355681983E+04  0.14355681983E+04  0.00000000000E+00 0.  1.
          2   -1    0    0  501    0  0.00000000000E+00 -0.00000000000E+00 -0.11653713705E+04  0.11653713705E+04  0.00000000000E+00 0. -1.
         24    2    1    2    0    0 -0.30954300704E+03  0.57912344515E+03 -0.80508622224E+03  0.10417873665E+04  0.77176769718E+02 0.  0.
        254    2    1    2    0    0  0.30954300704E+03 -0.57912344515E+03  0.10752830501E+04  0.15591522023E+04  0.91843405545E+03 0.  0.
         23    2    4    4    0    0  0.23726780874E+03  0.14952994375E+02 -0.69990286577E+02  0.26387490006E+03  0.90618527701E+02 0.  0.
         23    2    4    4    0    0  0.72275198302E+02 -0.59407643952E+03  0.11452733367E+04  0.12952773022E+04  0.89116517810E+02 0.  0.
          4    1    3    3  502    0 -0.30600115426E+03  0.53789750589E+03 -0.73998563645E+03  0.96464976826E+03  0.00000000000E+00 0. -1.
         -3    1    3    3    0  502 -0.35418527846E+01  0.41225939260E+02 -0.65100585789E+02  0.77137598220E+02  0.00000000000E+00 0.  1.
         11    1    5    5    0    0  0.25996255773E-01 -0.65741367874E+01 -0.19213203743E+02  0.20306825167E+02  0.00000000000E+00 0.  1.
        -11    1    5    5    0    0  0.23724181249E+03  0.21527131162E+02 -0.50777082834E+02  0.24356807490E+03  0.00000000000E+00 0. -1.
          4    1    6    6  503    0  0.63215919302E+02 -0.34736408481E+03  0.58962068375E+03  0.68724857990E+03  0.00000000000E+00 0. -1.
         -4    1    6    6    0  503  0.90592789995E+01 -0.24671235471E+03  0.55565265290E+03  0.60802872233E+03  0.00000000000E+00 0.  1.
<mgrwt>
<rscale>  0 0.25868669E+04</rscale>
<asrwt>0</asrwt>
<pdfrwt beam="1">  1        2 0.17928790E+00 0.25868669E+04</pdfrwt>
<pdfrwt beam="2">  1       -1 0.22085665E+00 0.25868669E+04</pdfrwt>
<totfact> 0.21779792E+00</totfact>
</mgrwt>
</event>
<event>
12    6  0.1538774E-007  0.1205184E+04  0.7818608E-02  0.9108331E-01
          2   -1    0    0  501    0  0.00000000000E+00  0.00000000000E+00  0.16135626873E+04  0.16135626873E+04  0.00000000000E+00 0. -1.
         -1   -1    0    0    0  501 -0.00000000000E+00 -0.00000000000E+00 -0.22504056198E+03  0.22504056198E+03  0.00000000000E+00 0.  1.
         24    2    1    2    0    0 -0.16810481845E+03 -0.32786329939E+02  0.60663417454E+03  0.63548078397E+03  0.80601685221E+02 0.  0.
        254    2    1    2    0    0  0.16810481845E+03  0.32786329939E+02  0.78188795079E+03  0.12031224653E+04  0.89823199984E+03 0.  0.
         23    2    4    4    0    0  0.10720259352E+03  0.31479508326E+01  0.97204375252E+03  0.98184065153E+03  0.87405391931E+02 0.  0.
         23    2    4    4    0    0  0.60902224922E+02  0.29638379106E+02 -0.19015580173E+03  0.22128181378E+03  0.90658136226E+02 0.  0.
          2    1    3    3  502    0 -0.15141029171E+03 -0.36399890491E+02  0.59442611620E+03  0.61448550519E+03  0.00000000000E+00 0. -1.
         -1    1    3    3    0  502 -0.16694526734E+02  0.36135605521E+01  0.12208058337E+02  0.20995278781E+02  0.00000000000E+00 0.  1.
         11    1    5    5    0    0  0.79443752047E+02  0.20149271490E+02  0.88702492842E+03  0.89080330405E+03  0.00000000000E+00 0.  1.
        -11    1    5    5    0    0  0.27758841476E+02 -0.17001320658E+02  0.85018824099E+02  0.91037347476E+02  0.00000000000E+00 0. -1.
          4    1    6    6  503    0 -0.20531831470E+01 -0.21260399299E+02 -0.96210699163E+01  0.23426163274E+02  0.00000000000E+00 0. -1.
         -4    1    6    6    0  503  0.62955408069E+02  0.50898778405E+02 -0.18053473181E+03  0.19785565051E+03  0.00000000000E+00 0.  1.
<mgrwt>
<rscale>  0 0.12051839E+04</rscale>
<asrwt>0</asrwt>
<pdfrwt beam="1">  1        2 0.24824041E+00 0.12051839E+04</pdfrwt>
<pdfrwt beam="2">  1       -1 0.34621626E-01 0.12051839E+04</pdfrwt>
<totfact> 0.97418956E+01</totfact>
</mgrwt>
</event>
<event>
12    6  0.1538774E-007  0.1663439E+04  0.7818608E-02  0.8782496E-01
          2   -1    0    0  501    0  0.00000000000E+00  0.00000000000E+00  0.14456583796E+04  0.14456583796E+04  0.00000000000E+00 0. -1.
         -3   -1    0    0    0  501 -0.00000000000E+00 -0.00000000000E+00 -0.47850662089E+03  0.47850662089E+03  0.00000000000E+00 0.  1.
         24    2    1    2    0    0  0.29507028171E+03  0.10759439962E+03 -0.23492282806E+03  0.40046269350E+03  0.80861658147E+02 0.  0.
        254    2    1    2    0    0 -0.29507028171E+03 -0.10759439962E+03  0.12020745868E+04  0.15237023070E+04  0.88206710754E+03 0.  0.
         23    2    4    4    0    0  0.30086102968E+03 -0.10938530773E+03  0.43327988574E+03  0.54685152831E+03  0.93982072200E+02 0.  0.
         23    2    4    4    0    0 -0.59593131140E+03  0.17909081186E+01  0.76879470107E+03  0.97685077872E+03  0.89748628050E+02 0.  0.
          2    1    3    3  502    0  0.16454258808E+02 -0.12742632996E+02 -0.14208587494E+02  0.25199231876E+02  0.00000000000E+00 0. -1.
         -1    1    3    3    0  502  0.27861602291E+03  0.12033703261E+03 -0.22071424057E+03  0.37526346162E+03  0.00000000000E+00 0.  1.
         11    1    5    5    0    0  0.22810951361E+02 -0.53109602188E+01  0.89994947653E+02  0.92992668547E+02  0.00000000000E+00 0. -1.
        -11    1    5    5    0    0  0.27805007832E+03 -0.10407434751E+03  0.34328493809E+03  0.45385885976E+03  0.00000000000E+00 0.  1.
          1    1    6    6  503    0 -0.39478550080E+03 -0.41294521108E+02  0.50850846311E+03  0.64509044806E+03  0.00000000000E+00 0. -1.
         -1    1    6    6    0  503 -0.20114581059E+03  0.43085429227E+02  0.26028623795E+03  0.33176033066E+03  0.00000000000E+00 0.  1.
<mgrwt>
<rscale>  0 0.16634387E+04</rscale>
<asrwt>0</asrwt>
<pdfrwt beam="1">  1        2 0.22240898E+00 0.16634387E+04</pdfrwt>
<pdfrwt beam="2">  1       -3 0.73616404E-01 0.16634387E+04</pdfrwt>
<totfact> 0.14497920E+01</totfact>
</mgrwt>
</event>
<event>
12    6  0.1538774E-007  0.1652001E+04  0.7818608E-02  0.8789224E-01
          2   -1    0    0  501    0  0.00000000000E+00  0.00000000000E+00  0.57256201164E+03  0.57256201164E+03  0.00000000000E+00 0. -1.
         -1   -1    0    0    0  501 -0.00000000000E+00 -0.00000000000E+00 -0.11916201699E+04  0.11916201699E+04  0.00000000000E+00 0.  1.
         24    2    1    2    0    0 -0.42559984738E+02 -0.49713613207E+03  0.90027324135E+02  0.51328801204E+03  0.80024859314E+02 0.  0.
        254    2    1    2    0    0  0.42559984738E+02  0.49713613207E+03 -0.70908548235E+03  0.12508941695E+04  0.90165310170E+03 0.  0.
         23    2    4    4    0    0 -0.33355352328E+03  0.22337075980E+03 -0.16893888754E+02  0.41189593694E+03  0.90666477623E+02 0.  0.
         23    2    4    4    0    0  0.37611350801E+03  0.27376537227E+03 -0.69219159360E+03  0.83899823253E+03  0.91542241480E+02 0.  0.
          4    1    3    3  502    0 -0.31428244363E+02 -0.49199059432E+03  0.86472222541E+02  0.50051965468E+03  0.00000000000E+00 0. -1.
         -3    1    3    3    0  502 -0.11131740376E+02 -0.51455377421E+01  0.35551015935E+01  0.12768357364E+02  0.00000000000E+00 0.  1.
         11    1    5    5    0    0 -0.18372093006E+02  0.46641336497E+02 -0.45754628619E+01  0.50337688982E+02  0.00000000000E+00 0.  1.
        -11    1    5    5    0    0 -0.31518143027E+03  0.17672942330E+03 -0.12318425892E+02  0.36155824795E+03  0.00000000000E+00 0. -1.
          3    1    6    6  503    0  0.12987673941E+03  0.14907282107E+03 -0.30591230386E+03  0.36424306592E+03  0.00000000000E+00 0. -1.
         -3    1    6    6    0  503  0.24623676860E+03  0.12469255120E+03 -0.38627928974E+03  0.47475516661E+03  0.00000000000E+00 0.  1.
<mgrwt>
<rscale>  0 0.16520005E+04</rscale>
<asrwt>0</asrwt>
<pdfrwt beam="1">  1        2 0.88086463E-01 0.16520005E+04</pdfrwt>
<pdfrwt beam="2">  1       -1 0.18332618E+00 0.16520005E+04</pdfrwt>
<totfact> 0.11280172E+01</totfact>
</mgrwt>
</event>
<event>
12    6  0.1538774E-007  0.1573020E+04  0.7818608E-02  0.8837297E-01
         -1   -1    0    0    0  501 -0.00000000000E+00  0.00000000000E+00  0.11882105566E+04  0.11882105566E+04  0.00000000000E+00 0.  1.
          2   -1    0    0  501    0  0.00000000000E+00 -0.00000000000E+00 -0.52061291124E+03  0.52061291124E+03  0.00000000000E+00 0. -1.
         24    2    1    2    0    0  0.34023739239E+03 -0.85030749719E+02 -0.19619236611E+03  0.41063365925E+03  0.84479855666E+02 0.  0.
        254    2    1    2    0    0 -0.34023739239E+03  0.85030749719E+02  0.86379001144E+03  0.12981898086E+04  0.90342231741E+03 0.  0.
         23    2    4    4    0    0 -0.58825291033E+03  0.17541518810E+03  0.34688011275E+03  0.71088547137E+03  0.90666234410E+02 0.  0.
         23    2    4    4    0    0  0.24801551794E+03 -0.90384438376E+02  0.51690989869E+03  0.58730433718E+03  0.89718990559E+02 0.  0.
          4    1    3    3  502    0  0.36062981657E+02 -0.20607938237E+02 -0.55602696002E+02  0.69403786403E+02  0.00000000000E+00 0. -1.
         -3    1    3    3    0  502  0.30417441073E+03 -0.64422811483E+02 -0.14058967010E+03  0.34122987285E+03  0.00000000000E+00 0.  1.
         11    1    5    5    0    0 -0.56744317305E+03  0.14920107249E+03  0.32292405059E+03  0.66972580742E+03  0.00000000000E+00 0. -1.
        -11    1    5    5    0    0 -0.20809737276E+02  0.26214115603E+02  0.23956062155E+02  0.41159663948E+02  0.00000000000E+00 0.  1.
          4    1    6    6  503    0  0.56819303987E+02 -0.83403013644E+01  0.50029604095E+02  0.76164002116E+02  0.00000000000E+00 0.  1.
         -4    1    6    6    0  503  0.19119621395E+03 -0.82044137012E+02  0.46688029460E+03  0.51114033506E+03  0.00000000000E+00 0. -1.
<mgrwt>
<rscale>  0 0.15730197E+04</rscale>
<asrwt>0</asrwt>
<pdfrwt beam="1">  1        2 0.80094294E-01 0.15730197E+04</pdfrwt>
<pdfrwt beam="2">  1       -1 0.18280162E+00 0.15730197E+04</pdfrwt>
<totfact> 0.12817805E+01</totfact>
</mgrwt>
</event>
<event>
12    6  0.1538774E-007  0.1085269E+04  0.7818608E-02  0.9219669E-01
         -1   -1    0    0    0  501 -0.00000000000E+00  0.00000000000E+00  0.90234171472E+03  0.90234171472E+03  0.00000000000E+00 0.  1.
          2   -1    0    0  501    0  0.00000000000E+00 -0.00000000000E+00 -0.32632027612E+03  0.32632027612E+03  0.00000000000E+00 0. -1.
         24    2    1    2    0    0 -0.98305843423E+02  0.64125848496E+02  0.21826782060E+03  0.26041898017E+03  0.80006502422E+02 0.  0.
        254    2    1    2    0    0  0.98305843423E+02 -0.64125848496E+02  0.35775361801E+03  0.96824301067E+03  0.89203739452E+03 0.  0.
         23    2    4    4    0    0  0.16613080567E+03 -0.19520283174E+03 -0.22891564867E+03  0.35627911449E+03  0.93961923701E+02 0.  0.
         23    2    4    4    0    0 -0.67824962246E+02  0.13107698324E+03  0.58666926668E+03  0.61196389618E+03  0.92399029907E+02 0.  0.
          4    1    3    3  502    0 -0.10700910083E+03  0.69017593507E+02  0.17752541988E+03  0.21847116646E+03  0.00000000000E+00 0. -1.
         -1    1    3    3    0  502  0.87032574026E+01 -0.48917450116E+01  0.40742400718E+02  0.41947813709E+02  0.00000000000E+00 0.  1.
         11    1    5    5    0    0 -0.82710279274E+01 -0.20212992608E+02 -0.40537652765E+01  0.22212788795E+02  0.00000000000E+00 0. -1.
        -11    1    5    5    0    0  0.17440183360E+03 -0.17498983913E+03 -0.22486188339E+03  0.33406632570E+03  0.00000000000E+00 0.  1.
          1    1    6    6  503    0  0.12236396990E+02  0.17103110167E+02  0.22260591913E+02  0.30623189595E+02  0.00000000000E+00 0. -1.
         -1    1    6    6    0  503 -0.80061359236E+02  0.11397387308E+03  0.56440867476E+03  0.58134070659E+03  0.00000000000E+00 0.  1.
<mgrwt>
<rscale>  0 0.10852694E+04</rscale>
<asrwt>0</asrwt>
<pdfrwt beam="1">  1        2 0.50203120E-01 0.10852694E+04</pdfrwt>
<pdfrwt beam="2">  1       -1 0.13882180E+00 0.10852694E+04</pdfrwt>
<totfact> 0.48767544E+01</totfact>
</mgrwt>
</event>
<event>
12    6  0.1538774E-007  0.2330024E+04  0.7818608E-02  0.8466176E-01
         -1   -1    0    0    0  501 -0.00000000000E+00  0.00000000000E+00  0.14301951749E+04  0.14301951749E+04  0.00000000000E+00 0.  1.
          2   -1    0    0  501    0  0.00000000000E+00 -0.00000000000E+00 -0.94899873278E+03  0.94899873278E+03  0.00000000000E+00 0. -1.
         24    2    1    2    0    0 -0.23502138422E+03 -0.95851433715E+03  0.11959262026E+03  0.99738851824E+03  0.80601959862E+02 0.  0.
        254    2    1    2    0    0  0.23502138422E+03  0.95851433715E+03  0.36160382188E+03  0.13818053895E+04  0.89701952307E+03 0.  0.
         23    2    4    4    0    0  0.10644709970E+03 -0.88690127162E+02  0.27170594803E+03  0.31884364634E+03  0.92952810214E+02 0.  0.
         23    2    4    4    0    0  0.12857428452E+03  0.10472044643E+04  0.89897873858E+02  0.10629617431E+04  0.92938167038E+02 0.  0.
          4    1    3    3  502    0 -0.21342662148E+03 -0.85825262372E+03  0.82118944288E+02  0.88819592990E+03  0.00000000000E+00 0. -1.
         -3    1    3    3    0  502 -0.21594762734E+02 -0.10026171343E+03  0.37473675971E+02  0.10919258834E+03  0.00000000000E+00 0.  1.
         11    1    5    5    0    0  0.84224182105E+01 -0.58140519649E+02  0.14013854470E+03  0.15195416699E+03  0.00000000000E+00 0.  1.
        -11    1    5    5    0    0  0.98024681491E+02 -0.30549607513E+02  0.13156740332E+03  0.16688947935E+03  0.00000000000E+00 0. -1.
          4    1    6    6  503    0  0.10981589142E+02  0.95903482710E+02 -0.18578809435E+02  0.98301808000E+02  0.00000000000E+00 0. -1.
         -4    1    6    6    0  503  0.11759269538E+03  0.95130098160E+03  0.10847668329E+03  0.96465993512E+03  0.00000000000E+00 0.  1.
<mgrwt>
<rscale>  0 0.23300244E+04</rscale>
<asrwt>0</asrwt>
<pdfrwt beam="1">  1        2 0.14599980E+00 0.23300244E+04</pdfrwt>
<pdfrwt beam="2">  1       -1 0.22003003E+00 0.23300244E+04</pdfrwt>
<totfact> 0.30847328E+00</totfact>
</mgrwt>
</event>
<event>
12    6  0.1538774E-007  0.1519046E+04  0.7818608E-02  0.8871886E-01
          2   -1    0    0  501    0  0.00000000000E+00  0.00000000000E+00  0.56643544180E+03  0.56643544180E+03  0.00000000000E+00 0. -1.
         -1   -1    0    0    0  501 -0.00000000000E+00 -0.00000000000E+00 -0.10184301400E+04  0.10184301400E+04  0.00000000000E+00 0.  1.
         24    2    1    2    0    0 -0.37550405289E+03  0.23098034212E+03 -0.38269167065E+03  0.58914941729E+03  0.79302641381E+02 0.  0.
        254    2    1    2    0    0  0.37550405289E+03 -0.23098034212E+03 -0.69303027541E+02  0.99571616449E+03  0.89010817231E+03 0.  0.
         23    2    4    4    0    0  0.47380132654E+03  0.17359304337E+03 -0.20020850509E+03  0.54966248030E+03  0.86157733272E+02 0.  0.
         23    2    4    4    0    0 -0.98297273651E+02 -0.40457338550E+03  0.13090547755E+03  0.44605368418E+03  0.92117679412E+02 0.  0.
          2    1    3    3  502    0 -0.19259909482E+03  0.12307406321E+03 -0.14629635923E+03  0.27137476133E+03  0.00000000000E+00 0. -1.
         -1    1    3    3    0  502 -0.18290495807E+03  0.10790627891E+03 -0.23639531142E+03  0.31777465597E+03  0.00000000000E+00 0.  1.
         11    1    5    5    0    0  0.43559188508E+03  0.14031149695E+03 -0.15939150637E+03  0.48459597484E+03  0.00000000000E+00 0.  1.
        -11    1    5    5    0    0  0.38209441457E+02  0.33281546424E+02 -0.40816998719E+02  0.65066505464E+02  0.00000000000E+00 0. -1.
          2    1    6    6  503    0 -0.68375480665E+02 -0.10479967762E+03  0.36628252096E+02  0.13038331043E+03  0.00000000000E+00 0. -1.
         -2    1    6    6    0  503 -0.29921792986E+02 -0.29977370787E+03  0.94277225455E+02  0.31567037376E+03  0.00000000000E+00 0.  1.
<mgrwt>
<rscale>  0 0.15190457E+04</rscale>
<asrwt>0</asrwt>
<pdfrwt beam="1">  1        2 0.87143914E-01 0.15190457E+04</pdfrwt>
<pdfrwt beam="2">  1       -1 0.15668156E+00 0.15190457E+04</pdfrwt>
<totfact> 0.18155699E+01</totfact>
</mgrwt>
</event>
<event>
12    6  0.1538774E-007  0.1734975E+04  0.7818608E-02  0.8741664E-01
         -1   -1    0    0    0  501 -0.00000000000E+00  0.00000000000E+00  0.75501673570E+03  0.75501673570E+03  0.00000000000E+00 0.  1.
          2   -1    0    0  501    0  0.00000000000E+00 -0.00000000000E+00 -0.99671287467E+03  0.99671287467E+03  0.00000000000E+00 0. -1.
         24    2    1    2    0    0 -0.34787943358E+02 -0.47715016464E+03 -0.50312327128E+03  0.69886899608E+03  0.80014792137E+02 0.  0.
        254    2    1    2    0    0  0.34787943358E+02  0.47715016464E+03  0.26142713230E+03  0.10528606143E+04  0.90071574151E+03 0.  0.
         23    2    4    4    0    0  0.12789162188E+03  0.69914542370E+03  0.32357415275E+03  0.78620536128E+03  0.90873799049E+02 0.  0.
         23    2    4    4    0    0 -0.93103678525E+02 -0.22199525906E+03 -0.62147020445E+02  0.26665525301E+03  0.96398038387E+02 0.  0.
          4    1    3    3  502    0 -0.58774588621E+02 -0.26874965176E+03 -0.29495911285E+03  0.40333820281E+03  0.00000000000E+00 0. -1.
         -1    1    3    3    0  502  0.23986645263E+02 -0.20840051287E+03 -0.20816415843E+03  0.29553079327E+03  0.00000000000E+00 0.  1.
         11    1    5    5    0    0  0.51528049047E+02  0.15894819638E+03  0.11144849321E+03  0.20084928581E+03  0.00000000000E+00 0.  1.
        -11    1    5    5    0    0  0.76363572837E+02  0.54019722732E+03  0.21212565954E+03  0.58535607547E+03  0.00000000000E+00 0. -1.
          1    1    6    6  503    0 -0.87512154266E+02 -0.23083614576E+03 -0.52421942468E+02  0.25237227143E+03  0.00000000000E+00 0. -1.
         -1    1    6    6    0  503 -0.55915242595E+01  0.88408866971E+01 -0.97250779772E+01  0.14282981579E+02  0.00000000000E+00 0.  1.
<mgrwt>
<rscale>  0 0.17349754E+04</rscale>
<asrwt>0</asrwt>
<pdfrwt beam="1">  1        2 0.15334044E+00 0.17349754E+04</pdfrwt>
<pdfrwt beam="2">  1       -1 0.11615642E+00 0.17349754E+04</pdfrwt>
<totfact> 0.18365381E+01</totfact>
</mgrwt>
</event>
<event>
12    6  0.1538774E-007  0.1874943E+04  0.7818608E-02  0.8667430E-01
         -1   -1    0    0    0  501 -0.00000000000E+00  0.00000000000E+00  0.92765889927E+03  0.92765889927E+03  0.00000000000E+00 0.  1.
          2   -1    0    0  501    0  0.00000000000E+00 -0.00000000000E+00 -0.94738797178E+03  0.94738797178E+03  0.00000000000E+00 0. -1.
         24    2    1    2    0    0  0.21280799701E+02  0.47385076780E+03 -0.54856405350E+03  0.72958095313E+03  0.79865034891E+02 0.  0.
        254    2    1    2    0    0 -0.21280799701E+02 -0.47385076780E+03  0.52883498099E+03  0.11454659179E+04  0.89857571156E+03 0.  0.
         23    2    4    4    0    0  0.37166166815E+03 -0.26066751027E+03  0.22844528112E+02  0.46342930855E+03  0.90359864311E+02 0.  0.
         23    2    4    4    0    0 -0.39294246785E+03 -0.21318325753E+03  0.50599045287E+03  0.68203660936E+03  0.96419467812E+02 0.  0.
          2    1    3    3  502    0 -0.93343810611E+01  0.15408694282E+03 -0.12903791052E+03  0.20119815846E+03  0.00000000000E+00 0. -1.
         -1    1    3    3    0  502  0.30615180763E+02  0.31976382499E+03 -0.41952614298E+03  0.52838279467E+03  0.00000000000E+00 0.  1.
         11    1    5    5    0    0  0.35496466185E+03 -0.23317447561E+03  0.40689305327E+02  0.42664489544E+03  0.00000000000E+00 0.  1.
        -11    1    5    5    0    0  0.16697006303E+02 -0.27493034658E+02 -0.17844777214E+02  0.36784413112E+02  0.00000000000E+00 0. -1.
          2    1    6    6  503    0 -0.39971693342E+02  0.71832069384E+01  0.35555988241E+02  0.53977430750E+02  0.00000000000E+00 0. -1.
         -2    1    6    6    0  503 -0.35297077451E+03 -0.22036646447E+03  0.47043446463E+03  0.62805917861E+03  0.00000000000E+00 0.  1.
<mgrwt>
<rscale>  0 0.18749431E+04</rscale>
<asrwt>0</asrwt>
<pdfrwt beam="1">  1        2 0.14575200E+00 0.18749431E+04</pdfrwt>
<pdfrwt beam="2">  1       -1 0.14271675E+00 0.18749431E+04</pdfrwt>
<totfact> 0.11631375E+01</totfact>
</mgrwt>
</event>
<event>
12    6  0.1538774E-007  0.1708664E+04  0.7818608E-02  0.8756438E-01
          2   -1    0    0  501    0  0.00000000000E+00  0.00000000000E+00  0.15656604631E+04  0.15656604631E+04  0.00000000000E+00 0. -1.
         -1   -1    0    0    0  501 -0.00000000000E+00 -0.00000000000E+00 -0.46618221918E+03  0.46618221918E+03  0.00000000000E+00 0.  1.
         24    2    1    2    0    0  0.30953491362E+02 -0.16702962452E+03 -0.30341059964E+03  0.35688872609E+03  0.80340256047E+02 0.  0.
        254    2    1    2    0    0 -0.30953491362E+02  0.16702962452E+03  0.14028888435E+04  0.16749539562E+04  0.89917553007E+03 0.  0.
         23    2    4    4    0    0  0.25090790120E+03  0.16107215688E+03  0.83631212152E+02  0.32266990748E+03  0.90678966361E+02 0.  0.
         23    2    4    4    0    0 -0.28186139256E+03  0.59574676449E+01  0.13192576314E+04  0.13522840487E+04  0.93542045784E+02 0.  0.
          4    1    3    3  502    0  0.36268861276E+02 -0.53520903914E+02 -0.59750743658E+02  0.88034475189E+02  0.00000000000E+00 0. -1.
         -3    1    3    3    0  502 -0.53153699144E+01 -0.11350872061E+03 -0.24365985598E+03  0.26885425090E+03  0.00000000000E+00 0.  1.
         11    1    5    5    0    0  0.77519622652E+02  0.12812697175E+02 -0.30355629398E+01  0.78629967235E+02  0.00000000000E+00 0. -1.
        -11    1    5    5    0    0  0.17338827855E+03  0.14825945970E+03  0.86666775092E+02  0.24403994025E+03  0.00000000000E+00 0.  1.
          3    1    6    6  503    0 -0.98942170269E+02 -0.40928169798E+02  0.53545732302E+03  0.54605788422E+03  0.00000000000E+00 0. -1.
         -3    1    6    6    0  503 -0.18291922229E+03  0.46885637443E+02  0.78380030837E+03  0.80622616448E+03  0.00000000000E+00 0.  1.
<mgrwt>
<rscale>  0 0.17086639E+04</rscale>
<asrwt>0</asrwt>
<pdfrwt beam="1">  1        2 0.24087084E+00 0.17086639E+04</pdfrwt>
<pdfrwt beam="2">  1       -1 0.71720342E-01 0.17086639E+04</pdfrwt>
<totfact> 0.24784588E+01</totfact>
</mgrwt>
</event>
<event>
12    6  0.1538774E-007  0.1906851E+04  0.7818608E-02  0.8651454E-01
          2   -1    0    0  501    0  0.00000000000E+00  0.00000000000E+00  0.19699855168E+04  0.19699855168E+04  0.00000000000E+00 0. -1.
         -1   -1    0    0    0  501 -0.00000000000E+00 -0.00000000000E+00 -0.46143476046E+03  0.46143476046E+03  0.00000000000E+00 0.  1.
         24    2    1    2    0    0 -0.22785120010E+03 -0.35277117400E+03 -0.18724911761E+03  0.46657474436E+03  0.79158634659E+02 0.  0.
        254    2    1    2    0    0  0.22785120010E+03  0.35277117400E+03  0.16957998740E+04  0.19648455329E+04  0.89917578096E+03 0.  0.
         23    2    4    4    0    0  0.50930918957E+03  0.30998142010E+03  0.69212954952E+03  0.91801770057E+03  0.90713030266E+02 0.  0.
         23    2    4    4    0    0 -0.28145798947E+03  0.42789753895E+02  0.10036703245E+04  0.10468278323E+04  0.86283413847E+02 0.  0.
          2    1    3    3  502    0 -0.57939986524E+02 -0.37085728871E+02 -0.32858533066E+02  0.76236976065E+02  0.00000000000E+00 0. -1.
         -1    1    3    3    0  502 -0.16991121357E+03 -0.31568544513E+03 -0.15439058454E+03  0.39033776830E+03  0.00000000000E+00 0.  1.
         11    1    5    5    0    0  0.41018458383E+03  0.21264165045E+03  0.49823794077E+03  0.67949165553E+03  0.00000000000E+00 0. -1.
        -11    1    5    5    0    0  0.99124605743E+02  0.97339769651E+02  0.19389160875E+03  0.23852604504E+03  0.00000000000E+00 0.  1.
          4    1    6    6  503    0 -0.20562951833E+03  0.58152098630E+02  0.82295525875E+03  0.85024733065E+03  0.00000000000E+00 0. -1.
         -4    1    6    6    0  503 -0.75828471145E+02 -0.15362344735E+02  0.18071506571E+03  0.19658050169E+03  0.00000000000E+00 0.  1.
<mgrwt>
<rscale>  0 0.19068506E+04</rscale>
<asrwt>0</asrwt>
<pdfrwt beam="1">  1        2 0.30307469E+00 0.19068506E+04</pdfrwt>
<pdfrwt beam="2">  1       -1 0.70989964E-01 0.19068506E+04</pdfrwt>
<totfact> 0.14832939E+01</totfact>
</mgrwt>
</event>
<event>
12    6  0.1538774E-007  0.1300315E+04  0.7818608E-02  0.9029315E-01
          2   -1    0    0  501    0  0.00000000000E+00  0.00000000000E+00  0.52577551163E+03  0.52577551163E+03  0.00000000000E+00 0. -1.
         -1   -1    0    0    0  501 -0.00000000000E+00 -0.00000000000E+00 -0.80396483748E+03  0.80396483748E+03  0.00000000000E+00 0.  1.
         24    2    1    2    0    0 -0.15285219335E+02 -0.17906981688E+03  0.19091353686E+03  0.27424279801E+03  0.80383433956E+02 0.  0.
        254    2    1    2    0    0  0.15285219335E+02  0.17906981688E+03 -0.46910286271E+03  0.10554975511E+04  0.92828764256E+03 0.  0.
         23    2    4    4    0    0 -0.36689350060E+03  0.25989377172E+03 -0.29267422968E+02  0.45988936812E+03  0.92119680346E+02 0.  0.
         23    2    4    4    0    0  0.38217871994E+03 -0.80823954834E+02 -0.43983543974E+03  0.59560818297E+03  0.93278121379E+02 0.  0.
          4    1    3    3  502    0  0.56859351387E+01 -0.71006149963E+02  0.13049763238E+03  0.14867358625E+03  0.00000000000E+00 0. -1.
         -1    1    3    3    0  502 -0.20971154473E+02 -0.10806366692E+03  0.60415904481E+02  0.12556921176E+03  0.00000000000E+00 0.  1.
         11    1    5    5    0    0 -0.29882707034E+03  0.22445735652E+03 -0.57477354109E+02  0.37813009547E+03  0.00000000000E+00 0. -1.
        -11    1    5    5    0    0 -0.68066430259E+02  0.35436415200E+02  0.28209931140E+02  0.81759272657E+02  0.00000000000E+00 0.  1.
          3    1    6    6  503    0  0.10741324792E+03 -0.63559819812E+02 -0.11399667547E+03  0.16903460753E+03  0.00000000000E+00 0. -1.
         -3    1    6    6    0  503  0.27476547202E+03 -0.17264135022E+02 -0.32583876427E+03  0.42657357545E+03  0.00000000000E+00 0.  1.
<mgrwt>
<rscale>  0 0.13003154E+04</rscale>
<asrwt>0</asrwt>
<pdfrwt beam="1">  1        2 0.80888540E-01 0.13003154E+04</pdfrwt>
<pdfrwt beam="2">  1       -1 0.12368690E+00 0.13003154E+04</pdfrwt>
<totfact> 0.37395138E+01</totfact>
</mgrwt>
</event>
<event>
12    6  0.1538774E-007  0.1588708E+04  0.7818608E-02  0.8827516E-01
          2   -1    0    0  501    0  0.00000000000E+00  0.00000000000E+00  0.32376882946E+04  0.32376882946E+04  0.00000000000E+00 0. -1.
         -1   -1    0    0    0  501 -0.00000000000E+00 -0.00000000000E+00 -0.19489151517E+03  0.19489151517E+03  0.00000000000E+00 0.  1.
         24    2    1    2    0    0 -0.30747440765E+03  0.28379108954E+03  0.32642700955E+03  0.53613511159E+03  0.76212672491E+02 0.  0.
        254    2    1    2    0    0  0.30747440765E+03 -0.28379108954E+03  0.27163697699E+04  0.28964446982E+04  0.91413853934E+03 0.  0.
         23    2    4    4    0    0  0.24263348263E+03 -0.59702241872E+03  0.20498506782E+04  0.21507824062E+04  0.93114878879E+02 0.  0.
         23    2    4    4    0    0  0.64840925018E+02  0.31323132918E+03  0.66651909167E+03  0.74566229196E+03  0.97192298782E+02 0.  0.
          4    1    3    3  502    0 -0.34200059393E+02  0.59737186423E+01  0.17700298485E+02  0.38969602812E+02  0.00000000000E+00 0. -1.
         -3    1    3    3    0  502 -0.27327434826E+03  0.27781737090E+03  0.30872671107E+03  0.49716550877E+03  0.00000000000E+00 0.  1.
         11    1    5    5    0    0  0.14427880347E+03 -0.38460892724E+03  0.11570256939E+04  0.12277820884E+04  0.00000000000E+00 0. -1.
        -11    1    5    5    0    0  0.98354679166E+02 -0.21241349148E+03  0.89282498425E+03  0.92300031786E+03  0.00000000000E+00 0.  1.
          1    1    6    6  503    0 -0.11070511322E+02  0.15406504583E+03  0.36543060569E+03  0.39673432186E+03  0.00000000000E+00 0. -1.
         -1    1    6    6    0  503  0.75911436341E+02  0.15916628335E+03  0.30108848599E+03  0.34892797010E+03  0.00000000000E+00 0.  1.
<mgrwt>
<rscale>  0 0.15887076E+04</rscale>
<asrwt>0</asrwt>
<pdfrwt beam="1">  1        2 0.49810585E+00 0.15887076E+04</pdfrwt>
<pdfrwt beam="2">  1       -1 0.29983312E-01 0.15887076E+04</pdfrwt>
<totfact> 0.13793166E+01</totfact>
</mgrwt>
</event>
<event>
12    6  0.1538774E-007  0.4334269E+04  0.7818608E-02  0.7940312E-01
         -1   -1    0    0    0  501 -0.00000000000E+00  0.00000000000E+00  0.10561058099E+04  0.10561058099E+04  0.00000000000E+00 0.  1.
          2   -1    0    0  501    0  0.00000000000E+00 -0.00000000000E+00 -0.44469711641E+04  0.44469711641E+04  0.00000000000E+00 0. -1.
         24    2    1    2    0    0  0.58586941732E+03  0.12818141780E+04  0.30689351177E+03  0.14446047149E+04  0.80053693413E+02 0.  0.
        254    2    1    2    0    0 -0.58586941732E+03 -0.12818141780E+04 -0.36977588660E+04  0.40584722590E+04  0.90082511354E+03 0.  0.
         23    2    4    4    0    0 -0.59321916068E+03 -0.13967794215E+04 -0.34495172144E+04  0.37696645674E+04  0.91105504315E+02 0.  0.
         23    2    4    4    0    0  0.73497433610E+01  0.11496524356E+03 -0.24824165158E+03  0.28880769165E+03  0.92276428325E+02 0.  0.
          4    1    3    3  502    0  0.17866656840E+03  0.40706728746E+03  0.59522801266E+02  0.44851809668E+03  0.00000000000E+00 0. -1.
         -3    1    3    3    0  502  0.40720284892E+03  0.87474689051E+03  0.24737071051E+03  0.99608661824E+03  0.00000000000E+00 0.  1.
         11    1    5    5    0    0 -0.37591471504E+02 -0.60586323702E+02 -0.20533696470E+03  0.21736395843E+03  0.00000000000E+00 0. -1.
        -11    1    5    5    0    0 -0.55562768918E+03 -0.13361930978E+04 -0.32441802497E+04  0.35523006089E+04  0.00000000000E+00 0.  1.
          3    1    6    6  503    0  0.38216563855E+01 -0.11570950145E+02 -0.25884045628E+01  0.12457599406E+02  0.00000000000E+00 0. -1.
         -3    1    6    6    0  503  0.35280869755E+01  0.12653619370E+03 -0.24565324702E+03  0.27635009224E+03  0.00000000000E+00 0.  1.
<mgrwt>
<rscale>  0 0.43342691E+04</rscale>
<asrwt>0</asrwt>
<pdfrwt beam="1">  1        2 0.68414940E+00 0.43342691E+04</pdfrwt>
<pdfrwt beam="2">  1       -1 0.16247782E+00 0.43342691E+04</pdfrwt>
<totfact> 0.33503528E-02</totfact>
</mgrwt>
</event>
<event>
12    6  0.1538774E-007  0.2471365E+04  0.7818608E-02  0.8413258E-01
          2   -1    0    0  501    0  0.00000000000E+00  0.00000000000E+00  0.10687346088E+04  0.10687346088E+04  0.00000000000E+00 0. -1.
         -1   -1    0    0    0  501 -0.00000000000E+00 -0.00000000000E+00 -0.14287094000E+04  0.14287094000E+04  0.00000000000E+00 0.  1.
         24    2    1    2    0    0  0.36539610669E+03  0.99575644296E+03 -0.20040366122E+01  0.10637647519E+04  0.80908731031E+02 0.  0.
        254    2    1    2    0    0 -0.36539610669E+03 -0.99575644296E+03 -0.35797075450E+03  0.14336792569E+04  0.89568294733E+03 0.  0.
         23    2    4    4    0    0  0.41950895813E+01  0.61437655368E+02  0.16073053185E+03  0.19599466869E+03  0.93741250327E+02 0.  0.
         23    2    4    4    0    0 -0.36959119627E+03 -0.10571940983E+04 -0.51870128635E+03  0.12376845882E+04  0.92493791964E+02 0.  0.
          4    1    3    3  502    0  0.31845373839E+03  0.92907723988E+03  0.15779485742E+01  0.98214041312E+03  0.00000000000E+00 0. -1.
         -3    1    3    3    0  502  0.46942368297E+02  0.66679203078E+02 -0.35819851864E+01  0.81624338787E+02  0.00000000000E+00 0.  1.
         11    1    5    5    0    0  0.44837788083E+01  0.75809570880E+02  0.16445723491E+03  0.18114463123E+03  0.00000000000E+00 0. -1.
        -11    1    5    5    0    0 -0.28868922699E+00 -0.14371915512E+02 -0.37267030582E+01  0.14850037463E+02  0.00000000000E+00 0.  1.
          3    1    6    6  503    0 -0.15756078796E+03 -0.55295740498E+03 -0.23099155403E+03  0.61963246498E+03  0.00000000000E+00 0. -1.
         -3    1    6    6    0  503 -0.21203040831E+03 -0.50423669335E+03 -0.28770973232E+03  0.61805212324E+03  0.00000000000E+00 0.  1.
<mgrwt>
<rscale>  0 0.24713650E+04</rscale>
<asrwt>0</asrwt>
<pdfrwt beam="1">  1        2 0.16442071E+00 0.24713650E+04</pdfrwt>
<pdfrwt beam="2">  1       -1 0.21980145E+00 0.24713650E+04</pdfrwt>
<totfact> 0.25630376E+00</totfact>
</mgrwt>
</event>
<event>
12    6  0.1538774E-007  0.1753941E+04  0.7818608E-02  0.8731184E-01
         -1   -1    0    0    0  501 -0.00000000000E+00  0.00000000000E+00  0.77087510691E+03  0.77087510691E+03  0.00000000000E+00 0.  1.
          2   -1    0    0  501    0  0.00000000000E+00 -0.00000000000E+00 -0.99766821254E+03  0.99766821254E+03  0.00000000000E+00 0. -1.
         24    2    1    2    0    0  0.71250762841E+02 -0.25766899873E+03  0.51179200486E+03  0.57975997716E+03  0.52159282575E+02 0.  0.
        254    2    1    2    0    0 -0.71250762841E+02  0.25766899873E+03 -0.73858511049E+03  0.11887833423E+04  0.89231602325E+03 0.  0.
         23    2    4    4    0    0  0.10366851453E+03 -0.20070850145E+03  0.56823465477E+02  0.24996755363E+03  0.90685214787E+02 0.  0.
         23    2    4    4    0    0 -0.17491927737E+03  0.45837750019E+03 -0.79540857597E+03  0.93881578866E+03  0.89406912667E+02 0.  0.
          2    1    3    3  502    0 -0.70023526742E+01 -0.49302055455E+02  0.95069126753E+02  0.10732131418E+03  0.00000000000E+00 0. -1.
         -1    1    3    3    0  502  0.78253115515E+02 -0.20836694328E+03  0.41672287811E+03  0.47243866298E+03  0.00000000000E+00 0.  1.
         11    1    5    5    0    0  0.62394542877E+02 -0.94568017724E+02 -0.16542668937E+02  0.11449824825E+03  0.00000000000E+00 0. -1.
        -11    1    5    5    0    0  0.41273971652E+02 -0.10614048373E+03  0.73366134414E+02  0.13546930538E+03  0.00000000000E+00 0.  1.
          2    1    6    6  503    0 -0.18454661097E+03  0.43619370896E+03 -0.74335005194E+03  0.88141460339E+03  0.00000000000E+00 0. -1.
         -2    1    6    6    0  503  0.96273336005E+01  0.22183791227E+02 -0.52058524032E+02  0.57401185265E+02  0.00000000000E+00 0.  1.
<mgrwt>
<rscale>  0 0.17539414E+04</rscale>
<asrwt>0</asrwt>
<pdfrwt beam="1">  1        2 0.15348742E+00 0.17539414E+04</pdfrwt>
<pdfrwt beam="2">  1       -1 0.11859617E+00 0.17539414E+04</pdfrwt>
<totfact> 0.17412781E+01</totfact>
</mgrwt>
</event>
<event>
12    6  0.1538774E-007  0.1608643E+04  0.7818608E-02  0.8815256E-01
         -1   -1    0    0    0  501 -0.00000000000E+00  0.00000000000E+00  0.12381422479E+04  0.12381422479E+04  0.00000000000E+00 0.  1.
          2   -1    0    0  501    0  0.00000000000E+00 -0.00000000000E+00 -0.52250302148E+03  0.52250302148E+03  0.00000000000E+00 0. -1.
         24    2    1    2    0    0  0.45493347125E+03  0.18903394333E+03 -0.10942256237E+02  0.49996893264E+03  0.84563027637E+02 0.  0.
        254    2    1    2    0    0 -0.45493347125E+03 -0.18903394333E+03  0.72658148266E+03  0.12606763367E+04  0.90481262154E+03 0.  0.
         23    2    4    4    0    0 -0.22187362385E+03 -0.54163466466E+03  0.35515853418E+03  0.69057807111E+03  0.90357473317E+02 0.  0.
         23    2    4    4    0    0 -0.23305984740E+03  0.35260072133E+03  0.37142294848E+03  0.57009826563E+03  0.91721669577E+02 0.  0.
          4    1    3    3  502    0  0.35730670638E+03  0.17019638045E+03 -0.36081257409E+02  0.39741256583E+03  0.00000000000E+00 0. -1.
         -3    1    3    3    0  502  0.97626764869E+02  0.18837562877E+02  0.25139001172E+02  0.10255636681E+03  0.00000000000E+00 0.  1.
         11    1    5    5    0    0 -0.17897341744E+03 -0.37134184756E+03  0.20941260332E+03  0.46236337477E+03  0.00000000000E+00 0. -1.
        -11    1    5    5    0    0 -0.42900206404E+02 -0.17029281709E+03  0.14574593086E+03  0.22821469634E+03  0.00000000000E+00 0.  1.
          3    1    6    6  503    0 -0.21639118166E+03  0.33615655278E+03  0.31487252073E+03  0.50889200798E+03  0.00000000000E+00 0. -1.
         -3    1    6    6    0  503 -0.16668665741E+02  0.16444168544E+02  0.56550427753E+02  0.61206257651E+02  0.00000000000E+00 0.  1.
<mgrwt>
<rscale>  0 0.16086430E+04</rscale>
<asrwt>0</asrwt>
<pdfrwt beam="1">  1        2 0.80385080E-01 0.16086430E+04</pdfrwt>
<pdfrwt beam="2">  1       -1 0.19048342E+00 0.16086430E+04</pdfrwt>
<totfact> 0.11229842E+01</totfact>
</mgrwt>
</event>
<event>
12    6  0.1538774E-007  0.1586703E+04  0.7818608E-02  0.8828759E-01
          2   -1    0    0  501    0  0.00000000000E+00  0.00000000000E+00  0.19964735853E+04  0.19964735853E+04  0.00000000000E+00 0. -1.
         -1   -1    0    0    0  501 -0.00000000000E+00 -0.00000000000E+00 -0.31525927420E+03  0.31525927420E+03  0.00000000000E+00 0.  1.
         24    2    1    2    0    0 -0.42927796983E+03 -0.33720792298E+03  0.72313601478E+03  0.90977069669E+03  0.82269471747E+02 0.  0.
        254    2    1    2    0    0  0.42927796983E+03  0.33720792298E+03  0.95807829630E+03  0.14019621628E+04  0.86579161774E+03 0.  0.
         23    2    4    4    0    0  0.36167839198E+03  0.19817683832E+03 -0.52850560671E+01  0.42237063960E+03  0.91014871917E+02 0.  0.
         23    2    4    4    0    0  0.67599577857E+02  0.13903108467E+03  0.96336335237E+03  0.97959152319E+03  0.87357072929E+02 0.  0.
          2    1    3    3  502    0 -0.35917772743E+03 -0.27421930199E+03  0.64389330846E+03  0.78664061563E+03  0.00000000000E+00 0. -1.
         -1    1    3    3    0  502 -0.70100242402E+02 -0.62988620988E+02  0.79242706314E+02  0.12313008106E+03  0.00000000000E+00 0.  1.
         11    1    5    5    0    0  0.11279260845E+03  0.16157094432E+02 -0.43329761891E+01  0.11402630795E+03  0.00000000000E+00 0.  1.
        -11    1    5    5    0    0  0.24888578352E+03  0.18201974388E+03 -0.95207987808E+00  0.30834433165E+03  0.00000000000E+00 0. -1.
          1    1    6    6  503    0 -0.20890968939E+02  0.17611110787E+02  0.14742068493E+03  0.14993145817E+03  0.00000000000E+00 0. -1.
         -1    1    6    6    0  503  0.88490546796E+02  0.12141997388E+03  0.81594266744E+03  0.82966006501E+03  0.00000000000E+00 0.  1.
<mgrwt>
<rscale>  0 0.15867033E+04</rscale>
<asrwt>0</asrwt>
<pdfrwt beam="1">  1        2 0.30714978E+00 0.15867033E+04</pdfrwt>
<pdfrwt beam="2">  1       -1 0.48501428E-01 0.15867033E+04</pdfrwt>
<totfact> 0.31216320E+01</totfact>
</mgrwt>
</event>
<event>
12    6  0.1538774E-007  0.2097777E+04  0.7818608E-02  0.8562223E-01
          2   -1    0    0  501    0  0.00000000000E+00  0.00000000000E+00  0.15441004674E+04  0.15441004674E+04  0.00000000000E+00 0. -1.
         -1   -1    0    0    0  501 -0.00000000000E+00 -0.00000000000E+00 -0.71249704287E+03  0.71249704287E+03  0.00000000000E+00 0.  1.
         24    2    1    2    0    0  0.22996585690E+03 -0.56602045637E+03  0.98479927012E+03  0.11617833475E+04  0.81532151563E+02 0.  0.
        254    2    1    2    0    0 -0.22996585690E+03  0.56602045637E+03 -0.15319584555E+03  0.10948141628E+04  0.89548067072E+03 0.  0.
         23    2    4    4    0    0  0.30266143482E+03  0.11718056245E+03  0.92448112383E+02  0.35035468626E+03  0.94162223637E+02 0.  0.
         23    2    4    4    0    0 -0.53262729172E+03  0.44883989392E+03 -0.24564395793E+03  0.74445947655E+03  0.93433804923E+02 0.  0.
          2    1    3    3  502    0  0.16578461907E+03 -0.37815145535E+03  0.73111797787E+03  0.83965264286E+03  0.00000000000E+00 0. -1.
         -1    1    3    3    0  502  0.64181237830E+02 -0.18786900102E+03  0.25368129224E+03  0.32213070463E+03  0.00000000000E+00 0.  1.
         11    1    5    5    0    0  0.29049557992E+03  0.10919074231E+03  0.10843218764E+03  0.32873673277E+03  0.00000000000E+00 0. -1.
        -11    1    5    5    0    0  0.12165854899E+02  0.79898201382E+01 -0.15984075254E+02  0.21617953488E+02  0.00000000000E+00 0.  1.
          4    1    6    6  503    0 -0.20949362643E+03  0.20375089888E+03 -0.59574681352E+02  0.29824679540E+03  0.00000000000E+00 0. -1.
         -4    1    6    6    0  503 -0.32313366529E+03  0.24508899504E+03 -0.18606927658E+03  0.44621268115E+03  0.00000000000E+00 0.  1.
<mgrwt>
<rscale>  0 0.20977769E+04</rscale>
<asrwt>0</asrwt>
<pdfrwt beam="1">  1        2 0.23755392E+00 0.20977769E+04</pdfrwt>
<pdfrwt beam="2">  1       -1 0.10961493E+00 0.20977769E+04</pdfrwt>
<totfact> 0.96862810E+00</totfact>
</mgrwt>
</event>
<event>
12    6  0.1538774E-007  0.1491019E+04  0.7818608E-02  0.8890447E-01
         -1   -1    0    0    0  501 -0.00000000000E+00  0.00000000000E+00  0.16627919388E+04  0.16627919388E+04  0.00000000000E+00 0.  1.
          2   -1    0    0  501    0  0.00000000000E+00 -0.00000000000E+00 -0.33424761707E+03  0.33424761707E+03  0.00000000000E+00 0. -1.
         24    2    1    2    0    0  0.19094502549E+03  0.42795620829E+03  0.36500617606E+03  0.59928731463E+03  0.79430837495E+02 0.  0.
        254    2    1    2    0    0 -0.19094502549E+03 -0.42795620829E+03  0.96353814566E+03  0.13977522412E+04  0.89760740344E+03 0.  0.
         23    2    4    4    0    0 -0.85903301652E+02 -0.41404877686E+03  0.11127975878E+04  0.11943620120E+04  0.96780046214E+02 0.  0.
         23    2    4    4    0    0 -0.10504172383E+03 -0.13907431432E+02 -0.14925944214E+03  0.20339022926E+03  0.88668054542E+02 0.  0.
          2    1    3    3  502    0  0.56026644254E+02  0.13061117461E+03  0.15877055136E+03  0.21308766219E+03  0.00000000000E+00 0. -1.
         -1    1    3    3    0  502  0.13491838123E+03  0.29734503369E+03  0.20623562470E+03  0.38619965244E+03  0.00000000000E+00 0.  1.
         11    1    5    5    0    0 -0.20012997649E+02 -0.28109452002E+03  0.79923513639E+03  0.84746177052E+03  0.00000000000E+00 0. -1.
        -11    1    5    5    0    0 -0.65890304003E+02 -0.13295425684E+03  0.31356245141E+03  0.34690024144E+03  0.00000000000E+00 0.  1.
          1    1    6    6  503    0 -0.61309839009E+02 -0.22345023522E+02 -0.14455851037E+03  0.15860441153E+03  0.00000000000E+00 0. -1.
         -1    1    6    6    0  503 -0.43731884824E+02  0.84375920897E+01 -0.47009317683E+01  0.44785817733E+02  0.00000000000E+00 0.  1.
<mgrwt>
<rscale>  0 0.14910188E+04</rscale>
<asrwt>0</asrwt>
<pdfrwt beam="1">  1        2 0.51422711E-01 0.14910188E+04</pdfrwt>
<pdfrwt beam="2">  1       -1 0.25581414E+00 0.14910188E+04</pdfrwt>
<totfact> 0.68855171E+00</totfact>
</mgrwt>
</event>
<event>
12    6  0.1538774E-007  0.1564914E+04  0.7818608E-02  0.8842397E-01
          2   -1    0    0  501    0  0.00000000000E+00  0.00000000000E+00  0.98013966186E+03  0.98013966186E+03  0.00000000000E+00 0. -1.
         -1   -1    0    0    0  501 -0.00000000000E+00 -0.00000000000E+00 -0.62464466504E+03  0.62464466504E+03  0.00000000000E+00 0.  1.
         24    2    1    2    0    0  0.42092357985E+03  0.23932826364E+03  0.85714616099E+02  0.49781448169E+03  0.77573094053E+02 0.  0.
        254    2    1    2    0    0 -0.42092357985E+03 -0.23932826364E+03  0.26978038072E+03  0.11069698452E+04  0.95819940854E+03 0.  0.
         23    2    4    4    0    0 -0.66456796763E+03 -0.12100775861E+03 -0.43598410173E+02  0.68318740487E+03  0.92470252318E+02 0.  0.
         23    2    4    4    0    0  0.24364438778E+03 -0.11832050503E+03  0.31337879089E+03  0.42378244033E+03  0.89570980488E+02 0.  0.
          4    1    3    3  502    0  0.81363320898E+02  0.73016529531E+02  0.42332090048E+02  0.11723228830E+03  0.00000000000E+00 0. -1.
         -3    1    3    3    0  502  0.33956025895E+03  0.16631173411E+03  0.43382526051E+02  0.38058219339E+03  0.00000000000E+00 0.  1.
         11    1    5    5    0    0 -0.57959709541E+03 -0.12952198105E+03 -0.57488325037E+02  0.59666878928E+03  0.00000000000E+00 0.  1.
        -11    1    5    5    0    0 -0.84970872216E+02  0.85142224398E+01  0.13889914864E+02  0.86518615591E+02  0.00000000000E+00 0. -1.
          3    1    6    6  503    0  0.97135782949E+02 -0.26288772829E+02  0.60618069630E+02  0.11747770117E+03  0.00000000000E+00 0. -1.
         -3    1    6    6    0  503  0.14650860483E+03 -0.92031732200E+02  0.25276072126E+03  0.30630473916E+03  0.00000000000E+00 0.  1.
<mgrwt>
<rscale>  0 0.15649141E+04</rscale>
<asrwt>0</asrwt>
<pdfrwt beam="1">  1        2 0.15079072E+00 0.15649141E+04</pdfrwt>
<pdfrwt beam="2">  1       -1 0.96099179E-01 0.15649141E+04</pdfrwt>
<totfact> 0.29703842E+01</totfact>
</mgrwt>
</event>
<event>
12    6  0.1538774E-007  0.1511704E+04  0.7818608E-02  0.8876707E-01
         -1   -1    0    0    0  501 -0.00000000000E+00  0.00000000000E+00  0.72712258030E+03  0.72712258030E+03  0.00000000000E+00 0.  1.
          2   -1    0    0  501    0  0.00000000000E+00 -0.00000000000E+00 -0.78571613397E+03  0.78571613397E+03  0.00000000000E+00 0. -1.
         24    2    1    2    0    0 -0.38484910671E+03 -0.29481844848E+03 -0.39873638488E+02  0.49210067326E+03  0.74474244430E+02 0.  0.
        254    2    1    2    0    0  0.38484910671E+03  0.29481844848E+03 -0.18719915189E+02  0.10207380410E+04  0.89806957449E+03 0.  0.
         23    2    4    4    0    0 -0.60497814755E+02 -0.99225662859E+02 -0.31689716752E+03  0.34925020894E+03  0.89700478823E+02 0.  0.
         23    2    4    4    0    0  0.44534692146E+03  0.39404411134E+03  0.29817725233E+03  0.67148783207E+03  0.91551038592E+02 0.  0.
          4    1    3    3  502    0 -0.18008225692E+03 -0.94660862672E+02 -0.29460407127E+02  0.20556802711E+03  0.00000000000E+00 0. -1.
         -3    1    3    3    0  502 -0.20476684979E+03 -0.20015758581E+03 -0.10413231361E+02  0.28653264616E+03  0.00000000000E+00 0.  1.
         11    1    5    5    0    0  0.16246003602E+02 -0.55896986933E+02 -0.13985520286E+03  0.15148558858E+03  0.00000000000E+00 0. -1.
        -11    1    5    5    0    0 -0.76743818358E+02 -0.43328675926E+02 -0.17704196466E+03  0.19776462035E+03  0.00000000000E+00 0.  1.
          2    1    6    6  503    0  0.39677914195E+03  0.38089275567E+03  0.28503972466E+03  0.61948415915E+03  0.00000000000E+00 0. -1.
         -2    1    6    6    0  503  0.48567779516E+02  0.13151355667E+02  0.13137527668E+02  0.52003672911E+02  0.00000000000E+00 0.  1.
<mgrwt>
<rscale>  0 0.15117036E+04</rscale>
<asrwt>0</asrwt>
<pdfrwt beam="1">  1        2 0.12087940E+00 0.15117036E+04</pdfrwt>
<pdfrwt beam="2">  1       -1 0.11186501E+00 0.15117036E+04</pdfrwt>
<totfact> 0.28525113E+01</totfact>
</mgrwt>
</event>
<event>
12    6  0.1538774E-007  0.1536877E+04  0.7818608E-02  0.8860294E-01
         -1   -1    0    0    0  501 -0.00000000000E+00  0.00000000000E+00  0.37586279054E+03  0.37586279054E+03  0.00000000000E+00 0.  1.
          2   -1    0    0  501    0  0.00000000000E+00 -0.00000000000E+00 -0.15710469062E+04  0.15710469062E+04  0.00000000000E+00 0. -1.
         24    2    1    2    0    0 -0.13870569603E+03  0.34920593473E+03  0.21132303459E+02  0.38832304635E+03  0.95729614631E+02 0.  0.
        254    2    1    2    0    0  0.13870569603E+03 -0.34920593473E+03 -0.12163164191E+04  0.15585866504E+04  0.89921224434E+03 0.  0.
         23    2    4    4    0    0 -0.16848252130E+01 -0.33534987546E+03 -0.17331275530E+02  0.34783929393E+03  0.90716171020E+02 0.  0.
         23    2    4    4    0    0  0.14039052124E+03 -0.13856059267E+02 -0.11989851436E+04  0.12107473564E+04  0.91881977397E+02 0.  0.
          4    1    3    3  502    0 -0.21696758548E+02  0.17908461322E+02 -0.20075775834E+02  0.34561526206E+02  0.00000000000E+00 0. -1.
         -3    1    3    3    0  502 -0.11700893748E+03  0.33129747341E+03  0.41208079292E+02  0.35376152014E+03  0.00000000000E+00 0.  1.
         11    1    5    5    0    0 -0.30448675095E+02 -0.40804346863E+02  0.43574112274E+01  0.51098958605E+02  0.00000000000E+00 0. -1.
        -11    1    5    5    0    0  0.28763849882E+02 -0.29454552860E+03 -0.21688686757E+02  0.29674033533E+03  0.00000000000E+00 0.  1.
          4    1    6    6  503    0  0.21664553959E+02  0.32370955108E+02 -0.20915777487E+03  0.21275386347E+03  0.00000000000E+00 0. -1.
         -4    1    6    6    0  503  0.11872596728E+03 -0.46227014375E+02 -0.98982736871E+03  0.99799349297E+03  0.00000000000E+00 0.  1.
<mgrwt>
<rscale>  0 0.15368775E+04</rscale>
<asrwt>0</asrwt>
<pdfrwt beam="1">  1        2 0.24169952E+00 0.15368775E+04</pdfrwt>
<pdfrwt beam="2">  1       -1 0.57825045E-01 0.15368775E+04</pdfrwt>
<totfact> 0.38500211E+01</totfact>
</mgrwt>
</event>
<event>
12    6  0.1538774E-007  0.3887787E+04  0.7818608E-02  0.8027574E-01
          2   -1    0    0  501    0  0.00000000000E+00  0.00000000000E+00  0.20237697127E+04  0.20237697127E+04  0.00000000000E+00 0. -1.
         -1   -1    0    0    0  501 -0.00000000000E+00 -0.00000000000E+00 -0.18671698502E+04  0.18671698502E+04  0.00000000000E+00 0.  1.
         24    2    1    2    0    0 -0.73401885239E+03 -0.42715910512E+03  0.17147400758E+04  0.19151638550E+04  0.79186408298E+02 0.  0.
        254    2    1    2    0    0  0.73401885239E+03  0.42715910512E+03 -0.15581402133E+04  0.19757757080E+04  0.86870026314E+03 0.  0.
         23    2    4    4    0    0  0.60974341315E+03  0.51492983716E+03 -0.16037203463E+04  0.17936112945E+04  0.90458608289E+02 0.  0.
         23    2    4    4    0    0  0.12427543924E+03 -0.87770732039E+02  0.45580132967E+02  0.18216441343E+03  0.89208961426E+02 0.  0.
          2    1    3    3  502    0 -0.71160900732E+03 -0.40578322268E+03  0.16174171329E+04  0.18130321522E+04  0.00000000000E+00 0. -1.
         -1    1    3    3    0  502 -0.22409845072E+02 -0.21375882445E+02  0.97322942887E+02  0.10213170281E+03  0.00000000000E+00 0.  1.
         11    1    5    5    0    0  0.23509597434E+03  0.24908715070E+03 -0.73582853685E+03  0.81163918180E+03  0.00000000000E+00 0.  1.
        -11    1    5    5    0    0  0.37464743881E+03  0.26584268646E+03 -0.86789180941E+03  0.98197211273E+03  0.00000000000E+00 0. -1.
          3    1    6    6  503    0  0.80454265118E+02 -0.23544537526E+02  0.59998112646E+02  0.10308737820E+03  0.00000000000E+00 0. -1.
         -3    1    6    6    0  503  0.43821174121E+02 -0.64226194513E+02 -0.14417979679E+02  0.79077035231E+02  0.00000000000E+00 0.  1.
<mgrwt>
<rscale>  0 0.38877869E+04</rscale>
<asrwt>0</asrwt>
<pdfrwt beam="1">  1        2 0.31134919E+00 0.38877869E+04</pdfrwt>
<pdfrwt beam="2">  1       -1 0.28725690E+00 0.38877869E+04</pdfrwt>
<totfact> 0.23441732E-01</totfact>
</mgrwt>
</event>
<event>
12    6  0.1538774E-007  0.1115792E+04  0.7818608E-02  0.9189936E-01
         -1   -1    0    0    0  501 -0.00000000000E+00  0.00000000000E+00  0.32248090814E+03  0.32248090814E+03  0.00000000000E+00 0.  1.
          2   -1    0    0  501    0  0.00000000000E+00 -0.00000000000E+00 -0.96516631067E+03  0.96516631067E+03  0.00000000000E+00 0. -1.
         24    2    1    2    0    0  0.11856974818E+02  0.13464935002E+03  0.26353712343E+02  0.15904606837E+03  0.79561915492E+02 0.  0.
        254    2    1    2    0    0 -0.11856974818E+02 -0.13464935002E+03 -0.66903911487E+03  0.11286011504E+04  0.89880820213E+03 0.  0.
         23    2    4    4    0    0 -0.14735458112E+03 -0.34310586920E+03  0.25808192430E+02  0.38498774493E+03  0.90080468990E+02 0.  0.
         23    2    4    4    0    0  0.13549760630E+03  0.20845651918E+03 -0.69484730730E+03  0.74361340550E+03  0.91292905956E+02 0.  0.
          2    1    3    3  502    0 -0.23182368081E+02  0.25664331373E+02 -0.14492437527E+02  0.37498144489E+02  0.00000000000E+00 0. -1.
         -1    1    3    3    0  502  0.35039342899E+02  0.10898501865E+03  0.40846149870E+02  0.12154792388E+03  0.00000000000E+00 0.  1.
         11    1    5    5    0    0 -0.82268482193E+02 -0.23640202887E+03 -0.21765341956E+02  0.25125236821E+03  0.00000000000E+00 0.  1.
        -11    1    5    5    0    0 -0.65086098929E+02 -0.10670384032E+03  0.47573534386E+02  0.13373537673E+03  0.00000000000E+00 0. -1.
          1    1    6    6  503    0  0.92548498311E+02  0.18529894869E+03 -0.62487294477E+03  0.65830625246E+03  0.00000000000E+00 0. -1.
         -1    1    6    6    0  503  0.42949107993E+02  0.23157570485E+02 -0.69974362532E+02  0.85307153040E+02  0.00000000000E+00 0.  1.
<mgrwt>
<rscale>  0 0.11157916E+04</rscale>
<asrwt>0</asrwt>
<pdfrwt beam="1">  1        2 0.14848712E+00 0.11157916E+04</pdfrwt>
<pdfrwt beam="2">  1       -1 0.49612449E-01 0.11157916E+04</pdfrwt>
<totfact> 0.12226560E+02</totfact>
</mgrwt>
</event>
<event>
12    6  0.1538774E-007  0.1281293E+04  0.7818608E-02  0.9044533E-01
          2   -1    0    0  501    0  0.00000000000E+00  0.00000000000E+00  0.24113850697E+03  0.24113850697E+03  0.00000000000E+00 0. -1.
         -1   -1    0    0    0  501 -0.00000000000E+00 -0.00000000000E+00 -0.17020423395E+04  0.17020423395E+04  0.00000000000E+00 0.  1.
         24    2    1    2    0    0  0.15027324262E+03 -0.17840307310E+03 -0.73670146106E+03  0.77746983897E+03  0.85560527350E+02 0.  0.
        254    2    1    2    0    0 -0.15027324262E+03  0.17840307310E+03 -0.72420237151E+03  0.11657110075E+04  0.88317799693E+03 0.  0.
         23    2    4    4    0    0  0.20407791170E+03 -0.24315479340E+03 -0.14454216965E+03  0.36050280378E+03  0.91092179276E+02 0.  0.
         23    2    4    4    0    0 -0.35435115432E+03  0.42155786650E+03 -0.57966020187E+03  0.80520820376E+03  0.95281301415E+02 0.  0.
          4    1    3    3  502    0 -0.53730542774E+01  0.14547558189E+01 -0.58579221988E+02  0.58843107290E+02  0.00000000000E+00 0. -1.
         -3    1    3    3    0  502  0.15564629689E+03 -0.17985782892E+03 -0.67812223907E+03  0.71862673168E+03  0.00000000000E+00 0.  1.
         11    1    5    5    0    0  0.18467023302E+03 -0.24879274860E+03 -0.13254537410E+03  0.33700030106E+03  0.00000000000E+00 0.  1.
        -11    1    5    5    0    0  0.19407678684E+02  0.56379551951E+01 -0.11996795543E+02  0.23502502717E+02  0.00000000000E+00 0. -1.
          1    1    6    6  503    0 -0.59466316886E+02  0.29872674395E+02 -0.93411704189E+02  0.11469248449E+03  0.00000000000E+00 0. -1.
         -1    1    6    6    0  503 -0.29488483743E+03  0.39168519211E+03 -0.48624849768E+03  0.69051571927E+03  0.00000000000E+00 0.  1.
<mgrwt>
<rscale>  0 0.12812930E+04</rscale>
<asrwt>0</asrwt>
<pdfrwt beam="1">  1        2 0.37098231E-01 0.12812930E+04</pdfrwt>
<pdfrwt beam="2">  1       -1 0.26185267E+00 0.12812930E+04</pdfrwt>
<totfact> 0.92247322E+00</totfact>
</mgrwt>
</event>
<event>
12    6  0.1538774E-007  0.2019019E+04  0.7818608E-02  0.8597780E-01
          2   -1    0    0  501    0  0.00000000000E+00  0.00000000000E+00  0.33741566969E+04  0.33741566969E+04  0.00000000000E+00 0. -1.
         -1   -1    0    0    0  501 -0.00000000000E+00 -0.00000000000E+00 -0.30203378089E+03  0.30203378089E+03  0.00000000000E+00 0.  1.
         24    2    1    2    0    0 -0.57647656365E+03  0.39312959055E+03  0.49646948254E+03  0.85979360542E+03  0.76726745210E+02 0.  0.
        254    2    1    2    0    0  0.57647656365E+03 -0.39312959055E+03  0.25756534334E+04  0.28163968723E+04  0.90068009295E+03 0.  0.
         23    2    4    4    0    0 -0.15670596979E+03  0.11252004614E+03  0.27790247823E+03  0.35034918472E+03  0.91089198478E+02 0.  0.
         23    2    4    4    0    0  0.73318253344E+03 -0.50564963669E+03  0.22977509552E+04  0.24660476876E+04  0.92160528083E+02 0.  0.
          2    1    3    3  502    0 -0.59233112128E+02  0.71632839265E+02  0.64779440004E+02  0.11329695972E+03  0.00000000000E+00 0. -1.
         -1    1    3    3    0  502 -0.51724345152E+03  0.32149675129E+03  0.43169004253E+03  0.74649664571E+03  0.00000000000E+00 0.  1.
         11    1    5    5    0    0 -0.15318348924E+03  0.95208481113E+02  0.27946742406E+03  0.33261370592E+03  0.00000000000E+00 0.  1.
        -11    1    5    5    0    0 -0.35224805486E+01  0.17311565027E+02 -0.15649458370E+01  0.17735478803E+02  0.00000000000E+00 0. -1.
          3    1    6    6  503    0  0.61339214593E+03 -0.46113194308E+03  0.19508259930E+04  0.20963336205E+04  0.00000000000E+00 0. -1.
         -3    1    6    6    0  503  0.11979038750E+03 -0.44517693610E+02  0.34692496222E+03  0.36971406708E+03  0.00000000000E+00 0.  1.
<mgrwt>
<rscale>  0 0.20190189E+04</rscale>
<asrwt>0</asrwt>
<pdfrwt beam="1">  1        2 0.51910100E+00 0.20190189E+04</pdfrwt>
<pdfrwt beam="2">  1       -1 0.46466738E-01 0.20190189E+04</pdfrwt>
<totfact> 0.48557507E+00</totfact>
</mgrwt>
</event>
<event>
12    6  0.1538774E-007  0.1572104E+04  0.7818608E-02  0.8837871E-01
         -1   -1    0    0    0  501 -0.00000000000E+00  0.00000000000E+00  0.12547538410E+04  0.12547538410E+04  0.00000000000E+00 0.  1.
          2   -1    0    0  501    0  0.00000000000E+00 -0.00000000000E+00 -0.49242935501E+03  0.49242935501E+03  0.00000000000E+00 0. -1.
         24    2    1    2    0    0 -0.36467154897E+03  0.28049161677E+03 -0.49353778038E+02  0.46965102850E+03  0.80469916462E+02 0.  0.
        254    2    1    2    0    0  0.36467154897E+03 -0.28049161677E+03  0.81167826398E+03  0.12775321675E+04  0.87270037756E+03 0.  0.
         23    2    4    4    0    0  0.24099775050E+03  0.29354665302E+03  0.36202701712E+03  0.53232301588E+03  0.89747862740E+02 0.  0.
         23    2    4    4    0    0  0.12367379847E+03 -0.57403826979E+03  0.44965124686E+03  0.74520915159E+03  0.91297821403E+02 0.  0.
          4    1    3    3  502    0 -0.31040563083E+03  0.22172528563E+03 -0.68102021265E+02  0.38749405575E+03  0.00000000000E+00 0. -1.
         -3    1    3    3    0  502 -0.54265918137E+02  0.58766331145E+02  0.18748243227E+02  0.82156972751E+02  0.00000000000E+00 0.  1.
         11    1    5    5    0    0  0.18991408361E+02  0.22856755903E+02  0.14476685098E+01  0.29752321356E+02  0.00000000000E+00 0. -1.
        -11    1    5    5    0    0  0.22200634214E+03  0.27068989711E+03  0.36057934861E+03  0.50257069452E+03  0.00000000000E+00 0.  1.
          2    1    6    6  503    0  0.46839423008E+02 -0.39790242063E+03  0.32786712921E+03  0.51770370127E+03  0.00000000000E+00 0.  1.
         -2    1    6    6    0  503  0.76834375463E+02 -0.17613584916E+03  0.12178411765E+03  0.22750545031E+03  0.00000000000E+00 0. -1.
<mgrwt>
<rscale>  0 0.15721038E+04</rscale>
<asrwt>0</asrwt>
<pdfrwt beam="1">  1        2 0.75758363E-01 0.15721038E+04</pdfrwt>
<pdfrwt beam="2">  1       -1 0.19303905E+00 0.15721038E+04</pdfrwt>
<totfact> 0.11583460E+01</totfact>
</mgrwt>
</event>
<event>
12    6  0.1538774E-007  0.1793878E+04  0.7818608E-02  0.8709562E-01
         -1   -1    0    0    0  501 -0.00000000000E+00  0.00000000000E+00  0.23416673339E+03  0.23416673339E+03  0.00000000000E+00 0.  1.
          2   -1    0    0  501    0  0.00000000000E+00 -0.00000000000E+00 -0.34355846030E+04  0.34355846030E+04  0.00000000000E+00 0. -1.
         24    2    1    2    0    0  0.24348450123E+03  0.86073478464E+02  0.58448739633E+02  0.27637979299E+03  0.79222400733E+02 0.  0.
        254    2    1    2    0    0 -0.24348450123E+03 -0.86073478464E+02 -0.32598666092E+04  0.33933715434E+04  0.90639217529E+03 0.  0.
         23    2    4    4    0    0 -0.70346285891E+02 -0.95805694269E+01 -0.31602066376E+04  0.31622955691E+04  0.90370829546E+02 0.  0.
         23    2    4    4    0    0 -0.17313821534E+03 -0.76492909037E+02 -0.99659971659E+02  0.23107597430E+03  0.87384147333E+02 0.  0.
          4    1    3    3  502    0  0.78456610594E+02 -0.10128558618E+02  0.17092351266E+02  0.80933157095E+02  0.00000000000E+00 0. -1.
         -3    1    3    3    0  502  0.16502789063E+03  0.96202037081E+02  0.41356388367E+02  0.19544663590E+03  0.00000000000E+00 0.  1.
         11    1    5    5    0    0 -0.53238989838E+02 -0.33057419907E+02 -0.28600715810E+04  0.28607580519E+04  0.00000000000E+00 0.  1.
        -11    1    5    5    0    0 -0.17107296053E+02  0.23476850480E+02 -0.30013505659E+03  0.30153751720E+03  0.00000000000E+00 0. -1.
          3    1    6    6  503    0 -0.27002120964E+02  0.19275268379E+02 -0.22435559330E+02  0.40050029090E+02  0.00000000000E+00 0. -1.
         -3    1    6    6    0  503 -0.14613609437E+03 -0.95768177416E+02 -0.77224412329E+02  0.19102594521E+03  0.00000000000E+00 0.  1.
<mgrwt>
<rscale>  0 0.17938781E+04</rscale>
<asrwt>0</asrwt>
<pdfrwt beam="1">  1        2 0.52855144E+00 0.17938781E+04</pdfrwt>
<pdfrwt beam="2">  1       -1 0.36025654E-01 0.17938781E+04</pdfrwt>
<totfact> 0.71943644E+00</totfact>
</mgrwt>
</event>
<event>
12    6  0.1538774E-007  0.1560956E+04  0.7818608E-02  0.8844900E-01
          2   -1    0    0  501    0  0.00000000000E+00  0.00000000000E+00  0.16834544334E+04  0.16834544334E+04  0.00000000000E+00 0. -1.
         -3   -1    0    0    0  501 -0.00000000000E+00 -0.00000000000E+00 -0.36184290871E+03  0.36184290871E+03  0.00000000000E+00 0.  1.
         24    2    1    2    0    0  0.33571737165E+03 -0.14287483552E+03  0.93008269968E+03  0.10018829575E+04  0.74808154862E+02 0.  0.
        254    2    1    2    0    0 -0.33571737165E+03  0.14287483552E+03  0.39152882504E+03  0.10434143846E+04  0.89571166398E+03 0.  0.
         23    2    4    4    0    0 -0.11552621482E+02  0.33957719770E+03  0.52436406909E+03  0.63156120598E+03  0.92009476070E+02 0.  0.
         23    2    4    4    0    0 -0.32416475017E+03 -0.19670236218E+03 -0.13283524405E+03  0.41185317866E+03  0.90571707338E+02 0.  0.
          2    1    3    3  502    0  0.28934779294E+03 -0.10879306137E+03  0.70950824717E+03  0.77392507925E+03  0.00000000000E+00 0. -1.
         -1    1    3    3    0  502  0.46369578710E+02 -0.34081774147E+02  0.22057445251E+03  0.22795787825E+03  0.00000000000E+00 0.  1.
         11    1    5    5    0    0 -0.43927426354E+02  0.27909450420E+03  0.43882685622E+03  0.52191222519E+03  0.00000000000E+00 0. -1.
        -11    1    5    5    0    0  0.32374804871E+02  0.60482693497E+02  0.85537212876E+02  0.10964898080E+03  0.00000000000E+00 0.  1.
          3    1    6    6  503    0 -0.17334095500E+03 -0.97803687895E+02 -0.11683403609E+03  0.23078743474E+03  0.00000000000E+00 0. -1.
         -3    1    6    6    0  503 -0.15082379517E+03 -0.98898674285E+02 -0.16001207967E+02  0.18106574392E+03  0.00000000000E+00 0.  1.
<mgrwt>
<rscale>  0 0.15609562E+04</rscale>
<asrwt>0</asrwt>
<pdfrwt beam="1">  1        2 0.25899299E+00 0.15609562E+04</pdfrwt>
<pdfrwt beam="2">  1       -3 0.55668141E-01 0.15609562E+04</pdfrwt>
<totfact> 0.19610903E+01</totfact>
</mgrwt>
</event>
<event>
12    6  0.1538774E-007  0.1973204E+04  0.7818608E-02  0.8619252E-01
         -1   -1    0    0    0  501 -0.00000000000E+00  0.00000000000E+00  0.26918047447E+03  0.26918047447E+03  0.00000000000E+00 0.  1.
          2   -1    0    0  501    0  0.00000000000E+00 -0.00000000000E+00 -0.36161001717E+04  0.36161001717E+04  0.00000000000E+00 0. -1.
         24    2    1    2    0    0  0.75213263323E+03  0.90244887091E+02 -0.16434288577E+04  0.18113969986E+04  0.80330806446E+02 0.  0.
        254    2    1    2    0    0 -0.75213263323E+03 -0.90244887091E+02 -0.17034908395E+04  0.20738836476E+04  0.90844081029E+03 0.  0.
         23    2    4    4    0    0  0.81912970922E+02 -0.32050386877E+02 -0.90598363952E+03  0.91473010336E+03  0.90486710740E+02 0.  0.
         23    2    4    4    0    0 -0.83404560416E+03 -0.58194500214E+02 -0.79750720000E+03  0.11591535442E+04  0.92739071442E+02 0.  0.
          2    1    3    3  502    0  0.52588063992E+03  0.74093666415E+02 -0.12318468246E+04  0.13414495586E+04  0.00000000000E+00 0. -1.
         -1    1    3    3    0  502  0.22625199331E+03  0.16151220675E+02 -0.41158203306E+03  0.46994743998E+03  0.00000000000E+00 0.  1.
         11    1    5    5    0    0  0.89843428736E+02 -0.35971201248E+02 -0.53766580858E+03  0.54630604126E+03  0.00000000000E+00 0.  1.
        -11    1    5    5    0    0 -0.79304578137E+01  0.39208143712E+01 -0.36831783094E+03  0.36842406210E+03  0.00000000000E+00 0. -1.
          1    1    6    6  503    0 -0.46367093425E+03 -0.70944584187E+02 -0.41053458584E+03  0.62334782863E+03  0.00000000000E+00 0. -1.
         -1    1    6    6    0  503 -0.37037466991E+03  0.12750083973E+02 -0.38697261416E+03  0.53580571559E+03  0.00000000000E+00 0.  1.
<mgrwt>
<rscale>  0 0.19732041E+04</rscale>
<asrwt>0</asrwt>
<pdfrwt beam="1">  1        2 0.55632312E+00 0.19732041E+04</pdfrwt>
<pdfrwt beam="2">  1       -1 0.41412380E-01 0.19732041E+04</pdfrwt>
<totfact> 0.40992743E+00</totfact>
</mgrwt>
</event>
<event>
12    6  0.1538774E-007  0.1835732E+04  0.7818608E-02  0.8687525E-01
          2   -1    0    0  501    0  0.00000000000E+00  0.00000000000E+00  0.15064499514E+04  0.15064499514E+04  0.00000000000E+00 0. -1.
         -1   -1    0    0    0  501 -0.00000000000E+00 -0.00000000000E+00 -0.55924721432E+03  0.55924721432E+03  0.00000000000E+00 0.  1.
         24    2    1    2    0    0  0.16949164163E+03  0.38576368132E+03 -0.25474579145E+03  0.49884150197E+03  0.80039936419E+02 0.  0.
        254    2    1    2    0    0 -0.16949164163E+03 -0.38576368132E+03  0.12019485285E+04  0.15668556638E+04  0.91258718564E+03 0.  0.
         23    2    4    4    0    0 -0.94976730923E+02  0.28500896826E+02 -0.11785046771E+03  0.17850756566E+03  0.90240443945E+02 0.  0.
         23    2    4    4    0    0 -0.74514910709E+02 -0.41426457815E+03  0.13197989962E+04  0.13883480981E+04  0.92051281248E+02 0.  0.
          4    1    3    3  502    0  0.16603358154E+02  0.26064279612E+02  0.23941600817E+01  0.30995970321E+02  0.00000000000E+00 0. -1.
         -1    1    3    3    0  502  0.15288828348E+03  0.35969940171E+03 -0.25713995153E+03  0.46784553165E+03  0.00000000000E+00 0.  1.
         11    1    5    5    0    0 -0.35819250372E+02  0.35011160618E+02 -0.10681894334E+03  0.11797917918E+03  0.00000000000E+00 0. -1.
        -11    1    5    5    0    0 -0.59157480551E+02 -0.65102637928E+01 -0.11031524369E+02  0.60528386479E+02  0.00000000000E+00 0.  1.
          1    1    6    6  503    0 -0.83633202147E+02 -0.36619946298E+03  0.12301197232E+04  0.12861924788E+04  0.00000000000E+00 0. -1.
         -1    1    6    6    0  503  0.91182914384E+01 -0.48065115169E+02  0.89679273056E+02  0.10215561928E+03  0.00000000000E+00 0.  1.
<mgrwt>
<rscale>  0 0.18357319E+04</rscale>
<asrwt>0</asrwt>
<pdfrwt beam="1">  1        2 0.23176153E+00 0.18357319E+04</pdfrwt>
<pdfrwt beam="2">  1       -1 0.86038034E-01 0.18357319E+04</pdfrwt>
<totfact> 0.18003764E+01</totfact>
</mgrwt>
</event>
<event>
12    6  0.1538774E-007  0.1952156E+04  0.7818608E-02  0.8629322E-01
         -1   -1    0    0    0  501 -0.00000000000E+00  0.00000000000E+00  0.37195902786E+03  0.37195902786E+03  0.00000000000E+00 0.  1.
          2   -1    0    0  501    0  0.00000000000E+00 -0.00000000000E+00 -0.25613788468E+04  0.25613788468E+04  0.00000000000E+00 0. -1.
         24    2    1    2    0    0  0.61896276301E+03  0.40699533231E+03 -0.54607387623E+03  0.92354608470E+03  0.77334272716E+02 0.  0.
        254    2    1    2    0    0 -0.61896276301E+03 -0.40699533231E+03 -0.16433459427E+04  0.20097917899E+04  0.88877277694E+03 0.  0.
         23    2    4    4    0    0 -0.31616551857E+02 -0.41713038472E+03 -0.11836971941E+04  0.12585296060E+04  0.88092891810E+02 0.  0.
         23    2    4    4    0    0 -0.58734621115E+03  0.10135052405E+02 -0.45964874855E+03  0.75126218392E+03  0.89663849513E+02 0.  0.
          4    1    3    3  502    0  0.93466139627E+01  0.14009395806E+02 -0.26285606624E+02  0.31217871148E+02  0.00000000000E+00 0. -1.
         -3    1    3    3    0  502  0.60961614905E+03  0.39298593651E+03 -0.51978826961E+03  0.89232821355E+03  0.00000000000E+00 0.  1.
         11    1    5    5    0    0  0.17879622046E+02 -0.25600231847E+03 -0.64909016555E+03  0.69797916226E+03  0.00000000000E+00 0. -1.
        -11    1    5    5    0    0 -0.49496173903E+02 -0.16112806625E+03 -0.53460702860E+03  0.56055044375E+03  0.00000000000E+00 0.  1.
          3    1    6    6  503    0 -0.23871835363E+03 -0.13713593208E+01 -0.24298714777E+03  0.34063336150E+03  0.00000000000E+00 0. -1.
         -3    1    6    6    0  503 -0.34862785753E+03  0.11506411726E+02 -0.21666160077E+03  0.41062882242E+03  0.00000000000E+00 0.  1.
<mgrwt>
<rscale>  0 0.19521557E+04</rscale>
<asrwt>0</asrwt>
<pdfrwt beam="1">  1        2 0.39405828E+00 0.19521557E+04</pdfrwt>
<pdfrwt beam="2">  1       -1 0.57224467E-01 0.19521557E+04</pdfrwt>
<totfact> 0.10534971E+01</totfact>
</mgrwt>
</event>
<event>
12    6  0.1538774E-007  0.2621299E+04  0.7818608E-02  0.8361002E-01
          2   -1    0    0  501    0  0.00000000000E+00  0.00000000000E+00  0.16659126429E+04  0.16659126429E+04  0.00000000000E+00 0. -1.
         -1   -1    0    0    0  501 -0.00000000000E+00 -0.00000000000E+00 -0.10311475879E+04  0.10311475879E+04  0.00000000000E+00 0.  1.
         24    2    1    2    0    0  0.53622804054E+03  0.60869387182E+03 -0.56801929273E+03  0.99359230011E+03  0.80814608044E+02 0.  0.
        254    2    1    2    0    0 -0.53622804054E+03 -0.60869387182E+03  0.12027843477E+04  0.17034679307E+04  0.89278444362E+03 0.  0.
         23    2    4    4    0    0 -0.76579783641E+03 -0.48674075897E+03  0.10394017743E+04  0.13827286563E+04  0.90661986729E+02 0.  0.
         23    2    4    4    0    0  0.22956979587E+03 -0.12195311285E+03  0.16338257346E+03  0.32073927444E+03  0.92762944885E+02 0.  0.
          2    1    3    3  502    0  0.16241986285E+03  0.13120406161E+03 -0.14265372770E+03  0.25287309793E+03  0.00000000000E+00 0. -1.
         -1    1    3    3    0  502  0.37380817769E+03  0.47748981021E+03 -0.42536556503E+03  0.74071920217E+03  0.00000000000E+00 0.  1.
         11    1    5    5    0    0 -0.24347422464E+03 -0.11437826494E+03  0.34329041862E+03  0.43613116957E+03  0.00000000000E+00 0. -1.
        -11    1    5    5    0    0 -0.52232361177E+03 -0.37236249403E+03  0.69611135565E+03  0.94659748670E+03  0.00000000000E+00 0.  1.
          1    1    6    6  503    0  0.15904583740E+03 -0.11704124544E+03  0.15186399952E+03  0.24911223550E+03  0.00000000000E+00 0. -1.
         -1    1    6    6    0  503  0.70523958475E+02 -0.49118674114E+01  0.11518573940E+02  0.71627038932E+02  0.00000000000E+00 0.  1.
<mgrwt>
<rscale>  0 0.26212988E+04</rscale>
<asrwt>0</asrwt>
<pdfrwt beam="1">  1        2 0.25629425E+00 0.26212988E+04</pdfrwt>
<pdfrwt beam="2">  1       -1 0.15863809E+00 0.26212988E+04</pdfrwt>
<totfact> 0.30826914E+00</totfact>
</mgrwt>
</event>
<event>
12    6  0.1538774E-007  0.1842308E+04  0.7818608E-02  0.8684118E-01
         -1   -1    0    0    0  501 -0.00000000000E+00  0.00000000000E+00  0.28830890350E+03  0.28830890350E+03  0.00000000000E+00 0.  1.
          2   -1    0    0  501    0  0.00000000000E+00 -0.00000000000E+00 -0.29431111039E+04  0.29431111039E+04  0.00000000000E+00 0. -1.
         24    2    1    2    0    0  0.89853841954E+02  0.12348597078E+03  0.18085620638E+03  0.25282509764E+03  0.88820407097E+02 0.  0.
        254    2    1    2    0    0 -0.89853841954E+02 -0.12348597078E+03 -0.28356584068E+04  0.29785949098E+04  0.89874720504E+03 0.  0.
         23    2    4    4    0    0  0.20681968876E+03  0.29930613318E+03 -0.14171692700E+04  0.14661846100E+04  0.94710219848E+02 0.  0.
         23    2    4    4    0    0 -0.29667353071E+03 -0.42279210396E+03 -0.14184891368E+04  0.15124102998E+04  0.92223297735E+02 0.  0.
          4    1    3    3  502    0 -0.18055379839E+02  0.18140609424E+02  0.31353881441E+02  0.40473995760E+02  0.00000000000E+00 0. -1.
         -3    1    3    3    0  502  0.10790922179E+03  0.10534536136E+03  0.14950232494E+03  0.21235110188E+03  0.00000000000E+00 0.  1.
         11    1    5    5    0    0  0.13049507632E+03  0.19223768408E+03 -0.71480602266E+03  0.75161954615E+03  0.00000000000E+00 0. -1.
        -11    1    5    5    0    0  0.76324612437E+02  0.10706844910E+03 -0.70236324733E+03  0.71456506383E+03  0.00000000000E+00 0.  1.
          1    1    6    6  503    0 -0.21856928182E+03 -0.25606250093E+03 -0.10018398564E+04  0.10568933878E+04  0.00000000000E+00 0. -1.
         -1    1    6    6    0  503 -0.78104248888E+02 -0.16672960304E+03 -0.41664928044E+03  0.45551691199E+03  0.00000000000E+00 0.  1.
<mgrwt>
<rscale>  0 0.18423085E+04</rscale>
<asrwt>0</asrwt>
<pdfrwt beam="1">  1        2 0.45278634E+00 0.18423085E+04</pdfrwt>
<pdfrwt beam="2">  1       -1 0.44355215E-01 0.18423085E+04</pdfrwt>
<totfact> 0.10214421E+01</totfact>
</mgrwt>
</event>
<event>
12    6  0.2183417E-007  0.2078995E+04  0.7818608E-02  0.8570553E-01
         -1   -1    0    0    0  501 -0.00000000000E+00  0.00000000000E+00  0.91699803436E+03  0.91699803436E+03  0.00000000000E+00 0.  1.
          2   -1    0    0  501    0  0.00000000000E+00 -0.00000000000E+00 -0.11783613586E+04  0.11783613586E+04  0.00000000000E+00 0. -1.
         24    2    1    2    0    0 -0.60835027426E+03  0.46706311874E+03  0.24505743960E+03  0.81001094653E+03  0.88467913431E+02 0.  0.
        254    2    1    2    0    0  0.60835027426E+03 -0.46706311874E+03 -0.50642076388E+03  0.12853484465E+04  0.89856587165E+03 0.  0.
         23    2    4    4    0    0  0.68514378285E+03 -0.65213427582E+03 -0.47501546168E+03  0.10623782575E+04  0.91141408722E+02 0.  0.
         23    2    4    4    0    0 -0.76793508593E+02  0.18507115708E+03 -0.31405302198E+02  0.22297018893E+03  0.92632801985E+02 0.  0.
          2    1    3    3  502    0 -0.30453281666E+01  0.17893969788E+02  0.81951946402E+01  0.19915556573E+02  0.00000000000E+00 0. -1.
         -1    1    3    3    0  502 -0.60530494609E+03  0.44916914895E+03  0.23686224496E+03  0.79009538995E+03  0.00000000000E+00 0.  1.
         11    1    5    5    0    0  0.51428231791E+03 -0.48698032248E+03 -0.31038217069E+03  0.77328728742E+03  0.00000000000E+00 0. -1.
        -11    1    5    5    0    0  0.17086146494E+03 -0.16515395334E+03 -0.16463329099E+03  0.28909097012E+03  0.00000000000E+00 0.  1.
          3    1    6    6  503    0 -0.75557923434E+02  0.17497194060E+03 -0.66537460167E+00  0.19059019522E+03  0.00000000000E+00 0. -1.
         -3    1    6    6    0  503 -0.12355851591E+01  0.10099216474E+02 -0.30739927597E+02  0.32379993711E+02  0.00000000000E+00 0.  1.
<mgrwt>
<rscale>  0 0.20789950E+04</rscale>
<asrwt>0</asrwt>
<pdfrwt beam="1">  1        2 0.18128636E+00 0.20789950E+04</pdfrwt>
<pdfrwt beam="2">  1       -1 0.14107662E+00 0.20789950E+04</pdfrwt>
<totfact> 0.84391681E+00</totfact>
</mgrwt>
</event>
<event>
12    6  0.1538774E-007  0.3025459E+04  0.7818608E-02  0.8236498E-01
         -1   -1    0    0    0  501 -0.00000000000E+00  0.00000000000E+00  0.13121021489E+04  0.13121021489E+04  0.00000000000E+00 0.  1.
          2   -1    0    0  501    0  0.00000000000E+00 -0.00000000000E+00 -0.17440340437E+04  0.17440340437E+04  0.00000000000E+00 0. -1.
         24    2    1    2    0    0  0.26576442040E+02  0.26199530397E+03 -0.15663942116E+04  0.15899930657E+04  0.71688745385E+02 0.  0.
        254    2    1    2    0    0 -0.26576442040E+02 -0.26199530397E+03  0.11344623169E+04  0.14661431269E+04  0.89063071669E+03 0.  0.
         23    2    4    4    0    0  0.73356866020E+02 -0.40763579689E+03  0.11872997745E+04  0.12606725001E+04  0.89812166735E+02 0.  0.
         23    2    4    4    0    0 -0.99933308060E+02  0.14564049291E+03 -0.52837457597E+02  0.20547062680E+03  0.90711423286E+02 0.  0.
          2    1    3    3  502    0  0.42329297806E+02  0.23503432413E+03 -0.14474242666E+04  0.14669934937E+04  0.00000000000E+00 0. -1.
         -1    1    3    3    0  502 -0.15752855766E+02  0.26960979844E+02 -0.11896994505E+03  0.12299957205E+03  0.00000000000E+00 0.  1.
         11    1    5    5    0    0  0.90634119818E+02 -0.37810071530E+03  0.10684952626E+04  0.11370386189E+04  0.00000000000E+00 0.  1.
        -11    1    5    5    0    0 -0.17277253798E+02 -0.29535081588E+02  0.11880451187E+03  0.12363388122E+03  0.00000000000E+00 0. -1.
          2    1    6    6  503    0 -0.41921623891E+01  0.63040377761E+02 -0.47259516022E+02  0.78899463295E+02  0.00000000000E+00 0. -1.
         -2    1    6    6    0  503 -0.95741145671E+02  0.82600115154E+02 -0.55779415756E+01  0.12657116350E+03  0.00000000000E+00 0.  1.
<mgrwt>
<rscale>  0 0.30254592E+04</rscale>
<asrwt>0</asrwt>
<pdfrwt beam="1">  1        2 0.26831293E+00 0.30254592E+04</pdfrwt>
<pdfrwt beam="2">  1       -1 0.20186187E+00 0.30254592E+04</pdfrwt>
<totfact> 0.13168058E+00</totfact>
</mgrwt>
</event>
<event>
12    6  0.1538774E-007  0.1837819E+04  0.7818608E-02  0.8686442E-01
          2   -1    0    0  501    0  0.00000000000E+00  0.00000000000E+00  0.22558163518E+04  0.22558163518E+04  0.00000000000E+00 0. -1.
         -1   -1    0    0    0  501 -0.00000000000E+00 -0.00000000000E+00 -0.37431895317E+03  0.37431895317E+03  0.00000000000E+00 0.  1.
         24    2    1    2    0    0 -0.24190240277E+03  0.21876768514E+02  0.16188986290E+04  0.16390119298E+04  0.80820601561E+02 0.  0.
        254    2    1    2    0    0  0.24190240277E+03 -0.21876768514E+02  0.26259876963E+03  0.99112337515E+03  0.92432248999E+03 0.  0.
         23    2    4    4    0    0  0.41892910024E+03 -0.14980079633E+03 -0.18037709082E+03  0.48876658112E+03  0.91733343537E+02 0.  0.
         23    2    4    4    0    0 -0.17702669746E+03  0.12792402782E+03  0.44297586045E+03  0.50235679404E+03  0.91824436110E+02 0.  0.
          4    1    3    3  502    0 -0.16947865139E+03  0.51615150450E+02  0.10729566079E+04  0.10874847214E+04  0.00000000000E+00 0. -1.
         -3    1    3    3    0  502 -0.72423751382E+02 -0.29738381937E+02  0.54594202114E+03  0.55152720837E+03  0.00000000000E+00 0.  1.
         11    1    5    5    0    0  0.21503046865E+03 -0.43691062026E+02 -0.12423439257E+03  0.25215311944E+03  0.00000000000E+00 0. -1.
        -11    1    5    5    0    0  0.20389863159E+03 -0.10610973430E+03 -0.56142698253E+02  0.23661346167E+03  0.00000000000E+00 0.  1.
          3    1    6    6  503    0 -0.52482118429E+02 -0.67180064750E+01  0.11478391540E+03  0.12639165954E+03  0.00000000000E+00 0. -1.
         -3    1    6    6    0  503 -0.12454457903E+03  0.13464203429E+03  0.32819194505E+03  0.37596513450E+03  0.00000000000E+00 0.  1.
<mgrwt>
<rscale>  0 0.18378192E+04</rscale>
<asrwt>0</asrwt>
<pdfrwt beam="1">  1        2 0.34704866E+00 0.18378192E+04</pdfrwt>
<pdfrwt beam="2">  1       -1 0.57587533E-01 0.18378192E+04</pdfrwt>
<totfact> 0.15725024E+01</totfact>
</mgrwt>
</event>
<event>
12    6  0.1538774E-007  0.1177206E+04  0.7818608E-02  0.9133045E-01
          2   -1    0    0  501    0  0.00000000000E+00  0.00000000000E+00  0.79593079094E+03  0.79593079094E+03  0.00000000000E+00 0. -1.
         -1   -1    0    0    0  501 -0.00000000000E+00 -0.00000000000E+00 -0.43528126632E+03  0.43528126632E+03  0.00000000000E+00 0.  1.
         24    2    1    2    0    0  0.18773396562E+03 -0.10489675799E+03  0.19116466508E+03  0.29871001425E+03  0.80227001388E+02 0.  0.
        254    2    1    2    0    0 -0.18773396562E+03  0.10489675799E+03  0.16948485954E+03  0.93250204301E+03  0.89139641626E+03 0.  0.
         23    2    4    4    0    0 -0.46520193135E+02 -0.28806811111E+02  0.51492854146E+03  0.52565610690E+03  0.90382405221E+02 0.  0.
         23    2    4    4    0    0 -0.14121377249E+03  0.13370356911E+03 -0.34544368192E+03  0.40684593611E+03  0.91511225630E+02 0.  0.
          2    1    3    3  502    0  0.72074063244E+02 -0.30519801086E+02  0.12158123931E+03  0.14459642666E+03  0.00000000000E+00 0. -1.
         -1    1    3    3    0  502  0.11565990238E+03 -0.74376956909E+02  0.69583425764E+02  0.15411358758E+03  0.00000000000E+00 0.  1.
         11    1    5    5    0    0 -0.10008285888E+02 -0.19899680043E+02  0.45062524379E+03  0.45117543527E+03  0.00000000000E+00 0. -1.
        -11    1    5    5    0    0 -0.36511907247E+02 -0.89071310680E+01  0.64303297674E+02  0.74480671630E+02  0.00000000000E+00 0.  1.
          4    1    6    6  503    0 -0.12888262663E+03  0.67201763353E+02 -0.26002505931E+03  0.29789232940E+03  0.00000000000E+00 0. -1.
         -4    1    6    6    0  503 -0.12331145859E+02  0.66501805753E+02 -0.85418622615E+02  0.10895360671E+03  0.00000000000E+00 0.  1.
<mgrwt>
<rscale>  0 0.11772065E+04</rscale>
<asrwt>0</asrwt>
<pdfrwt beam="1">  1        2 0.12245089E+00 0.11772065E+04</pdfrwt>
<pdfrwt beam="2">  1       -1 0.66966349E-01 0.11772065E+04</pdfrwt>
<totfact> 0.88405194E+01</totfact>
</mgrwt>
</event>
<event>
12    6  0.1538774E-007  0.3137300E+04  0.7818608E-02  0.8205575E-01
         -1   -1    0    0    0  501 -0.00000000000E+00  0.00000000000E+00  0.11765314967E+04  0.11765314967E+04  0.00000000000E+00 0.  1.
          2   -1    0    0  501    0  0.00000000000E+00 -0.00000000000E+00 -0.20914547504E+04  0.20914547504E+04  0.00000000000E+00 0. -1.
         24    2    1    2    0    0 -0.71436606051E+03  0.59294084430E+03 -0.15614359811E+04  0.18183181920E+04  0.79378908504E+02 0.  0.
        254    2    1    2    0    0  0.71436606051E+03 -0.59294084430E+03  0.64651272730E+03  0.14496680551E+04  0.90645521132E+03 0.  0.
         23    2    4    4    0    0  0.84650944003E+02  0.96854667466E+02  0.46818017161E+03  0.49444819146E+03  0.93486533882E+02 0.  0.
         23    2    4    4    0    0  0.62971511651E+03 -0.68979551177E+03  0.17833255570E+03  0.95521986363E+03  0.91013798094E+02 0.  0.
          4    1    3    3  502    0 -0.70027872626E+03  0.56359859501E+03 -0.14976640394E+04  0.17467201395E+04  0.00000000000E+00 0. -1.
         -3    1    3    3    0  502 -0.14087334250E+02  0.29342249295E+02 -0.63771941693E+02  0.71598052539E+02  0.00000000000E+00 0.  1.
         11    1    5    5    0    0 -0.13022052091E+02  0.76522329774E+01  0.11462642325E+02  0.18961083283E+02  0.00000000000E+00 0. -1.
        -11    1    5    5    0    0  0.97672996094E+02  0.89202434488E+02  0.45671752928E+03  0.47548710817E+03  0.00000000000E+00 0.  1.
          1    1    6    6  503    0  0.77752490004E+02 -0.56930976019E+02  0.39139334719E+02  0.10401188997E+03  0.00000000000E+00 0. -1.
         -1    1    6    6    0  503  0.55196262651E+03 -0.63286453575E+03  0.13919322098E+03  0.85120797367E+03  0.00000000000E+00 0.  1.
<mgrwt>
<rscale>  0 0.31372997E+04</rscale>
<asrwt>0</asrwt>
<pdfrwt beam="1">  1        2 0.32176227E+00 0.31372997E+04</pdfrwt>
<pdfrwt beam="2">  1       -1 0.18100485E+00 0.31372997E+04</pdfrwt>
<totfact> 0.11705037E+00</totfact>
</mgrwt>
</event>
<event>
12    6  0.1538774E-007  0.1689950E+04  0.7818608E-02  0.8767117E-01
         -1   -1    0    0    0  501 -0.00000000000E+00  0.00000000000E+00  0.62683532978E+03  0.62683532978E+03  0.00000000000E+00 0.  1.
          2   -1    0    0  501    0  0.00000000000E+00 -0.00000000000E+00 -0.11390273633E+04  0.11390273633E+04  0.00000000000E+00 0. -1.
         24    2    1    2    0    0  0.23387539479E+03 -0.40589676920E+03  0.20516943806E+03  0.51988739245E+03  0.93480024515E+02 0.  0.
        254    2    1    2    0    0 -0.23387539479E+03  0.40589676920E+03 -0.71736147158E+03  0.12459753006E+04  0.90465301709E+03 0.  0.
         23    2    4    4    0    0 -0.53361522290E+02 -0.25903489809E+03 -0.38033238175E+03  0.47238167215E+03  0.92440213601E+02 0.  0.
         23    2    4    4    0    0 -0.18051387250E+03  0.66493166728E+03 -0.33702908984E+03  0.77359362847E+03  0.10069316908E+03 0.  0.
          4    1    3    3  502    0  0.11834281114E+02 -0.10543552549E+01  0.18197372314E+02  0.21732607612E+02  0.00000000000E+00 0. -1.
         -3    1    3    3    0  502  0.22204111368E+03 -0.40484241394E+03  0.18697206575E+03  0.49815478484E+03  0.00000000000E+00 0.  1.
         11    1    5    5    0    0 -0.16522289449E+02 -0.23626732072E+03 -0.31991572576E+03  0.39804686216E+03  0.00000000000E+00 0.  1.
        -11    1    5    5    0    0 -0.36839232841E+02 -0.22767577370E+02 -0.60416655983E+02  0.74334809987E+02  0.00000000000E+00 0. -1.
          3    1    6    6  503    0 -0.30209346659E+02  0.30139265737E+03 -0.15015249086E+03  0.33807677982E+03  0.00000000000E+00 0. -1.
         -3    1    6    6    0  503 -0.15030452584E+03  0.36353900991E+03 -0.18687659897E+03  0.43551684866E+03  0.00000000000E+00 0.  1.
<mgrwt>
<rscale>  0 0.16899498E+04</rscale>
<asrwt>0</asrwt>
<pdfrwt beam="1">  1        2 0.17523498E+00 0.16899498E+04</pdfrwt>
<pdfrwt beam="2">  1       -1 0.96436206E-01 0.16899498E+04</pdfrwt>
<totfact> 0.23181457E+01</totfact>
</mgrwt>
</event>
<event>
12    6  0.1538774E-007  0.1890544E+04  0.7818608E-02  0.8659577E-01
          2   -1    0    0  501    0  0.00000000000E+00  0.00000000000E+00  0.19498540654E+04  0.19498540654E+04  0.00000000000E+00 0. -1.
         -1   -1    0    0    0  501 -0.00000000000E+00 -0.00000000000E+00 -0.45825964174E+03  0.45825964174E+03  0.00000000000E+00 0.  1.
         24    2    1    2    0    0 -0.48767294532E+03 -0.21313586256E+03  0.11847337644E+04  0.13014663048E+04  0.83478455942E+02 0.  0.
        254    2    1    2    0    0  0.48767294532E+03  0.21313586256E+03  0.30686065924E+03  0.11066474023E+04  0.92046358498E+03 0.  0.
         23    2    4    4    0    0 -0.20432059603E+03  0.27135793122E+03  0.17730089669E+03  0.39395013657E+03  0.91537256579E+02 0.  0.
         23    2    4    4    0    0  0.69199354135E+03 -0.58222068654E+02  0.12955976255E+03  0.71269726571E+03  0.94375791029E+02 0.  0.
          4    1    3    3  502    0 -0.38556137400E+03 -0.13451157074E+03  0.85739836088E+03  0.94967514710E+03  0.00000000000E+00 0. -1.
         -3    1    3    3    0  502 -0.10211157132E+03 -0.78624291823E+02  0.32733540351E+03  0.35179115772E+03  0.00000000000E+00 0.  1.
         11    1    5    5    0    0 -0.12113221324E+03  0.19427293728E+03  0.15979555785E+03  0.27919456935E+03  0.00000000000E+00 0. -1.
        -11    1    5    5    0    0 -0.83188382790E+02  0.77084993935E+02  0.17505338841E+02  0.11475556723E+03  0.00000000000E+00 0.  1.
          4    1    6    6  503    0  0.64957817584E+03 -0.76841984024E+02  0.11499275073E+03  0.66413841159E+03  0.00000000000E+00 0. -1.
         -4    1    6    6    0  503  0.42415365510E+02  0.18619915370E+02  0.14567011817E+02  0.48558854116E+02  0.00000000000E+00 0.  1.
<mgrwt>
<rscale>  0 0.18905443E+04</rscale>
<asrwt>0</asrwt>
<pdfrwt beam="1">  1        2 0.29997754E+00 0.18905443E+04</pdfrwt>
<pdfrwt beam="2">  1       -1 0.70501485E-01 0.18905443E+04</pdfrwt>
<totfact> 0.15459092E+01</totfact>
</mgrwt>
</event>
<event>
12    6  0.1538774E-007  0.2421730E+04  0.7818608E-02  0.8431413E-01
          2   -1    0    0  501    0  0.00000000000E+00  0.00000000000E+00  0.29254236661E+04  0.29254236661E+04  0.00000000000E+00 0. -1.
         -1   -1    0    0    0  501 -0.00000000000E+00 -0.00000000000E+00 -0.50119031757E+03  0.50119031757E+03  0.00000000000E+00 0.  1.
         24    2    1    2    0    0  0.84382053906E+03  0.31925044941E+03  0.17837129400E+04  0.20005160311E+04  0.80489669969E+02 0.  0.
        254    2    1    2    0    0 -0.84382053906E+03 -0.31925044941E+03  0.64052040859E+03  0.14260979526E+04  0.89974164342E+03 0.  0.
         23    2    4    4    0    0  0.12166018810E+03 -0.24720432521E+03  0.22645479910E+03  0.36917061574E+03  0.95362402021E+02 0.  0.
         23    2    4    4    0    0 -0.96548072716E+03 -0.72046124205E+02  0.41406560949E+03  0.10569273368E+04  0.91111952267E+02 0.  0.
          2    1    3    3  502    0  0.39696950941E+03  0.13115026743E+03  0.90577808983E+03  0.99760670209E+03  0.00000000000E+00 0. -1.
         -1    1    3    3    0  502  0.44685102965E+03  0.18810018199E+03  0.87793485016E+03  0.10029093290E+04  0.00000000000E+00 0.  1.
         11    1    5    5    0    0  0.71281839320E+02 -0.14760494248E+03  0.73047294325E+02  0.17945536177E+03  0.00000000000E+00 0. -1.
        -11    1    5    5    0    0  0.50378348780E+02 -0.99599382731E+02  0.15340750478E+03  0.18971525397E+03  0.00000000000E+00 0.  1.
          3    1    6    6  503    0 -0.74524462473E+03 -0.64896296475E+02  0.35926608349E+03  0.82986336148E+03  0.00000000000E+00 0. -1.
         -3    1    6    6    0  503 -0.22023610244E+03 -0.71498277294E+01  0.54799525995E+02  0.22706397535E+03  0.00000000000E+00 0.  1.
<mgrwt>
<rscale>  0 0.24217300E+04</rscale>
<asrwt>0</asrwt>
<pdfrwt beam="1">  1        2 0.45006517E+00 0.24217300E+04</pdfrwt>
<pdfrwt beam="2">  1       -1 0.77106204E-01 0.24217300E+04</pdfrwt>
<totfact> 0.33379565E+00</totfact>
</mgrwt>
</event>
<event>
12    6  0.1538774E-007  0.1464097E+04  0.7818608E-02  0.8908685E-01
          2   -1    0    0  501    0  0.00000000000E+00  0.00000000000E+00  0.29930112195E+04  0.29930112195E+04  0.00000000000E+00 0. -1.
         -1   -1    0    0    0  501 -0.00000000000E+00 -0.00000000000E+00 -0.17904882296E+03  0.17904882296E+03  0.00000000000E+00 0.  1.
         24    2    1    2    0    0 -0.35377766265E+03  0.22587420077E+03  0.49327432545E+03  0.65300470588E+03  0.83173292556E+02 0.  0.
        254    2    1    2    0    0  0.35377766265E+03 -0.22587420077E+03  0.23206880711E+04  0.25190553366E+04  0.88536369715E+03 0.  0.
         23    2    4    4    0    0  0.52343807051E+03  0.12022546210E+03  0.16782161692E+04  0.17644048923E+04  0.90958989557E+02 0.  0.
         23    2    4    4    0    0 -0.16966040786E+03 -0.34609966288E+03  0.64247190186E+03  0.75465044431E+03  0.90318977915E+02 0.  0.
          4    1    3    3  502    0 -0.72640782853E+02  0.24347853054E+02  0.53266200333E+02  0.93310178329E+02  0.00000000000E+00 0. -1.
         -3    1    3    3    0  502 -0.28113687979E+03  0.20152634772E+03  0.44000812511E+03  0.55969452755E+03  0.00000000000E+00 0.  1.
         11    1    5    5    0    0  0.35215195439E+03  0.11531556542E+03  0.10611226630E+04  0.11239617362E+04  0.00000000000E+00 0. -1.
        -11    1    5    5    0    0  0.17128611612E+03  0.49098966834E+01  0.61709350622E+03  0.64044315601E+03  0.00000000000E+00 0.  1.
          1    1    6    6  503    0 -0.15147943125E+03 -0.32122016432E+03  0.52965713316E+03  0.63770298004E+03  0.00000000000E+00 0. -1.
         -1    1    6    6    0  503 -0.18180976610E+02 -0.24879498561E+02  0.11281476871E+03  0.11694746426E+03  0.00000000000E+00 0.  1.
<mgrwt>
<rscale>  0 0.14640972E+04</rscale>
<asrwt>0</asrwt>
<pdfrwt beam="1">  1        2 0.46046323E+00 0.14640972E+04</pdfrwt>
<pdfrwt beam="2">  1       -1 0.27545975E-01 0.14640972E+04</pdfrwt>
<totfact> 0.23166789E+01</totfact>
</mgrwt>
</event>
<event>
12    6  0.1538774E-007  0.1662658E+04  0.7818608E-02  0.8782953E-01
         -1   -1    0    0    0  501 -0.00000000000E+00  0.00000000000E+00  0.52238562387E+03  0.52238562387E+03  0.00000000000E+00 0.  1.
          2   -1    0    0  501    0  0.00000000000E+00 -0.00000000000E+00 -0.13229839896E+04  0.13229839896E+04  0.00000000000E+00 0. -1.
         24    2    1    2    0    0 -0.25242841574E+03  0.94065603687E+02  0.29171303598E+03  0.40452773451E+03  0.77315908817E+02 0.  0.
        254    2    1    2    0    0  0.25242841574E+03 -0.94065603687E+02 -0.10923114017E+04  0.14408418790E+04  0.90017369380E+03 0.  0.
         23    2    4    4    0    0  0.30963277136E+03 -0.43624577211E+03 -0.44761706732E+03  0.70318860862E+03  0.89052532608E+02 0.  0.
         23    2    4    4    0    0 -0.57204355613E+02  0.34218016842E+03 -0.64469433440E+03  0.73765327035E+03  0.90232790550E+02 0.  0.
          4    1    3    3  502    0 -0.67613113203E+02  0.18061208684E+01  0.11145107874E+03  0.13036923756E+03  0.00000000000E+00 0. -1.
         -3    1    3    3    0  502 -0.18481530254E+03  0.92259482819E+02  0.18026195725E+03  0.27415849695E+03  0.00000000000E+00 0.  1.
         11    1    5    5    0    0  0.21747178069E+03 -0.31219145835E+03 -0.36809320124E+03  0.52938651934E+03  0.00000000000E+00 0. -1.
        -11    1    5    5    0    0  0.92160990668E+02 -0.12405431375E+03 -0.79523866080E+02  0.17380208928E+03  0.00000000000E+00 0.  1.
          2    1    6    6  503    0 -0.73161755578E+02  0.31740615851E+03 -0.55832014705E+03  0.64639051551E+03  0.00000000000E+00 0. -1.
         -2    1    6    6    0  503  0.15957399964E+02  0.24774009908E+02 -0.86374187352E+02  0.91262754842E+02  0.00000000000E+00 0.  1.
<mgrwt>
<rscale>  0 0.16626579E+04</rscale>
<asrwt>0</asrwt>
<pdfrwt beam="1">  1        2 0.20353600E+00 0.16626579E+04</pdfrwt>
<pdfrwt beam="2">  1       -1 0.80367019E-01 0.16626579E+04</pdfrwt>
<totfact> 0.26938394E+01</totfact>
</mgrwt>
</event>
<event>
12    6  0.1538774E-007  0.1898548E+04  0.7818608E-02  0.8655579E-01
         -1   -1    0    0    0  501 -0.00000000000E+00  0.00000000000E+00  0.85682446077E+03  0.85682446077E+03  0.00000000000E+00 0.  1.
          2   -1    0    0  501    0  0.00000000000E+00 -0.00000000000E+00 -0.10516986680E+04  0.10516986680E+04  0.00000000000E+00 0. -1.
         24    2    1    2    0    0  0.18723953546E+03 -0.90508773555E+02 -0.78215447561E+03  0.81329670470E+03  0.80221097076E+02 0.  0.
        254    2    1    2    0    0 -0.18723953546E+03  0.90508773555E+02  0.58728026837E+03  0.10952264241E+04  0.90076207995E+03 0.  0.
         23    2    4    4    0    0 -0.26066749208E+03  0.14856396090E+03  0.79117082593E+03  0.85118579430E+03  0.92451007095E+02 0.  0.
         23    2    4    4    0    0  0.73427956623E+02 -0.58055187346E+02 -0.20389055756E+03  0.24404062979E+03  0.96033327207E+02 0.  0.
          4    1    3    3  502    0  0.89184776342E+02 -0.96756328548E+01 -0.42058998113E+03  0.43005054869E+03  0.00000000000E+00 0. -1.
         -3    1    3    3    0  502  0.98054759117E+02 -0.80833140700E+02 -0.36156449449E+03  0.38324615601E+03  0.00000000000E+00 0.  1.
         11    1    5    5    0    0 -0.72900847398E+02  0.92930090659E+02  0.29542912150E+03  0.31816489614E+03  0.00000000000E+00 0. -1.
        -11    1    5    5    0    0 -0.18776664468E+03  0.55633870241E+02  0.49574170442E+03  0.53302089816E+03  0.00000000000E+00 0.  1.
          4    1    6    6  503    0  0.10291516618E+01  0.21576520558E+02 -0.63960040566E+02  0.67509200720E+02  0.00000000000E+00 0. -1.
         -4    1    6    6    0  503  0.72398804961E+02 -0.79631707904E+02 -0.13993051699E+03  0.17653142907E+03  0.00000000000E+00 0.  1.
<mgrwt>
<rscale>  0 0.18985480E+04</rscale>
<asrwt>0</asrwt>
<pdfrwt beam="1">  1        2 0.16179979E+00 0.18985480E+04</pdfrwt>
<pdfrwt beam="2">  1       -1 0.13181915E+00 0.18985480E+04</pdfrwt>
<totfact> 0.12215358E+01</totfact>
</mgrwt>
</event>
<event>
12    6  0.1538774E-007  0.1848086E+04  0.7818608E-02  0.8681138E-01
         -1   -1    0    0    0  501 -0.00000000000E+00  0.00000000000E+00  0.63665218561E+03  0.63665218561E+03  0.00000000000E+00 0.  1.
          2   -1    0    0  501    0  0.00000000000E+00 -0.00000000000E+00 -0.13411642920E+04  0.13411642920E+04  0.00000000000E+00 0. -1.
         24    2    1    2    0    0  0.49373819874E+03 -0.44061938127E+03 -0.28421310395E+02  0.66759897031E+03  0.83413225721E+02 0.  0.
        254    2    1    2    0    0 -0.49373819874E+03  0.44061938127E+03 -0.67609079598E+03  0.13102175073E+04  0.90644818052E+03 0.  0.
         23    2    4    4    0    0 -0.12094360981E+02 -0.23062579527E+03 -0.16188209112E+02  0.24905605621E+03  0.91827719196E+02 0.  0.
         23    2    4    4    0    0 -0.48164383776E+03  0.67124517653E+03 -0.65990258686E+03  0.10611614511E+04  0.89673449981E+02 0.  0.
          2    1    3    3  502    0  0.78060012385E+02 -0.98131890721E+02 -0.30291955951E+02  0.12899936475E+03  0.00000000000E+00 0. -1.
         -1    1    3    3    0  502  0.41567818636E+03 -0.34248749055E+03  0.18706455551E+01  0.53859960556E+03  0.00000000000E+00 0.  1.
         11    1    5    5    0    0  0.36274807327E+02 -0.80836992382E+02  0.11126690230E+02  0.89298847806E+02  0.00000000000E+00 0.  1.
        -11    1    5    5    0    0 -0.48369168307E+02 -0.14978880288E+03 -0.27314899342E+02  0.15975720841E+03  0.00000000000E+00 0. -1.
          1    1    6    6  503    0 -0.47823025654E+03  0.65757339061E+03 -0.63170842386E+03  0.10296419160E+04  0.00000000000E+00 0. -1.
         -1    1    6    6    0  503 -0.34135812209E+01  0.13671785923E+02 -0.28194163003E+02  0.31519535125E+02  0.00000000000E+00 0.  1.
<mgrwt>
<rscale>  0 0.18480857E+04</rscale>
<asrwt>0</asrwt>
<pdfrwt beam="1">  1        2 0.20633296E+00 0.18480857E+04</pdfrwt>
<pdfrwt beam="2">  1       -1 0.97946492E-01 0.18480857E+04</pdfrwt>
<totfact> 0.16760319E+01</totfact>
</mgrwt>
</event>
<event>
12    6  0.1538774E-007  0.1252019E+04  0.7818608E-02  0.9068504E-01
         -1   -1    0    0    0  501 -0.00000000000E+00  0.00000000000E+00  0.10937147517E+04  0.10937147517E+04  0.00000000000E+00 0.  1.
          2   -1    0    0  501    0  0.00000000000E+00 -0.00000000000E+00 -0.35830908349E+03  0.35830908349E+03  0.00000000000E+00 0. -1.
         24    2    1    2    0    0  0.16470265647E+03 -0.22395750903E+03  0.54078085817E+02  0.29276699273E+03  0.74189903415E+02 0.  0.
        254    2    1    2    0    0 -0.16470265647E+03  0.22395750903E+03  0.68132758241E+03  0.11592568425E+04  0.89575957788E+03 0.  0.
         23    2    4    4    0    0 -0.73597724783E+02  0.20871875773E+03 -0.17267634246E+03  0.29527472456E+03  0.91596390761E+02 0.  0.
         23    2    4    4    0    0 -0.91104931685E+02  0.15238751307E+02  0.85400392487E+03  0.86398211791E+03  0.92790453462E+02 0.  0.
          2    1    3    3  502    0  0.29937266449E+02 -0.46619598466E+01  0.42794117491E+01  0.30598809731E+02  0.00000000000E+00 0. -1.
         -1    1    3    3    0  502  0.13476539002E+03 -0.21929554919E+03  0.49798674067E+02  0.26216818300E+03  0.00000000000E+00 0.  1.
         11    1    5    5    0    0 -0.69161889585E+02  0.10399301096E+03 -0.13494802938E+03  0.18387192263E+03  0.00000000000E+00 0.  1.
        -11    1    5    5    0    0 -0.44358351984E+01  0.10472574677E+03 -0.37728313080E+02  0.11140280193E+03  0.00000000000E+00 0. -1.
          1    1    6    6  503    0 -0.64415189451E+02  0.13772164344E+02  0.80871593718E+03  0.81139414356E+03  0.00000000000E+00 0. -1.
         -1    1    6    6    0  503 -0.26689742233E+02  0.14665869633E+01  0.45287987688E+02  0.52587974354E+02  0.00000000000E+00 0.  1.
<mgrwt>
<rscale>  0 0.12520191E+04</rscale>
<asrwt>0</asrwt>
<pdfrwt beam="1">  1        2 0.55124475E-01 0.12520191E+04</pdfrwt>
<pdfrwt beam="2">  1       -1 0.16826381E+00 0.12520191E+04</pdfrwt>
<totfact> 0.25681669E+01</totfact>
</mgrwt>
</event>
<event>
12    6  0.1538774E-007  0.2931190E+04  0.7818608E-02  0.8263657E-01
         -1   -1    0    0    0  501 -0.00000000000E+00  0.00000000000E+00  0.13861190523E+04  0.13861190523E+04  0.00000000000E+00 0.  1.
          2   -1    0    0  501    0  0.00000000000E+00 -0.00000000000E+00 -0.15496282166E+04  0.15496282166E+04  0.00000000000E+00 0. -1.
         24    2    1    2    0    0 -0.10911597227E+04 -0.18371398243E+03  0.69538638762E+03  0.13092919806E+04  0.79390772748E+02 0.  0.
        254    2    1    2    0    0  0.10911597227E+04  0.18371398243E+03 -0.85889555197E+03  0.16264552883E+04  0.82660442041E+03 0.  0.
         23    2    4    4    0    0  0.54151488397E+03  0.38271601060E+03 -0.78269930554E+03  0.10300496985E+04  0.93135729462E+02 0.  0.
         23    2    4    4    0    0  0.54964483870E+03 -0.19900202817E+03 -0.76196246428E+02  0.59640558980E+03  0.90457192385E+02 0.  0.
          4    1    3    3  502    0 -0.26653968192E+02  0.31667291972E+01  0.64629278751E+01  0.27608542716E+02  0.00000000000E+00 0. -1.
         -1    1    3    3    0  502 -0.10645057545E+04 -0.18688071162E+03  0.68892345974E+03  0.12816834379E+04  0.00000000000E+00 0.  1.
         11    1    5    5    0    0  0.40577438647E+03  0.24230410589E+03 -0.58643065037E+03  0.75316999418E+03  0.00000000000E+00 0. -1.
        -11    1    5    5    0    0  0.13574049750E+03  0.14041190470E+03 -0.19626865517E+03  0.27687970429E+03  0.00000000000E+00 0.  1.
          4    1    6    6  503    0  0.51152396847E+03 -0.16962412145E+03 -0.49030863728E+02  0.54114059033E+03  0.00000000000E+00 0. -1.
         -4    1    6    6    0  503  0.38120870224E+02 -0.29377906715E+02 -0.27165382700E+02  0.55264999474E+02  0.00000000000E+00 0.  1.
<mgrwt>
<rscale>  0 0.29311903E+04</rscale>
<asrwt>0</asrwt>
<pdfrwt beam="1">  1        2 0.23840434E+00 0.29311903E+04</pdfrwt>
<pdfrwt beam="2">  1       -1 0.21324908E+00 0.29311903E+04</pdfrwt>
<totfact> 0.14255671E+00</totfact>
</mgrwt>
</event>
<event>
12    6  0.1538774E-007  0.2000526E+04  0.7818608E-02  0.8606375E-01
         -1   -1    0    0    0  501 -0.00000000000E+00  0.00000000000E+00  0.63319048024E+03  0.63319048024E+03  0.00000000000E+00 0.  1.
          2   -1    0    0  501    0  0.00000000000E+00 -0.00000000000E+00 -0.15801337177E+04  0.15801337177E+04  0.00000000000E+00 0. -1.
         24    2    1    2    0    0  0.47733940119E+03  0.55276223129E+03 -0.32838675326E+02  0.73497906231E+03  0.75609888072E+02 0.  0.
        254    2    1    2    0    0 -0.47733940119E+03 -0.55276223129E+03 -0.91410456216E+03  0.14783451357E+04  0.90361396697E+03 0.  0.
         23    2    4    4    0    0 -0.66212326225E+03 -0.45682226400E+03 -0.37269799803E+03  0.89139883229E+03  0.92705367554E+02 0.  0.
         23    2    4    4    0    0  0.18478386107E+03 -0.95939967288E+02 -0.54140656412E+03  0.58694630336E+03  0.89640073174E+02 0.  0.
          2    1    3    3  502    0  0.97878736757E+02  0.85234919441E+02 -0.28219837832E+02  0.13282167688E+03  0.00000000000E+00 0. -1.
         -1    1    3    3    0  502  0.37946066443E+03  0.46752731185E+03 -0.46188374938E+01  0.60215738543E+03  0.00000000000E+00 0.  1.
         11    1    5    5    0    0 -0.53455476622E+03 -0.33378243159E+03 -0.31814499844E+03  0.70595732857E+03  0.00000000000E+00 0. -1.
        -11    1    5    5    0    0 -0.12756849603E+03 -0.12303983241E+03 -0.54552999598E+02  0.18544150372E+03  0.00000000000E+00 0.  1.
          2    1    6    6  503    0  0.12946245805E+03 -0.10645599432E+03 -0.44176851705E+03  0.47249638034E+03  0.00000000000E+00 0.  1.
         -2    1    6    6    0  503  0.55321403014E+02  0.10516027035E+02 -0.99638047070E+02  0.11444992302E+03  0.00000000000E+00 0. -1.
<mgrwt>
<rscale>  0 0.20005256E+04</rscale>
<asrwt>0</asrwt>
<pdfrwt beam="1">  1        2 0.24309749E+00 0.20005256E+04</pdfrwt>
<pdfrwt beam="2">  1       -1 0.97413921E-01 0.20005256E+04</pdfrwt>
<totfact> 0.12251245E+01</totfact>
</mgrwt>
</event>
<event>
12    6  0.1538774E-007  0.1428334E+04  0.7818608E-02  0.8933561E-01
          2   -1    0    0  501    0  0.00000000000E+00  0.00000000000E+00  0.48470851499E+03  0.48470851499E+03  0.00000000000E+00 0. -1.
         -1   -1    0    0    0  501 -0.00000000000E+00 -0.00000000000E+00 -0.10522498217E+04  0.10522498217E+04  0.00000000000E+00 0.  1.
         24    2    1    2    0    0 -0.27740122720E+03 -0.20092197126E+03 -0.44821488534E+03  0.56960012493E+03  0.78909058371E+02 0.  0.
        254    2    1    2    0    0  0.27740122720E+03  0.20092197126E+03 -0.11932642138E+03  0.96735821176E+03  0.89678427486E+03 0.  0.
         23    2    4    4    0    0 -0.27079120807E+03  0.53428724873E+02 -0.24354646078E+03  0.37945493322E+03  0.92133928461E+02 0.  0.
         23    2    4    4    0    0  0.54819243528E+03  0.14749324638E+03  0.12422003940E+03  0.58790327854E+03  0.89053034235E+02 0.  0.
          2    1    3    3  502    0 -0.14785755845E+03 -0.60811767990E+02 -0.22353225844E+03  0.27482103136E+03  0.00000000000E+00 0. -1.
         -1    1    3    3    0  502 -0.12954366876E+03 -0.14011020327E+03 -0.22468262690E+03  0.29477909357E+03  0.00000000000E+00 0.  1.
         11    1    5    5    0    0 -0.65146353942E+02  0.48819480392E+02 -0.98366785313E+02  0.12768482114E+03  0.00000000000E+00 0.  1.
        -11    1    5    5    0    0 -0.20564485413E+03  0.46092444809E+01 -0.14517967547E+03  0.25177011207E+03  0.00000000000E+00 0. -1.
          3    1    6    6  503    0  0.33835372516E+03  0.13276716024E+03  0.63641943797E+02  0.36899953818E+03  0.00000000000E+00 0. -1.
         -3    1    6    6    0  503  0.20983871011E+03  0.14726086147E+02  0.60578095608E+02  0.21890374036E+03  0.00000000000E+00 0.  1.
<mgrwt>
<rscale>  0 0.14283339E+04</rscale>
<asrwt>0</asrwt>
<pdfrwt beam="1">  1        2 0.74570542E-01 0.14283339E+04</pdfrwt>
<pdfrwt beam="2">  1       -1 0.16188459E+00 0.14283339E+04</pdfrwt>
<totfact> 0.20053236E+01</totfact>
</mgrwt>
</event>
<event>
12    6  0.1538774E-007  0.2650495E+04  0.7818608E-02  0.8351249E-01
          2   -1    0    0  501    0  0.00000000000E+00  0.00000000000E+00  0.28513913058E+04  0.28513913058E+04  0.00000000000E+00 0. -1.
         -1   -1    0    0    0  501 -0.00000000000E+00 -0.00000000000E+00 -0.61593841812E+03  0.61593841812E+03  0.00000000000E+00 0.  1.
         24    2    1    2    0    0 -0.10111101680E+04 -0.50357008709E+03  0.13857455534E+04  0.17895607132E+04  0.79436785551E+02 0.  0.
        254    2    1    2    0    0  0.10111101680E+04  0.50357008709E+03  0.84970733431E+03  0.16777690108E+04  0.90386929090E+03 0.  0.
         23    2    4    4    0    0 -0.94149699691E+02  0.24782159149E+03  0.31141184594E+03  0.41889143986E+03  0.90625567229E+02 0.  0.
         23    2    4    4    0    0  0.11052598677E+04  0.25574849561E+03  0.53829548837E+03  0.12588775709E+04  0.89465286899E+02 0.  0.
          2    1    3    3  502    0 -0.94927325623E+03 -0.47342788333E+03  0.12681043200E+04  0.16532822633E+04  0.00000000000E+00 0. -1.
         -1    1    3    3    0  502 -0.61836911800E+02 -0.30142203760E+02  0.11764123344E+03  0.13627844993E+03  0.00000000000E+00 0.  1.
         11    1    5    5    0    0 -0.10252123208E+03  0.16901572874E+03  0.24953646262E+03  0.31834786911E+03  0.00000000000E+00 0.  1.
        -11    1    5    5    0    0  0.83715323921E+01  0.78805862748E+02  0.61875383320E+02  0.10054357075E+03  0.00000000000E+00 0. -1.
          1    1    6    6  503    0  0.22906935680E+03  0.89198531113E+02  0.10483711905E+03  0.26724514909E+03  0.00000000000E+00 0. -1.
         -1    1    6    6    0  503  0.87619051091E+03  0.16654996449E+03  0.43345836932E+03  0.99163242183E+03  0.00000000000E+00 0.  1.
<mgrwt>
<rscale>  0 0.26504954E+04</rscale>
<asrwt>0</asrwt>
<pdfrwt beam="1">  1        2 0.43867558E+00 0.26504954E+04</pdfrwt>
<pdfrwt beam="2">  1       -1 0.94759758E-01 0.26504954E+04</pdfrwt>
<totfact> 0.23201089E+00</totfact>
</mgrwt>
</event>
<event>
12    6  0.1538774E-007  0.1177102E+04  0.7818608E-02  0.9133138E-01
          2   -1    0    0  501    0  0.00000000000E+00  0.00000000000E+00  0.71723655120E+03  0.71723655120E+03  0.00000000000E+00 0. -1.
         -1   -1    0    0    0  501 -0.00000000000E+00 -0.00000000000E+00 -0.48295417336E+03  0.48295417336E+03  0.00000000000E+00 0.  1.
         24    2    1    2    0    0  0.10538805817E+03 -0.80766119170E+02 -0.14104402121E+03  0.21094853536E+03  0.83522810309E+02 0.  0.
        254    2    1    2    0    0 -0.10538805817E+03  0.80766119170E+02  0.37532639905E+03  0.98924218920E+03  0.90559394557E+03 0.  0.
         23    2    4    4    0    0  0.15362666646E+03 -0.42091502460E+02  0.59117200347E+03  0.61905387512E+03  0.91490520713E+02 0.  0.
         23    2    4    4    0    0 -0.25901472463E+03  0.12285762163E+03 -0.21584560443E+03  0.37018831408E+03  0.90925464883E+02 0.  0.
          4    1    3    3  502    0  0.10417109813E+02  0.15552157345E+02 -0.32549228723E+02  0.37547810395E+02  0.00000000000E+00 0. -1.
         -3    1    3    3    0  502  0.94970948357E+02 -0.96318276515E+02 -0.10849479249E+03  0.17340072497E+03  0.00000000000E+00 0.  1.
         11    1    5    5    0    0  0.86437379375E+02 -0.60921126640E+02  0.44039468063E+03  0.45291310309E+03  0.00000000000E+00 0. -1.
        -11    1    5    5    0    0  0.67189287084E+02  0.18829624180E+02  0.15077732284E+03  0.16614077202E+03  0.00000000000E+00 0.  1.
          2    1    6    6  503    0 -0.10910735827E+03  0.92446702129E+02 -0.13726502243E+03  0.19822334562E+03  0.00000000000E+00 0. -1.
         -2    1    6    6    0  503 -0.14990736636E+03  0.30410919501E+02 -0.78580581997E+02  0.17196496847E+03  0.00000000000E+00 0.  1.
<mgrwt>
<rscale>  0 0.11771022E+04</rscale>
<asrwt>0</asrwt>
<pdfrwt beam="1">  1        2 0.11034409E+00 0.11771022E+04</pdfrwt>
<pdfrwt beam="2">  1       -1 0.74300642E-01 0.11771022E+04</pdfrwt>
<totfact> 0.81773976E+01</totfact>
</mgrwt>
</event>
<event>
12    6  0.1538774E-007  0.1391862E+04  0.7818608E-02  0.8959730E-01
          2   -1    0    0  501    0  0.00000000000E+00  0.00000000000E+00  0.34148529000E+03  0.34148529000E+03  0.00000000000E+00 0. -1.
         -1   -1    0    0    0  501 -0.00000000000E+00 -0.00000000000E+00 -0.14182745556E+04  0.14182745556E+04  0.00000000000E+00 0.  1.
         24    2    1    2    0    0  0.82624115644E+01  0.38037299311E+03 -0.42559396077E+03  0.57646719120E+03  0.80201756534E+02 0.  0.
        254    2    1    2    0    0 -0.82624115644E+01 -0.38037299311E+03 -0.65119530482E+03  0.11832926544E+04  0.91179729085E+03 0.  0.
         23    2    4    4    0    0  0.29284869112E+03 -0.21855662435E+03  0.66408081996E+02  0.38296972837E+03  0.93426043213E+02 0.  0.
         23    2    4    4    0    0 -0.30111110269E+03 -0.16181636876E+03 -0.71760338682E+03  0.80032292604E+03  0.93325943891E+02 0.  0.
          4    1    3    3  502    0  0.93338422675E+01  0.49418147343E+01 -0.26557729925E+02  0.28580678143E+02  0.00000000000E+00 0. -1.
         -3    1    3    3    0  502 -0.10714307031E+01  0.37543117837E+03 -0.39903623085E+03  0.54788651305E+03  0.00000000000E+00 0.  1.
         11    1    5    5    0    0  0.27355706042E+03 -0.22710732554E+03  0.57946069351E+02  0.36023457576E+03  0.00000000000E+00 0. -1.
        -11    1    5    5    0    0  0.19291630705E+02  0.85507011895E+01  0.84620126456E+01  0.22735152608E+02  0.00000000000E+00 0.  1.
          1    1    6    6  503    0 -0.22074595224E+03 -0.13851648632E+03 -0.61492186144E+03  0.66786562128E+03  0.00000000000E+00 0. -1.
         -1    1    6    6    0  503 -0.80365150451E+02 -0.23299882438E+02 -0.10268152538E+03  0.13245730475E+03  0.00000000000E+00 0.  1.
<mgrwt>
<rscale>  0 0.13918619E+04</rscale>
<asrwt>0</asrwt>
<pdfrwt beam="1">  1        2 0.52536198E-01 0.13918619E+04</pdfrwt>
<pdfrwt beam="2">  1       -1 0.21819609E+00 0.13918619E+04</pdfrwt>
<totfact> 0.11987692E+01</totfact>
</mgrwt>
</event>
<event>
12    6  0.1538774E-007  0.1746207E+04  0.7818608E-02  0.8735441E-01
         -1   -1    0    0    0  501 -0.00000000000E+00  0.00000000000E+00  0.17370995760E+04  0.17370995760E+04  0.00000000000E+00 0.  1.
          2   -1    0    0  501    0  0.00000000000E+00 -0.00000000000E+00 -0.43884074919E+03  0.43884074919E+03  0.00000000000E+00 0. -1.
         24    2    1    2    0    0  0.64545916695E+02 -0.17174045705E+03 -0.27544578522E+03  0.34016910612E+03  0.78636379721E+02 0.  0.
        254    2    1    2    0    0 -0.64545916695E+02  0.17174045705E+03  0.15737046120E+04  0.18357712190E+04  0.92728032595E+03 0.  0.
         23    2    4    4    0    0  0.41669861720E+03  0.38183462648E+02  0.84466071528E+03  0.94704806170E+03  0.91392520702E+02 0.  0.
         23    2    4    4    0    0 -0.48124453389E+03  0.13355699440E+03  0.72904389673E+03  0.88872315735E+03  0.94287193716E+02 0.  0.
          2    1    3    3  502    0  0.60464495419E+02 -0.15080445250E+03 -0.27430050194E+03  0.31880825501E+03  0.00000000000E+00 0. -1.
         -1    1    3    3    0  502  0.40814212763E+01 -0.20936004549E+02 -0.11452832731E+01  0.21360851104E+02  0.00000000000E+00 0.  1.
         11    1    5    5    0    0  0.29948598062E+03 -0.14205976646E+02  0.58204993079E+03  0.65473336886E+03  0.00000000000E+00 0.  1.
        -11    1    5    5    0    0  0.11721263658E+03  0.52389439294E+02  0.26261078448E+03  0.29231469284E+03  0.00000000000E+00 0. -1.
          4    1    6    6  503    0 -0.62331563921E+02 -0.44080177080E+01  0.55218842243E+02  0.83389297992E+02  0.00000000000E+00 0. -1.
         -4    1    6    6    0  503 -0.41891296997E+03  0.13796501211E+03  0.67382505448E+03  0.80533385936E+03  0.00000000000E+00 0.  1.
<mgrwt>
<rscale>  0 0.17462074E+04</rscale>
<asrwt>0</asrwt>
<pdfrwt beam="1">  1        2 0.67513962E-01 0.17462074E+04</pdfrwt>
<pdfrwt beam="2">  1       -1 0.26724608E+00 0.17462074E+04</pdfrwt>
<totfact> 0.41789850E+00</totfact>
</mgrwt>
</event>
<event>
12    6  0.1538774E-007  0.1175438E+04  0.7818608E-02  0.9134632E-01
          2   -1    0    0  501    0  0.00000000000E+00  0.00000000000E+00  0.46945930638E+03  0.46945930638E+03  0.00000000000E+00 0. -1.
         -1   -1    0    0    0  501 -0.00000000000E+00 -0.00000000000E+00 -0.73576873816E+03  0.73576873816E+03  0.00000000000E+00 0.  1.
         24    2    1    2    0    0  0.29276970229E+02  0.23434131290E+03 -0.40598210199E+02  0.25258147327E+03  0.79851074195E+02 0.  0.
        254    2    1    2    0    0 -0.29276970229E+02 -0.23434131290E+03 -0.22571122159E+03  0.95264657126E+03  0.89488375908E+03 0.  0.
         23    2    4    4    0    0 -0.41654947377E+03  0.19905752514E+02 -0.22009202046E+03  0.48040615855E+03  0.91868801163E+02 0.  0.
         23    2    4    4    0    0  0.38727250354E+03 -0.25424706542E+03 -0.56192011308E+01  0.47224041271E+03  0.91421385366E+02 0.  0.
          2    1    3    3  502    0  0.43262920427E+02  0.13647566843E+03  0.59900080417E+01  0.14329399343E+03  0.00000000000E+00 0. -1.
         -1    1    3    3    0  502 -0.13985950198E+02  0.97865644472E+02 -0.46588218240E+02  0.10928747984E+03  0.00000000000E+00 0.  1.
         11    1    5    5    0    0 -0.93643081019E+02 -0.21492888762E+02 -0.83761914752E+02  0.12746383508E+03  0.00000000000E+00 0. -1.
        -11    1    5    5    0    0 -0.32290639275E+03  0.41398641276E+02 -0.13633010570E+03  0.35294232348E+03  0.00000000000E+00 0.  1.
          3    1    6    6  503    0 -0.33251533928E+01 -0.72660480899E+01 -0.61900827272E+01  0.10107879308E+02  0.00000000000E+00 0. -1.
         -3    1    6    6    0  503  0.39059765693E+03 -0.24698101733E+03  0.57088159640E+00  0.46213253340E+03  0.00000000000E+00 0.  1.
<mgrwt>
<rscale>  0 0.11754378E+04</rscale>
<asrwt>0</asrwt>
<pdfrwt beam="1">  1        2 0.72224509E-01 0.11754378E+04</pdfrwt>
<pdfrwt beam="2">  1       -1 0.11319519E+00 0.11754378E+04</pdfrwt>
<totfact> 0.53416139E+01</totfact>
</mgrwt>
</event>
<event>
12    6  0.1538774E-007  0.2300281E+04  0.7818608E-02  0.8477810E-01
          2   -1    0    0  501    0  0.00000000000E+00  0.00000000000E+00  0.13485703822E+04  0.13485703822E+04  0.00000000000E+00 0. -1.
         -1   -1    0    0    0  501 -0.00000000000E+00 -0.00000000000E+00 -0.98090774239E+03  0.98090774239E+03  0.00000000000E+00 0.  1.
         24    2    1    2    0    0 -0.86450227972E+03  0.22835049025E+03 -0.19209931377E+03  0.91789931013E+03  0.78287030476E+02 0.  0.
        254    2    1    2    0    0  0.86450227972E+03 -0.22835049025E+03  0.55976195358E+03  0.14115788145E+04  0.93793025685E+03 0.  0.
         23    2    4    4    0    0  0.73360237680E+03  0.85444461769E+02 -0.77558869153E+01  0.74396492925E+03  0.89165345714E+02 0.  0.
         23    2    4    4    0    0  0.13089990292E+03 -0.31379495202E+03  0.56751784049E+03  0.66761388521E+03  0.89608838616E+02 0.  0.
          2    1    3    3  502    0 -0.77423732080E+03  0.19072718780E+03 -0.14971200283E+03  0.81131619784E+03  0.00000000000E+00 0. -1.
         -1    1    3    3    0  502 -0.90264958923E+02  0.37623302450E+02 -0.42387310938E+02  0.10658311229E+03  0.00000000000E+00 0.  1.
         11    1    5    5    0    0  0.43207845116E+03  0.35878793188E+02 -0.46049486296E+02  0.43600416391E+03  0.00000000000E+00 0. -1.
        -11    1    5    5    0    0  0.30152392564E+03  0.49565668581E+02  0.38293599381E+02  0.30796076534E+03  0.00000000000E+00 0.  1.
          2    1    6    6  503    0  0.10116899208E+03 -0.29011703917E+03  0.53774909281E+03  0.61933605433E+03  0.00000000000E+00 0. -1.
         -2    1    6    6    0  503  0.29730910844E+02 -0.23677912843E+02  0.29768747682E+02  0.48277830883E+02  0.00000000000E+00 0.  1.
<mgrwt>
<rscale>  0 0.23002810E+04</rscale>
<asrwt>0</asrwt>
<pdfrwt beam="1">  1        2 0.20747237E+00 0.23002810E+04</pdfrwt>
<pdfrwt beam="2">  1       -1 0.15090888E+00 0.23002810E+04</pdfrwt>
<totfact> 0.54936194E+00</totfact>
</mgrwt>
</event>
<event>
12    6  0.1538774E-007  0.1893531E+04  0.7818608E-02  0.8658083E-01
          2   -1    0    0  501    0  0.00000000000E+00  0.00000000000E+00  0.33681263898E+04  0.33681263898E+04  0.00000000000E+00 0. -1.
         -1   -1    0    0    0  501 -0.00000000000E+00 -0.00000000000E+00 -0.26613165498E+03  0.26613165498E+03  0.00000000000E+00 0.  1.
         24    2    1    2    0    0 -0.92949155477E+02  0.50289739954E+03  0.21809314469E+04  0.22415151636E+04  0.79893132744E+02 0.  0.
        254    2    1    2    0    0  0.92949155477E+02 -0.50289739954E+03  0.92106328788E+03  0.13927428811E+04  0.91094995072E+03 0.  0.
         23    2    4    4    0    0  0.38778576060E+03 -0.13515204217E+03  0.85680723655E+02  0.42960624672E+03  0.92609233797E+02 0.  0.
         23    2    4    4    0    0 -0.29483660512E+03 -0.36774535737E+03  0.83538256423E+03  0.96313663442E+03  0.87194474392E+02 0.  0.
          2    1    3    3  502    0 -0.60056948708E+02  0.29600685114E+03  0.11144766103E+04  0.11546796127E+04  0.00000000000E+00 0. -1.
         -1    1    3    3    0  502 -0.32892206770E+02  0.20689054840E+03  0.10664548366E+04  0.10868355510E+04  0.00000000000E+00 0.  1.
         11    1    5    5    0    0  0.27880963631E+03 -0.11376560469E+03  0.10074879491E+03  0.31753384983E+03  0.00000000000E+00 0.  1.
        -11    1    5    5    0    0  0.10897612429E+03 -0.21386437482E+02 -0.15068071254E+02  0.11207239689E+03  0.00000000000E+00 0. -1.
          3    1    6    6  503    0 -0.29123987809E+03 -0.34447764140E+03  0.81702330967E+03  0.93328055833E+03  0.00000000000E+00 0. -1.
         -3    1    6    6    0  503 -0.35967270365E+01 -0.23267715968E+02  0.18359254559E+02  0.29856076094E+02  0.00000000000E+00 0.  1.
<mgrwt>
<rscale>  0 0.18935311E+04</rscale>
<asrwt>0</asrwt>
<pdfrwt beam="1">  1        2 0.51817326E+00 0.18935311E+04</pdfrwt>
<pdfrwt beam="2">  1       -1 0.40943334E-01 0.18935311E+04</pdfrwt>
<totfact> 0.62747694E+00</totfact>
</mgrwt>
</event>
<event>
12    6  0.1538774E-007  0.1290586E+04  0.7818608E-02  0.9037064E-01
          2   -1    0    0  501    0  0.00000000000E+00  0.00000000000E+00  0.26824159526E+04  0.26824159526E+04  0.00000000000E+00 0. -1.
         -1   -1    0    0    0  501 -0.00000000000E+00 -0.00000000000E+00 -0.15523445479E+03  0.15523445479E+03  0.00000000000E+00 0.  1.
         24    2    1    2    0    0 -0.22730571657E+03 -0.14330207514E+03  0.10761239507E+04  0.11116408861E+04  0.74157460797E+02 0.  0.
        254    2    1    2    0    0  0.22730571657E+03  0.14330207514E+03  0.14510575472E+04  0.17260095213E+04  0.89517455774E+03 0.  0.
         23    2    4    4    0    0  0.23836151078E+03  0.21320535591E+03  0.15410272092E+04  0.15765206385E+04  0.91540867815E+02 0.  0.
         23    2    4    4    0    0 -0.11055794215E+02 -0.69903280778E+02 -0.89969662012E+02  0.14948888281E+03  0.96144093687E+02 0.  0.
          4    1    3    3  502    0 -0.20918513645E+03 -0.15101436299E+03  0.97119440528E+03  0.10048792624E+04  0.00000000000E+00 0. -1.
         -3    1    3    3    0  502 -0.18120580117E+02  0.77122878485E+01  0.10492954541E+03  0.10676162376E+03  0.00000000000E+00 0.  1.
         11    1    5    5    0    0  0.21849750735E+03  0.21116530951E+03  0.15046263781E+04  0.15350024386E+04  0.00000000000E+00 0. -1.
        -11    1    5    5    0    0  0.19864003437E+02  0.20400464080E+01  0.36400831057E+02  0.41518199907E+02  0.00000000000E+00 0.  1.
          4    1    6    6  503    0  0.16057938249E+02 -0.83145072462E+02 -0.82884185844E+02  0.11849366531E+03  0.00000000000E+00 0. -1.
         -4    1    6    6    0  503 -0.27113732464E+02  0.13241791684E+02 -0.70854761681E+01  0.30995217497E+02  0.00000000000E+00 0.  1.
<mgrwt>
<rscale>  0 0.12905865E+04</rscale>
<asrwt>0</asrwt>
<pdfrwt beam="1">  1        2 0.41267934E+00 0.12905865E+04</pdfrwt>
<pdfrwt beam="2">  1       -1 0.23882226E-01 0.12905865E+04</pdfrwt>
<totfact> 0.46361230E+01</totfact>
</mgrwt>
</event>
<event>
12    6  0.1538774E-007  0.1980285E+04  0.7818608E-02  0.8615894E-01
         -1   -1    0    0    0  501 -0.00000000000E+00  0.00000000000E+00  0.15436191537E+04  0.15436191537E+04  0.00000000000E+00 0.  1.
          2   -1    0    0  501    0  0.00000000000E+00 -0.00000000000E+00 -0.63511936272E+03  0.63511936272E+03  0.00000000000E+00 0. -1.
         24    2    1    2    0    0 -0.62777099918E+03 -0.31952988890E+03  0.73914855308E+03  0.10242117557E+04  0.80457192053E+02 0.  0.
        254    2    1    2    0    0  0.62777099918E+03  0.31952988890E+03  0.16935123792E+03  0.11545267607E+04  0.89891958598E+03 0.  0.
         23    2    4    4    0    0  0.28599701580E+03 -0.29896218088E+03  0.67830843186E+01  0.42364336414E+03  0.90857091644E+02 0.  0.
         23    2    4    4    0    0  0.34177398338E+03  0.61849206979E+03  0.16256815361E+03  0.73088339656E+03  0.91761858609E+02 0.  0.
          4    1    3    3  502    0 -0.97651293149E+01 -0.19896408959E+02  0.24300429660E+02  0.32889751013E+02  0.00000000000E+00 0. -1.
         -3    1    3    3    0  502 -0.61800586987E+03 -0.29963347995E+03  0.71484812342E+03  0.99132200472E+03  0.00000000000E+00 0.  1.
         11    1    5    5    0    0  0.10056124302E+03 -0.51171131357E+02 -0.12653093124E+02  0.11353919609E+03  0.00000000000E+00 0.  1.
        -11    1    5    5    0    0  0.18543577278E+03 -0.24779104952E+03  0.19436177442E+02  0.31010416806E+03  0.00000000000E+00 0. -1.
          3    1    6    6  503    0  0.30842156474E+03  0.59681108735E+03  0.14433754945E+03  0.68712492588E+03  0.00000000000E+00 0. -1.
         -3    1    6    6    0  503  0.33352418639E+02  0.21680982434E+02  0.18230604154E+02  0.43758470679E+02  0.00000000000E+00 0.  1.
<mgrwt>
<rscale>  0 0.19802852E+04</rscale>
<asrwt>0</asrwt>
<pdfrwt beam="1">  1        2 0.97710672E-01 0.19802852E+04</pdfrwt>
<pdfrwt beam="2">  1       -1 0.23747987E+00 0.19802852E+04</pdfrwt>
<totfact> 0.41405007E+00</totfact>
</mgrwt>
</event>
<event>
12    6  0.1538774E-007  0.1387306E+04  0.7818608E-02  0.8963059E-01
         -1   -1    0    0    0  501 -0.00000000000E+00  0.00000000000E+00  0.10356106232E+04  0.10356106232E+04  0.00000000000E+00 0.  1.
          2   -1    0    0  501    0  0.00000000000E+00 -0.00000000000E+00 -0.46460918657E+03  0.46460918657E+03  0.00000000000E+00 0. -1.
         24    2    1    2    0    0  0.19499405119E+03  0.34629332549E+03  0.17085260935E+03  0.43948915262E+03  0.77578050201E+02 0.  0.
        254    2    1    2    0    0 -0.19499405119E+03 -0.34629332549E+03  0.40014882727E+03  0.10607306571E+04  0.89838115281E+03 0.  0.
         23    2    4    4    0    0  0.14580144941E+03 -0.41568725824E+03  0.51449282422E+03  0.68332850737E+03  0.90449010517E+02 0.  0.
         23    2    4    4    0    0 -0.34079550060E+03  0.69393932748E+02 -0.11434399695E+03  0.37740214975E+03  0.91655561033E+02 0.  0.
          2    1    3    3  502    0  0.16403159840E+03  0.26375224701E+03  0.99724546123E+02  0.32621557010E+03  0.00000000000E+00 0. -1.
         -1    1    3    3    0  502  0.30962452794E+02  0.82541078481E+02  0.71128063224E+02  0.11327358252E+03  0.00000000000E+00 0.  1.
         11    1    5    5    0    0  0.67311361124E+02 -0.78974462998E+02  0.12742367792E+03  0.16433069962E+03  0.00000000000E+00 0. -1.
        -11    1    5    5    0    0  0.78490088288E+02 -0.33671279524E+03  0.38706914630E+03  0.51899780776E+03  0.00000000000E+00 0.  1.
          2    1    6    6  503    0 -0.15331339852E+03  0.45272457720E+01 -0.11159101182E+02  0.15378562891E+03  0.00000000000E+00 0. -1.
         -2    1    6    6    0  503 -0.18748210209E+03  0.64866686976E+02 -0.10318489577E+03  0.22361652085E+03  0.00000000000E+00 0.  1.
<mgrwt>
<rscale>  0 0.13873056E+04</rscale>
<asrwt>0</asrwt>
<pdfrwt beam="1">  1        2 0.71478337E-01 0.13873056E+04</pdfrwt>
<pdfrwt beam="2">  1       -1 0.15932471E+00 0.13873056E+04</pdfrwt>
<totfact> 0.22089113E+01</totfact>
</mgrwt>
</event>
<event>
12    6  0.1538774E-007  0.2180700E+04  0.7818608E-02  0.8526504E-01
         -1   -1    0    0    0  501 -0.00000000000E+00  0.00000000000E+00  0.10445756707E+04  0.10445756707E+04  0.00000000000E+00 0.  1.
          2   -1    0    0  501    0  0.00000000000E+00 -0.00000000000E+00 -0.11381306464E+04  0.11381306464E+04  0.00000000000E+00 0. -1.
         24    2    1    2    0    0 -0.51396977756E+03  0.14153872423E+03 -0.76784295119E+03  0.93812141933E+03  0.79314923018E+02 0.  0.
        254    2    1    2    0    0  0.51396977756E+03 -0.14153872423E+03  0.67428797551E+03  0.12445848978E+04  0.90007174780E+03 0.  0.
         23    2    4    4    0    0 -0.53213921676E+02 -0.32453432246E+03  0.17890039065E+01  0.34125061170E+03  0.91074318721E+02 0.  0.
         23    2    4    4    0    0  0.56718369923E+03  0.18299559823E+03  0.67249897161E+03  0.90333428609E+03  0.92591727349E+02 0.  0.
          2    1    3    3  502    0 -0.40871474635E+03  0.97061052629E+02 -0.65036715550E+03  0.77423899977E+03  0.00000000000E+00 0. -1.
         -3    1    3    3    0  502 -0.10525503121E+03  0.44477671606E+02 -0.11747579569E+03  0.16388241955E+03  0.00000000000E+00 0.  1.
         11    1    5    5    0    0 -0.81630126546E+01 -0.16613885950E+03 -0.40564032051E+02  0.17121388994E+03  0.00000000000E+00 0. -1.
        -11    1    5    5    0    0 -0.45050909021E+02 -0.15839546297E+03  0.42353035958E+02  0.17003672176E+03  0.00000000000E+00 0.  1.
          4    1    6    6  503    0  0.13927984341E+03  0.50355277475E+02  0.23066653224E+03  0.27411964148E+03  0.00000000000E+00 0. -1.
         -4    1    6    6    0  503  0.42790385583E+03  0.13264032075E+03  0.44183243937E+03  0.62921464461E+03  0.00000000000E+00 0.  1.
<mgrwt>
<rscale>  0 0.21807004E+04</rscale>
<asrwt>0</asrwt>
<pdfrwt beam="1">  1        2 0.17509702E+00 0.21807004E+04</pdfrwt>
<pdfrwt beam="2">  1       -1 0.16070395E+00 0.21807004E+04</pdfrwt>
<totfact> 0.62204012E+00</totfact>
</mgrwt>
</event>
<event>
12    6  0.1538774E-007  0.1744706E+04  0.7818608E-02  0.8736269E-01
         -1   -1    0    0    0  501 -0.00000000000E+00  0.00000000000E+00  0.11654724629E+04  0.11654724629E+04  0.00000000000E+00 0.  1.
          2   -1    0    0  501    0  0.00000000000E+00 -0.00000000000E+00 -0.65295421673E+03  0.65295421673E+03  0.00000000000E+00 0. -1.
         24    2    1    2    0    0 -0.38426954737E+02 -0.88416194769E+02  0.84837246431E+03  0.85764622945E+03  0.80790855634E+02 0.  0.
        254    2    1    2    0    0  0.38426954737E+02  0.88416194769E+02 -0.33585421817E+03  0.96078045015E+03  0.89498992351E+03 0.  0.
         23    2    4    4    0    0  0.20468313217E+03 -0.28628529966E+03  0.77433945760E+02  0.37153866555E+03  0.90501417931E+02 0.  0.
         23    2    4    4    0    0 -0.16625617743E+03  0.37470149442E+03 -0.41328816393E+03  0.58924178461E+03  0.91413608540E+02 0.  0.
          2    1    3    3  502    0  0.23164663018E+02 -0.41941013875E+02  0.37039037941E+03  0.37347648308E+03  0.00000000000E+00 0. -1.
         -1    1    3    3    0  502 -0.61591617755E+02 -0.46475180893E+02  0.47798208490E+03  0.48416974637E+03  0.00000000000E+00 0.  1.
         11    1    5    5    0    0  0.96782127549E+02 -0.13606417439E+03 -0.93468343991E+01  0.16723517297E+03  0.00000000000E+00 0. -1.
        -11    1    5    5    0    0  0.10790100462E+03 -0.15022112527E+03  0.86780780159E+02  0.20430349258E+03  0.00000000000E+00 0.  1.
          3    1    6    6  503    0 -0.27764847433E+00  0.89894516209E+02 -0.77477857062E+02  0.11867569030E+03  0.00000000000E+00 0. -1.
         -3    1    6    6    0  503 -0.16597852896E+03  0.28480697822E+03 -0.33581030686E+03  0.47056609431E+03  0.00000000000E+00 0.  1.
<mgrwt>
<rscale>  0 0.17447065E+04</rscale>
<asrwt>0</asrwt>
<pdfrwt beam="1">  1        2 0.10045449E+00 0.17447065E+04</pdfrwt>
<pdfrwt beam="2">  1       -1 0.17930346E+00 0.17447065E+04</pdfrwt>
<totfact> 0.10192587E+01</totfact>
</mgrwt>
</event>
<event>
12    6  0.1538774E-007  0.1466606E+04  0.7818608E-02  0.8906969E-01
          2   -1    0    0  501    0  0.00000000000E+00  0.00000000000E+00  0.18236413735E+04  0.18236413735E+04  0.00000000000E+00 0. -1.
         -1   -1    0    0    0  501 -0.00000000000E+00 -0.00000000000E+00 -0.29486772770E+03  0.29486772770E+03  0.00000000000E+00 0.  1.
         24    2    1    2    0    0  0.25346034553E+03 -0.34378950677E+03  0.27105514730E+03  0.51109840487E+03  0.72919920833E+02 0.  0.
        254    2    1    2    0    0 -0.25346034553E+03  0.34378950677E+03  0.12577184985E+04  0.16074106964E+04  0.90525132063E+03 0.  0.
         23    2    4    4    0    0  0.11332197106E+03  0.53668875252E+03  0.54715968720E+03  0.77970804420E+03  0.87659709562E+02 0.  0.
         23    2    4    4    0    0 -0.36678231660E+03 -0.19289924575E+03  0.71055881133E+03  0.82770265216E+03  0.91969936703E+02 0.  0.
          2    1    3    3  502    0  0.11795633534E+03 -0.17025124061E+03  0.17388407769E+03  0.27043456593E+03  0.00000000000E+00 0. -1.
         -1    1    3    3    0  502  0.13550401019E+03 -0.17353826617E+03  0.97171069604E+02  0.24066383894E+03  0.00000000000E+00 0.  1.
         11    1    5    5    0    0  0.49377370932E+02  0.83653192969E+02  0.80257983812E+02  0.12600525949E+03  0.00000000000E+00 0.  1.
        -11    1    5    5    0    0  0.63944600131E+02  0.45303555955E+03  0.46690170339E+03  0.65370278471E+03  0.00000000000E+00 0. -1.
          1    1    6    6  503    0 -0.86716728043E+02 -0.92332025190E+02  0.19922437196E+03  0.23608334160E+03  0.00000000000E+00 0. -1.
         -1    1    6    6    0  503 -0.28006558855E+03 -0.10056722056E+03  0.51133443937E+03  0.59161931056E+03  0.00000000000E+00 0.  1.
<mgrwt>
<rscale>  0 0.14666056E+04</rscale>
<asrwt>0</asrwt>
<pdfrwt beam="1">  1        2 0.28056021E+00 0.14666056E+04</pdfrwt>
<pdfrwt beam="2">  1       -1 0.45364267E-01 0.14666056E+04</pdfrwt>
<totfact> 0.44566457E+01</totfact>
</mgrwt>
</event>
<event>
12    6  0.1538774E-007  0.1877972E+04  0.7818608E-02  0.8665899E-01
         -1   -1    0    0    0  501 -0.00000000000E+00  0.00000000000E+00  0.65232449127E+03  0.65232449127E+03  0.00000000000E+00 0.  1.
          2   -1    0    0  501    0  0.00000000000E+00 -0.00000000000E+00 -0.13516201373E+04  0.13516201373E+04  0.00000000000E+00 0. -1.
         24    2    1    2    0    0 -0.25806683051E+03 -0.58441065809E+03 -0.69131813933E+03  0.94412890249E+03  0.72967859056E+02 0.  0.
        254    2    1    2    0    0  0.25806683051E+03  0.58441065809E+03 -0.79775066646E+01  0.10598157260E+04  0.84558348273E+03 0.  0.
         23    2    4    4    0    0 -0.13324046914E+03  0.52205734195E+03 -0.23453953126E+03  0.59457344987E+03  0.90619560072E+02 0.  0.
         23    2    4    4    0    0  0.39130729965E+03  0.62353316138E+02  0.22656202459E+03  0.46524227618E+03  0.90059345805E+02 0.  0.
          4    1    3    3  502    0 -0.24025866649E+03 -0.54209753142E+03 -0.66596424437E+03  0.89168510988E+03  0.00000000000E+00 0. -1.
         -3    1    3    3    0  502 -0.17808164019E+02 -0.42313126671E+02 -0.25353894963E+02  0.52443792619E+02  0.00000000000E+00 0.  1.
         11    1    5    5    0    0 -0.94634742892E+02  0.47873508770E+03 -0.20310046587E+03  0.52857621777E+03  0.00000000000E+00 0. -1.
        -11    1    5    5    0    0 -0.38605726248E+02  0.43322254256E+02 -0.31439065384E+02  0.65997232102E+02  0.00000000000E+00 0.  1.
          3    1    6    6  503    0  0.18987140949E+03 -0.11257102802E+02  0.12764284870E+03  0.22906455713E+03  0.00000000000E+00 0. -1.
         -3    1    6    6    0  503  0.20143589016E+03  0.73610418939E+02  0.98919175887E+02  0.23617771905E+03  0.00000000000E+00 0.  1.
<mgrwt>
<rscale>  0 0.18779722E+04</rscale>
<asrwt>0</asrwt>
<pdfrwt beam="1">  1        2 0.20794156E+00 0.18779722E+04</pdfrwt>
<pdfrwt beam="2">  1       -1 0.10035761E+00 0.18779722E+04</pdfrwt>
<totfact> 0.15598189E+01</totfact>
</mgrwt>
</event>
<event>
12    6  0.1538774E-007  0.1272222E+04  0.7818608E-02  0.9051888E-01
          2   -1    0    0  501    0  0.00000000000E+00  0.00000000000E+00  0.10160639771E+04  0.10160639771E+04  0.00000000000E+00 0. -1.
         -1   -1    0    0    0  501 -0.00000000000E+00 -0.00000000000E+00 -0.39824014603E+03  0.39824014603E+03  0.00000000000E+00 0.  1.
         24    2    1    2    0    0 -0.22305246887E+02  0.19519217626E+03  0.41448010232E+03  0.46514052794E+03  0.77229824565E+02 0.  0.
        254    2    1    2    0    0  0.22305246887E+02 -0.19519217626E+03  0.20334372871E+03  0.94916359516E+03  0.90607138165E+03 0.  0.
         23    2    4    4    0    0  0.56400639533E+01  0.21037276970E+03  0.42105016829E+03  0.47957266401E+03  0.91750658293E+02 0.  0.
         23    2    4    4    0    0  0.16665182934E+02 -0.40556494596E+03 -0.21770643958E+03  0.46959093114E+03  0.91426993076E+02 0.  0.
          2    1    3    3  502    0 -0.32187611188E+02  0.11142865327E+03  0.30922016010E+03  0.33025670999E+03  0.00000000000E+00 0. -1.
         -1    1    3    3    0  502  0.98823643009E+01  0.83763522991E+02  0.10525994222E+03  0.13488381795E+03  0.00000000000E+00 0.  1.
         11    1    5    5    0    0  0.44585436705E+02  0.15058579531E+03  0.31121977703E+03  0.34859961636E+03  0.00000000000E+00 0.  1.
        -11    1    5    5    0    0 -0.38945372752E+02  0.59786974388E+02  0.10983039127E+03  0.13097304765E+03  0.00000000000E+00 0. -1.
          4    1    6    6  503    0 -0.15865467164E+02 -0.89762158713E+02 -0.13589315394E+02  0.92160879325E+02  0.00000000000E+00 0. -1.
         -4    1    6    6    0  503  0.32530650098E+02 -0.31580278725E+03 -0.20411712419E+03  0.37743005182E+03  0.00000000000E+00 0.  1.
<mgrwt>
<rscale>  0 0.12722224E+04</rscale>
<asrwt>0</asrwt>
<pdfrwt beam="1">  1        2 0.15631753E+00 0.12722224E+04</pdfrwt>
<pdfrwt beam="2">  1       -1 0.61267715E-01 0.12722224E+04</pdfrwt>
<totfact> 0.74453714E+01</totfact>
</mgrwt>
</event>
<event>
12    6  0.1538774E-007  0.1280397E+04  0.7818608E-02  0.9045256E-01
         -1   -1    0    0    0  501 -0.00000000000E+00  0.00000000000E+00  0.18483781115E+04  0.18483781115E+04  0.00000000000E+00 0.  1.
          2   -1    0    0  501    0  0.00000000000E+00 -0.00000000000E+00 -0.22173727286E+03  0.22173727286E+03  0.00000000000E+00 0. -1.
         24    2    1    2    0    0  0.22872561099E+03 -0.99930374446E+02  0.10956423672E+03  0.28438302536E+03  0.81042570831E+02 0.  0.
        254    2    1    2    0    0 -0.22872561099E+03  0.99930374446E+02  0.15170766019E+04  0.17857323590E+04  0.90830455080E+03 0.  0.
         23    2    4    4    0    0 -0.15813721379E+03  0.26158297078E+03  0.74664226885E+02  0.32972623425E+03  0.98547520450E+02 0.  0.
         23    2    4    4    0    0 -0.70588397199E+02 -0.16165259634E+03  0.14424123750E+04  0.14560061247E+04  0.91027973321E+02 0.  0.
          4    1    3    3  502    0  0.22812916235E+03 -0.10244132493E+03  0.91736616819E+02  0.26636956777E+03  0.00000000000E+00 0. -1.
         -3    1    3    3    0  502  0.59644864254E+00  0.25109504849E+01  0.17827619897E+02  0.18013457594E+02  0.00000000000E+00 0.  1.
         11    1    5    5    0    0  0.75033539579E+00  0.42179388715E+02  0.37218172784E+02  0.56257054855E+02  0.00000000000E+00 0.  1.
        -11    1    5    5    0    0 -0.15888754919E+03  0.21940358207E+03  0.37446054101E+02  0.27346917940E+03  0.00000000000E+00 0. -1.
          1    1    6    6  503    0 -0.59270789968E+02 -0.15749481496E+03  0.14245532758E+04  0.14344579739E+04  0.00000000000E+00 0. -1.
         -1    1    6    6    0  503 -0.11317607231E+02 -0.41577813774E+01  0.17859099207E+02  0.21548150823E+02  0.00000000000E+00 0.  1.
<mgrwt>
<rscale>  0 0.12803973E+04</rscale>
<asrwt>0</asrwt>
<pdfrwt beam="1">  1        2 0.34113428E-01 0.12803973E+04</pdfrwt>
<pdfrwt beam="2">  1       -1 0.28436585E+00 0.12803973E+04</pdfrwt>
<totfact> 0.72564613E+00</totfact>
</mgrwt>
</event>
<event>
12    6  0.1538774E-007  0.1830033E+04  0.7818608E-02  0.8690490E-01
          2   -1    0    0  501    0  0.00000000000E+00  0.00000000000E+00  0.13978963727E+04  0.13978963727E+04  0.00000000000E+00 0. -1.
         -1   -1    0    0    0  501 -0.00000000000E+00 -0.00000000000E+00 -0.59893916887E+03  0.59893916887E+03  0.00000000000E+00 0.  1.
         24    2    1    2    0    0  0.15449824818E+03 -0.17908679698E+03  0.10128448741E+04  0.10431760883E+04  0.80123795158E+02 0.  0.
        254    2    1    2    0    0 -0.15449824818E+03  0.17908679698E+03 -0.21388767031E+03  0.95365945329E+03  0.89876394443E+03 0.  0.
         23    2    4    4    0    0 -0.35960099798E+03  0.41550508031E+03 -0.27620579910E+03  0.62161109664E+03  0.90295971608E+02 0.  0.
         23    2    4    4    0    0  0.20510274981E+03 -0.23641828333E+03  0.62318128797E+02  0.33204835665E+03  0.91715970849E+02 0.  0.
          2    1    3    3  502    0  0.11681650818E+03 -0.12989378364E+03  0.87161997888E+03  0.88895437408E+03  0.00000000000E+00 0. -1.
         -1    1    3    3    0  502  0.37681739997E+02 -0.49193013335E+02  0.14122489525E+03  0.15422171419E+03  0.00000000000E+00 0.  1.
         11    1    5    5    0    0 -0.20220373754E+02  0.52904395975E+02 -0.51287390400E+02  0.76407689680E+02  0.00000000000E+00 0. -1.
        -11    1    5    5    0    0 -0.33938062423E+03  0.36260068434E+03 -0.22491840870E+03  0.54520340696E+03  0.00000000000E+00 0.  1.
          1    1    6    6  503    0  0.10249905661E+02 -0.81077206048E+00  0.21188858188E+02  0.23551764875E+02  0.00000000000E+00 0. -1.
         -1    1    6    6    0  503  0.19485284414E+03 -0.23560751127E+03  0.41129270608E+02  0.30849659178E+03  0.00000000000E+00 0.  1.
<mgrwt>
<rscale>  0 0.18300327E+04</rscale>
<asrwt>0</asrwt>
<pdfrwt beam="1">  1        2 0.21506098E+00 0.18300327E+04</pdfrwt>
<pdfrwt beam="2">  1       -1 0.92144488E-01 0.18300327E+04</pdfrwt>
<totfact> 0.17857377E+01</totfact>
</mgrwt>
</event>
<event>
12    6  0.1538774E-007  0.1638957E+04  0.7818608E-02  0.8796966E-01
          2   -1    0    0  501    0  0.00000000000E+00  0.00000000000E+00  0.11063928804E+04  0.11063928804E+04  0.00000000000E+00 0. -1.
         -1   -1    0    0    0  501 -0.00000000000E+00 -0.00000000000E+00 -0.60696779679E+03  0.60696779679E+03  0.00000000000E+00 0.  1.
         24    2    1    2    0    0  0.43213804227E+03  0.18570364727E+03 -0.14747057550E+03  0.49901080713E+03  0.77685795440E+02 0.  0.
        254    2    1    2    0    0 -0.43213804227E+03 -0.18570364727E+03  0.64689565915E+03  0.12143498701E+04  0.91375187059E+03 0.  0.
         23    2    4    4    0    0 -0.41962757822E+03  0.27563992865E+03  0.15387635640E+03  0.53291189668E+03  0.90843171952E+02 0.  0.
         23    2    4    4    0    0 -0.12510464044E+02 -0.46134357592E+03  0.49301930275E+03  0.68143797342E+03  0.91078383721E+02 0.  0.
          2    1    3    3  502    0  0.13896740068E+03  0.43828674952E+02 -0.11813998759E+02  0.14619323434E+03  0.00000000000E+00 0. -1.
         -1    1    3    3    0  502  0.29317064158E+03  0.14187497232E+03 -0.13565657674E+03  0.35281757279E+03  0.00000000000E+00 0.  1.
         11    1    5    5    0    0 -0.33813362867E+02 -0.27455872597E+01  0.43388306654E+01  0.34200982579E+02  0.00000000000E+00 0.  1.
        -11    1    5    5    0    0 -0.38581421536E+03  0.27838551591E+03  0.14953752573E+03  0.49871091410E+03  0.00000000000E+00 0. -1.
          3    1    6    6  503    0 -0.14057744988E+02 -0.37438703446E+03  0.44632352558E+03  0.58272460155E+03  0.00000000000E+00 0. -1.
         -3    1    6    6    0  503  0.15472809440E+01 -0.86956541455E+02  0.46695777178E+02  0.98713371872E+02  0.00000000000E+00 0.  1.
<mgrwt>
<rscale>  0 0.16389568E+04</rscale>
<asrwt>0</asrwt>
<pdfrwt beam="1">  1        2 0.17021429E+00 0.16389568E+04</pdfrwt>
<pdfrwt beam="2">  1       -1 0.93379661E-01 0.16389568E+04</pdfrwt>
<totfact> 0.26204063E+01</totfact>
</mgrwt>
</event>
<event>
12    6  0.1538774E-007  0.1940701E+04  0.7818608E-02  0.8634858E-01
          2   -1    0    0  501    0  0.00000000000E+00  0.00000000000E+00  0.33093103902E+04  0.33093103902E+04  0.00000000000E+00 0. -1.
         -1   -1    0    0    0  501 -0.00000000000E+00 -0.00000000000E+00 -0.28452457805E+03  0.28452457805E+03  0.00000000000E+00 0.  1.
         24    2    1    2    0    0  0.15978363352E+03 -0.73231912722E+03  0.14078349472E+04  0.15971658796E+04  0.84365247104E+02 0.  0.
        254    2    1    2    0    0 -0.15978363352E+03  0.73231912722E+03  0.16169508649E+04  0.19966690886E+04  0.90018622299E+03 0.  0.
         23    2    4    4    0    0 -0.20878033834E+03 -0.93236809927E+02  0.77212351988E+03  0.81092704430E+03  0.95632676546E+02 0.  0.
         23    2    4    4    0    0  0.48996704819E+02  0.82555593715E+03  0.84482734507E+03  0.11857420443E+04  0.91146421704E+02 0.  0.
          2    1    3    3  502    0  0.79336930300E+02 -0.20915360744E+03  0.46155236288E+03  0.51290365927E+03  0.00000000000E+00 0. -1.
         -1    1    3    3    0  502  0.80446703220E+02 -0.52316551978E+03  0.94628258432E+03  0.10842622204E+04  0.00000000000E+00 0.  1.
         11    1    5    5    0    0 -0.17158179845E+03 -0.44841158000E+02  0.46231946562E+03  0.49516697315E+03  0.00000000000E+00 0.  1.
        -11    1    5    5    0    0 -0.37198539890E+02 -0.48395651927E+02  0.30980405426E+03  0.31576007114E+03  0.00000000000E+00 0. -1.
          4    1    6    6  503    0 -0.18266362746E+02  0.45374650620E+03  0.46807515250E+03  0.65216094662E+03  0.00000000000E+00 0. -1.
         -4    1    6    6    0  503  0.67263067566E+02  0.37180943095E+03  0.37675219256E+03  0.53358109768E+03  0.00000000000E+00 0.  1.
<mgrwt>
<rscale>  0 0.19407011E+04</rscale>
<asrwt>0</asrwt>
<pdfrwt beam="1">  1        2 0.50912465E+00 0.19407011E+04</pdfrwt>
<pdfrwt beam="2">  1       -1 0.43773014E-01 0.19407011E+04</pdfrwt>
<totfact> 0.60453934E+00</totfact>
</mgrwt>
</event>
<event>
12    6  0.1538774E-007  0.1522758E+04  0.7818608E-02  0.8869459E-01
         -1   -1    0    0    0  501 -0.00000000000E+00  0.00000000000E+00  0.14064793175E+03  0.14064793175E+03  0.00000000000E+00 0.  1.
          2   -1    0    0  501    0  0.00000000000E+00 -0.00000000000E+00 -0.41216249712E+04  0.41216249712E+04  0.00000000000E+00 0. -1.
         24    2    1    2    0    0  0.52995873917E+02 -0.89749828664E+02  0.43592003283E+02  0.13810006577E+03  0.79421477064E+02 0.  0.
        254    2    1    2    0    0 -0.52995873917E+02  0.89749828664E+02 -0.40245690428E+04  0.41241728372E+04  0.89486424489E+03 0.  0.
         23    2    4    4    0    0  0.12865509195E+03 -0.23332697996E+03 -0.32358621548E+04  0.32480307327E+04  0.88916496274E+02 0.  0.
         23    2    4    4    0    0 -0.18165096587E+03  0.32307680862E+03 -0.78870688794E+03  0.87614210451E+03  0.90502676915E+02 0.  0.
          4    1    3    3  502    0  0.12342747203E+02 -0.18703535963E+02 -0.23345682163E+02  0.32360261769E+02  0.00000000000E+00 0. -1.
         -3    1    3    3    0  502  0.40653126714E+02 -0.71046292701E+02  0.66937685447E+02  0.10573980401E+03  0.00000000000E+00 0.  1.
         11    1    5    5    0    0 -0.12411859873E+02 -0.21698055071E+02 -0.20564312727E+03  0.20715683830E+03  0.00000000000E+00 0.  1.
        -11    1    5    5    0    0  0.14106695182E+03 -0.21162892489E+03 -0.30302190275E+04  0.30408738944E+04  0.00000000000E+00 0. -1.
          3    1    6    6  503    0 -0.16413255003E+03  0.29429400161E+03 -0.63590371494E+03  0.71966797069E+03  0.00000000000E+00 0. -1.
         -3    1    6    6    0  503 -0.17518415830E+02  0.28782807009E+02 -0.15280317301E+03  0.15647413381E+03  0.00000000000E+00 0.  1.
<mgrwt>
<rscale>  0 0.15227581E+04</rscale>
<asrwt>0</asrwt>
<pdfrwt beam="1">  1        2 0.63409610E+00 0.15227581E+04</pdfrwt>
<pdfrwt beam="2">  1       -1 0.21638145E-01 0.15227581E+04</pdfrwt>
<totfact> 0.54778042E+00</totfact>
</mgrwt>
</event>
<event>
12    6  0.1538774E-007  0.1713289E+04  0.7818608E-02  0.8753821E-01
         -1   -1    0    0    0  501 -0.00000000000E+00  0.00000000000E+00  0.15932161945E+04  0.15932161945E+04  0.00000000000E+00 0.  1.
          2   -1    0    0  501    0  0.00000000000E+00 -0.00000000000E+00 -0.46060269496E+03  0.46060269496E+03  0.00000000000E+00 0. -1.
         24    2    1    2    0    0 -0.54716374555E+03 -0.90908632897E+02  0.73678764018E+03  0.92570347467E+03  0.80114619862E+02 0.  0.
        254    2    1    2    0    0  0.54716374555E+03  0.90908632897E+02  0.39582585935E+03  0.11281154148E+04  0.89906269756E+03 0.  0.
         23    2    4    4    0    0  0.26180024081E+03 -0.28210855026E+03  0.50066339821E+03  0.63828923250E+03  0.92869294140E+02 0.  0.
         23    2    4    4    0    0  0.28536350475E+03  0.37301718316E+03 -0.10483753886E+03  0.48982618228E+03  0.91458354048E+02 0.  0.
          2    1    3    3  502    0 -0.24780189299E+03 -0.51144212212E+02  0.27263726101E+03  0.37195777275E+03  0.00000000000E+00 0. -1.
         -1    1    3    3    0  502 -0.29936185256E+03 -0.39764420685E+02  0.46415037917E+03  0.55374570193E+03  0.00000000000E+00 0.  1.
         11    1    5    5    0    0  0.24991500512E+03 -0.24822791994E+03  0.40859160103E+03  0.53946427727E+03  0.00000000000E+00 0.  1.
        -11    1    5    5    0    0  0.11885235688E+02 -0.33880630320E+02  0.92071797186E+02  0.98824955225E+02  0.00000000000E+00 0. -1.
          3    1    6    6  503    0  0.21144236128E+02  0.16159679524E+02  0.14141030012E+02  0.30136069644E+02  0.00000000000E+00 0. -1.
         -3    1    6    6    0  503  0.26421926862E+03  0.35685750363E+03 -0.11897856887E+03  0.45969011264E+03  0.00000000000E+00 0.  1.
<mgrwt>
<rscale>  0 0.17132889E+04</rscale>
<asrwt>0</asrwt>
<pdfrwt beam="1">  1        2 0.70861954E-01 0.17132889E+04</pdfrwt>
<pdfrwt beam="2">  1       -1 0.24511018E+00 0.17132889E+04</pdfrwt>
<totfact> 0.55230418E+00</totfact>
</mgrwt>
</event>
<event>
12    6  0.1538774E-007  0.2305030E+04  0.7818608E-02  0.8475941E-01
          2   -1    0    0  501    0  0.00000000000E+00  0.00000000000E+00  0.13279605535E+04  0.13279605535E+04  0.00000000000E+00 0. -1.
         -1   -1    0    0    0  501 -0.00000000000E+00 -0.00000000000E+00 -0.10002486112E+04  0.10002486112E+04  0.00000000000E+00 0.  1.
         24    2    1    2    0    0 -0.40402388338E+03 -0.34219200315E+03 -0.64564175348E+03  0.83892418031E+03  0.81300929383E+02 0.  0.
        254    2    1    2    0    0  0.40402388338E+03  0.34219200315E+03  0.97335369582E+03  0.14892849844E+04  0.99509883044E+03 0.  0.
         23    2    4    4    0    0  0.28828067916E+02  0.25332151024E+03 -0.14095731541E+03  0.30656585774E+03  0.95450590959E+02 0.  0.
         23    2    4    4    0    0  0.37519581546E+03  0.88870492908E+02  0.11143110112E+04  0.11827191267E+04  0.92008904111E+02 0.  0.
          2    1    3    3  502    0 -0.14056283300E+03 -0.13113726892E+03 -0.29573709241E+03  0.35272556067E+03  0.00000000000E+00 0. -1.
         -1    1    3    3    0  502 -0.26346105038E+03 -0.21105473423E+03 -0.34990466107E+03  0.48619861965E+03  0.00000000000E+00 0.  1.
         11    1    5    5    0    0  0.10524477587E+02  0.19702369095E+03 -0.14842396693E+03  0.24689830575E+03  0.00000000000E+00 0. -1.
        -11    1    5    5    0    0  0.18303590329E+02  0.56297819288E+02  0.74666515147E+01  0.59667551989E+02  0.00000000000E+00 0.  1.
          3    1    6    6  503    0  0.34480209366E+03  0.10060983282E+03  0.95969536085E+03  0.10247077671E+04  0.00000000000E+00 0. -1.
         -3    1    6    6    0  503  0.30393721798E+02 -0.11739339908E+02  0.15461565039E+03  0.15801135962E+03  0.00000000000E+00 0.  1.
<mgrwt>
<rscale>  0 0.23050299E+04</rscale>
<asrwt>0</asrwt>
<pdfrwt beam="1">  1        2 0.20430162E+00 0.23050299E+04</pdfrwt>
<pdfrwt beam="2">  1       -1 0.15388440E+00 0.23050299E+04</pdfrwt>
<totfact> 0.53528936E+00</totfact>
</mgrwt>
</event>
<event>
12    6  0.1538774E-007  0.1861298E+04  0.7818608E-02  0.8674364E-01
          2   -1    0    0  501    0  0.00000000000E+00  0.00000000000E+00  0.27207122408E+04  0.27207122408E+04  0.00000000000E+00 0. -1.
         -1   -1    0    0    0  501 -0.00000000000E+00 -0.00000000000E+00 -0.31833842127E+03  0.31833842127E+03  0.00000000000E+00 0.  1.
         24    2    1    2    0    0  0.36396613221E+03  0.58806059782E+03  0.12933435180E+04  0.14688065688E+04  0.79803940769E+02 0.  0.
        254    2    1    2    0    0 -0.36396613221E+03 -0.58806059782E+03  0.11090303016E+04  0.15702440933E+04  0.87030551567E+03 0.  0.
         23    2    4    4    0    0 -0.14895896612E+03 -0.75515971702E+03  0.99574540978E+03  0.12617567074E+04  0.89811445776E+02 0.  0.
         23    2    4    4    0    0 -0.21500716609E+03  0.16709911921E+03  0.11328489179E+03  0.30848738588E+03  0.90447793938E+02 0.  0.
          2    1    3    3  502    0  0.33956630223E+03  0.57594325134E+03  0.12510104127E+04  0.14184649996E+04  0.00000000000E+00 0. -1.
         -1    1    3    3    0  502  0.24399829973E+02  0.12117346475E+02  0.42333105297E+02  0.50341569229E+02  0.00000000000E+00 0.  1.
         11    1    5    5    0    0 -0.14855652303E+03 -0.69283155265E+03  0.94634841832E+03  0.11822266829E+04  0.00000000000E+00 0. -1.
        -11    1    5    5    0    0 -0.40244308636E+00 -0.62328164370E+02  0.49396991457E+02  0.79530024514E+02  0.00000000000E+00 0.  1.
          2    1    6    6  503    0 -0.18613404396E+03  0.10296442204E+03  0.10632995274E+03  0.23781003633E+03  0.00000000000E+00 0. -1.
         -2    1    6    6    0  503 -0.28873122125E+02  0.64134697169E+02  0.69549390461E+01  0.70677349549E+02  0.00000000000E+00 0.  1.
<mgrwt>
<rscale>  0 0.18612977E+04</rscale>
<asrwt>0</asrwt>
<pdfrwt beam="1">  1        2 0.41857110E+00 0.18612977E+04</pdfrwt>
<pdfrwt beam="2">  1       -1 0.48975143E-01 0.18612977E+04</pdfrwt>
<totfact> 0.11546520E+01</totfact>
</mgrwt>
</event>
<event>
12    6  0.1538774E-007  0.2135978E+04  0.7818608E-02  0.8545558E-01
          2   -1    0    0  501    0  0.00000000000E+00  0.00000000000E+00  0.24491818400E+04  0.24491818400E+04  0.00000000000E+00 0. -1.
         -1   -1    0    0    0  501 -0.00000000000E+00 -0.00000000000E+00 -0.46570673697E+03  0.46570673697E+03  0.00000000000E+00 0.  1.
         24    2    1    2    0    0  0.77801238076E+02 -0.13016607402E+03  0.20051894432E+04  0.20125291612E+04  0.80577182238E+02 0.  0.
        254    2    1    2    0    0 -0.77801238076E+02  0.13016607402E+03 -0.21714340157E+02  0.90235941572E+03  0.88926079588E+03 0.  0.
         23    2    4    4    0    0 -0.13280857416E+03  0.22623356613E+03 -0.40702456687E+03  0.49092844817E+03  0.80758896582E+02 0.  0.
         23    2    4    4    0    0  0.55007336084E+02 -0.96067492102E+02  0.38531022671E+03  0.41143096755E+03  0.92502433409E+02 0.  0.
          2    1    3    3  502    0  0.73653449503E+01 -0.66931224624E+02  0.11818028954E+04  0.11837196124E+04  0.00000000000E+00 0. -1.
         -1    1    3    3    0  502  0.70435893125E+02 -0.63234849401E+02  0.82338654781E+03  0.82880954889E+03  0.00000000000E+00 0.  1.
         11    1    5    5    0    0 -0.12364010842E+03  0.23081194059E+03 -0.37548967127E+03  0.45777016238E+03  0.00000000000E+00 0.  1.
        -11    1    5    5    0    0 -0.91684657433E+01 -0.45783744621E+01 -0.31534895596E+02  0.33158285797E+02  0.00000000000E+00 0. -1.
          3    1    6    6  503    0  0.19663101130E+01  0.13227158402E+02  0.93158532058E+01  0.16297521769E+02  0.00000000000E+00 0. -1.
         -3    1    6    6    0  503  0.53041025971E+02 -0.10929465050E+03  0.37599437351E+03  0.39513344578E+03  0.00000000000E+00 0.  1.
<mgrwt>
<rscale>  0 0.21359780E+04</rscale>
<asrwt>0</asrwt>
<pdfrwt beam="1">  1        2 0.37679720E+00 0.21359780E+04</pdfrwt>
<pdfrwt beam="2">  1       -1 0.71647192E-01 0.21359780E+04</pdfrwt>
<totfact> 0.76613621E+00</totfact>
</mgrwt>
</event>
<event>
12    6  0.1538774E-007  0.1583265E+04  0.7818608E-02  0.8830895E-01
          2   -1    0    0  501    0  0.00000000000E+00  0.00000000000E+00  0.81601236283E+03  0.81601236283E+03  0.00000000000E+00 0. -1.
         -1   -1    0    0    0  501 -0.00000000000E+00 -0.00000000000E+00 -0.76798114960E+03  0.76798114960E+03  0.00000000000E+00 0.  1.
         24    2    1    2    0    0 -0.46591531952E+03  0.11837151565E+03  0.16491039653E+03  0.51429249314E+03  0.78818963037E+02 0.  0.
        254    2    1    2    0    0  0.46591531952E+03 -0.11837151565E+03 -0.11687918331E+03  0.10697010193E+04  0.94842534050E+03 0.  0.
         23    2    4    4    0    0  0.66377635163E+02 -0.13832517668E+03  0.38308497693E+03  0.42282706897E+03  0.92134606658E+02 0.  0.
         23    2    4    4    0    0  0.39953768436E+03  0.19953661028E+02 -0.49996416024E+03  0.64687395033E+03  0.91941482868E+02 0.  0.
          2    1    3    3  502    0 -0.22264318840E+02  0.11397350713E+00 -0.80190217355E+01  0.23664690849E+02  0.00000000000E+00 0. -1.
         -1    1    3    3    0  502 -0.44365100068E+03  0.11825754214E+03  0.17292941827E+03  0.49062780229E+03  0.00000000000E+00 0.  1.
         11    1    5    5    0    0  0.69033130508E+02 -0.12089693870E+03  0.23088840953E+03  0.26961287163E+03  0.00000000000E+00 0.  1.
        -11    1    5    5    0    0 -0.26554953453E+01 -0.17428237978E+02  0.15219656740E+03  0.15321419733E+03  0.00000000000E+00 0. -1.
          1    1    6    6  503    0  0.27000629262E+03  0.14743063839E+02 -0.26551410209E+03  0.37897030807E+03  0.00000000000E+00 0. -1.
         -1    1    6    6    0  503  0.12953139174E+03  0.52105971891E+01 -0.23445005815E+03  0.26790364226E+03  0.00000000000E+00 0.  1.
<mgrwt>
<rscale>  0 0.15832651E+04</rscale>
<asrwt>0</asrwt>
<pdfrwt beam="1">  1        2 0.12554036E+00 0.15832651E+04</pdfrwt>
<pdfrwt beam="2">  1       -1 0.11815095E+00 0.15832651E+04</pdfrwt>
<totfact> 0.23649971E+01</totfact>
</mgrwt>
</event>
<event>
12    6  0.1538774E-007  0.1554118E+04  0.7818608E-02  0.8849241E-01
         -1   -1    0    0    0  501 -0.00000000000E+00  0.00000000000E+00  0.71117237049E+03  0.71117237049E+03  0.00000000000E+00 0.  1.
          2   -1    0    0  501    0  0.00000000000E+00 -0.00000000000E+00 -0.84905008273E+03  0.84905008273E+03  0.00000000000E+00 0. -1.
         24    2    1    2    0    0 -0.20961503565E+03 -0.43303645149E+03 -0.21582449375E+03  0.53316275609E+03  0.78887774042E+02 0.  0.
        254    2    1    2    0    0  0.20961503565E+03  0.43303645149E+03  0.77946781515E+02  0.10270596971E+04  0.90405579984E+03 0.  0.
         23    2    4    4    0    0  0.25295269436E+03  0.56969914547E+03 -0.23488250916E+03  0.67223008264E+03  0.90450588536E+02 0.  0.
         23    2    4    4    0    0 -0.43337658714E+02 -0.13666269398E+03  0.31282929068E+03  0.35482961448E+03  0.86527715906E+02 0.  0.
          4    1    3    3  502    0 -0.91495081390E+02 -0.17269299898E+03 -0.46478942113E+02  0.20088432959E+03  0.00000000000E+00 0. -1.
         -3    1    3    3    0  502 -0.11811995426E+03 -0.26034345250E+03 -0.16934555164E+03  0.33227842650E+03  0.00000000000E+00 0.  1.
         11    1    5    5    0    0  0.25195567175E+01 -0.11491230586E+01 -0.86489070505E+01  0.90814229625E+01  0.00000000000E+00 0. -1.
        -11    1    5    5    0    0  0.25043313764E+03  0.57084826852E+03 -0.22623360211E+03  0.66314865968E+03  0.00000000000E+00 0.  1.
          3    1    6    6  503    0 -0.23542654009E+02 -0.11072441144E+02  0.12720484584E+03  0.12983808500E+03  0.00000000000E+00 0. -1.
         -3    1    6    6    0  503 -0.19795004704E+02 -0.12559025284E+03  0.18562444483E+03  0.22499152948E+03  0.00000000000E+00 0.  1.
<mgrwt>
<rscale>  0 0.15541183E+04</rscale>
<asrwt>0</asrwt>
<pdfrwt beam="1">  1        2 0.13062309E+00 0.15541183E+04</pdfrwt>
<pdfrwt beam="2">  1       -1 0.10941113E+00 0.15541183E+04</pdfrwt>
<totfact> 0.26995854E+01</totfact>
</mgrwt>
</event>
<event>
12    6  0.1538774E-007  0.2391396E+04  0.7818608E-02  0.8442732E-01
          2   -1    0    0  501    0  0.00000000000E+00  0.00000000000E+00  0.76491602470E+03  0.76491602470E+03  0.00000000000E+00 0. -1.
         -3   -1    0    0    0  501 -0.00000000000E+00 -0.00000000000E+00 -0.18690861898E+04  0.18690861898E+04  0.00000000000E+00 0.  1.
         24    2    1    2    0    0 -0.96341378621E+03 -0.41158483805E+02 -0.83712427403E+03  0.12793386508E+04  0.77911418206E+02 0.  0.
        254    2    1    2    0    0  0.96341378621E+03  0.41158483805E+02 -0.26704589108E+03  0.13546635637E+04  0.91320299964E+03 0.  0.
         23    2    4    4    0    0  0.87458277882E+03  0.33327463476E+03 -0.29749191515E+01  0.94030931783E+03  0.90585560982E+02 0.  0.
         23    2    4    4    0    0  0.88831007387E+02 -0.29211615095E+03 -0.26407097193E+03  0.41435424585E+03  0.93451427590E+02 0.  0.
          2    1    3    3  502    0 -0.35463028396E+01 -0.58731118159E+01 -0.71684672889E+01  0.99225314061E+01  0.00000000000E+00 0. -1.
         -1    1    3    3    0  502 -0.95986748337E+03 -0.35285371989E+02 -0.82995580674E+03  0.12694161194E+04  0.00000000000E+00 0.  1.
         11    1    5    5    0    0  0.11355676568E+03  0.12054069270E+02 -0.40872216893E+01  0.11426786512E+03  0.00000000000E+00 0. -1.
        -11    1    5    5    0    0  0.76102601315E+03  0.32122056549E+03  0.11123025378E+01  0.82604145271E+03  0.00000000000E+00 0.  1.
          1    1    6    6  503    0  0.92691672861E+02 -0.14640666331E+03 -0.15177895693E+03  0.23035518020E+03  0.00000000000E+00 0. -1.
         -1    1    6    6    0  503 -0.38606654740E+01 -0.14570948764E+03 -0.11229201500E+03  0.18399906565E+03  0.00000000000E+00 0.  1.
<mgrwt>
<rscale>  0 0.23913962E+04</rscale>
<asrwt>0</asrwt>
<pdfrwt beam="1">  1        2 0.11767939E+00 0.23913962E+04</pdfrwt>
<pdfrwt beam="2">  1       -3 0.28755172E+00 0.23913962E+04</pdfrwt>
<totfact> 0.91809263E-01</totfact>
</mgrwt>
</event>
<event>
12    6  0.1538774E-007  0.2315508E+04  0.7818608E-02  0.8471832E-01
         -1   -1    0    0    0  501 -0.00000000000E+00  0.00000000000E+00  0.14181942084E+04  0.14181942084E+04  0.00000000000E+00 0.  1.
          2   -1    0    0  501    0  0.00000000000E+00 -0.00000000000E+00 -0.94514148794E+03  0.94514148794E+03  0.00000000000E+00 0. -1.
         24    2    1    2    0    0  0.93785196552E+03 -0.10630250637E+03 -0.68379777453E+02  0.94983057514E+03  0.81460391686E+02 0.  0.
        254    2    1    2    0    0 -0.93785196552E+03  0.10630250637E+03  0.54143249788E+03  0.14135051212E+04  0.90220898116E+03 0.  0.
         23    2    4    4    0    0 -0.43830081256E+03  0.11876941112E+03  0.73589641765E+03  0.86961663024E+03  0.92063949361E+02 0.  0.
         23    2    4    4    0    0 -0.49955115297E+03 -0.12466904754E+02 -0.19446391977E+03  0.54388849092E+03  0.91058752005E+02 0.  0.
          4    1    3    3  502    0  0.18836899386E+03 -0.54477610609E+02 -0.12915001462E+02  0.19651332059E+03  0.00000000000E+00 0. -1.
         -3    1    3    3    0  502  0.74948297166E+03 -0.51824895758E+02 -0.55464775990E+02  0.75331725456E+03  0.00000000000E+00 0.  1.
         11    1    5    5    0    0 -0.95598041629E+02  0.45245090511E+02  0.11227170144E+03  0.15424343980E+03  0.00000000000E+00 0.  1.
        -11    1    5    5    0    0 -0.34270277093E+03  0.73524320609E+02  0.62362471622E+03  0.71537319044E+03  0.00000000000E+00 0. -1.
          1    1    6    6  503    0 -0.45035775978E+03 -0.38831214410E+02 -0.17633713874E+03  0.48520589599E+03  0.00000000000E+00 0. -1.
         -1    1    6    6    0  503 -0.49193393191E+02  0.26364309655E+02 -0.18126781030E+02  0.58682594931E+02  0.00000000000E+00 0.  1.
<mgrwt>
<rscale>  0 0.23155079E+04</rscale>
<asrwt>0</asrwt>
<pdfrwt beam="1">  1        2 0.14540638E+00 0.23155079E+04</pdfrwt>
<pdfrwt beam="2">  1       -1 0.21818373E+00 0.23155079E+04</pdfrwt>
<totfact> 0.31965680E+00</totfact>
</mgrwt>
</event>
<event>
12    6  0.1538774E-007  0.1294069E+04  0.7818608E-02  0.9034282E-01
         -1   -1    0    0    0  501 -0.00000000000E+00  0.00000000000E+00  0.14195787729E+03  0.14195787729E+03  0.00000000000E+00 0.  1.
          2   -1    0    0  501    0  0.00000000000E+00 -0.00000000000E+00 -0.29491402922E+04  0.29491402922E+04  0.00000000000E+00 0. -1.
         24    2    1    2    0    0  0.29732906253E+03 -0.70315709197E+02 -0.46012893742E+03  0.55802748782E+03  0.79543495816E+02 0.  0.
        254    2    1    2    0    0 -0.29732906253E+03  0.70315709197E+02 -0.23470534775E+04  0.25330706817E+04  0.90246228827E+03 0.  0.
         23    2    4    4    0    0 -0.47139408324E+03 -0.95480601473E+02 -0.63234372170E+03  0.79947931799E+03  0.89329001700E+02 0.  0.
         23    2    4    4    0    0  0.17406502071E+03  0.16579631067E+03 -0.17147097558E+04  0.17335913637E+04  0.85571149055E+02 0.  0.
          2    1    3    3  502    0  0.22326821725E+03 -0.49359481784E+02 -0.39843138134E+03  0.45938286964E+03  0.00000000000E+00 0. -1.
         -1    1    3    3    0  502  0.74060845278E+02 -0.20956227413E+02 -0.61697556078E+02  0.98644618184E+02  0.00000000000E+00 0.  1.
         11    1    5    5    0    0 -0.38960640186E+03 -0.57592119434E+02 -0.46473444583E+03  0.60917001381E+03  0.00000000000E+00 0. -1.
        -11    1    5    5    0    0 -0.81787681386E+02 -0.37888482039E+02 -0.16760927588E+03  0.19030930418E+03  0.00000000000E+00 0.  1.
          4    1    6    6  503    0  0.14363731110E+03  0.10797699190E+03 -0.14425321926E+04  0.14536814763E+04  0.00000000000E+00 0. -1.
         -4    1    6    6    0  503  0.30427709616E+02  0.57819318766E+02 -0.27217756323E+03  0.27990988739E+03  0.00000000000E+00 0.  1.
<mgrwt>
<rscale>  0 0.12940691E+04</rscale>
<asrwt>0</asrwt>
<pdfrwt beam="1">  1        2 0.45371386E+00 0.12940691E+04</pdfrwt>
<pdfrwt beam="2">  1       -1 0.21839675E-01 0.12940691E+04</pdfrwt>
<totfact> 0.37295887E+01</totfact>
</mgrwt>
</event>
<event>
12    6  0.1538774E-007  0.1256293E+04  0.7818608E-02  0.9064962E-01
         -3   -1    0    0    0  501 -0.00000000000E+00  0.00000000000E+00  0.68962030174E+03  0.68962030174E+03  0.00000000000E+00 0.  1.
          4   -1    0    0  501    0  0.00000000000E+00 -0.00000000000E+00 -0.57215240231E+03  0.57215240231E+03  0.00000000000E+00 0. -1.
         24    2    1    2    0    0 -0.28034359188E+03 -0.15962220506E+00 -0.53520819680E+02  0.29651956630E+03  0.80416541033E+02 0.  0.
        254    2    1    2    0    0  0.28034359188E+03  0.15962220506E+00  0.17098871911E+03  0.96525313775E+03  0.90768051807E+03 0.  0.
         23    2    4    4    0    0  0.30727440697E+03 -0.40290831401E+03  0.19533647258E+03  0.55067587678E+03  0.91295745074E+02 0.  0.
         23    2    4    4    0    0 -0.26930815096E+02  0.40306793622E+03 -0.24347753477E+02  0.41457726097E+03  0.89958113593E+02 0.  0.
          2    1    3    3  502    0 -0.88936912164E+02 -0.11294315790E+02  0.18803261991E+02  0.91601848104E+02  0.00000000000E+00 0. -1.
         -1    1    3    3    0  502 -0.19140667971E+03  0.11134693585E+02 -0.72324081671E+02  0.20491771819E+03  0.00000000000E+00 0.  1.
         11    1    5    5    0    0  0.17265924357E+03 -0.27210780131E+03  0.86349485750E+02  0.33363168856E+03  0.00000000000E+00 0. -1.
        -11    1    5    5    0    0  0.13461516340E+03 -0.13080051270E+03  0.10898698683E+03  0.21704418822E+03  0.00000000000E+00 0.  1.
          1    1    6    6  503    0 -0.41968310098E+02  0.14966499512E+03  0.20543919099E+02  0.15678967577E+03  0.00000000000E+00 0. -1.
         -1    1    6    6    0  503  0.15037495002E+02  0.25340294110E+03 -0.44891672576E+02  0.25778758519E+03  0.00000000000E+00 0.  1.
<mgrwt>
<rscale>  0 0.12562928E+04</rscale>
<asrwt>0</asrwt>
<pdfrwt beam="1">  1        4 0.88023446E-01 0.12562928E+04</pdfrwt>
<pdfrwt beam="2">  1       -3 0.10609543E+00 0.12562928E+04</pdfrwt>
<totfact> 0.19035464E+00</totfact>
</mgrwt>
</event>
<event>
12    6  0.1538774E-007  0.2199202E+04  0.7818608E-02  0.8518760E-01
          2   -1    0    0  501    0  0.00000000000E+00  0.00000000000E+00  0.71125446793E+03  0.71125446793E+03  0.00000000000E+00 0. -1.
         -1   -1    0    0    0  501 -0.00000000000E+00 -0.00000000000E+00 -0.16999852394E+04  0.16999852394E+04  0.00000000000E+00 0.  1.
         24    2    1    2    0    0  0.72217267803E+03  0.67217111175E-01 -0.96636418186E+03  0.12101893827E+04  0.95735200759E+02 0.  0.
        254    2    1    2    0    0 -0.72217267803E+03 -0.67217111175E-01 -0.22366589568E+02  0.12010503246E+04  0.95942078172E+03 0.  0.
         23    2    4    4    0    0  0.20492078724E+03 -0.15474762300E+02  0.12553442367E+03  0.25739787626E+03  0.90899823256E+02 0.  0.
         23    2    4    4    0    0 -0.92709346527E+03  0.15407545189E+02 -0.14790101324E+03  0.94365244830E+03  0.94157037273E+02 0.  0.
          4    1    3    3  502    0  0.46411035860E+03  0.33337306008E+02 -0.56614593049E+03  0.73282400038E+03  0.00000000000E+00 0. -1.
         -3    1    3    3    0  502  0.25806231943E+03 -0.33270088896E+02 -0.40021825137E+03  0.47736538234E+03  0.00000000000E+00 0.  1.
         11    1    5    5    0    0  0.28433910799E+02  0.31100150545E+02  0.25509470171E+02  0.49258904938E+02  0.00000000000E+00 0.  1.
        -11    1    5    5    0    0  0.17648687644E+03 -0.46574912845E+02  0.10002495350E+03  0.20813897133E+03  0.00000000000E+00 0. -1.
          2    1    6    6  503    0 -0.91538469413E+03  0.24359001351E+02 -0.15226413403E+03  0.92828167369E+03  0.00000000000E+00 0. -1.
         -2    1    6    6    0  503 -0.11708771136E+02 -0.89514561624E+01  0.43631207922E+01  0.15370774606E+02  0.00000000000E+00 0.  1.
<mgrwt>
<rscale>  0 0.21992018E+04</rscale>
<asrwt>0</asrwt>
<pdfrwt beam="1">  1        2 0.10942376E+00 0.21992018E+04</pdfrwt>
<pdfrwt beam="2">  1       -1 0.26153619E+00 0.21992018E+04</pdfrwt>
<totfact> 0.24560391E+00</totfact>
</mgrwt>
</event>
<event>
12    6  0.1538774E-007  0.1512419E+04  0.7818608E-02  0.8876236E-01
         -1   -1    0    0    0  501 -0.00000000000E+00  0.00000000000E+00  0.14041974067E+04  0.14041974067E+04  0.00000000000E+00 0.  1.
          2   -1    0    0  501    0  0.00000000000E+00 -0.00000000000E+00 -0.40724532892E+03  0.40724532892E+03  0.00000000000E+00 0. -1.
         24    2    1    2    0    0  0.21522845421E+03  0.15590851594E+03 -0.16118451490E+03  0.32113735702E+03  0.80734140139E+02 0.  0.
        254    2    1    2    0    0 -0.21522845421E+03 -0.15590851594E+03  0.11581365927E+04  0.14903053786E+04  0.89949930593E+03 0.  0.
         23    2    4    4    0    0 -0.47886825866E+03 -0.11420780926E+03  0.10956376617E+04  0.12044071744E+04  0.88411102235E+02 0.  0.
         23    2    4    4    0    0  0.26363980445E+03 -0.41700706678E+02  0.62498930980E+02  0.28589820427E+03  0.81158926824E+02 0.  0.
          2    1    3    3  502    0  0.21132828377E+03  0.14133965160E+03 -0.16785063798E+03  0.30464795635E+03  0.00000000000E+00 0. -1.
         -1    1    3    3    0  502  0.39001704438E+01  0.14568864338E+02  0.66661230806E+01  0.16489400672E+02  0.00000000000E+00 0.  1.
         11    1    5    5    0    0 -0.45426319632E+02 -0.39192248105E+02  0.14538667829E+03  0.15727958879E+03  0.00000000000E+00 0. -1.
        -11    1    5    5    0    0 -0.43344193903E+03 -0.75015561156E+02  0.95025098346E+03  0.10471275856E+04  0.00000000000E+00 0.  1.
          2    1    6    6  503    0  0.41974273167E+02  0.21354477431E+02  0.21708720718E+02  0.51856743722E+02  0.00000000000E+00 0. -1.
         -2    1    6    6    0  503  0.22166553129E+03 -0.63055184110E+02  0.40790210262E+02  0.23404146055E+03  0.00000000000E+00 0.  1.
<mgrwt>
<rscale>  0 0.15124190E+04</rscale>
<asrwt>0</asrwt>
<pdfrwt beam="1">  1        2 0.62653128E-01 0.15124190E+04</pdfrwt>
<pdfrwt beam="2">  1       -1 0.21603037E+00 0.15124190E+04</pdfrwt>
<totfact> 0.10068871E+01</totfact>
</mgrwt>
</event>
<event>
12    6  0.1538774E-007  0.1580000E+04  0.7818608E-02  0.8832930E-01
          2   -1    0    0  501    0  0.00000000000E+00  0.00000000000E+00  0.27452473790E+04  0.27452473790E+04  0.00000000000E+00 0. -1.
         -1   -1    0    0    0  501 -0.00000000000E+00 -0.00000000000E+00 -0.22733829696E+03  0.22733829696E+03  0.00000000000E+00 0.  1.
         24    2    1    2    0    0 -0.12992953833E+03  0.84083677855E+02 -0.99163450426E+02  0.19991095061E+03  0.78608195880E+02 0.  0.
        254    2    1    2    0    0  0.12992953833E+03 -0.84083677855E+02  0.26170725324E+04  0.27726747253E+04  0.90260996152E+03 0.  0.
         23    2    4    4    0    0 -0.79755171536E+02  0.32254931034E+03  0.51771042732E+03  0.62214527494E+03  0.92960806719E+02 0.  0.
         23    2    4    4    0    0  0.20968470987E+03 -0.40663298819E+03  0.20993621051E+04  0.21505294504E+04  0.90208669038E+02 0.  0.
          4    1    3    3  502    0 -0.21371870924E+02  0.51691896072E+02 -0.54623047324E+02  0.78182391147E+02  0.00000000000E+00 0. -1.
         -3    1    3    3    0  502 -0.10855766741E+03  0.32391781782E+02 -0.44540403102E+02  0.12172855946E+03  0.00000000000E+00 0.  1.
         11    1    5    5    0    0  0.21288369101E+02  0.49910432838E+02  0.82001540918E+02  0.98328524234E+02  0.00000000000E+00 0. -1.
        -11    1    5    5    0    0 -0.10104354064E+03  0.27263887750E+03  0.43570888640E+03  0.52381675070E+03  0.00000000000E+00 0.  1.
          4    1    6    6  503    0  0.34584336556E+01 -0.67812421110E+02  0.37895316956E+03  0.38498829845E+03  0.00000000000E+00 0. -1.
         -4    1    6    6    0  503  0.20622627621E+03 -0.33882056708E+03  0.17204089355E+04  0.17655411519E+04  0.00000000000E+00 0.  1.
<mgrwt>
<rscale>  0 0.15799998E+04</rscale>
<asrwt>0</asrwt>
<pdfrwt beam="1">  1        2 0.42234573E+00 0.15799998E+04</pdfrwt>
<pdfrwt beam="2">  1       -1 0.34975125E-01 0.15799998E+04</pdfrwt>
<totfact> 0.21285123E+01</totfact>
</mgrwt>
</event>
<event>
12    6  0.1538774E-007  0.1545116E+04  0.7818608E-02  0.8854993E-01
          2   -1    0    0  501    0  0.00000000000E+00  0.00000000000E+00  0.39280339111E+04  0.39280339111E+04  0.00000000000E+00 0. -1.
         -1   -1    0    0    0  501 -0.00000000000E+00 -0.00000000000E+00 -0.15194519720E+03  0.15194519720E+03  0.00000000000E+00 0.  1.
         24    2    1    2    0    0 -0.27979712583E+03  0.19106068059E+03  0.25670682101E+03  0.43258664268E+03  0.80263292895E+02 0.  0.
        254    2    1    2    0    0  0.27979712583E+03 -0.19106068059E+03  0.35193818929E+04  0.36473924656E+04  0.89589746903E+03 0.  0.
         23    2    4    4    0    0  0.56158971836E+03 -0.57188287139E+02  0.15666531776E+04  0.16678397667E+04  0.92918225310E+02 0.  0.
         23    2    4    4    0    0 -0.28179259254E+03 -0.13387239345E+03  0.19527287153E+04  0.19795526990E+04  0.90280503415E+02 0.  0.
          4    1    3    3  502    0 -0.15593510946E+03  0.73064752514E+02  0.16496609930E+03  0.23847018753E+03  0.00000000000E+00 0. -1.
         -3    1    3    3    0  502 -0.12386201637E+03  0.11799592808E+03  0.91740721706E+02  0.19411645515E+03  0.00000000000E+00 0.  1.
         11    1    5    5    0    0  0.20091716944E+03  0.13072321486E+02  0.64272801440E+03  0.67352646203E+03  0.00000000000E+00 0. -1.
        -11    1    5    5    0    0  0.36067254893E+03 -0.70260608625E+02  0.92392516316E+03  0.99431330465E+03  0.00000000000E+00 0.  1.
          1    1    6    6  503    0 -0.92010861799E+02 -0.66426260775E+02  0.48681798425E+03  0.49987017974E+03  0.00000000000E+00 0. -1.
         -1    1    6    6    0  503 -0.18978173074E+03 -0.67446132678E+02  0.14659107311E+04  0.14796825192E+04  0.00000000000E+00 0.  1.
<mgrwt>
<rscale>  0 0.15451160E+04</rscale>
<asrwt>0</asrwt>
<pdfrwt beam="1">  1        2 0.60431283E+00 0.15451160E+04</pdfrwt>
<pdfrwt beam="2">  1       -1 0.23376187E-01 0.15451160E+04</pdfrwt>
<totfact> 0.68711241E+00</totfact>
</mgrwt>
</event>
<event>
12    6  0.1538774E-007  0.2507333E+04  0.7818608E-02  0.8400378E-01
         -1   -1    0    0    0  501 -0.00000000000E+00  0.00000000000E+00  0.69668492966E+03  0.69668492966E+03  0.00000000000E+00 0.  1.
          2   -1    0    0  501    0  0.00000000000E+00 -0.00000000000E+00 -0.22559401385E+04  0.22559401385E+04  0.00000000000E+00 0. -1.
         24    2    1    2    0    0  0.25170057606E+03 -0.25027701021E+03 -0.18932582563E+04  0.19279523741E+04  0.81128107903E+02 0.  0.
        254    2    1    2    0    0 -0.25170057606E+03  0.25027701021E+03  0.33400304740E+03  0.10246726941E+04  0.90133475056E+03 0.  0.
         23    2    4    4    0    0 -0.25848669955E+03 -0.88081012777E+01  0.58933475482E+03  0.64977619495E+03  0.89446597435E+02 0.  0.
         23    2    4    4    0    0  0.67861234971E+01  0.25908511149E+03 -0.25533170742E+03  0.37489649917E+03  0.90454175182E+02 0.  0.
          4    1    3    3  502    0  0.20528233648E+03 -0.22747410359E+03 -0.14735429330E+04  0.15050628162E+04  0.00000000000E+00 0. -1.
         -3    1    3    3    0  502  0.46418239578E+02 -0.22802906615E+02 -0.41971532329E+03  0.42288955783E+03  0.00000000000E+00 0.  1.
         11    1    5    5    0    0 -0.18485338765E+03 -0.43633582861E+02  0.37207479634E+03  0.41774910957E+03  0.00000000000E+00 0. -1.
        -11    1    5    5    0    0 -0.73633311899E+02  0.34825481583E+02  0.21725995849E+03  0.23202708538E+03  0.00000000000E+00 0.  1.
          4    1    6    6  503    0 -0.28988068964E+02  0.10907237034E+03 -0.15176453306E+03  0.18912843152E+03  0.00000000000E+00 0.  1.
         -4    1    6    6    0  503  0.35774192461E+02  0.15001274115E+03 -0.10356717436E+03  0.18576806765E+03  0.00000000000E+00 0. -1.
<mgrwt>
<rscale>  0 0.25073328E+04</rscale>
<asrwt>0</asrwt>
<pdfrwt beam="1">  1        2 0.34706771E+00 0.25073328E+04</pdfrwt>
<pdfrwt beam="2">  1       -1 0.10718230E+00 0.25073328E+04</pdfrwt>
<totfact> 0.39495906E+00</totfact>
</mgrwt>
</event>
<event>
12    6  0.1538774E-007  0.1712725E+04  0.7818608E-02  0.8754140E-01
         -1   -1    0    0    0  501 -0.00000000000E+00  0.00000000000E+00  0.22709811570E+03  0.22709811570E+03  0.00000000000E+00 0.  1.
          2   -1    0    0  501    0  0.00000000000E+00 -0.00000000000E+00 -0.32292505786E+04  0.32292505786E+04  0.00000000000E+00 0. -1.
         24    2    1    2    0    0 -0.11270826453E+03 -0.53033948424E+03 -0.16600911505E+04  0.17490103412E+04  0.95767553579E+02 0.  0.
        254    2    1    2    0    0  0.11270826453E+03  0.53033948424E+03 -0.13420613125E+04  0.17073383531E+04  0.90549023421E+03 0.  0.
         23    2    4    4    0    0  0.11698936572E+03  0.16412535746E+02 -0.11382685037E+04  0.11471266615E+04  0.79300113403E+02 0.  0.
         23    2    4    4    0    0 -0.42811011864E+01  0.51392694849E+03 -0.20379280874E+03  0.56021169161E+03  0.90368104509E+02 0.  0.
          2    1    3    3  502    0 -0.11674831668E+03 -0.50460143391E+03 -0.16233369386E+04  0.17039588002E+04  0.00000000000E+00 0. -1.
         -1    1    3    3    0  502  0.40400521517E+01 -0.25738050331E+02 -0.36754211855E+02  0.45051540987E+02  0.00000000000E+00 0.  1.
         11    1    5    5    0    0  0.38711153315E+02  0.14994585557E+02 -0.14637198240E+03  0.15214515509E+03  0.00000000000E+00 0.  1.
        -11    1    5    5    0    0  0.78278212401E+02  0.14179501889E+01 -0.99189652133E+03  0.99498150644E+03  0.00000000000E+00 0. -1.
          1    1    6    6  503    0 -0.87989724112E+01  0.43080911167E+03 -0.13305434481E+03  0.45097380333E+03  0.00000000000E+00 0. -1.
         -1    1    6    6    0  503  0.45178712247E+01  0.83117836821E+02 -0.70738463929E+02  0.10923788829E+03  0.00000000000E+00 0.  1.
<mgrwt>
<rscale>  0 0.17127250E+04</rscale>
<asrwt>0</asrwt>
<pdfrwt beam="1">  1        2 0.49680777E+00 0.17127250E+04</pdfrwt>
<pdfrwt beam="2">  1       -1 0.34938173E-01 0.17127250E+04</pdfrwt>
<totfact> 0.10524817E+01</totfact>
</mgrwt>
</event>
<event>
12    6  0.1538774E-007  0.1157648E+04  0.7818608E-02  0.9150756E-01
          2   -1    0    0  501    0  0.00000000000E+00  0.00000000000E+00  0.52382843321E+03  0.52382843321E+03  0.00000000000E+00 0. -1.
         -1   -1    0    0    0  501 -0.00000000000E+00 -0.00000000000E+00 -0.63959380343E+03  0.63959380343E+03  0.00000000000E+00 0.  1.
         24    2    1    2    0    0 -0.15004378923E+03 -0.10436223333E+03  0.96486591156E+02  0.22138990205E+03  0.79367575397E+02 0.  0.
        254    2    1    2    0    0  0.15004378923E+03  0.10436223333E+03 -0.21225196137E+03  0.94203233459E+03  0.89942726770E+03 0.  0.
         23    2    4    4    0    0 -0.15978612210E+03  0.60656254271E+02 -0.48243529406E+03  0.51943040460E+03  0.88619107846E+02 0.  0.
         23    2    4    4    0    0  0.30982991133E+03  0.43705979054E+02  0.27018333269E+03  0.42260192999E+03  0.87684499239E+02 0.  0.
          4    1    3    3  502    0 -0.12820061311E+03 -0.99834843598E+02  0.50295299149E+02  0.17009412193E+03  0.00000000000E+00 0. -1.
         -3    1    3    3    0  502 -0.21843176121E+02 -0.45273897269E+01  0.46191292007E+02  0.51295780120E+02  0.00000000000E+00 0.  1.
         11    1    5    5    0    0 -0.13737723570E+03  0.48938381924E+02 -0.28268041200E+03  0.31808125604E+03  0.00000000000E+00 0. -1.
        -11    1    5    5    0    0 -0.22408886401E+02  0.11717872347E+02 -0.19975488206E+03  0.20134914857E+03  0.00000000000E+00 0.  1.
          3    1    6    6  503    0  0.22030151579E+03 -0.96337062101E+01  0.19076007334E+03  0.29157326992E+03  0.00000000000E+00 0. -1.
         -3    1    6    6    0  503  0.89528395543E+02  0.53339685264E+02  0.79423259347E+02  0.13102866006E+03  0.00000000000E+00 0.  1.
<mgrwt>
<rscale>  0 0.11576483E+04</rscale>
<asrwt>0</asrwt>
<pdfrwt beam="1">  1        2 0.80588990E-01 0.11576483E+04</pdfrwt>
<pdfrwt beam="2">  1       -1 0.98399047E-01 0.11576483E+04</pdfrwt>
<totfact> 0.65275925E+01</totfact>
</mgrwt>
</event>
<event>
12    6  0.1538774E-007  0.1302010E+04  0.7818608E-02  0.9027973E-01
         -1   -1    0    0    0  501 -0.00000000000E+00  0.00000000000E+00  0.53798749448E+03  0.53798749448E+03  0.00000000000E+00 0.  1.
          2   -1    0    0  501    0  0.00000000000E+00 -0.00000000000E+00 -0.78776412766E+03  0.78776412766E+03  0.00000000000E+00 0. -1.
         24    2    1    2    0    0 -0.20595098672E+02 -0.22061021418E+03 -0.33928341117E+03  0.41320066614E+03  0.80799336068E+02 0.  0.
        254    2    1    2    0    0  0.20595098672E+02  0.22061021418E+03  0.89506777987E+02  0.91255095601E+03  0.88070696563E+03 0.  0.
         23    2    4    4    0    0  0.37422611766E+03  0.34778873705E+03  0.79679403342E+02  0.52492030042E+03  0.90500396207E+02 0.  0.
         23    2    4    4    0    0 -0.35363101899E+03 -0.12717852287E+03  0.98273746450E+01  0.38763065559E+03  0.94507531938E+02 0.  0.
          4    1    3    3  502    0  0.49438895914E+00 -0.17792278089E+03 -0.30962639591E+03  0.35710679835E+03  0.00000000000E+00 0. -1.
         -3    1    3    3    0  502 -0.21089487631E+02 -0.42687433290E+02 -0.29657015258E+02  0.56093867788E+02  0.00000000000E+00 0.  1.
         11    1    5    5    0    0  0.22648060838E+03  0.15310184969E+03  0.25298901263E+02  0.27454266837E+03  0.00000000000E+00 0. -1.
        -11    1    5    5    0    0  0.14774550928E+03  0.19468688736E+03  0.54380502079E+02  0.25037763204E+03  0.00000000000E+00 0.  1.
          3    1    6    6  503    0 -0.12880612755E+03 -0.41006741892E+01  0.23329810514E+02  0.13096607989E+03  0.00000000000E+00 0. -1.
         -3    1    6    6    0  503 -0.22482489144E+03 -0.12307784868E+03 -0.13502435869E+02  0.25666457570E+03  0.00000000000E+00 0.  1.
<mgrwt>
<rscale>  0 0.13020096E+04</rscale>
<asrwt>0</asrwt>
<pdfrwt beam="1">  1        2 0.12119448E+00 0.13020096E+04</pdfrwt>
<pdfrwt beam="2">  1       -1 0.82767308E-01 0.13020096E+04</pdfrwt>
<totfact> 0.57079540E+01</totfact>
</mgrwt>
</event>
<event>
12    6  0.1538774E-007  0.1517020E+04  0.7818608E-02  0.8873213E-01
         -1   -1    0    0    0  501 -0.00000000000E+00  0.00000000000E+00  0.72075399631E+03  0.72075399631E+03  0.00000000000E+00 0.  1.
          2   -1    0    0  501    0  0.00000000000E+00 -0.00000000000E+00 -0.79824363809E+03  0.79824363809E+03  0.00000000000E+00 0. -1.
         24    2    1    2    0    0 -0.63903099126E+02 -0.10359110722E+03  0.48168238311E+03  0.50331662300E+03  0.80591446289E+02 0.  0.
        254    2    1    2    0    0  0.63903099126E+02  0.10359110722E+03 -0.55917202489E+03  0.10156810114E+04  0.83911848981E+03 0.  0.
         23    2    4    4    0    0 -0.33930179620E+03  0.65682502748E+02 -0.54096629074E+02  0.36193887266E+03  0.92916102985E+02 0.  0.
         23    2    4    4    0    0  0.40320489533E+03  0.37908604468E+02 -0.50507539582E+03  0.65374213874E+03  0.90919627155E+02 0.  0.
          2    1    3    3  502    0 -0.46012326965E+02 -0.60919026999E+01  0.17228940129E+03  0.17843173291E+03  0.00000000000E+00 0. -1.
         -1    1    3    3    0  502 -0.17890772161E+02 -0.97499204517E+02  0.30939298182E+03  0.32488489009E+03  0.00000000000E+00 0.  1.
         11    1    5    5    0    0 -0.54276963947E+02  0.39899957165E+02  0.11473720360E+02  0.68334776330E+02  0.00000000000E+00 0.  1.
        -11    1    5    5    0    0 -0.28502483226E+03  0.25782545583E+02 -0.65570349433E+02  0.29360409633E+03  0.00000000000E+00 0. -1.
          4    1    6    6  503    0  0.38326220650E+03  0.54025241207E+02 -0.48833221319E+03  0.62311876561E+03  0.00000000000E+00 0. -1.
         -4    1    6    6    0  503  0.19942688832E+02 -0.16116636739E+02 -0.16743182621E+02  0.30623373130E+02  0.00000000000E+00 0.  1.
<mgrwt>
<rscale>  0 0.15170198E+04</rscale>
<asrwt>0</asrwt>
<pdfrwt beam="1">  1        2 0.12280671E+00 0.15170198E+04</pdfrwt>
<pdfrwt beam="2">  1       -1 0.11088523E+00 0.15170198E+04</pdfrwt>
<totfact> 0.28509774E+01</totfact>
</mgrwt>
</event>
<event>
12    6  0.1538774E-007  0.1851563E+04  0.7818608E-02  0.8679349E-01
         -1   -1    0    0    0  501 -0.00000000000E+00  0.00000000000E+00  0.62167650802E+03  0.62167650802E+03  0.00000000000E+00 0.  1.
          2   -1    0    0  501    0  0.00000000000E+00 -0.00000000000E+00 -0.13786452884E+04  0.13786452884E+04  0.00000000000E+00 0. -1.
         24    2    1    2    0    0 -0.46033641829E+03 -0.52304571042E+03 -0.19544122217E+03  0.72821516111E+03  0.81324143781E+02 0.  0.
        254    2    1    2    0    0  0.46033641829E+03  0.52304571042E+03 -0.56152755825E+03  0.12721066354E+04  0.90413254551E+03 0.  0.
         23    2    4    4    0    0  0.17786459227E+03  0.56923177324E+03 -0.71521087592E+03  0.93557587640E+03  0.90083287077E+02 0.  0.
         23    2    4    4    0    0  0.28247182602E+03 -0.46186062818E+02  0.15368331768E+03  0.33653075896E+03  0.87811757164E+02 0.  0.
          2    1    3    3  502    0 -0.32963805356E+03 -0.37128755135E+03 -0.10051054471E+03  0.50657483330E+03  0.00000000000E+00 0. -1.
         -1    1    3    3    0  502 -0.13069836473E+03 -0.15175815907E+03 -0.94930677465E+02  0.22164032781E+03  0.00000000000E+00 0.  1.
         11    1    5    5    0    0  0.13299290416E+03  0.27765563826E+03 -0.35132859690E+03  0.46713119037E+03  0.00000000000E+00 0. -1.
        -11    1    5    5    0    0  0.44871688110E+02  0.29157613497E+03 -0.36388227902E+03  0.46844468603E+03  0.00000000000E+00 0.  1.
          4    1    6    6  503    0  0.22863648882E+03 -0.53349339624E+02  0.15648369135E+03  0.28214879358E+03  0.00000000000E+00 0. -1.
         -4    1    6    6    0  503  0.53835337197E+02  0.71632768060E+01 -0.28003736670E+01  0.54381965378E+02  0.00000000000E+00 0.  1.
<mgrwt>
<rscale>  0 0.18515630E+04</rscale>
<asrwt>0</asrwt>
<pdfrwt beam="1">  1        2 0.21209927E+00 0.18515630E+04</pdfrwt>
<pdfrwt beam="2">  1       -1 0.95642541E-01 0.18515630E+04</pdfrwt>
<totfact> 0.16822386E+01</totfact>
</mgrwt>
</event>
<event>
12    6  0.1538774E-007  0.2415566E+04  0.7818608E-02  0.8433699E-01
         -1   -1    0    0    0  501 -0.00000000000E+00  0.00000000000E+00  0.35902572114E+03  0.35902572114E+03  0.00000000000E+00 0.  1.
          2   -1    0    0  501    0  0.00000000000E+00 -0.00000000000E+00 -0.40630510571E+04  0.40630510571E+04  0.00000000000E+00 0. -1.
         24    2    1    2    0    0  0.72177302998E+03 -0.73781208782E+03 -0.18141377993E+04  0.20887567354E+04  0.80534222654E+02 0.  0.
        254    2    1    2    0    0 -0.72177302998E+03  0.73781208782E+03 -0.18898875367E+04  0.23333200429E+04  0.89854579039E+03 0.  0.
         23    2    4    4    0    0  0.14608347993E+03  0.39013663047E+03 -0.66070093655E+03  0.78620576945E+03  0.89704017821E+02 0.  0.
         23    2    4    4    0    0 -0.86785650991E+03  0.34767545736E+03 -0.12291866002E+04  0.15471142735E+04  0.92788639713E+02 0.  0.
          4    1    3    3  502    0  0.29397993366E+03 -0.33336257817E+03 -0.84669943364E+03  0.95627126949E+03  0.00000000000E+00 0. -1.
         -3    1    3    3    0  502  0.42779309632E+03 -0.40444950965E+03 -0.96743836563E+03  0.11324854659E+04  0.00000000000E+00 0.  1.
         11    1    5    5    0    0  0.10400337755E+02 -0.22548095787E+01 -0.21665215729E+02  0.24137787062E+02  0.00000000000E+00 0.  1.
        -11    1    5    5    0    0  0.13568314218E+03  0.39239144004E+03 -0.63903572082E+03  0.76206798239E+03  0.00000000000E+00 0. -1.
          3    1    6    6  503    0 -0.39253962035E+03  0.13358948939E+03 -0.61181294637E+03  0.73908631875E+03  0.00000000000E+00 0. -1.
         -3    1    6    6    0  503 -0.47531688956E+03  0.21408596796E+03 -0.61737365379E+03  0.80802795470E+03  0.00000000000E+00 0.  1.
<mgrwt>
<rscale>  0 0.24155661E+04</rscale>
<asrwt>0</asrwt>
<pdfrwt beam="1">  1        2 0.62508478E+00 0.24155661E+04</pdfrwt>
<pdfrwt beam="2">  1       -1 0.55234726E-01 0.24155661E+04</pdfrwt>
<totfact> 0.10331726E+00</totfact>
</mgrwt>
</event>
<event>
12    6  0.1538774E-007  0.2351338E+04  0.7818608E-02  0.8457950E-01
         -1   -1    0    0    0  501 -0.00000000000E+00  0.00000000000E+00  0.46582694320E+03  0.46582694320E+03  0.00000000000E+00 0.  1.
          2   -1    0    0  501    0  0.00000000000E+00 -0.00000000000E+00 -0.29671908044E+04  0.29671908044E+04  0.00000000000E+00 0. -1.
         24    2    1    2    0    0 -0.44140344744E+03 -0.16924068891E+03  0.22512890355E+03  0.52902907563E+03  0.75560078434E+02 0.  0.
        254    2    1    2    0    0  0.44140344744E+03  0.16924068891E+03 -0.27264927647E+04  0.29039886720E+04  0.88085639948E+03 0.  0.
         23    2    4    4    0    0  0.37722000013E+03 -0.16734670545E+03 -0.52338332348E+03  0.67233597630E+03  0.88349948558E+02 0.  0.
         23    2    4    4    0    0  0.64183447312E+02  0.33658739436E+03 -0.22031094413E+04  0.22316526957E+04  0.95770323799E+02 0.  0.
          2    1    3    3  502    0 -0.22116067891E+01  0.51421996258E+01  0.31244930159E-02  0.55976272959E+01  0.00000000000E+00 0. -1.
         -1    1    3    3    0  502 -0.43919184065E+03 -0.17438288854E+03  0.22512577906E+03  0.52343144833E+03  0.00000000000E+00 0.  1.
         11    1    5    5    0    0  0.12565356482E+03 -0.30827897238E+02 -0.22016087124E+03  0.25536246166E+03  0.00000000000E+00 0. -1.
        -11    1    5    5    0    0  0.25156643530E+03 -0.13651880821E+03 -0.30322245223E+03  0.41697351463E+03  0.00000000000E+00 0.  1.
          4    1    6    6  503    0  0.52875871371E+02  0.31739766603E+03 -0.21516891914E+04  0.21756156629E+04  0.00000000000E+00 0.  1.
         -4    1    6    6    0  503  0.11307575941E+02  0.19189728330E+02 -0.51420249849E+02  0.56037032769E+02  0.00000000000E+00 0. -1.
<mgrwt>
<rscale>  0 0.23513379E+04</rscale>
<asrwt>0</asrwt>
<pdfrwt beam="1">  1        2 0.45649089E+00 0.23513379E+04</pdfrwt>
<pdfrwt beam="2">  1       -1 0.71665685E-01 0.23513379E+04</pdfrwt>
<totfact> 0.36867665E+00</totfact>
</mgrwt>
</event>
<event>
12    6  0.1538774E-007  0.3289063E+04  0.7818608E-02  0.8165684E-01
          2   -1    0    0  501    0  0.00000000000E+00  0.00000000000E+00  0.15438466589E+04  0.15438466589E+04  0.00000000000E+00 0. -1.
         -1   -1    0    0    0  501 -0.00000000000E+00 -0.00000000000E+00 -0.17517829735E+04  0.17517829735E+04  0.00000000000E+00 0.  1.
         24    2    1    2    0    0 -0.14367500387E+04  0.38924866040E+03  0.21438558541E+03  0.15058984027E+04  0.77483072413E+02 0.  0.
        254    2    1    2    0    0  0.14367500387E+04 -0.38924866040E+03 -0.42232190000E+03  0.17897312297E+04  0.89945366413E+03 0.  0.
         23    2    4    4    0    0  0.14781863834E+04 -0.16907293778E+03 -0.30007688996E+03  0.15204032236E+04  0.89214236407E+02 0.  0.
         23    2    4    4    0    0 -0.41436344728E+02 -0.22017572262E+03 -0.12224501004E+03  0.26932800608E+03  0.86019840045E+02 0.  0.
          4    1    3    3  502    0 -0.12288977964E+04  0.34443910546E+03  0.15858226449E+03  0.12860701482E+04  0.00000000000E+00 0. -1.
         -3    1    3    3    0  502 -0.20785224227E+03  0.44809554937E+02  0.55803320919E+02  0.21982825446E+03  0.00000000000E+00 0.  1.
         11    1    5    5    0    0  0.45678721962E+03 -0.50871615211E+02 -0.50865364627E+02  0.46241731213E+03  0.00000000000E+00 0.  1.
        -11    1    5    5    0    0  0.10213991638E+04 -0.11820132257E+03 -0.24921152533E+03  0.10579859115E+04  0.00000000000E+00 0. -1.
          4    1    6    6  503    0  0.24291689520E+02 -0.40862161643E+02 -0.36740133745E+02  0.60080278474E+02  0.00000000000E+00 0.  1.
         -4    1    6    6    0  503 -0.65728034248E+02 -0.17931356098E+03 -0.85504876299E+02  0.20924772761E+03  0.00000000000E+00 0. -1.
<mgrwt>
<rscale>  0 0.32890633E+04</rscale>
<asrwt>0</asrwt>
<pdfrwt beam="1">  1        2 0.23751487E+00 0.32890633E+04</pdfrwt>
<pdfrwt beam="2">  1       -1 0.26950507E+00 0.32890633E+04</pdfrwt>
<totfact> 0.59398840E-01</totfact>
</mgrwt>
</event>
<event>
12    6  0.1722196E-007  0.1479625E+04  0.7818608E-02  0.8898116E-01
         -1   -1    0    0    0  501 -0.00000000000E+00  0.00000000000E+00  0.25601860268E+03  0.25601860268E+03  0.00000000000E+00 0.  1.
          2   -1    0    0  501    0  0.00000000000E+00 -0.00000000000E+00 -0.21378237620E+04  0.21378237620E+04  0.00000000000E+00 0. -1.
         24    2    1    2    0    0  0.53237088858E+02 -0.85187539077E+01  0.14027479885E+03  0.18171298370E+03  0.10215592227E+03 0.  0.
        254    2    1    2    0    0 -0.53237088858E+02  0.85187539077E+01 -0.20220799582E+04  0.22121293810E+04  0.89543413169E+03 0.  0.
         23    2    4    4    0    0  0.71819086191E+02  0.26418727800E+03 -0.16731373095E+03  0.33346794779E+03  0.90852015061E+02 0.  0.
         23    2    4    4    0    0 -0.12505617505E+03 -0.25566852409E+03 -0.18547662272E+04  0.18786614332E+04  0.90584666639E+02 0.  0.
          4    1    3    3  502    0 -0.24093079355E+01  0.28142955609E+02  0.21183535916E+01  0.28325220865E+02  0.00000000000E+00 0. -1.
         -3    1    3    3    0  502  0.55646396794E+02 -0.36661709517E+02  0.13815644526E+03  0.15338776284E+03  0.00000000000E+00 0.  1.
         11    1    5    5    0    0  0.51643468351E+02  0.25641359929E+03 -0.16958504957E+03  0.31172755855E+03  0.00000000000E+00 0. -1.
        -11    1    5    5    0    0  0.20175617840E+02  0.77736787091E+01  0.22713186186E+01  0.21740389237E+02  0.00000000000E+00 0.  1.
          3    1    6    6  503    0 -0.51397370722E+02 -0.13512100356E+03 -0.66468080134E+03  0.68022051057E+03  0.00000000000E+00 0. -1.
         -3    1    6    6    0  503 -0.73658804327E+02 -0.12054752053E+03 -0.11900854259E+04  0.11984409227E+04  0.00000000000E+00 0.  1.
<mgrwt>
<rscale>  0 0.14796252E+04</rscale>
<asrwt>0</asrwt>
<pdfrwt beam="1">  1        2 0.32889597E+00 0.14796252E+04</pdfrwt>
<pdfrwt beam="2">  1       -1 0.39387477E-01 0.14796252E+04</pdfrwt>
<totfact> 0.38680899E+01</totfact>
</mgrwt>
</event>
<event>
12    6  0.1538774E-007  0.1282786E+04  0.7818608E-02  0.9043329E-01
          2   -1    0    0  501    0  0.00000000000E+00  0.00000000000E+00  0.65373583411E+03  0.65373583411E+03  0.00000000000E+00 0. -1.
         -1   -1    0    0    0  501 -0.00000000000E+00 -0.00000000000E+00 -0.62928292980E+03  0.62928292980E+03  0.00000000000E+00 0.  1.
         24    2    1    2    0    0  0.21926675479E+03 -0.21411431314E+03  0.84629092456E+02  0.32774601125E+03  0.79577105724E+02 0.  0.
        254    2    1    2    0    0 -0.21926675479E+03  0.21411431314E+03 -0.60176188151E+02  0.95527275266E+03  0.90277461723E+03 0.  0.
         23    2    4    4    0    0 -0.55050075712E+03  0.54612770500E+02  0.42896228922E+02  0.56243811067E+03  0.91994041057E+02 0.  0.
         23    2    4    4    0    0  0.33123400233E+03  0.15950154264E+03 -0.10307241707E+03  0.39283464199E+03  0.92403605909E+02 0.  0.
          4    1    3    3  502    0  0.22003008922E+03 -0.21651920756E+03  0.90221185882E+02  0.32161105358E+03  0.00000000000E+00 0. -1.
         -3    1    3    3    0  502 -0.76333443373E+00  0.24048944259E+01 -0.55920934266E+01  0.61349576648E+01  0.00000000000E+00 0.  1.
         11    1    5    5    0    0 -0.21025544252E+03  0.65132453910E+02  0.81811902085E+01  0.22026465794E+03  0.00000000000E+00 0.  1.
        -11    1    5    5    0    0 -0.34024531459E+03 -0.10519683410E+02  0.34715038714E+02  0.34217345273E+03  0.00000000000E+00 0. -1.
          3    1    6    6  503    0  0.13044627874E+03  0.96260831556E+02 -0.93080641884E+01  0.16238540387E+03  0.00000000000E+00 0. -1.
         -3    1    6    6    0  503  0.20078772359E+03  0.63240711082E+02 -0.93764352885E+02  0.23044923813E+03  0.00000000000E+00 0.  1.
<mgrwt>
<rscale>  0 0.12827857E+04</rscale>
<asrwt>0</asrwt>
<pdfrwt beam="1">  1        2 0.10057474E+00 0.12827857E+04</pdfrwt>
<pdfrwt beam="2">  1       -1 0.96812758E-01 0.12827857E+04</pdfrwt>
<totfact> 0.51383568E+01</totfact>
</mgrwt>
</event>
<event>
12    6  0.1538774E-007  0.1251736E+04  0.7818608E-02  0.9068739E-01
         -1   -1    0    0    0  501 -0.00000000000E+00  0.00000000000E+00  0.14573548975E+03  0.14573548975E+03  0.00000000000E+00 0.  1.
          2   -1    0    0  501    0  0.00000000000E+00 -0.00000000000E+00 -0.26878212018E+04  0.26878212018E+04  0.00000000000E+00 0. -1.
         24    2    1    2    0    0 -0.27295494973E+03 -0.74564166981E+02 -0.42507600603E+03  0.51690130734E+03  0.80206801716E+02 0.  0.
        254    2    1    2    0    0  0.27295494973E+03  0.74564166981E+02 -0.21170097060E+04  0.23166553842E+04  0.89727245261E+03 0.  0.
         23    2    4    4    0    0  0.51228527260E+03 -0.20616633839E+03 -0.12781246607E+04  0.13953154430E+04  0.91442755110E+02 0.  0.
         23    2    4    4    0    0 -0.23933032287E+03  0.28073050537E+03 -0.83888504526E+03  0.92133994120E+03  0.95134368072E+02 0.  0.
          2    1    3    3  502    0 -0.16536029925E+03 -0.30601311890E+02 -0.31364921817E+03  0.35588804548E+03  0.00000000000E+00 0. -1.
         -1    1    3    3    0  502 -0.10759465048E+03 -0.43962855091E+02 -0.11142678786E+03  0.16101326186E+03  0.00000000000E+00 0.  1.
         11    1    5    5    0    0  0.35026657536E+02 -0.25032499308E+02 -0.54314597031E+02  0.69307778860E+02  0.00000000000E+00 0. -1.
        -11    1    5    5    0    0  0.47725861506E+03 -0.18113383908E+03 -0.12238100637E+04  0.13260076641E+04  0.00000000000E+00 0.  1.
          2    1    6    6  503    0 -0.21583029605E+01  0.28900019602E+02 -0.12143600321E+03  0.12484619450E+03  0.00000000000E+00 0. -1.
         -2    1    6    6    0  503 -0.23717201991E+03  0.25183048577E+03 -0.71744904205E+03  0.79649374670E+03  0.00000000000E+00 0.  1.
<mgrwt>
<rscale>  0 0.12517363E+04</rscale>
<asrwt>0</asrwt>
<pdfrwt beam="1">  1        2 0.41351093E+00 0.12517363E+04</pdfrwt>
<pdfrwt beam="2">  1       -1 0.22420846E-01 0.12517363E+04</pdfrwt>
<totfact> 0.51422239E+01</totfact>
</mgrwt>
</event>
<event>
12    6  0.1538774E-007  0.1456409E+04  0.7818608E-02  0.8913969E-01
          2   -1    0    0  501    0  0.00000000000E+00  0.00000000000E+00  0.68776586894E+03  0.68776586894E+03  0.00000000000E+00 0. -1.
         -1   -1    0    0    0  501 -0.00000000000E+00 -0.00000000000E+00 -0.77102082783E+03  0.77102082783E+03  0.00000000000E+00 0.  1.
         24    2    1    2    0    0 -0.99325936608E+02 -0.27932925515E+03 -0.35810970067E+03  0.47168867231E+03  0.79731871945E+02 0.  0.
        254    2    1    2    0    0  0.99325936608E+02  0.27932925515E+03  0.27485474178E+03  0.98709802446E+03  0.90051480074E+03 0.  0.
         23    2    4    4    0    0  0.48246717171E+03  0.25411410811E+03  0.16019801440E+03  0.57605297735E+03  0.93941881911E+02 0.  0.
         23    2    4    4    0    0 -0.38314123510E+03  0.25215147037E+02  0.11465672738E+03  0.41104504712E+03  0.91536090981E+02 0.  0.
          2    1    3    3  502    0 -0.18470393461E+01 -0.11819480128E+03 -0.15082987645E+03  0.19163265441E+03  0.00000000000E+00 0. -1.
         -1    1    3    3    0  502 -0.97478897262E+02 -0.16113445387E+03 -0.20727982422E+03  0.28005601790E+03  0.00000000000E+00 0.  1.
         11    1    5    5    0    0  0.21014038636E+03  0.58919838092E+02  0.60300477554E+02  0.22642145856E+03  0.00000000000E+00 0. -1.
        -11    1    5    5    0    0  0.27232678534E+03  0.19519427002E+03  0.99897536845E+02  0.34963151879E+03  0.00000000000E+00 0.  1.
          2    1    6    6  503    0 -0.11716731616E+03  0.34982850451E+02  0.70819092607E+02  0.14130578077E+03  0.00000000000E+00 0. -1.
         -2    1    6    6    0  503 -0.26597391894E+03 -0.97677034134E+01  0.43837634778E+02  0.26973926635E+03  0.00000000000E+00 0.  1.
<mgrwt>
<rscale>  0 0.14564090E+04</rscale>
<asrwt>0</asrwt>
<pdfrwt beam="1">  1        2 0.10581013E+00 0.14564090E+04</pdfrwt>
<pdfrwt beam="2">  1       -1 0.11861859E+00 0.14564090E+04</pdfrwt>
<totfact> 0.29554292E+01</totfact>
</mgrwt>
</event>
<event>
12    6  0.1538774E-007  0.1546069E+04  0.7818608E-02  0.8854383E-01
          2   -1    0    0  501    0  0.00000000000E+00  0.00000000000E+00  0.48070267304E+04  0.48070267304E+04  0.00000000000E+00 0. -1.
         -1   -1    0    0    0  501 -0.00000000000E+00 -0.00000000000E+00 -0.12431430053E+03  0.12431430053E+03  0.00000000000E+00 0.  1.
         24    2    1    2    0    0 -0.45866032547E+02 -0.49027483391E+03  0.10472746839E+04  0.11604704050E+04  0.86221759076E+02 0.  0.
        254    2    1    2    0    0  0.45866032547E+02  0.49027483391E+03  0.36354377460E+04  0.37708706259E+04  0.87211499622E+03 0.  0.
         23    2    4    4    0    0  0.67734880524E+02 -0.39396668869E+02  0.28721895134E+02  0.12442841757E+03  0.92289610908E+02 0.  0.
         23    2    4    4    0    0 -0.21868847976E+02  0.52967150278E+03  0.36067158509E+04  0.36464422083E+04  0.84329132211E+02 0.  0.
          2    1    3    3  502    0  0.43582357997E+01 -0.16447769669E+03  0.43532741033E+03  0.46538356343E+03  0.00000000000E+00 0. -1.
         -1    1    3    3    0  502 -0.50224268347E+02 -0.32579713722E+03  0.61194727354E+03  0.69508684159E+03  0.00000000000E+00 0.  1.
         11    1    5    5    0    0  0.34127834767E+02 -0.15873550253E+02  0.61375366496E+02  0.71997321589E+02  0.00000000000E+00 0. -1.
        -11    1    5    5    0    0  0.33607045756E+02 -0.23523118615E+02 -0.32653471361E+02  0.52431095981E+02  0.00000000000E+00 0.  1.
          2    1    6    6  503    0 -0.14568578379E+02  0.19242223402E+03  0.15964321693E+04  0.16080529316E+04  0.00000000000E+00 0. -1.
         -2    1    6    6    0  503 -0.73002695973E+01  0.33724926876E+03  0.20102836816E+04  0.20383892768E+04  0.00000000000E+00 0.  1.
<mgrwt>
<rscale>  0 0.15460688E+04</rscale>
<asrwt>0</asrwt>
<pdfrwt beam="1">  1        2 0.73954243E+00 0.15460688E+04</pdfrwt>
<pdfrwt beam="2">  1       -1 0.19125281E-01 0.15460688E+04</pdfrwt>
<totfact> 0.14730689E+00</totfact>
</mgrwt>
</event>
<event>
12    6  0.1538774E-007  0.2887350E+04  0.7818608E-02  0.8276651E-01
         -1   -1    0    0    0  501 -0.00000000000E+00  0.00000000000E+00  0.17156284371E+04  0.17156284371E+04  0.00000000000E+00 0.  1.
          2   -1    0    0  501    0  0.00000000000E+00 -0.00000000000E+00 -0.12148307184E+04  0.12148307184E+04  0.00000000000E+00 0. -1.
         24    2    1    2    0    0 -0.78860903408E+03  0.99970477778E+03 -0.53692248314E+02  0.12768821897E+04  0.78939327761E+02 0.  0.
        254    2    1    2    0    0  0.78860903408E+03 -0.99970477778E+03  0.55448996704E+03  0.16535769659E+04  0.89752092295E+03 0.  0.
         23    2    4    4    0    0  0.85513044643E+03 -0.59145152678E+03  0.12646420247E+03  0.10514454671E+04  0.92094445479E+02 0.  0.
         23    2    4    4    0    0 -0.66521412342E+02 -0.40825325099E+03  0.42802576457E+03  0.60213149874E+03  0.90887135475E+02 0.  0.
          2    1    3    3  502    0 -0.75351635277E+03  0.95420628631E+03 -0.67714484055E+02  0.12177363352E+04  0.00000000000E+00 0. -1.
         -1    1    3    3    0  502 -0.35092681311E+02  0.45498491462E+02  0.14022235741E+02  0.59145854480E+02  0.00000000000E+00 0.  1.
         11    1    5    5    0    0  0.76528036707E+03 -0.55206620664E+03  0.13381398570E+03  0.95306732160E+03  0.00000000000E+00 0.  1.
        -11    1    5    5    0    0  0.89850079357E+02 -0.39385320146E+02 -0.73497832208E+01  0.98378145525E+02  0.00000000000E+00 0. -1.
          4    1    6    6  503    0  0.15880479410E+02 -0.41704613464E+02  0.70939981105E+02  0.83808981200E+02  0.00000000000E+00 0. -1.
         -4    1    6    6    0  503 -0.82401891752E+02 -0.36654863753E+03  0.35708578346E+03  0.51832251754E+03  0.00000000000E+00 0.  1.
<mgrwt>
<rscale>  0 0.28873504E+04</rscale>
<asrwt>0</asrwt>
<pdfrwt beam="1">  1        2 0.18689703E+00 0.28873504E+04</pdfrwt>
<pdfrwt beam="2">  1       -1 0.26394284E+00 0.28873504E+04</pdfrwt>
<totfact> 0.10332445E+00</totfact>
</mgrwt>
</event>
<event>
12    6  0.1538774E-007  0.2680461E+04  0.7818608E-02  0.8341373E-01
          2   -1    0    0  501    0  0.00000000000E+00  0.00000000000E+00  0.21793860548E+04  0.21793860548E+04  0.00000000000E+00 0. -1.
         -1   -1    0    0    0  501 -0.00000000000E+00 -0.00000000000E+00 -0.82418499426E+03  0.82418499426E+03  0.00000000000E+00 0.  1.
         24    2    1    2    0    0  0.82979201063E+03  0.53304940363E+02 -0.34275905620E+03  0.90419301834E+03  0.93193595531E+02 0.  0.
        254    2    1    2    0    0 -0.82979201063E+03 -0.53304940363E+02  0.16979601167E+04  0.20993780307E+04  0.91264635003E+03 0.  0.
         23    2    4    4    0    0 -0.36960244975E+02 -0.17332327616E+03 -0.20954158829E+02  0.20039854446E+03  0.91178298322E+02 0.  0.
         23    2    4    4    0    0 -0.79283176565E+03  0.12001833579E+03  0.17189142756E+04  0.18989794862E+04  0.92033650788E+02 0.  0.
          2    1    3    3  502    0  0.21101693444E+03  0.53965554183E+02 -0.82407049840E+02  0.23287625367E+03  0.00000000000E+00 0. -1.
         -1    1    3    3    0  502  0.61877507619E+03 -0.66061382025E+00 -0.26035200636E+03  0.67131676468E+03  0.00000000000E+00 0.  1.
         11    1    5    5    0    0 -0.36996132406E+02 -0.15285174005E+03  0.16077629219E+02  0.15808497212E+03  0.00000000000E+00 0.  1.
        -11    1    5    5    0    0  0.35887430974E-01 -0.20471536109E+02 -0.37031788048E+02  0.42313572345E+02  0.00000000000E+00 0. -1.
          1    1    6    6  503    0 -0.98144457565E+02 -0.15290354932E+02  0.21913966867E+03  0.24059992496E+03  0.00000000000E+00 0. -1.
         -1    1    6    6    0  503 -0.69468730809E+03  0.13530869073E+03  0.14997746069E+04  0.16583795613E+04  0.00000000000E+00 0.  1.
<mgrwt>
<rscale>  0 0.26804606E+04</rscale>
<asrwt>0</asrwt>
<pdfrwt beam="1">  1        2 0.33529016E+00 0.26804606E+04</pdfrwt>
<pdfrwt beam="2">  1       -1 0.12679769E+00 0.26804606E+04</pdfrwt>
<totfact> 0.28620248E+00</totfact>
</mgrwt>
</event>
<event>
12    6  0.1538774E-007  0.1289806E+04  0.7818608E-02  0.9037689E-01
          2   -1    0    0  501    0  0.00000000000E+00  0.00000000000E+00  0.15280780379E+04  0.15280780379E+04  0.00000000000E+00 0. -1.
         -1   -1    0    0    0  501 -0.00000000000E+00 -0.00000000000E+00 -0.27217179853E+03  0.27217179853E+03  0.00000000000E+00 0.  1.
         24    2    1    2    0    0  0.22764961868E+03  0.19630394788E+03  0.49472488673E+03  0.58419479231E+03  0.78557322830E+02 0.  0.
        254    2    1    2    0    0 -0.22764961868E+03 -0.19630394788E+03  0.76118135263E+03  0.12160550441E+04  0.89946274513E+03 0.  0.
         23    2    4    4    0    0 -0.67490746733E+02  0.12768151748E+03  0.82165590780E+03  0.83861695503E+03  0.85454055660E+02 0.  0.
         23    2    4    4    0    0 -0.16015887195E+03 -0.32398546536E+03 -0.60474555177E+02  0.37743808908E+03  0.90470399796E+02 0.  0.
          4    1    3    3  502    0  0.21765920913E+03  0.15255871194E+03  0.42077248037E+03  0.49769385384E+03  0.00000000000E+00 0. -1.
         -3    1    3    3    0  502  0.99904095557E+01  0.43745235942E+02  0.73952406360E+02  0.86500938475E+02  0.00000000000E+00 0.  1.
         11    1    5    5    0    0 -0.58851254682E+01  0.95733241138E+02  0.40360058369E+03  0.41484083612E+03  0.00000000000E+00 0.  1.
        -11    1    5    5    0    0 -0.61605621265E+02  0.31948276339E+02  0.41805532412E+03  0.42377611891E+03  0.00000000000E+00 0. -1.
          3    1    6    6  503    0  0.43723075515E+01 -0.68394752123E+02 -0.85394617780E+01  0.69064329424E+02  0.00000000000E+00 0. -1.
         -3    1    6    6    0  503 -0.16453117950E+03 -0.25559071323E+03 -0.51935093399E+02  0.30837375966E+03  0.00000000000E+00 0.  1.
<mgrwt>
<rscale>  0 0.12898058E+04</rscale>
<asrwt>0</asrwt>
<pdfrwt beam="1">  1        2 0.23508893E+00 0.12898058E+04</pdfrwt>
<pdfrwt beam="2">  1       -1 0.41872585E-01 0.12898058E+04</pdfrwt>
<totfact> 0.76563740E+01</totfact>
</mgrwt>
</event>
<event>
12    6  0.1538774E-007  0.2620137E+04  0.7818608E-02  0.8361393E-01
         -1   -1    0    0    0  501 -0.00000000000E+00  0.00000000000E+00  0.12040453812E+04  0.12040453812E+04  0.00000000000E+00 0.  1.
          2   -1    0    0  501    0  0.00000000000E+00 -0.00000000000E+00 -0.14254272302E+04  0.14254272302E+04  0.00000000000E+00 0. -1.
         24    2    1    2    0    0 -0.61297046642E+03  0.11058817517E+03 -0.10697063935E+04  0.12399064744E+04  0.71650260615E+02 0.  0.
        254    2    1    2    0    0  0.61297046642E+03 -0.11058817517E+03  0.84832454452E+03  0.13895661370E+04  0.90734611862E+03 0.  0.
         23    2    4    4    0    0  0.30760526323E+03  0.27516267547E+03  0.77521707266E+03  0.88355691017E+03  0.96828755173E+02 0.  0.
         23    2    4    4    0    0  0.30536520319E+03 -0.38575085064E+03  0.73107471859E+02  0.50600922680E+03  0.93000048791E+02 0.  0.
          4    1    3    3  502    0 -0.30971699960E+03  0.39012058307E+02 -0.47255785959E+03  0.56635456314E+03  0.00000000000E+00 0. -1.
         -3    1    3    3    0  502 -0.30325346681E+03  0.71576116864E+02 -0.59714853391E+03  0.67355191128E+03  0.00000000000E+00 0.  1.
         11    1    5    5    0    0  0.30106744014E+03  0.28226346222E+03  0.76656153039E+03  0.87059223835E+03  0.00000000000E+00 0. -1.
        -11    1    5    5    0    0  0.65378230857E+01 -0.71007867503E+01  0.86555422718E+01  0.12964671812E+02  0.00000000000E+00 0.  1.
          2    1    6    6  503    0  0.23299664827E+03 -0.23836863219E+03  0.22019720493E+02  0.33405375467E+03  0.00000000000E+00 0. -1.
         -2    1    6    6    0  503  0.72368554923E+02 -0.14738221845E+03  0.51087751366E+02  0.17195547213E+03  0.00000000000E+00 0.  1.
<mgrwt>
<rscale>  0 0.26201367E+04</rscale>
<asrwt>0</asrwt>
<pdfrwt beam="1">  1        2 0.21929650E+00 0.26201367E+04</pdfrwt>
<pdfrwt beam="2">  1       -1 0.18523775E+00 0.26201367E+04</pdfrwt>
<totfact> 0.26877533E+00</totfact>
</mgrwt>
</event>
<event>
12    6  0.1538774E-007  0.1965804E+04  0.7818608E-02  0.8622777E-01
         -1   -1    0    0    0  501 -0.00000000000E+00  0.00000000000E+00  0.42361146205E+03  0.42361146205E+03  0.00000000000E+00 0.  1.
          2   -1    0    0  501    0  0.00000000000E+00 -0.00000000000E+00 -0.22806185008E+04  0.22806185008E+04  0.00000000000E+00 0. -1.
         24    2    1    2    0    0 -0.25707851748E+03  0.73569046909E+03 -0.84218066071E+03  0.11503072890E+04  0.81294300570E+02 0.  0.
        254    2    1    2    0    0  0.25707851748E+03 -0.73569046909E+03 -0.10148263781E+04  0.15539226739E+04  0.88174444620E+03 0.  0.
         23    2    4    4    0    0  0.39844729952E+02 -0.17197800492E+03 -0.91302467845E+03  0.93443562844E+03  0.91607006041E+02 0.  0.
         23    2    4    4    0    0  0.21723378753E+03 -0.56371246416E+03 -0.10180169960E+03  0.61948704546E+03  0.91860507039E+02 0.  0.
          2    1    3    3  502    0 -0.13169610802E+03  0.41826272356E+03 -0.41736774471E+03  0.60537872866E+03  0.00000000000E+00 0. -1.
         -1    1    3    3    0  502 -0.12538240946E+03  0.31742774553E+03 -0.42481291600E+03  0.54492856030E+03  0.00000000000E+00 0.  1.
         11    1    5    5    0    0 -0.12212842864E+02 -0.11690595080E+03 -0.44240637654E+03  0.45775490917E+03  0.00000000000E+00 0.  1.
        -11    1    5    5    0    0  0.52057572816E+02 -0.55072054120E+02 -0.47061830191E+03  0.47668071927E+03  0.00000000000E+00 0. -1.
          2    1    6    6  503    0 -0.66354755350E+01 -0.51732095367E+02 -0.52243182368E+01  0.52416912611E+02  0.00000000000E+00 0. -1.
         -2    1    6    6    0  503  0.22386926307E+03 -0.51198036880E+03 -0.96577381366E+02  0.56707013285E+03  0.00000000000E+00 0.  1.
<mgrwt>
<rscale>  0 0.19658038E+04</rscale>
<asrwt>0</asrwt>
<pdfrwt beam="1">  1        2 0.35086438E+00 0.19658038E+04</pdfrwt>
<pdfrwt beam="2">  1       -1 0.65170995E-01 0.19658038E+04</pdfrwt>
<totfact> 0.11774061E+01</totfact>
</mgrwt>
</event>
<event>
12    6  0.1538774E-007  0.2517149E+04  0.7818608E-02  0.8396901E-01
         -1   -1    0    0    0  501 -0.00000000000E+00  0.00000000000E+00  0.94756749325E+03  0.94756749325E+03  0.00000000000E+00 0.  1.
          2   -1    0    0  501    0  0.00000000000E+00 -0.00000000000E+00 -0.16716589765E+04  0.16716589765E+04  0.00000000000E+00 0. -1.
         24    2    1    2    0    0 -0.77501741781E+03 -0.70105569194E+03  0.13634823909E+02  0.10481268860E+04  0.79075784420E+02 0.  0.
        254    2    1    2    0    0  0.77501741781E+03  0.70105569194E+03 -0.73772630721E+03  0.15710995838E+04  0.91213086598E+03 0.  0.
         23    2    4    4    0    0 -0.22182582261E+02  0.14362234307E+03  0.16814408579E+03  0.23892177494E+03  0.87702545961E+02 0.  0.
         23    2    4    4    0    0  0.79720000007E+03  0.55743334887E+03 -0.90587039300E+03  0.13321778088E+04  0.88525515409E+02 0.  0.
          2    1    3    3  502    0 -0.33994272403E+03 -0.27229243971E+03  0.34622935144E+02  0.43692445111E+03  0.00000000000E+00 0. -1.
         -1    1    3    3    0  502 -0.43507469378E+03 -0.42876325223E+03 -0.20988111235E+02  0.61120243492E+03  0.00000000000E+00 0.  1.
         11    1    5    5    0    0  0.15906093507E+02  0.44253963918E+02  0.96342674303E+01  0.48002460792E+02  0.00000000000E+00 0.  1.
        -11    1    5    5    0    0 -0.38088675768E+02  0.99368379154E+02  0.15850981836E+03  0.19091931415E+03  0.00000000000E+00 0. -1.
          1    1    6    6  503    0  0.66395817135E+03  0.42937313706E+03 -0.70681630570E+03  0.10605616597E+04  0.00000000000E+00 0. -1.
         -1    1    6    6    0  503  0.13324182873E+03  0.12806021181E+03 -0.19905408730E+03  0.27161614908E+03  0.00000000000E+00 0.  1.
<mgrwt>
<rscale>  0 0.25171489E+04</rscale>
<asrwt>0</asrwt>
<pdfrwt beam="1">  1        2 0.25717830E+00 0.25171489E+04</pdfrwt>
<pdfrwt beam="2">  1       -1 0.14577961E+00 0.25171489E+04</pdfrwt>
<totfact> 0.38845216E+00</totfact>
</mgrwt>
</event>
<event>
12    6  0.1538774E-007  0.2599050E+04  0.7818608E-02  0.8368524E-01
         -1   -1    0    0    0  501 -0.00000000000E+00  0.00000000000E+00  0.33859915487E+03  0.33859915487E+03  0.00000000000E+00 0.  1.
          2   -1    0    0  501    0  0.00000000000E+00 -0.00000000000E+00 -0.49875069824E+04  0.49875069824E+04  0.00000000000E+00 0. -1.
         24    2    1    2    0    0 -0.85850836514E+03  0.47764377540E+03 -0.85383022328E+03  0.13039966662E+04  0.78746848466E+02 0.  0.
        254    2    1    2    0    0  0.85850836514E+03 -0.47764377540E+03 -0.37950776042E+04  0.40221094710E+04  0.89976129370E+03 0.  0.
         23    2    4    4    0    0  0.25467689675E+03  0.19760083229E+03 -0.17729750984E+04  0.18045593997E+04  0.95328467286E+02 0.  0.
         23    2    4    4    0    0  0.60383146840E+03 -0.67524460769E+03 -0.20221025058E+04  0.22175500714E+04  0.89788933304E+02 0.  0.
          2    1    3    3  502    0 -0.52301911315E+03  0.24802851158E+03 -0.48876265363E+03  0.75759888257E+03  0.00000000000E+00 0. -1.
         -1    1    3    3    0  502 -0.33548925199E+03  0.22961526382E+03 -0.36506756965E+03  0.54639778366E+03  0.00000000000E+00 0.  1.
         11    1    5    5    0    0  0.24070845326E+03  0.19745262578E+03 -0.15393984303E+04  0.15705653842E+04  0.00000000000E+00 0. -1.
        -11    1    5    5    0    0  0.13968443487E+02  0.14820651245E+00 -0.23357666811E+03  0.23399401544E+03  0.00000000000E+00 0.  1.
          3    1    6    6  503    0  0.47935322451E+03 -0.52555274307E+03 -0.14937702271E+04  0.16544892538E+04  0.00000000000E+00 0. -1.
         -3    1    6    6    0  503  0.12447824388E+03 -0.14969186462E+03 -0.52833227872E+03  0.56306081756E+03  0.00000000000E+00 0.  1.
<mgrwt>
<rscale>  0 0.25990503E+04</rscale>
<asrwt>0</asrwt>
<pdfrwt beam="1">  1        2 0.76730872E+00 0.25990503E+04</pdfrwt>
<pdfrwt beam="2">  1       -1 0.52092181E-01 0.25990503E+04</pdfrwt>
<totfact> 0.13386020E-01</totfact>
</mgrwt>
</event>
<event>
12    6  0.1538774E-007  0.1684117E+04  0.7818608E-02  0.8770475E-01
          2   -1    0    0  501    0  0.00000000000E+00  0.00000000000E+00  0.22628090391E+04  0.22628090391E+04  0.00000000000E+00 0. -1.
         -1   -1    0    0    0  501 -0.00000000000E+00 -0.00000000000E+00 -0.31335509112E+03  0.31335509112E+03  0.00000000000E+00 0.  1.
         24    2    1    2    0    0  0.20702258574E+03  0.12349186912E+03 -0.13970281109E+03  0.28926472181E+03  0.77772817300E+02 0.  0.
        254    2    1    2    0    0 -0.20702258574E+03 -0.12349186912E+03  0.20891567591E+04  0.22868994084E+04  0.89845664749E+03 0.  0.
         23    2    4    4    0    0 -0.16578923931E+03 -0.50026515791E+03  0.13304374935E+04  0.14339562899E+04  0.91735582579E+02 0.  0.
         23    2    4    4    0    0 -0.41233346424E+02  0.37677328878E+03  0.75871926555E+03  0.85294311849E+03  0.90546890998E+02 0.  0.
          4    1    3    3  502    0  0.83032779484E+02  0.48082483587E+02 -0.13404766107E+02  0.96881656938E+02  0.00000000000E+00 0. -1.
         -3    1    3    3    0  502  0.12398980625E+03  0.75409385536E+02 -0.12629804499E+03  0.19238306487E+03  0.00000000000E+00 0.  1.
         11    1    5    5    0    0 -0.17384812827E+02 -0.18013614726E+03  0.49579330019E+03  0.52778997697E+03  0.00000000000E+00 0. -1.
        -11    1    5    5    0    0 -0.14840442649E+03 -0.32012901064E+03  0.83464419332E+03  0.90616631294E+03  0.00000000000E+00 0.  1.
          3    1    6    6  503    0 -0.14033331334E+02  0.34392812861E+03  0.63832005983E+03  0.72521444471E+03  0.00000000000E+00 0. -1.
         -3    1    6    6    0  503 -0.27200015089E+02  0.32845160171E+02  0.12039920572E+03  0.12772867378E+03  0.00000000000E+00 0.  1.
<mgrwt>
<rscale>  0 0.16841173E+04</rscale>
<asrwt>0</asrwt>
<pdfrwt beam="1">  1        2 0.34812446E+00 0.16841173E+04</pdfrwt>
<pdfrwt beam="2">  1       -1 0.48208477E-01 0.16841173E+04</pdfrwt>
<totfact> 0.22230494E+01</totfact>
</mgrwt>
</event>
<event>
12    6  0.1538774E-007  0.2127677E+04  0.7818608E-02  0.8549149E-01
          2   -1    0    0  501    0  0.00000000000E+00  0.00000000000E+00  0.18625610379E+04  0.18625610379E+04  0.00000000000E+00 0. -1.
         -1   -1    0    0    0  501 -0.00000000000E+00 -0.00000000000E+00 -0.60763225730E+03  0.60763225730E+03  0.00000000000E+00 0.  1.
         24    2    1    2    0    0 -0.42712183665E+03  0.21702023844E+03 -0.32939202370E+03  0.58696233082E+03  0.80590478917E+02 0.  0.
        254    2    1    2    0    0  0.42712183665E+03 -0.21702023844E+03  0.15843208043E+04  0.18832309644E+04  0.89830707837E+03 0.  0.
         23    2    4    4    0    0 -0.25430983318E+03  0.60922704882E+02  0.46124145232E+03  0.53758965448E+03  0.88734953911E+02 0.  0.
         23    2    4    4    0    0  0.68143166983E+03 -0.27794294332E+03  0.11230793520E+04  0.13456413099E+04  0.88554523867E+02 0.  0.
          4    1    3    3  502    0 -0.16908719746E+03  0.86404252581E+02 -0.17914341222E+03  0.26105274821E+03  0.00000000000E+00 0. -1.
         -3    1    3    3    0  502 -0.25803463920E+03  0.13061598586E+03 -0.15024861148E+03  0.32590958261E+03  0.00000000000E+00 0.  1.
         11    1    5    5    0    0  0.73535466936E+00 -0.72761473830E+01  0.38457496169E+02  0.39146673917E+02  0.00000000000E+00 0. -1.
        -11    1    5    5    0    0 -0.25504518785E+03  0.68198852265E+02  0.42278395615E+03  0.49844298056E+03  0.00000000000E+00 0.  1.
          1    1    6    6  503    0  0.41410521045E+03 -0.12957064084E+03  0.70194165256E+03  0.82522346057E+03  0.00000000000E+00 0. -1.
         -1    1    6    6    0  503  0.26732645938E+03 -0.14837230248E+03  0.42113769939E+03  0.52041784931E+03  0.00000000000E+00 0.  1.
<mgrwt>
<rscale>  0 0.21276768E+04</rscale>
<asrwt>0</asrwt>
<pdfrwt beam="1">  1        2 0.28654785E+00 0.21276768E+04</pdfrwt>
<pdfrwt beam="2">  1       -1 0.93481886E-01 0.21276768E+04</pdfrwt>
<totfact> 0.92570618E+00</totfact>
</mgrwt>
</event>
<event>
12    6  0.1538774E-007  0.1687018E+04  0.7818608E-02  0.8768803E-01
         -1   -1    0    0    0  501 -0.00000000000E+00  0.00000000000E+00  0.31666834219E+03  0.31666834219E+03  0.00000000000E+00 0.  1.
          2   -1    0    0  501    0  0.00000000000E+00 -0.00000000000E+00 -0.22468536335E+04  0.22468536335E+04  0.00000000000E+00 0. -1.
         24    2    1    2    0    0 -0.24026604871E+03  0.31761970831E+03 -0.10650525467E+02  0.40576950030E+03  0.76976622491E+02 0.  0.
        254    2    1    2    0    0  0.24026604871E+03 -0.31761970831E+03 -0.19195347658E+04  0.21577524754E+04  0.90148320811E+03 0.  0.
         23    2    4    4    0    0  0.21533843339E+03 -0.40963953709E+03 -0.36161674779E+03  0.59434202273E+03  0.91107499473E+02 0.  0.
         23    2    4    4    0    0  0.24927615318E+02  0.92019828778E+02 -0.15579180180E+04  0.15634104526E+04  0.89747744415E+02 0.  0.
          2    1    3    3  502    0 -0.54014491480E+02  0.77542380880E+02 -0.35391811586E+02  0.10091068551E+03  0.00000000000E+00 0. -1.
         -1    1    3    3    0  502 -0.18625155723E+03  0.24007732743E+03  0.24741286119E+02  0.30485881479E+03  0.00000000000E+00 0.  1.
         11    1    5    5    0    0  0.46311281102E+02 -0.28044613936E+02 -0.46835159993E+02  0.71587480328E+02  0.00000000000E+00 0. -1.
        -11    1    5    5    0    0  0.16902715229E+03 -0.38159492316E+03 -0.31478158780E+03  0.52275454240E+03  0.00000000000E+00 0.  1.
          4    1    6    6  503    0  0.27198495561E+01  0.93221571369E+02 -0.14609912141E+04  0.14639648174E+04  0.00000000000E+00 0.  1.
         -4    1    6    6    0  503  0.22207765761E+02 -0.12017425910E+01 -0.96926803944E+02  0.99445635239E+02  0.00000000000E+00 0. -1.
<mgrwt>
<rscale>  0 0.16870180E+04</rscale>
<asrwt>0</asrwt>
<pdfrwt beam="1">  1        2 0.34566978E+00 0.16870180E+04</pdfrwt>
<pdfrwt beam="2">  1       -1 0.48718207E-01 0.16870180E+04</pdfrwt>
<totfact> 0.22242837E+01</totfact>
</mgrwt>
</event>
<event>
12    6  0.1538774E-007  0.1470155E+04  0.7818608E-02  0.8904546E-01
         -1   -1    0    0    0  501 -0.00000000000E+00  0.00000000000E+00  0.30872776845E+03  0.30872776845E+03  0.00000000000E+00 0.  1.
          2   -1    0    0  501    0  0.00000000000E+00 -0.00000000000E+00 -0.17502121022E+04  0.17502121022E+04  0.00000000000E+00 0. -1.
         24    2    1    2    0    0  0.24319954411E+03  0.12642128899E+03  0.52163308412E+02  0.29030284291E+03  0.80164638684E+02 0.  0.
        254    2    1    2    0    0 -0.24319954411E+03 -0.12642128899E+03 -0.14936476421E+04  0.17686370277E+04  0.90662301777E+03 0.  0.
         23    2    4    4    0    0  0.33545111872E+03 -0.67144572014E+02 -0.64573886439E+03  0.73657157556E+03  0.92320952864E+02 0.  0.
         23    2    4    4    0    0 -0.57865066283E+03 -0.59276716977E+02 -0.84790877774E+03  0.10320654521E+04  0.88653727303E+02 0.  0.
          4    1    3    3  502    0  0.75342641823E+02  0.60360166949E+00  0.21063351718E+02  0.78233898007E+02  0.00000000000E+00 0. -1.
         -3    1    3    3    0  502  0.16785690228E+03  0.12581768732E+03  0.31099956694E+02  0.21206894491E+03  0.00000000000E+00 0.  1.
         11    1    5    5    0    0  0.13300337987E+03  0.18951479657E+02 -0.24372390291E+03  0.27829911694E+03  0.00000000000E+00 0. -1.
        -11    1    5    5    0    0  0.20244773885E+03 -0.86096051671E+02 -0.40201496149E+03  0.45827245863E+03  0.00000000000E+00 0.  1.
          4    1    6    6  503    0 -0.16787023146E+02 -0.80964125749E+01 -0.80580109062E+01  0.20304865980E+02  0.00000000000E+00 0. -1.
         -4    1    6    6    0  503 -0.56186363968E+03 -0.51180304402E+02 -0.83985076683E+03  0.10117605862E+04  0.00000000000E+00 0.  1.
<mgrwt>
<rscale>  0 0.14701552E+04</rscale>
<asrwt>0</asrwt>
<pdfrwt beam="1">  1        2 0.26926340E+00 0.14701552E+04</pdfrwt>
<pdfrwt beam="2">  1       -1 0.47496579E-01 0.14701552E+04</pdfrwt>
<totfact> 0.44888404E+01</totfact>
</mgrwt>
</event>
<event>
12    6  0.1538774E-007  0.9892992E+03  0.7818608E-02  0.9320360E-01
         -1   -1    0    0    0  501 -0.00000000000E+00  0.00000000000E+00  0.77318761582E+02  0.77318761582E+02  0.00000000000E+00 0.  1.
          2   -1    0    0  501    0  0.00000000000E+00 -0.00000000000E+00 -0.31645391654E+04  0.31645391654E+04  0.00000000000E+00 0. -1.
         24    2    1    2    0    0  0.27255931936E+02 -0.39278387144E+02 -0.34274949956E+03  0.35521887585E+03  0.80109629793E+02 0.  0.
        254    2    1    2    0    0 -0.27255931936E+02  0.39278387144E+02 -0.27444709043E+04  0.28866390511E+04  0.89346448710E+03 0.  0.
         23    2    4    4    0    0 -0.22254230068E+03  0.38761982992E+03 -0.10779068270E+04  0.11705251196E+04  0.92041946180E+02 0.  0.
         23    2    4    4    0    0  0.19528636875E+03 -0.34834144278E+03 -0.16665640773E+04  0.17161139315E+04  0.90181349059E+02 0.  0.
          4    1    3    3  502    0 -0.21000858068E+02 -0.31774676658E+01 -0.18722602873E+03  0.18842695713E+03  0.00000000000E+00 0. -1.
         -3    1    3    3    0  502  0.48256790005E+02 -0.36100919479E+02 -0.15552347084E+03  0.16679191872E+03  0.00000000000E+00 0.  1.
         11    1    5    5    0    0 -0.20748406395E+03  0.31655347801E+03 -0.83063908890E+03  0.91280722896E+03  0.00000000000E+00 0.  1.
        -11    1    5    5    0    0 -0.15058236731E+02  0.71066351912E+02 -0.24726773810E+03  0.25771789067E+03  0.00000000000E+00 0. -1.
          1    1    6    6  503    0  0.76717724983E+01 -0.60822215830E+01 -0.92813721865E+01  0.13490492293E+02  0.00000000000E+00 0. -1.
         -1    1    6    6    0  503  0.18761459625E+03 -0.34225922120E+03 -0.16572827051E+04  0.17026234392E+04  0.00000000000E+00 0.  1.
<mgrwt>
<rscale>  0 0.98929925E+03</rscale>
<asrwt>0</asrwt>
<pdfrwt beam="1">  1        2 0.48685211E+00 0.98929925E+03</pdfrwt>
<pdfrwt beam="2">  1       -1 0.11895196E-01 0.98929925E+03</pdfrwt>
<totfact> 0.76702382E+01</totfact>
</mgrwt>
</event>
<event>
12    6  0.1538774E-007  0.1751480E+04  0.7818608E-02  0.8732536E-01
          2   -1    0    0  501    0  0.00000000000E+00  0.00000000000E+00  0.16824029455E+04  0.16824029455E+04  0.00000000000E+00 0. -1.
         -1   -1    0    0    0  501 -0.00000000000E+00 -0.00000000000E+00 -0.45584850892E+03  0.45584850892E+03  0.00000000000E+00 0.  1.
         24    2    1    2    0    0  0.44491614632E+03  0.36916869510E+03  0.11349944725E+03  0.59455871981E+03  0.79887696662E+02 0.  0.
        254    2    1    2    0    0 -0.44491614632E+03 -0.36916869510E+03  0.11130549893E+04  0.15436927346E+04  0.89992218936E+03 0.  0.
         23    2    4    4    0    0  0.74925756495E+02 -0.47986592455E+03  0.73449704117E+03  0.88524915067E+03  0.91076784866E+02 0.  0.
         23    2    4    4    0    0 -0.51984190282E+03  0.11069722945E+03  0.37855794816E+03  0.65844358394E+03  0.88047445060E+02 0.  0.
          2    1    3    3  502    0  0.34229984590E+02  0.53689893394E+01  0.20673321566E+01  0.34710110254E+02  0.00000000000E+00 0. -1.
         -1    1    3    3    0  502  0.41068616173E+03  0.36379970577E+03  0.11143211509E+03  0.55984860956E+03  0.00000000000E+00 0.  1.
         11    1    5    5    0    0  0.17264428237E+02 -0.78005408376E+02  0.18957666375E+03  0.20572363903E+03  0.00000000000E+00 0.  1.
        -11    1    5    5    0    0  0.57661328258E+02 -0.40186051618E+03  0.54492037742E+03  0.67952551164E+03  0.00000000000E+00 0. -1.
          1    1    6    6  503    0 -0.50056364288E+03  0.91800123230E+02  0.34262805739E+03  0.61350241150E+03  0.00000000000E+00 0. -1.
         -1    1    6    6    0  503 -0.19278259934E+02  0.18897106220E+02  0.35929890774E+02  0.44941172444E+02  0.00000000000E+00 0.  1.
<mgrwt>
<rscale>  0 0.17514804E+04</rscale>
<asrwt>0</asrwt>
<pdfrwt beam="1">  1        2 0.25883122E+00 0.17514804E+04</pdfrwt>
<pdfrwt beam="2">  1       -1 0.70130540E-01 0.17514804E+04</pdfrwt>
<totfact> 0.22256489E+01</totfact>
</mgrwt>
</event>
<event>
12    6  0.1538774E-007  0.1532287E+04  0.7818608E-02  0.8863262E-01
          4   -1    0    0  501    0  0.00000000000E+00  0.00000000000E+00  0.86208229987E+03  0.86208229987E+03  0.00000000000E+00 0. -1.
         -3   -1    0    0    0  501 -0.00000000000E+00 -0.00000000000E+00 -0.68088122034E+03  0.68088122034E+03  0.00000000000E+00 0.  1.
         24    2    1    2    0    0 -0.20841168729E+03  0.44106463965E+03 -0.12456214547E+02  0.49439094310E+03  0.79333470813E+02 0.  0.
        254    2    1    2    0    0  0.20841168729E+03 -0.44106463965E+03  0.19365729408E+03  0.10485725771E+04  0.90775979982E+03 0.  0.
         23    2    4    4    0    0 -0.94111395139E+02 -0.98568659732E+02 -0.31595880440E+03  0.35801325732E+03  0.98847311370E+02 0.  0.
         23    2    4    4    0    0  0.30252308242E+03 -0.34249597991E+03  0.50961609847E+03  0.69055931979E+03  0.91323023734E+02 0.  0.
          4    1    3    3  502    0 -0.74267546591E+02  0.23020168940E+03 -0.30622222815E+02  0.24381592813E+03  0.00000000000E+00 0. -1.
         -3    1    3    3    0  502 -0.13414414069E+03  0.21086295024E+03  0.18166008268E+02  0.25057501496E+03  0.00000000000E+00 0.  1.
         11    1    5    5    0    0 -0.58053488044E+02 -0.11172543571E+03 -0.20473017152E+03  0.24034812999E+03  0.00000000000E+00 0.  1.
        -11    1    5    5    0    0 -0.36057907095E+02  0.13156775979E+02 -0.11122863287E+03  0.11766512733E+03  0.00000000000E+00 0. -1.
          2    1    6    6  503    0  0.28389816968E+03 -0.33758471865E+03  0.50545216445E+03  0.67085281811E+03  0.00000000000E+00 0. -1.
         -2    1    6    6    0  503  0.18624912742E+02 -0.49112612671E+01  0.41639340200E+01  0.19706501679E+02  0.00000000000E+00 0.  1.
<mgrwt>
<rscale>  0 0.15322867E+04</rscale>
<asrwt>0</asrwt>
<pdfrwt beam="1">  1        4 0.13262805E+00 0.15322867E+04</pdfrwt>
<pdfrwt beam="2">  1       -3 0.10475096E+00 0.15322867E+04</pdfrwt>
<totfact> 0.70968548E-01</totfact>
</mgrwt>
</event>
<event>
12    6  0.1538774E-007  0.1091535E+04  0.7818608E-02  0.9213481E-01
         -1   -1    0    0    0  501 -0.00000000000E+00  0.00000000000E+00  0.22292855007E+03  0.22292855007E+03  0.00000000000E+00 0.  1.
          2   -1    0    0  501    0  0.00000000000E+00 -0.00000000000E+00 -0.13361339646E+04  0.13361339646E+04  0.00000000000E+00 0. -1.
         24    2    1    2    0    0  0.52468943718E+02 -0.23235558577E+01  0.33807360826E+02  0.10545962011E+03  0.84972965471E+02 0.  0.
        254    2    1    2    0    0 -0.52468943718E+02  0.23235558577E+01 -0.11470127753E+04  0.14536028945E+04  0.89138357581E+03 0.  0.
         23    2    4    4    0    0 -0.22482636322E+03 -0.37093169613E+03 -0.40681044950E+03  0.60196951191E+03  0.93463012268E+02 0.  0.
         23    2    4    4    0    0  0.17235741950E+03  0.37325525199E+03 -0.74020232582E+03  0.85163338259E+03  0.91396783346E+02 0.  0.
          2    1    3    3  502    0  0.52589558318E+01  0.34444638351E+02 -0.33793220413E+01  0.35007278458E+02  0.00000000000E+00 0. -1.
         -1    1    3    3    0  502  0.47209987886E+02 -0.36768194208E+02  0.37186682868E+02  0.70452341652E+02  0.00000000000E+00 0.  1.
         11    1    5    5    0    0 -0.12357720744E+03 -0.12821714027E+03 -0.19689817335E+03  0.26548041722E+03  0.00000000000E+00 0. -1.
        -11    1    5    5    0    0 -0.10124915578E+03 -0.24271455586E+03 -0.20991227614E+03  0.33648909470E+03  0.00000000000E+00 0.  1.
          4    1    6    6  503    0  0.53346066543E+01  0.37184350106E+02 -0.28883882841E+02  0.47385784883E+02  0.00000000000E+00 0. -1.
         -4    1    6    6    0  503  0.16702281285E+03  0.33607090188E+03 -0.71131844298E+03  0.80424759771E+03  0.00000000000E+00 0.  1.
<mgrwt>
<rscale>  0 0.10915354E+04</rscale>
<asrwt>0</asrwt>
<pdfrwt beam="1">  1        2 0.20555907E+00 0.10915354E+04</pdfrwt>
<pdfrwt beam="2">  1       -1 0.34296700E-01 0.10915354E+04</pdfrwt>
<totfact> 0.14334582E+02</totfact>
</mgrwt>
</event>
<event>
12    6  0.1538774E-007  0.2349719E+04  0.7818608E-02  0.8458572E-01
         -1   -1    0    0    0  501 -0.00000000000E+00  0.00000000000E+00  0.72001287257E+03  0.72001287257E+03  0.00000000000E+00 0.  1.
          2   -1    0    0  501    0  0.00000000000E+00 -0.00000000000E+00 -0.19170420549E+04  0.19170420549E+04  0.00000000000E+00 0. -1.
         24    2    1    2    0    0  0.90282611669E+03  0.30033349140E+03 -0.19200792416E+03  0.97376799855E+03  0.77858005534E+02 0.  0.
        254    2    1    2    0    0 -0.90282611669E+03 -0.30033349140E+03 -0.10050212582E+04  0.16632869289E+04  0.92258358730E+03 0.  0.
         23    2    4    4    0    0 -0.94260415507E+03  0.63016304151E+02 -0.72424747381E+03  0.11937895084E+04  0.90140663470E+02 0.  0.
         23    2    4    4    0    0  0.39778038386E+02 -0.36334979555E+03 -0.28077378437E+03  0.46949742057E+03  0.89378653326E+02 0.  0.
          4    1    3    3  502    0  0.41560401126E+03  0.10287370918E+03 -0.10588646038E+03  0.44104607095E+03  0.00000000000E+00 0. -1.
         -3    1    3    3    0  502  0.48722210543E+03  0.19745978222E+03 -0.86121463783E+02  0.53272192759E+03  0.00000000000E+00 0.  1.
         11    1    5    5    0    0 -0.40805157092E+03  0.10523525933E+02 -0.36519838868E+03  0.54771040909E+03  0.00000000000E+00 0.  1.
        -11    1    5    5    0    0 -0.53455258415E+03  0.52492778219E+02 -0.35904908513E+03  0.64607909927E+03  0.00000000000E+00 0. -1.
          2    1    6    6  503    0 -0.29823683159E+01 -0.14154785682E+03 -0.15892622333E+03  0.21284321637E+03  0.00000000000E+00 0. -1.
         -2    1    6    6    0  503  0.42760406702E+02 -0.22180193873E+03 -0.12184756105E+03  0.25665420421E+03  0.00000000000E+00 0.  1.
<mgrwt>
<rscale>  0 0.23497191E+04</rscale>
<asrwt>0</asrwt>
<pdfrwt beam="1">  1        2 0.29492954E+00 0.23497191E+04</pdfrwt>
<pdfrwt beam="2">  1       -1 0.11077121E+00 0.23497191E+04</pdfrwt>
<totfact> 0.57313944E+00</totfact>
</mgrwt>
</event>
<event>
12    6  0.1538774E-007  0.2173612E+04  0.7818608E-02  0.8529492E-01
         -1   -1    0    0    0  501 -0.00000000000E+00  0.00000000000E+00  0.14452508752E+04  0.14452508752E+04  0.00000000000E+00 0.  1.
          2   -1    0    0  501    0  0.00000000000E+00 -0.00000000000E+00 -0.81726115758E+03  0.81726115758E+03  0.00000000000E+00 0. -1.
         24    2    1    2    0    0 -0.46713642602E+03 -0.49450130295E+03  0.87752550965E+03  0.11134343573E+04  0.83289068010E+02 0.  0.
        254    2    1    2    0    0  0.46713642602E+03  0.49450130295E+03 -0.24953579205E+03  0.11490776754E+04  0.89183149392E+03 0.  0.
         23    2    4    4    0    0 -0.11973610968E+03 -0.38059717156E+01  0.20128662969E+03  0.25214476833E+03  0.93324463676E+02 0.  0.
         23    2    4    4    0    0  0.58687253570E+03  0.49830727467E+03 -0.45082242174E+03  0.89693290711E+03  0.92294478531E+02 0.  0.
          2    1    3    3  502    0 -0.77545911047E+02 -0.74887408334E+02  0.94287996732E+02  0.14321912782E+03  0.00000000000E+00 0. -1.
         -1    1    3    3    0  502 -0.38959051497E+03 -0.41961389462E+03  0.78323751292E+03  0.97021522950E+03  0.00000000000E+00 0.  1.
         11    1    5    5    0    0 -0.96401815960E+01 -0.25852570128E+02  0.81986709527E+01  0.28783792121E+02  0.00000000000E+00 0. -1.
        -11    1    5    5    0    0 -0.11009592808E+03  0.22046598413E+02  0.19308795874E+03  0.22336097621E+03  0.00000000000E+00 0.  1.
          2    1    6    6  503    0  0.12518091645E+03  0.14671799320E+03 -0.14244209646E+03  0.23976276236E+03  0.00000000000E+00 0. -1.
         -2    1    6    6    0  503  0.46169161925E+03  0.35158928147E+03 -0.30838032529E+03  0.65717014475E+03  0.00000000000E+00 0.  1.
<mgrwt>
<rscale>  0 0.21736121E+04</rscale>
<asrwt>0</asrwt>
<pdfrwt beam="1">  1        2 0.12573249E+00 0.21736121E+04</pdfrwt>
<pdfrwt beam="2">  1       -1 0.22234629E+00 0.21736121E+04</pdfrwt>
<totfact> 0.37131799E+00</totfact>
</mgrwt>
</event>
<event>
12    6  0.1538774E-007  0.1627124E+04  0.7818608E-02  0.8804056E-01
         -1   -1    0    0    0  501 -0.00000000000E+00  0.00000000000E+00  0.36461548935E+03  0.36461548935E+03  0.00000000000E+00 0.  1.
          2   -1    0    0  501    0  0.00000000000E+00 -0.00000000000E+00 -0.18152912967E+04  0.18152912967E+04  0.00000000000E+00 0. -1.
         24    2    1    2    0    0 -0.26468791879E+02  0.15103030635E+03  0.21686804468E+03  0.28027366365E+03  0.89503225380E+02 0.  0.
        254    2    1    2    0    0  0.26468791879E+02 -0.15103030635E+03 -0.16675438521E+04  0.18996331224E+04  0.89687945172E+03 0.  0.
         23    2    4    4    0    0 -0.14755388103E+03 -0.48063124298E+03 -0.77474134427E+03  0.92809871759E+03  0.91457856534E+02 0.  0.
         23    2    4    4    0    0  0.17402267291E+03  0.32960093663E+03 -0.89280250778E+03  0.97153440484E+03  0.88668561398E+02 0.  0.
          2    1    3    3  502    0 -0.14791807382E+02  0.68433877319E+02  0.31050060711E+02  0.76590465469E+02  0.00000000000E+00 0. -1.
         -1    1    3    3    0  502 -0.11676984497E+02  0.82596429030E+02  0.18581798397E+03  0.20368319818E+03  0.00000000000E+00 0.  1.
         11    1    5    5    0    0 -0.18733752687E+01 -0.16327585907E+02 -0.45414266292E+01  0.17050634953E+02  0.00000000000E+00 0.  1.
        -11    1    5    5    0    0 -0.14568050576E+03 -0.46430365707E+03 -0.77019991765E+03  0.91104808263E+03  0.00000000000E+00 0. -1.
          3    1    6    6  503    0  0.97953215848E+02  0.16896646697E+03 -0.57691656450E+03  0.60907899475E+03  0.00000000000E+00 0. -1.
         -3    1    6    6    0  503  0.76069457061E+02  0.16063446966E+03 -0.31588594328E+03  0.36245541009E+03  0.00000000000E+00 0.  1.
<mgrwt>
<rscale>  0 0.16271242E+04</rscale>
<asrwt>0</asrwt>
<pdfrwt beam="1">  1        2 0.27927559E+00 0.16271242E+04</pdfrwt>
<pdfrwt beam="2">  1       -1 0.56094690E-01 0.16271242E+04</pdfrwt>
<totfact> 0.29657062E+01</totfact>
</mgrwt>
</event>
<event>
12    6  0.1538774E-007  0.1223741E+04  0.7818608E-02  0.9092326E-01
         -1   -1    0    0    0  501 -0.00000000000E+00  0.00000000000E+00  0.28800335173E+03  0.28800335173E+03  0.00000000000E+00 0.  1.
          2   -1    0    0  501    0  0.00000000000E+00 -0.00000000000E+00 -0.12999350638E+04  0.12999350638E+04  0.00000000000E+00 0. -1.
         24    2    1    2    0    0  0.19279348252E+03  0.17494327927E+03 -0.17237692401E+03  0.32229420697E+03  0.79907909818E+02 0.  0.
        254    2    1    2    0    0 -0.19279348252E+03 -0.17494327927E+03 -0.83955478802E+03  0.12656442085E+04  0.91061986724E+03 0.  0.
         23    2    4    4    0    0 -0.31271186288E+03 -0.48410162444E+03 -0.40203837725E+03  0.70893454369E+03  0.93862870588E+02 0.  0.
         23    2    4    4    0    0  0.11991838037E+03  0.30915834517E+03 -0.43751641076E+03  0.55670966483E+03  0.92443176549E+02 0.  0.
          2    1    3    3  502    0  0.17824044155E+03  0.12728158525E+03 -0.11896590297E+03  0.24924514643E+03  0.00000000000E+00 0. -1.
         -3    1    3    3    0  502  0.14553040972E+02  0.47661694016E+02 -0.53411021032E+02  0.73049060540E+02  0.00000000000E+00 0.  1.
         11    1    5    5    0    0 -0.22987467437E+03 -0.35770857671E+03 -0.24385157069E+03  0.49016464611E+03  0.00000000000E+00 0.  1.
        -11    1    5    5    0    0 -0.82837188515E+02 -0.12639304773E+03 -0.15818680656E+03  0.21876989758E+03  0.00000000000E+00 0. -1.
          1    1    6    6  503    0  0.12350058243E+02  0.19749520448E+02 -0.27359647663E+01  0.23453208730E+02  0.00000000000E+00 0. -1.
         -1    1    6    6    0  503  0.10756832212E+03  0.28940882472E+03 -0.43478044600E+03  0.53325645610E+03  0.00000000000E+00 0.  1.
<mgrwt>
<rscale>  0 0.12237412E+04</rscale>
<asrwt>0</asrwt>
<pdfrwt beam="1">  1        2 0.19999001E+00 0.12237412E+04</pdfrwt>
<pdfrwt beam="2">  1       -1 0.44308207E-01 0.12237412E+04</pdfrwt>
<totfact> 0.93549979E+01</totfact>
</mgrwt>
</event>
<event>
12    6  0.1538774E-007  0.2953916E+04  0.7818608E-02  0.8257014E-01
          2   -1    0    0  501    0  0.00000000000E+00  0.00000000000E+00  0.18221176894E+04  0.18221176894E+04  0.00000000000E+00 0. -1.
         -1   -1    0    0    0  501 -0.00000000000E+00 -0.00000000000E+00 -0.11971813506E+04  0.11971813506E+04  0.00000000000E+00 0.  1.
         24    2    1    2    0    0  0.81138218274E+01  0.10321097950E+04 -0.58813572843E+03  0.11905859950E+04  0.79214350519E+02 0.  0.
        254    2    1    2    0    0 -0.81138218274E+01 -0.10321097950E+04  0.12130720672E+04  0.18287130450E+04  0.89851605309E+03 0.  0.
         23    2    4    4    0    0 -0.27196707891E+03 -0.59729728606E+02  0.75477215410E+02  0.30624775820E+03  0.10274797744E+03 0.  0.
         23    2    4    4    0    0  0.26385325708E+03 -0.97238006643E+03  0.11375948518E+04  0.15224652868E+04  0.92935288482E+02 0.  0.
          4    1    3    3  502    0  0.18385086815E+02  0.15441472886E+03 -0.11521230408E+03  0.19353499662E+03  0.00000000000E+00 0. -1.
         -3    1    3    3    0  502 -0.10271264988E+02  0.87769506617E+03 -0.47292342435E+03  0.99705099838E+03  0.00000000000E+00 0.  1.
         11    1    5    5    0    0 -0.17466700406E+03 -0.86087432172E+02  0.36235671757E+02  0.19807229032E+03  0.00000000000E+00 0. -1.
        -11    1    5    5    0    0 -0.97300074851E+02  0.26357703566E+02  0.39241543654E+02  0.10817546788E+03  0.00000000000E+00 0.  1.
          1    1    6    6  503    0  0.17806129043E+03 -0.58677574509E+03  0.75355450059E+03  0.97152250799E+03  0.00000000000E+00 0. -1.
         -1    1    6    6    0  503  0.85791966653E+02 -0.38560432134E+03  0.38404035123E+03  0.55094277884E+03  0.00000000000E+00 0.  1.
<mgrwt>
<rscale>  0 0.29539163E+04</rscale>
<asrwt>0</asrwt>
<pdfrwt beam="1">  1        2 0.28032580E+00 0.29539163E+04</pdfrwt>
<pdfrwt beam="2">  1       -1 0.18418175E+00 0.29539163E+04</pdfrwt>
<totfact> 0.15933466E+00</totfact>
</mgrwt>
</event>
<event>
12    6  0.1538774E-007  0.2579569E+04  0.7818608E-02  0.8375174E-01
         -1   -1    0    0    0  501 -0.00000000000E+00  0.00000000000E+00  0.69764656568E+03  0.69764656568E+03  0.00000000000E+00 0.  1.
          2   -1    0    0  501    0  0.00000000000E+00 -0.00000000000E+00 -0.23845082079E+04  0.23845082079E+04  0.00000000000E+00 0. -1.
         24    2    1    2    0    0  0.75567555674E+03  0.57287433548E+03 -0.14137967938E+04  0.17043188369E+04  0.81552267819E+02 0.  0.
        254    2    1    2    0    0 -0.75567555674E+03 -0.57287433548E+03 -0.27306484834E+03  0.13778359366E+04  0.96158042069E+03 0.  0.
         23    2    4    4    0    0 -0.91698203859E+03 -0.56551713088E+03 -0.39927157508E+03  0.11523945441E+04  0.89048920755E+02 0.  0.
         23    2    4    4    0    0  0.16130648186E+03 -0.73572046008E+01  0.12620672673E+03  0.22544139245E+03  0.93924299359E+02 0.  0.
          4    1    3    3  502    0  0.34767925201E+03  0.24347921178E+03 -0.56621157756E+03  0.70764294627E+03  0.00000000000E+00 0. -1.
         -3    1    3    3    0  502  0.40799630473E+03  0.32939512371E+03 -0.84758521627E+03  0.99667589067E+03  0.00000000000E+00 0.  1.
         11    1    5    5    0    0 -0.60747084667E+03 -0.42006729000E+03 -0.25707400620E+03  0.78202583227E+03  0.00000000000E+00 0. -1.
        -11    1    5    5    0    0 -0.30951119192E+03 -0.14544984089E+03 -0.14219756887E+03  0.37036871187E+03  0.00000000000E+00 0.  1.
          1    1    6    6  503    0  0.93233353169E+02  0.77604174919E+01  0.12444241241E+03  0.15568749541E+03  0.00000000000E+00 0. -1.
         -1    1    6    6    0  503  0.68073128686E+02 -0.15117622093E+02  0.17643143250E+01  0.69753897037E+02  0.00000000000E+00 0.  1.
<mgrwt>
<rscale>  0 0.25795689E+04</rscale>
<asrwt>0</asrwt>
<pdfrwt beam="1">  1        2 0.36684741E+00 0.25795689E+04</pdfrwt>
<pdfrwt beam="2">  1       -1 0.10733024E+00 0.25795689E+04</pdfrwt>
<totfact> 0.33060743E+00</totfact>
</mgrwt>
</event>
<event>
12    6  0.1538774E-007  0.1498829E+04  0.7818608E-02  0.8885232E-01
         -1   -1    0    0    0  501 -0.00000000000E+00  0.00000000000E+00  0.54228822856E+03  0.54228822856E+03  0.00000000000E+00 0.  1.
          2   -1    0    0  501    0  0.00000000000E+00 -0.00000000000E+00 -0.10356525330E+04  0.10356525330E+04  0.00000000000E+00 0. -1.
         24    2    1    2    0    0  0.15605565031E+03 -0.44407504056E+03 -0.18872035326E+03  0.51290447114E+03  0.76808965239E+02 0.  0.
        254    2    1    2    0    0 -0.15605565031E+03  0.44407504056E+03 -0.30464395118E+03  0.10650362904E+04  0.90550447558E+03 0.  0.
         23    2    4    4    0    0 -0.31367791895E+03  0.64284016665E+03 -0.10367050911E+03  0.72860109096E+03  0.92057908861E+02 0.  0.
         23    2    4    4    0    0  0.15762226864E+03 -0.19876512610E+03 -0.20097344207E+03  0.33643519947E+03  0.91901926542E+02 0.  0.
          2    1    3    3  502    0  0.83492359236E+02 -0.33413831563E+03 -0.14954640775E+03  0.37547771717E+03  0.00000000000E+00 0. -1.
         -1    1    3    3    0  502  0.72563291073E+02 -0.10993672493E+03 -0.39173945516E+02  0.13742675397E+03  0.00000000000E+00 0.  1.
         11    1    5    5    0    0 -0.31699101754E+03  0.60361606755E+03 -0.99650705392E+02  0.68903260104E+03  0.00000000000E+00 0. -1.
        -11    1    5    5    0    0  0.33130985875E+01  0.39224099103E+02 -0.40198037181E+01  0.39568489921E+02  0.00000000000E+00 0.  1.
          4    1    6    6  503    0  0.16174415896E+03 -0.19236418030E+03 -0.20787820764E+03  0.32615717075E+03  0.00000000000E+00 0. -1.
         -4    1    6    6    0  503 -0.41218903194E+01 -0.64009457912E+01  0.69047655670E+01  0.10278028720E+02  0.00000000000E+00 0.  1.
<mgrwt>
<rscale>  0 0.14988291E+04</rscale>
<asrwt>0</asrwt>
<pdfrwt beam="1">  1        2 0.15933116E+00 0.14988291E+04</pdfrwt>
<pdfrwt beam="2">  1       -1 0.83428959E-01 0.14988291E+04</pdfrwt>
<totfact> 0.37567953E+01</totfact>
</mgrwt>
</event>
<event>
12    6  0.1538774E-007  0.1111533E+04  0.7818608E-02  0.9194023E-01
          2   -1    0    0  501    0  0.00000000000E+00  0.00000000000E+00  0.28546580687E+04  0.28546580687E+04  0.00000000000E+00 0. -1.
         -1   -1    0    0    0  501 -0.00000000000E+00 -0.00000000000E+00 -0.10820084380E+03  0.10820084380E+03  0.00000000000E+00 0.  1.
         24    2    1    2    0    0 -0.11553542735E+03  0.13520295432E+03  0.57803137966E+03  0.61005025432E+03  0.80079729608E+02 0.  0.
        254    2    1    2    0    0  0.11553542735E+03 -0.13520295432E+03  0.21684258453E+04  0.23528086582E+04  0.89554992152E+03 0.  0.
         23    2    4    4    0    0 -0.29802526001E+03  0.68472769164E+02  0.34618021997E+03  0.47103101464E+03  0.92314117772E+02 0.  0.
         23    2    4    4    0    0  0.41356068735E+03 -0.20367572348E+03  0.18222456253E+04  0.18817776436E+04  0.89396523806E+02 0.  0.
          2    1    3    3  502    0 -0.12652161618E+03  0.11112448213E+03  0.50814812897E+03  0.53532316489E+03  0.00000000000E+00 0. -1.
         -1    1    3    3    0  502  0.10986188831E+02  0.24078472186E+02  0.69883250690E+02  0.74727089431E+02  0.00000000000E+00 0.  1.
         11    1    5    5    0    0  0.59806216598E+01 -0.23726657000E+01  0.12788937888E+02  0.14316225420E+02  0.00000000000E+00 0.  1.
        -11    1    5    5    0    0 -0.30400588166E+03  0.70845434864E+02  0.33339128208E+03  0.45671478922E+03  0.00000000000E+00 0. -1.
          1    1    6    6  503    0  0.28666696644E+03 -0.17670496723E+03  0.14070571723E+04  0.14467938627E+04  0.00000000000E+00 0. -1.
         -1    1    6    6    0  503  0.12689372091E+03 -0.26970756256E+02  0.41518845306E+03  0.43498378091E+03  0.00000000000E+00 0.  1.
<mgrwt>
<rscale>  0 0.11115330E+04</rscale>
<asrwt>0</asrwt>
<pdfrwt beam="1">  1        2 0.43917811E+00 0.11115330E+04</pdfrwt>
<pdfrwt beam="2">  1       -1 0.16646286E-01 0.11115330E+04</pdfrwt>
<totfact> 0.68179571E+01</totfact>
</mgrwt>
</event>
<event>
12    6  0.1538774E-007  0.1333740E+04  0.7818608E-02  0.9003229E-01
         -1   -1    0    0    0  501 -0.00000000000E+00  0.00000000000E+00  0.34295745995E+03  0.34295745995E+03  0.00000000000E+00 0.  1.
          2   -1    0    0  501    0  0.00000000000E+00 -0.00000000000E+00 -0.12967084351E+04  0.12967084351E+04  0.00000000000E+00 0. -1.
         24    2    1    2    0    0  0.12903931428E+03 -0.11595562814E+03 -0.64186020641E+03  0.67013382810E+03  0.83653874184E+02 0.  0.
        254    2    1    2    0    0 -0.12903931428E+03  0.11595562814E+03 -0.31189076876E+03  0.96953206696E+03  0.90145422785E+03 0.  0.
         23    2    4    4    0    0 -0.42699415576E+03  0.32277944066E+03 -0.19566550726E+03  0.57786065791E+03  0.95537285226E+02 0.  0.
         23    2    4    4    0    0  0.29795484148E+03 -0.20682381252E+03 -0.11622526150E+03  0.39167140905E+03  0.91350994894E+02 0.  0.
          4    1    3    3  502    0  0.10437336658E+03 -0.72823604134E+02 -0.56078038069E+03  0.57504061799E+03  0.00000000000E+00 0. -1.
         -3    1    3    3    0  502  0.24665947702E+02 -0.43132024004E+02 -0.81079825719E+02  0.95093210112E+02  0.00000000000E+00 0.  1.
         11    1    5    5    0    0 -0.30739069933E+03  0.18672281818E+03 -0.10156074502E+03  0.37372321013E+03  0.00000000000E+00 0. -1.
        -11    1    5    5    0    0 -0.11960345643E+03  0.13605662248E+03 -0.94104762235E+02  0.20413744778E+03  0.00000000000E+00 0.  1.
          2    1    6    6  503    0  0.19975250510E+03 -0.18242397508E+03 -0.10369398327E+03  0.28971022099E+03  0.00000000000E+00 0. -1.
         -2    1    6    6    0  503  0.98202336374E+02 -0.24399837443E+02 -0.12531278237E+02  0.10196118806E+03  0.00000000000E+00 0.  1.
<mgrwt>
<rscale>  0 0.13337404E+04</rscale>
<asrwt>0</asrwt>
<pdfrwt beam="1">  1        2 0.19949360E+00 0.13337404E+04</pdfrwt>
<pdfrwt beam="2">  1       -1 0.52762686E-01 0.13337404E+04</pdfrwt>
<totfact> 0.67004345E+01</totfact>
</mgrwt>
</event>
<event>
12    6  0.1538774E-007  0.2858061E+04  0.7818608E-02  0.8285466E-01
         -1   -1    0    0    0  501 -0.00000000000E+00  0.00000000000E+00  0.15593830683E+04  0.15593830683E+04  0.00000000000E+00 0.  1.
          2   -1    0    0  501    0  0.00000000000E+00 -0.00000000000E+00 -0.13095741802E+04  0.13095741802E+04  0.00000000000E+00 0. -1.
         24    2    1    2    0    0  0.14587916261E+03  0.11032735949E+04 -0.54329884674E+03  0.12409960128E+04  0.80025693147E+02 0.  0.
        254    2    1    2    0    0 -0.14587916261E+03 -0.11032735949E+04  0.79310773482E+03  0.16279612356E+04  0.88472851787E+03 0.  0.
         23    2    4    4    0    0  0.10576565986E+03 -0.29403081413E+03  0.69828849261E+03  0.77052389966E+03  0.91976989384E+02 0.  0.
         23    2    4    4    0    0 -0.25164482246E+03 -0.80924278081E+03  0.94819242205E+02  0.85743733597E+03  0.89493583320E+02 0.  0.
          2    1    3    3  502    0  0.10891654276E+03  0.88031927863E+03 -0.46708542589E+03  0.10024937110E+04  0.00000000000E+00 0. -1.
         -1    1    3    3    0  502  0.36962619844E+02  0.22295431631E+03 -0.76213420854E+02  0.23850230176E+03  0.00000000000E+00 0.  1.
         11    1    5    5    0    0  0.54709227063E+02 -0.24832891203E+03  0.50416777349E+03  0.56466405226E+03  0.00000000000E+00 0.  1.
        -11    1    5    5    0    0  0.51056432792E+02 -0.45701902095E+02  0.19412071912E+03  0.20585984741E+03  0.00000000000E+00 0. -1.
          1    1    6    6  503    0 -0.36105521164E+02 -0.22647076605E+03  0.48168545042E+02  0.23433485713E+03  0.00000000000E+00 0. -1.
         -1    1    6    6    0  503 -0.21553930130E+03 -0.58277201476E+03  0.46650697163E+02  0.62310247884E+03  0.00000000000E+00 0.  1.
<mgrwt>
<rscale>  0 0.28580607E+04</rscale>
<asrwt>0</asrwt>
<pdfrwt beam="1">  1        2 0.20147295E+00 0.28580607E+04</pdfrwt>
<pdfrwt beam="2">  1       -1 0.23990509E+00 0.28580607E+04</pdfrwt>
<totfact> 0.13071812E+00</totfact>
</mgrwt>
</event>
<event>
12    6  0.1670393E-007  0.2298463E+04  0.7818608E-02  0.8478527E-01
         -1   -1    0    0    0  501 -0.00000000000E+00  0.00000000000E+00  0.57192447600E+03  0.57192447600E+03  0.00000000000E+00 0.  1.
          2   -1    0    0  501    0  0.00000000000E+00 -0.00000000000E+00 -0.23092785767E+04  0.23092785767E+04  0.00000000000E+00 0. -1.
         24    2    1    2    0    0 -0.10938213437E+03  0.61087200687E+03 -0.16701602579E+04  0.17835480715E+04  0.80494571970E+02 0.  0.
        254    2    1    2    0    0  0.10938213437E+03 -0.61087200687E+03 -0.67193842824E+02  0.10976549812E+04  0.90288558813E+03 0.  0.
         23    2    4    4    0    0 -0.14947368864E+03 -0.68397476590E+03 -0.26253901624E+03  0.75332858574E+03  0.91724364577E+02 0.  0.
         23    2    4    4    0    0  0.25885582301E+03  0.73102759031E+02  0.19534517341E+03  0.34432639551E+03  0.89725020945E+02 0.  0.
          2    1    3    3  502    0 -0.83447534806E+02  0.43367218934E+03 -0.10797439284E+04  0.11665684763E+04  0.00000000000E+00 0. -1.
         -1    1    3    3    0  502 -0.25934599568E+02  0.17719981753E+03 -0.59041632946E+03  0.61697959519E+03  0.00000000000E+00 0.  1.
         11    1    5    5    0    0 -0.13933083498E+03 -0.49288811667E+03 -0.16226015494E+03  0.53728961930E+03  0.00000000000E+00 0. -1.
        -11    1    5    5    0    0 -0.10142853662E+02 -0.19108664923E+03 -0.10027886130E+03  0.21603896644E+03  0.00000000000E+00 0.  1.
          2    1    6    6  503    0  0.26209564045E+03  0.80711130494E+02  0.19405953540E+03  0.33595760835E+03  0.00000000000E+00 0. -1.
         -2    1    6    6    0  503 -0.32398174401E+01 -0.76083714634E+01  0.12856380098E+01  0.83687871560E+01  0.00000000000E+00 0.  1.
<mgrwt>
<rscale>  0 0.22984629E+04</rscale>
<asrwt>0</asrwt>
<pdfrwt beam="1">  1        2 0.35527362E+00 0.22984629E+04</pdfrwt>
<pdfrwt beam="2">  1       -1 0.87988383E-01 0.22984629E+04</pdfrwt>
<totfact> 0.58661753E+00</totfact>
</mgrwt>
</event>
<event>
12    6  0.1538774E-007  0.1463468E+04  0.7818608E-02  0.8909117E-01
         -1   -1    0    0    0  501 -0.00000000000E+00  0.00000000000E+00  0.74591151633E+03  0.74591151633E+03  0.00000000000E+00 0.  1.
          2   -1    0    0  501    0  0.00000000000E+00 -0.00000000000E+00 -0.71782551487E+03  0.71782551487E+03  0.00000000000E+00 0. -1.
         24    2    1    2    0    0  0.96194918515E+02 -0.18167956733E+03  0.40458810417E+03  0.46060493135E+03  0.78768275414E+02 0.  0.
        254    2    1    2    0    0 -0.96194918515E+02  0.18167956733E+03 -0.37650210272E+03  0.10031320999E+04  0.90678511725E+03 0.  0.
         23    2    4    4    0    0 -0.86782197184E+01 -0.27875696506E+03  0.11682054058E+03  0.31633250530E+03  0.92943306042E+02 0.  0.
         23    2    4    4    0    0 -0.87516698797E+02  0.46043653239E+03 -0.49332264330E+03  0.68679959456E+03  0.93088558710E+02 0.  0.
          4    1    3    3  502    0  0.21598318047E+02 -0.48104566411E+01  0.16377947291E+02  0.27529347850E+02  0.00000000000E+00 0. -1.
         -3    1    3    3    0  502  0.74596600468E+02 -0.17686911069E+03  0.38821015688E+03  0.43307558350E+03  0.00000000000E+00 0.  1.
         11    1    5    5    0    0 -0.10461298646E+02 -0.28413637694E+03  0.12128656396E+03  0.30911704914E+03  0.00000000000E+00 0.  1.
        -11    1    5    5    0    0  0.17830789274E+01  0.53794118831E+01 -0.44660233820E+01  0.72154561545E+01  0.00000000000E+00 0. -1.
          1    1    6    6  503    0  0.11169636694E+02  0.18075691655E+03 -0.17862419996E+03  0.25437065176E+03  0.00000000000E+00 0. -1.
         -1    1    6    6    0  503 -0.98686335490E+02  0.27967961584E+03 -0.31469844334E+03  0.43242894280E+03  0.00000000000E+00 0.  1.
<mgrwt>
<rscale>  0 0.14634676E+04</rscale>
<asrwt>0</asrwt>
<pdfrwt beam="1">  1        2 0.11043469E+00 0.14634676E+04</pdfrwt>
<pdfrwt beam="2">  1       -1 0.11475562E+00 0.14634676E+04</pdfrwt>
<totfact> 0.30302751E+01</totfact>
</mgrwt>
</event>
<event>
12    6  0.1538774E-007  0.1495301E+04  0.7818608E-02  0.8887584E-01
         -1   -1    0    0    0  501 -0.00000000000E+00  0.00000000000E+00  0.19637199207E+03  0.19637199207E+03  0.00000000000E+00 0.  1.
          2   -1    0    0  501    0  0.00000000000E+00 -0.00000000000E+00 -0.28465424583E+04  0.28465424583E+04  0.00000000000E+00 0. -1.
         24    2    1    2    0    0 -0.45379614155E+03  0.11843048595E+03 -0.91540409654E+03  0.10316025591E+04  0.79261981951E+02 0.  0.
        254    2    1    2    0    0  0.45379614155E+03 -0.11843048595E+03 -0.17347663697E+04  0.20113118914E+04  0.90332964562E+03 0.  0.
         23    2    4    4    0    0  0.64478646430E+03 -0.26180623575E+03 -0.91647466130E+03  0.11542570760E+04  0.89952782112E+02 0.  0.
         23    2    4    4    0    0 -0.19099032274E+03  0.14337574980E+03 -0.81829170843E+03  0.85705481538E+03  0.88925403971E+02 0.  0.
          4    1    3    3  502    0 -0.29935287764E+03  0.97627888594E+02 -0.53928323791E+03  0.62447558853E+03  0.00000000000E+00 0. -1.
         -3    1    3    3    0  502 -0.15444326392E+03  0.20802597355E+02 -0.37612085864E+03  0.40712697052E+03  0.00000000000E+00 0.  1.
         11    1    5    5    0    0  0.38351441719E+03 -0.13667186718E+03 -0.60131274092E+03  0.72618146483E+03  0.00000000000E+00 0. -1.
        -11    1    5    5    0    0  0.26127204711E+03 -0.12513436856E+03 -0.31516192038E+03  0.42807561114E+03  0.00000000000E+00 0.  1.
          1    1    6    6  503    0 -0.13679681151E+03  0.13276834877E+03 -0.52335702912E+03  0.55699495689E+03  0.00000000000E+00 0. -1.
         -1    1    6    6    0  503 -0.54193511231E+02  0.10607401027E+02 -0.29493467931E+03  0.30005985849E+03  0.00000000000E+00 0.  1.
<mgrwt>
<rscale>  0 0.14953009E+04</rscale>
<asrwt>0</asrwt>
<pdfrwt beam="1">  1        2 0.43792959E+00 0.14953009E+04</pdfrwt>
<pdfrwt beam="2">  1       -1 0.30211077E-01 0.14953009E+04</pdfrwt>
<totfact> 0.24173849E+01</totfact>
</mgrwt>
</event>
<event>
12    6  0.1538774E-007  0.1544584E+04  0.7818608E-02  0.8855335E-01
          2   -1    0    0  501    0  0.00000000000E+00  0.00000000000E+00  0.14492340528E+04  0.14492340528E+04  0.00000000000E+00 0. -1.
         -3   -1    0    0    0  501 -0.00000000000E+00 -0.00000000000E+00 -0.41155180876E+03  0.41155180876E+03  0.00000000000E+00 0.  1.
         24    2    1    2    0    0  0.93967719031E+02  0.24255451455E+03  0.86423242563E+03  0.90609612952E+03  0.80311180247E+02 0.  0.
        254    2    1    2    0    0 -0.93967719031E+02 -0.24255451455E+03  0.17344981836E+03  0.95468973199E+03  0.90204491027E+03 0.  0.
         23    2    4    4    0    0 -0.32326057376E+03  0.21041454798E+03  0.19102635154E+03  0.43883695465E+03  0.85528505341E+02 0.  0.
         23    2    4    4    0    0  0.22929285473E+03 -0.45296906253E+03 -0.17576533181E+02  0.51585277735E+03  0.89660295225E+02 0.  0.
          2    1    3    3  502    0  0.74253540960E+00  0.10308188463E+03  0.37441498828E+03  0.38834650731E+03  0.00000000000E+00 0. -1.
         -1    1    3    3    0  502  0.93225183622E+02  0.13947262992E+03  0.48981743735E+03  0.51774962220E+03  0.00000000000E+00 0.  1.
         11    1    5    5    0    0 -0.27090598930E+02  0.11554212009E+01 -0.34656919735E+01  0.27335811117E+02  0.00000000000E+00 0. -1.
        -11    1    5    5    0    0 -0.29616997483E+03  0.20925912678E+03  0.19449204352E+03  0.41150114353E+03  0.00000000000E+00 0.  1.
          2    1    6    6  503    0  0.10110709382E+03 -0.11437262734E+03 -0.18746309099E+02  0.15380236152E+03  0.00000000000E+00 0. -1.
         -2    1    6    6    0  503  0.12818576091E+03 -0.33859643519E+03  0.11697759174E+01  0.36205041583E+03  0.00000000000E+00 0.  1.
<mgrwt>
<rscale>  0 0.15445840E+04</rscale>
<asrwt>0</asrwt>
<pdfrwt beam="1">  1        2 0.22295908E+00 0.15445840E+04</pdfrwt>
<pdfrwt beam="2">  1       -3 0.63315663E-01 0.15445840E+04</pdfrwt>
<totfact> 0.20206289E+01</totfact>
</mgrwt>
</event>
<event>
12    6  0.1538774E-007  0.2922533E+04  0.7818608E-02  0.8266205E-01
          2   -1    0    0  501    0  0.00000000000E+00  0.00000000000E+00  0.16279743423E+04  0.16279743423E+04  0.00000000000E+00 0. -1.
         -1   -1    0    0    0  501 -0.00000000000E+00 -0.00000000000E+00 -0.13116294340E+04  0.13116294340E+04  0.00000000000E+00 0.  1.
         24    2    1    2    0    0 -0.37885331976E+03  0.12502334860E+04  0.37466234871E+03  0.13612859446E+04  0.78191688224E+02 0.  0.
        254    2    1    2    0    0  0.37885331976E+03 -0.12502334860E+04 -0.58317440469E+02  0.15783178316E+04  0.88378314444E+03 0.  0.
         23    2    4    4    0    0  0.38615883052E+03 -0.18563841201E+03 -0.23207342596E+03  0.49577395363E+03  0.91397350417E+02 0.  0.
         23    2    4    4    0    0 -0.73055107645E+01 -0.10645950740E+04  0.17375598549E+03  0.10825438780E+04  0.91071747773E+02 0.  0.
          2    1    3    3  502    0 -0.36928426889E+03  0.12420680611E+04  0.36796396746E+03  0.13470343058E+04  0.00000000000E+00 0. -1.
         -1    1    3    3    0  502 -0.95690508611E+01  0.81654249161E+01  0.66983812449E+01  0.14251638844E+02  0.00000000000E+00 0.  1.
         11    1    5    5    0    0  0.35223230279E+03 -0.13545385123E+03 -0.20434480655E+03  0.42915281765E+03  0.00000000000E+00 0. -1.
        -11    1    5    5    0    0  0.33926527735E+02 -0.50184560776E+02 -0.27728619416E+02  0.66621135979E+02  0.00000000000E+00 0.  1.
          1    1    6    6  503    0  0.36071789627E+02 -0.67953139950E+03  0.12694217239E+03  0.69222713906E+03  0.00000000000E+00 0. -1.
         -1    1    6    6    0  503 -0.43377300392E+02 -0.38506367450E+03  0.46813813108E+02  0.39031673895E+03  0.00000000000E+00 0.  1.
<mgrwt>
<rscale>  0 0.29225325E+04</rscale>
<asrwt>0</asrwt>
<pdfrwt beam="1">  1        2 0.25045759E+00 0.29225325E+04</pdfrwt>
<pdfrwt beam="2">  1       -1 0.20178914E+00 0.29225325E+04</pdfrwt>
<totfact> 0.15433707E+00</totfact>
</mgrwt>
</event>
<event>
12    6  0.1538774E-007  0.1349932E+04  0.7818608E-02  0.8990880E-01
         -1   -1    0    0    0  501 -0.00000000000E+00  0.00000000000E+00  0.64176770010E+03  0.64176770010E+03  0.00000000000E+00 0.  1.
          2   -1    0    0  501    0  0.00000000000E+00 -0.00000000000E+00 -0.70988110730E+03  0.70988110730E+03  0.00000000000E+00 0. -1.
         24    2    1    2    0    0 -0.59940525779E+02  0.31634224336E+03  0.14800985963E+03  0.36234222980E+03  0.75628641275E+02 0.  0.
        254    2    1    2    0    0  0.59940525779E+02 -0.31634224336E+03 -0.21612326684E+03  0.98930657760E+03  0.91013897645E+03 0.  0.
         23    2    4    4    0    0  0.11147551998E+03  0.18887055883E+03  0.21262817996E+03  0.31915477203E+03  0.92466999768E+02 0.  0.
         23    2    4    4    0    0 -0.51534994199E+02 -0.50521280219E+03 -0.42875144680E+03  0.67015180557E+03  0.85905810357E+02 0.  0.
          2    1    3    3  502    0  0.11233292080E+02  0.12315423112E+03  0.70526524692E+02  0.14236271344E+03  0.00000000000E+00 0. -1.
         -1    1    3    3    0  502 -0.71173817859E+02  0.19318801224E+03  0.77483334941E+02  0.21997951636E+03  0.00000000000E+00 0.  1.
         11    1    5    5    0    0  0.59812929794E+01 -0.58727853738E+01  0.32822007959E+02  0.33875502656E+02  0.00000000000E+00 0.  1.
        -11    1    5    5    0    0  0.10549422700E+03  0.19474334421E+03  0.17980617200E+03  0.28527926937E+03  0.00000000000E+00 0. -1.
          4    1    6    6  503    0  0.41156079713E+01 -0.34886972242E+03 -0.29928201804E+03  0.45967025983E+03  0.00000000000E+00 0. -1.
         -4    1    6    6    0  503 -0.55650602170E+02 -0.15634307978E+03 -0.12946942876E+03  0.21048154574E+03  0.00000000000E+00 0.  1.
<mgrwt>
<rscale>  0 0.13499315E+04</rscale>
<asrwt>0</asrwt>
<pdfrwt beam="1">  1        2 0.10921248E+00 0.13499315E+04</pdfrwt>
<pdfrwt beam="2">  1       -1 0.98733492E-01 0.13499315E+04</pdfrwt>
<totfact> 0.44084140E+01</totfact>
</mgrwt>
</event>
<event>
12    6  0.1568895E-007  0.3160145E+04  0.7818608E-02  0.8199423E-01
          2   -1    0    0  501    0  0.00000000000E+00  0.00000000000E+00  0.42145644993E+04  0.42145644993E+04  0.00000000000E+00 0. -1.
         -1   -1    0    0    0  501 -0.00000000000E+00 -0.00000000000E+00 -0.59238114186E+03  0.59238114186E+03  0.00000000000E+00 0.  1.
         24    2    1    2    0    0 -0.42592448027E+03  0.17417440619E+01 -0.43033622158E+03  0.61304832456E+03  0.96043157345E+02 0.  0.
        254    2    1    2    0    0  0.42592448027E+03 -0.17417440619E+01  0.40525195790E+04  0.41938973166E+04  0.99219205160E+03 0.  0.
         23    2    4    4    0    0  0.44914273578E+03 -0.84867498664E+02  0.40429860591E+04  0.40697781865E+04  0.91796095174E+02 0.  0.
         23    2    4    4    0    0 -0.23218255507E+02  0.83125754602E+02  0.95335198870E+01  0.12411913015E+03  0.88688736608E+02 0.  0.
          4    1    3    3  502    0 -0.13027214238E+03  0.23011846342E+02 -0.18959718267E+03  0.23118708404E+03  0.00000000000E+00 0. -1.
         -3    1    3    3    0  502 -0.29565233789E+03 -0.21270102280E+02 -0.24073903891E+03  0.38186124052E+03  0.00000000000E+00 0.  1.
         11    1    5    5    0    0  0.44635850559E+02 -0.25126316253E+02  0.28047855404E+03  0.28511736215E+03  0.00000000000E+00 0.  1.
        -11    1    5    5    0    0  0.40450688522E+03 -0.59741182411E+02  0.37625075051E+04  0.37846608243E+04  0.00000000000E+00 0. -1.
          1    1    6    6  503    0 -0.43415134560E+02  0.58569879118E+02 -0.25098611390E+02  0.77105414482E+02  0.00000000000E+00 0. -1.
         -1    1    6    6    0  503  0.20196879052E+02  0.24555875484E+02  0.34632131277E+02  0.47013715669E+02  0.00000000000E+00 0.  1.
<mgrwt>
<rscale>  0 0.31601446E+04</rscale>
<asrwt>0</asrwt>
<pdfrwt beam="1">  1        2 0.64839452E+00 0.31601446E+04</pdfrwt>
<pdfrwt beam="2">  1       -1 0.91135563E-01 0.31601446E+04</pdfrwt>
<totfact> 0.25412476E-01</totfact>
</mgrwt>
</event>
<event>
12    6  0.1538774E-007  0.1795662E+04  0.7818608E-02  0.8708610E-01
         -1   -1    0    0    0  501 -0.00000000000E+00  0.00000000000E+00  0.63542496516E+03  0.63542496516E+03  0.00000000000E+00 0.  1.
          2   -1    0    0  501    0  0.00000000000E+00 -0.00000000000E+00 -0.12686004009E+04  0.12686004009E+04  0.00000000000E+00 0. -1.
         24    2    1    2    0    0 -0.59161148716E+03  0.34821409726E+03 -0.66186795744E+02  0.69439626009E+03  0.80921349646E+02 0.  0.
        254    2    1    2    0    0  0.59161148716E+03 -0.34821409726E+03 -0.56698864000E+03  0.12096291060E+04  0.81882186517E+03 0.  0.
         23    2    4    4    0    0  0.62922517842E+03 -0.42720052389E+03 -0.69195546860E+03  0.10323071357E+04  0.91820690211E+02 0.  0.
         23    2    4    4    0    0 -0.37613691259E+02  0.78986426631E+02  0.12496682860E+03  0.17732197027E+03  0.90403138929E+02 0.  0.
          2    1    3    3  502    0 -0.17231303623E+03  0.85766381206E+02  0.15230113805E+02  0.19307928674E+03  0.00000000000E+00 0. -1.
         -1    1    3    3    0  502 -0.41929845093E+03  0.26244771605E+03 -0.81416909549E+02  0.50131697335E+03  0.00000000000E+00 0.  1.
         11    1    5    5    0    0  0.45640668045E+03 -0.26892158422E+03 -0.51323335898E+03  0.73758684722E+03  0.00000000000E+00 0. -1.
        -11    1    5    5    0    0  0.17281849796E+03 -0.15827893967E+03 -0.17872210961E+03  0.29472028849E+03  0.00000000000E+00 0.  1.
          3    1    6    6  503    0 -0.44490104728E+02 -0.17877490465E+01  0.39458598628E+02  0.59494087698E+02  0.00000000000E+00 0. -1.
         -3    1    6    6    0  503  0.68764134684E+01  0.80774175677E+02  0.85508229972E+02  0.11782788257E+03  0.00000000000E+00 0.  1.
<mgrwt>
<rscale>  0 0.17956618E+04</rscale>
<asrwt>0</asrwt>
<pdfrwt beam="1">  1        2 0.19516929E+00 0.17956618E+04</pdfrwt>
<pdfrwt beam="2">  1       -1 0.97757688E-01 0.17956618E+04</pdfrwt>
<totfact> 0.18639420E+01</totfact>
</mgrwt>
</event>
<event>
12    6  0.1538774E-007  0.2466258E+04  0.7818608E-02  0.8415106E-01
          2   -1    0    0  501    0  0.00000000000E+00  0.00000000000E+00  0.20993217497E+04  0.20993217497E+04  0.00000000000E+00 0. -1.
         -1   -1    0    0    0  501 -0.00000000000E+00 -0.00000000000E+00 -0.72433251976E+03  0.72433251976E+03  0.00000000000E+00 0.  1.
         24    2    1    2    0    0  0.88522628559E+03  0.30840129220E+03  0.31990336828E+02  0.94149607580E+03  0.81575396826E+02 0.  0.
        254    2    1    2    0    0 -0.88522628559E+03 -0.30840129220E+03  0.13429988931E+04  0.18821581936E+04  0.92743544537E+03 0.  0.
         23    2    4    4    0    0 -0.43142957703E+03  0.31103286694E+03  0.46934098741E+03  0.71525095595E+03  0.91815267016E+02 0.  0.
         23    2    4    4    0    0 -0.45379670856E+03 -0.61943415915E+03  0.87365790568E+03  0.11669072377E+04  0.93617493152E+02 0.  0.
          4    1    3    3  502    0  0.78135224899E+03  0.29164033158E+03  0.46404999019E+02  0.83529566259E+03  0.00000000000E+00 0. -1.
         -3    1    3    3    0  502  0.10387403660E+03  0.16760960626E+02 -0.14414662191E+02  0.10620041321E+03  0.00000000000E+00 0.  1.
         11    1    5    5    0    0 -0.95452480577E+02  0.78278743494E+02  0.16298959001E+03  0.20446110678E+03  0.00000000000E+00 0.  1.
        -11    1    5    5    0    0 -0.33597709646E+03  0.23275412345E+03  0.30635139740E+03  0.51078984917E+03  0.00000000000E+00 0. -1.
          3    1    6    6  503    0 -0.30669172271E+03 -0.48330583997E+03  0.66891588865E+03  0.88039355621E+03  0.00000000000E+00 0. -1.
         -3    1    6    6    0  503 -0.14710498585E+03 -0.13612831918E+03  0.20474201703E+03  0.28651368149E+03  0.00000000000E+00 0.  1.
<mgrwt>
<rscale>  0 0.24662579E+04</rscale>
<asrwt>0</asrwt>
<pdfrwt beam="1">  1        2 0.32297257E+00 0.24662579E+04</pdfrwt>
<pdfrwt beam="2">  1       -1 0.11143577E+00 0.24662579E+04</pdfrwt>
<totfact> 0.44282879E+00</totfact>
</mgrwt>
</event>
<event>
12    6  0.1538774E-007  0.1443653E+04  0.7818608E-02  0.8922813E-01
         -1   -1    0    0    0  501 -0.00000000000E+00  0.00000000000E+00  0.22455213684E+03  0.22455213684E+03  0.00000000000E+00 0.  1.
          2   -1    0    0  501    0  0.00000000000E+00 -0.00000000000E+00 -0.23203233276E+04  0.23203233276E+04  0.00000000000E+00 0. -1.
         24    2    1    2    0    0 -0.16133855858E+03  0.17931009759E+03 -0.49504095590E+01  0.25394435242E+03  0.79252671808E+02 0.  0.
        254    2    1    2    0    0  0.16133855858E+03 -0.17931009759E+03 -0.20908207812E+04  0.22909311120E+04  0.90479366672E+03 0.  0.
         23    2    4    4    0    0  0.23123536358E+03  0.26902791689E+03 -0.42042698170E+03  0.55769695729E+03  0.91767291531E+02 0.  0.
         23    2    4    4    0    0 -0.69896804996E+02 -0.44833801448E+03 -0.16703937995E+04  0.17332341547E+04  0.89401628224E+02 0.  0.
          4    1    3    3  502    0 -0.35301438906E+01  0.46783904676E+02 -0.92731723295E+01  0.47824547856E+02  0.00000000000E+00 0. -1.
         -3    1    3    3    0  502 -0.15780841469E+03  0.13252619291E+03  0.43227627705E+01  0.20611980457E+03  0.00000000000E+00 0.  1.
         11    1    5    5    0    0  0.10237076214E+03  0.16109447784E+03 -0.27888853622E+03  0.33794972905E+03  0.00000000000E+00 0. -1.
        -11    1    5    5    0    0  0.12886460144E+03  0.10793343905E+03 -0.14153844548E+03  0.21974722824E+03  0.00000000000E+00 0.  1.
          3    1    6    6  503    0 -0.28532401100E+02 -0.32646806822E+02 -0.12189030958E+03  0.12937217428E+03  0.00000000000E+00 0. -1.
         -3    1    6    6    0  503 -0.41364403897E+02 -0.41569120766E+03 -0.15485034899E+04  0.16038619804E+04  0.00000000000E+00 0.  1.
<mgrwt>
<rscale>  0 0.14436531E+04</rscale>
<asrwt>0</asrwt>
<pdfrwt beam="1">  1        2 0.35697282E+00 0.14436531E+04</pdfrwt>
<pdfrwt beam="2">  1       -1 0.34546482E-01 0.14436531E+04</pdfrwt>
<totfact> 0.38828929E+01</totfact>
</mgrwt>
</event>
<event>
12    6  0.1538774E-007  0.1350434E+04  0.7818608E-02  0.8990499E-01
          2   -1    0    0  501    0  0.00000000000E+00  0.00000000000E+00  0.81226401676E+03  0.81226401676E+03  0.00000000000E+00 0. -1.
         -1   -1    0    0    0  501 -0.00000000000E+00 -0.00000000000E+00 -0.56129308794E+03  0.56129308794E+03  0.00000000000E+00 0.  1.
         24    2    1    2    0    0 -0.15280661785E+03  0.28243690541E+03 -0.12913542782E+03  0.35560501223E+03  0.81599620138E+02 0.  0.
        254    2    1    2    0    0  0.15280661785E+03 -0.28243690541E+03  0.38010635664E+03  0.10179520925E+04  0.88804569263E+03 0.  0.
         23    2    4    4    0    0  0.16518443705E+03 -0.57347257777E+03  0.37888191470E+03  0.71265777768E+03  0.90404132051E+02 0.  0.
         23    2    4    4    0    0 -0.12377819203E+02  0.29103567236E+03  0.12244419338E+01  0.30529431479E+03  0.91368191351E+02 0.  0.
          2    1    3    3  502    0 -0.81835455116E+01  0.24589576861E+02  0.11343635213E+02  0.28289499239E+02  0.00000000000E+00 0. -1.
         -1    1    3    3    0  502 -0.14462307234E+03  0.25784732855E+03 -0.14047906303E+03  0.32731551299E+03  0.00000000000E+00 0.  1.
         11    1    5    5    0    0  0.29853291290E+02 -0.87161646627E+02  0.22792368263E+02  0.94909766066E+02  0.00000000000E+00 0. -1.
        -11    1    5    5    0    0  0.13533114576E+03 -0.48631093115E+03  0.35608954644E+03  0.61774801161E+03  0.00000000000E+00 0.  1.
          1    1    6    6  503    0 -0.30602092966E+02  0.57839377720E+02  0.25288050930E+02  0.70152457041E+02  0.00000000000E+00 0. -1.
         -1    1    6    6    0  503  0.18224273764E+02  0.23319629464E+03 -0.24063608996E+02  0.23514185775E+03  0.00000000000E+00 0.  1.
<mgrwt>
<rscale>  0 0.13504343E+04</rscale>
<asrwt>0</asrwt>
<pdfrwt beam="1">  1        2 0.12496370E+00 0.13504343E+04</pdfrwt>
<pdfrwt beam="2">  1       -1 0.86352782E-01 0.13504343E+04</pdfrwt>
<totfact> 0.49808743E+01</totfact>
</mgrwt>
</event>
<event>
12    6  0.1538774E-007  0.2008312E+04  0.7818608E-02  0.8602744E-01
         -1   -1    0    0    0  501 -0.00000000000E+00  0.00000000000E+00  0.76879606815E+03  0.76879606815E+03  0.00000000000E+00 0.  1.
          2   -1    0    0  501    0  0.00000000000E+00 -0.00000000000E+00 -0.13115694667E+04  0.13115694667E+04  0.00000000000E+00 0. -1.
         24    2    1    2    0    0  0.15709996824E+02  0.34657276265E+03  0.52833276442E+03  0.63710194324E+03  0.80024323223E+02 0.  0.
        254    2    1    2    0    0 -0.15709996824E+02 -0.34657276265E+03 -0.10711061629E+04  0.14432635916E+04  0.90298499361E+03 0.  0.
         23    2    4    4    0    0 -0.40570652802E+03 -0.24050801790E+03 -0.84441648502E+03  0.97182925140E+03  0.94715363866E+02 0.  0.
         23    2    4    4    0    0  0.38999653119E+03 -0.10606474475E+03 -0.22668967793E+03  0.47143434019E+03  0.86689691476E+02 0.  0.
          2    1    3    3  502    0 -0.12846303337E+02  0.13775125898E+03  0.15026863360E+03  0.20425743341E+03  0.00000000000E+00 0. -1.
         -1    1    3    3    0  502  0.28556300161E+02  0.20882150367E+03  0.37806413082E+03  0.43284450983E+03  0.00000000000E+00 0.  1.
         11    1    5    5    0    0 -0.85937718177E+02 -0.98334808754E+02 -0.21000836864E+03  0.24730252914E+03  0.00000000000E+00 0. -1.
        -11    1    5    5    0    0 -0.31976880984E+03 -0.14217320915E+03 -0.63440811637E+03  0.72452672226E+03  0.00000000000E+00 0.  1.
          3    1    6    6  503    0  0.16115189039E+03 -0.58538444365E+02 -0.14271497330E+03  0.22307901033E+03  0.00000000000E+00 0.  1.
         -3    1    6    6    0  503  0.22884464080E+03 -0.47526300386E+02 -0.83974704629E+02  0.24835532986E+03  0.00000000000E+00 0. -1.
<mgrwt>
<rscale>  0 0.20083122E+04</rscale>
<asrwt>0</asrwt>
<pdfrwt beam="1">  1        2 0.20177992E+00 0.20083122E+04</pdfrwt>
<pdfrwt beam="2">  1       -1 0.11827632E+00 0.20083122E+04</pdfrwt>
<totfact> 0.11048814E+01</totfact>
</mgrwt>
</event>
<event>
12    6  0.1538774E-007  0.1527158E+04  0.7818608E-02  0.8866591E-01
          4   -1    0    0  501    0  0.00000000000E+00  0.00000000000E+00  0.15437691143E+04  0.15437691143E+04  0.00000000000E+00 0. -1.
         -3   -1    0    0    0  501 -0.00000000000E+00 -0.00000000000E+00 -0.37768132121E+03  0.37768132121E+03  0.00000000000E+00 0.  1.
         24    2    1    2    0    0 -0.19659356224E+03  0.34516512032E+03  0.74941667911E+03  0.85187496721E+03  0.79231381668E+02 0.  0.
        254    2    1    2    0    0  0.19659356224E+03 -0.34516512032E+03  0.41667111401E+03  0.10695754683E+04  0.90143711717E+03 0.  0.
         23    2    4    4    0    0  0.36065610234E+03 -0.29958450734E+03 -0.12435073688E+03  0.49394069076E+03  0.93223382430E+02 0.  0.
         23    2    4    4    0    0 -0.16406254010E+03 -0.45580612973E+02  0.54102185089E+03  0.57563477757E+03  0.98268228152E+02 0.  0.
          2    1    3    3  502    0 -0.35234632372E+02  0.21450387532E+02  0.10628040064E+03  0.11400492097E+03  0.00000000000E+00 0. -1.
         -1    1    3    3    0  502 -0.16135892987E+03  0.32371473278E+03  0.64313627846E+03  0.73787004624E+03  0.00000000000E+00 0.  1.
         11    1    5    5    0    0  0.19001700577E+03 -0.97710691724E+02 -0.58487549573E+02  0.22152795583E+03  0.00000000000E+00 0. -1.
        -11    1    5    5    0    0  0.17063909658E+03 -0.20187381562E+03 -0.65863187303E+02  0.27241273493E+03  0.00000000000E+00 0.  1.
          2    1    6    6  503    0 -0.39057315455E+02 -0.56221878697E+02  0.14779473421E+03  0.16287927123E+03  0.00000000000E+00 0. -1.
         -2    1    6    6    0  503 -0.12500522465E+03  0.10641265724E+02  0.39322711668E+03  0.41275550634E+03  0.00000000000E+00 0.  1.
<mgrwt>
<rscale>  0 0.15271578E+04</rscale>
<asrwt>0</asrwt>
<pdfrwt beam="1">  1        4 0.23750294E+00 0.15271578E+04</pdfrwt>
<pdfrwt beam="2">  1       -3 0.58104820E-01 0.15271578E+04</pdfrwt>
<totfact> 0.48462009E-01</totfact>
</mgrwt>
</event>
<event>
12    6  0.1538774E-007  0.1111978E+04  0.7818608E-02  0.9193595E-01
          2   -1    0    0  501    0  0.00000000000E+00  0.00000000000E+00  0.85191324359E+03  0.85191324359E+03  0.00000000000E+00 0. -1.
         -1   -1    0    0    0  501 -0.00000000000E+00 -0.00000000000E+00 -0.36285849956E+03  0.36285849956E+03  0.00000000000E+00 0.  1.
         24    2    1    2    0    0  0.11790066407E+03 -0.75181179202E+02  0.26918753214E+03  0.31338378209E+03  0.78706360121E+02 0.  0.
        254    2    1    2    0    0 -0.11790066407E+03  0.75181179202E+02  0.21986721190E+03  0.90138796106E+03  0.86290549261E+03 0.  0.
         23    2    4    4    0    0 -0.31048753227E+03 -0.78735806373E+02  0.44489373803E+03  0.55546058722E+03  0.89466143980E+02 0.  0.
         23    2    4    4    0    0  0.19258686820E+03  0.15391698557E+03 -0.22502652613E+03  0.34592737384E+03  0.90822190366E+02 0.  0.
          2    1    3    3  502    0  0.11417618083E+03 -0.89851459605E+02  0.24561639054E+03  0.28537150588E+03  0.00000000000E+00 0. -1.
         -3    1    3    3    0  502  0.37244832361E+01  0.14670280403E+02  0.23571141594E+02  0.28012276212E+02  0.00000000000E+00 0.  1.
         11    1    5    5    0    0 -0.23363287820E+03 -0.89357750791E+02  0.37658291193E+03  0.45208828668E+03  0.00000000000E+00 0. -1.
        -11    1    5    5    0    0 -0.76854654068E+02  0.10621944418E+02  0.68310826099E+02  0.10337230053E+03  0.00000000000E+00 0.  1.
          1    1    6    6  503    0  0.15371928388E+03  0.14651354206E+03 -0.22045389182E+03  0.30609762277E+03  0.00000000000E+00 0. -1.
         -1    1    6    6    0  503  0.38867584313E+02  0.74034435143E+01 -0.45726343055E+01  0.39829751075E+02  0.00000000000E+00 0.  1.
<mgrwt>
<rscale>  0 0.11119783E+04</rscale>
<asrwt>0</asrwt>
<pdfrwt beam="1">  1        2 0.13106358E+00 0.11119783E+04</pdfrwt>
<pdfrwt beam="2">  1       -1 0.55824385E-01 0.11119783E+04</pdfrwt>
<totfact> 0.11627360E+02</totfact>
</mgrwt>
</event>
<event>
12    6  0.1538774E-007  0.1105801E+04  0.7818608E-02  0.9199557E-01
         -1   -1    0    0    0  501 -0.00000000000E+00  0.00000000000E+00  0.21418384869E+03  0.21418384869E+03  0.00000000000E+00 0.  1.
          2   -1    0    0  501    0  0.00000000000E+00 -0.00000000000E+00 -0.14272725966E+04  0.14272725966E+04  0.00000000000E+00 0. -1.
         24    2    1    2    0    0  0.44082336286E+02 -0.16242097000E+03 -0.13893739740E+03  0.23145739964E+03  0.77104497820E+02 0.  0.
        254    2    1    2    0    0 -0.44082336286E+02  0.16242097000E+03 -0.10741513505E+04  0.14099990456E+04  0.89775963434E+03 0.  0.
         23    2    4    4    0    0  0.24270568914E+03  0.29056846823E+02 -0.10478078596E+04  0.10800018776E+04  0.93554224854E+02 0.  0.
         23    2    4    4    0    0 -0.28678802543E+03  0.13336412318E+03 -0.26343490853E+02  0.32999716804E+03  0.90392425167E+02 0.  0.
          2    1    3    3  502    0  0.56644324166E+02 -0.15529346386E+03 -0.10839383020E+03  0.19767109501E+03  0.00000000000E+00 0. -1.
         -1    1    3    3    0  502 -0.12561987880E+02 -0.71275061410E+01 -0.30543567197E+02  0.33786304628E+02  0.00000000000E+00 0.  1.
         11    1    5    5    0    0  0.19947951953E+03  0.37066120809E+02 -0.68138107670E+03  0.71094735931E+03  0.00000000000E+00 0. -1.
        -11    1    5    5    0    0  0.43226169613E+02 -0.80092739858E+01 -0.36642678292E+03  0.36905451826E+03  0.00000000000E+00 0.  1.
          3    1    6    6  503    0 -0.12501305216E+03  0.29042719375E+02 -0.46373747720E+02  0.13646342821E+03  0.00000000000E+00 0. -1.
         -3    1    6    6    0  503 -0.16177497326E+03  0.10432140380E+03  0.20030256867E+02  0.19353373984E+03  0.00000000000E+00 0.  1.
<mgrwt>
<rscale>  0 0.11058006E+04</rscale>
<asrwt>0</asrwt>
<pdfrwt beam="1">  1        2 0.21958039E+00 0.11058006E+04</pdfrwt>
<pdfrwt beam="2">  1       -1 0.32951363E-01 0.11058006E+04</pdfrwt>
<totfact> 0.13635019E+02</totfact>
</mgrwt>
</event>
<event>
12    6  0.1538774E-007  0.1196120E+04  0.7818608E-02  0.9116259E-01
          2   -1    0    0  501    0  0.00000000000E+00  0.00000000000E+00  0.11093224037E+04  0.11093224037E+04  0.00000000000E+00 0. -1.
         -1   -1    0    0    0  501 -0.00000000000E+00 -0.00000000000E+00 -0.32242740939E+03  0.32242740939E+03  0.00000000000E+00 0.  1.
         24    2    1    2    0    0 -0.13301471391E+02 -0.13707091880E+03 -0.72780488770E+02  0.17535577317E+03  0.80543663420E+02 0.  0.
        254    2    1    2    0    0  0.13301471391E+02  0.13707091880E+03  0.85967548305E+03  0.12563940399E+04  0.90582486243E+03 0.  0.
         23    2    4    4    0    0 -0.34197221425E+03 -0.13591038679E+03  0.13988855688E+03  0.40375475092E+03  0.89624003403E+02 0.  0.
         23    2    4    4    0    0  0.35527368564E+03  0.27298130559E+03  0.71978692617E+03  0.85263928898E+03  0.90345742122E+02 0.  0.
          2    1    3    3  502    0  0.18466991158E+01 -0.30946728107E+02  0.17150393614E+02  0.35429454967E+02  0.00000000000E+00 0. -1.
         -1    1    3    3    0  502 -0.15148170506E+02 -0.10612419069E+03 -0.89930882384E+02  0.13992631820E+03  0.00000000000E+00 0.  1.
         11    1    5    5    0    0 -0.27108284879E+03 -0.83040877979E+02  0.13795832277E+03  0.31530016992E+03  0.00000000000E+00 0.  1.
        -11    1    5    5    0    0 -0.70889365453E+02 -0.52869508812E+02  0.19302341083E+01  0.88454581001E+02  0.00000000000E+00 0. -1.
          2    1    6    6  503    0  0.36113720672E+02  0.27556932889E+02  0.13676631524E+03  0.14411318592E+03  0.00000000000E+00 0. -1.
         -2    1    6    6    0  503  0.31915996497E+03  0.24542437270E+03  0.58302061093E+03  0.70852610306E+03  0.00000000000E+00 0.  1.
<mgrwt>
<rscale>  0 0.11961203E+04</rscale>
<asrwt>0</asrwt>
<pdfrwt beam="1">  1        2 0.17066498E+00 0.11961203E+04</pdfrwt>
<pdfrwt beam="2">  1       -1 0.49604217E-01 0.11961203E+04</pdfrwt>
<totfact> 0.98572124E+01</totfact>
</mgrwt>
</event>
<event>
12    6  0.1538774E-007  0.1635030E+04  0.7818608E-02  0.8799312E-01
         -1   -1    0    0    0  501 -0.00000000000E+00  0.00000000000E+00  0.23621460060E+03  0.23621460060E+03  0.00000000000E+00 0.  1.
          2   -1    0    0  501    0  0.00000000000E+00 -0.00000000000E+00 -0.28293382936E+04  0.28293382936E+04  0.00000000000E+00 0. -1.
         24    2    1    2    0    0 -0.31632177087E+03 -0.46151270332E+03 -0.98781400048E+03  0.11381853821E+04  0.81461809327E+02 0.  0.
        254    2    1    2    0    0  0.31632177087E+03  0.46151270332E+03 -0.16053096926E+04  0.19273675122E+04  0.90811501467E+03 0.  0.
         23    2    4    4    0    0  0.20069259338E+03  0.70510395516E+03 -0.88398573192E+03  0.11520363695E+04  0.91147779323E+02 0.  0.
         23    2    4    4    0    0  0.11562917749E+03 -0.24359125184E+03 -0.72132396065E+03  0.77533114272E+03  0.90129462497E+02 0.  0.
          2    1    3    3  502    0 -0.29538077802E+03 -0.44299437570E+03 -0.96483569205E+03  0.11019989717E+04  0.00000000000E+00 0. -1.
         -1    1    3    3    0  502 -0.20940992844E+02 -0.18518327619E+02 -0.22978308425E+02  0.36186410394E+02  0.00000000000E+00 0.  1.
         11    1    5    5    0    0  0.69744580714E+01  0.34712333207E+02 -0.79779489317E+02  0.87283194589E+02  0.00000000000E+00 0.  1.
        -11    1    5    5    0    0  0.19371813531E+03  0.67039162196E+03 -0.80420624260E+03  0.10647531749E+04  0.00000000000E+00 0. -1.
          2    1    6    6  503    0  0.13024280910E+03 -0.22167396225E+03 -0.67011101265E+03  0.71774041557E+03  0.00000000000E+00 0. -1.
         -2    1    6    6    0  503 -0.14613631608E+02 -0.21917289591E+02 -0.51212947995E+02  0.57590727154E+02  0.00000000000E+00 0.  1.
<mgrwt>
<rscale>  0 0.16350303E+04</rscale>
<asrwt>0</asrwt>
<pdfrwt beam="1">  1        2 0.43528281E+00 0.16350303E+04</pdfrwt>
<pdfrwt beam="2">  1       -1 0.36340708E-01 0.16350303E+04</pdfrwt>
<totfact> 0.17600638E+01</totfact>
</mgrwt>
</event>
<event>
12    6  0.1538774E-007  0.1952755E+04  0.7818608E-02  0.8629033E-01
         -1   -1    0    0    0  501 -0.00000000000E+00  0.00000000000E+00  0.13656211894E+04  0.13656211894E+04  0.00000000000E+00 0.  1.
          2   -1    0    0  501    0  0.00000000000E+00 -0.00000000000E+00 -0.69808019923E+03  0.69808019923E+03  0.00000000000E+00 0. -1.
         24    2    1    2    0    0  0.21030207413E+03 -0.38751399627E+03  0.10301712770E+04  0.11236081589E+04  0.82754909238E+02 0.  0.
        254    2    1    2    0    0 -0.21030207413E+03  0.38751399627E+03 -0.36263028690E+03  0.94009322971E+03  0.74691398158E+03 0.  0.
         23    2    4    4    0    0  0.39337166132E+01  0.11722418576E+03 -0.52645242995E+03  0.54741045099E+03  0.93536394005E+02 0.  0.
         23    2    4    4    0    0 -0.21423579074E+03  0.27028981051E+03  0.16382214305E+03  0.39268277871E+03  0.91697952234E+02 0.  0.
          4    1    3    3  502    0  0.10846866489E+03 -0.12598679785E+03  0.33697889007E+03  0.37575643288E+03  0.00000000000E+00 0. -1.
         -3    1    3    3    0  502  0.10183340924E+03 -0.26152719841E+03  0.69319238695E+03  0.74785172600E+03  0.00000000000E+00 0.  1.
         11    1    5    5    0    0 -0.13886166379E+02  0.92068331792E+02 -0.49381131669E+03  0.50251270613E+03  0.00000000000E+00 0.  1.
        -11    1    5    5    0    0  0.17819882992E+02  0.25155853967E+02 -0.32641113265E+02  0.44897744864E+02  0.00000000000E+00 0. -1.
          4    1    6    6  503    0  0.56594598717E+01  0.14768698396E+02  0.21662326527E+02  0.26821639191E+02  0.00000000000E+00 0. -1.
         -4    1    6    6    0  503 -0.21989525062E+03  0.25552111211E+03  0.14215981653E+03  0.36586113952E+03  0.00000000000E+00 0.  1.
<mgrwt>
<rscale>  0 0.19527551E+04</rscale>
<asrwt>0</asrwt>
<pdfrwt beam="1">  1        2 0.10739695E+00 0.19527551E+04</pdfrwt>
<pdfrwt beam="2">  1       -1 0.21009557E+00 0.19527551E+04</pdfrwt>
<totfact> 0.56187220E+00</totfact>
</mgrwt>
</event>
<event>
12    6  0.1538774E-007  0.1510388E+04  0.7818608E-02  0.8877574E-01
          2   -1    0    0  501    0  0.00000000000E+00  0.00000000000E+00  0.20726034908E+04  0.20726034908E+04  0.00000000000E+00 0. -1.
         -1   -1    0    0    0  501 -0.00000000000E+00 -0.00000000000E+00 -0.27516980410E+03  0.27516980410E+03  0.00000000000E+00 0.  1.
         24    2    1    2    0    0  0.14362574414E+03  0.28072174445E+03  0.11512622681E+04  0.11963291977E+04  0.79785256662E+02 0.  0.
        254    2    1    2    0    0 -0.14362574414E+03 -0.28072174445E+03  0.64617141862E+03  0.11514440972E+04  0.89936252677E+03 0.  0.
         23    2    4    4    0    0  0.65779791893E+02  0.14136030787E+03 -0.14188089482E+03  0.22867646805E+03  0.88617272934E+02 0.  0.
         23    2    4    4    0    0 -0.20940553604E+03 -0.42208205232E+03  0.78805231343E+03  0.92276762915E+03  0.92031034403E+02 0.  0.
          2    1    3    3  502    0  0.53665503838E+02  0.78679317622E+02  0.48672163850E+03  0.49595198831E+03  0.00000000000E+00 0. -1.
         -3    1    3    3    0  502  0.89960240304E+02  0.20204242683E+03  0.66454062962E+03  0.70037720943E+03  0.00000000000E+00 0.  1.
         11    1    5    5    0    0  0.76062324403E+02  0.13114226875E+03 -0.14896443988E+03  0.21254217510E+03  0.00000000000E+00 0. -1.
        -11    1    5    5    0    0 -0.10282532510E+02  0.10218039124E+02  0.70835450650E+01  0.16134292952E+02  0.00000000000E+00 0.  1.
          2    1    6    6  503    0 -0.48091039224E+02 -0.79940783020E+02  0.94634248322E+02  0.13288686090E+03  0.00000000000E+00 0.  1.
         -2    1    6    6    0  503 -0.16131449681E+03 -0.34214126930E+03  0.69341806511E+03  0.78988076826E+03  0.00000000000E+00 0. -1.
<mgrwt>
<rscale>  0 0.15103879E+04</rscale>
<asrwt>0</asrwt>
<pdfrwt beam="1">  1        2 0.31886207E+00 0.15103879E+04</pdfrwt>
<pdfrwt beam="2">  1       -1 0.42333817E-01 0.15103879E+04</pdfrwt>
<totfact> 0.36745968E+01</totfact>
</mgrwt>
</event>
<event>
12    6  0.1538774E-007  0.2608939E+04  0.7818608E-02  0.8365171E-01
         -1   -1    0    0    0  501 -0.00000000000E+00  0.00000000000E+00  0.15569744885E+04  0.15569744885E+04  0.00000000000E+00 0.  1.
          2   -1    0    0  501    0  0.00000000000E+00 -0.00000000000E+00 -0.10929146090E+04  0.10929146090E+04  0.00000000000E+00 0. -1.
         24    2    1    2    0    0 -0.51002899762E+03 -0.66296710820E+03 -0.59100681688E+03  0.10273896495E+04  0.81150904071E+02 0.  0.
        254    2    1    2    0    0  0.51002899762E+03  0.66296710820E+03  0.10550666964E+04  0.16224994481E+04  0.90536388274E+03 0.  0.
         23    2    4    4    0    0 -0.17044802949E+03  0.38669910759E+03  0.64597029063E+03  0.77691010995E+03  0.87880441541E+02 0.  0.
         23    2    4    4    0    0  0.68047702711E+03  0.27626800061E+03  0.40909640577E+03  0.84558933812E+03  0.91041017941E+02 0.  0.
          4    1    3    3  502    0 -0.39251878479E+03 -0.55182744139E+03 -0.45261533140E+03  0.81452142986E+03  0.00000000000E+00 0. -1.
         -3    1    3    3    0  502 -0.11751021283E+03 -0.11113966681E+03 -0.13839148548E+03  0.21286821959E+03  0.00000000000E+00 0.  1.
         11    1    5    5    0    0 -0.88484560489E+02  0.10072332723E+03  0.19385196488E+03  0.23569745519E+03  0.00000000000E+00 0. -1.
        -11    1    5    5    0    0 -0.81963468998E+02  0.28597578036E+03  0.45211832575E+03  0.54121265476E+03  0.00000000000E+00 0.  1.
          4    1    6    6  503    0  0.50731419918E+03  0.21696122530E+03  0.34930216936E+03  0.65303282881E+03  0.00000000000E+00 0. -1.
         -4    1    6    6    0  503  0.17316282792E+03  0.59306775305E+02  0.59794236412E+02  0.19255650931E+03  0.00000000000E+00 0.  1.
<mgrwt>
<rscale>  0 0.26089386E+04</rscale>
<asrwt>0</asrwt>
<pdfrwt beam="1">  1        2 0.16814071E+00 0.26089386E+04</pdfrwt>
<pdfrwt beam="2">  1       -1 0.23953454E+00 0.26089386E+04</pdfrwt>
<totfact> 0.18101999E+00</totfact>
</mgrwt>
</event>
<event>
12    6  0.1538774E-007  0.1226890E+04  0.7818608E-02  0.9089640E-01
          2   -1    0    0  501    0  0.00000000000E+00  0.00000000000E+00  0.71495616804E+03  0.71495616804E+03  0.00000000000E+00 0. -1.
         -1   -1    0    0    0  501 -0.00000000000E+00 -0.00000000000E+00 -0.52634671349E+03  0.52634671349E+03  0.00000000000E+00 0.  1.
         24    2    1    2    0    0 -0.71113691254E+02 -0.15063300066E+03  0.26644175065E+03  0.32401817482E+03  0.79051332382E+02 0.  0.
        254    2    1    2    0    0  0.71113691254E+02  0.15063300066E+03 -0.77832296109E+02  0.91728470670E+03  0.89866896511E+03 0.  0.
         23    2    4    4    0    0  0.18807296321E+03  0.55578739295E+02  0.37429593767E+03  0.43245571255E+03  0.91978576913E+02 0.  0.
         23    2    4    4    0    0 -0.11695927196E+03  0.95054261370E+02 -0.45212823378E+03  0.48482899415E+03  0.89019266972E+02 0.  0.
          2    1    3    3  502    0 -0.74670158442E+02 -0.15610474800E+03  0.26618363163E+03  0.31748708738E+03  0.00000000000E+00 0. -1.
         -1    1    3    3    0  502  0.35564671881E+01  0.54717473309E+01  0.25811902569E+00  0.65310874397E+01  0.00000000000E+00 0.  1.
         11    1    5    5    0    0  0.68444987879E+02 -0.24451948044E+02  0.12576560686E+03  0.14525702047E+03  0.00000000000E+00 0. -1.
        -11    1    5    5    0    0  0.11962797533E+03  0.80030687338E+02  0.24853033081E+03  0.28719869208E+03  0.00000000000E+00 0.  1.
          1    1    6    6  503    0 -0.18239024616E+01  0.31349710094E+02 -0.17807992234E+03  0.18082751362E+03  0.00000000000E+00 0. -1.
         -1    1    6    6    0  503 -0.11513536949E+03  0.63704551276E+02 -0.27404831144E+03  0.30400148053E+03  0.00000000000E+00 0.  1.
<mgrwt>
<rscale>  0 0.12268901E+04</rscale>
<asrwt>0</asrwt>
<pdfrwt beam="1">  1        2 0.10999326E+00 0.12268901E+04</pdfrwt>
<pdfrwt beam="2">  1       -1 0.80976418E-01 0.12268901E+04</pdfrwt>
<totfact> 0.68235019E+01</totfact>
</mgrwt>
</event>
<event>
12    6  0.1538774E-007  0.2242914E+04  0.7818608E-02  0.8500776E-01
          2   -1    0    0  501    0  0.00000000000E+00  0.00000000000E+00  0.31022893460E+04  0.31022893460E+04  0.00000000000E+00 0. -1.
         -1   -1    0    0    0  501 -0.00000000000E+00 -0.00000000000E+00 -0.40539930957E+03  0.40539930957E+03  0.00000000000E+00 0.  1.
         24    2    1    2    0    0 -0.85952911924E+03 -0.31976041465E+03  0.14872471623E+04  0.17491695875E+04  0.81566503198E+02 0.  0.
        254    2    1    2    0    0  0.85952911924E+03  0.31976041465E+03  0.12096428741E+04  0.17585190681E+04  0.88775920176E+03 0.  0.
         23    2    4    4    0    0  0.69300820069E+03  0.60427682506E+03  0.97934557644E+03  0.13463176506E+04  0.89680603369E+02 0.  0.
         23    2    4    4    0    0  0.16652091854E+03 -0.28451641040E+03  0.23029729770E+03  0.41220141753E+03  0.90522699810E+02 0.  0.
          2    1    3    3  502    0 -0.69265520720E+03 -0.26348439189E+03  0.12584855303E+04  0.14604728997E+04  0.00000000000E+00 0. -1.
         -1    1    3    3    0  502 -0.16687391204E+03 -0.56276022761E+02  0.22876163198E+03  0.28869668776E+03  0.00000000000E+00 0.  1.
         11    1    5    5    0    0  0.94501377344E+02  0.12686701284E+03  0.16310416176E+03  0.22721953448E+03  0.00000000000E+00 0.  1.
        -11    1    5    5    0    0  0.59850682335E+03  0.47740981222E+03  0.81624141468E+03  0.11190981161E+04  0.00000000000E+00 0. -1.
          1    1    6    6  503    0  0.32587018145E+02 -0.14212914588E+03  0.11022092597E+03  0.18278747326E+03  0.00000000000E+00 0. -1.
         -1    1    6    6    0  503  0.13393390040E+03 -0.14238726452E+03  0.12007637173E+03  0.22941394426E+03  0.00000000000E+00 0.  1.
<mgrwt>
<rscale>  0 0.22429141E+04</rscale>
<asrwt>0</asrwt>
<pdfrwt beam="1">  1        2 0.47727527E+00 0.22429141E+04</pdfrwt>
<pdfrwt beam="2">  1       -1 0.62369127E-01 0.22429141E+04</pdfrwt>
<totfact> 0.40582918E+00</totfact>
</mgrwt>
</event>
<event>
12    6  0.1538774E-007  0.1513270E+04  0.7818608E-02  0.8875676E-01
          2   -1    0    0  501    0  0.00000000000E+00  0.00000000000E+00  0.22707817573E+04  0.22707817573E+04  0.00000000000E+00 0. -1.
         -1   -1    0    0    0  501 -0.00000000000E+00 -0.00000000000E+00 -0.25211435463E+03  0.25211435463E+03  0.00000000000E+00 0.  1.
         24    2    1    2    0    0 -0.10883723194E+02  0.32223450411E+03  0.12631887786E+04  0.13061243622E+04  0.79758561373E+02 0.  0.
        254    2    1    2    0    0  0.10883723194E+02 -0.32223450411E+03  0.75547862409E+03  0.12167717497E+04  0.89768146267E+03 0.  0.
         23    2    4    4    0    0  0.42295343031E+03 -0.37103869427E+02  0.25831792714E+03  0.50515246481E+03  0.90468557407E+02 0.  0.
         23    2    4    4    0    0 -0.41206970712E+03 -0.28513063469E+03  0.49716069695E+03  0.71161928493E+03  0.90179408585E+02 0.  0.
          4    1    3    3  502    0 -0.45303538539E+01  0.30982146420E+03  0.12462109016E+04  0.12841539920E+04  0.00000000000E+00 0. -1.
         -3    1    3    3    0  502 -0.63533693404E+01  0.12413039913E+02  0.16977877000E+02  0.21970370259E+02  0.00000000000E+00 0.  1.
         11    1    5    5    0    0  0.23098376740E+03 -0.39237398618E+02  0.18906354977E+03  0.30106162177E+03  0.00000000000E+00 0. -1.
        -11    1    5    5    0    0  0.19196966291E+03  0.21335291907E+01  0.69254377369E+02  0.20409084303E+03  0.00000000000E+00 0.  1.
          4    1    6    6  503    0 -0.17354830575E+01  0.51099671760E+01  0.12389587465E+01  0.55370285134E+01  0.00000000000E+00 0. -1.
         -4    1    6    6    0  503 -0.41033422406E+03 -0.29024060186E+03  0.49592173820E+03  0.70608225642E+03  0.00000000000E+00 0.  1.
<mgrwt>
<rscale>  0 0.15132702E+04</rscale>
<asrwt>0</asrwt>
<pdfrwt beam="1">  1        2 0.34935103E+00 0.15132702E+04</pdfrwt>
<pdfrwt beam="2">  1       -1 0.38786825E-01 0.15132702E+04</pdfrwt>
<totfact> 0.33409364E+01</totfact>
</mgrwt>
</event>
<event>
12    6  0.1538774E-007  0.1117664E+04  0.7818608E-02  0.9188144E-01
          2   -1    0    0  501    0  0.00000000000E+00  0.00000000000E+00  0.24328179724E+04  0.24328179724E+04  0.00000000000E+00 0. -1.
         -1   -1    0    0    0  501 -0.00000000000E+00 -0.00000000000E+00 -0.12836692037E+03  0.12836692037E+03  0.00000000000E+00 0.  1.
         24    2    1    2    0    0 -0.18286142884E+01 -0.46513378246E+02  0.56007237812E+03  0.56746062794E+03  0.78508963464E+02 0.  0.
        254    2    1    2    0    0  0.18286142884E+01  0.46513378246E+02  0.17443786739E+04  0.19937242648E+04  0.96431978511E+03 0.  0.
         23    2    4    4    0    0 -0.82883056416E+02 -0.66472066695E+02 -0.80584865538E+02  0.16104793559E+03  0.90301607471E+02 0.  0.
         23    2    4    4    0    0  0.84711670704E+02  0.11298544494E+03  0.18249635395E+04  0.18326763292E+04  0.90933104474E+02 0.  0.
          2    1    3    3  502    0 -0.24698664226E+02 -0.44880499712E+02  0.50784247923E+03  0.51041969689E+03  0.00000000000E+00 0. -1.
         -1    1    3    3    0  502  0.22870049937E+02 -0.16328785348E+01  0.52229898891E+02  0.57040931046E+02  0.00000000000E+00 0.  1.
         11    1    5    5    0    0  0.29882280882E+01  0.18432524969E+02 -0.11236537332E+02  0.21793284632E+02  0.00000000000E+00 0.  1.
        -11    1    5    5    0    0 -0.85871284504E+02 -0.84904591664E+02 -0.69348328206E+02  0.13925465096E+03  0.00000000000E+00 0. -1.
          4    1    6    6  503    0  0.80555710258E+02  0.37276308814E+02  0.11635866731E+04  0.11669673052E+04  0.00000000000E+00 0. -1.
         -4    1    6    6    0  503  0.41559604468E+01  0.75709136128E+02  0.66137686637E+03  0.66570902402E+03  0.00000000000E+00 0.  1.
<mgrwt>
<rscale>  0 0.11176643E+04</rscale>
<asrwt>0</asrwt>
<pdfrwt beam="1">  1        2 0.37427965E+00 0.11176643E+04</pdfrwt>
<pdfrwt beam="2">  1       -1 0.19748759E-01 0.11176643E+04</pdfrwt>
<totfact> 0.90503620E+01</totfact>
</mgrwt>
</event>
<event>
12    6  0.1538774E-007  0.1824056E+04  0.7818608E-02  0.8693610E-01
         -1   -1    0    0    0  501 -0.00000000000E+00  0.00000000000E+00  0.39520541685E+03  0.39520541685E+03  0.00000000000E+00 0.  1.
          2   -1    0    0  501    0  0.00000000000E+00 -0.00000000000E+00 -0.21047154848E+04  0.21047154848E+04  0.00000000000E+00 0. -1.
         24    2    1    2    0    0 -0.76424810814E+00 -0.17301273684E+02 -0.15890783750E+04  0.15912877307E+04  0.82016106782E+02 0.  0.
        254    2    1    2    0    0  0.76424810814E+00  0.17301273684E+02 -0.12043169291E+03  0.90863317093E+03  0.90045018103E+03 0.  0.
         23    2    4    4    0    0  0.92360206179E+01  0.38931122647E+03  0.16304592521E+03  0.43188179538E+03  0.91046012093E+02 0.  0.
         23    2    4    4    0    0 -0.84717725097E+01 -0.37200995279E+03 -0.28347761812E+03  0.47675137555E+03  0.92027920809E+02 0.  0.
          4    1    3    3  502    0  0.15136988186E+02 -0.19937932322E+02 -0.15252579012E+04  0.15254633115E+04  0.00000000000E+00 0. -1.
         -3    1    3    3    0  502 -0.15901236294E+02  0.26366586378E+01 -0.63820473824E+02  0.65824419204E+02  0.00000000000E+00 0.  1.
         11    1    5    5    0    0  0.99288231457E+01  0.49236485041E+02  0.56295493624E+02  0.75445315233E+02  0.00000000000E+00 0.  1.
        -11    1    5    5    0    0 -0.69280252781E+00  0.34007474143E+03  0.10675043159E+03  0.35643648015E+03  0.00000000000E+00 0. -1.
          4    1    6    6  503    0  0.13807711237E+02 -0.27578642825E+03 -0.24992239791E+03  0.37243793024E+03  0.00000000000E+00 0.  1.
         -4    1    6    6    0  503 -0.22279483747E+02 -0.96223524536E+02 -0.33555220206E+02  0.10431344531E+03  0.00000000000E+00 0. -1.
<mgrwt>
<rscale>  0 0.18240559E+04</rscale>
<asrwt>0</asrwt>
<pdfrwt beam="1">  1        2 0.32380239E+00 0.18240559E+04</pdfrwt>
<pdfrwt beam="2">  1       -1 0.60800832E-01 0.18240559E+04</pdfrwt>
<totfact> 0.17193110E+01</totfact>
</mgrwt>
</event>
<event>
12    6  0.1538774E-007  0.1060429E+04  0.7818608E-02  0.9244642E-01
         -1   -1    0    0    0  501 -0.00000000000E+00  0.00000000000E+00  0.45248027206E+03  0.45248027206E+03  0.00000000000E+00 0.  1.
          2   -1    0    0  501    0  0.00000000000E+00 -0.00000000000E+00 -0.62130337000E+03  0.62130337000E+03  0.00000000000E+00 0. -1.
         24    2    1    2    0    0 -0.16514166351E+02 -0.10599492057E+03  0.41929303714E+02  0.13289846129E+03  0.66304552068E+02 0.  0.
        254    2    1    2    0    0  0.16514166351E+02  0.10599492057E+03 -0.21075240165E+03  0.94088518077E+03  0.91068145239E+03 0.  0.
         23    2    4    4    0    0 -0.37914044014E+03  0.23010510947E+03 -0.24426233045E+03  0.51490209351E+03  0.93617546815E+02 0.  0.
         23    2    4    4    0    0  0.39565460649E+03 -0.12411018890E+03  0.33509928804E+02  0.42598308726E+03  0.91612055309E+02 0.  0.
          2    1    3    3  502    0 -0.95556866901E+01 -0.40610317999E+02 -0.16569059039E+02  0.44889228034E+02  0.00000000000E+00 0. -1.
         -1    1    3    3    0  502 -0.69584796606E+01 -0.65384602576E+02  0.58498362753E+02  0.88009233254E+02  0.00000000000E+00 0.  1.
         11    1    5    5    0    0 -0.93457180550E+02  0.10555564919E+03 -0.88891318689E+02  0.16666705196E+03  0.00000000000E+00 0.  1.
        -11    1    5    5    0    0 -0.28568325959E+03  0.12454946029E+03 -0.15537101176E+03  0.34823504155E+03  0.00000000000E+00 0. -1.
          1    1    6    6  503    0  0.26645285493E+02 -0.64839515260E+01  0.27205704782E+02  0.38628528823E+02  0.00000000000E+00 0. -1.
         -1    1    6    6    0  503  0.36900932100E+03 -0.11762623737E+03  0.63042240228E+01  0.38735455844E+03  0.00000000000E+00 0.  1.
<mgrwt>
<rscale>  0 0.10604292E+04</rscale>
<asrwt>0</asrwt>
<pdfrwt beam="1">  1        2 0.95585133E-01 0.10604292E+04</pdfrwt>
<pdfrwt beam="2">  1       -1 0.69612350E-01 0.10604292E+04</pdfrwt>
<totfact> 0.11283649E+02</totfact>
</mgrwt>
</event>
<event>
12    6  0.1538774E-007  0.2450840E+04  0.7818608E-02  0.8420711E-01
         -1   -1    0    0    0  501 -0.00000000000E+00  0.00000000000E+00  0.89678475141E+03  0.89678475141E+03  0.00000000000E+00 0.  1.
          2   -1    0    0  501    0  0.00000000000E+00 -0.00000000000E+00 -0.16744864910E+04  0.16744864910E+04  0.00000000000E+00 0. -1.
         24    2    1    2    0    0  0.49476213517E+03  0.90108980358E+03 -0.60285286430E+03  0.11944689355E+04  0.81068226652E+02 0.  0.
        254    2    1    2    0    0 -0.49476213517E+03 -0.90108980358E+03 -0.17484887530E+03  0.13768023069E+04  0.89903284625E+03 0.  0.
         23    2    4    4    0    0  0.58222984729E+02 -0.39016541458E+03 -0.41582614041E+03  0.58094477010E+03  0.94691499992E+02 0.  0.
         23    2    4    4    0    0 -0.55298511989E+03 -0.51092438900E+03  0.24097726511E+03  0.79585753682E+03  0.92102673758E+02 0.  0.
          4    1    3    3  502    0  0.39094895434E+02  0.69181078955E+02 -0.73418763017E+02  0.10818848043E+03  0.00000000000E+00 0. -1.
         -3    1    3    3    0  502  0.45566723973E+03  0.83190872463E+03 -0.52943410128E+03  0.10862804551E+04  0.00000000000E+00 0.  1.
         11    1    5    5    0    0  0.23267149471E+02 -0.12503136289E+02 -0.27387305135E+02  0.38049351428E+02  0.00000000000E+00 0.  1.
        -11    1    5    5    0    0  0.34955835258E+02 -0.37766227829E+03 -0.38843883528E+03  0.54289541867E+03  0.00000000000E+00 0. -1.
          1    1    6    6  503    0 -0.54844794878E+03 -0.50308314016E+03  0.22502344167E+03  0.77751099525E+03  0.00000000000E+00 0. -1.
         -1    1    6    6    0  503 -0.45371711120E+01 -0.78412488434E+01  0.15953823445E+02  0.18346541571E+02  0.00000000000E+00 0.  1.
<mgrwt>
<rscale>  0 0.24508398E+04</rscale>
<asrwt>0</asrwt>
<pdfrwt beam="1">  1        2 0.25761330E+00 0.24508398E+04</pdfrwt>
<pdfrwt beam="2">  1       -1 0.13796689E+00 0.24508398E+04</pdfrwt>
<totfact> 0.44994347E+00</totfact>
</mgrwt>
</event>
<event>
12    6  0.1538774E-007  0.2069292E+04  0.7818608E-02  0.8574893E-01
         -1   -1    0    0    0  501 -0.00000000000E+00  0.00000000000E+00  0.15672303358E+04  0.15672303358E+04  0.00000000000E+00 0.  1.
          2   -1    0    0  501    0  0.00000000000E+00 -0.00000000000E+00 -0.68304698343E+03  0.68304698343E+03  0.00000000000E+00 0. -1.
         24    2    1    2    0    0  0.17876807175E+03 -0.57923119688E+02  0.12487714375E+04  0.12650552649E+04  0.74977389704E+02 0.  0.
        254    2    1    2    0    0 -0.17876807175E+03  0.57923119688E+02 -0.36458808515E+03  0.98522205427E+03  0.89578173297E+03 0.  0.
         23    2    4    4    0    0  0.61540102363E+02 -0.33703335102E+03  0.49115244735E+02  0.35818349306E+03  0.92219539894E+02 0.  0.
         23    2    4    4    0    0 -0.24030817412E+03  0.39495647070E+03 -0.41370332988E+03  0.62703856121E+03  0.91039990082E+02 0.  0.
          4    1    3    3  502    0  0.10066130857E+03 -0.28834403920E+02  0.91766606519E+03  0.92362066298E+03  0.00000000000E+00 0. -1.
         -3    1    3    3    0  502  0.78106763182E+02 -0.29088715768E+02  0.33110537229E+03  0.34143460194E+03  0.00000000000E+00 0.  1.
         11    1    5    5    0    0 -0.49518193520E+01 -0.76211937183E+02 -0.22569746630E+02  0.79637763323E+02  0.00000000000E+00 0. -1.
        -11    1    5    5    0    0  0.66491921715E+02 -0.26082141383E+03  0.71684991365E+02  0.27854572974E+03  0.00000000000E+00 0.  1.
          1    1    6    6  503    0 -0.10570238302E+03  0.10215149835E+03 -0.10386023270E+03  0.17998575034E+03  0.00000000000E+00 0. -1.
         -1    1    6    6    0  503 -0.13460579110E+03  0.29280497235E+03 -0.30984309719E+03  0.44705281087E+03  0.00000000000E+00 0.  1.
<mgrwt>
<rscale>  0 0.20692916E+04</rscale>
<asrwt>0</asrwt>
<pdfrwt beam="1">  1        2 0.10508415E+00 0.20692916E+04</pdfrwt>
<pdfrwt beam="2">  1       -1 0.24111236E+00 0.20692916E+04</pdfrwt>
<totfact> 0.35529114E+00</totfact>
</mgrwt>
</event>
<event>
12    6  0.1538774E-007  0.3318961E+04  0.7818608E-02  0.8158088E-01
         -1   -1    0    0    0  501 -0.00000000000E+00  0.00000000000E+00  0.93918994539E+03  0.93918994539E+03  0.00000000000E+00 0.  1.
          2   -1    0    0  501    0  0.00000000000E+00 -0.00000000000E+00 -0.29321809484E+04  0.29321809484E+04  0.00000000000E+00 0. -1.
         24    2    1    2    0    0  0.26101496561E+03 -0.10396899569E+04 -0.22042204207E+04  0.24523501101E+04  0.79683001443E+02 0.  0.
        254    2    1    2    0    0 -0.26101496561E+03  0.10396899569E+04  0.21122941768E+03  0.14190207837E+04  0.90549329031E+03 0.  0.
         23    2    4    4    0    0  0.63444464749E+01 -0.44900074802E+02 -0.19669385177E+03  0.22641447222E+03  0.10256107053E+03 0.  0.
         23    2    4    4    0    0 -0.26735941209E+03  0.10845900317E+04  0.40792326945E+03  0.11926063115E+04  0.89954589647E+02 0.  0.
          2    1    3    3  502    0  0.22842748098E+03 -0.97191869548E+03 -0.20165138016E+04  0.22501406571E+04  0.00000000000E+00 0. -1.
         -1    1    3    3    0  502  0.32587484637E+02 -0.67771261462E+02 -0.18770661914E+03  0.20220945306E+03  0.00000000000E+00 0.  1.
         11    1    5    5    0    0 -0.29855762498E+02 -0.50325149519E+01 -0.96568960969E+01  0.31779685387E+02  0.00000000000E+00 0. -1.
        -11    1    5    5    0    0  0.36200208973E+02 -0.39867559850E+02 -0.18703695567E+03  0.19463478683E+03  0.00000000000E+00 0.  1.
          4    1    6    6  503    0 -0.93771372313E+02  0.44505324740E+03  0.12218377739E+03  0.47095046315E+03  0.00000000000E+00 0. -1.
         -4    1    6    6    0  503 -0.17358803978E+03  0.63953678434E+03  0.28573949206E+03  0.72165584831E+03  0.00000000000E+00 0.  1.
<mgrwt>
<rscale>  0 0.33189606E+04</rscale>
<asrwt>0</asrwt>
<pdfrwt beam="1">  1        2 0.45110476E+00 0.33189606E+04</pdfrwt>
<pdfrwt beam="2">  1       -1 0.14449076E+00 0.33189606E+04</pdfrwt>
<totfact> 0.70062598E-01</totfact>
</mgrwt>
</event>
<event>
12    6  0.1538774E-007  0.1904496E+04  0.7818608E-02  0.8652622E-01
          2   -1    0    0  501    0  0.00000000000E+00  0.00000000000E+00  0.26164756228E+04  0.26164756228E+04  0.00000000000E+00 0. -1.
         -1   -1    0    0    0  501 -0.00000000000E+00 -0.00000000000E+00 -0.34656396551E+03  0.34656396551E+03  0.00000000000E+00 0.  1.
         24    2    1    2    0    0  0.52287879045E+03  0.43078689833E+03  0.36279701683E+03  0.77287415540E+03  0.82056098991E+02 0.  0.
        254    2    1    2    0    0 -0.52287879045E+03 -0.43078689833E+03  0.19071146405E+04  0.21901654329E+04  0.83711336771E+03 0.  0.
         23    2    4    4    0    0 -0.41704516334E+03 -0.63078876666E+03  0.17245857383E+04  0.18853369779E+04  0.92078309451E+02 0.  0.
         23    2    4    4    0    0 -0.10583362712E+03  0.20000186833E+03  0.18252890221E+03  0.30482845506E+03  0.91662876399E+02 0.  0.
          2    1    3    3  502    0  0.18835048668E+03  0.20469098998E+03  0.16259054673E+03  0.32219558206E+03  0.00000000000E+00 0. -1.
         -1    1    3    3    0  502  0.33452830377E+03  0.22609590835E+03  0.20020647009E+03  0.45067857334E+03  0.00000000000E+00 0.  1.
         11    1    5    5    0    0 -0.38553639888E+03 -0.59298940750E+03  0.15463582237E+04  0.17004406806E+04  0.00000000000E+00 0. -1.
        -11    1    5    5    0    0 -0.31508764453E+02 -0.37799359155E+02  0.17822751455E+03  0.18489629724E+03  0.00000000000E+00 0.  1.
          1    1    6    6  503    0 -0.97325421466E+02  0.95676361046E+02  0.79435642234E+02  0.15791207992E+03  0.00000000000E+00 0. -1.
         -1    1    6    6    0  503 -0.85082056488E+01  0.10432550728E+03  0.10309325997E+03  0.14691637514E+03  0.00000000000E+00 0.  1.
<mgrwt>
<rscale>  0 0.19044959E+04</rscale>
<asrwt>0</asrwt>
<pdfrwt beam="1">  1        2 0.40253470E+00 0.19044959E+04</pdfrwt>
<pdfrwt beam="2">  1       -1 0.53317535E-01 0.19044959E+04</pdfrwt>
<totfact> 0.11268900E+01</totfact>
</mgrwt>
</event>
<event>
12    6  0.1538774E-007  0.1693212E+04  0.7818608E-02  0.8765246E-01
         -1   -1    0    0    0  501 -0.00000000000E+00  0.00000000000E+00  0.39773882254E+03  0.39773882254E+03  0.00000000000E+00 0.  1.
          2   -1    0    0  501    0  0.00000000000E+00 -0.00000000000E+00 -0.18020402458E+04  0.18020402458E+04  0.00000000000E+00 0. -1.
         24    2    1    2    0    0  0.12481373545E+03  0.42309642810E+03 -0.10383731357E+04  0.11309470713E+04  0.78952219900E+02 0.  0.
        254    2    1    2    0    0 -0.12481373545E+03 -0.42309642810E+03 -0.36592828757E+03  0.10688319971E+04  0.90216920272E+03 0.  0.
         23    2    4    4    0    0  0.13815621209E+03 -0.49784434952E+03  0.86969951579E+02  0.53218282690E+03  0.93373730132E+02 0.  0.
         23    2    4    4    0    0 -0.26296994753E+03  0.74747921425E+02 -0.45289823914E+03  0.53664917019E+03  0.90194632780E+02 0.  0.
          4    1    3    3  502    0  0.74228496138E+02  0.32034464075E+03 -0.83710425231E+03  0.89937427567E+03  0.00000000000E+00 0. -1.
         -3    1    3    3    0  502  0.50585239307E+02  0.10275178735E+03 -0.20126888341E+03  0.23157279561E+03  0.00000000000E+00 0.  1.
         11    1    5    5    0    0  0.66343340094E+02 -0.34182571936E+03  0.23208718467E+02  0.34897694165E+03  0.00000000000E+00 0.  1.
        -11    1    5    5    0    0  0.71812871994E+02 -0.15601863016E+03  0.63761233112E+02  0.18320588525E+03  0.00000000000E+00 0. -1.
          1    1    6    6  503    0 -0.17491307136E+03  0.10022152039E+02 -0.23768995013E+03  0.29528213366E+03  0.00000000000E+00 0. -1.
         -1    1    6    6    0  503 -0.88056876170E+02  0.64725769386E+02 -0.21520828901E+03  0.24136703653E+03  0.00000000000E+00 0.  1.
<mgrwt>
<rscale>  0 0.16932116E+04</rscale>
<asrwt>0</asrwt>
<pdfrwt beam="1">  1        2 0.27723697E+00 0.16932116E+04</pdfrwt>
<pdfrwt beam="2">  1       -1 0.61190587E-01 0.16932116E+04</pdfrwt>
<totfact> 0.25280001E+01</totfact>
</mgrwt>
</event>
<event>
12    6  0.1538774E-007  0.1215941E+04  0.7818608E-02  0.9099017E-01
          2   -1    0    0  501    0  0.00000000000E+00  0.00000000000E+00  0.97123440272E+03  0.97123440272E+03  0.00000000000E+00 0. -1.
         -1   -1    0    0    0  501 -0.00000000000E+00 -0.00000000000E+00 -0.38057532972E+03  0.38057532972E+03  0.00000000000E+00 0.  1.
         24    2    1    2    0    0 -0.85432612908E+02  0.23939303435E+03  0.23274832465E+02  0.26738661948E+03  0.79662602292E+02 0.  0.
        254    2    1    2    0    0  0.85432612908E+02 -0.23939303435E+03  0.56738424054E+03  0.10844231130E+04  0.88850484257E+03 0.  0.
         23    2    4    4    0    0  0.12052694345E+03 -0.53799264692E+03  0.52632158276E+03  0.76787840794E+03  0.93059167490E+02 0.  0.
         23    2    4    4    0    0 -0.35094330545E+02  0.29859961257E+03  0.41062657778E+02  0.31654470503E+03  0.90116967069E+02 0.  0.
          4    1    3    3  502    0 -0.30841296126E+02  0.17301882591E+03  0.38995029971E+02  0.18002031004E+03  0.00000000000E+00 0. -1.
         -3    1    3    3    0  502 -0.54591316782E+02  0.66374208448E+02 -0.15720197505E+02  0.87366309437E+02  0.00000000000E+00 0.  1.
         11    1    5    5    0    0  0.10576675471E+03 -0.35603257183E+03  0.40020234930E+03  0.54599241661E+03  0.00000000000E+00 0. -1.
        -11    1    5    5    0    0  0.14760188743E+02 -0.18196007509E+03  0.12611923346E+03  0.22188599133E+03  0.00000000000E+00 0.  1.
          2    1    6    6  503    0 -0.45261344579E+02  0.16729675742E+03 -0.13839709341E+02  0.17386296877E+03  0.00000000000E+00 0. -1.
         -2    1    6    6    0  503  0.10167014035E+02  0.13130285515E+03  0.54902367119E+02  0.14268173626E+03  0.00000000000E+00 0.  1.
<mgrwt>
<rscale>  0 0.12159405E+04</rscale>
<asrwt>0</asrwt>
<pdfrwt beam="1">  1        2 0.14942068E+00 0.12159405E+04</pdfrwt>
<pdfrwt beam="2">  1       -1 0.58550051E-01 0.12159405E+04</pdfrwt>
<totfact> 0.87403236E+01</totfact>
</mgrwt>
</event>
<event>
12    6  0.1538774E-007  0.1979560E+04  0.7818608E-02  0.8616237E-01
         -1   -1    0    0    0  501 -0.00000000000E+00  0.00000000000E+00  0.79965012582E+03  0.79965012582E+03  0.00000000000E+00 0.  1.
          2   -1    0    0  501    0  0.00000000000E+00 -0.00000000000E+00 -0.12251160217E+04  0.12251160217E+04  0.00000000000E+00 0. -1.
         24    2    1    2    0    0  0.13970160249E+03  0.76739677739E+03 -0.19525002153E+03  0.80815087638E+03  0.81061189232E+02 0.  0.
        254    2    1    2    0    0 -0.13970160249E+03 -0.76739677739E+03 -0.23021587433E+03  0.12166152711E+04  0.90484198479E+03 0.  0.
         23    2    4    4    0    0 -0.30467742984E+00 -0.25267802539E+02  0.28297932515E+03  0.29887253020E+03  0.92784353061E+02 0.  0.
         23    2    4    4    0    0 -0.13939692507E+03 -0.74212897486E+03 -0.51319519948E+03  0.91774274092E+03  0.93249706144E+02 0.  0.
          2    1    3    3  502    0  0.14757208408E+03  0.73786678419E+03 -0.19597915125E+03  0.77758133911E+03  0.00000000000E+00 0. -1.
         -1    1    3    3    0  502 -0.78704815805E+01  0.29529993208E+02  0.72912972217E+00  0.30569537277E+02  0.00000000000E+00 0.  1.
         11    1    5    5    0    0  0.78928067470E+01 -0.36679142853E+02  0.28232469411E+03  0.28480675698E+03  0.00000000000E+00 0.  1.
        -11    1    5    5    0    0 -0.81974841768E+01  0.11411340314E+02  0.65463104655E+00  0.14065773224E+02  0.00000000000E+00 0. -1.
          4    1    6    6  503    0 -0.17203993280E+02 -0.18182145153E+03 -0.81759290324E+02  0.20009897345E+03  0.00000000000E+00 0. -1.
         -4    1    6    6    0  503 -0.12219293178E+03 -0.56030752333E+03 -0.43143590916E+03  0.71764376747E+03  0.00000000000E+00 0.  1.
<mgrwt>
<rscale>  0 0.19795597E+04</rscale>
<asrwt>0</asrwt>
<pdfrwt beam="1">  1        2 0.18847939E+00 0.19795597E+04</pdfrwt>
<pdfrwt beam="2">  1       -1 0.12302310E+00 0.19795597E+04</pdfrwt>
<totfact> 0.11304824E+01</totfact>
</mgrwt>
</event>
<event>
12    6  0.1538774E-007  0.3228185E+04  0.7818608E-02  0.8181413E-01
          2   -1    0    0  501    0  0.00000000000E+00  0.00000000000E+00  0.31999209957E+04  0.31999209957E+04  0.00000000000E+00 0. -1.
         -1   -1    0    0    0  501 -0.00000000000E+00 -0.00000000000E+00 -0.81417459774E+03  0.81417459774E+03  0.00000000000E+00 0.  1.
         24    2    1    2    0    0 -0.80693032810E+03  0.52473269922E+03  0.25077903792E+04  0.26873328850E+04  0.79148520833E+02 0.  0.
        254    2    1    2    0    0  0.80693032810E+03 -0.52473269922E+03 -0.12204398128E+03  0.13267627085E+04  0.90494397129E+03 0.  0.
         23    2    4    4    0    0  0.74428938037E+03 -0.70527283785E+03 -0.27524494876E+03  0.10647824988E+04  0.81397360679E+02 0.  0.
         23    2    4    4    0    0  0.62640947735E+02  0.18054013863E+03  0.15320096748E+03  0.26198020970E+03  0.92975608893E+02 0.  0.
          2    1    3    3  502    0 -0.48430063950E+03  0.35911666279E+03  0.15931021712E+04  0.17033750071E+04  0.00000000000E+00 0. -1.
         -1    1    3    3    0  502 -0.32262968861E+03  0.16561603643E+03  0.91468820808E+03  0.98395787791E+03  0.00000000000E+00 0.  1.
         11    1    5    5    0    0  0.58907739783E+03 -0.55507493350E+03 -0.25110308726E+03  0.84745095602E+03  0.00000000000E+00 0.  1.
        -11    1    5    5    0    0  0.15521198254E+03 -0.15019790435E+03 -0.24141861500E+02  0.21733154275E+03  0.00000000000E+00 0. -1.
          4    1    6    6  503    0 -0.68368136781E+00  0.40589505353E+02  0.84420975286E+02  0.93674310424E+02  0.00000000000E+00 0. -1.
         -4    1    6    6    0  503  0.63324629103E+02  0.13995063328E+03  0.68779992192E+02  0.16830589928E+03  0.00000000000E+00 0.  1.
<mgrwt>
<rscale>  0 0.32281849E+04</rscale>
<asrwt>0</asrwt>
<pdfrwt beam="1">  1        2 0.49229553E+00 0.32281849E+04</pdfrwt>
<pdfrwt beam="2">  1       -1 0.12525763E+00 0.32281849E+04</pdfrwt>
<totfact> 0.68826911E-01</totfact>
</mgrwt>
</event>
<event>
12    6  0.1538774E-007  0.2089059E+04  0.7818608E-02  0.8566078E-01
         -1   -1    0    0    0  501 -0.00000000000E+00  0.00000000000E+00  0.33622127754E+03  0.33622127754E+03  0.00000000000E+00 0.  1.
          2   -1    0    0  501    0  0.00000000000E+00 -0.00000000000E+00 -0.32450120606E+04  0.32450120606E+04  0.00000000000E+00 0. -1.
         24    2    1    2    0    0  0.49168935955E+03  0.27064292544E+03 -0.22517008093E+04  0.23220785597E+04  0.82983633325E+02 0.  0.
        254    2    1    2    0    0 -0.49168935955E+03 -0.27064292544E+03 -0.65708997378E+03  0.12591547785E+04  0.91580429301E+03 0.  0.
         23    2    4    4    0    0 -0.18662639642E+03 -0.51182389631E+03 -0.79293559238E+02  0.55670379011E+03  0.82695397147E+02 0.  0.
         23    2    4    4    0    0 -0.30506296313E+03  0.24118097087E+03 -0.57779641454E+03  0.70245098836E+03  0.91416750117E+02 0.  0.
          2    1    3    3  502    0  0.38242680707E+03  0.24791061110E+03 -0.18106926245E+04  0.18671683679E+04  0.00000000000E+00 0. -1.
         -1    1    3    3    0  502  0.10926255248E+03  0.22732314341E+02 -0.44100818482E+03  0.45491019176E+03  0.00000000000E+00 0.  1.
         11    1    5    5    0    0 -0.16817549222E+03 -0.35645565846E+03 -0.66667949172E+02  0.39973522246E+03  0.00000000000E+00 0. -1.
        -11    1    5    5    0    0 -0.18450904198E+02 -0.15536823785E+03 -0.12625610066E+02  0.15696856764E+03  0.00000000000E+00 0.  1.
          3    1    6    6  503    0 -0.58449769345E+02  0.96391913513E+02 -0.18363970136E+03  0.21547927149E+03  0.00000000000E+00 0. -1.
         -3    1    6    6    0  503 -0.24661319379E+03  0.14478905736E+03 -0.39415671318E+03  0.48697171686E+03  0.00000000000E+00 0.  1.
<mgrwt>
<rscale>  0 0.20890592E+04</rscale>
<asrwt>0</asrwt>
<pdfrwt beam="1">  1        2 0.49923261E+00 0.20890592E+04</pdfrwt>
<pdfrwt beam="2">  1       -1 0.51726352E-01 0.20890592E+04</pdfrwt>
<totfact> 0.47981330E+00</totfact>
</mgrwt>
</event>
<event>
12    6  0.1538774E-007  0.1379373E+04  0.7818608E-02  0.8968886E-01
         -1   -1    0    0    0  501 -0.00000000000E+00  0.00000000000E+00  0.26494112861E+03  0.26494112861E+03  0.00000000000E+00 0.  1.
          2   -1    0    0  501    0  0.00000000000E+00 -0.00000000000E+00 -0.17953698412E+04  0.17953698412E+04  0.00000000000E+00 0. -1.
         24    2    1    2    0    0 -0.33124874343E+03 -0.71959468026E+02 -0.23958689638E+03  0.42263097993E+03  0.79442867607E+02 0.  0.
        254    2    1    2    0    0  0.33124874343E+03  0.71959468026E+02 -0.12908418162E+04  0.16376799899E+04  0.94911498762E+03 0.  0.
         23    2    4    4    0    0  0.38822486038E+03  0.44871150514E+03 -0.63654879622E+03  0.87516280766E+03  0.93032321649E+02 0.  0.
         23    2    4    4    0    0 -0.56976116955E+02 -0.37675203711E+03 -0.65429301999E+03  0.76251718222E+03  0.90248112510E+02 0.  0.
          2    1    3    3  502    0 -0.23067307386E+02 -0.76879363414E+01  0.39258683213E+01  0.24629605707E+02  0.00000000000E+00 0. -1.
         -1    1    3    3    0  502 -0.30818143604E+03 -0.64271531684E+02 -0.24351276470E+03  0.39800137422E+03  0.00000000000E+00 0.  1.
         11    1    5    5    0    0  0.14818559869E+03  0.18229089732E+03 -0.31899238441E+03  0.39616295160E+03  0.00000000000E+00 0.  1.
        -11    1    5    5    0    0  0.24003926169E+03  0.26642060781E+03 -0.31755641181E+03  0.47899985606E+03  0.00000000000E+00 0. -1.
          1    1    6    6  503    0 -0.59155110536E+02 -0.17267208165E+03 -0.36976798282E+03  0.41236311184E+03  0.00000000000E+00 0. -1.
         -1    1    6    6    0  503  0.21789935808E+01 -0.20407995546E+03 -0.28452503716E+03  0.35015407039E+03  0.00000000000E+00 0.  1.
<mgrwt>
<rscale>  0 0.13793728E+04</rscale>
<asrwt>0</asrwt>
<pdfrwt beam="1">  1        2 0.27621074E+00 0.13793728E+04</pdfrwt>
<pdfrwt beam="2">  1       -1 0.40760174E-01 0.13793728E+04</pdfrwt>
<totfact> 0.56718398E+01</totfact>
</mgrwt>
</event>
<event>
12    6  0.1538774E-007  0.2237969E+04  0.7818608E-02  0.8502789E-01
          2   -1    0    0  501    0  0.00000000000E+00  0.00000000000E+00  0.11980161460E+04  0.11980161460E+04  0.00000000000E+00 0. -1.
         -1   -1    0    0    0  501 -0.00000000000E+00 -0.00000000000E+00 -0.10451663816E+04  0.10451663816E+04  0.00000000000E+00 0.  1.
         24    2    1    2    0    0 -0.32511686998E+03 -0.83041633000E+03 -0.29129048263E+03  0.94155458457E+03  0.79891364859E+02 0.  0.
        254    2    1    2    0    0  0.32511686998E+03  0.83041633000E+03  0.44414024706E+03  0.13016279431E+04  0.83766489894E+03 0.  0.
         23    2    4    4    0    0  0.57857171915E+02  0.39900831018E+01 -0.19292403126E+03  0.22059062901E+03  0.89873080867E+02 0.  0.
         23    2    4    4    0    0  0.26725969806E+03  0.82642624690E+03  0.63706427832E+03  0.10810373141E+04  0.91557042128E+02 0.  0.
          2    1    3    3  502    0 -0.13234627791E+03 -0.24141169224E+03 -0.10100181910E+03  0.29325161532E+03  0.00000000000E+00 0. -1.
         -1    1    3    3    0  502 -0.19277059207E+03 -0.58900463776E+03 -0.19028866353E+03  0.64830296925E+03  0.00000000000E+00 0.  1.
         11    1    5    5    0    0  0.29828576681E+00  0.36963481662E+02 -0.43370671796E+02  0.56985990586E+02  0.00000000000E+00 0. -1.
        -11    1    5    5    0    0  0.57558886149E+02 -0.32973398560E+02 -0.14955335946E+03  0.16360463842E+03  0.00000000000E+00 0.  1.
          3    1    6    6  503    0  0.12708948238E+03  0.30771012971E+03  0.28874168268E+03  0.44069152451E+03  0.00000000000E+00 0. -1.
         -3    1    6    6    0  503  0.14017021569E+03  0.51871611719E+03  0.34832259564E+03  0.64034578958E+03  0.00000000000E+00 0.  1.
<mgrwt>
<rscale>  0 0.22379689E+04</rscale>
<asrwt>0</asrwt>
<pdfrwt beam="1">  1        2 0.18431018E+00 0.22379689E+04</pdfrwt>
<pdfrwt beam="2">  1       -1 0.16079483E+00 0.22379689E+04</pdfrwt>
<totfact> 0.56863206E+00</totfact>
</mgrwt>
</event>
<event>
12    6  0.1538774E-007  0.1199828E+04  0.7818608E-02  0.9113007E-01
          2   -1    0    0  501    0  0.00000000000E+00  0.00000000000E+00  0.10453005004E+04  0.10453005004E+04  0.00000000000E+00 0. -1.
         -3   -1    0    0    0  501 -0.00000000000E+00 -0.00000000000E+00 -0.34429975796E+03  0.34429975796E+03  0.00000000000E+00 0.  1.
         24    2    1    2    0    0  0.16018176118E+03 -0.67454735860E+02  0.36799533811E+03  0.41549436408E+03  0.83705792522E+02 0.  0.
        254    2    1    2    0    0 -0.16018176118E+03  0.67454735860E+02  0.33300540437E+03  0.97410589433E+03  0.89876657483E+03 0.  0.
         23    2    4    4    0    0 -0.12502271351E+03 -0.31853050808E+03 -0.11635607802E+03  0.37407141876E+03  0.96427827797E+02 0.  0.
         23    2    4    4    0    0 -0.35159047676E+02  0.38598524394E+03  0.44936148239E+03  0.60003447557E+03  0.88853040713E+02 0.  0.
          4    1    3    3  502    0  0.14714738905E+03 -0.44591003933E+02  0.35340273514E+03  0.38540135565E+03  0.00000000000E+00 0. -1.
         -3    1    3    3    0  502  0.13034372132E+02 -0.22863731926E+02  0.14592602976E+02  0.30093008426E+02  0.00000000000E+00 0.  1.
         11    1    5    5    0    0 -0.11700572117E+03 -0.21190860058E+03 -0.11288322547E+03  0.26709214960E+03  0.00000000000E+00 0. -1.
        -11    1    5    5    0    0 -0.80169923360E+01 -0.10662190750E+03 -0.34728525423E+01  0.10697926916E+03  0.00000000000E+00 0.  1.
          2    1    6    6  503    0 -0.16616400474E+02  0.32555402876E+03  0.41616791352E+03  0.52863717487E+03  0.00000000000E+00 0. -1.
         -2    1    6    6    0  503 -0.18542647203E+02  0.60431215176E+02  0.33193568865E+02  0.71397300698E+02  0.00000000000E+00 0.  1.
<mgrwt>
<rscale>  0 0.11998278E+04</rscale>
<asrwt>0</asrwt>
<pdfrwt beam="1">  1        2 0.16081546E+00 0.11998278E+04</pdfrwt>
<pdfrwt beam="2">  1       -3 0.52969194E-01 0.11998278E+04</pdfrwt>
<totfact> 0.52231329E+01</totfact>
</mgrwt>
</event>
<event>
12    6  0.1538774E-007  0.1334462E+04  0.7818608E-02  0.9002675E-01
          2   -1    0    0  501    0  0.00000000000E+00  0.00000000000E+00  0.19762868777E+04  0.19762868777E+04  0.00000000000E+00 0. -1.
         -1   -1    0    0    0  501 -0.00000000000E+00 -0.00000000000E+00 -0.22526935744E+03  0.22526935744E+03  0.00000000000E+00 0.  1.
         24    2    1    2    0    0  0.35454191026E+03  0.41305559485E+02  0.58889823761E+03  0.69240288400E+03  0.72211523559E+02 0.  0.
        254    2    1    2    0    0 -0.35454191026E+03 -0.41305559485E+02  0.11621192827E+04  0.15091533512E+04  0.89421277938E+03 0.  0.
         23    2    4    4    0    0 -0.21076903314E+03  0.41175363077E+03  0.48538016909E+03  0.67716815248E+03  0.94858633789E+02 0.  0.
         23    2    4    4    0    0 -0.14377287712E+03 -0.45305919026E+03  0.67673911357E+03  0.83198519867E+03  0.91050935763E+02 0.  0.
          2    1    3    3  502    0  0.14378353842E+03 -0.17152239138E+02  0.21450609773E+03  0.25880643576E+03  0.00000000000E+00 0. -1.
         -1    1    3    3    0  502  0.21075837184E+03  0.58457798623E+02  0.37439213988E+03  0.43359644824E+03  0.00000000000E+00 0.  1.
         11    1    5    5    0    0 -0.12217134411E+03  0.31321844003E+03  0.30960271261E+03  0.45703989776E+03  0.00000000000E+00 0. -1.
        -11    1    5    5    0    0 -0.88597689039E+02  0.98535190743E+02  0.17577745648E+03  0.22012825472E+03  0.00000000000E+00 0.  1.
          2    1    6    6  503    0 -0.13842107387E+03 -0.40770918367E+03  0.55826776016E+03  0.70501777579E+03  0.00000000000E+00 0. -1.
         -2    1    6    6    0  503 -0.53518032438E+01 -0.45350006585E+02  0.11847135341E+03  0.12696742288E+03  0.00000000000E+00 0.  1.
<mgrwt>
<rscale>  0 0.13344615E+04</rscale>
<asrwt>0</asrwt>
<pdfrwt beam="1">  1        2 0.30404412E+00 0.13344615E+04</pdfrwt>
<pdfrwt beam="2">  1       -1 0.34656825E-01 0.13344615E+04</pdfrwt>
<totfact> 0.60634431E+01</totfact>
</mgrwt>
</event>
<event>
12    6  0.1538774E-007  0.2241237E+04  0.7818608E-02  0.8501458E-01
         -1   -1    0    0    0  501 -0.00000000000E+00  0.00000000000E+00  0.66472188623E+03  0.66472188623E+03  0.00000000000E+00 0.  1.
          2   -1    0    0  501    0  0.00000000000E+00 -0.00000000000E+00 -0.18891895546E+04  0.18891895546E+04  0.00000000000E+00 0. -1.
         24    2    1    2    0    0  0.15333309356E+03  0.18871684802E+03  0.51840453612E+03  0.57798121168E+03  0.78701535410E+02 0.  0.
        254    2    1    2    0    0 -0.15333309356E+03 -0.18871684802E+03 -0.17428722045E+04  0.19759302291E+04  0.89864991124E+03 0.  0.
         23    2    4    4    0    0 -0.43968305268E+03 -0.13029800709E+03 -0.15384854429E+04  0.16079541586E+04  0.90996486344E+02 0.  0.
         23    2    4    4    0    0  0.28634995911E+03 -0.58418840929E+02 -0.20438676154E+03  0.36797607055E+03  0.90682854739E+02 0.  0.
          2    1    3    3  502    0  0.15516105681E+02  0.75776904517E+02  0.15200861081E+03  0.17055646148E+03  0.00000000000E+00 0. -1.
         -1    1    3    3    0  502  0.13781698788E+03  0.11293994350E+03  0.36639592531E+03  0.40742475020E+03  0.00000000000E+00 0.  1.
         11    1    5    5    0    0 -0.90247244757E+02  0.85489962475E+01 -0.26192150836E+03  0.27716516206E+03  0.00000000000E+00 0. -1.
        -11    1    5    5    0    0 -0.34943580792E+03 -0.13884700334E+03 -0.12765639346E+04  0.13307889965E+04  0.00000000000E+00 0.  1.
          3    1    6    6  503    0  0.15924365003E+03 -0.77757039347E+02 -0.11167538144E+03  0.20946619790E+03  0.00000000000E+00 0. -1.
         -3    1    6    6    0  503  0.12710630909E+03  0.19338198418E+02 -0.92711380103E+02  0.15850987265E+03  0.00000000000E+00 0.  1.
<mgrwt>
<rscale>  0 0.22412368E+04</rscale>
<asrwt>0</asrwt>
<pdfrwt beam="1">  1        2 0.29064455E+00 0.22412368E+04</pdfrwt>
<pdfrwt beam="2">  1       -1 0.10226491E+00 0.22412368E+04</pdfrwt>
<totfact> 0.72266336E+00</totfact>
</mgrwt>
</event>
<event>
12    6  0.1538774E-007  0.1522794E+04  0.7818608E-02  0.8869435E-01
         -1   -1    0    0    0  501 -0.00000000000E+00  0.00000000000E+00  0.38610989277E+03  0.38610989277E+03  0.00000000000E+00 0.  1.
          2   -1    0    0  501    0  0.00000000000E+00 -0.00000000000E+00 -0.15014516963E+04  0.15014516963E+04  0.00000000000E+00 0. -1.
         24    2    1    2    0    0 -0.94154300457E+02 -0.21032586636E+03  0.17121261424E+03  0.29959178063E+03  0.85670726557E+02 0.  0.
        254    2    1    2    0    0  0.94154300457E+02  0.21032586636E+03 -0.12865544178E+04  0.15879698084E+04  0.90184468746E+03 0.  0.
         23    2    4    4    0    0 -0.31197366039E+03  0.34866505195E+03 -0.81240606913E+03  0.94179125985E+03  0.89845827646E+02 0.  0.
         23    2    4    4    0    0  0.40612796084E+03 -0.13833918559E+03 -0.47414834862E+03  0.64617854858E+03  0.93018327761E+02 0.  0.
          2    1    3    3  502    0  0.85883329975E+01 -0.16272725216E+02 -0.38183163815E+01  0.18792035271E+02  0.00000000000E+00 0. -1.
         -1    1    3    3    0  502 -0.10274263345E+03 -0.19405314115E+03  0.17503093062E+03  0.28079974536E+03  0.00000000000E+00 0.  1.
         11    1    5    5    0    0 -0.20254593934E+02 -0.17872928271E+01 -0.30960982191E+02  0.37040861347E+02  0.00000000000E+00 0.  1.
        -11    1    5    5    0    0 -0.29171906645E+03  0.35045234478E+03 -0.78144508694E+03  0.90475039850E+03  0.00000000000E+00 0. -1.
          1    1    6    6  503    0  0.40431858495E+03 -0.14264841107E+03 -0.44986838358E+03  0.62145285409E+03  0.00000000000E+00 0. -1.
         -1    1    6    6    0  503  0.18093758946E+01  0.43092254878E+01 -0.24279965046E+02  0.24725694491E+02  0.00000000000E+00 0.  1.
<mgrwt>
<rscale>  0 0.15227939E+04</rscale>
<asrwt>0</asrwt>
<pdfrwt beam="1">  1        2 0.23099256E+00 0.15227939E+04</pdfrwt>
<pdfrwt beam="2">  1       -1 0.59401523E-01 0.15227939E+04</pdfrwt>
<totfact> 0.40005500E+01</totfact>
</mgrwt>
</event>
<event>
12    6  0.1538774E-007  0.2059627E+04  0.7818608E-02  0.8579239E-01
          2   -1    0    0  501    0  0.00000000000E+00  0.00000000000E+00  0.36858784474E+04  0.36858784474E+04  0.00000000000E+00 0. -1.
         -1   -1    0    0    0  501 -0.00000000000E+00 -0.00000000000E+00 -0.28772417088E+03  0.28772417088E+03  0.00000000000E+00 0.  1.
         24    2    1    2    0    0  0.51688397513E+03 -0.62838622413E+03  0.10895876306E+04  0.13621753823E+04  0.79260815994E+02 0.  0.
        254    2    1    2    0    0 -0.51688397513E+03  0.62838622413E+03  0.23085666460E+04  0.26114272360E+04  0.90996371340E+03 0.  0.
         23    2    4    4    0    0 -0.32555972391E+03  0.82041188606E+03  0.20077547964E+04  0.21949217113E+04  0.86817048605E+02 0.  0.
         23    2    4    4    0    0 -0.19132425122E+03 -0.19202566192E+03  0.30081184960E+03  0.41650552468E+03  0.97520558295E+02 0.  0.
          2    1    3    3  502    0  0.61706971181E+02 -0.60498101906E+02  0.81197138175E+02  0.11857801598E+03  0.00000000000E+00 0. -1.
         -1    1    3    3    0  502  0.45517700395E+03 -0.56788812223E+03  0.10083904924E+04  0.12435973663E+04  0.00000000000E+00 0.  1.
         11    1    5    5    0    0 -0.18912979682E+03  0.58453173314E+03  0.14010333771E+04  0.15298176201E+04  0.00000000000E+00 0.  1.
        -11    1    5    5    0    0 -0.13642992709E+03  0.23588015292E+03  0.60672141929E+03  0.66510409123E+03  0.00000000000E+00 0. -1.
          4    1    6    6  503    0  0.77726132176E+01 -0.31156290712E+02  0.33914455058E+02  0.46704584669E+02  0.00000000000E+00 0. -1.
         -4    1    6    6    0  503 -0.19909686444E+03 -0.16086937121E+03  0.26689739454E+03  0.36980094002E+03  0.00000000000E+00 0.  1.
<mgrwt>
<rscale>  0 0.20596275E+04</rscale>
<asrwt>0</asrwt>
<pdfrwt beam="1">  1        2 0.56705819E+00 0.20596275E+04</pdfrwt>
<pdfrwt beam="2">  1       -1 0.44265260E-01 0.20596275E+04</pdfrwt>
<totfact> 0.31978530E+00</totfact>
</mgrwt>
</event>
<event>
12    6  0.1538774E-007  0.2011297E+04  0.7818608E-02  0.8601357E-01
          2   -1    0    0  501    0  0.00000000000E+00  0.00000000000E+00  0.13985428784E+04  0.13985428784E+04  0.00000000000E+00 0. -1.
         -1   -1    0    0    0  501 -0.00000000000E+00 -0.00000000000E+00 -0.72313007163E+03  0.72313007163E+03  0.00000000000E+00 0.  1.
         24    2    1    2    0    0  0.16543855074E+03 -0.35517094996E+03 -0.46852341038E+03  0.61608615487E+03  0.80818601682E+02 0.  0.
        254    2    1    2    0    0 -0.16543855074E+03  0.35517094996E+03  0.11439362172E+04  0.15055867952E+04  0.89704248009E+03 0.  0.
         23    2    4    4    0    0 -0.12838254297E+03 -0.61836739690E+02 -0.95515085923E+02  0.19439080515E+03  0.91426439122E+02 0.  0.
         23    2    4    4    0    0 -0.37056007767E+02  0.41700768965E+03  0.12394513031E+04  0.13111959900E+04  0.87902392400E+02 0.  0.
          2    1    3    3  502    0  0.12270212724E+03 -0.24761593979E+03 -0.27038597029E+03  0.38662389812E+03  0.00000000000E+00 0. -1.
         -1    1    3    3    0  502  0.42736423497E+02 -0.10755501017E+03 -0.19813744009E+03  0.22946225674E+03  0.00000000000E+00 0.  1.
         11    1    5    5    0    0 -0.56860277703E+02  0.18859080696E+02 -0.21697318019E+02  0.63714438822E+02  0.00000000000E+00 0. -1.
        -11    1    5    5    0    0 -0.71522265269E+02 -0.80695820386E+02 -0.73817767904E+02  0.13067636632E+03  0.00000000000E+00 0.  1.
          2    1    6    6  503    0  0.27686008048E+02  0.17619082498E+03  0.52759929759E+03  0.55692974482E+03  0.00000000000E+00 0. -1.
         -2    1    6    6    0  503 -0.64742015815E+02  0.24081686467E+03  0.71185200549E+03  0.75426624519E+03  0.00000000000E+00 0.  1.
<mgrwt>
<rscale>  0 0.20112965E+04</rscale>
<asrwt>0</asrwt>
<pdfrwt beam="1">  1        2 0.21516044E+00 0.20112965E+04</pdfrwt>
<pdfrwt beam="2">  1       -1 0.11125078E+00 0.20112965E+04</pdfrwt>
<totfact> 0.11395357E+01</totfact>
</mgrwt>
</event>
<event>
12    6  0.1538774E-007  0.1450433E+04  0.7818608E-02  0.8918100E-01
         -1   -1    0    0    0  501 -0.00000000000E+00  0.00000000000E+00  0.19554343370E+03  0.19554343370E+03  0.00000000000E+00 0.  1.
          2   -1    0    0  501    0  0.00000000000E+00 -0.00000000000E+00 -0.26896267605E+04  0.26896267605E+04  0.00000000000E+00 0. -1.
         24    2    1    2    0    0  0.13110778608E+03 -0.32546986801E+03 -0.13264497254E+04  0.13744004544E+04  0.79924017047E+02 0.  0.
        254    2    1    2    0    0 -0.13110778608E+03  0.32546986801E+03 -0.11676336014E+04  0.15107697398E+04  0.89215306591E+03 0.  0.
         23    2    4    4    0    0 -0.73406839316E+02 -0.10739571225E+03 -0.10320856100E+04  0.10441182713E+04  0.89776695009E+02 0.  0.
         23    2    4    4    0    0 -0.57700946764E+02  0.43286558027E+03 -0.13554799138E+03  0.46665146850E+03  0.93211186307E+02 0.  0.
          4    1    3    3  502    0  0.12478346804E+03 -0.23314186492E+03 -0.10538535830E+04  0.10865235467E+04  0.00000000000E+00 0. -1.
         -3    1    3    3    0  502  0.63243180411E+01 -0.92328003093E+02 -0.27259614240E+03  0.28787690773E+03  0.00000000000E+00 0.  1.
         11    1    5    5    0    0 -0.56237355727E+01  0.16077990389E+02 -0.12720780777E+03  0.12834311254E+03  0.00000000000E+00 0.  1.
        -11    1    5    5    0    0 -0.67783103744E+02 -0.12347370264E+03 -0.90487780225E+03  0.91577515876E+03  0.00000000000E+00 0. -1.
          1    1    6    6  503    0 -0.29189842469E+02  0.34884241122E+03 -0.71675251862E+02  0.35732396575E+03  0.00000000000E+00 0. -1.
         -1    1    6    6    0  503 -0.28511104295E+02  0.84023169043E+02 -0.63872739521E+02  0.10932750275E+03  0.00000000000E+00 0.  1.
<mgrwt>
<rscale>  0 0.14504328E+04</rscale>
<asrwt>0</asrwt>
<pdfrwt beam="1">  1        2 0.41378873E+00 0.14504328E+04</pdfrwt>
<pdfrwt beam="2">  1       -1 0.30083605E-01 0.14504328E+04</pdfrwt>
<totfact> 0.30351891E+01</totfact>
</mgrwt>
</event>
<event>
12    6  0.1538774E-007  0.1325089E+04  0.7818608E-02  0.9009903E-01
         -1   -1    0    0    0  501 -0.00000000000E+00  0.00000000000E+00  0.66976968257E+03  0.66976968257E+03  0.00000000000E+00 0.  1.
          2   -1    0    0  501    0  0.00000000000E+00 -0.00000000000E+00 -0.65539701077E+03  0.65539701077E+03  0.00000000000E+00 0. -1.
         24    2    1    2    0    0  0.69881953186E+02  0.23271720483E+03 -0.27123627084E+03  0.37289334828E+03  0.80246805347E+02 0.  0.
        254    2    1    2    0    0 -0.69881953186E+02 -0.23271720483E+03  0.28560894264E+03  0.95227334506E+03  0.87533494778E+03 0.  0.
         23    2    4    4    0    0  0.15343955645E+03 -0.95356064672E+02  0.53944211833E+03  0.57602458536E+03  0.90388314297E+02 0.  0.
         23    2    4    4    0    0 -0.22332150963E+03 -0.13736114015E+03 -0.25383317569E+03  0.37624875970E+03  0.91603867851E+02 0.  0.
          4    1    3    3  502    0  0.61925344645E+02  0.23826769672E+03 -0.26043555718E+03  0.35837539404E+03  0.00000000000E+00 0. -1.
         -3    1    3    3    0  502  0.79566085408E+01 -0.55504918935E+01 -0.10800713655E+02  0.14517954236E+02  0.00000000000E+00 0.  1.
         11    1    5    5    0    0  0.16156749682E+03 -0.10159706315E+03  0.52197575901E+03  0.55577397587E+03  0.00000000000E+00 0. -1.
        -11    1    5    5    0    0 -0.81279403726E+01  0.62409984733E+01  0.17466359323E+02  0.20250609488E+02  0.00000000000E+00 0.  1.
          1    1    6    6  503    0 -0.22147940486E+03 -0.14595550963E+03 -0.23082759041E+03  0.35162126509E+03  0.00000000000E+00 0. -1.
         -1    1    6    6    0  503 -0.18421047689E+01  0.85943694739E+01 -0.23005585279E+02  0.24627494608E+02  0.00000000000E+00 0.  1.
<mgrwt>
<rscale>  0 0.13250887E+04</rscale>
<asrwt>0</asrwt>
<pdfrwt beam="1">  1        2 0.10083031E+00 0.13250887E+04</pdfrwt>
<pdfrwt beam="2">  1       -1 0.10304149E+00 0.13250887E+04</pdfrwt>
<totfact> 0.44272707E+01</totfact>
</mgrwt>
</event>
<event>
12    6  0.1538774E-007  0.2851885E+04  0.7818608E-02  0.8287339E-01
          2   -1    0    0  501    0  0.00000000000E+00  0.00000000000E+00  0.17768852691E+04  0.17768852691E+04  0.00000000000E+00 0. -1.
         -1   -1    0    0    0  501 -0.00000000000E+00 -0.00000000000E+00 -0.11443122296E+04  0.11443122296E+04  0.00000000000E+00 0.  1.
         24    2    1    2    0    0  0.46930559744E+03  0.96503708175E+03  0.10146656793E+04  0.14790083296E+04  0.79842878510E+02 0.  0.
        254    2    1    2    0    0 -0.46930559744E+03 -0.96503708175E+03 -0.38209263988E+03  0.14421891691E+04  0.88451710048E+03 0.  0.
         23    2    4    4    0    0  0.10526573925E+03  0.53320441718E+00 -0.27681735271E+03  0.31000951109E+03  0.91634546120E+02 0.  0.
         23    2    4    4    0    0 -0.57457133669E+03 -0.96557028617E+03 -0.10527528717E+03  0.11321796580E+04  0.91047753415E+02 0.  0.
          4    1    3    3  502    0  0.14726106350E+03  0.30666181150E+03  0.37371377905E+03  0.50536054072E+03  0.00000000000E+00 0. -1.
         -3    1    3    3    0  502  0.32204453395E+03  0.65837527025E+03  0.64095190026E+03  0.97364778887E+03  0.00000000000E+00 0.  1.
         11    1    5    5    0    0 -0.15632819653E+01 -0.25098843571E+02 -0.25923066287E+02  0.36116494360E+02  0.00000000000E+00 0. -1.
        -11    1    5    5    0    0  0.10682902121E+03  0.25632047989E+02 -0.25089428642E+03  0.27389301673E+03  0.00000000000E+00 0.  1.
          3    1    6    6  503    0 -0.23715346491E+03 -0.48445135565E+03 -0.62201554356E+02  0.54295848393E+03  0.00000000000E+00 0. -1.
         -3    1    6    6    0  503 -0.33741787179E+03 -0.48111893053E+03 -0.43073732817E+02  0.58922117407E+03  0.00000000000E+00 0.  1.
<mgrwt>
<rscale>  0 0.28518847E+04</rscale>
<asrwt>0</asrwt>
<pdfrwt beam="1">  1        2 0.27336696E+00 0.28518847E+04</pdfrwt>
<pdfrwt beam="2">  1       -1 0.17604804E+00 0.28518847E+04</pdfrwt>
<totfact> 0.19479911E+00</totfact>
</mgrwt>
</event>
<event>
12    6  0.1538774E-007  0.1380068E+04  0.7818608E-02  0.8968374E-01
          2   -1    0    0  501    0  0.00000000000E+00  0.00000000000E+00  0.23279273776E+04  0.23279273776E+04  0.00000000000E+00 0. -1.
         -1   -1    0    0    0  501 -0.00000000000E+00 -0.00000000000E+00 -0.20453697432E+03  0.20453697432E+03  0.00000000000E+00 0.  1.
         24    2    1    2    0    0 -0.25606090179E+03  0.24051764301E+03  0.97690216828E+03  0.10409501388E+04  0.76311355662E+02 0.  0.
        254    2    1    2    0    0  0.25606090179E+03 -0.24051764301E+03  0.11464882350E+04  0.14915142131E+04  0.88699687317E+03 0.  0.
         23    2    4    4    0    0 -0.15952156262E+03 -0.10341158082E+03  0.99862185948E+03  0.10205448432E+04  0.90139196997E+02 0.  0.
         23    2    4    4    0    0  0.41558246441E+03 -0.13710606219E+03  0.14786637550E+03  0.47096936990E+03  0.91873964541E+02 0.  0.
          4    1    3    3  502    0 -0.22422199312E+03  0.22888814962E+03  0.92533939847E+03  0.97924373350E+03  0.00000000000E+00 0. -1.
         -3    1    3    3    0  502 -0.31838908669E+02  0.11629493392E+02  0.51562769809E+02  0.61706405277E+02  0.00000000000E+00 0.  1.
         11    1    5    5    0    0  0.47095978197E+01 -0.17709274506E+02  0.37554382819E+02  0.41786724974E+02  0.00000000000E+00 0. -1.
        -11    1    5    5    0    0 -0.16423116044E+03 -0.85702306315E+02  0.96106747666E+03  0.97875811826E+03  0.00000000000E+00 0.  1.
          4    1    6    6  503    0  0.28614714265E+03 -0.50321126526E+02  0.10942405950E+03  0.31046099243E+03  0.00000000000E+00 0. -1.
         -4    1    6    6    0  503  0.12943532176E+03 -0.86784935667E+02  0.38442315996E+02  0.16050837747E+03  0.00000000000E+00 0.  1.
<mgrwt>
<rscale>  0 0.13800684E+04</rscale>
<asrwt>0</asrwt>
<pdfrwt beam="1">  1        2 0.35814265E+00 0.13800684E+04</pdfrwt>
<pdfrwt beam="2">  1       -1 0.31467228E-01 0.13800684E+04</pdfrwt>
<totfact> 0.45627345E+01</totfact>
</mgrwt>
</event>
<event>
12    6  0.1538774E-007  0.1770717E+04  0.7818608E-02  0.8722029E-01
          2   -1    0    0  501    0  0.00000000000E+00  0.00000000000E+00  0.17647442283E+04  0.17647442283E+04  0.00000000000E+00 0. -1.
         -1   -1    0    0    0  501 -0.00000000000E+00 -0.00000000000E+00 -0.44417760340E+03  0.44417760340E+03  0.00000000000E+00 0.  1.
         24    2    1    2    0    0  0.54979685436E+03  0.32632899901E+03  0.35754903871E+03  0.73673098209E+03  0.78511325497E+02 0.  0.
        254    2    1    2    0    0 -0.54979685436E+03 -0.32632899901E+03  0.96301758624E+03  0.14721908497E+04  0.91168844994E+03 0.  0.
         23    2    4    4    0    0 -0.12208001943E+03 -0.57621859314E+03  0.63599222435E+03  0.87160408346E+03  0.90973461208E+02 0.  0.
         23    2    4    4    0    0 -0.42771683493E+03  0.24988959412E+03  0.32702536189E+03  0.60058676620E+03  0.91500690053E+02 0.  0.
          2    1    3    3  502    0  0.39166538064E+03  0.25268547000E+03  0.22454447184E+03  0.51737021268E+03  0.00000000000E+00 0. -1.
         -1    1    3    3    0  502  0.15813147373E+03  0.73643529013E+02  0.13300456687E+03  0.21936076941E+03  0.00000000000E+00 0.  1.
         11    1    5    5    0    0 -0.13424989677E+03 -0.46652042262E+03  0.52613246603E+03  0.71587688279E+03  0.00000000000E+00 0. -1.
        -11    1    5    5    0    0  0.12169877338E+02 -0.10969817051E+03  0.10985975832E+03  0.15572720066E+03  0.00000000000E+00 0.  1.
          4    1    6    6  503    0 -0.19943083819E+03  0.14210749245E+03  0.20884152764E+03  0.32184154844E+03  0.00000000000E+00 0. -1.
         -4    1    6    6    0  503 -0.22828599674E+03  0.10778210167E+03  0.11818383425E+03  0.27874521776E+03  0.00000000000E+00 0.  1.
<mgrwt>
<rscale>  0 0.17707172E+04</rscale>
<asrwt>0</asrwt>
<pdfrwt beam="1">  1        2 0.27149911E+00 0.17707172E+04</pdfrwt>
<pdfrwt beam="2">  1       -1 0.68335017E-01 0.17707172E+04</pdfrwt>
<totfact> 0.21088992E+01</totfact>
</mgrwt>
</event>
<event>
12    6  0.1538774E-007  0.1132247E+04  0.7818608E-02  0.9174320E-01
          2   -1    0    0  501    0  0.00000000000E+00  0.00000000000E+00  0.12732807902E+04  0.12732807902E+04  0.00000000000E+00 0. -1.
         -1   -1    0    0    0  501 -0.00000000000E+00 -0.00000000000E+00 -0.25170845817E+03  0.25170845817E+03  0.00000000000E+00 0.  1.
         24    2    1    2    0    0  0.17667939322E+03  0.38178741204E+02  0.13674835524E+03  0.25189843679E+03  0.10990671285E+03 0.  0.
        254    2    1    2    0    0 -0.17667939322E+03 -0.38178741204E+02  0.88482397683E+03  0.12730908116E+04  0.89731461617E+03 0.  0.
         23    2    4    4    0    0  0.35140961004E+03 -0.89916174190E+02  0.31525071565E+03  0.48928651941E+03  0.91894787383E+02 0.  0.
         23    2    4    4    0    0 -0.52808900326E+03  0.51737432986E+02  0.56957326118E+03  0.78380429221E+03  0.91546224947E+02 0.  0.
          4    1    3    3  502    0  0.14016918861E+03 -0.38061466405E+01  0.13731227033E+03  0.19625633180E+03  0.00000000000E+00 0. -1.
         -3    1    3    3    0  502  0.36510204606E+02  0.41984887844E+02 -0.56391509303E+00  0.55642104992E+02  0.00000000000E+00 0.  1.
         11    1    5    5    0    0  0.29273872004E+03 -0.68147354004E+02  0.30044634931E+03  0.42498003351E+03  0.00000000000E+00 0.  1.
        -11    1    5    5    0    0  0.58670889998E+02 -0.21768820185E+02  0.14804366334E+02  0.64306485893E+02  0.00000000000E+00 0. -1.
          1    1    6    6  503    0 -0.16564912925E+03  0.47623535019E+02  0.14239115680E+03  0.22356850548E+03  0.00000000000E+00 0. -1.
         -1    1    6    6    0  503 -0.36243987401E+03  0.41138979665E+01  0.42718210438E+03  0.56023578673E+03  0.00000000000E+00 0.  1.
<mgrwt>
<rscale>  0 0.11322465E+04</rscale>
<asrwt>0</asrwt>
<pdfrwt beam="1">  1        2 0.19588935E+00 0.11322465E+04</pdfrwt>
<pdfrwt beam="2">  1       -1 0.38724379E-01 0.11322465E+04</pdfrwt>
<totfact> 0.12499655E+02</totfact>
</mgrwt>
</event>
<event>
12    6  0.1538774E-007  0.2023663E+04  0.7818608E-02  0.8595637E-01
         -1   -1    0    0    0  501 -0.00000000000E+00  0.00000000000E+00  0.58148638663E+03  0.58148638663E+03  0.00000000000E+00 0.  1.
          2   -1    0    0  501    0  0.00000000000E+00 -0.00000000000E+00 -0.17606660261E+04  0.17606660261E+04  0.00000000000E+00 0. -1.
         24    2    1    2    0    0  0.65770374716E+03  0.37229706543E+03 -0.80190818005E+03  0.11047924803E+04  0.79563630280E+02 0.  0.
        254    2    1    2    0    0 -0.65770374716E+03 -0.37229706543E+03 -0.37727145937E+03  0.12373599324E+04  0.90418279367E+03 0.  0.
         23    2    4    4    0    0 -0.37792722773E+02 -0.45650591379E+03 -0.38484435668E+03  0.60521094473E+03  0.91373790169E+02 0.  0.
         23    2    4    4    0    0 -0.61991102438E+03  0.84208848363E+02  0.75728973115E+01  0.63214898769E+03  0.90411202702E+02 0.  0.
          4    1    3    3  502    0  0.61189649779E+03  0.32651724682E+03 -0.75222495936E+03  0.10231682296E+04  0.00000000000E+00 0. -1.
         -3    1    3    3    0  502  0.45807249365E+02  0.45779818602E+02 -0.49683220692E+02  0.81624250709E+02  0.00000000000E+00 0.  1.
         11    1    5    5    0    0 -0.83890340243E+01 -0.42035848921E+03 -0.34366193744E+03  0.54302409025E+03  0.00000000000E+00 0.  1.
        -11    1    5    5    0    0 -0.29403688749E+02 -0.36147424579E+02 -0.41182419240E+02  0.62186854480E+02  0.00000000000E+00 0. -1.
          1    1    6    6  503    0 -0.74381547625E+02  0.38713209752E+02 -0.99768876401E+01  0.84444452295E+02  0.00000000000E+00 0. -1.
         -1    1    6    6    0  503 -0.54552947676E+03  0.45495638611E+02  0.17549784952E+02  0.54770453540E+03  0.00000000000E+00 0.  1.
<mgrwt>
<rscale>  0 0.20236633E+04</rscale>
<asrwt>0</asrwt>
<pdfrwt beam="1">  1        2 0.27087170E+00 0.20236633E+04</pdfrwt>
<pdfrwt beam="2">  1       -1 0.89459443E-01 0.20236633E+04</pdfrwt>
<totfact> 0.11729251E+01</totfact>
</mgrwt>
</event>
<event>
12    6  0.1538774E-007  0.2032974E+04  0.7818608E-02  0.8591358E-01
         -1   -1    0    0    0  501 -0.00000000000E+00  0.00000000000E+00  0.18659608834E+04  0.18659608834E+04  0.00000000000E+00 0.  1.
          2   -1    0    0  501    0  0.00000000000E+00 -0.00000000000E+00 -0.55373378115E+03  0.55373378115E+03  0.00000000000E+00 0. -1.
         24    2    1    2    0    0 -0.26000128224E+03  0.58254944281E+03  0.11272545643E+04  0.12975968787E+04  0.78040289311E+02 0.  0.
        254    2    1    2    0    0  0.26000128224E+03 -0.58254944281E+03  0.18497253789E+03  0.11220977858E+04  0.90439155297E+03 0.  0.
         23    2    4    4    0    0  0.86217736247E+02  0.10181991120E+03  0.35566599186E+03  0.39007233668E+03  0.88641625191E+02 0.  0.
         23    2    4    4    0    0  0.17378354600E+03 -0.68436935401E+03 -0.17069345397E+03  0.73202544914E+03  0.90348599280E+02 0.  0.
          4    1    3    3  502    0 -0.12729082676E+03  0.29778419145E+03  0.65014279195E+03  0.72633603048E+03  0.00000000000E+00 0. -1.
         -3    1    3    3    0  502 -0.13271045548E+03  0.28476525135E+03  0.47711177240E+03  0.57126084824E+03  0.00000000000E+00 0.  1.
         11    1    5    5    0    0  0.92501841506E+02  0.71689842726E+02  0.20285552946E+03  0.23419306152E+03  0.00000000000E+00 0.  1.
        -11    1    5    5    0    0 -0.62841052585E+01  0.30130068476E+02  0.15281046240E+03  0.15587927516E+03  0.00000000000E+00 0. -1.
          3    1    6    6  503    0  0.17682568614E+03 -0.56025738655E+03 -0.13434065028E+03  0.60266331628E+03  0.00000000000E+00 0. -1.
         -3    1    6    6    0  503 -0.30421401466E+01 -0.12411196746E+03 -0.36352803691E+02  0.12936213286E+03  0.00000000000E+00 0.  1.
<mgrwt>
<rscale>  0 0.20329738E+04</rscale>
<asrwt>0</asrwt>
<pdfrwt beam="1">  1        2 0.85189813E-01 0.20329738E+04</pdfrwt>
<pdfrwt beam="2">  1       -1 0.28707090E+00 0.20329738E+04</pdfrwt>
<totfact> 0.23156823E+00</totfact>
</mgrwt>
</event>
<event>
12    6  0.1538774E-007  0.1251344E+04  0.7818608E-02  0.9069065E-01
         -1   -1    0    0    0  501 -0.00000000000E+00  0.00000000000E+00  0.32109111688E+03  0.32109111688E+03  0.00000000000E+00 0.  1.
          2   -1    0    0  501    0  0.00000000000E+00 -0.00000000000E+00 -0.12191733693E+04  0.12191733693E+04  0.00000000000E+00 0. -1.
         24    2    1    2    0    0  0.26668748405E+03 -0.99063336565E+02 -0.30230456250E+03  0.42275138268E+03  0.79968270218E+02 0.  0.
        254    2    1    2    0    0 -0.26668748405E+03  0.99063336565E+02 -0.59577768993E+03  0.11175131035E+04  0.90163669065E+03 0.  0.
         23    2    4    4    0    0 -0.26670242477E+03  0.99483771890E+02  0.17263426537E+03  0.34380520763E+03  0.85861673448E+02 0.  0.
         23    2    4    4    0    0  0.14940712586E-01 -0.42043532422E+00 -0.76841195530E+03  0.77370789589E+03  0.90370338727E+02 0.  0.
          2    1    3    3  502    0  0.92018387666E+02 -0.64567701871E+02 -0.80170746951E+02  0.13807143246E+03  0.00000000000E+00 0. -1.
         -3    1    3    3    0  502  0.17466909639E+03 -0.34495634694E+02 -0.22213381555E+03  0.28467995022E+03  0.00000000000E+00 0.  1.
         11    1    5    5    0    0 -0.48804000911E+02 -0.94223835842E+01  0.52135652163E+02  0.72032895567E+02  0.00000000000E+00 0.  1.
        -11    1    5    5    0    0 -0.21789842386E+03  0.10890615547E+03  0.12049861321E+03  0.27177231206E+03  0.00000000000E+00 0. -1.
          1    1    6    6  503    0 -0.24281317448E+02 -0.16635457516E+02 -0.67916195170E+03  0.67979943914E+03  0.00000000000E+00 0. -1.
         -1    1    6    6    0  503  0.24296258161E+02  0.16215022192E+02 -0.89250003600E+02  0.93908456743E+02  0.00000000000E+00 0.  1.
<mgrwt>
<rscale>  0 0.12513445E+04</rscale>
<asrwt>0</asrwt>
<pdfrwt beam="1">  1        2 0.18756513E+00 0.12513445E+04</pdfrwt>
<pdfrwt beam="2">  1       -1 0.49398634E-01 0.12513445E+04</pdfrwt>
<totfact> 0.84926825E+01</totfact>
</mgrwt>
</event>
<event>
12    6  0.1538774E-007  0.1902439E+04  0.7818608E-02  0.8653643E-01
          2   -1    0    0  501    0  0.00000000000E+00  0.00000000000E+00  0.19431134495E+04  0.19431134495E+04  0.00000000000E+00 0. -1.
         -1   -1    0    0    0  501 -0.00000000000E+00 -0.00000000000E+00 -0.46565378558E+03  0.46565378558E+03  0.00000000000E+00 0.  1.
         24    2    1    2    0    0  0.78635293433E+02  0.25396157343E+03 -0.29613132219E+03  0.40722514745E+03  0.86363016274E+02 0.  0.
        254    2    1    2    0    0 -0.78635293433E+02 -0.25396157343E+03  0.17735909861E+04  0.20015420877E+04  0.88874391835E+03 0.  0.
         23    2    4    4    0    0 -0.42063646838E+03 -0.15580787325E+03  0.14185731195E+04  0.14907084202E+04  0.93009497138E+02 0.  0.
         23    2    4    4    0    0  0.34200117495E+03 -0.98153700178E+02  0.35501786659E+03  0.51083366749E+03  0.91183319324E+02 0.  0.
          4    1    3    3  502    0  0.18179639901E+02  0.12928289088E+03 -0.19902123300E+03  0.23802104186E+03  0.00000000000E+00 0. -1.
         -1    1    3    3    0  502  0.60455653533E+02  0.12467868255E+03 -0.97110089189E+02  0.16920410559E+03  0.00000000000E+00 0.  1.
         11    1    5    5    0    0 -0.18365966656E+03 -0.10229491284E+03  0.55032492600E+03  0.58911174364E+03  0.00000000000E+00 0.  1.
        -11    1    5    5    0    0 -0.23697680182E+03 -0.53512960410E+02  0.86824819354E+03  0.90159667652E+03  0.00000000000E+00 0. -1.
          1    1    6    6  503    0  0.30658314508E+03 -0.64560135141E+02  0.33319500959E+03  0.45736216537E+03  0.00000000000E+00 0. -1.
         -1    1    6    6    0  503  0.35418029861E+02 -0.33593565037E+02  0.21822856996E+02  0.53471502117E+02  0.00000000000E+00 0.  1.
<mgrwt>
<rscale>  0 0.19024386E+04</rscale>
<asrwt>0</asrwt>
<pdfrwt beam="1">  1        2 0.29894053E+00 0.19024386E+04</pdfrwt>
<pdfrwt beam="2">  1       -1 0.71639045E-01 0.19024386E+04</pdfrwt>
<totfact> 0.15071415E+01</totfact>
</mgrwt>
</event>
<event>
12    6  0.1538774E-007  0.1869429E+04  0.7818608E-02  0.8670225E-01
         -1   -1    0    0    0  501 -0.00000000000E+00  0.00000000000E+00  0.33916389952E+03  0.33916389952E+03  0.00000000000E+00 0.  1.
          2   -1    0    0  501    0  0.00000000000E+00 -0.00000000000E+00 -0.25760135675E+04  0.25760135675E+04  0.00000000000E+00 0. -1.
         24    2    1    2    0    0 -0.53739599070E+03  0.29212915988E+03 -0.14351350624E+04  0.15621409414E+04  0.80856517302E+02 0.  0.
        254    2    1    2    0    0  0.53739599070E+03 -0.29212915988E+03 -0.80171460557E+03  0.13530365257E+04  0.90212395721E+03 0.  0.
         23    2    4    4    0    0  0.48153450516E+03 -0.47415012590E+03 -0.19265384431E+03  0.70873579151E+03  0.92179698858E+02 0.  0.
         23    2    4    4    0    0  0.55861485540E+02  0.18202096602E+03 -0.60906076126E+03  0.64430073418E+03  0.88973521454E+02 0.  0.
          2    1    3    3  502    0 -0.53440575347E+03  0.27816141108E+03 -0.13948276811E+04  0.15193773527E+04  0.00000000000E+00 0. -1.
         -1    1    3    3    0  502 -0.29902372375E+01  0.13967748796E+02 -0.40307381313E+02  0.42763588641E+02  0.00000000000E+00 0.  1.
         11    1    5    5    0    0  0.21504220223E+03 -0.25156419364E+03 -0.13176670541E+03  0.35621644672E+03  0.00000000000E+00 0. -1.
        -11    1    5    5    0    0  0.26649230294E+03 -0.22258593226E+03 -0.60887138901E+02  0.35251934478E+03  0.00000000000E+00 0.  1.
          3    1    6    6  503    0  0.30010403087E+02  0.51813217522E+02 -0.86910414340E+02  0.10553982151E+03  0.00000000000E+00 0. -1.
         -3    1    6    6    0  503  0.25851082454E+02  0.13020774850E+03 -0.52215034692E+03  0.53876091267E+03  0.00000000000E+00 0.  1.
<mgrwt>
<rscale>  0 0.18694286E+04</rscale>
<asrwt>0</asrwt>
<pdfrwt beam="1">  1        2 0.39630980E+00 0.18694286E+04</pdfrwt>
<pdfrwt beam="2">  1       -1 0.52179059E-01 0.18694286E+04</pdfrwt>
<totfact> 0.12443465E+01</totfact>
</mgrwt>
</event>
<event>
12    6  0.1538774E-007  0.1673511E+04  0.7818608E-02  0.8776618E-01
         -1   -1    0    0    0  501 -0.00000000000E+00  0.00000000000E+00  0.17023045203E+04  0.17023045203E+04  0.00000000000E+00 0.  1.
          2   -1    0    0  501    0  0.00000000000E+00 -0.00000000000E+00 -0.41130101992E+03  0.41130101992E+03  0.00000000000E+00 0. -1.
         24    2    1    2    0    0  0.52719110008E+02 -0.21302065414E+02 -0.28827706992E+03  0.30448859538E+03  0.79853322568E+02 0.  0.
        254    2    1    2    0    0 -0.52719110008E+02  0.21302065414E+02  0.15792805703E+04  0.18091169448E+04  0.88064971343E+03 0.  0.
         23    2    4    4    0    0  0.37797998802E+03 -0.11945108287E+03  0.89487905909E+03  0.98292433447E+03  0.90522286452E+02 0.  0.
         23    2    4    4    0    0 -0.43069909803E+03  0.14075314828E+03  0.68440151118E+03  0.82619261033E+03  0.94210610123E+02 0.  0.
          2    1    3    3  502    0  0.73188281411E+02 -0.19398733122E+02 -0.24750231420E+03  0.25882471079E+03  0.00000000000E+00 0. -1.
         -1    1    3    3    0  502 -0.20469171403E+02 -0.19033322917E+01 -0.40774755718E+02  0.45663884588E+02  0.00000000000E+00 0.  1.
         11    1    5    5    0    0  0.20642365247E+03 -0.23730916220E+02  0.40683152937E+03  0.45682138082E+03  0.00000000000E+00 0.  1.
        -11    1    5    5    0    0  0.17155633556E+03 -0.95720166651E+02  0.48804752972E+03  0.52610295365E+03  0.00000000000E+00 0. -1.
          2    1    6    6  503    0 -0.37594860803E+03  0.88330955056E+02  0.58951513860E+03  0.70474662974E+03  0.00000000000E+00 0.  1.
         -2    1    6    6    0  503 -0.54750490007E+02  0.52422193229E+02  0.94886372577E+02  0.12144598058E+03  0.00000000000E+00 0. -1.
<mgrwt>
<rscale>  0 0.16735108E+04</rscale>
<asrwt>0</asrwt>
<pdfrwt beam="1">  1        2 0.63277081E-01 0.16735108E+04</pdfrwt>
<pdfrwt beam="2">  1       -1 0.26189300E+00 0.16735108E+04</pdfrwt>
<totfact> 0.49030235E+00</totfact>
</mgrwt>
</event>
<event>
12    6  0.1538774E-007  0.1339674E+04  0.7818608E-02  0.8998682E-01
         -1   -1    0    0    0  501 -0.00000000000E+00  0.00000000000E+00  0.57212665594E+03  0.57212665594E+03  0.00000000000E+00 0.  1.
          2   -1    0    0  501    0  0.00000000000E+00 -0.00000000000E+00 -0.78423449858E+03  0.78423449858E+03  0.00000000000E+00 0. -1.
         24    2    1    2    0    0 -0.56356114690E+02  0.18033349449E+03 -0.41636730365E+03  0.46449633511E+03  0.81847009035E+02 0.  0.
        254    2    1    2    0    0  0.56356114690E+02 -0.18033349449E+03  0.20425946101E+03  0.89186481941E+03  0.84735160812E+03 0.  0.
         23    2    4    4    0    0 -0.29482274312E+03  0.17579786822E+03  0.84097848018E+02  0.36758638371E+03  0.10110371466E+03 0.  0.
         23    2    4    4    0    0  0.35117885781E+03 -0.35613136270E+03  0.12016161299E+03  0.52427843570E+03  0.10135544991E+03 0.  0.
          2    1    3    3  502    0 -0.19129455910E+02  0.16087284511E+03 -0.35390109373E+03  0.38921972268E+03  0.00000000000E+00 0. -1.
         -1    1    3    3    0  502 -0.37226658780E+02  0.19460649377E+02 -0.62466209914E+02  0.75276612431E+02  0.00000000000E+00 0.  1.
         11    1    5    5    0    0 -0.29770573524E+03  0.15493023509E+03  0.85952948651E+02  0.34643901616E+03  0.00000000000E+00 0. -1.
        -11    1    5    5    0    0  0.28829921185E+01  0.20867633125E+02 -0.18551006336E+01  0.21147367547E+02  0.00000000000E+00 0.  1.
          4    1    6    6  503    0  0.35510678703E+03 -0.35277982159E+03  0.12631467456E+03  0.51624590045E+03  0.00000000000E+00 0. -1.
         -4    1    6    6    0  503 -0.39279292229E+01 -0.33515411137E+01 -0.61530615727E+01  0.80325352494E+01  0.00000000000E+00 0.  1.
<mgrwt>
<rscale>  0 0.13396738E+04</rscale>
<asrwt>0</asrwt>
<pdfrwt beam="1">  1        2 0.12065146E+00 0.13396738E+04</pdfrwt>
<pdfrwt beam="2">  1       -1 0.88019486E-01 0.13396738E+04</pdfrwt>
<totfact> 0.50100017E+01</totfact>
</mgrwt>
</event>
<event>
12    6  0.1538774E-007  0.1189808E+04  0.7818608E-02  0.9121824E-01
         -1   -1    0    0    0  501 -0.00000000000E+00  0.00000000000E+00  0.47416902077E+03  0.47416902077E+03  0.00000000000E+00 0.  1.
          2   -1    0    0  501    0  0.00000000000E+00 -0.00000000000E+00 -0.74638158373E+03  0.74638158373E+03  0.00000000000E+00 0. -1.
         24    2    1    2    0    0 -0.12144590068E+03  0.47881449947E+02 -0.23994430602E+03  0.28429663759E+03  0.78800812883E+02 0.  0.
        254    2    1    2    0    0  0.12144590068E+03 -0.47881449947E+02 -0.32268256943E+02  0.93625396691E+03  0.92654655042E+03 0.  0.
         23    2    4    4    0    0 -0.25295345262E+02  0.32467797113E+03 -0.29516390779E+03  0.44870303677E+03  0.90316351307E+02 0.  0.
         23    2    4    4    0    0  0.14674124594E+03 -0.37255942108E+03  0.26289565085E+03  0.48755093013E+03  0.90875028157E+02 0.  0.
          4    1    3    3  502    0 -0.12112887550E+03  0.62194195448E+02 -0.22839157467E+03  0.26590042084E+03  0.00000000000E+00 0. -1.
         -3    1    3    3    0  502 -0.31702518257E+00 -0.14312745501E+02 -0.11552731355E+02  0.18396216744E+02  0.00000000000E+00 0.  1.
         11    1    5    5    0    0  0.20197202283E+02  0.34695544151E+02 -0.14784521934E+02  0.42781886971E+02  0.00000000000E+00 0.  1.
        -11    1    5    5    0    0 -0.45492547545E+02  0.28998242698E+03 -0.28037938586E+03  0.40592114980E+03  0.00000000000E+00 0. -1.
          4    1    6    6  503    0  0.13820757783E+03 -0.28355714433E+03  0.23671716218E+03  0.39438687039E+03  0.00000000000E+00 0. -1.
         -4    1    6    6    0  503  0.85336681136E+01 -0.89002276751E+02  0.26178488675E+02  0.93164059743E+02  0.00000000000E+00 0.  1.
<mgrwt>
<rscale>  0 0.11898084E+04</rscale>
<asrwt>0</asrwt>
<pdfrwt beam="1">  1        2 0.11482794E+00 0.11898084E+04</pdfrwt>
<pdfrwt beam="2">  1       -1 0.72949080E-01 0.11898084E+04</pdfrwt>
<totfact> 0.80635268E+01</totfact>
</mgrwt>
</event>
<event>
12    6  0.4161545E-007  0.2541931E+04  0.7818608E-02  0.8388198E-01
          2   -1    0    0  501    0  0.00000000000E+00  0.00000000000E+00  0.11347216355E+04  0.11347216355E+04  0.00000000000E+00 0. -1.
         -1   -1    0    0    0  501 -0.00000000000E+00 -0.00000000000E+00 -0.14235677596E+04  0.14235677596E+04  0.00000000000E+00 0.  1.
         24    2    1    2    0    0 -0.55375118480E+03 -0.61721618945E+03 -0.86309969515E+03  0.12012667285E+04  0.10249131674E+03 0.  0.
        254    2    1    2    0    0  0.55375118480E+03  0.61721618945E+03  0.57425357107E+03  0.13570226666E+04  0.90782550891E+03 0.  0.
         23    2    4    4    0    0  0.33689034562E+03 -0.53611984475E+02 -0.11057076781E+03  0.36984638207E+03  0.90504705855E+02 0.  0.
         23    2    4    4    0    0  0.21686083918E+03  0.67082817392E+03  0.68482433887E+03  0.98717628454E+03  0.92160616104E+02 0.  0.
          2    1    3    3  502    0  0.17159887411E+01  0.80689690702E+00 -0.10654034089E+02  0.10821466737E+02  0.00000000000E+00 0. -1.
         -1    1    3    3    0  502 -0.55546717354E+03 -0.61802308635E+03 -0.85244566106E+03  0.11904452617E+04  0.00000000000E+00 0.  1.
         11    1    5    5    0    0  0.80385623874E+01  0.14827814259E+02 -0.29045530308E+01  0.17114876256E+02  0.00000000000E+00 0. -1.
        -11    1    5    5    0    0  0.32885178323E+03 -0.68439798734E+02 -0.10766621478E+03  0.35273150581E+03  0.00000000000E+00 0.  1.
          1    1    6    6  503    0  0.51014091792E+02  0.73673014909E+02  0.11001286127E+03  0.14189073378E+03  0.00000000000E+00 0. -1.
         -1    1    6    6    0  503  0.16584674739E+03  0.59715515901E+03  0.57481147761E+03  0.84528555077E+03  0.00000000000E+00 0.  1.
<mgrwt>
<rscale>  0 0.25419309E+04</rscale>
<asrwt>0</asrwt>
<pdfrwt beam="1">  1        2 0.17457256E+00 0.25419309E+04</pdfrwt>
<pdfrwt beam="2">  1       -1 0.21901042E+00 0.25419309E+04</pdfrwt>
<totfact> 0.23480375E+00</totfact>
</mgrwt>
</event>
<event>
12    6  0.1538774E-007  0.1416228E+04  0.7818608E-02  0.8942155E-01
          2   -1    0    0  501    0  0.00000000000E+00  0.00000000000E+00  0.18251089304E+04  0.18251089304E+04  0.00000000000E+00 0. -1.
         -1   -1    0    0    0  501 -0.00000000000E+00 -0.00000000000E+00 -0.27473713793E+03  0.27473713793E+03  0.00000000000E+00 0.  1.
         24    2    1    2    0    0 -0.13355461459E+03 -0.20087195253E+03  0.96704981796E+03  0.99997210527E+03  0.81070861067E+02 0.  0.
        254    2    1    2    0    0  0.13355461459E+03  0.20087195253E+03  0.58332197452E+03  0.10998739631E+04  0.90070629635E+03 0.  0.
         23    2    4    4    0    0  0.50315103785E+03  0.71730651978E+02  0.41314325769E+03  0.66173545915E+03  0.94340941302E+02 0.  0.
         23    2    4    4    0    0 -0.36959642326E+03  0.12914130055E+03  0.17017871683E+03  0.43813850391E+03  0.98618260763E+02 0.  0.
          4    1    3    3  502    0 -0.13290287565E+03 -0.18965206525E+03  0.95785032578E+03  0.98544828723E+03  0.00000000000E+00 0. -1.
         -3    1    3    3    0  502 -0.65173894271E+00 -0.11219887278E+02  0.91994921866E+01  0.14523818047E+02  0.00000000000E+00 0.  1.
         11    1    5    5    0    0  0.53687749850E+01 -0.74598408534E+01  0.21633537246E+02  0.23504954886E+02  0.00000000000E+00 0.  1.
        -11    1    5    5    0    0  0.49778226286E+03  0.79190492831E+02  0.39150972045E+03  0.63823050427E+03  0.00000000000E+00 0. -1.
          1    1    6    6  503    0 -0.20066693194E+03  0.55037429460E+02  0.14106351817E+03  0.25138665911E+03  0.00000000000E+00 0. -1.
         -1    1    6    6    0  503 -0.16892949131E+03  0.74103871092E+02  0.29115198662E+02  0.18675184481E+03  0.00000000000E+00 0.  1.
<mgrwt>
<rscale>  0 0.14162277E+04</rscale>
<asrwt>0</asrwt>
<pdfrwt beam="1">  1        2 0.28078598E+00 0.14162277E+04</pdfrwt>
<pdfrwt beam="2">  1       -1 0.42267253E-01 0.14162277E+04</pdfrwt>
<totfact> 0.50931067E+01</totfact>
</mgrwt>
</event>
<event>
12    6  0.1538774E-007  0.1972163E+04  0.7818608E-02  0.8619747E-01
         -1   -1    0    0    0  501 -0.00000000000E+00  0.00000000000E+00  0.10712563913E+04  0.10712563913E+04  0.00000000000E+00 0.  1.
          2   -1    0    0  501    0  0.00000000000E+00 -0.00000000000E+00 -0.90767837794E+03  0.90767837794E+03  0.00000000000E+00 0. -1.
         24    2    1    2    0    0 -0.41370977247E+03  0.32310010271E+03 -0.51584647948E+03  0.74037150387E+03  0.80640691628E+02 0.  0.
        254    2    1    2    0    0  0.41370977247E+03 -0.32310010271E+03  0.67942449284E+03  0.12385632654E+04  0.89267679964E+03 0.  0.
         23    2    4    4    0    0  0.43592687520E+03  0.20826541734E+03  0.26260467853E+03  0.55664638491E+03  0.86528931966E+02 0.  0.
         23    2    4    4    0    0 -0.22217102731E+02 -0.53136552005E+03  0.41681981431E+03  0.68191688045E+03  0.91809360540E+02 0.  0.
          2    1    3    3  502    0 -0.24780630460E+03  0.21381594700E+03 -0.36956043924E+03  0.49365994575E+03  0.00000000000E+00 0. -1.
         -1    1    3    3    0  502 -0.16590346787E+03  0.10928415571E+03 -0.14628604025E+03  0.24671155812E+03  0.00000000000E+00 0.  1.
         11    1    5    5    0    0  0.83132671012E+02  0.55036889352E+01  0.34627008610E+02  0.90223950849E+02  0.00000000000E+00 0. -1.
        -11    1    5    5    0    0  0.35279420419E+03  0.20276172841E+03  0.22797766992E+03  0.46642243406E+03  0.00000000000E+00 0.  1.
          1    1    6    6  503    0 -0.50687271134E+02 -0.18591328893E+03  0.13685452725E+03  0.23635167037E+03  0.00000000000E+00 0. -1.
         -1    1    6    6    0  503  0.28470168403E+02 -0.34545223112E+03  0.27996528706E+03  0.44556521008E+03  0.00000000000E+00 0.  1.
<mgrwt>
<rscale>  0 0.19721625E+04</rscale>
<asrwt>0</asrwt>
<pdfrwt beam="1">  1        2 0.13964283E+00 0.19721625E+04</pdfrwt>
<pdfrwt beam="2">  1       -1 0.16480868E+00 0.19721625E+04</pdfrwt>
<totfact> 0.82763725E+00</totfact>
</mgrwt>
</event>
<event>
12    6  0.1538774E-007  0.3147087E+04  0.7818608E-02  0.8202933E-01
          2   -1    0    0  501    0  0.00000000000E+00  0.00000000000E+00  0.15387483616E+04  0.15387483616E+04  0.00000000000E+00 0. -1.
         -1   -1    0    0    0  501 -0.00000000000E+00 -0.00000000000E+00 -0.16091253741E+04  0.16091253741E+04  0.00000000000E+00 0.  1.
         24    2    1    2    0    0 -0.12488281689E+02 -0.14258353285E+04 -0.26521337075E+03  0.14525681928E+04  0.80336052685E+02 0.  0.
        254    2    1    2    0    0  0.12488281689E+02  0.14258353285E+04  0.19483635819E+03  0.16953055429E+04  0.89606770738E+03 0.  0.
         23    2    4    4    0    0  0.22145484138E+03  0.10218735823E+04  0.47651037704E+03  0.11526527923E+04  0.90986016675E+02 0.  0.
         23    2    4    4    0    0 -0.20896655969E+03  0.40396174628E+03 -0.28167401885E+03  0.54265275067E+03  0.90992523862E+02 0.  0.
          2    1    3    3  502    0 -0.13266972968E+02 -0.27160284178E+03 -0.80949829555E+02  0.28371991671E+03  0.00000000000E+00 0. -1.
         -1    1    3    3    0  502  0.77869127931E+00 -0.11542324868E+04 -0.18426354119E+03  0.11688482761E+04  0.00000000000E+00 0.  1.
         11    1    5    5    0    0  0.11996614394E+03  0.70631833568E+03  0.29556627095E+03  0.77500766934E+03  0.00000000000E+00 0. -1.
        -11    1    5    5    0    0  0.10148869744E+03  0.31555524657E+03  0.18094410609E+03  0.37764512293E+03  0.00000000000E+00 0.  1.
          1    1    6    6  503    0 -0.26223642462E+02  0.97478123089E+02 -0.10058343516E+03  0.14250154853E+03  0.00000000000E+00 0. -1.
         -1    1    6    6    0  503 -0.18274291723E+03  0.30648362319E+03 -0.18109058369E+03  0.40015120215E+03  0.00000000000E+00 0.  1.
<mgrwt>
<rscale>  0 0.31470869E+04</rscale>
<asrwt>0</asrwt>
<pdfrwt beam="1">  1        2 0.23673052E+00 0.31470869E+04</pdfrwt>
<pdfrwt beam="2">  1       -1 0.24755775E+00 0.31470869E+04</pdfrwt>
<totfact> 0.84066900E-01</totfact>
</mgrwt>
</event>
<event>
12    6  0.1538774E-007  0.1909629E+04  0.7818608E-02  0.8650078E-01
         -1   -1    0    0    0  501 -0.00000000000E+00  0.00000000000E+00  0.49922276811E+03  0.49922276811E+03  0.00000000000E+00 0.  1.
          2   -1    0    0  501    0  0.00000000000E+00 -0.00000000000E+00 -0.18261808983E+04  0.18261808983E+04  0.00000000000E+00 0. -1.
         24    2    1    2    0    0  0.18126212838E+03 -0.73793042344E+03 -0.57843135205E+03  0.95851945823E+03  0.82337438309E+02 0.  0.
        254    2    1    2    0    0 -0.18126212838E+03  0.73793042344E+03 -0.74852677810E+03  0.13668842081E+04  0.85479987828E+03 0.  0.
         23    2    4    4    0    0 -0.39624616116E+02  0.48560152959E+03 -0.90016639815E+03  0.10276544537E+04  0.91625193687E+02 0.  0.
         23    2    4    4    0    0 -0.14163751227E+03  0.25232889384E+03  0.15163962006E+03  0.33922975443E+03  0.91384880418E+02 0.  0.
          4    1    3    3  502    0 -0.11999030057E+01 -0.26634779283E+01 -0.12679418601E+02  0.13011592445E+02  0.00000000000E+00 0. -1.
         -3    1    3    3    0  502  0.18246203139E+03 -0.73526694551E+03 -0.56575193345E+03  0.94550786578E+03  0.00000000000E+00 0.  1.
         11    1    5    5    0    0 -0.38483812545E+02  0.46882734733E+03 -0.89311470046E+03  0.10094225843E+04  0.00000000000E+00 0. -1.
        -11    1    5    5    0    0 -0.11408035715E+01  0.16774182263E+02 -0.70516976973E+01  0.18231869455E+02  0.00000000000E+00 0.  1.
          1    1    6    6  503    0 -0.18459578068E+02  0.86946431791E+02  0.10863547388E+02  0.89545824501E+02  0.00000000000E+00 0. -1.
         -1    1    6    6    0  503 -0.12317793420E+03  0.16538246205E+03  0.14077607267E+03  0.24968392993E+03  0.00000000000E+00 0.  1.
<mgrwt>
<rscale>  0 0.19096294E+04</rscale>
<asrwt>0</asrwt>
<pdfrwt beam="1">  1        2 0.28095090E+00 0.19096294E+04</pdfrwt>
<pdfrwt beam="2">  1       -1 0.76803504E-01 0.19096294E+04</pdfrwt>
<totfact> 0.15125573E+01</totfact>
</mgrwt>
</event>
<event>
12    6  0.1538774E-007  0.3217069E+04  0.7818608E-02  0.8184324E-01
          2   -1    0    0  501    0  0.00000000000E+00  0.00000000000E+00  0.26584471789E+04  0.26584471789E+04  0.00000000000E+00 0. -1.
         -1   -1    0    0    0  501 -0.00000000000E+00 -0.00000000000E+00 -0.97326845205E+03  0.97326845205E+03  0.00000000000E+00 0.  1.
         24    2    1    2    0    0  0.11455616987E+04 -0.83643860914E+03  0.29388492893E+03  0.14507818806E+04  0.80365175213E+02 0.  0.
        254    2    1    2    0    0 -0.11455616987E+04  0.83643860914E+03  0.13912937980E+04  0.21809337503E+04  0.89935112095E+03 0.  0.
         23    2    4    4    0    0  0.62164762153E+02  0.21137049354E+03  0.49579367614E+03  0.55011093196E+03  0.90932529757E+02 0.  0.
         23    2    4    4    0    0 -0.12077264608E+04  0.62506811560E+03  0.89550012181E+03  0.16308228184E+04  0.91374194436E+02 0.  0.
          2    1    3    3  502    0  0.13892416585E+03 -0.84485088012E+02  0.11814078674E+02  0.16302523243E+03  0.00000000000E+00 0. -1.
         -1    1    3    3    0  502  0.10066375328E+04 -0.75195352113E+03  0.28207085025E+03  0.12877566482E+04  0.00000000000E+00 0.  1.
         11    1    5    5    0    0  0.30396900104E+02  0.46942904139E+02  0.54414417209E+02  0.78029075255E+02  0.00000000000E+00 0.  1.
        -11    1    5    5    0    0  0.31767862049E+02  0.16442758940E+03  0.44137925893E+03  0.47208185670E+03  0.00000000000E+00 0. -1.
          1    1    6    6  503    0 -0.97734299828E+03  0.54094196511E+03  0.75322929341E+03  0.13472831604E+04  0.00000000000E+00 0. -1.
         -1    1    6    6    0  503 -0.23038346255E+03  0.84126150487E+02  0.14227082840E+03  0.28353965794E+03  0.00000000000E+00 0.  1.
<mgrwt>
<rscale>  0 0.32170687E+04</rscale>
<asrwt>0</asrwt>
<pdfrwt beam="1">  1        2 0.40899187E+00 0.32170687E+04</pdfrwt>
<pdfrwt beam="2">  1       -1 0.14973361E+00 0.32170687E+04</pdfrwt>
<totfact> 0.94119297E-01</totfact>
</mgrwt>
</event>
<event>
12    6  0.1538774E-007  0.2185381E+04  0.7818608E-02  0.8524537E-01
          2   -1    0    0  501    0  0.00000000000E+00  0.00000000000E+00  0.13810510892E+04  0.13810510892E+04  0.00000000000E+00 0. -1.
         -3   -1    0    0    0  501 -0.00000000000E+00 -0.00000000000E+00 -0.86453917452E+03  0.86453917452E+03  0.00000000000E+00 0.  1.
         24    2    1    2    0    0  0.55362178604E+03  0.37458087043E+03 -0.41012516748E+03  0.78819191808E+03  0.78967944476E+02 0.  0.
        254    2    1    2    0    0 -0.55362178604E+03 -0.37458087043E+03  0.92663708214E+03  0.14573983456E+04  0.90473517969E+03 0.  0.
         23    2    4    4    0    0 -0.37174376010E+03 -0.38939835968E+03  0.10733381079E+04  0.12042090459E+04  0.90775693687E+02 0.  0.
         23    2    4    4    0    0 -0.18187802593E+03  0.14817489252E+02 -0.14670102575E+03  0.25318929977E+03  0.96355883354E+02 0.  0.
          4    1    3    3  502    0  0.81369410957E+02  0.54846576038E+02 -0.95150883738E+02  0.13668510752E+03  0.00000000000E+00 0. -1.
         -3    1    3    3    0  502  0.47225237508E+03  0.31973429439E+03 -0.31497428374E+03  0.65150681055E+03  0.00000000000E+00 0.  1.
         11    1    5    5    0    0 -0.37278604056E+03 -0.38351983379E+03  0.10721100006E+04  0.11981138295E+04  0.00000000000E+00 0. -1.
        -11    1    5    5    0    0  0.10422804595E+01 -0.58785258950E+01  0.12281072724E+01  0.60952163807E+01  0.00000000000E+00 0.  1.
          3    1    6    6  503    0 -0.88124592806E+02  0.36287037300E+02 -0.12025308586E+03  0.15343890508E+03  0.00000000000E+00 0. -1.
         -3    1    6    6    0  503 -0.93753433128E+02 -0.21469548048E+02 -0.26447939891E+02  0.99750394692E+02  0.00000000000E+00 0.  1.
<mgrwt>
<rscale>  0 0.21853812E+04</rscale>
<asrwt>0</asrwt>
<pdfrwt beam="1">  1        2 0.21246940E+00 0.21853812E+04</pdfrwt>
<pdfrwt beam="2">  1       -3 0.13300603E+00 0.21853812E+04</pdfrwt>
<totfact> 0.37740064E+00</totfact>
</mgrwt>
</event>
<event>
12    6  0.1538774E-007  0.1407379E+04  0.7818608E-02  0.8948495E-01
          2   -1    0    0  501    0  0.00000000000E+00  0.00000000000E+00  0.39377772898E+04  0.39377772898E+04  0.00000000000E+00 0. -1.
         -1   -1    0    0    0  501 -0.00000000000E+00 -0.00000000000E+00 -0.12575077921E+03  0.12575077921E+03  0.00000000000E+00 0.  1.
         24    2    1    2    0    0 -0.56630301755E+02  0.32973112961E+03  0.44433365509E+03  0.56184252549E+03  0.79404140271E+02 0.  0.
        254    2    1    2    0    0  0.56630301755E+02 -0.32973112961E+03  0.33676928555E+04  0.35016855435E+04  0.89917566013E+03 0.  0.
         23    2    4    4    0    0  0.76050087660E+02  0.25526458732E+03  0.18644513410E+04  0.18855482332E+04  0.90386456712E+02 0.  0.
         23    2    4    4    0    0 -0.19419785905E+02 -0.58499571693E+03  0.15032415145E+04  0.16161373103E+04  0.97814302776E+02 0.  0.
          2    1    3    3  502    0 -0.14458556121E+02  0.12052948796E+03  0.22596737929E+03  0.25651055303E+03  0.00000000000E+00 0. -1.
         -1    1    3    3    0  502 -0.42171745634E+02  0.20920164165E+03  0.21836627581E+03  0.30533197247E+03  0.00000000000E+00 0.  1.
         11    1    5    5    0    0 -0.19390557538E+02  0.36980838664E+02  0.34822193907E+03  0.35071654509E+03  0.00000000000E+00 0.  1.
        -11    1    5    5    0    0  0.95440645198E+02  0.21828374866E+03  0.15162294019E+04  0.15348316881E+04  0.00000000000E+00 0. -1.
          1    1    6    6  503    0 -0.41929153658E+02 -0.49266309032E+03  0.11852488957E+04  0.12842468296E+04  0.00000000000E+00 0. -1.
         -1    1    6    6    0  503  0.22509367753E+02 -0.92332626612E+02  0.31799261878E+03  0.33189048069E+03  0.00000000000E+00 0.  1.
<mgrwt>
<rscale>  0 0.14073785E+04</rscale>
<asrwt>0</asrwt>
<pdfrwt beam="1">  1        2 0.60581180E+00 0.14073785E+04</pdfrwt>
<pdfrwt beam="2">  1       -1 0.19346277E-01 0.14073785E+04</pdfrwt>
<totfact> 0.94396313E+00</totfact>
</mgrwt>
</event>
<event>
12    6  0.1851073E-007  0.2522323E+04  0.7818608E-02  0.8395076E-01
         -1   -1    0    0    0  501 -0.00000000000E+00  0.00000000000E+00  0.71659242073E+03  0.71659242073E+03  0.00000000000E+00 0.  1.
          2   -1    0    0  501    0  0.00000000000E+00 -0.00000000000E+00 -0.22195709828E+04  0.22195709828E+04  0.00000000000E+00 0. -1.
         24    2    1    2    0    0  0.28677760686E+03 -0.75144945186E+03 -0.15292896705E+04  0.17297131313E+04  0.79138775421E+02 0.  0.
        254    2    1    2    0    0 -0.28677760686E+03  0.75144945186E+03  0.26311108418E+02  0.12064502723E+04  0.89883942420E+03 0.  0.
         23    2    4    4    0    0  0.51831617960E+02  0.83815050008E+03  0.90493284680E+01  0.84513212785E+03  0.94782096233E+02 0.  0.
         23    2    4    4    0    0 -0.33860922482E+03 -0.86701048226E+02  0.17261779950E+02  0.36131814440E+03  0.89886336757E+02 0.  0.
          2    1    3    3  502    0  0.25140181645E+03 -0.65369879149E+03 -0.13832446302E+04  0.15504485449E+04  0.00000000000E+00 0. -1.
         -1    1    3    3    0  502  0.35375790405E+02 -0.97750660369E+02 -0.14604504030E+03  0.17926458643E+03  0.00000000000E+00 0.  1.
         11    1    5    5    0    0 -0.20044455294E+01  0.30631635533E+03  0.43864184232E+02  0.30944756261E+03  0.00000000000E+00 0.  1.
        -11    1    5    5    0    0  0.53836063489E+02  0.53183414475E+03 -0.34814855764E+02  0.53568456524E+03  0.00000000000E+00 0. -1.
          1    1    6    6  503    0 -0.23068908890E+03 -0.50868369600E+02  0.53033971827E+02  0.24211081952E+03  0.00000000000E+00 0. -1.
         -1    1    6    6    0  503 -0.10792013592E+03 -0.35832678625E+02 -0.35772191876E+02  0.11920732488E+03  0.00000000000E+00 0.  1.
<mgrwt>
<rscale>  0 0.25223225E+04</rscale>
<asrwt>0</asrwt>
<pdfrwt beam="1">  1        2 0.34147245E+00 0.25223225E+04</pdfrwt>
<pdfrwt beam="2">  1       -1 0.11024499E+00 0.25223225E+04</pdfrwt>
<totfact> 0.38698890E+00</totfact>
</mgrwt>
</event>
<event>
12    6  0.1538774E-007  0.1613430E+04  0.7818608E-02  0.8812340E-01
          2   -1    0    0  501    0  0.00000000000E+00  0.00000000000E+00  0.98370339529E+03  0.98370339529E+03  0.00000000000E+00 0. -1.
         -1   -1    0    0    0  501 -0.00000000000E+00 -0.00000000000E+00 -0.66157052728E+03  0.66157052728E+03  0.00000000000E+00 0.  1.
         24    2    1    2    0    0 -0.15697711038E+03  0.26154538699E+03  0.58844068365E+03  0.66768390767E+03  0.80570216207E+02 0.  0.
        254    2    1    2    0    0  0.15697711038E+03 -0.26154538699E+03 -0.26630781565E+03  0.97759001490E+03  0.88978344664E+03 0.  0.
         23    2    4    4    0    0  0.26371324225E+03 -0.53095722425E+03 -0.30085592740E+03  0.67138761510E+03  0.93737892759E+02 0.  0.
         23    2    4    4    0    0 -0.10673613187E+03  0.26941183726E+03  0.34548111756E+02  0.30620239980E+03  0.92687635180E+02 0.  0.
          4    1    3    3  502    0 -0.90363240864E+02  0.21335467824E+03  0.40354811650E+03  0.46533516561E+03  0.00000000000E+00 0. -1.
         -3    1    3    3    0  502 -0.66613869518E+02  0.48190708752E+02  0.18489256715E+03  0.20234874205E+03  0.00000000000E+00 0.  1.
         11    1    5    5    0    0  0.68556992436E+02 -0.24074128707E+03 -0.13323085828E+03  0.28356108708E+03  0.00000000000E+00 0. -1.
        -11    1    5    5    0    0  0.19515624981E+03 -0.29021593718E+03 -0.16762506913E+03  0.38782652802E+03  0.00000000000E+00 0.  1.
          1    1    6    6  503    0 -0.60804788362E+02  0.23155956821E+03  0.43230251900E+01  0.23944883475E+03  0.00000000000E+00 0. -1.
         -1    1    6    6    0  503 -0.45931343504E+02  0.37852269045E+02  0.30225086566E+02  0.66753565043E+02  0.00000000000E+00 0.  1.
<mgrwt>
<rscale>  0 0.16134301E+04</rscale>
<asrwt>0</asrwt>
<pdfrwt beam="1">  1        2 0.15133898E+00 0.16134301E+04</pdfrwt>
<pdfrwt beam="2">  1       -1 0.10178008E+00 0.16134301E+04</pdfrwt>
<totfact> 0.25820102E+01</totfact>
</mgrwt>
</event>
<event>
12    6  0.1538774E-007  0.3841388E+04  0.7818608E-02  0.8037331E-01
          2   -1    0    0  501    0  0.00000000000E+00  0.00000000000E+00  0.33009035050E+04  0.33009035050E+04  0.00000000000E+00 0. -1.
         -1   -1    0    0    0  501 -0.00000000000E+00 -0.00000000000E+00 -0.11175927506E+04  0.11175927506E+04  0.00000000000E+00 0.  1.
         24    2    1    2    0    0  0.50980859978E+03  0.16566960666E+04  0.16401123134E+04  0.23876475059E+04  0.79658938071E+02 0.  0.
        254    2    1    2    0    0 -0.50980859978E+03 -0.16566960666E+04  0.54319844095E+03  0.20308487497E+04  0.90814945481E+03 0.  0.
         23    2    4    4    0    0 -0.35523850889E+03 -0.19091418646E+03 -0.91198192696E+02  0.42343277895E+03  0.91299414826E+02 0.  0.
         23    2    4    4    0    0 -0.15457009088E+03 -0.14657818801E+04  0.63439663365E+03  0.16074159707E+04  0.94438238957E+02 0.  0.
          4    1    3    3  502    0  0.45074062385E+03  0.13624886809E+04  0.13582349449E+04  0.19759414670E+04  0.00000000000E+00 0. -1.
         -3    1    3    3    0  502  0.59067975928E+02  0.29420738567E+03  0.28187736851E+03  0.41170603886E+03  0.00000000000E+00 0.  1.
         11    1    5    5    0    0 -0.40210394669E+02  0.62352171643E+01  0.34198473824E+00  0.40692391501E+02  0.00000000000E+00 0. -1.
        -11    1    5    5    0    0 -0.31502811423E+03 -0.19714940363E+03 -0.91540177434E+02  0.38274038745E+03  0.00000000000E+00 0.  1.
          2    1    6    6  503    0 -0.13720856874E+03 -0.14162037473E+04  0.59737811053E+03  0.15431525693E+04  0.00000000000E+00 0.  1.
         -2    1    6    6    0  503 -0.17361522139E+02 -0.49578132833E+02  0.37018523121E+02  0.64263401405E+02  0.00000000000E+00 0. -1.
<mgrwt>
<rscale>  0 0.38413882E+04</rscale>
<asrwt>0</asrwt>
<pdfrwt beam="1">  1        2 0.50783130E+00 0.38413882E+04</pdfrwt>
<pdfrwt beam="2">  1       -1 0.17193735E+00 0.38413882E+04</pdfrwt>
<totfact> 0.23996906E-01</totfact>
</mgrwt>
</event>
<event>
12    6  0.1538774E-007  0.1190031E+04  0.7818608E-02  0.9121627E-01
          2   -1    0    0  501    0  0.00000000000E+00  0.00000000000E+00  0.28007291547E+03  0.28007291547E+03  0.00000000000E+00 0. -1.
         -1   -1    0    0    0  501 -0.00000000000E+00 -0.00000000000E+00 -0.12641115684E+04  0.12641115684E+04  0.00000000000E+00 0.  1.
         24    2    1    2    0    0 -0.18168439635E+02  0.14365471956E+02 -0.48154359940E+03  0.48856599247E+03  0.79221410513E+02 0.  0.
        254    2    1    2    0    0  0.18168439635E+02 -0.14365471956E+02 -0.50249505349E+03  0.10556184914E+04  0.92805854426E+03 0.  0.
         23    2    4    4    0    0 -0.38350890629E+03 -0.22292900704E+03 -0.16168949809E+03  0.48133659811E+03  0.93621597394E+02 0.  0.
         23    2    4    4    0    0  0.40167734593E+03  0.20856353509E+03 -0.34080555540E+03  0.57428189327E+03  0.93850029001E+02 0.  0.
          4    1    3    3  502    0  0.76084430068E+01  0.13442015807E+02 -0.15753891918E+02  0.22062667665E+02  0.00000000000E+00 0. -1.
         -3    1    3    3    0  502 -0.25776882642E+02  0.92345614947E+00 -0.46578970749E+03  0.46650332480E+03  0.00000000000E+00 0.  1.
         11    1    5    5    0    0 -0.18245680017E+03 -0.15199763321E+03 -0.11131510982E+03  0.26226859916E+03  0.00000000000E+00 0. -1.
        -11    1    5    5    0    0 -0.20105210612E+03 -0.70931373829E+02 -0.50374388266E+02  0.21906799894E+03  0.00000000000E+00 0.  1.
          2    1    6    6  503    0  0.40481829512E+03  0.20030894534E+03 -0.32593958150E+03  0.55699024806E+03  0.00000000000E+00 0. -1.
         -2    1    6    6    0  503 -0.31409491973E+01  0.82545897446E+01 -0.14865973907E+02  0.17291645205E+02  0.00000000000E+00 0.  1.
<mgrwt>
<rscale>  0 0.11900309E+04</rscale>
<asrwt>0</asrwt>
<pdfrwt beam="1">  1        2 0.43088141E-01 0.11900309E+04</pdfrwt>
<pdfrwt beam="2">  1       -1 0.19447870E+00 0.11900309E+04</pdfrwt>
<totfact> 0.22058164E+01</totfact>
</mgrwt>
</event>
<event>
12    6  0.1538774E-007  0.2010692E+04  0.7818608E-02  0.8601638E-01
         -3   -1    0    0    0  501 -0.00000000000E+00  0.00000000000E+00  0.93289890604E+03  0.93289890604E+03  0.00000000000E+00 0.  1.
          2   -1    0    0  501    0  0.00000000000E+00 -0.00000000000E+00 -0.10834191529E+04  0.10834191529E+04  0.00000000000E+00 0. -1.
         24    2    1    2    0    0 -0.53045824337E+02 -0.20923742755E+03  0.72063978188E+03  0.75653962061E+03  0.80226814479E+02 0.  0.
        254    2    1    2    0    0  0.53045824337E+02  0.20923742755E+03 -0.87116002875E+03  0.12597784383E+04  0.88404058584E+03 0.  0.
         23    2    4    4    0    0 -0.36807732135E+03  0.12376428808E+03 -0.17320129190E+03  0.43494316208E+03  0.91533344912E+02 0.  0.
         23    2    4    4    0    0  0.42112314569E+03  0.85473139470E+02 -0.69795873684E+03  0.82483527624E+03  0.92501206414E+02 0.  0.
          2    1    3    3  502    0 -0.24236094081E+02 -0.44642848342E+02  0.29378354820E+03  0.29814282711E+03  0.00000000000E+00 0. -1.
         -1    1    3    3    0  502 -0.28809730256E+02 -0.16459457921E+03  0.42685623369E+03  0.45839679351E+03  0.00000000000E+00 0.  1.
         11    1    5    5    0    0 -0.27308497991E+03  0.51408040189E+02 -0.10257281222E+03  0.29620832982E+03  0.00000000000E+00 0.  1.
        -11    1    5    5    0    0 -0.94992341440E+02  0.72356247888E+02 -0.70628479681E+02  0.13873483226E+03  0.00000000000E+00 0. -1.
          3    1    6    6  503    0  0.13122882867E+03 -0.95461732486E+01 -0.16863113805E+03  0.21388921342E+03  0.00000000000E+00 0. -1.
         -3    1    6    6    0  503  0.28989431702E+03  0.95019312718E+02 -0.52932759879E+03  0.61094606282E+03  0.00000000000E+00 0.  1.
<mgrwt>
<rscale>  0 0.20106920E+04</rscale>
<asrwt>0</asrwt>
<pdfrwt beam="1">  1        2 0.16667987E+00 0.20106920E+04</pdfrwt>
<pdfrwt beam="2">  1       -3 0.14352291E+00 0.20106920E+04</pdfrwt>
<totfact> 0.47319427E+00</totfact>
</mgrwt>
</event>
<event>
12    6  0.1538774E-007  0.1167126E+04  0.7818608E-02  0.9142128E-01
         -1   -1    0    0    0  501 -0.00000000000E+00  0.00000000000E+00  0.61863866739E+03  0.61863866739E+03  0.00000000000E+00 0.  1.
          2   -1    0    0  501    0  0.00000000000E+00 -0.00000000000E+00 -0.55047568301E+03  0.55047568301E+03  0.00000000000E+00 0. -1.
         24    2    1    2    0    0 -0.18113816195E+02  0.22526681312E+03 -0.23737264057E+02  0.24088796092E+03  0.79939380655E+02 0.  0.
        254    2    1    2    0    0  0.18113816195E+02 -0.22526681312E+03  0.91900248430E+02  0.92822638948E+03  0.89559216558E+03 0.  0.
         23    2    4    4    0    0 -0.35589052406E+03 -0.10397868008E+03 -0.19891135787E+03  0.43062323350E+03  0.91657023259E+02 0.  0.
         23    2    4    4    0    0  0.37400434025E+03 -0.12128813304E+03  0.29081160630E+03  0.49760315599E+03  0.91910025271E+02 0.  0.
          2    1    3    3  502    0 -0.12890048413E+02  0.11988415037E+02 -0.21166761698E+02  0.27530115219E+02  0.00000000000E+00 0. -1.
         -1    1    3    3    0  502 -0.52237677819E+01  0.21327839808E+03 -0.25705023587E+01  0.21335784570E+03  0.00000000000E+00 0.  1.
         11    1    5    5    0    0 -0.10462514287E+03 -0.51898198009E+02 -0.10598100227E+03  0.15770800968E+03  0.00000000000E+00 0. -1.
        -11    1    5    5    0    0 -0.25126538119E+03 -0.52080482071E+02 -0.92930355603E+02  0.27291522382E+03  0.00000000000E+00 0.  1.
          4    1    6    6  503    0  0.35929065335E+03 -0.10414314386E+03  0.24687954458E+03  0.44820204990E+03  0.00000000000E+00 0.  1.
         -4    1    6    6    0  503  0.14713686899E+02 -0.17144989176E+02  0.43932061713E+02  0.49401106085E+02  0.00000000000E+00 0. -1.
<mgrwt>
<rscale>  0 0.11671256E+04</rscale>
<asrwt>0</asrwt>
<pdfrwt beam="1">  1        2 0.84688567E-01 0.11671256E+04</pdfrwt>
<pdfrwt beam="2">  1       -1 0.95175179E-01 0.11671256E+04</pdfrwt>
<totfact> 0.66329052E+01</totfact>
</mgrwt>
</event>
<event>
12    6  0.1538774E-007  0.1828208E+04  0.7818608E-02  0.8691441E-01
         -1   -1    0    0    0  501 -0.00000000000E+00  0.00000000000E+00  0.61987178400E+03  0.61987178400E+03  0.00000000000E+00 0.  1.
          2   -1    0    0  501    0  0.00000000000E+00 -0.00000000000E+00 -0.13479983746E+04  0.13479983746E+04  0.00000000000E+00 0. -1.
         24    2    1    2    0    0  0.19893583918E+03  0.34274188971E+03 -0.89883179788E+03  0.98548789465E+03  0.78995686982E+02 0.  0.
        254    2    1    2    0    0 -0.19893583918E+03 -0.34274188971E+03  0.17070520725E+03  0.98238226398E+03  0.88254584794E+03 0.  0.
         23    2    4    4    0    0  0.11815238396E+03 -0.54787967536E+03  0.16750972896E+03  0.59187545313E+03  0.90138328202E+02 0.  0.
         23    2    4    4    0    0 -0.31708822314E+03  0.20513778565E+03  0.31954782935E+01  0.39050681085E+03  0.99292023285E+02 0.  0.
          4    1    3    3  502    0  0.11433875331E+03  0.26015955494E+03 -0.59216788917E+03  0.65682505548E+03  0.00000000000E+00 0. -1.
         -3    1    3    3    0  502  0.84597085871E+02  0.82582334770E+02 -0.30666390870E+03  0.32866283917E+03  0.00000000000E+00 0.  1.
         11    1    5    5    0    0  0.76849120082E+02 -0.43141684220E+03  0.16511179808E+03  0.46828216371E+03  0.00000000000E+00 0.  1.
        -11    1    5    5    0    0  0.41303263875E+02 -0.11646283317E+03  0.23979308786E+01  0.12359328941E+03  0.00000000000E+00 0. -1.
          2    1    6    6  503    0 -0.19179221033E+01  0.28654627837E+02 -0.52262169058E+01  0.29190400217E+02  0.00000000000E+00 0. -1.
         -2    1    6    6    0  503 -0.31517030103E+03  0.17648315781E+03  0.84216951993E+01  0.36131641064E+03  0.00000000000E+00 0.  1.
<mgrwt>
<rscale>  0 0.18282080E+04</rscale>
<asrwt>0</asrwt>
<pdfrwt beam="1">  1        2 0.20738436E+00 0.18282080E+04</pdfrwt>
<pdfrwt beam="2">  1       -1 0.95364891E-01 0.18282080E+04</pdfrwt>
<totfact> 0.17670731E+01</totfact>
</mgrwt>
</event>
<event>
12    6  0.1538774E-007  0.2088010E+04  0.7818608E-02  0.8566543E-01
          2   -1    0    0  501    0  0.00000000000E+00  0.00000000000E+00  0.87748433809E+03  0.87748433809E+03  0.00000000000E+00 0. -1.
         -1   -1    0    0    0  501 -0.00000000000E+00 -0.00000000000E+00 -0.12421265528E+04  0.12421265528E+04  0.00000000000E+00 0.  1.
         24    2    1    2    0    0 -0.51150597542E+03  0.17500504664E+03  0.51415451090E+03  0.75015493327E+03  0.78182054175E+02 0.  0.
        254    2    1    2    0    0  0.51150597542E+03 -0.17500504664E+03 -0.87879672562E+03  0.13694559576E+04  0.90047809840E+03 0.  0.
         23    2    4    4    0    0  0.64031815542E+03 -0.36549534500E+03 -0.43085908719E+03  0.85780360959E+03  0.81199090040E+02 0.  0.
         23    2    4    4    0    0 -0.12881218000E+03  0.19049029837E+03 -0.44793763842E+03  0.51165234805E+03  0.90889305529E+02 0.  0.
          2    1    3    3  502    0 -0.50629308950E+03  0.16385341097E+03  0.49163179380E+03  0.72448771793E+03  0.00000000000E+00 0. -1.
         -1    1    3    3    0  502 -0.52128859210E+01  0.11151635669E+02  0.22522717100E+02  0.25667215339E+02  0.00000000000E+00 0.  1.
         11    1    5    5    0    0  0.55433927550E+03 -0.31934365365E+03 -0.40386011401E+03  0.75655495054E+03  0.00000000000E+00 0. -1.
        -11    1    5    5    0    0  0.85978879918E+02 -0.46151691354E+02 -0.26998973181E+02  0.10124865905E+03  0.00000000000E+00 0.  1.
          2    1    6    6  503    0 -0.10148741033E+03  0.11527842631E+03 -0.20687484544E+03  0.25765483055E+03  0.00000000000E+00 0. -1.
         -2    1    6    6    0  503 -0.27324769666E+02  0.75211872053E+02 -0.24106279298E+03  0.25399751750E+03  0.00000000000E+00 0.  1.
<mgrwt>
<rscale>  0 0.20880101E+04</rscale>
<asrwt>0</asrwt>
<pdfrwt beam="1">  1        2 0.13499759E+00 0.20880101E+04</pdfrwt>
<pdfrwt beam="2">  1       -1 0.19109639E+00 0.20880101E+04</pdfrwt>
<totfact> 0.55495819E+00</totfact>
</mgrwt>
</event>
<event>
12    6  0.1538774E-007  0.1979402E+04  0.7818608E-02  0.8616312E-01
          2   -1    0    0  501    0  0.00000000000E+00  0.00000000000E+00  0.34695717072E+04  0.34695717072E+04  0.00000000000E+00 0. -1.
         -1   -1    0    0    0  501 -0.00000000000E+00 -0.00000000000E+00 -0.28231380407E+03  0.28231380407E+03  0.00000000000E+00 0.  1.
         24    2    1    2    0    0  0.38217390009E+03 -0.64863027072E+03  0.85031417165E+03  0.11385370800E+04  0.80339118362E+02 0.  0.
        254    2    1    2    0    0 -0.38217390009E+03  0.64863027072E+03  0.23369437314E+04  0.26133484313E+04  0.89526861962E+03 0.  0.
         23    2    4    4    0    0 -0.63932081008E+03  0.30951857054E+03  0.12217042882E+04  0.14162921181E+04  0.93750478929E+02 0.  0.
         23    2    4    4    0    0  0.25714690999E+03  0.33911170018E+03  0.11152394432E+04  0.11970563131E+04  0.89797119090E+02 0.  0.
          2    1    3    3  502    0  0.11522947420E+03 -0.27011479565E+03  0.31498096559E+03  0.43064236118E+03  0.00000000000E+00 0. -1.
         -1    1    3    3    0  502  0.26694442588E+03 -0.37851547508E+03  0.53533320606E+03  0.70789471879E+03  0.00000000000E+00 0.  1.
         11    1    5    5    0    0 -0.50007999219E+03  0.24999912379E+03  0.10304180023E+04  0.11723228309E+04  0.00000000000E+00 0. -1.
        -11    1    5    5    0    0 -0.13924081789E+03  0.59519446759E+02  0.19128628593E+03  0.24396928720E+03  0.00000000000E+00 0.  1.
          2    1    6    6  503    0  0.14037693111E+03  0.18507242522E+03  0.48346093935E+03  0.53636924338E+03  0.00000000000E+00 0. -1.
         -2    1    6    6    0  503  0.11676997888E+03  0.15403927496E+03  0.63177850387E+03  0.66068706976E+03  0.00000000000E+00 0.  1.
<mgrwt>
<rscale>  0 0.19794019E+04</rscale>
<asrwt>0</asrwt>
<pdfrwt beam="1">  1        2 0.53378023E+00 0.19794019E+04</pdfrwt>
<pdfrwt beam="2">  1       -1 0.43432895E-01 0.19794019E+04</pdfrwt>
<totfact> 0.47579996E+00</totfact>
</mgrwt>
</event>
<event>
12    6  0.1538774E-007  0.1662208E+04  0.7818608E-02  0.8783217E-01
         -1   -1    0    0    0  501 -0.00000000000E+00  0.00000000000E+00  0.16928936411E+03  0.16928936411E+03  0.00000000000E+00 0.  1.
          2   -1    0    0  501    0  0.00000000000E+00 -0.00000000000E+00 -0.40801952877E+04  0.40801952877E+04  0.00000000000E+00 0. -1.
         24    2    1    2    0    0 -0.66453306664E+02 -0.48397756224E+03 -0.21933736147E+04  0.22485175941E+04  0.79329909932E+02 0.  0.
        254    2    1    2    0    0  0.66453306664E+02  0.48397756224E+03 -0.17175323089E+04  0.20009670577E+04  0.90294053580E+03 0.  0.
         23    2    4    4    0    0  0.92994274132E+02  0.17797519660E+03 -0.16609079488E+04  0.16756397673E+04  0.93969727970E+02 0.  0.
         23    2    4    4    0    0 -0.26540967469E+02  0.30600236564E+03 -0.56624360093E+02  0.32532729039E+03  0.91047553443E+02 0.  0.
          4    1    3    3  502    0 -0.30732498598E+02 -0.42350576279E+03 -0.18692114089E+04  0.19168340848E+04  0.00000000000E+00 0. -1.
         -3    1    3    3    0  502 -0.35720808066E+02 -0.60471799454E+02 -0.32416220581E+03  0.33168350928E+03  0.00000000000E+00 0.  1.
         11    1    5    5    0    0  0.10023681966E+03  0.94001335785E+02 -0.10331094158E+04  0.10422085857E+04  0.00000000000E+00 0. -1.
        -11    1    5    5    0    0 -0.72425455269E+01  0.83973860816E+02 -0.62779853298E+03  0.63343118156E+03  0.00000000000E+00 0.  1.
          3    1    6    6  503    0  0.20880285522E+02  0.22491214894E+03 -0.31318379981E+02  0.22804013241E+03  0.00000000000E+00 0. -1.
         -3    1    6    6    0  503 -0.47421252990E+02  0.81090216702E+02 -0.25305980112E+02  0.97287157988E+02  0.00000000000E+00 0.  1.
<mgrwt>
<rscale>  0 0.16622078E+04</rscale>
<asrwt>0</asrwt>
<pdfrwt beam="1">  1        2 0.62772233E+00 0.16622078E+04</pdfrwt>
<pdfrwt beam="2">  1       -1 0.26044519E-01 0.16622078E+04</pdfrwt>
<totfact> 0.42531492E+00</totfact>
</mgrwt>
</event>
<event>
12    6  0.1538774E-007  0.1794495E+04  0.7818608E-02  0.8709232E-01
         -1   -1    0    0    0  501 -0.00000000000E+00  0.00000000000E+00  0.95307659593E+03  0.95307659593E+03  0.00000000000E+00 0.  1.
          2   -1    0    0  501    0  0.00000000000E+00 -0.00000000000E+00 -0.84468907771E+03  0.84468907771E+03  0.00000000000E+00 0. -1.
         24    2    1    2    0    0  0.23468872945E+03 -0.15734538849E+03 -0.56116092812E+03  0.63332953118E+03  0.79801859693E+02 0.  0.
        254    2    1    2    0    0 -0.23468872945E+03  0.15734538849E+03  0.66954844634E+03  0.11644361425E+04  0.90982417909E+03 0.  0.
         23    2    4    4    0    0 -0.38708190150E+03  0.45385955878E+03  0.47376361809E+03  0.76707355936E+03  0.90160867796E+02 0.  0.
         23    2    4    4    0    0  0.15239317205E+03 -0.29651417029E+03  0.19578482825E+03  0.39736258310E+03  0.91765959946E+02 0.  0.
          4    1    3    3  502    0  0.22032053269E+03 -0.11526014770E+03 -0.48848531075E+03  0.54812766542E+03  0.00000000000E+00 0. -1.
         -3    1    3    3    0  502  0.14368196757E+02 -0.42085240791E+02 -0.72675617369E+02  0.85201865769E+02  0.00000000000E+00 0.  1.
         11    1    5    5    0    0 -0.37741451087E+03  0.40547783729E+03  0.43476297510E+03  0.70418238693E+03  0.00000000000E+00 0.  1.
        -11    1    5    5    0    0 -0.96673906302E+01  0.48381721489E+02  0.39000642993E+02  0.62891172430E+02  0.00000000000E+00 0. -1.
          2    1    6    6  503    0  0.16426656284E+02 -0.18785233149E+02  0.49170627107E+02  0.55140462378E+02  0.00000000000E+00 0. -1.
         -2    1    6    6    0  503  0.13596651577E+03 -0.27772893714E+03  0.14661420115E+03  0.34222212072E+03  0.00000000000E+00 0.  1.
<mgrwt>
<rscale>  0 0.17944954E+04</rscale>
<asrwt>0</asrwt>
<pdfrwt beam="1">  1        2 0.12995217E+00 0.17944954E+04</pdfrwt>
<pdfrwt beam="2">  1       -1 0.14662717E+00 0.17944954E+04</pdfrwt>
<totfact> 0.12799395E+01</totfact>
</mgrwt>
</event>
<event>
12    6  0.1538774E-007  0.1321187E+04  0.7818608E-02  0.9012930E-01
          2   -1    0    0  501    0  0.00000000000E+00  0.00000000000E+00  0.68290718790E+03  0.68290718790E+03  0.00000000000E+00 0. -1.
         -1   -1    0    0    0  501 -0.00000000000E+00 -0.00000000000E+00 -0.63900892854E+03  0.63900892854E+03  0.00000000000E+00 0.  1.
         24    2    1    2    0    0  0.14811519372E+03 -0.88935814705E+02 -0.28242999147E+03  0.34074430509E+03  0.80574757968E+02 0.  0.
        254    2    1    2    0    0 -0.14811519372E+03  0.88935814705E+02  0.32632825083E+03  0.98117181135E+03  0.90904362181E+03 0.  0.
         23    2    4    4    0    0 -0.17068199358E+03  0.22434341393E+03 -0.24628917523E+03  0.38553970001E+03  0.92304886890E+02 0.  0.
         23    2    4    4    0    0  0.22566799858E+02 -0.13540759922E+03  0.57261742607E+03  0.59563211134E+03  0.89679524053E+02 0.  0.
          2    1    3    3  502    0  0.10874120320E+03 -0.35389351414E+02 -0.22708775996E+03  0.25425559225E+03  0.00000000000E+00 0. -1.
         -1    1    3    3    0  502  0.39373990517E+02 -0.53546463292E+02 -0.55342231518E+02  0.86488712845E+02  0.00000000000E+00 0.  1.
         11    1    5    5    0    0 -0.73839409745E+01  0.64061929288E+02 -0.31750690841E+02  0.71878785029E+02  0.00000000000E+00 0. -1.
        -11    1    5    5    0    0 -0.16329805260E+03  0.16028148464E+03 -0.21453848439E+03  0.31366091498E+03  0.00000000000E+00 0.  1.
          3    1    6    6  503    0  0.75329398949E+01 -0.93913768661E+02  0.20787292999E+03  0.22822729054E+03  0.00000000000E+00 0. -1.
         -3    1    6    6    0  503  0.15033859963E+02 -0.41493830564E+02  0.36474449608E+03  0.36740482079E+03  0.00000000000E+00 0.  1.
<mgrwt>
<rscale>  0 0.13211870E+04</rscale>
<asrwt>0</asrwt>
<pdfrwt beam="1">  1        2 0.10506264E+00 0.13211870E+04</pdfrwt>
<pdfrwt beam="2">  1       -1 0.98309066E-01 0.13211870E+04</pdfrwt>
<totfact> 0.46858424E+01</totfact>
</mgrwt>
</event>
<event>
12    6  0.1538774E-007  0.1339406E+04  0.7818608E-02  0.8998887E-01
         -1   -1    0    0    0  501 -0.00000000000E+00  0.00000000000E+00  0.14270227436E+03  0.14270227436E+03  0.00000000000E+00 0.  1.
          2   -1    0    0  501    0  0.00000000000E+00 -0.00000000000E+00 -0.31429211978E+04  0.31429211978E+04  0.00000000000E+00 0. -1.
         24    2    1    2    0    0 -0.29146322901E+03  0.17322432843E+03 -0.10916072156E+04  0.11474132784E+04  0.99967177331E+02 0.  0.
        254    2    1    2    0    0  0.29146322901E+03 -0.17322432843E+03 -0.19086117078E+04  0.21382101937E+04  0.90232294629E+03 0.  0.
         23    2    4    4    0    0  0.44044307844E+03 -0.35243245563E+03 -0.17509668772E+04  0.18418326004E+04  0.90904245879E+02 0.  0.
         23    2    4    4    0    0 -0.14897984943E+03  0.17920812719E+03 -0.15764483063E+03  0.29637759326E+03  0.93151686908E+02 0.  0.
          2    1    3    3  502    0 -0.20976320874E+03  0.11982438640E+03 -0.61155740277E+03  0.65754159123E+03  0.00000000000E+00 0. -1.
         -1    1    3    3    0  502 -0.81700020272E+02  0.53399942035E+02 -0.48004981282E+03  0.48987168719E+03  0.00000000000E+00 0.  1.
         11    1    5    5    0    0  0.35497029720E+03 -0.32572191516E+03 -0.14672433866E+04  0.15443127383E+04  0.00000000000E+00 0.  1.
        -11    1    5    5    0    0  0.85472781243E+02 -0.26710540466E+02 -0.28372349056E+03  0.29751986219E+03  0.00000000000E+00 0. -1.
          3    1    6    6  503    0 -0.11660831811E+03  0.11627898050E+03 -0.58899946289E+02  0.17489283814E+03  0.00000000000E+00 0. -1.
         -3    1    6    6    0  503 -0.32371531319E+02  0.62929146693E+02 -0.98744884345E+02  0.12148475513E+03  0.00000000000E+00 0.  1.
<mgrwt>
<rscale>  0 0.13394058E+04</rscale>
<asrwt>0</asrwt>
<pdfrwt beam="1">  1        2 0.48352628E+00 0.13394058E+04</pdfrwt>
<pdfrwt beam="2">  1       -1 0.21954199E-01 0.13394058E+04</pdfrwt>
<totfact> 0.27836204E+01</totfact>
</mgrwt>
</event>
<event>
12    6  0.1538774E-007  0.1469556E+04  0.7818608E-02  0.8904954E-01
         -1   -1    0    0    0  501 -0.00000000000E+00  0.00000000000E+00  0.23957103654E+03  0.23957103654E+03  0.00000000000E+00 0.  1.
          2   -1    0    0  501    0  0.00000000000E+00 -0.00000000000E+00 -0.22536055979E+04  0.22536055979E+04  0.00000000000E+00 0. -1.
         24    2    1    2    0    0  0.26209705932E+02  0.14550340103E+03 -0.13637875665E+04  0.13741021734E+04  0.79887846697E+02 0.  0.
        254    2    1    2    0    0 -0.26209705932E+02 -0.14550340103E+03 -0.65024699488E+03  0.11190744610E+04  0.89869255401E+03 0.  0.
         23    2    4    4    0    0 -0.87707266478E+02  0.36532140149E+03 -0.24531552580E+03  0.45787633780E+03  0.91207140815E+02 0.  0.
         23    2    4    4    0    0  0.61497560546E+02 -0.51082480252E+03 -0.40493146908E+03  0.66119812325E+03  0.92138671106E+02 0.  0.
          2    1    3    3  502    0 -0.19934779643E+02  0.10332522139E+03 -0.89467157774E+03  0.90083890282E+03  0.00000000000E+00 0. -1.
         -1    1    3    3    0  502  0.46144485575E+02  0.42178179642E+02 -0.46911598878E+03  0.47326327062E+03  0.00000000000E+00 0.  1.
         11    1    5    5    0    0 -0.81496058241E+01  0.14123218012E+03 -0.13572076661E+03  0.19604354430E+03  0.00000000000E+00 0. -1.
        -11    1    5    5    0    0 -0.79557660654E+02  0.22408922138E+03 -0.10959475919E+03  0.26183279349E+03  0.00000000000E+00 0.  1.
          3    1    6    6  503    0 -0.20465998062E+02 -0.45273976929E+02 -0.32097646359E+02  0.59151069013E+02  0.00000000000E+00 0. -1.
         -3    1    6    6    0  503  0.81963558608E+02 -0.46555082559E+03 -0.37283382272E+03  0.60204705424E+03  0.00000000000E+00 0.  1.
<mgrwt>
<rscale>  0 0.14695559E+04</rscale>
<asrwt>0</asrwt>
<pdfrwt beam="1">  1        2 0.34670853E+00 0.14695559E+04</pdfrwt>
<pdfrwt beam="2">  1       -1 0.36857085E-01 0.14695559E+04</pdfrwt>
<totfact> 0.37611308E+01</totfact>
</mgrwt>
</event>
<event>
12    6  0.1538774E-007  0.1419187E+04  0.7818608E-02  0.8940046E-01
         -1   -1    0    0    0  501 -0.00000000000E+00  0.00000000000E+00  0.13558046545E+03  0.13558046545E+03  0.00000000000E+00 0.  1.
          2   -1    0    0  501    0  0.00000000000E+00 -0.00000000000E+00 -0.37138285279E+04  0.37138285279E+04  0.00000000000E+00 0. -1.
         24    2    1    2    0    0 -0.22209011673E+03  0.22306381616E+03 -0.18848538378E+04  0.19125226773E+04  0.77379035271E+02 0.  0.
        254    2    1    2    0    0  0.22209011673E+03 -0.22306381616E+03 -0.16933942246E+04  0.19368863161E+04  0.88592500549E+03 0.  0.
         23    2    4    4    0    0 -0.23872085663E+03 -0.14958641072E+03 -0.17088658724E+03  0.34194806797E+03  0.91446781399E+02 0.  0.
         23    2    4    4    0    0  0.46081097336E+03 -0.73477405434E+02 -0.15225076374E+04  0.15949382481E+04  0.89737545556E+02 0.  0.
          2    1    3    3  502    0 -0.16567205054E+03  0.18782972058E+03 -0.16301082186E+04  0.16492361980E+04  0.00000000000E+00 0. -1.
         -1    1    3    3    0  502 -0.56418066192E+02  0.35234095578E+02 -0.25474561923E+03  0.26328647934E+03  0.00000000000E+00 0.  1.
         11    1    5    5    0    0 -0.24230162266E+03 -0.13260308456E+03 -0.14843809366E+03  0.31357219588E+03  0.00000000000E+00 0. -1.
        -11    1    5    5    0    0  0.35807660321E+01 -0.16983326165E+02 -0.22448493583E+02  0.28375872095E+02  0.00000000000E+00 0.  1.
          2    1    6    6  503    0  0.23057846043E+03 -0.73579466715E+02 -0.86823193113E+03  0.90133625832E+03  0.00000000000E+00 0. -1.
         -2    1    6    6    0  503  0.23023251293E+03  0.10206128118E+00 -0.65427570624E+03  0.69360198976E+03  0.00000000000E+00 0.  1.
<mgrwt>
<rscale>  0 0.14191865E+04</rscale>
<asrwt>0</asrwt>
<pdfrwt beam="1">  1        2 0.57135808E+00 0.14191865E+04</pdfrwt>
<pdfrwt beam="2">  1       -1 0.20858539E-01 0.14191865E+04</pdfrwt>
<totfact> 0.12280040E+01</totfact>
</mgrwt>
</event>
<event>
12    6  0.1538774E-007  0.2917091E+04  0.7818608E-02  0.8267810E-01
         -1   -1    0    0    0  501 -0.00000000000E+00  0.00000000000E+00  0.65540691511E+03  0.65540691511E+03  0.00000000000E+00 0.  1.
          2   -1    0    0  501    0  0.00000000000E+00 -0.00000000000E+00 -0.32458541603E+04  0.32458541603E+04  0.00000000000E+00 0. -1.
         24    2    1    2    0    0 -0.79509837681E+02  0.12028509430E+04 -0.46642226188E+03  0.12952422290E+04  0.83249625643E+02 0.  0.
        254    2    1    2    0    0  0.79509837681E+02 -0.12028509430E+04 -0.21240249833E+04  0.26060188464E+04  0.90921938640E+03 0.  0.
         23    2    4    4    0    0  0.38093211256E+03 -0.16603555580E+03 -0.55436133450E+03  0.69866832963E+03  0.90243368024E+02 0.  0.
         23    2    4    4    0    0 -0.30142227488E+03 -0.10368153872E+04 -0.15696636488E+04  0.19073505168E+04  0.91107016265E+02 0.  0.
          2    1    3    3  502    0  0.16319955382E+02  0.21087854382E+03 -0.71757475171E+02  0.22335003118E+03  0.00000000000E+00 0. -1.
         -1    1    3    3    0  502 -0.95829793063E+02  0.99197239917E+03 -0.39466478671E+03  0.10718921979E+04  0.00000000000E+00 0.  1.
         11    1    5    5    0    0  0.36149193274E+03 -0.15622076086E+03 -0.55001784212E+03  0.67646209813E+03  0.00000000000E+00 0. -1.
        -11    1    5    5    0    0  0.19440179825E+02 -0.98147949358E+01 -0.43434923751E+01  0.22206231497E+02  0.00000000000E+00 0.  1.
          1    1    6    6  503    0 -0.29996128724E+03 -0.10217609372E+04 -0.15618398386E+04  0.18903216308E+04  0.00000000000E+00 0. -1.
         -1    1    6    6    0  503 -0.14609876403E+01 -0.15054449964E+02 -0.78238102617E+01  0.17028885918E+02  0.00000000000E+00 0.  1.
<mgrwt>
<rscale>  0 0.29170912E+04</rscale>
<asrwt>0</asrwt>
<pdfrwt beam="1">  1        2 0.49936217E+00 0.29170912E+04</pdfrwt>
<pdfrwt beam="2">  1       -1 0.10083183E+00 0.29170912E+04</pdfrwt>
<totfact> 0.11073814E+00</totfact>
</mgrwt>
</event>
<event>
12    6  0.1538774E-007  0.1551469E+04  0.7818608E-02  0.8850930E-01
          2   -1    0    0  501    0  0.00000000000E+00  0.00000000000E+00  0.23635181190E+04  0.23635181190E+04  0.00000000000E+00 0. -1.
         -1   -1    0    0    0  501 -0.00000000000E+00 -0.00000000000E+00 -0.25460525154E+03  0.25460525154E+03  0.00000000000E+00 0.  1.
         24    2    1    2    0    0 -0.27347864550E+03  0.37205739077E+03  0.34063085698E+03  0.57905947250E+03  0.77866683495E+02 0.  0.
        254    2    1    2    0    0  0.27347864550E+03 -0.37205739077E+03  0.17682820105E+04  0.20390638981E+04  0.90429145753E+03 0.  0.
         23    2    4    4    0    0  0.50757870174E+03 -0.50203043078E+03  0.14077064844E+04  0.15809042664E+04  0.89163116933E+02 0.  0.
         23    2    4    4    0    0 -0.23410005624E+03  0.12997304001E+03  0.36057552613E+03  0.45815963168E+03  0.90552253434E+02 0.  0.
          4    1    3    3  502    0 -0.65382603766E+02  0.15107670748E+03  0.12596048534E+03  0.20728024577E+03  0.00000000000E+00 0. -1.
         -1    1    3    3    0  502 -0.20809604174E+03  0.22098068329E+03  0.21467037164E+03  0.37177922674E+03  0.00000000000E+00 0.  1.
         11    1    5    5    0    0  0.43029982164E+03 -0.38224604685E+03  0.11653124515E+04  0.12997011528E+04  0.00000000000E+00 0. -1.
        -11    1    5    5    0    0  0.77278880105E+02 -0.11978438393E+03  0.24239403287E+03  0.28120311363E+03  0.00000000000E+00 0.  1.
          3    1    6    6  503    0 -0.22868841054E+03  0.14181109301E+03  0.34936230952E+03  0.44097936293E+03  0.00000000000E+00 0. -1.
         -3    1    6    6    0  503 -0.54116456944E+01 -0.11838052993E+02  0.11213216609E+02  0.17180268755E+02  0.00000000000E+00 0.  1.
<mgrwt>
<rscale>  0 0.15514691E+04</rscale>
<asrwt>0</asrwt>
<pdfrwt beam="1">  1        2 0.36361816E+00 0.15514691E+04</pdfrwt>
<pdfrwt beam="2">  1       -1 0.39170040E-01 0.15514691E+04</pdfrwt>
<totfact> 0.28986643E+01</totfact>
</mgrwt>
</event>
<event>
12    6  0.1538774E-007  0.1538775E+04  0.7818608E-02  0.8859070E-01
          2   -1    0    0  501    0  0.00000000000E+00  0.00000000000E+00  0.35530293395E+03  0.35530293395E+03  0.00000000000E+00 0. -1.
         -1   -1    0    0    0  501 -0.00000000000E+00 -0.00000000000E+00 -0.16660630446E+04  0.16660630446E+04  0.00000000000E+00 0.  1.
         24    2    1    2    0    0 -0.24971596546E+01  0.31562347017E+03  0.88333458336E+02  0.33676684912E+03  0.77360843293E+02 0.  0.
        254    2    1    2    0    0  0.24971596546E+01 -0.31562347017E+03 -0.13990935690E+04  0.16845991295E+04  0.88362152611E+03 0.  0.
         23    2    4    4    0    0 -0.46761773374E+02  0.23308636360E+03 -0.90179612405E+03  0.93697818368E+03  0.90420965458E+02 0.  0.
         23    2    4    4    0    0  0.49258933028E+02 -0.54870983377E+03 -0.49729744497E+03  0.74762094579E+03  0.90129937578E+02 0.  0.
          4    1    3    3  502    0  0.29521090782E+02  0.23900885551E+03  0.77718796244E+02  0.25305520960E+03  0.00000000000E+00 0. -1.
         -3    1    3    3    0  502 -0.32018250436E+02  0.76614614659E+02  0.10614662092E+02  0.83711639523E+02  0.00000000000E+00 0.  1.
         11    1    5    5    0    0  0.17105485944E+02  0.37436300924E+02 -0.25284493743E+03  0.25617305999E+03  0.00000000000E+00 0.  1.
        -11    1    5    5    0    0 -0.63867259317E+02  0.19565006268E+03 -0.64895118662E+03  0.68080512370E+03  0.00000000000E+00 0. -1.
          2    1    6    6  503    0  0.50599714253E+02 -0.13203197928E+03 -0.13396485564E+03  0.19478027924E+03  0.00000000000E+00 0. -1.
         -2    1    6    6    0  503 -0.13407812254E+01 -0.41667785450E+03 -0.36333258933E+03  0.55284066655E+03  0.00000000000E+00 0.  1.
<mgrwt>
<rscale>  0 0.15387750E+04</rscale>
<asrwt>0</asrwt>
<pdfrwt beam="1">  1        2 0.54661989E-01 0.15387750E+04</pdfrwt>
<pdfrwt beam="2">  1       -1 0.25631740E+00 0.15387750E+04</pdfrwt>
<totfact> 0.63561052E+00</totfact>
</mgrwt>
</event>
<event>
12    6  0.1538774E-007  0.2267825E+04  0.7818608E-02  0.8490716E-01
         -3   -1    0    0    0  501 -0.00000000000E+00  0.00000000000E+00  0.85083188845E+03  0.85083188845E+03  0.00000000000E+00 0.  1.
          2   -1    0    0  501    0  0.00000000000E+00 -0.00000000000E+00 -0.15111766396E+04  0.15111766396E+04  0.00000000000E+00 0. -1.
         24    2    1    2    0    0 -0.78510714942E+02  0.93259643326E+03 -0.47660454579E+03  0.10525608745E+04  0.69515910685E+02 0.  0.
        254    2    1    2    0    0  0.78510714942E+02 -0.93259643326E+03 -0.18374020534E+03  0.13094476535E+04  0.89721382875E+03 0.  0.
         23    2    4    4    0    0 -0.12424129509E+02 -0.10714674445E+04 -0.50503234355E+02  0.10766352379E+04  0.91629772078E+02 0.  0.
         23    2    4    4    0    0  0.90934844451E+02  0.13887101126E+03 -0.13323697098E+03  0.23281241560E+03  0.94314509583E+02 0.  0.
          2    1    3    3  502    0 -0.79700855226E+02  0.90208959150E+03 -0.47337104561E+03  0.10218600708E+04  0.00000000000E+00 0. -1.
         -1    1    3    3    0  502  0.11901402835E+01  0.30506841762E+02 -0.32335001787E+01  0.30700803761E+02  0.00000000000E+00 0.  1.
         11    1    5    5    0    0 -0.49000254704E+02 -0.68436036542E+03 -0.16352095471E+02  0.68630716574E+03  0.00000000000E+00 0. -1.
        -11    1    5    5    0    0  0.36576125195E+02 -0.38710707910E+03 -0.34151138884E+02  0.39032807216E+03  0.00000000000E+00 0.  1.
          2    1    6    6  503    0  0.22932034299E+02 -0.21416159074E+01  0.54457965873E+01  0.23666884380E+02  0.00000000000E+00 0. -1.
         -2    1    6    6    0  503  0.68002810153E+02  0.14101262717E+03 -0.13868276757E+03  0.20914553122E+03  0.00000000000E+00 0.  1.
<mgrwt>
<rscale>  0 0.22678247E+04</rscale>
<asrwt>0</asrwt>
<pdfrwt beam="1">  1        2 0.23248871E+00 0.22678247E+04</pdfrwt>
<pdfrwt beam="2">  1       -3 0.13089722E+00 0.22678247E+04</pdfrwt>
<totfact> 0.32923531E+00</totfact>
</mgrwt>
</event>
<event>
12    6  0.1538774E-007  0.2470658E+04  0.7818608E-02  0.8413514E-01
          2   -1    0    0  501    0  0.00000000000E+00  0.00000000000E+00  0.15655700103E+04  0.15655700103E+04  0.00000000000E+00 0. -1.
         -1   -1    0    0    0  501 -0.00000000000E+00 -0.00000000000E+00 -0.97474934793E+03  0.97474934793E+03  0.00000000000E+00 0.  1.
         24    2    1    2    0    0  0.91442791555E+02 -0.36393990057E+03 -0.76992028215E+03  0.86030892551E+03  0.80871324283E+02 0.  0.
        254    2    1    2    0    0 -0.91442791555E+02  0.36393990057E+03  0.13607409446E+04  0.16800104328E+04  0.91104615724E+03 0.  0.
         23    2    4    4    0    0 -0.30530240660E+03  0.13298121729E+03  0.75916320196E+02  0.35392501621E+03  0.92768883798E+02 0.  0.
         23    2    4    4    0    0  0.21385961504E+03  0.23095868328E+03  0.12848246244E+04  0.13260854166E+04  0.93007356074E+02 0.  0.
          4    1    3    3  502    0  0.50150036132E+02 -0.81194025207E+02 -0.15130360558E+03  0.17888621220E+03  0.00000000000E+00 0. -1.
         -3    1    3    3    0  502  0.41292755423E+02 -0.28274587536E+03 -0.61861667657E+03  0.68142271331E+03  0.00000000000E+00 0.  1.
         11    1    5    5    0    0 -0.32350212415E+02 -0.12400472494E+02  0.18874607743E+02  0.39453248014E+02  0.00000000000E+00 0. -1.
        -11    1    5    5    0    0 -0.27295219418E+03  0.14538168978E+03  0.57041712452E+02  0.31447176820E+03  0.00000000000E+00 0.  1.
          1    1    6    6  503    0  0.13762303273E+03  0.17146873164E+03  0.71262297046E+03  0.74577015434E+03  0.00000000000E+00 0. -1.
         -1    1    6    6    0  503  0.76236582312E+02  0.59489951635E+02  0.57220165391E+03  0.58031526222E+03  0.00000000000E+00 0.  1.
<mgrwt>
<rscale>  0 0.24706585E+04</rscale>
<asrwt>0</asrwt>
<pdfrwt beam="1">  1        2 0.24085692E+00 0.24706585E+04</pdfrwt>
<pdfrwt beam="2">  1       -1 0.14996144E+00 0.24706585E+04</pdfrwt>
<totfact> 0.41447479E+00</totfact>
</mgrwt>
</event>
<event>
12    6  0.1538774E-007  0.1386607E+04  0.7818608E-02  0.8963571E-01
         -1   -1    0    0    0  501 -0.00000000000E+00  0.00000000000E+00  0.20754892391E+03  0.20754892391E+03  0.00000000000E+00 0.  1.
          2   -1    0    0  501    0  0.00000000000E+00 -0.00000000000E+00 -0.23159336098E+04  0.23159336098E+04  0.00000000000E+00 0. -1.
         24    2    1    2    0    0  0.37745574164E+03 -0.65911812578E+02 -0.91989654770E+03  0.99998871749E+03  0.83370094767E+02 0.  0.
        254    2    1    2    0    0 -0.37745574164E+03  0.65911812578E+02 -0.11884881382E+04  0.15234938162E+04  0.87276122138E+03 0.  0.
         23    2    4    4    0    0 -0.10782089623E+02 -0.11125003287E+03 -0.10810609420E+04  0.10906290912E+04  0.91028737201E+02 0.  0.
         23    2    4    4    0    0 -0.36667365202E+03  0.17716184545E+03 -0.10742719618E+03  0.43286472501E+03  0.99976902883E+02 0.  0.
          4    1    3    3  502    0  0.18455134486E+02  0.17400128867E+01 -0.10947826586E+03  0.11103652701E+03  0.00000000000E+00 0. -1.
         -3    1    3    3    0  502  0.35900060716E+03 -0.67651825464E+02 -0.81041828184E+03  0.88895219049E+03  0.00000000000E+00 0.  1.
         11    1    5    5    0    0  0.33769922840E+02 -0.13581806969E+02 -0.31059600683E+03  0.31272152568E+03  0.00000000000E+00 0.  1.
        -11    1    5    5    0    0 -0.44552012463E+02 -0.97668225906E+02 -0.77046493520E+03  0.77790756555E+03  0.00000000000E+00 0. -1.
          2    1    6    6  503    0 -0.12523485402E+03  0.11256689895E+03 -0.28623107943E+02  0.17080502835E+03  0.00000000000E+00 0. -1.
         -2    1    6    6    0  503 -0.24143879800E+03  0.64594946507E+02 -0.78804088239E+02  0.26205969667E+03  0.00000000000E+00 0.  1.
<mgrwt>
<rscale>  0 0.13866067E+04</rscale>
<asrwt>0</asrwt>
<pdfrwt beam="1">  1        2 0.35629748E+00 0.13866067E+04</pdfrwt>
<pdfrwt beam="2">  1       -1 0.31930603E-01 0.13866067E+04</pdfrwt>
<totfact> 0.45138519E+01</totfact>
</mgrwt>
</event>
<event>
12    6  0.1538774E-007  0.1536858E+04  0.7818608E-02  0.8860306E-01
          2   -1    0    0  501    0  0.00000000000E+00  0.00000000000E+00  0.26677913386E+04  0.26677913386E+04  0.00000000000E+00 0. -1.
         -1   -1    0    0    0  501 -0.00000000000E+00 -0.00000000000E+00 -0.22133781015E+03  0.22133781015E+03  0.00000000000E+00 0.  1.
         24    2    1    2    0    0  0.39455987530E+03  0.27514058351E+03  0.53095445404E+03  0.72090715563E+03  0.80091565597E+02 0.  0.
        254    2    1    2    0    0 -0.39455987530E+03 -0.27514058351E+03  0.19154990744E+04  0.21682219931E+04  0.89480169396E+03 0.  0.
         23    2    4    4    0    0 -0.11954461819E+03  0.57736444578E+02 -0.35216660097E+02  0.16777507238E+03  0.96352732147E+02 0.  0.
         23    2    4    4    0    0 -0.27501525711E+03 -0.33287702808E+03  0.19507157345E+04  0.20004469207E+04  0.10027710812E+03 0.  0.
          2    1    3    3  502    0  0.13747802946E+03  0.63326200865E+02  0.12905226576E+03  0.19890928485E+03  0.00000000000E+00 0. -1.
         -1    1    3    3    0  502  0.25708184584E+03  0.21181438264E+03  0.40190218828E+03  0.52199787078E+03  0.00000000000E+00 0.  1.
         11    1    5    5    0    0 -0.10399722456E+03  0.14825881581E+02 -0.54362662806E+02  0.11828156487E+03  0.00000000000E+00 0. -1.
        -11    1    5    5    0    0 -0.15547393625E+02  0.42910562997E+02  0.19146002709E+02  0.49493507503E+02  0.00000000000E+00 0.  1.
          1    1    6    6  503    0 -0.25329128443E+03 -0.33655987363E+03  0.18579468516E+04  0.19050972487E+04  0.00000000000E+00 0. -1.
         -1    1    6    6    0  503 -0.21723972687E+02  0.36828455475E+01  0.92768882840E+02  0.95349672071E+02  0.00000000000E+00 0.  1.
<mgrwt>
<rscale>  0 0.15368580E+04</rscale>
<asrwt>0</asrwt>
<pdfrwt beam="1">  1        2 0.41042941E+00 0.15368580E+04</pdfrwt>
<pdfrwt beam="2">  1       -1 0.34051973E-01 0.15368580E+04</pdfrwt>
<totfact> 0.24914118E+01</totfact>
</mgrwt>
</event>
<event>
12    6  0.1538774E-007  0.1464768E+04  0.7818608E-02  0.8908226E-01
          2   -1    0    0  501    0  0.00000000000E+00  0.00000000000E+00  0.20984161183E+04  0.20984161183E+04  0.00000000000E+00 0. -1.
         -1   -1    0    0    0  501 -0.00000000000E+00 -0.00000000000E+00 -0.25561471861E+03  0.25561471861E+03  0.00000000000E+00 0.  1.
         24    2    1    2    0    0  0.20718060412E+03  0.27626525617E+03  0.94092794699E+03  0.10062231111E+04  0.88843983486E+02 0.  0.
        254    2    1    2    0    0 -0.20718060412E+03 -0.27626525617E+03  0.90187345273E+03  0.13478077258E+04  0.94019340916E+03 0.  0.
         23    2    4    4    0    0  0.14245268479E+03  0.28536492775E+03  0.34316107202E+03  0.47703842375E+03  0.89890082864E+02 0.  0.
         23    2    4    4    0    0 -0.34963328891E+03 -0.56163018391E+03  0.55871238072E+03  0.87076930209E+03  0.91693799689E+02 0.  0.
          2    1    3    3  502    0  0.14944515255E+03  0.23143083734E+03  0.81865941725E+03  0.86376925596E+03  0.00000000000E+00 0. -1.
         -1    1    3    3    0  502  0.57735451573E+02  0.44834418831E+02  0.12226852974E+03  0.14245385514E+03  0.00000000000E+00 0.  1.
         11    1    5    5    0    0  0.20615547245E+02  0.75950513570E+02  0.37993232767E+02  0.87389742166E+02  0.00000000000E+00 0.  1.
        -11    1    5    5    0    0  0.12183713755E+03  0.20941441418E+03  0.30516783925E+03  0.38964868159E+03  0.00000000000E+00 0. -1.
          2    1    6    6  503    0 -0.35110309773E+03 -0.56414304147E+03  0.55353878519E+03  0.86483289899E+03  0.00000000000E+00 0. -1.
         -2    1    6    6    0  503  0.14698088122E+01  0.25128575585E+01  0.51735955316E+01  0.59364031011E+01  0.00000000000E+00 0.  1.
<mgrwt>
<rscale>  0 0.14647676E+04</rscale>
<asrwt>0</asrwt>
<pdfrwt beam="1">  1        2 0.32283324E+00 0.14647676E+04</pdfrwt>
<pdfrwt beam="2">  1       -1 0.39325343E-01 0.14647676E+04</pdfrwt>
<totfact> 0.40855722E+01</totfact>
</mgrwt>
</event>
<event>
12    6  0.1538774E-007  0.2214767E+04  0.7818608E-02  0.8512307E-01
         -1   -1    0    0    0  501 -0.00000000000E+00  0.00000000000E+00  0.14261278729E+04  0.14261278729E+04  0.00000000000E+00 0.  1.
          2   -1    0    0  501    0  0.00000000000E+00 -0.00000000000E+00 -0.85987923141E+03  0.85987923141E+03  0.00000000000E+00 0. -1.
         24    2    1    2    0    0  0.66811493533E+02  0.19222832453E+03  0.11665052055E+04  0.11868117033E+04  0.79825560893E+02 0.  0.
        254    2    1    2    0    0 -0.66811493533E+02 -0.19222832453E+03 -0.60025656405E+03  0.10991954010E+04  0.89805739373E+03 0.  0.
         23    2    4    4    0    0 -0.15351489624E+03 -0.49938726621E+03 -0.54891734423E+03  0.76286786870E+03  0.87764852223E+02 0.  0.
         23    2    4    4    0    0  0.86703402708E+02  0.30715894167E+03 -0.51339219824E+02  0.33632753228E+03  0.92824554870E+02 0.  0.
          4    1    3    3  502    0  0.54735161859E+02  0.63586850322E+02  0.33604775241E+03  0.34636298500E+03  0.00000000000E+00 0. -1.
         -3    1    3    3    0  502  0.12076331674E+02  0.12864147421E+03  0.83045745309E+03  0.84044871828E+03  0.00000000000E+00 0.  1.
         11    1    5    5    0    0 -0.15378852953E+03 -0.50307859589E+03 -0.54545322088E+03  0.75779825919E+03  0.00000000000E+00 0.  1.
        -11    1    5    5    0    0  0.27363328812E+00  0.36913296874E+01 -0.34641233416E+01  0.50696095080E+01  0.00000000000E+00 0. -1.
          4    1    6    6  503    0 -0.20268232691E+01  0.12578283625E+03  0.74705009978E+01  0.12602078516E+03  0.00000000000E+00 0. -1.
         -4    1    6    6    0  503  0.88730225977E+02  0.18137610542E+03 -0.58809720822E+02  0.21030674712E+03  0.00000000000E+00 0.  1.
<mgrwt>
<rscale>  0 0.22147666E+04</rscale>
<asrwt>0</asrwt>
<pdfrwt beam="1">  1        2 0.13228911E+00 0.22147666E+04</pdfrwt>
<pdfrwt beam="2">  1       -1 0.21940429E+00 0.22147666E+04</pdfrwt>
<totfact> 0.36132785E+00</totfact>
</mgrwt>
</event>
<event>
12    6  0.1538774E-007  0.1403396E+04  0.7818608E-02  0.8951364E-01
          2   -1    0    0  501    0  0.00000000000E+00  0.00000000000E+00  0.82264949889E+03  0.82264949889E+03  0.00000000000E+00 0. -1.
         -1   -1    0    0    0  501 -0.00000000000E+00 -0.00000000000E+00 -0.59852989498E+03  0.59852989498E+03  0.00000000000E+00 0.  1.
         24    2    1    2    0    0  0.17289751759E+03  0.16021809026E+03  0.40315306504E+03  0.47386395245E+03  0.80319758158E+02 0.  0.
        254    2    1    2    0    0 -0.17289751759E+03 -0.16021809026E+03 -0.17903346113E+03  0.94731544142E+03  0.89988342429E+03 0.  0.
         23    2    4    4    0    0 -0.32045718649E+03 -0.18018244772E+02  0.28043832119E+03  0.43596022754E+03  0.91641707152E+02 0.  0.
         23    2    4    4    0    0  0.14755966890E+03 -0.14219984549E+03 -0.45947178232E+03  0.51135521387E+03  0.91516031729E+02 0.  0.
          2    1    3    3  502    0  0.12992089821E+03  0.86408194433E+02  0.31265160914E+03  0.34942358900E+03  0.00000000000E+00 0. -1.
         -1    1    3    3    0  502  0.42976619378E+02  0.73809895826E+02  0.90501455901E+02  0.12444036345E+03  0.00000000000E+00 0.  1.
         11    1    5    5    0    0 -0.29202055360E+03 -0.37074592217E+02  0.27179784288E+03  0.40065520901E+03  0.00000000000E+00 0. -1.
        -11    1    5    5    0    0 -0.28436632893E+02  0.19056347445E+02  0.86404783069E+01  0.35305018533E+02  0.00000000000E+00 0.  1.
          2    1    6    6  503    0  0.10549396940E+03 -0.88316205648E+02 -0.39142970075E+03  0.41490473652E+03  0.00000000000E+00 0. -1.
         -2    1    6    6    0  503  0.42065699504E+02 -0.53883639838E+02 -0.68042081576E+02  0.96450477356E+02  0.00000000000E+00 0.  1.
<mgrwt>
<rscale>  0 0.14033963E+04</rscale>
<asrwt>0</asrwt>
<pdfrwt beam="1">  1        2 0.12656146E+00 0.14033963E+04</pdfrwt>
<pdfrwt beam="2">  1       -1 0.92081522E-01 0.14033963E+04</pdfrwt>
<totfact> 0.42338773E+01</totfact>
</mgrwt>
</event>
<event>
12    6  0.1538774E-007  0.1424665E+04  0.7818608E-02  0.8936156E-01
         -1   -1    0    0    0  501 -0.00000000000E+00  0.00000000000E+00  0.10505893382E+04  0.10505893382E+04  0.00000000000E+00 0.  1.
          2   -1    0    0  501    0  0.00000000000E+00 -0.00000000000E+00 -0.48298366634E+03  0.48298366634E+03  0.00000000000E+00 0. -1.
         24    2    1    2    0    0  0.35520849520E+03 -0.44309692119E+02  0.48311898466E+03  0.60642893942E+03  0.78839592569E+02 0.  0.
        254    2    1    2    0    0 -0.35520849520E+03  0.44309692119E+02  0.84486687250E+02  0.92714406516E+03  0.85107090971E+03 0.  0.
         23    2    4    4    0    0 -0.50585689587E+03  0.21272021589E+03  0.27185995915E+03  0.61898225536E+03  0.89945014976E+02 0.  0.
         23    2    4    4    0    0  0.15064840068E+03 -0.16841052377E+03 -0.18737327190E+03  0.30816180979E+03  0.93797189998E+02 0.  0.
          2    1    3    3  502    0  0.17605397191E+03 -0.22715563863E+02  0.17446382589E+03  0.24889480591E+03  0.00000000000E+00 0. -1.
         -1    1    3    3    0  502  0.17915452329E+03 -0.21594128255E+02  0.30865515877E+03  0.35753413351E+03  0.00000000000E+00 0.  1.
         11    1    5    5    0    0 -0.82417562608E+02  0.78960172746E+01  0.64377746789E+02  0.10487848205E+03  0.00000000000E+00 0. -1.
        -11    1    5    5    0    0 -0.42343933326E+03  0.20482419861E+03  0.20748221236E+03  0.51410377332E+03  0.00000000000E+00 0.  1.
          4    1    6    6  503    0  0.22769327248E+02 -0.86222331389E+02 -0.45003869011E+02  0.99890344475E+02  0.00000000000E+00 0. -1.
         -4    1    6    6    0  503  0.12787907343E+03 -0.82188192380E+02 -0.14236940289E+03  0.20827146532E+03  0.00000000000E+00 0.  1.
<mgrwt>
<rscale>  0 0.14246649E+04</rscale>
<asrwt>0</asrwt>
<pdfrwt beam="1">  1        2 0.74305180E-01 0.14246649E+04</pdfrwt>
<pdfrwt beam="2">  1       -1 0.16162913E+00 0.14246649E+04</pdfrwt>
<totfact> 0.20231514E+01</totfact>
</mgrwt>
</event>
<event>
12    6  0.1538774E-007  0.1421498E+04  0.7818608E-02  0.8938403E-01
          2   -1    0    0  501    0  0.00000000000E+00  0.00000000000E+00  0.14393865074E+04  0.14393865074E+04  0.00000000000E+00 0. -1.
         -1   -1    0    0    0  501 -0.00000000000E+00 -0.00000000000E+00 -0.35095783333E+03  0.35095783333E+03  0.00000000000E+00 0.  1.
         24    2    1    2    0    0 -0.31600471122E+03 -0.10946271624E+03  0.48394642896E+03  0.59361765157E+03  0.79603432018E+02 0.  0.
        254    2    1    2    0    0  0.31600471122E+03  0.10946271624E+03  0.60448224509E+03  0.11967266891E+04  0.97719748266E+03 0.  0.
         23    2    4    4    0    0  0.58672201209E+03  0.21994128026E+03  0.15309079747E+03  0.65137483770E+03  0.90749659382E+02 0.  0.
         23    2    4    4    0    0 -0.27071730087E+03 -0.11047856402E+03  0.45139144763E+03  0.54535185145E+03  0.90338434756E+02 0.  0.
          4    1    3    3  502    0 -0.30395656576E+03 -0.11904108520E+03  0.47309118830E+03  0.57478312978E+03  0.00000000000E+00 0. -1.
         -3    1    3    3    0  502 -0.12048145462E+02  0.95783689647E+01  0.10855240658E+02  0.18834521784E+02  0.00000000000E+00 0.  1.
         11    1    5    5    0    0  0.17622473887E+03  0.27937124039E+02  0.63740062193E+02  0.18946882861E+03  0.00000000000E+00 0. -1.
        -11    1    5    5    0    0  0.41049727323E+03  0.19200415622E+03  0.89350735277E+02  0.46190600908E+03  0.00000000000E+00 0.  1.
          1    1    6    6  503    0 -0.27857446976E+02  0.14496352047E+02  0.31775230577E+02  0.44674901823E+02  0.00000000000E+00 0. -1.
         -1    1    6    6    0  503 -0.24285985389E+03 -0.12497491606E+03  0.41961621705E+03  0.50067694963E+03  0.00000000000E+00 0.  1.
<mgrwt>
<rscale>  0 0.14214978E+04</rscale>
<asrwt>0</asrwt>
<pdfrwt beam="1">  1        2 0.22144407E+00 0.14214978E+04</pdfrwt>
<pdfrwt beam="2">  1       -1 0.53993514E-01 0.14214978E+04</pdfrwt>
<totfact> 0.52688569E+01</totfact>
</mgrwt>
</event>
<event>
12    6  0.1538774E-007  0.2139213E+04  0.7818608E-02  0.8544164E-01
          2   -1    0    0  501    0  0.00000000000E+00  0.00000000000E+00  0.11352690504E+04  0.11352690504E+04  0.00000000000E+00 0. -1.
         -1   -1    0    0    0  501 -0.00000000000E+00 -0.00000000000E+00 -0.10077415476E+04  0.10077415476E+04  0.00000000000E+00 0.  1.
         24    2    1    2    0    0 -0.63771875054E+03 -0.23632840054E+03 -0.50189627554E+03  0.84899982711E+03  0.79777925238E+02 0.  0.
        254    2    1    2    0    0  0.63771875054E+03  0.23632840054E+03  0.62942377832E+03  0.12940107709E+04  0.90319060271E+03 0.  0.
         23    2    4    4    0    0  0.25784312071E+03 -0.94549707052E+02  0.71858060990E+03  0.77455766457E+03  0.90325859025E+02 0.  0.
         23    2    4    4    0    0  0.37987562983E+03  0.33087810759E+03 -0.89156831585E+02  0.51945310634E+03  0.89982069586E+02 0.  0.
          4    1    3    3  502    0 -0.71423139040E+02 -0.50748002775E+01 -0.36372382908E+02  0.80311696699E+02  0.00000000000E+00 0. -1.
         -3    1    3    3    0  502 -0.56629561150E+03 -0.23125360026E+03 -0.46552389263E+03  0.76868813041E+03  0.00000000000E+00 0.  1.
         11    1    5    5    0    0  0.11042477789E+03 -0.35395180128E+01  0.35529202084E+03  0.37207335276E+03  0.00000000000E+00 0.  1.
        -11    1    5    5    0    0  0.14741834281E+03 -0.91010189039E+02  0.36328858906E+03  0.40248431181E+03  0.00000000000E+00 0. -1.
          1    1    6    6  503    0  0.29907468886E+03  0.22357282391E+03 -0.36529336823E+02  0.37518644639E+03  0.00000000000E+00 0. -1.
         -1    1    6    6    0  503  0.80800940968E+02  0.10730528368E+03 -0.52627494762E+02  0.14426665995E+03  0.00000000000E+00 0.  1.
<mgrwt>
<rscale>  0 0.21392127E+04</rscale>
<asrwt>0</asrwt>
<pdfrwt beam="1">  1        2 0.17465678E+00 0.21392127E+04</pdfrwt>
<pdfrwt beam="2">  1       -1 0.15503716E+00 0.21392127E+04</pdfrwt>
<totfact> 0.69236104E+00</totfact>
</mgrwt>
</event>
<event>
12    6  0.1538774E-007  0.2411066E+04  0.7818608E-02  0.8435372E-01
         -3   -1    0    0    0  501 -0.00000000000E+00  0.00000000000E+00  0.14149664826E+04  0.14149664826E+04  0.00000000000E+00 0.  1.
          2   -1    0    0  501    0  0.00000000000E+00 -0.00000000000E+00 -0.10270981052E+04  0.10270981052E+04  0.00000000000E+00 0. -1.
         24    2    1    2    0    0  0.23407320924E+03  0.71455601508E+03  0.87580989164E+03  0.11570518077E+04  0.79657726553E+02 0.  0.
        254    2    1    2    0    0 -0.23407320924E+03 -0.71455601508E+03 -0.48794151422E+03  0.12850127801E+04  0.92075531922E+03 0.  0.
         23    2    4    4    0    0  0.19487270651E+03 -0.71006768590E+03 -0.37333037803E+03  0.83168941718E+03  0.10079794242E+03 0.  0.
         23    2    4    4    0    0 -0.42894591575E+03 -0.44883291832E+01 -0.11461113620E+03  0.45332336297E+03  0.91387171612E+02 0.  0.
          2    1    3    3  502    0  0.19475058943E+03  0.55332275863E+03  0.63369343630E+03  0.86351678531E+03  0.00000000000E+00 0. -1.
         -1    1    3    3    0  502  0.39322619812E+02  0.16123325645E+03  0.24211645534E+03  0.29353502237E+03  0.00000000000E+00 0.  1.
         11    1    5    5    0    0  0.55991044514E+02 -0.38849515630E+03 -0.21088006557E+03  0.44557141469E+03  0.00000000000E+00 0.  1.
        -11    1    5    5    0    0  0.13888166199E+03 -0.32157252959E+03 -0.16245031246E+03  0.38611800249E+03  0.00000000000E+00 0. -1.
          3    1    6    6  503    0 -0.11140358086E+03 -0.41544134075E+02 -0.30638573300E+02  0.12278190045E+03  0.00000000000E+00 0. -1.
         -3    1    6    6    0  503 -0.31754233489E+03  0.37055804892E+02 -0.83972562896E+02  0.33054146252E+03  0.00000000000E+00 0.  1.
<mgrwt>
<rscale>  0 0.24110657E+04</rscale>
<asrwt>0</asrwt>
<pdfrwt beam="1">  1        2 0.15801509E+00 0.24110657E+04</pdfrwt>
<pdfrwt beam="2">  1       -3 0.21768715E+00 0.24110657E+04</pdfrwt>
<totfact> 0.15548435E+00</totfact>
</mgrwt>
</event>
<event>
12    6  0.1538774E-007  0.1760158E+04  0.7818608E-02  0.8727779E-01
          2   -1    0    0  501    0  0.00000000000E+00  0.00000000000E+00  0.25610670923E+04  0.25610670923E+04  0.00000000000E+00 0. -1.
         -1   -1    0    0    0  501 -0.00000000000E+00 -0.00000000000E+00 -0.30242813164E+03  0.30242813164E+03  0.00000000000E+00 0.  1.
         24    2    1    2    0    0  0.22691852486E+01  0.57867692559E+02 -0.20696288676E+03  0.23014084358E+03  0.82324676383E+02 0.  0.
        254    2    1    2    0    0 -0.22691852486E+01 -0.57867692559E+02  0.24656018474E+04  0.26333543804E+04  0.92304333783E+03 0.  0.
         23    2    4    4    0    0  0.19816446146E+03 -0.33414192384E+03  0.20459244964E+04  0.20845314533E+04  0.92435684204E+02 0.  0.
         23    2    4    4    0    0 -0.20043364671E+03  0.27627423128E+03  0.41967735103E+03  0.54882292708E+03  0.92609009906E+02 0.  0.
          4    1    3    3  502    0  0.10287127149E+01 -0.60351217965E+01  0.55261637443E+01  0.82473893249E+01  0.00000000000E+00 0. -1.
         -3    1    3    3    0  502  0.12404725338E+01  0.63902814356E+02 -0.21248905051E+03  0.22189345425E+03  0.00000000000E+00 0.  1.
         11    1    5    5    0    0  0.88870910991E+02 -0.94450600299E+02  0.85817934172E+03  0.86792323236E+03  0.00000000000E+00 0.  1.
        -11    1    5    5    0    0  0.10929355047E+03 -0.23969132355E+03  0.11877451547E+04  0.12166082209E+04  0.00000000000E+00 0. -1.
          3    1    6    6  503    0 -0.12588631354E+03  0.22667553948E+03  0.34885795165E+03  0.43466197736E+03  0.00000000000E+00 0. -1.
         -3    1    6    6    0  503 -0.74547333175E+02  0.49598691806E+02  0.70819399380E+02  0.11416094972E+03  0.00000000000E+00 0.  1.
<mgrwt>
<rscale>  0 0.17601576E+04</rscale>
<asrwt>0</asrwt>
<pdfrwt beam="1">  1        2 0.39401031E+00 0.17601576E+04</pdfrwt>
<pdfrwt beam="2">  1       -1 0.46527407E-01 0.17601576E+04</pdfrwt>
<totfact> 0.15936486E+01</totfact>
</mgrwt>
</event>
<event>
12    6  0.1538774E-007  0.1324431E+04  0.7818608E-02  0.9010412E-01
          2   -1    0    0  501    0  0.00000000000E+00  0.00000000000E+00  0.93368873347E+03  0.93368873347E+03  0.00000000000E+00 0. -1.
         -1   -1    0    0    0  501 -0.00000000000E+00 -0.00000000000E+00 -0.46967410119E+03  0.46967410119E+03  0.00000000000E+00 0.  1.
         24    2    1    2    0    0 -0.26876946196E+03 -0.17795474305E+03  0.19628270419E+03  0.38606330073E+03  0.81320710440E+02 0.  0.
        254    2    1    2    0    0  0.26876946196E+03  0.17795474305E+03  0.26773192809E+03  0.10172995339E+04  0.92699139272E+03 0.  0.
         23    2    4    4    0    0  0.39215719078E+03  0.25097238298E+03  0.52513058066E+03  0.70783412065E+03  0.92155392235E+02 0.  0.
         23    2    4    4    0    0 -0.12338772881E+03 -0.73017639930E+02 -0.25739865257E+03  0.30946541329E+03  0.94650242016E+02 0.  0.
          2    1    3    3  502    0 -0.15539829084E+03 -0.13579377559E+03  0.15556895189E+03  0.25843814942E+03  0.00000000000E+00 0. -1.
         -1    1    3    3    0  502 -0.11337117113E+03 -0.42160967466E+02  0.40713752295E+02  0.12762515131E+03  0.00000000000E+00 0.  1.
         11    1    5    5    0    0  0.19251141746E+03  0.11571685151E+03  0.18555885524E+03  0.29134708568E+03  0.00000000000E+00 0.  1.
        -11    1    5    5    0    0  0.19964577332E+03  0.13525553147E+03  0.33957172541E+03  0.41648703497E+03  0.00000000000E+00 0. -1.
          2    1    6    6  503    0 -0.46963996085E+01  0.18200829262E+02 -0.12958947795E+02  0.22831134073E+02  0.00000000000E+00 0. -1.
         -2    1    6    6    0  503 -0.11869132921E+03 -0.91218469192E+02 -0.24443970477E+03  0.28663427921E+03  0.00000000000E+00 0.  1.
<mgrwt>
<rscale>  0 0.13244311E+04</rscale>
<asrwt>0</asrwt>
<pdfrwt beam="1">  1        2 0.14364442E+00 0.13244311E+04</pdfrwt>
<pdfrwt beam="2">  1       -1 0.72257554E-01 0.13244311E+04</pdfrwt>
<totfact> 0.60068058E+01</totfact>
</mgrwt>
</event>
<event>
12    6  0.1538774E-007  0.1445000E+04  0.7818608E-02  0.8921875E-01
          2   -1    0    0  501    0  0.00000000000E+00  0.00000000000E+00  0.56957270146E+03  0.56957270146E+03  0.00000000000E+00 0. -1.
         -1   -1    0    0    0  501 -0.00000000000E+00 -0.00000000000E+00 -0.91648688558E+03  0.91648688558E+03  0.00000000000E+00 0.  1.
         24    2    1    2    0    0 -0.36151350125E+02  0.22563267511E+03 -0.58163503241E+03  0.62972719072E+03  0.77717434422E+02 0.  0.
        254    2    1    2    0    0  0.36151350125E+02 -0.22563267511E+03  0.23472084829E+03  0.85633239632E+03  0.79119799809E+03 0.  0.
         23    2    4    4    0    0 -0.30338648992E+03  0.34787632276E+02  0.27047559018E+03  0.41731446336E+03  0.87981673217E+02 0.  0.
         23    2    4    4    0    0  0.33953784004E+03 -0.26042030738E+03 -0.35754741894E+02  0.43901793296E+03  0.91398372940E+02 0.  0.
          4    1    3    3  502    0  0.14625576464E+02  0.77219806751E+02 -0.13329893354E+03  0.15474305065E+03  0.00000000000E+00 0. -1.
         -3    1    3    3    0  502 -0.50776926590E+02  0.14841286836E+03 -0.44833609887E+03  0.47498414007E+03  0.00000000000E+00 0.  1.
         11    1    5    5    0    0 -0.31941698145E+02  0.24633155431E+02  0.11343400903E+02  0.41901517525E+02  0.00000000000E+00 0. -1.
        -11    1    5    5    0    0 -0.27144479177E+03  0.10154476845E+02  0.25913218928E+03  0.37541294584E+03  0.00000000000E+00 0.  1.
          1    1    6    6  503    0  0.23685470521E+03 -0.13593898270E+03  0.28070101109E+01  0.27310700779E+03  0.00000000000E+00 0. -1.
         -1    1    6    6    0  503  0.10268313483E+03 -0.12448132469E+03 -0.38561752005E+02  0.16591092517E+03  0.00000000000E+00 0.  1.
<mgrwt>
<rscale>  0 0.14449995E+04</rscale>
<asrwt>0</asrwt>
<pdfrwt beam="1">  1        2 0.87626570E-01 0.14449995E+04</pdfrwt>
<pdfrwt beam="2">  1       -1 0.14099798E+00 0.14449995E+04</pdfrwt>
<totfact> 0.24091829E+01</totfact>
</mgrwt>
</event>
<event>
12    6  0.1538774E-007  0.1522130E+04  0.7818608E-02  0.8869869E-01
         -1   -1    0    0    0  501 -0.00000000000E+00  0.00000000000E+00  0.35497509289E+03  0.35497509289E+03  0.00000000000E+00 0.  1.
          2   -1    0    0  501    0  0.00000000000E+00 -0.00000000000E+00 -0.16317192317E+04  0.16317192317E+04  0.00000000000E+00 0. -1.
         24    2    1    2    0    0 -0.25940808129E+03  0.25873512411E+03 -0.83804850041E+03  0.91829315434E+03  0.81857261061E+02 0.  0.
        254    2    1    2    0    0  0.25940808129E+03 -0.25873512411E+03 -0.43869563839E+03  0.10684011702E+04  0.90265762077E+03 0.  0.
         23    2    4    4    0    0 -0.20663470913E+03 -0.38773987775E+03 -0.72126444827E+02  0.45472562082E+03  0.92374511496E+02 0.  0.
         23    2    4    4    0    0  0.46604279041E+03  0.12900475364E+03 -0.36656919356E+03  0.61367554941E+03  0.91578367086E+02 0.  0.
          4    1    3    3  502    0 -0.20455713067E+03  0.19457886235E+03 -0.55136114569E+03  0.61943818607E+03  0.00000000000E+00 0. -1.
         -3    1    3    3    0  502 -0.54850950613E+02  0.64156261763E+02 -0.28668735472E+03  0.29885496827E+03  0.00000000000E+00 0.  1.
         11    1    5    5    0    0 -0.10814739331E+03 -0.11225120869E+03 -0.35641583135E+02  0.15989532508E+03  0.00000000000E+00 0. -1.
        -11    1    5    5    0    0 -0.98487315812E+02 -0.27548866906E+03 -0.36484861691E+02  0.29483029574E+03  0.00000000000E+00 0.  1.
          4    1    6    6  503    0  0.49152541345E+02  0.52883428168E+01 -0.80641303190E+01  0.50089610582E+02  0.00000000000E+00 0. -1.
         -4    1    6    6    0  503  0.41689024907E+03  0.12371641082E+03 -0.35850506324E+03  0.56358593883E+03  0.00000000000E+00 0.  1.
<mgrwt>
<rscale>  0 0.15221297E+04</rscale>
<asrwt>0</asrwt>
<pdfrwt beam="1">  1        2 0.25103372E+00 0.15221297E+04</pdfrwt>
<pdfrwt beam="2">  1       -1 0.54611553E-01 0.15221297E+04</pdfrwt>
<totfact> 0.39850199E+01</totfact>
</mgrwt>
</event>
<event>
12    6  0.1538774E-007  0.1352371E+04  0.7818608E-02  0.8989035E-01
         -1   -1    0    0    0  501 -0.00000000000E+00  0.00000000000E+00  0.37382164067E+03  0.37382164067E+03  0.00000000000E+00 0.  1.
          2   -1    0    0  501    0  0.00000000000E+00 -0.00000000000E+00 -0.12231154196E+04  0.12231154196E+04  0.00000000000E+00 0. -1.
         24    2    1    2    0    0 -0.92264657458E+02 -0.27021498003E+03  0.47698610899E+02  0.29987805377E+03  0.78248240890E+02 0.  0.
        254    2    1    2    0    0  0.92264657458E+02  0.27021498003E+03 -0.89699238980E+03  0.12970590065E+04  0.89232158803E+03 0.  0.
         23    2    4    4    0    0  0.41411522390E+03  0.37701264992E+03 -0.66928325413E+03  0.87799092002E+03  0.96426264581E+02 0.  0.
         23    2    4    4    0    0 -0.32185056644E+03 -0.10679766989E+03 -0.22770913567E+03  0.41906808645E+03  0.93664727634E+02 0.  0.
          2    1    3    3  502    0 -0.47945180902E+02 -0.17763663600E+03 -0.58965254607E+01  0.18408770690E+03  0.00000000000E+00 0. -1.
         -1    1    3    3    0  502 -0.44319476557E+02 -0.92578344031E+02  0.53595136360E+02  0.11579034687E+03  0.00000000000E+00 0.  1.
         11    1    5    5    0    0  0.36689127929E+03  0.36620152110E+03 -0.62827155922E+03  0.81451698386E+03  0.00000000000E+00 0.  1.
        -11    1    5    5    0    0  0.47223944614E+02  0.10811128817E+02 -0.41011694912E+02  0.63473936153E+02  0.00000000000E+00 0. -1.
          1    1    6    6  503    0 -0.30164130990E+02  0.99375808488E+01 -0.12559384002E+01  0.31783764610E+02  0.00000000000E+00 0. -1.
         -1    1    6    6    0  503 -0.29168643545E+03 -0.11673525074E+03 -0.22645319727E+03  0.38728432184E+03  0.00000000000E+00 0.  1.
<mgrwt>
<rscale>  0 0.13523713E+04</rscale>
<asrwt>0</asrwt>
<pdfrwt beam="1">  1        2 0.18817160E+00 0.13523713E+04</pdfrwt>
<pdfrwt beam="2">  1       -1 0.57511022E-01 0.13523713E+04</pdfrwt>
<totfact> 0.62555032E+01</totfact>
</mgrwt>
</event>
<event>
12    6  0.1538774E-007  0.2035105E+04  0.7818608E-02  0.8590382E-01
          2   -1    0    0  501    0  0.00000000000E+00  0.00000000000E+00  0.25570013097E+04  0.25570013097E+04  0.00000000000E+00 0. -1.
         -1   -1    0    0    0  501 -0.00000000000E+00 -0.00000000000E+00 -0.40493259737E+03  0.40493259737E+03  0.00000000000E+00 0.  1.
         24    2    1    2    0    0  0.18879873009E+03 -0.45613822264E+03 -0.79418821673E+02  0.50643620974E+03  0.80394319860E+02 0.  0.
        254    2    1    2    0    0 -0.18879873009E+03  0.45613822264E+03  0.22314875340E+04  0.24554976973E+04  0.89790048922E+03 0.  0.
         23    2    4    4    0    0 -0.28128267979E+03 -0.86046453677E+02  0.15225873298E+04  0.15534288772E+04  0.91351855674E+02 0.  0.
         23    2    4    4    0    0  0.92483949698E+02  0.54218467632E+03  0.70890020414E+03  0.90206882006E+03  0.93119023380E+02 0.  0.
          4    1    3    3  502    0 -0.78072811825E+01 -0.27626036432E+02 -0.45420121357E+01  0.29065123476E+02  0.00000000000E+00 0. -1.
         -3    1    3    3    0  502  0.19660601128E+03 -0.42851218621E+03 -0.74876809538E+02  0.47737108627E+03  0.00000000000E+00 0.  1.
         11    1    5    5    0    0 -0.13203113092E+03  0.60677353152E+01  0.69616234512E+03  0.70859794503E+03  0.00000000000E+00 0. -1.
        -11    1    5    5    0    0 -0.14925154887E+03 -0.92114188993E+02  0.82642498472E+03  0.84483093221E+03  0.00000000000E+00 0.  1.
          1    1    6    6  503    0  0.79484649720E+02  0.43339099867E+03  0.50197483673E+03  0.66792537306E+03  0.00000000000E+00 0. -1.
         -1    1    6    6    0  503  0.12999299978E+02  0.10879367765E+03  0.20692536741E+03  0.23414344700E+03  0.00000000000E+00 0.  1.
<mgrwt>
<rscale>  0 0.20351051E+04</rscale>
<asrwt>0</asrwt>
<pdfrwt beam="1">  1        2 0.39338481E+00 0.20351051E+04</pdfrwt>
<pdfrwt beam="2">  1       -1 0.62297324E-01 0.20351051E+04</pdfrwt>
<totfact> 0.88932697E+00</totfact>
</mgrwt>
</event>
<event>
12    6  0.1538774E-007  0.2237049E+04  0.7818608E-02  0.8503164E-01
         -1   -1    0    0    0  501 -0.00000000000E+00  0.00000000000E+00  0.37803168439E+03  0.37803168439E+03  0.00000000000E+00 0.  1.
          2   -1    0    0  501    0  0.00000000000E+00 -0.00000000000E+00 -0.33095017584E+04  0.33095017584E+04  0.00000000000E+00 0. -1.
         24    2    1    2    0    0 -0.24570413497E+03 -0.80903765760E+03 -0.55289920583E+03  0.10133737566E+04  0.79475690084E+02 0.  0.
        254    2    1    2    0    0  0.24570413497E+03  0.80903765760E+03 -0.23785708682E+04  0.26741596863E+04  0.88239344920E+03 0.  0.
         23    2    4    4    0    0 -0.11046791591E+03 -0.69987588372E+02 -0.90581309162E+03  0.91997577279E+03  0.93576934179E+02 0.  0.
         23    2    4    4    0    0  0.35617205089E+03  0.87902524598E+03 -0.14727577766E+04  0.17541839135E+04  0.92746001915E+02 0.  0.
          4    1    3    3  502    0 -0.23620873478E+03 -0.70820693660E+03 -0.50516230219E+03  0.90141032998E+03  0.00000000000E+00 0. -1.
         -3    1    3    3    0  502 -0.94954001867E+01 -0.10083072100E+03 -0.47736903639E+02  0.11196342658E+03  0.00000000000E+00 0.  1.
         11    1    5    5    0    0 -0.29951666537E+02 -0.60096291100E+02 -0.59399957655E+03  0.59778270591E+03  0.00000000000E+00 0. -1.
        -11    1    5    5    0    0 -0.80516249378E+02 -0.98912972720E+01 -0.31181351506E+03  0.32219306689E+03  0.00000000000E+00 0.  1.
          3    1    6    6  503    0  0.15491286070E+03  0.44433764609E+03 -0.65605992081E+03  0.80737138780E+03  0.00000000000E+00 0. -1.
         -3    1    6    6    0  503  0.20125919019E+03  0.43468759989E+03 -0.81669785580E+03  0.94681252569E+03  0.00000000000E+00 0.  1.
<mgrwt>
<rscale>  0 0.22370485E+04</rscale>
<asrwt>0</asrwt>
<pdfrwt beam="1">  1        2 0.50915412E+00 0.22370485E+04</pdfrwt>
<pdfrwt beam="2">  1       -1 0.58158721E-01 0.22370485E+04</pdfrwt>
<totfact> 0.34167221E+00</totfact>
</mgrwt>
</event>
<event>
12    6  0.1538774E-007  0.1846245E+04  0.7818608E-02  0.8682086E-01
         -1   -1    0    0    0  501 -0.00000000000E+00  0.00000000000E+00  0.56712180967E+03  0.56712180967E+03  0.00000000000E+00 0.  1.
          2   -1    0    0  501    0  0.00000000000E+00 -0.00000000000E+00 -0.15025964764E+04  0.15025964764E+04  0.00000000000E+00 0. -1.
         24    2    1    2    0    0 -0.12178875226E+03  0.68688477011E+03 -0.14367040460E+03  0.71637539999E+03  0.76872237950E+02 0.  0.
        254    2    1    2    0    0  0.12178875226E+03 -0.68688477011E+03 -0.79180426213E+03  0.13533428861E+04  0.84731327747E+03 0.  0.
         23    2    4    4    0    0  0.38277900709E+03 -0.69792879179E+03 -0.46806898092E+03  0.92803857574E+03  0.92426513982E+02 0.  0.
         23    2    4    4    0    0 -0.26099025484E+03  0.11044021675E+02 -0.32373528121E+03  0.42530431033E+03  0.88551344179E+02 0.  0.
          2    1    3    3  502    0 -0.33434784476E+02  0.33989528114E+03 -0.98630539575E+02  0.35549215222E+03  0.00000000000E+00 0. -1.
         -1    1    3    3    0  502 -0.88353967781E+02  0.34698948897E+03 -0.45039865023E+02  0.36088324777E+03  0.00000000000E+00 0.  1.
         11    1    5    5    0    0  0.91528776993E+02 -0.14754739410E+03 -0.60719679545E+02  0.18394192020E+03  0.00000000000E+00 0.  1.
        -11    1    5    5    0    0  0.29125023010E+03 -0.55038139769E+03 -0.40734930138E+03  0.74409665554E+03  0.00000000000E+00 0. -1.
          1    1    6    6  503    0 -0.12966994840E+03 -0.27738545185E+02 -0.11422614953E+03  0.17501810090E+03  0.00000000000E+00 0. -1.
         -1    1    6    6    0  503 -0.13132030643E+03  0.38782566860E+02 -0.20950913168E+03  0.25028620943E+03  0.00000000000E+00 0.  1.
<mgrwt>
<rscale>  0 0.18462451E+04</rscale>
<asrwt>0</asrwt>
<pdfrwt beam="1">  1        2 0.23116869E+00 0.18462451E+04</pdfrwt>
<pdfrwt beam="2">  1       -1 0.87249509E-01 0.18462451E+04</pdfrwt>
<totfact> 0.17535293E+01</totfact>
</mgrwt>
</event>
<event>
12    6  0.1538774E-007  0.4570269E+04  0.7818608E-02  0.7898449E-01
          2   -1    0    0  501    0  0.00000000000E+00  0.00000000000E+00  0.28668754730E+04  0.28668754730E+04  0.00000000000E+00 0. -1.
         -1   -1    0    0    0  501 -0.00000000000E+00 -0.00000000000E+00 -0.18214389659E+04  0.18214389659E+04  0.00000000000E+00 0.  1.
         24    2    1    2    0    0 -0.16908844927E+03  0.58578646482E+03 -0.16624998368E+04  0.17726027315E+04  0.80486335066E+02 0.  0.
        254    2    1    2    0    0  0.16908844927E+03 -0.58578646482E+03  0.27079363439E+04  0.29157117074E+04  0.89259107784E+03 0.  0.
         23    2    4    4    0    0  0.18512385780E+03 -0.48377653914E+03  0.27277312667E+04  0.27778054277E+04  0.85875190687E+02 0.  0.
         23    2    4    4    0    0 -0.16035408531E+02 -0.10200992567E+03 -0.19794922804E+02  0.13790627972E+03  0.89236448571E+02 0.  0.
          4    1    3    3  502    0 -0.97588218139E+02  0.24549613147E+03 -0.63099752611E+03  0.68406848257E+03  0.00000000000E+00 0. -1.
         -3    1    3    3    0  502 -0.71500231128E+02  0.34029033334E+03 -0.10315023107E+04  0.10885342489E+04  0.00000000000E+00 0.  1.
         11    1    5    5    0    0  0.50603616869E+02 -0.13190174194E+03  0.96358508725E+03  0.97388655188E+03  0.00000000000E+00 0. -1.
        -11    1    5    5    0    0  0.13452024093E+03 -0.35187479721E+03  0.17641461794E+04  0.18039188758E+04  0.00000000000E+00 0.  1.
          3    1    6    6  503    0  0.27803284520E+02 -0.45025081508E+02  0.18982210977E+02  0.56219257630E+02  0.00000000000E+00 0. -1.
         -3    1    6    6    0  503 -0.43838693051E+02 -0.56984844166E+02 -0.38777133781E+02  0.81687022086E+02  0.00000000000E+00 0.  1.
<mgrwt>
<rscale>  0 0.45702686E+04</rscale>
<asrwt>0</asrwt>
<pdfrwt beam="1">  1        2 0.44105776E+00 0.45702686E+04</pdfrwt>
<pdfrwt beam="2">  1       -1 0.28022138E+00 0.45702686E+04</pdfrwt>
<totfact> 0.79941871E-02</totfact>
</mgrwt>
</event>
<event>
12    6  0.1538774E-007  0.1713942E+04  0.7818608E-02  0.8753452E-01
         -1   -1    0    0    0  501 -0.00000000000E+00  0.00000000000E+00  0.22876461361E+04  0.22876461361E+04  0.00000000000E+00 0.  1.
          2   -1    0    0  501    0  0.00000000000E+00 -0.00000000000E+00 -0.32102841941E+03  0.32102841941E+03  0.00000000000E+00 0. -1.
         24    2    1    2    0    0 -0.21016427853E+03  0.15499853713E+03 -0.15420513868E+03  0.31362903486E+03  0.79939828807E+02 0.  0.
        254    2    1    2    0    0  0.21016427853E+03 -0.15499853713E+03  0.21208228554E+04  0.22950455207E+04  0.83734747123E+03 0.  0.
         23    2    4    4    0    0 -0.19044879095E+03  0.74853025280E+02  0.14950110189E+04  0.15113145077E+04  0.84497794108E+02 0.  0.
         23    2    4    4    0    0  0.40061306948E+03 -0.22985156241E+03  0.62581183653E+03  0.78373101301E+03  0.96287454166E+02 0.  0.
          2    1    3    3  502    0 -0.21372815760E+03  0.14403753536E+03 -0.13429377584E+03  0.29062235836E+03  0.00000000000E+00 0. -1.
         -1    1    3    3    0  502  0.35638790746E+01  0.10961001772E+02 -0.19911362834E+02  0.23006676505E+02  0.00000000000E+00 0.  1.
         11    1    5    5    0    0 -0.17827340178E+03  0.90749429548E+02  0.13036434878E+04  0.13189022739E+04  0.00000000000E+00 0.  1.
        -11    1    5    5    0    0 -0.12175389171E+02 -0.15896404268E+02  0.19136753105E+03  0.19241223378E+03  0.00000000000E+00 0. -1.
          1    1    6    6  503    0  0.13146661193E+03 -0.26860239857E+02  0.19479064092E+03  0.23653400670E+03  0.00000000000E+00 0. -1.
         -1    1    6    6    0  503  0.26914645756E+03 -0.20299132256E+03  0.43102119562E+03  0.54719700631E+03  0.00000000000E+00 0.  1.
<mgrwt>
<rscale>  0 0.17139421E+04</rscale>
<asrwt>0</asrwt>
<pdfrwt beam="1">  1        2 0.49388989E-01 0.17139421E+04</pdfrwt>
<pdfrwt beam="2">  1       -1 0.35194555E+00 0.17139421E+04</pdfrwt>
<totfact> 0.16750413E+00</totfact>
</mgrwt>
</event>
<event>
12    6  0.1538774E-007  0.1185865E+04  0.7818608E-02  0.9125319E-01
         -1   -1    0    0    0  501 -0.00000000000E+00  0.00000000000E+00  0.48011556534E+03  0.48011556534E+03  0.00000000000E+00 0.  1.
          2   -1    0    0  501    0  0.00000000000E+00 -0.00000000000E+00 -0.73225926908E+03  0.73225926908E+03  0.00000000000E+00 0. -1.
         24    2    1    2    0    0 -0.14763722352E+03 -0.65234137472E+02 -0.22189513714E+03  0.28614409752E+03  0.81171116790E+02 0.  0.
        254    2    1    2    0    0  0.14763722352E+03  0.65234137472E+02 -0.30248566604E+02  0.92623073689E+03  0.91155699752E+03 0.  0.
         23    2    4    4    0    0  0.21958512388E+03 -0.64565724382E+02 -0.42739837852E+03  0.49315069355E+03  0.90232328969E+02 0.  0.
         23    2    4    4    0    0 -0.71947900363E+02  0.12979986185E+03  0.39714981191E+03  0.43308004335E+03  0.88350700830E+02 0.  0.
          4    1    3    3  502    0 -0.11828679433E+03 -0.84588689411E+02 -0.17503640417E+03  0.22756263945E+03  0.00000000000E+00 0. -1.
         -3    1    3    3    0  502 -0.29350429186E+02  0.19354551939E+02 -0.46858732963E+02  0.58581458065E+02  0.00000000000E+00 0.  1.
         11    1    5    5    0    0  0.10200195086E+03  0.23626791675E+01 -0.12143365734E+03  0.15860678853E+03  0.00000000000E+00 0. -1.
        -11    1    5    5    0    0  0.11758317302E+03 -0.66928403549E+02 -0.30596472118E+03  0.33454390502E+03  0.00000000000E+00 0.  1.
          3    1    6    6  503    0 -0.50963021636E+02  0.15107776654E+02  0.16403513207E+03  0.17243259275E+03  0.00000000000E+00 0. -1.
         -3    1    6    6    0  503 -0.20984878728E+02  0.11469208520E+03  0.23311467984E+03  0.26064745059E+03  0.00000000000E+00 0.  1.
<mgrwt>
<rscale>  0 0.11858652E+04</rscale>
<asrwt>0</asrwt>
<pdfrwt beam="1">  1        2 0.11265527E+00 0.11858652E+04</pdfrwt>
<pdfrwt beam="2">  1       -1 0.73863933E-01 0.11858652E+04</pdfrwt>
<totfact> 0.80560915E+01</totfact>
</mgrwt>
</event>
<event>
12    6  0.1538774E-007  0.1792885E+04  0.7818608E-02  0.8710092E-01
          2   -1    0    0  501    0  0.00000000000E+00  0.00000000000E+00  0.26723953001E+04  0.26723953001E+04  0.00000000000E+00 0. -1.
         -1   -1    0    0    0  501 -0.00000000000E+00 -0.00000000000E+00 -0.30070759520E+03  0.30070759520E+03  0.00000000000E+00 0.  1.
         24    2    1    2    0    0  0.59191673875E+03 -0.12437139697E+03  0.13680746002E+04  0.14979713507E+04  0.80351638425E+02 0.  0.
        254    2    1    2    0    0 -0.59191673875E+03  0.12437139697E+03  0.10036131047E+04  0.14751315446E+04  0.89606927185E+03 0.  0.
         23    2    4    4    0    0 -0.66610439744E+03 -0.14419051306E+03  0.95701599354E+03  0.11785234318E+04  0.92476456371E+02 0.  0.
         23    2    4    4    0    0  0.74187658682E+02  0.26856191002E+03  0.46597111182E+02  0.29660811285E+03  0.90419984641E+02 0.  0.
          4    1    3    3  502    0 -0.20367989101E+01  0.17352223623E+01  0.35253674131E+01  0.44258063496E+01  0.00000000000E+00 0. -1.
         -3    1    3    3    0  502  0.59395353766E+03 -0.12610661933E+03  0.13645492328E+04  0.14935455443E+04  0.00000000000E+00 0.  1.
         11    1    5    5    0    0 -0.10345551321E+02 -0.67374251012E+01  0.46169255659E+02  0.47791458413E+02  0.00000000000E+00 0. -1.
        -11    1    5    5    0    0 -0.65575884611E+03 -0.13745308795E+03  0.91084673788E+03  0.11307319734E+04  0.00000000000E+00 0.  1.
          2    1    6    6  503    0 -0.82237431048E+01  0.12637699938E+03  0.37214363545E+02  0.13199880597E+03  0.00000000000E+00 0. -1.
         -2    1    6    6    0  503  0.82411401787E+02  0.14218491064E+03  0.93827476364E+01  0.16460930688E+03  0.00000000000E+00 0.  1.
<mgrwt>
<rscale>  0 0.17928855E+04</rscale>
<asrwt>0</asrwt>
<pdfrwt beam="1">  1        2 0.41113772E+00 0.17928855E+04</pdfrwt>
<pdfrwt beam="2">  1       -1 0.46262709E-01 0.17928855E+04</pdfrwt>
<totfact> 0.13818687E+01</totfact>
</mgrwt>
</event>
<event>
12    6  0.1538774E-007  0.2041241E+04  0.7818608E-02  0.8587578E-01
         -1   -1    0    0    0  501 -0.00000000000E+00  0.00000000000E+00  0.37008983375E+03  0.37008983375E+03  0.00000000000E+00 0.  1.
          2   -1    0    0  501    0  0.00000000000E+00 -0.00000000000E+00 -0.28146312336E+04  0.28146312336E+04  0.00000000000E+00 0. -1.
         24    2    1    2    0    0 -0.21105003504E+03 -0.60830707731E+03 -0.19306620621E+03  0.67679455745E+03  0.78719091855E+02 0.  0.
        254    2    1    2    0    0  0.21105003504E+03  0.60830707731E+03 -0.22514751937E+04  0.25079265099E+04  0.89776122317E+03 0.  0.
         23    2    4    4    0    0  0.33504310983E+03  0.74697450742E+03 -0.20863410569E+04  0.22430710720E+04  0.91236111136E+02 0.  0.
         23    2    4    4    0    0 -0.12399307479E+03 -0.13866743011E+03 -0.16513413678E+03  0.26485543796E+03  0.90973518774E+02 0.  0.
          4    1    3    3  502    0 -0.22215784435E+02 -0.22901192361E+02 -0.20550933383E+02  0.37951897878E+02  0.00000000000E+00 0. -1.
         -3    1    3    3    0  502 -0.18883425060E+03 -0.58540588495E+03 -0.17251527282E+03  0.63884265958E+03  0.00000000000E+00 0.  1.
         11    1    5    5    0    0  0.32469088875E+03  0.73755077594E+03 -0.20712107330E+04  0.22224579233E+04  0.00000000000E+00 0.  1.
        -11    1    5    5    0    0  0.10352221076E+02  0.94237314825E+01 -0.15130323868E+02  0.20613148634E+02  0.00000000000E+00 0. -1.
          3    1    6    6  503    0  0.97640579044E+01 -0.22938647076E+02 -0.33562106956E+01  0.25155168588E+02  0.00000000000E+00 0. -1.
         -3    1    6    6    0  503 -0.13375713270E+03 -0.11572878304E+03 -0.16177792608E+03  0.23970026937E+03  0.00000000000E+00 0.  1.
<mgrwt>
<rscale>  0 0.20412412E+04</rscale>
<asrwt>0</asrwt>
<pdfrwt beam="1">  1        2 0.43302019E+00 0.20412412E+04</pdfrwt>
<pdfrwt beam="2">  1       -1 0.56936897E-01 0.20412412E+04</pdfrwt>
<totfact> 0.74672107E+00</totfact>
</mgrwt>
</event>
<event>
12    6  0.1538774E-007  0.2228783E+04  0.7818608E-02  0.8506542E-01
          2   -1    0    0  501    0  0.00000000000E+00  0.00000000000E+00  0.14780770596E+04  0.14780770596E+04  0.00000000000E+00 0. -1.
         -1   -1    0    0    0  501 -0.00000000000E+00 -0.00000000000E+00 -0.84019226041E+03  0.84019226041E+03  0.00000000000E+00 0.  1.
         24    2    1    2    0    0  0.21641310511E+03  0.33745631300E+03 -0.61293949168E+03  0.73656539035E+03  0.78245501841E+02 0.  0.
        254    2    1    2    0    0 -0.21641310511E+03 -0.33745631300E+03  0.12508242908E+04  0.15817039296E+04  0.88120061236E+03 0.  0.
         23    2    4    4    0    0  0.31207173940E+03 -0.96559595947E+02  0.68858200277E+03  0.76736058478E+03  0.89356401211E+02 0.  0.
         23    2    4    4    0    0 -0.52848484450E+03 -0.24089671705E+03  0.56224228807E+03  0.81434334485E+03  0.98545591769E+02 0.  0.
          2    1    3    3  502    0  0.75010464416E+02  0.14034085150E+03 -0.31007967843E+03  0.34852766224E+03  0.00000000000E+00 0. -1.
         -1    1    3    3    0  502  0.14140264069E+03  0.19711546150E+03 -0.30285981325E+03  0.38803772811E+03  0.00000000000E+00 0.  1.
         11    1    5    5    0    0  0.12089664033E+03 -0.28800967993E+02  0.36385138447E+03  0.38449099259E+03  0.00000000000E+00 0.  1.
        -11    1    5    5    0    0  0.19117509906E+03 -0.67758627954E+02  0.32473061831E+03  0.38286959220E+03  0.00000000000E+00 0. -1.
          1    1    6    6  503    0 -0.46364044456E+03 -0.22613763735E+03  0.53283358933E+03  0.74162815937E+03  0.00000000000E+00 0. -1.
         -1    1    6    6    0  503 -0.64844399943E+02 -0.14759079704E+02  0.29408698737E+02  0.72715185478E+02  0.00000000000E+00 0.  1.
<mgrwt>
<rscale>  0 0.22287834E+04</rscale>
<asrwt>0</asrwt>
<pdfrwt beam="1">  1        2 0.22739647E+00 0.22287834E+04</pdfrwt>
<pdfrwt beam="2">  1       -1 0.12926035E+00 0.22287834E+04</pdfrwt>
<totfact> 0.69818740E+00</totfact>
</mgrwt>
</event>
<event>
12    6  0.1538774E-007  0.2323272E+04  0.7818608E-02  0.8468801E-01
         -1   -1    0    0    0  501 -0.00000000000E+00  0.00000000000E+00  0.10361281995E+04  0.10361281995E+04  0.00000000000E+00 0.  1.
          2   -1    0    0  501    0  0.00000000000E+00 -0.00000000000E+00 -0.13023472219E+04  0.13023472219E+04  0.00000000000E+00 0. -1.
         24    2    1    2    0    0  0.69258107690E+02  0.74984865248E+02  0.86939232003E+03  0.87907156437E+03  0.80649821261E+02 0.  0.
        254    2    1    2    0    0 -0.69258107690E+02 -0.74984865248E+02 -0.11356113424E+04  0.14594038570E+04  0.91094845144E+03 0.  0.
         23    2    4    4    0    0 -0.29489916411E+03 -0.37724271985E+03 -0.84506260843E+03  0.97529732684E+03  0.88297660767E+02 0.  0.
         23    2    4    4    0    0  0.22564105642E+03  0.30225785460E+03 -0.29054873400E+03  0.48410653013E+03  0.87560657129E+02 0.  0.
          4    1    3    3  502    0 -0.82241412087E+01 -0.45986082629E+01  0.22349398484E+03  0.22369252324E+03  0.00000000000E+00 0. -1.
         -3    1    3    3    0  502  0.77482248899E+02  0.79583473511E+02  0.64589833519E+03  0.65537904113E+03  0.00000000000E+00 0.  1.
         11    1    5    5    0    0 -0.21431917754E+03 -0.26837416883E+03 -0.67970259958E+03  0.76154647149E+03  0.00000000000E+00 0.  1.
        -11    1    5    5    0    0 -0.80579986568E+02 -0.10886855102E+03 -0.16536000885E+03  0.21375085535E+03  0.00000000000E+00 0. -1.
          1    1    6    6  503    0  0.13715269300E+03  0.20956586193E+03 -0.23831847146E+03  0.34572301850E+03  0.00000000000E+00 0. -1.
         -1    1    6    6    0  503  0.88488363422E+02  0.92691992670E+02 -0.52230262546E+02  0.13838351163E+03  0.00000000000E+00 0.  1.
<mgrwt>
<rscale>  0 0.23232724E+04</rscale>
<asrwt>0</asrwt>
<pdfrwt beam="1">  1        2 0.20036111E+00 0.23232724E+04</pdfrwt>
<pdfrwt beam="2">  1       -1 0.15940434E+00 0.23232724E+04</pdfrwt>
<totfact> 0.50185903E+00</totfact>
</mgrwt>
</event>
<event>
12    6  0.1538774E-007  0.1573621E+04  0.7818608E-02  0.8836919E-01
          2   -1    0    0  501    0  0.00000000000E+00  0.00000000000E+00  0.11067399841E+04  0.11067399841E+04  0.00000000000E+00 0. -1.
         -1   -1    0    0    0  501 -0.00000000000E+00 -0.00000000000E+00 -0.55936443074E+03  0.55936443074E+03  0.00000000000E+00 0.  1.
         24    2    1    2    0    0  0.22279514831E+03 -0.11051977337E+03  0.67834331236E+03  0.72703778109E+03  0.81129447831E+02 0.  0.
        254    2    1    2    0    0 -0.22279514831E+03  0.11051977337E+03 -0.13096775900E+03  0.93906663374E+03  0.89601411277E+03 0.  0.
         23    2    4    4    0    0  0.20268781569E+03  0.90649322521E+02  0.26034219501E+03  0.35357933583E+03  0.89110257076E+02 0.  0.
         23    2    4    4    0    0 -0.42548296399E+03  0.19870450850E+02 -0.39130995402E+03  0.58548729791E+03  0.90781652535E+02 0.  0.
          4    1    3    3  502    0  0.10342363784E+03 -0.75997710815E+02  0.24979819873E+03  0.28084024107E+03  0.00000000000E+00 0. -1.
         -3    1    3    3    0  502  0.11937151046E+03 -0.34522062556E+02  0.42854511363E+03  0.44619754003E+03  0.00000000000E+00 0.  1.
         11    1    5    5    0    0  0.31041230639E+02 -0.12439445876E+02  0.68770135643E+02  0.76469793839E+02  0.00000000000E+00 0. -1.
        -11    1    5    5    0    0  0.17164658505E+03  0.10308876840E+03  0.19157205937E+03  0.27710954199E+03  0.00000000000E+00 0.  1.
          1    1    6    6  503    0 -0.42699582384E+03  0.23301041728E+02 -0.39351389218E+03  0.58113815523E+03  0.00000000000E+00 0. -1.
         -1    1    6    6    0  503  0.15128598485E+01 -0.34305908780E+01  0.22039381584E+01  0.43491426856E+01  0.00000000000E+00 0.  1.
<mgrwt>
<rscale>  0 0.15736213E+04</rscale>
<asrwt>0</asrwt>
<pdfrwt beam="1">  1        2 0.17026769E+00 0.15736213E+04</pdfrwt>
<pdfrwt beam="2">  1       -1 0.86056067E-01 0.15736213E+04</pdfrwt>
<totfact> 0.31523745E+01</totfact>
</mgrwt>
</event>
<event>
12    6  0.1538774E-007  0.1317093E+04  0.7818608E-02  0.9016119E-01
         -1   -1    0    0    0  501 -0.00000000000E+00  0.00000000000E+00  0.36828143744E+03  0.36828143744E+03  0.00000000000E+00 0.  1.
          2   -1    0    0  501    0  0.00000000000E+00 -0.00000000000E+00 -0.11775877407E+04  0.11775877407E+04  0.00000000000E+00 0. -1.
         24    2    1    2    0    0  0.13308643467E+03  0.16354977591E+03  0.10720119970E+03  0.24983669882E+03  0.80409890976E+02 0.  0.
        254    2    1    2    0    0 -0.13308643467E+03 -0.16354977591E+03 -0.91650750297E+03  0.12960324793E+04  0.89176995699E+03 0.  0.
         23    2    4    4    0    0 -0.20094005141E+03 -0.36651796145E+03 -0.96764910703E+03  0.10586708085E+04  0.98624368253E+02 0.  0.
         23    2    4    4    0    0  0.67853616736E+02  0.20296818553E+03  0.51141604062E+02  0.23736167087E+03  0.89021915795E+02 0.  0.
          4    1    3    3  502    0  0.93727876283E+02  0.14861438398E+03  0.57873609389E+02  0.18498784983E+03  0.00000000000E+00 0. -1.
         -3    1    3    3    0  502  0.39358558388E+02  0.14935391931E+02  0.49327590311E+02  0.64848848998E+02  0.00000000000E+00 0.  1.
         11    1    5    5    0    0 -0.19783897019E+03 -0.35353125433E+03 -0.96263368338E+03  0.10444080689E+04  0.00000000000E+00 0. -1.
        -11    1    5    5    0    0 -0.31010812201E+01 -0.12986707113E+02 -0.50154236473E+01  0.14262739594E+02  0.00000000000E+00 0.  1.
          4    1    6    6  503    0 -0.12787756340E+02  0.54550706360E+02  0.38493237599E+02  0.67978199575E+02  0.00000000000E+00 0. -1.
         -4    1    6    6    0  503  0.80641373076E+02  0.14841747917E+03  0.12648366463E+02  0.16938347130E+03  0.00000000000E+00 0.  1.
<mgrwt>
<rscale>  0 0.13170933E+04</rscale>
<asrwt>0</asrwt>
<pdfrwt beam="1">  1        2 0.18116735E+00 0.13170933E+04</pdfrwt>
<pdfrwt beam="2">  1       -1 0.56658682E-01 0.13170933E+04</pdfrwt>
<totfact> 0.68757838E+01</totfact>
</mgrwt>
</event>
<event>
12    6  0.1538774E-007  0.1074931E+04  0.7818608E-02  0.9229976E-01
         -1   -1    0    0    0  501 -0.00000000000E+00  0.00000000000E+00  0.47355077679E+03  0.47355077679E+03  0.00000000000E+00 0.  1.
          2   -1    0    0  501    0  0.00000000000E+00 -0.00000000000E+00 -0.61000711397E+03  0.61000711397E+03  0.00000000000E+00 0. -1.
         24    2    1    2    0    0  0.10939980058E+03  0.56018780479E+02  0.20653504952E+03  0.25375770173E+03  0.81423733493E+02 0.  0.
        254    2    1    2    0    0 -0.10939980058E+03 -0.56018780479E+02 -0.34299138670E+03  0.82980018903E+03  0.74553258965E+03 0.  0.
         23    2    4    4    0    0  0.13562136966E+03  0.10011626810E+03  0.15511234986E+03  0.24609753592E+03  0.89931824532E+02 0.  0.
         23    2    4    4    0    0 -0.24502117024E+03 -0.15613504858E+03 -0.49810373655E+03  0.58370265310E+03  0.90487168241E+02 0.  0.
          4    1    3    3  502    0  0.10376806700E+03  0.13960210244E+02  0.13952032408E+03  0.17443801200E+03  0.00000000000E+00 0. -1.
         -3    1    3    3    0  502  0.56317335747E+01  0.42058570235E+02  0.67014725444E+02  0.79319689735E+02  0.00000000000E+00 0.  1.
         11    1    5    5    0    0  0.13959941548E+03  0.92136896051E+02  0.11018641317E+03  0.20029540700E+03  0.00000000000E+00 0.  1.
        -11    1    5    5    0    0 -0.39780458271E+01  0.79793720507E+01  0.44925936687E+02  0.45802128926E+02  0.00000000000E+00 0. -1.
          4    1    6    6  503    0 -0.14060631728E+03 -0.10590255127E+03 -0.37714167419E+03  0.41619866558E+03  0.00000000000E+00 0.  1.
         -4    1    6    6    0  503 -0.10441485296E+03 -0.50232497314E+02 -0.12096206236E+03  0.16750398752E+03  0.00000000000E+00 0. -1.
<mgrwt>
<rscale>  0 0.10749313E+04</rscale>
<asrwt>0</asrwt>
<pdfrwt beam="1">  1        2 0.93847248E-01 0.10749313E+04</pdfrwt>
<pdfrwt beam="2">  1       -1 0.72853966E-01 0.10749313E+04</pdfrwt>
<totfact> 0.10496224E+02</totfact>
</mgrwt>
</event>
<event>
12    6  0.1538774E-007  0.1328747E+04  0.7818608E-02  0.9007074E-01
         -1   -1    0    0    0  501 -0.00000000000E+00  0.00000000000E+00  0.57299311704E+03  0.57299311704E+03  0.00000000000E+00 0.  1.
          2   -1    0    0  501    0  0.00000000000E+00 -0.00000000000E+00 -0.77032734752E+03  0.77032734752E+03  0.00000000000E+00 0. -1.
         24    2    1    2    0    0 -0.27329181960E+03  0.16027471271E+03 -0.22947998321E+03  0.39941346276E+03  0.80583182803E+02 0.  0.
        254    2    1    2    0    0  0.27329181960E+03 -0.16027471271E+03  0.32145752729E+02  0.94390700180E+03  0.88856664152E+03 0.  0.
         23    2    4    4    0    0  0.45097527430E+03  0.22270470963E+03  0.18890816410E+02  0.51165166134E+03  0.91948213073E+02 0.  0.
         23    2    4    4    0    0 -0.17768345470E+03 -0.38297942234E+03  0.13254936319E+02  0.43225534046E+03  0.91784192586E+02 0.  0.
          4    1    3    3  502    0 -0.17487314994E+03  0.14523979892E+03 -0.16196547566E+03  0.27912010509E+03  0.00000000000E+00 0. -1.
         -3    1    3    3    0  502 -0.98418669662E+02  0.15034913781E+02 -0.67514507545E+02  0.12029335767E+03  0.00000000000E+00 0.  1.
         11    1    5    5    0    0  0.20718465222E+03  0.51763151712E+02  0.80115382465E+01  0.21370327264E+03  0.00000000000E+00 0.  1.
        -11    1    5    5    0    0  0.24379062207E+03  0.17094155792E+03  0.10879278163E+02  0.29794838870E+03  0.00000000000E+00 0. -1.
          2    1    6    6  503    0 -0.16472233456E+03 -0.37844583060E+03  0.25949199002E+02  0.41355538339E+03  0.00000000000E+00 0. -1.
         -2    1    6    6    0  503 -0.12961120134E+02 -0.45335917370E+01 -0.12694262683E+02  0.18699957065E+02  0.00000000000E+00 0.  1.
<mgrwt>
<rscale>  0 0.13287472E+04</rscale>
<asrwt>0</asrwt>
<pdfrwt beam="1">  1        2 0.11851190E+00 0.13287472E+04</pdfrwt>
<pdfrwt beam="2">  1       -1 0.88152787E-01 0.13287472E+04</pdfrwt>
<totfact> 0.51167927E+01</totfact>
</mgrwt>
</event>
<event>
12    6  0.1538774E-007  0.2020949E+04  0.7818608E-02  0.8596888E-01
         -3   -1    0    0    0  501 -0.00000000000E+00  0.00000000000E+00  0.54435792331E+03  0.54435792331E+03  0.00000000000E+00 0.  1.
          2   -1    0    0  501    0  0.00000000000E+00 -0.00000000000E+00 -0.18757127667E+04  0.18757127667E+04  0.00000000000E+00 0. -1.
         24    2    1    2    0    0 -0.33911503241E+03  0.54129282992E+03  0.85689442823E+01  0.64578312557E+03  0.94686247842E+02 0.  0.
        254    2    1    2    0    0  0.33911503241E+03 -0.54129282992E+03 -0.13399237877E+04  0.17742875644E+04  0.97195867796E+03 0.  0.
         23    2    4    4    0    0  0.58709500368E+03 -0.43433868427E+03 -0.12911009422E+04  0.14860330624E+04  0.89565525698E+02 0.  0.
         23    2    4    4    0    0 -0.24797997127E+03 -0.10695414565E+03 -0.48822845443E+02  0.28825450209E+03  0.88168771772E+02 0.  0.
          4    1    3    3  502    0 -0.69255221551E+02  0.10201686649E+03 -0.35624181491E+02  0.12834644158E+03  0.00000000000E+00 0. -1.
         -3    1    3    3    0  502 -0.26985981086E+03  0.43927596343E+03  0.44193125773E+02  0.51743668398E+03  0.00000000000E+00 0.  1.
         11    1    5    5    0    0  0.53954069975E+03 -0.37594041036E+03 -0.11944465551E+04  0.13635020836E+04  0.00000000000E+00 0.  1.
        -11    1    5    5    0    0  0.47554303931E+02 -0.58398273914E+02 -0.96654387113E+02  0.12253097880E+03  0.00000000000E+00 0. -1.
          3    1    6    6  503    0 -0.44582669899E+02 -0.52348638940E+01 -0.40860398212E+02  0.60700826990E+02  0.00000000000E+00 0. -1.
         -3    1    6    6    0  503 -0.20339730137E+03 -0.10171928175E+03 -0.79624472310E+01  0.22755367510E+03  0.00000000000E+00 0.  1.
<mgrwt>
<rscale>  0 0.20209494E+04</rscale>
<asrwt>0</asrwt>
<pdfrwt beam="1">  1        2 0.28857120E+00 0.20209494E+04</pdfrwt>
<pdfrwt beam="2">  1       -3 0.83747372E-01 0.20209494E+04</pdfrwt>
<totfact> 0.60888969E+00</totfact>
</mgrwt>
</event>
<event>
12    6  0.1538774E-007  0.4722274E+04  0.7818608E-02  0.7872838E-01
         -1   -1    0    0    0  501 -0.00000000000E+00  0.00000000000E+00  0.11359695793E+04  0.11359695793E+04  0.00000000000E+00 0.  1.
          2   -1    0    0  501    0  0.00000000000E+00 -0.00000000000E+00 -0.49076728082E+04  0.49076728082E+04  0.00000000000E+00 0. -1.
         24    2    1    2    0    0  0.10607370037E+04 -0.21997487041E+03 -0.43482302043E+04  0.44818247700E+04  0.78073202125E+02 0.  0.
        254    2    1    2    0    0 -0.10607370037E+04  0.21997487041E+03  0.57652697537E+03  0.15618176175E+04  0.96609470673E+03 0.  0.
         23    2    4    4    0    0  0.16306091831E+03 -0.50882200105E+02  0.59911091293E+02  0.20307778835E+03  0.92051007026E+02 0.  0.
         23    2    4    4    0    0 -0.12237979220E+04  0.27085707051E+03  0.51661588408E+03  0.13587398291E+04  0.90758168243E+02 0.  0.
          4    1    3    3  502    0  0.10204927719E+04 -0.21604482020E+03 -0.42356654698E+04  0.43622176509E+04  0.00000000000E+00 0. -1.
         -3    1    3    3    0  502  0.40244231804E+02 -0.39300502043E+01 -0.11256473454E+03  0.11960711914E+03  0.00000000000E+00 0.  1.
         11    1    5    5    0    0  0.16942835399E+03 -0.30170844659E+02  0.49715628988E+02  0.17913093191E+03  0.00000000000E+00 0.  1.
        -11    1    5    5    0    0 -0.63674356813E+01 -0.20711355446E+02  0.10195462305E+02  0.23946856436E+02  0.00000000000E+00 0. -1.
          3    1    6    6  503    0 -0.98927357811E+02  0.22585379044E+02  0.69872309905E+02  0.12320252092E+03  0.00000000000E+00 0. -1.
         -3    1    6    6    0  503 -0.11248705642E+04  0.24827169147E+03  0.44674357417E+03  0.12355373082E+04  0.00000000000E+00 0.  1.
<mgrwt>
<rscale>  0 0.47222736E+04</rscale>
<asrwt>0</asrwt>
<pdfrwt beam="1">  1        2 0.75502659E+00 0.47222736E+04</pdfrwt>
<pdfrwt beam="2">  1       -1 0.17476455E+00 0.47222736E+04</pdfrwt>
<totfact> 0.84190972E-03</totfact>
</mgrwt>
</event>
<event>
12    6  0.1538774E-007  0.1337343E+04  0.7818608E-02  0.9000465E-01
          2   -1    0    0  501    0  0.00000000000E+00  0.00000000000E+00  0.34770777543E+04  0.34770777543E+04  0.00000000000E+00 0. -1.
         -1   -1    0    0    0  501 -0.00000000000E+00 -0.00000000000E+00 -0.12859119311E+03  0.12859119311E+03  0.00000000000E+00 0.  1.
         24    2    1    2    0    0 -0.11999785073E+03 -0.26124928256E+03  0.31993850528E+03  0.43725030117E+03  0.78590755801E+02 0.  0.
        254    2    1    2    0    0  0.11999785073E+03  0.26124928256E+03  0.30285480559E+04  0.31684186462E+04  0.88550704064E+03 0.  0.
         23    2    4    4    0    0 -0.11099660847E+03  0.86570778220E+02  0.46976460558E+02  0.17144200883E+03  0.85853525323E+02 0.  0.
         23    2    4    4    0    0  0.23099445920E+03  0.17467850434E+03  0.29815715954E+04  0.29969766374E+04  0.90712550865E+02 0.  0.
          2    1    3    3  502    0 -0.41079544628E+02 -0.62085507223E+02  0.13531869453E+03  0.15444509796E+03  0.00000000000E+00 0. -1.
         -1    1    3    3    0  502 -0.78918306102E+02 -0.19916377533E+03  0.18461981075E+03  0.28280520322E+03  0.00000000000E+00 0.  1.
         11    1    5    5    0    0 -0.12246142759E+03  0.60907031527E+02  0.39157478477E+02  0.14226656620E+03  0.00000000000E+00 0.  1.
        -11    1    5    5    0    0  0.11464819121E+02  0.25663746693E+02  0.78189820815E+01  0.29175442629E+02  0.00000000000E+00 0. -1.
          2    1    6    6  503    0  0.18127213614E+03  0.16641101744E+03  0.21851855027E+04  0.21989970203E+04  0.00000000000E+00 0.  1.
         -2    1    6    6    0  503  0.49722323062E+02  0.82674868983E+01  0.79638609270E+03  0.79797961716E+03  0.00000000000E+00 0. -1.
<mgrwt>
<rscale>  0 0.13373430E+04</rscale>
<asrwt>0</asrwt>
<pdfrwt beam="1">  1        2 0.53493497E+00 0.13373430E+04</pdfrwt>
<pdfrwt beam="2">  1       -1 0.19783263E-01 0.13373430E+04</pdfrwt>
<totfact> 0.19939059E+01</totfact>
</mgrwt>
</event>
<event>
12    6  0.1538774E-007  0.2017905E+04  0.7818608E-02  0.8598295E-01
         -1   -1    0    0    0  501 -0.00000000000E+00  0.00000000000E+00  0.71987218329E+03  0.71987218329E+03  0.00000000000E+00 0.  1.
          2   -1    0    0  501    0  0.00000000000E+00 -0.00000000000E+00 -0.14141194142E+04  0.14141194142E+04  0.00000000000E+00 0. -1.
         24    2    1    2    0    0  0.15465622920E+03 -0.56722692503E+03 -0.85657244848E+03  0.10420746204E+04  0.80859268303E+02 0.  0.
        254    2    1    2    0    0 -0.15465622920E+03  0.56722692503E+03  0.16232521761E+03  0.10919169771E+04  0.90568663168E+03 0.  0.
         23    2    4    4    0    0  0.23091175786E+03  0.36604777386E+03 -0.22978250628E+03  0.49848741361E+03  0.91534084734E+02 0.  0.
         23    2    4    4    0    0 -0.38556798706E+03  0.20117915116E+03  0.39210772389E+03  0.59342956344E+03  0.96303977739E+02 0.  0.
          4    1    3    3  502    0  0.15253118826E+03 -0.52591787332E+03 -0.75736385470E+03  0.93458834857E+03  0.00000000000E+00 0. -1.
         -3    1    3    3    0  502  0.21250409463E+01 -0.41309051704E+02 -0.99208593781E+02  0.10748627183E+03  0.00000000000E+00 0.  1.
         11    1    5    5    0    0  0.21513157992E+03  0.31589127325E+03 -0.16834838114E+03  0.41762431757E+03  0.00000000000E+00 0.  1.
        -11    1    5    5    0    0  0.15780177941E+02  0.50156500617E+02 -0.61434125141E+02  0.80863096044E+02  0.00000000000E+00 0. -1.
          3    1    6    6  503    0 -0.96414063546E+02  0.23246223134E+02  0.13516967303E+03  0.16765112301E+03  0.00000000000E+00 0. -1.
         -3    1    6    6    0  503 -0.28915392351E+03  0.17793292803E+03  0.25693805086E+03  0.42577844044E+03  0.00000000000E+00 0.  1.
<mgrwt>
<rscale>  0 0.20179051E+04</rscale>
<asrwt>0</asrwt>
<pdfrwt beam="1">  1        2 0.21755683E+00 0.20179051E+04</pdfrwt>
<pdfrwt beam="2">  1       -1 0.11074957E+00 0.20179051E+04</pdfrwt>
<totfact> 0.11277606E+01</totfact>
</mgrwt>
</event>
<event>
12    6  0.1538774E-007  0.1692918E+04  0.7818608E-02  0.8765414E-01
         -1   -1    0    0    0  501 -0.00000000000E+00  0.00000000000E+00  0.41179883735E+03  0.41179883735E+03  0.00000000000E+00 0.  1.
          2   -1    0    0  501    0  0.00000000000E+00 -0.00000000000E+00 -0.17399102187E+04  0.17399102187E+04  0.00000000000E+00 0. -1.
         24    2    1    2    0    0 -0.19307484007E+03 -0.22007659695E+03  0.17240406086E+03  0.34946804602E+03  0.81811689854E+02 0.  0.
        254    2    1    2    0    0  0.19307484007E+03  0.22007659695E+03 -0.15005154422E+04  0.18022410101E+04  0.95436600083E+03 0.  0.
         23    2    4    4    0    0 -0.34271721000E+03  0.22567319862E+03 -0.42801153009E+03  0.59998663732E+03  0.91687602599E+02 0.  0.
         23    2    4    4    0    0  0.53579205007E+03 -0.55966016619E+01 -0.10725039122E+04  0.12022543727E+04  0.89702242605E+02 0.  0.
          4    1    3    3  502    0 -0.15618145493E+03 -0.12556423310E+03  0.94554413358E+02  0.22158420653E+03  0.00000000000E+00 0. -1.
         -3    1    3    3    0  502 -0.36893385145E+02 -0.94512363855E+02  0.77849647500E+02  0.12788383950E+03  0.00000000000E+00 0.  1.
         11    1    5    5    0    0 -0.20444080930E+03  0.85787723284E+02 -0.19706863434E+03  0.29663382244E+03  0.00000000000E+00 0. -1.
        -11    1    5    5    0    0 -0.13827640069E+03  0.13988547533E+03 -0.23094289575E+03  0.30335281488E+03  0.00000000000E+00 0.  1.
          4    1    6    6  503    0  0.32335357814E+03  0.40167342388E+02 -0.63060244098E+03  0.70981010873E+03  0.00000000000E+00 0. -1.
         -4    1    6    6    0  503  0.21243847192E+03 -0.45763944050E+02 -0.44190147118E+03  0.49244426401E+03  0.00000000000E+00 0.  1.
<mgrwt>
<rscale>  0 0.16929182E+04</rscale>
<asrwt>0</asrwt>
<pdfrwt beam="1">  1        2 0.26767850E+00 0.16929182E+04</pdfrwt>
<pdfrwt beam="2">  1       -1 0.63353667E-01 0.16929182E+04</pdfrwt>
<totfact> 0.25535801E+01</totfact>
</mgrwt>
</event>
<event>
12    6  0.1538774E-007  0.1594558E+04  0.7818608E-02  0.8823898E-01
          2   -1    0    0  501    0  0.00000000000E+00  0.00000000000E+00  0.10212657520E+04  0.10212657520E+04  0.00000000000E+00 0. -1.
         -1   -1    0    0    0  501 -0.00000000000E+00 -0.00000000000E+00 -0.62241787937E+03  0.62241787937E+03  0.00000000000E+00 0.  1.
         24    2    1    2    0    0  0.87213260906E+02  0.31603573658E+03  0.47592160363E+03  0.58322150615E+03  0.78493393094E+02 0.  0.
        254    2    1    2    0    0 -0.87213260906E+02 -0.31603573658E+03 -0.77073731046E+02  0.10604621252E+04  0.10055619420E+04 0.  0.
         23    2    4    4    0    0 -0.18107862784E+03  0.22932543154E+03 -0.32609216078E+03  0.44670597762E+03  0.88490169562E+02 0.  0.
         23    2    4    4    0    0  0.93865366933E+02 -0.54536116811E+03  0.24901842974E+03  0.61375614756E+03  0.91961511096E+02 0.  0.
          2    1    3    3  502    0  0.10149802004E+03  0.26182290450E+03  0.38823685788E+03  0.47914605206E+03  0.00000000000E+00 0. -1.
         -1    1    3    3    0  502 -0.14284759132E+02  0.54212832079E+02  0.87684745753E+02  0.10407545409E+03  0.00000000000E+00 0.  1.
         11    1    5    5    0    0 -0.47198847289E+02  0.21120166817E+02 -0.94514730317E+02  0.10773498447E+03  0.00000000000E+00 0.  1.
        -11    1    5    5    0    0 -0.13387978055E+03  0.20820526472E+03 -0.23157743047E+03  0.33897099315E+03  0.00000000000E+00 0. -1.
          1    1    6    6  503    0 -0.75515900029E+01 -0.20715308213E+03  0.78573449081E+02  0.22168268504E+03  0.00000000000E+00 0. -1.
         -1    1    6    6    0  503  0.10141695694E+03 -0.33820808598E+03  0.17044498066E+03  0.39207346252E+03  0.00000000000E+00 0.  1.
<mgrwt>
<rscale>  0 0.15945583E+04</rscale>
<asrwt>0</asrwt>
<pdfrwt beam="1">  1        2 0.15711781E+00 0.15945583E+04</pdfrwt>
<pdfrwt beam="2">  1       -1 0.95756597E-01 0.15945583E+04</pdfrwt>
<totfact> 0.28106313E+01</totfact>
</mgrwt>
</event>
<event>
12    6  0.1538774E-007  0.1172453E+04  0.7818608E-02  0.9137316E-01
          2   -1    0    0  501    0  0.00000000000E+00  0.00000000000E+00  0.14489123581E+04  0.14489123581E+04  0.00000000000E+00 0. -1.
         -1   -1    0    0    0  501 -0.00000000000E+00 -0.00000000000E+00 -0.23718566866E+03  0.23718566866E+03  0.00000000000E+00 0.  1.
         24    2    1    2    0    0  0.61571018816E+02 -0.21693374978E+03  0.26767106428E+03  0.36265921990E+03  0.94987730625E+02 0.  0.
        254    2    1    2    0    0 -0.61571018816E+02  0.21693374978E+03  0.94405562518E+03  0.13234388069E+04  0.89966549894E+03 0.  0.
         23    2    4    4    0    0  0.15750016361E+03 -0.22449386723E+03  0.71718416594E+03  0.77297189325E+03  0.89042809459E+02 0.  0.
         23    2    4    4    0    0 -0.21907118243E+03  0.44142761701E+03  0.22687145925E+03  0.55046691364E+03  0.93234328263E+02 0.  0.
          4    1    3    3  502    0  0.27502866531E+01  0.62130246477E+01 -0.25963845783E+01  0.72737174007E+01  0.00000000000E+00 0. -1.
         -1    1    3    3    0  502  0.58820732163E+02 -0.22314677443E+03  0.27026744886E+03  0.35538550249E+03  0.00000000000E+00 0.  1.
         11    1    5    5    0    0  0.23289857716E+02 -0.10771612845E+03  0.28909465080E+03  0.30938794243E+03  0.00000000000E+00 0.  1.
        -11    1    5    5    0    0  0.13421030590E+03 -0.11677773878E+03  0.42808951514E+03  0.46358395081E+03  0.00000000000E+00 0. -1.
          3    1    6    6  503    0 -0.18537202493E+03  0.36086802880E+03  0.14518259891E+03  0.43089036757E+03  0.00000000000E+00 0. -1.
         -3    1    6    6    0  503 -0.33699157499E+02  0.80559588208E+02  0.81688860333E+02  0.11957654607E+03  0.00000000000E+00 0.  1.
<mgrwt>
<rscale>  0 0.11724526E+04</rscale>
<asrwt>0</asrwt>
<pdfrwt beam="1">  1        2 0.22290959E+00 0.11724526E+04</pdfrwt>
<pdfrwt beam="2">  1       -1 0.36490104E-01 0.11724526E+04</pdfrwt>
<totfact> 0.10995549E+02</totfact>
</mgrwt>
</event>
<event>
12    6  0.1538774E-007  0.1820389E+04  0.7818608E-02  0.8695531E-01
         -1   -1    0    0    0  501 -0.00000000000E+00  0.00000000000E+00  0.22056784361E+03  0.22056784361E+03  0.00000000000E+00 0.  1.
          2   -1    0    0  501    0  0.00000000000E+00 -0.00000000000E+00 -0.37560058768E+04  0.37560058768E+04  0.00000000000E+00 0. -1.
         24    2    1    2    0    0  0.52247387583E+02  0.48960697102E+03 -0.23880242979E+04  0.24396015048E+04  0.80936264973E+02 0.  0.
        254    2    1    2    0    0 -0.52247387583E+02 -0.48960697102E+03 -0.11474137352E+04  0.15369722156E+04  0.89625919029E+03 0.  0.
         23    2    4    4    0    0 -0.19727138235E+03  0.77401600331E+02 -0.83745468277E+03  0.86907747384E+03  0.95175121839E+02 0.  0.
         23    2    4    4    0    0  0.14502399477E+03 -0.56700857135E+03 -0.30995905246E+03  0.66789474177E+03  0.86475966795E+02 0.  0.
          2    1    3    3  502    0  0.71443491060E+02  0.43870057902E+03 -0.21112844314E+04  0.21575644419E+04  0.00000000000E+00 0. -1.
         -1    1    3    3    0  502 -0.19196103477E+02  0.50906392000E+02 -0.27673986653E+03  0.28203706293E+03  0.00000000000E+00 0.  1.
         11    1    5    5    0    0 -0.14853374368E+02  0.77175717437E+01 -0.23866128338E+03  0.23924755344E+03  0.00000000000E+00 0. -1.
        -11    1    5    5    0    0 -0.18241800798E+03  0.69684028587E+02 -0.59879339938E+03  0.62982992039E+03  0.00000000000E+00 0.  1.
          1    1    6    6  503    0  0.21362668695E+02 -0.20699336740E+03 -0.78614916309E+02  0.22244757321E+03  0.00000000000E+00 0. -1.
         -1    1    6    6    0  503  0.12366132607E+03 -0.36001520395E+03 -0.23134413615E+03  0.44544716856E+03  0.00000000000E+00 0.  1.
<mgrwt>
<rscale>  0 0.18203891E+04</rscale>
<asrwt>0</asrwt>
<pdfrwt beam="1">  1        2 0.57784701E+00 0.18203891E+04</pdfrwt>
<pdfrwt beam="2">  1       -1 0.33933517E-01 0.18203891E+04</pdfrwt>
<totfact> 0.47172267E+00</totfact>
</mgrwt>
</event>
<event>
12    6  0.1538774E-007  0.1195156E+04  0.7818608E-02  0.9117107E-01
          2   -1    0    0  501    0  0.00000000000E+00  0.00000000000E+00  0.20233531521E+04  0.20233531521E+04  0.00000000000E+00 0. -1.
         -1   -1    0    0    0  501 -0.00000000000E+00 -0.00000000000E+00 -0.17648895604E+03  0.17648895604E+03  0.00000000000E+00 0.  1.
         24    2    1    2    0    0  0.38671895373E+02 -0.13155192288E+03  0.76667387166E+03  0.78277859159E+03  0.78435158231E+02 0.  0.
        254    2    1    2    0    0 -0.38671895373E+02  0.13155192288E+03  0.10801903244E+04  0.14170635165E+04  0.90689384665E+03 0.  0.
         23    2    4    4    0    0 -0.29901793773E+02 -0.27464501909E+01  0.12066924494E+04  0.12107810189E+04  0.94775249538E+02 0.  0.
         23    2    4    4    0    0 -0.87701016006E+01  0.13429837307E+03 -0.12650212507E+03  0.20628249763E+03  0.91851584046E+02 0.  0.
          4    1    3    3  502    0  0.15861992017E+01 -0.11299797633E+03  0.62605123371E+03  0.63616916455E+03  0.00000000000E+00 0. -1.
         -3    1    3    3    0  502  0.37085696172E+02 -0.18553946545E+02  0.14062263795E+03  0.14660942704E+03  0.00000000000E+00 0.  1.
         11    1    5    5    0    0 -0.14280213719E+02  0.24026919425E+02  0.10511561777E+03  0.10876815002E+03  0.00000000000E+00 0.  1.
        -11    1    5    5    0    0 -0.15621580054E+02 -0.26773369616E+02  0.11015768317E+04  0.11020128689E+04  0.00000000000E+00 0. -1.
          3    1    6    6  503    0  0.15793573882E+02  0.12036414092E+03 -0.62968798177E+02  0.13675537627E+03  0.00000000000E+00 0. -1.
         -3    1    6    6    0  503 -0.24563675482E+02  0.13934232147E+02 -0.63533326890E+02  0.69527121359E+02  0.00000000000E+00 0.  1.
<mgrwt>
<rscale>  0 0.11951560E+04</rscale>
<asrwt>0</asrwt>
<pdfrwt beam="1">  1        2 0.31128508E+00 0.11951560E+04</pdfrwt>
<pdfrwt beam="2">  1       -1 0.27152148E-01 0.11951560E+04</pdfrwt>
<totfact> 0.88690294E+01</totfact>
</mgrwt>
</event>
<event>
12    6  0.1538774E-007  0.1775476E+04  0.7818608E-02  0.8719451E-01
         -3   -1    0    0    0  501 -0.00000000000E+00  0.00000000000E+00  0.64316293387E+03  0.64316293387E+03  0.00000000000E+00 0.  1.
          4   -1    0    0  501    0  0.00000000000E+00 -0.00000000000E+00 -0.12253177119E+04  0.12253177119E+04  0.00000000000E+00 0. -1.
         24    2    1    2    0    0  0.26621535777E+03 -0.35947595751E+03 -0.71578702297E+03  0.84780703196E+03  0.79574621910E+02 0.  0.
        254    2    1    2    0    0 -0.26621535777E+03  0.35947595751E+03  0.13363224493E+03  0.10206736138E+04  0.90764721577E+03 0.  0.
         23    2    4    4    0    0 -0.22514170293E+03  0.31608087383E+02  0.47667924801E+03  0.53567564153E+03  0.89651714194E+02 0.  0.
         23    2    4    4    0    0 -0.41073654837E+02  0.32786787013E+03 -0.34304700307E+03  0.48499797228E+03  0.91418824185E+02 0.  0.
          4    1    3    3  502    0  0.25354759781E+03 -0.31035840612E+03 -0.66214437211E+03  0.77397925949E+03  0.00000000000E+00 0. -1.
         -3    1    3    3    0  502  0.12667759956E+02 -0.49117551387E+02 -0.53642650864E+02  0.73827772472E+02  0.00000000000E+00 0.  1.
         11    1    5    5    0    0 -0.12045099486E+03  0.58292180460E+02  0.30147945684E+03  0.32984281614E+03  0.00000000000E+00 0.  1.
        -11    1    5    5    0    0 -0.10469070807E+03 -0.26684093077E+02  0.17519979117E+03  0.20583282538E+03  0.00000000000E+00 0. -1.
          2    1    6    6  503    0  0.17092387267E+02  0.18375999709E+03 -0.15469604134E+03  0.24081268953E+03  0.00000000000E+00 0. -1.
         -2    1    6    6    0  503 -0.58166042104E+02  0.14410787304E+03 -0.18835096174E+03  0.24418528275E+03  0.00000000000E+00 0.  1.
<mgrwt>
<rscale>  0 0.17754762E+04</rscale>
<asrwt>0</asrwt>
<pdfrwt beam="1">  1        4 0.18851042E+00 0.17754762E+04</pdfrwt>
<pdfrwt beam="2">  1       -3 0.98948144E-01 0.17754762E+04</pdfrwt>
<totfact> 0.30414028E-01</totfact>
</mgrwt>
</event>
<event>
12    6  0.1538774E-007  0.1276767E+04  0.7818608E-02  0.9048195E-01
         -1   -1    0    0    0  501 -0.00000000000E+00  0.00000000000E+00  0.13859519169E+04  0.13859519169E+04  0.00000000000E+00 0.  1.
          2   -1    0    0  501    0  0.00000000000E+00 -0.00000000000E+00 -0.29404587848E+03  0.29404587848E+03  0.00000000000E+00 0. -1.
         24    2    1    2    0    0 -0.89282407646E+02  0.49668945072E+01  0.67042123556E+03  0.68108151848E+03  0.80071114455E+02 0.  0.
        254    2    1    2    0    0  0.89282407646E+02 -0.49668945072E+01  0.42148480281E+03  0.99891627685E+03  0.90121488603E+03 0.  0.
         23    2    4    4    0    0  0.21622469632E+03  0.36367942033E+03  0.20157982015E+02  0.43342635992E+03  0.91848925730E+02 0.  0.
         23    2    4    4    0    0 -0.12694228868E+03 -0.36864631484E+03  0.40132682079E+03  0.56548991693E+03  0.81860729056E+02 0.  0.
          4    1    3    3  502    0  0.24181831768E+00 -0.21577307924E+02  0.22169859561E+03  0.22274628165E+03  0.00000000000E+00 0. -1.
         -3    1    3    3    0  502 -0.89524225964E+02  0.26544202431E+02  0.44872263995E+03  0.45833523683E+03  0.00000000000E+00 0.  1.
         11    1    5    5    0    0  0.12746738929E+03  0.13082715322E+03  0.23825475465E+02  0.18420459450E+03  0.00000000000E+00 0.  1.
        -11    1    5    5    0    0  0.88757307034E+02  0.23285226711E+03 -0.36674934502E+01  0.24922176542E+03  0.00000000000E+00 0. -1.
          4    1    6    6  503    0 -0.17585623692E+02 -0.52405105069E+01  0.25204508213E+02  0.31176663472E+02  0.00000000000E+00 0. -1.
         -4    1    6    6    0  503 -0.10935666499E+03 -0.36340580433E+03  0.37612231258E+03  0.53431325346E+03  0.00000000000E+00 0.  1.
<mgrwt>
<rscale>  0 0.12767669E+04</rscale>
<asrwt>0</asrwt>
<pdfrwt beam="1">  1        2 0.45237828E-01 0.12767669E+04</pdfrwt>
<pdfrwt beam="2">  1       -1 0.21322337E+00 0.12767669E+04</pdfrwt>
<totfact> 0.15443364E+01</totfact>
</mgrwt>
</event>
<event>
12    6  0.1538774E-007  0.2409517E+04  0.7818608E-02  0.8435949E-01
          2   -1    0    0  501    0  0.00000000000E+00  0.00000000000E+00  0.19220605645E+04  0.19220605645E+04  0.00000000000E+00 0. -1.
         -1   -1    0    0    0  501 -0.00000000000E+00 -0.00000000000E+00 -0.75514968779E+03  0.75514968779E+03  0.00000000000E+00 0.  1.
         24    2    1    2    0    0  0.35097751539E+03 -0.71609981371E+03 -0.23101508449E+03  0.83365547137E+03  0.75028769075E+02 0.  0.
        254    2    1    2    0    0 -0.35097751539E+03  0.71609981371E+03  0.13979259612E+04  0.18435547809E+04  0.89917355263E+03 0.  0.
         23    2    4    4    0    0 -0.17980108057E+02  0.15903765002E+02  0.92838305934E+03  0.93257909388E+03  0.85043797299E+02 0.  0.
         23    2    4    4    0    0 -0.33299740733E+03  0.70019604871E+03  0.46954290190E+03  0.91097568706E+03  0.90798600081E+02 0.  0.
          4    1    3    3  502    0  0.23580373824E+02 -0.10588482678E+03 -0.28715903956E+02  0.11221512247E+03  0.00000000000E+00 0. -1.
         -3    1    3    3    0  502  0.32739714156E+03 -0.61021498693E+03 -0.20229918053E+03  0.72144034890E+03  0.00000000000E+00 0.  1.
         11    1    5    5    0    0  0.18609768912E+02  0.25745693898E+02  0.15261138556E+03  0.15588264579E+03  0.00000000000E+00 0. -1.
        -11    1    5    5    0    0 -0.36589876969E+02 -0.98419288965E+01  0.77577167377E+03  0.77669644810E+03  0.00000000000E+00 0.  1.
          3    1    6    6  503    0 -0.29153425790E+03  0.53177107846E+03  0.38145586314E+03  0.71643651424E+03  0.00000000000E+00 0. -1.
         -3    1    6    6    0  503 -0.41463149432E+02  0.16842497025E+03  0.88087038759E+02  0.19453917282E+03  0.00000000000E+00 0.  1.
<mgrwt>
<rscale>  0 0.24095173E+04</rscale>
<asrwt>0</asrwt>
<pdfrwt beam="1">  1        2 0.29570162E+00 0.24095173E+04</pdfrwt>
<pdfrwt beam="2">  1       -1 0.11617688E+00 0.24095173E+04</pdfrwt>
<totfact> 0.50562241E+00</totfact>
</mgrwt>
</event>
<event>
12    6  0.1538774E-007  0.1121833E+04  0.7818608E-02  0.9184170E-01
          2   -1    0    0  501    0  0.00000000000E+00  0.00000000000E+00  0.68636575321E+03  0.68636575321E+03  0.00000000000E+00 0. -1.
         -1   -1    0    0    0  501 -0.00000000000E+00 -0.00000000000E+00 -0.45839572332E+03  0.45839572332E+03  0.00000000000E+00 0.  1.
         24    2    1    2    0    0  0.15662097585E+03 -0.57964622208E+02 -0.59193784056E+02  0.19420265251E+03  0.79503073334E+02 0.  0.
        254    2    1    2    0    0 -0.15662097585E+03  0.57964622208E+02  0.28716381394E+03  0.95055882401E+03  0.89062281262E+03 0.  0.
         23    2    4    4    0    0 -0.35771475799E+03 -0.11129370139E+03  0.47703010554E+03  0.61355623147E+03  0.92452104018E+02 0.  0.
         23    2    4    4    0    0  0.20109378214E+03  0.16925832360E+03 -0.18986629159E+03  0.33700259254E+03  0.91839258349E+02 0.  0.
          2    1    3    3  502    0  0.11621133653E+02 -0.27721953366E+02  0.86577172261E+01  0.31281200639E+02  0.00000000000E+00 0. -1.
         -1    1    3    3    0  502  0.14499984219E+03 -0.30242668841E+02 -0.67851501282E+02  0.16292145188E+03  0.00000000000E+00 0.  1.
         11    1    5    5    0    0 -0.31053757689E+03 -0.77847046798E+02  0.35207830855E+03  0.47587065964E+03  0.00000000000E+00 0. -1.
        -11    1    5    5    0    0 -0.47177181097E+02 -0.33446654590E+02  0.12495179699E+03  0.13768557183E+03  0.00000000000E+00 0.  1.
          4    1    6    6  503    0  0.18279001800E+03  0.11191435804E+03 -0.12333592356E+03  0.24728276175E+03  0.00000000000E+00 0. -1.
         -4    1    6    6    0  503  0.18303764139E+02  0.57343965557E+02 -0.66530368029E+02  0.89719830793E+02  0.00000000000E+00 0.  1.
<mgrwt>
<rscale>  0 0.11218327E+04</rscale>
<asrwt>0</asrwt>
<pdfrwt beam="1">  1        2 0.10559473E+00 0.11218327E+04</pdfrwt>
<pdfrwt beam="2">  1       -1 0.70522419E-01 0.11218327E+04</pdfrwt>
<totfact> 0.96702669E+01</totfact>
</mgrwt>
</event>
<event>
12    6  0.1538774E-007  0.2927880E+04  0.7818608E-02  0.8264630E-01
         -1   -1    0    0    0  501 -0.00000000000E+00  0.00000000000E+00  0.69091706439E+03  0.69091706439E+03  0.00000000000E+00 0.  1.
          2   -1    0    0  501    0  0.00000000000E+00 -0.00000000000E+00 -0.31018485610E+04  0.31018485610E+04  0.00000000000E+00 0. -1.
         24    2    1    2    0    0 -0.99786134184E+03  0.82811459013E+03 -0.74855898736E+03  0.14993383106E+04  0.78573406214E+02 0.  0.
        254    2    1    2    0    0  0.99786134184E+03 -0.82811459013E+03 -0.16623725093E+04  0.22934273148E+04  0.90267682856E+03 0.  0.
         23    2    4    4    0    0  0.10276281730E+04 -0.36472689808E+03 -0.12880744758E+04  0.16901629165E+04  0.92029651971E+02 0.  0.
         23    2    4    4    0    0 -0.29766831172E+02 -0.46338769206E+03 -0.37429803350E+03  0.60326439837E+03  0.90634977075E+02 0.  0.
          4    1    3    3  502    0 -0.69174916739E+02  0.49485426069E+02 -0.28738122000E+02  0.89776701628E+02  0.00000000000E+00 0. -1.
         -3    1    3    3    0  502 -0.92868642510E+03  0.77862916406E+03 -0.71982086536E+03  0.14095616090E+04  0.00000000000E+00 0.  1.
         11    1    5    5    0    0  0.56190355033E+03 -0.22526980488E+03 -0.65422170091E+03  0.89134063006E+03  0.00000000000E+00 0. -1.
        -11    1    5    5    0    0  0.46572462268E+03 -0.13945709320E+03 -0.63385277489E+03  0.79882228640E+03  0.00000000000E+00 0.  1.
          4    1    6    6  503    0 -0.34798709803E+02 -0.39673240743E+03 -0.35545967484E+03  0.53381563648E+03  0.00000000000E+00 0. -1.
         -4    1    6    6    0  503  0.50318786306E+01 -0.66655284622E+02 -0.18838358654E+02  0.69448761885E+02  0.00000000000E+00 0.  1.
<mgrwt>
<rscale>  0 0.29278798E+04</rscale>
<asrwt>0</asrwt>
<pdfrwt beam="1">  1        2 0.47720746E+00 0.29278798E+04</pdfrwt>
<pdfrwt beam="2">  1       -1 0.10629493E+00 0.29278798E+04</pdfrwt>
<totfact> 0.12141077E+00</totfact>
</mgrwt>
</event>
<event>
12    6  0.1538774E-007  0.1231757E+04  0.7818608E-02  0.9085505E-01
         -1   -1    0    0    0  501 -0.00000000000E+00  0.00000000000E+00  0.15621467788E+03  0.15621467788E+03  0.00000000000E+00 0.  1.
          2   -1    0    0  501    0  0.00000000000E+00 -0.00000000000E+00 -0.24281098625E+04  0.24281098625E+04  0.00000000000E+00 0. -1.
         24    2    1    2    0    0 -0.33031198375E+02  0.26244860885E+03 -0.35062107938E+03  0.44629784834E+03  0.79223076021E+02 0.  0.
        254    2    1    2    0    0  0.33031198375E+02 -0.26244860885E+03 -0.19212741052E+04  0.21380266920E+04  0.89994089585E+03 0.  0.
         23    2    4    4    0    0  0.11554736761E+03 -0.32262455825E+03 -0.19633697899E+04  0.19948686675E+04  0.85101521950E+02 0.  0.
         23    2    4    4    0    0 -0.82516169238E+02  0.60175949408E+02  0.42095684617E+02  0.14315802455E+03  0.91061024900E+02 0.  0.
          4    1    3    3  502    0 -0.24958315020E+02  0.26350965223E+03 -0.32352916965E+03  0.41800882518E+03  0.00000000000E+00 0. -1.
         -3    1    3    3    0  502 -0.80728833552E+01 -0.10610433891E+01 -0.27091909727E+02  0.28289023160E+02  0.00000000000E+00 0.  1.
         11    1    5    5    0    0  0.98597254496E+01 -0.11008119674E+03 -0.47493058416E+03  0.48762090176E+03  0.00000000000E+00 0. -1.
        -11    1    5    5    0    0  0.10568764216E+03 -0.21254336152E+03 -0.14884392057E+04  0.15072477657E+04  0.00000000000E+00 0.  1.
          4    1    6    6  503    0 -0.21897852278E+02  0.68685835305E+02  0.65883884767E+01  0.72392449666E+02  0.00000000000E+00 0. -1.
         -4    1    6    6    0  503 -0.60618316960E+02 -0.85098858965E+01  0.35507296140E+02  0.70765574881E+02  0.00000000000E+00 0.  1.
<mgrwt>
<rscale>  0 0.12317571E+04</rscale>
<asrwt>0</asrwt>
<pdfrwt beam="1">  1        2 0.37355535E+00 0.12317571E+04</pdfrwt>
<pdfrwt beam="2">  1       -1 0.24033028E-01 0.12317571E+04</pdfrwt>
<totfact> 0.64706402E+01</totfact>
</mgrwt>
</event>
<event>
12    6  0.1538774E-007  0.1230983E+04  0.7818608E-02  0.9086161E-01
          2   -1    0    0  501    0  0.00000000000E+00  0.00000000000E+00  0.41530241486E+03  0.41530241486E+03  0.00000000000E+00 0. -1.
         -1   -1    0    0    0  501 -0.00000000000E+00 -0.00000000000E+00 -0.91217838218E+03  0.91217838218E+03  0.00000000000E+00 0.  1.
         24    2    1    2    0    0  0.88359099648E+02  0.25802605667E+03 -0.55216556898E+02  0.29102877763E+03  0.85229718069E+02 0.  0.
        254    2    1    2    0    0 -0.88359099648E+02 -0.25802605667E+03 -0.44165941042E+03  0.10364520194E+04  0.89709808679E+03 0.  0.
         23    2    4    4    0    0  0.18383458577E+03 -0.37456447827E+03  0.75598739272E+02  0.43317435919E+03  0.88493800784E+02 0.  0.
         23    2    4    4    0    0 -0.27219368542E+03  0.11653842160E+03 -0.51725814969E+03  0.60327766021E+03  0.93366673964E+02 0.  0.
          2    1    3    3  502    0  0.10251592497E+03  0.20286630758E+03 -0.55926184275E+02  0.23407689273E+03  0.00000000000E+00 0. -1.
         -1    1    3    3    0  502 -0.14156825317E+02  0.55159749086E+02  0.70962737670E+00  0.56951884897E+02  0.00000000000E+00 0.  1.
         11    1    5    5    0    0 -0.42091682282E+01 -0.18680982647E+01  0.94571341734E+01  0.10518758248E+02  0.00000000000E+00 0. -1.
        -11    1    5    5    0    0  0.18804375400E+03 -0.37269638001E+03  0.66141605099E+02  0.42265560095E+03  0.00000000000E+00 0.  1.
          3    1    6    6  503    0 -0.99435523119E+01  0.92496641579E+01 -0.96372023397E-01  0.13580861798E+02  0.00000000000E+00 0. -1.
         -3    1    6    6    0  503 -0.26225013310E+03  0.10728875744E+03 -0.51716177766E+03  0.58969679842E+03  0.00000000000E+00 0.  1.
<mgrwt>
<rscale>  0 0.12309832E+04</rscale>
<asrwt>0</asrwt>
<pdfrwt beam="1">  1        2 0.63892680E-01 0.12309832E+04</pdfrwt>
<pdfrwt beam="2">  1       -1 0.14033513E+00 0.12309832E+04</pdfrwt>
<totfact> 0.35778590E+01</totfact>
</mgrwt>
</event>
<event>
12    6  0.1538774E-007  0.1627153E+04  0.7818608E-02  0.8804038E-01
          2   -1    0    0  501    0  0.00000000000E+00  0.00000000000E+00  0.15882937627E+04  0.15882937627E+04  0.00000000000E+00 0. -1.
         -1   -1    0    0    0  501 -0.00000000000E+00 -0.00000000000E+00 -0.41674093350E+03  0.41674093350E+03  0.00000000000E+00 0.  1.
         24    2    1    2    0    0 -0.34601318270E+02 -0.99264915557E+02  0.10917194630E+04  0.10997490688E+04  0.80906450539E+02 0.  0.
        254    2    1    2    0    0  0.34601318270E+02  0.99264915557E+02  0.79833366114E+02  0.90528562731E+03  0.89561036505E+03 0.  0.
         23    2    4    4    0    0 -0.35652631118E+03  0.25862198922E+02 -0.19073561095E+03  0.41545641939E+03  0.91891779994E+02 0.  0.
         23    2    4    4    0    0  0.39112762945E+03  0.73402716635E+02  0.27056897706E+03  0.48982920792E+03  0.91412801408E+02 0.  0.
          4    1    3    3  502    0 -0.32143782959E+02 -0.18776391232E+02  0.62702820047E+03  0.62813226301E+03  0.00000000000E+00 0. -1.
         -3    1    3    3    0  502 -0.24575353108E+01 -0.80488524325E+02  0.46469126257E+03  0.47161680583E+03  0.00000000000E+00 0.  1.
         11    1    5    5    0    0 -0.29380246461E+03  0.46874291437E+02 -0.18190140078E+03  0.34871938147E+03  0.00000000000E+00 0. -1.
        -11    1    5    5    0    0 -0.62723846571E+02 -0.21012092515E+02 -0.88342101662E+01  0.66737037916E+02  0.00000000000E+00 0.  1.
          2    1    6    6  503    0  0.17910928402E+03 -0.84219650332E+01  0.14197668828E+03  0.22871039577E+03  0.00000000000E+00 0. -1.
         -2    1    6    6    0  503  0.21201834543E+03  0.81824681668E+02  0.12859228878E+03  0.26111881216E+03  0.00000000000E+00 0.  1.
<mgrwt>
<rscale>  0 0.16271534E+04</rscale>
<asrwt>0</asrwt>
<pdfrwt beam="1">  1        2 0.24435288E+00 0.16271534E+04</pdfrwt>
<pdfrwt beam="2">  1       -1 0.64113991E-01 0.16271534E+04</pdfrwt>
<totfact> 0.30451455E+01</totfact>
</mgrwt>
</event>
<event>
12    6  0.1538774E-007  0.3484340E+04  0.7818608E-02  0.8117511E-01
         -1   -1    0    0    0  501 -0.00000000000E+00  0.00000000000E+00  0.93198622159E+03  0.93198622159E+03  0.00000000000E+00 0.  1.
          2   -1    0    0  501    0  0.00000000000E+00 -0.00000000000E+00 -0.32566534488E+04  0.32566534488E+04  0.00000000000E+00 0. -1.
         24    2    1    2    0    0 -0.32082027426E+03 -0.11415978319E+04  0.24785264117E+03  0.12141319846E+04  0.80711127417E+02 0.  0.
        254    2    1    2    0    0  0.32082027426E+03  0.11415978319E+04 -0.25725198683E+04  0.29745076858E+04  0.90756059937E+03 0.  0.
         23    2    4    4    0    0  0.32724491028E+03  0.39988698345E+02 -0.33675785382E+03  0.48040567512E+03  0.93249307146E+02 0.  0.
         23    2    4    4    0    0 -0.64246360226E+01  0.11016091336E+04 -0.22357620145E+04  0.24941020106E+04  0.91263874809E+02 0.  0.
          2    1    3    3  502    0 -0.18557733356E+03 -0.62312535614E+03  0.17554497581E+03  0.67345392918E+03  0.00000000000E+00 0. -1.
         -1    1    3    3    0  502 -0.13524294069E+03 -0.51847247576E+03  0.72307665362E+02  0.54067805541E+03  0.00000000000E+00 0.  1.
         11    1    5    5    0    0  0.14338767082E+02 -0.72547392010E+01 -0.52934549454E+02  0.55319960305E+02  0.00000000000E+00 0.  1.
        -11    1    5    5    0    0  0.31290614320E+03  0.47243437546E+02 -0.28382330436E+03  0.42508571482E+03  0.00000000000E+00 0. -1.
          2    1    6    6  503    0 -0.15833403274E+02  0.10273403741E+04 -0.20313833312E+04  0.22764439767E+04  0.00000000000E+00 0. -1.
         -2    1    6    6    0  503  0.94087672516E+01  0.74268759474E+02 -0.20437868332E+03  0.21765803392E+03  0.00000000000E+00 0.  1.
<mgrwt>
<rscale>  0 0.34843399E+04</rscale>
<asrwt>0</asrwt>
<pdfrwt beam="1">  1        2 0.50102360E+00 0.34843399E+04</pdfrwt>
<pdfrwt beam="2">  1       -1 0.14338250E+00 0.34843399E+04</pdfrwt>
<totfact> 0.43714550E-01</totfact>
</mgrwt>
</event>
<event>
12    6  0.1538774E-007  0.1456491E+04  0.7818608E-02  0.8913913E-01
         -1   -1    0    0    0  501 -0.00000000000E+00  0.00000000000E+00  0.61422170810E+03  0.61422170810E+03  0.00000000000E+00 0.  1.
          2   -1    0    0  501    0  0.00000000000E+00 -0.00000000000E+00 -0.86343642625E+03  0.86343642625E+03  0.00000000000E+00 0. -1.
         24    2    1    2    0    0 -0.25123261212E+03 -0.43293319191E+03  0.10376987399E+03  0.51758836175E+03  0.81120598052E+02 0.  0.
        254    2    1    2    0    0  0.25123261212E+03  0.43293319191E+03 -0.35298459214E+03  0.96006977260E+03  0.73931513709E+03 0.  0.
         23    2    4    4    0    0 -0.17354561104E+03  0.27139543899E+03  0.59238556121E+02  0.34005853242E+03  0.91416822967E+02 0.  0.
         23    2    4    4    0    0  0.42477822315E+03  0.16153775292E+03 -0.41222314826E+03  0.62001124018E+03  0.89190972128E+02 0.  0.
          4    1    3    3  502    0 -0.96767862001E+02 -0.18344418838E+03  0.83084243544E+02  0.22342511249E+03  0.00000000000E+00 0. -1.
         -3    1    3    3    0  502 -0.15446475011E+03 -0.24948900353E+03  0.20685630449E+02  0.29416324926E+03  0.00000000000E+00 0.  1.
         11    1    5    5    0    0 -0.11469744757E+03  0.11279048672E+03  0.57645278265E+02  0.17088059130E+03  0.00000000000E+00 0. -1.
        -11    1    5    5    0    0 -0.58848163464E+02  0.15860495227E+03  0.15932778557E+01  0.16917794112E+03  0.00000000000E+00 0.  1.
          2    1    6    6  503    0  0.12018436961E+03  0.44802487091E+01 -0.11422654851E+03  0.16586759693E+03  0.00000000000E+00 0. -1.
         -2    1    6    6    0  503  0.30459385355E+03  0.15705750421E+03 -0.29799659975E+03  0.45414364326E+03  0.00000000000E+00 0.  1.
<mgrwt>
<rscale>  0 0.14564908E+04</rscale>
<asrwt>0</asrwt>
<pdfrwt beam="1">  1        2 0.13283637E+00 0.14564908E+04</pdfrwt>
<pdfrwt beam="2">  1       -1 0.94495648E-01 0.14564908E+04</pdfrwt>
<totfact> 0.37256349E+01</totfact>
</mgrwt>
</event>
<event>
12    6  0.1538774E-007  0.2350466E+04  0.7818608E-02  0.8458285E-01
         -1   -1    0    0    0  501 -0.00000000000E+00  0.00000000000E+00  0.74200664484E+03  0.74200664484E+03  0.00000000000E+00 0.  1.
          2   -1    0    0  501    0  0.00000000000E+00 -0.00000000000E+00 -0.18614019110E+04  0.18614019110E+04  0.00000000000E+00 0. -1.
         24    2    1    2    0    0  0.91597921769E+02 -0.27695637504E+03 -0.15483311540E+04  0.15775657002E+04  0.79304242605E+02 0.  0.
        254    2    1    2    0    0 -0.91597921769E+02  0.27695637504E+03  0.42893588787E+03  0.10258428557E+04  0.88502686719E+03 0.  0.
         23    2    4    4    0    0  0.48872435450E+02  0.16125202160E+02 -0.25477796311E+03  0.27515731878E+03  0.90284010222E+02 0.  0.
         23    2    4    4    0    0 -0.14047035722E+03  0.26083117288E+03  0.68371385098E+03  0.75068553688E+03  0.91100621570E+02 0.  0.
          4    1    3    3  502    0  0.46232944913E+02 -0.22641185263E+03 -0.10896646745E+04  0.11138980721E+04  0.00000000000E+00 0. -1.
         -1    1    3    3    0  502  0.45364976856E+02 -0.50544522406E+02 -0.45866647953E+03  0.46366762807E+03  0.00000000000E+00 0.  1.
         11    1    5    5    0    0  0.10752438895E+02  0.15798161707E+02 -0.16570235880E+01  0.19181829493E+02  0.00000000000E+00 0. -1.
        -11    1    5    5    0    0  0.38119996555E+02  0.32704045210E+00 -0.25312093952E+03  0.25597548929E+03  0.00000000000E+00 0.  1.
          4    1    6    6  503    0 -0.11546276417E+03  0.12054944437E+03  0.34700419241E+03  0.38506587488E+03  0.00000000000E+00 0. -1.
         -4    1    6    6    0  503 -0.25007593051E+02  0.14028172851E+03  0.33670965857E+03  0.36561966199E+03  0.00000000000E+00 0.  1.
<mgrwt>
<rscale>  0 0.23504660E+04</rscale>
<asrwt>0</asrwt>
<pdfrwt beam="1">  1        2 0.28636952E+00 0.23504660E+04</pdfrwt>
<pdfrwt beam="2">  1       -1 0.11415487E+00 0.23504660E+04</pdfrwt>
<totfact> 0.57280073E+00</totfact>
</mgrwt>
</event>
<event>
12    6  0.1538774E-007  0.1923285E+04  0.7818608E-02  0.8643352E-01
          2   -1    0    0  501    0  0.00000000000E+00  0.00000000000E+00  0.16159388225E+04  0.16159388225E+04  0.00000000000E+00 0. -1.
         -1   -1    0    0    0  501 -0.00000000000E+00 -0.00000000000E+00 -0.57227158912E+03  0.57227158912E+03  0.00000000000E+00 0.  1.
         24    2    1    2    0    0 -0.64209552309E+03 -0.11606948650E+03  0.34959109498E+01  0.65748464892E+03  0.80715895043E+02 0.  0.
        254    2    1    2    0    0  0.64209552309E+03  0.11606948650E+03  0.10401713225E+04  0.15307257627E+04  0.91400557665E+03 0.  0.
         23    2    4    4    0    0  0.39082869499E+03 -0.38415249408E+03  0.53860404406E+03  0.77381123657E+03  0.91483911275E+02 0.  0.
         23    2    4    4    0    0  0.25126682809E+03  0.50022198057E+03  0.50156727841E+03  0.75691452617E+03  0.89402552585E+02 0.  0.
          2    1    3    3  502    0 -0.12388060294E+02 -0.42469405663E+01 -0.11965065424E+02  0.17738752285E+02  0.00000000000E+00 0. -1.
         -1    1    3    3    0  502 -0.62970746279E+03 -0.11182254593E+03  0.15460976374E+02  0.63974589664E+03  0.00000000000E+00 0.  1.
         11    1    5    5    0    0  0.29847509268E+02 -0.19093675683E+02  0.97522995142E+01  0.36749824576E+02  0.00000000000E+00 0. -1.
        -11    1    5    5    0    0  0.36098118573E+03 -0.36505881839E+03  0.52885174455E+03  0.73706141199E+03  0.00000000000E+00 0.  1.
          4    1    6    6  503    0  0.16617476171E+03  0.25617041762E+03  0.31060634858E+03  0.43556129084E+03  0.00000000000E+00 0. -1.
         -4    1    6    6    0  503  0.85092066382E+02  0.24405156295E+03  0.19096092982E+03  0.32135323533E+03  0.00000000000E+00 0.  1.
<mgrwt>
<rscale>  0 0.19232846E+04</rscale>
<asrwt>0</asrwt>
<pdfrwt beam="1">  1        2 0.24860597E+00 0.19232846E+04</pdfrwt>
<pdfrwt beam="2">  1       -1 0.88041783E-01 0.19232846E+04</pdfrwt>
<totfact> 0.14751128E+01</totfact>
</mgrwt>
</event>
<event>
12    6  0.1538774E-007  0.2048296E+04  0.7818608E-02  0.8584368E-01
          2   -1    0    0  501    0  0.00000000000E+00  0.00000000000E+00  0.25207221925E+04  0.25207221925E+04  0.00000000000E+00 0. -1.
         -1   -1    0    0    0  501 -0.00000000000E+00 -0.00000000000E+00 -0.41610248395E+03  0.41610248395E+03  0.00000000000E+00 0.  1.
         24    2    1    2    0    0 -0.34588789064E+03  0.11270351092E+03  0.18983563469E+04  0.19342625474E+04  0.72624158520E+02 0.  0.
        254    2    1    2    0    0  0.34588789064E+03 -0.11270351092E+03  0.20626336167E+03  0.10025621290E+04  0.91117821194E+03 0.  0.
         23    2    4    4    0    0 -0.95711295056E+02 -0.52746695150E+01  0.45854851336E+03  0.47522575275E+03  0.79901832471E+02 0.  0.
         23    2    4    4    0    0  0.44159918569E+03 -0.10742884141E+03 -0.25228515169E+03  0.52733637627E+03  0.88797855882E+02 0.  0.
          4    1    3    3  502    0 -0.31281784173E+03  0.11393524470E+03  0.16133691560E+04  0.16473603964E+04  0.00000000000E+00 0. -1.
         -3    1    3    3    0  502 -0.33070048905E+02 -0.12317337739E+01  0.28498719090E+03  0.28690215106E+03  0.00000000000E+00 0.  1.
         11    1    5    5    0    0  0.51143336834E+01 -0.22664598139E+01 -0.12114961453E+00  0.55953486346E+01  0.00000000000E+00 0.  1.
        -11    1    5    5    0    0 -0.10082562874E+03 -0.30082097011E+01  0.45866966297E+03  0.46963040412E+03  0.00000000000E+00 0. -1.
          4    1    6    6  503    0  0.36556581844E+03 -0.55304282753E+02 -0.18661383603E+03  0.41415172956E+03  0.00000000000E+00 0. -1.
         -4    1    6    6    0  503  0.76033367252E+02 -0.52124558653E+02 -0.65671315663E+02  0.11318464671E+03  0.00000000000E+00 0.  1.
<mgrwt>
<rscale>  0 0.20482956E+04</rscale>
<asrwt>0</asrwt>
<pdfrwt beam="1">  1        2 0.38780341E+00 0.20482956E+04</pdfrwt>
<pdfrwt beam="2">  1       -1 0.64015768E-01 0.20482956E+04</pdfrwt>
<totfact> 0.88304360E+00</totfact>
</mgrwt>
</event>
<event>
12    6  0.1538774E-007  0.1827022E+04  0.7818608E-02  0.8692060E-01
         -1   -1    0    0    0  501 -0.00000000000E+00  0.00000000000E+00  0.39053659431E+03  0.39053659431E+03  0.00000000000E+00 0.  1.
          2   -1    0    0  501    0  0.00000000000E+00 -0.00000000000E+00 -0.21368103863E+04  0.21368103863E+04  0.00000000000E+00 0. -1.
         24    2    1    2    0    0  0.37841137502E+03 -0.37538905569E+03 -0.57162431453E+02  0.54200829561E+03  0.79958345826E+02 0.  0.
        254    2    1    2    0    0 -0.37841137502E+03  0.37538905569E+03 -0.16891113606E+04  0.19853386850E+04  0.89686141291E+03 0.  0.
         23    2    4    4    0    0  0.70721280785E+02  0.48516241701E+03 -0.49785085338E+03  0.70424020637E+03  0.87833510782E+02 0.  0.
         23    2    4    4    0    0 -0.44913265580E+03 -0.10977336132E+03 -0.11912605072E+04  0.12810984786E+04  0.91331170296E+02 0.  0.
          2    1    3    3  502    0  0.51400122503E+02 -0.18073396256E+02 -0.21448628228E+01  0.54527247153E+02  0.00000000000E+00 0. -1.
         -3    1    3    3    0  502  0.32701125251E+03 -0.35731565944E+03 -0.55017568631E+02  0.48748104846E+03  0.00000000000E+00 0.  1.
         11    1    5    5    0    0  0.88355430978E+02  0.36019653237E+03 -0.39053412596E+03  0.53857694683E+03  0.00000000000E+00 0.  1.
        -11    1    5    5    0    0 -0.17634150193E+02  0.12496588464E+03 -0.10731672742E+03  0.16566325954E+03  0.00000000000E+00 0. -1.
          4    1    6    6  503    0 -0.11798070560E+03 -0.58604614626E+02 -0.42047832102E+03  0.44063132684E+03  0.00000000000E+00 0. -1.
         -4    1    6    6    0  503 -0.33115195020E+03 -0.51168746693E+02 -0.77078218616E+03  0.84046715180E+03  0.00000000000E+00 0.  1.
<mgrwt>
<rscale>  0 0.18270223E+04</rscale>
<asrwt>0</asrwt>
<pdfrwt beam="1">  1        2 0.32874007E+00 0.18270223E+04</pdfrwt>
<pdfrwt beam="2">  1       -1 0.60082552E-01 0.18270223E+04</pdfrwt>
<totfact> 0.16886493E+01</totfact>
</mgrwt>
</event>
<event>
12    6  0.1538774E-007  0.1966744E+04  0.7818608E-02  0.8622329E-01
         -1   -1    0    0    0  501 -0.00000000000E+00  0.00000000000E+00  0.60456981821E+03  0.60456981821E+03  0.00000000000E+00 0.  1.
          2   -1    0    0  501    0  0.00000000000E+00 -0.00000000000E+00 -0.15995188584E+04  0.15995188584E+04  0.00000000000E+00 0. -1.
         24    2    1    2    0    0  0.62101628760E+03 -0.35571503591E+03 -0.15617491229E+03  0.73808378501E+03  0.90458024692E+02 0.  0.
        254    2    1    2    0    0 -0.62101628760E+03  0.35571503591E+03 -0.83877412787E+03  0.14660048916E+04  0.96614382379E+03 0.  0.
         23    2    4    4    0    0  0.11041362529E+03  0.26638301175E+03  0.50513986722E+02  0.30758857452E+03  0.94382152570E+02 0.  0.
         23    2    4    4    0    0 -0.73142991289E+03  0.89332024166E+02 -0.88928811460E+03  0.11584163170E+04  0.90139252311E+02 0.  0.
          4    1    3    3  502    0  0.45737200626E+02 -0.59167456308E+01 -0.23865076192E+02  0.51927268959E+02  0.00000000000E+00 0. -1.
         -3    1    3    3    0  502  0.57527908698E+03 -0.34979829028E+03 -0.13230983610E+03  0.68615651605E+03  0.00000000000E+00 0.  1.
         11    1    5    5    0    0  0.38620376766E+02  0.46128374300E+02  0.46258490504E+02  0.75889448284E+02  0.00000000000E+00 0. -1.
        -11    1    5    5    0    0  0.71793248523E+02  0.22025463745E+03  0.42554962183E+01  0.23169912624E+03  0.00000000000E+00 0.  1.
          1    1    6    6  503    0 -0.32382098581E+03  0.80881725803E+02 -0.37217300892E+03  0.49991462570E+03  0.00000000000E+00 0. -1.
         -1    1    6    6    0  503 -0.40760892708E+03  0.84502983629E+01 -0.51711510568E+03  0.65850169134E+03  0.00000000000E+00 0.  1.
<mgrwt>
<rscale>  0 0.19667443E+04</rscale>
<asrwt>0</asrwt>
<pdfrwt beam="1">  1        2 0.24607982E+00 0.19667443E+04</pdfrwt>
<pdfrwt beam="2">  1       -1 0.93010742E-01 0.19667443E+04</pdfrwt>
<totfact> 0.13295493E+01</totfact>
</mgrwt>
</event>
<event>
12    6  0.1538774E-007  0.1468949E+04  0.7818608E-02  0.8905368E-01
         -3   -1    0    0    0  501 -0.00000000000E+00  0.00000000000E+00  0.13625694078E+04  0.13625694078E+04  0.00000000000E+00 0.  1.
          2   -1    0    0  501    0  0.00000000000E+00 -0.00000000000E+00 -0.39590835159E+03  0.39590835159E+03  0.00000000000E+00 0. -1.
         24    2    1    2    0    0  0.21093744236E+03  0.13905651937E+03  0.74943967427E+03  0.79486405233E+03  0.79484062260E+02 0.  0.
        254    2    1    2    0    0 -0.21093744236E+03 -0.13905651937E+03  0.21722138190E+03  0.96361370701E+03  0.90417638070E+03 0.  0.
         23    2    4    4    0    0 -0.33568126322E+03 -0.45810062366E+03  0.68111544573E+02  0.57907398355E+03  0.90274049644E+02 0.  0.
         23    2    4    4    0    0  0.12474382086E+03  0.31904410429E+03  0.14910983733E+03  0.38453972346E+03  0.91032378910E+02 0.  0.
          4    1    3    3  502    0  0.26798198893E+02 -0.66105493856E-01  0.15303324881E+03  0.15536190999E+03  0.00000000000E+00 0. -1.
         -3    1    3    3    0  502  0.18413924347E+03  0.13912262487E+03  0.59640642545E+03  0.63950214234E+03  0.00000000000E+00 0.  1.
         11    1    5    5    0    0 -0.31608005926E+03 -0.38330471727E+03  0.47700124294E+02  0.49910360848E+03  0.00000000000E+00 0. -1.
        -11    1    5    5    0    0 -0.19601203958E+02 -0.74795906394E+02  0.20411420279E+02  0.79970375063E+02  0.00000000000E+00 0.  1.
          4    1    6    6  503    0  0.11507255586E+03  0.29017931544E+03  0.16174699062E+03  0.35157903407E+03  0.00000000000E+00 0. -1.
         -4    1    6    6    0  503  0.96712649934E+01  0.28864788844E+02 -0.12637153296E+02  0.32960689389E+02  0.00000000000E+00 0.  1.
<mgrwt>
<rscale>  0 0.14689488E+04</rscale>
<asrwt>0</asrwt>
<pdfrwt beam="1">  1        2 0.60908978E-01 0.14689488E+04</pdfrwt>
<pdfrwt beam="2">  1       -3 0.20962606E+00 0.14689488E+04</pdfrwt>
<totfact> 0.62003256E+00</totfact>
</mgrwt>
</event>
<event>
12    6  0.1538774E-007  0.2543262E+04  0.7818608E-02  0.8387733E-01
         -1   -1    0    0    0  501 -0.00000000000E+00  0.00000000000E+00  0.75509989865E+03  0.75509989865E+03  0.00000000000E+00 0.  1.
          2   -1    0    0  501    0  0.00000000000E+00 -0.00000000000E+00 -0.21414982665E+04  0.21414982665E+04  0.00000000000E+00 0. -1.
         24    2    1    2    0    0  0.96556366523E+03  0.14948216384E+03 -0.39092153555E+01  0.98036739195E+03  0.80292168415E+02 0.  0.
        254    2    1    2    0    0 -0.96556366523E+03 -0.14948216384E+03 -0.13824891525E+04  0.19162307732E+04  0.89777837492E+03 0.  0.
         23    2    4    4    0    0 -0.57308017351E+03  0.35598607032E+03 -0.72596958800E+03  0.99516613232E+03  0.90425774485E+02 0.  0.
         23    2    4    4    0    0 -0.39248349172E+03 -0.50546823416E+03 -0.65651956450E+03  0.92106464088E+03  0.88321611682E+02 0.  0.
          2    1    3    3  502    0  0.25907326390E+03  0.67705639989E+02  0.22098909087E+02  0.26868452046E+03  0.00000000000E+00 0. -1.
         -1    1    3    3    0  502  0.70649040133E+03  0.81776523850E+02 -0.26008124442E+02  0.71168287149E+03  0.00000000000E+00 0.  1.
         11    1    5    5    0    0 -0.46653394535E+03  0.24587970160E+03 -0.55536299062E+03  0.76585821219E+03  0.00000000000E+00 0.  1.
        -11    1    5    5    0    0 -0.10654622816E+03  0.11010636872E+03 -0.17060659738E+03  0.22930792014E+03  0.00000000000E+00 0. -1.
          2    1    6    6  503    0 -0.26003155079E+03 -0.31106818106E+03 -0.47107865389E+03  0.62152628169E+03  0.00000000000E+00 0. -1.
         -2    1    6    6    0  503 -0.13245194092E+03 -0.19440005310E+03 -0.18544091061E+03  0.29953835919E+03  0.00000000000E+00 0.  1.
<mgrwt>
<rscale>  0 0.25432618E+04</rscale>
<asrwt>0</asrwt>
<pdfrwt beam="1">  1        2 0.32946127E+00 0.25432618E+04</pdfrwt>
<pdfrwt beam="2">  1       -1 0.11616922E+00 0.25432618E+04</pdfrwt>
<totfact> 0.37718181E+00</totfact>
</mgrwt>
</event>
<event>
12    6  0.1538774E-007  0.1161583E+04  0.7818608E-02  0.9147164E-01
         -1   -1    0    0    0  501 -0.00000000000E+00  0.00000000000E+00  0.28385051828E+03  0.28385051828E+03  0.00000000000E+00 0.  1.
          2   -1    0    0  501    0  0.00000000000E+00 -0.00000000000E+00 -0.11883672977E+04  0.11883672977E+04  0.00000000000E+00 0. -1.
         24    2    1    2    0    0  0.20949571755E+03  0.37756557832E+02 -0.24565585847E+03  0.33671764162E+03  0.87851898364E+02 0.  0.
        254    2    1    2    0    0 -0.20949571755E+03 -0.37756557832E+02 -0.65886092098E+03  0.11355001744E+04  0.89997162150E+03 0.  0.
         23    2    4    4    0    0 -0.26436914300E+03  0.24133105283E+03  0.44835791490E+02  0.37096279251E+03  0.86437401586E+02 0.  0.
         23    2    4    4    0    0  0.54873425451E+02 -0.27908761066E+03 -0.70369671247E+03  0.76453738188E+03  0.91800642190E+02 0.  0.
          4    1    3    3  502    0  0.14630339877E+03  0.60929251712E+01 -0.21392472505E+03  0.25924042165E+03  0.00000000000E+00 0. -1.
         -3    1    3    3    0  502  0.63192318784E+02  0.31663632661E+02 -0.31731133418E+02  0.77477219972E+02  0.00000000000E+00 0.  1.
         11    1    5    5    0    0 -0.21817042702E+02  0.43453954556E+02  0.30926609050E+02  0.57625382135E+02  0.00000000000E+00 0.  1.
        -11    1    5    5    0    0 -0.24255210030E+03  0.19787709827E+03  0.13909182440E+02  0.31333741037E+03  0.00000000000E+00 0. -1.
          3    1    6    6  503    0  0.37020539976E+02 -0.27012742093E+03 -0.68462441027E+03  0.73691921339E+03  0.00000000000E+00 0. -1.
         -3    1    6    6    0  503  0.17852885475E+02 -0.89601897288E+01 -0.19072302196E+02  0.27618168491E+02  0.00000000000E+00 0.  1.
<mgrwt>
<rscale>  0 0.11615828E+04</rscale>
<asrwt>0</asrwt>
<pdfrwt beam="1">  1        2 0.18282574E+00 0.11615828E+04</pdfrwt>
<pdfrwt beam="2">  1       -1 0.43669311E-01 0.11615828E+04</pdfrwt>
<totfact> 0.11235183E+02</totfact>
</mgrwt>
</event>
<event>
12    6  0.1538774E-007  0.1371852E+04  0.7818608E-02  0.8974449E-01
          2   -1    0    0  501    0  0.00000000000E+00  0.00000000000E+00  0.12309538112E+04  0.12309538112E+04  0.00000000000E+00 0. -1.
         -3   -1    0    0    0  501 -0.00000000000E+00 -0.00000000000E+00 -0.38221956630E+03  0.38221956630E+03  0.00000000000E+00 0.  1.
         24    2    1    2    0    0 -0.42189082020E+02 -0.19691549317E+03  0.53543419136E+03  0.57766662239E+03  0.80332579013E+02 0.  0.
        254    2    1    2    0    0  0.42189082020E+02  0.19691549317E+03  0.31330005351E+03  0.10355067551E+04  0.96620995970E+03 0.  0.
         23    2    4    4    0    0 -0.14570629433E+03 -0.32865665875E+03 -0.32715848752E+02  0.37256643813E+03  0.92140656142E+02 0.  0.
         23    2    4    4    0    0  0.18789537635E+03  0.52557215192E+03  0.34601590227E+03  0.66294031696E+03  0.90730920323E+02 0.  0.
          4    1    3    3  502    0 -0.50353303472E+02 -0.79478498806E+02  0.30056393775E+03  0.31494597571E+03  0.00000000000E+00 0. -1.
         -3    1    3    3    0  502  0.81642214523E+01 -0.11743699437E+03  0.23487025361E+03  0.26272064668E+03  0.00000000000E+00 0.  1.
         11    1    5    5    0    0 -0.50643523354E+02 -0.75460624307E+02 -0.45857290322E+02  0.10179372944E+03  0.00000000000E+00 0.  1.
        -11    1    5    5    0    0 -0.95062770978E+02 -0.25319603444E+03  0.13141441570E+02  0.27077270869E+03  0.00000000000E+00 0. -1.
          3    1    6    6  503    0  0.13906547518E+03  0.40462589386E+03  0.21804271944E+03  0.48021239870E+03  0.00000000000E+00 0. -1.
         -3    1    6    6    0  503  0.48829901173E+02  0.12094625806E+03  0.12797318283E+03  0.18272791826E+03  0.00000000000E+00 0.  1.
<mgrwt>
<rscale>  0 0.13718522E+04</rscale>
<asrwt>0</asrwt>
<pdfrwt beam="1">  1        2 0.18937751E+00 0.13718522E+04</pdfrwt>
<pdfrwt beam="2">  1       -3 0.58803011E-01 0.13718522E+04</pdfrwt>
<totfact> 0.32002671E+01</totfact>
</mgrwt>
</event>
<event>
12    6  0.1538774E-007  0.1589270E+04  0.7818608E-02  0.8827167E-01
          2   -1    0    0  501    0  0.00000000000E+00  0.00000000000E+00  0.30141677740E+04  0.30141677740E+04  0.00000000000E+00 0. -1.
         -1   -1    0    0    0  501 -0.00000000000E+00 -0.00000000000E+00 -0.20949234161E+03  0.20949234161E+03  0.00000000000E+00 0.  1.
         24    2    1    2    0    0 -0.56684959600E+02  0.39348377594E+02 -0.11800704692E+03  0.15842532563E+03  0.80071475657E+02 0.  0.
        254    2    1    2    0    0  0.56684959600E+02 -0.39348377594E+02  0.29226824793E+04  0.30652347900E+04  0.92131968575E+03 0.  0.
         23    2    4    4    0    0 -0.21202052904E+03  0.25602774525E+03  0.22509133142E+04  0.22771351430E+04  0.90723757151E+02 0.  0.
         23    2    4    4    0    0  0.26870548864E+03 -0.29537612285E+03  0.67176916505E+03  0.78809964698E+03  0.10187025510E+03 0.  0.
          4    1    3    3  502    0 -0.69120332109E+02  0.12787960535E+02 -0.56144262645E+02  0.89962939444E+02  0.00000000000E+00 0. -1.
         -3    1    3    3    0  502  0.12435372509E+02  0.26560417059E+02 -0.61862784278E+02  0.68462386187E+02  0.00000000000E+00 0.  1.
         11    1    5    5    0    0 -0.73962084818E+02  0.64594359233E+02  0.94274254589E+03  0.94784298756E+03  0.00000000000E+00 0. -1.
        -11    1    5    5    0    0 -0.13805844422E+03  0.19143338602E+03  0.13081707684E+04  0.13292921554E+04  0.00000000000E+00 0.  1.
          4    1    6    6  503    0  0.18246309323E+03 -0.17460043454E+03  0.33037258662E+03  0.41584148196E+03  0.00000000000E+00 0. -1.
         -4    1    6    6    0  503  0.86242395409E+02 -0.12077568831E+03  0.34139657843E+03  0.37225816501E+03  0.00000000000E+00 0.  1.
<mgrwt>
<rscale>  0 0.15892704E+04</rscale>
<asrwt>0</asrwt>
<pdfrwt beam="1">  1        2 0.46371809E+00 0.15892704E+04</pdfrwt>
<pdfrwt beam="2">  1       -1 0.32229593E-01 0.15892704E+04</pdfrwt>
<totfact> 0.16864352E+01</totfact>
</mgrwt>
</event>
<event>
12    6  0.1538774E-007  0.1408979E+04  0.7818608E-02  0.8947345E-01
          2   -1    0    0  501    0  0.00000000000E+00  0.00000000000E+00  0.21428830716E+04  0.21428830716E+04  0.00000000000E+00 0. -1.
         -1   -1    0    0    0  501 -0.00000000000E+00 -0.00000000000E+00 -0.23160626079E+03  0.23160626079E+03  0.00000000000E+00 0.  1.
         24    2    1    2    0    0  0.21526159048E+02  0.37577624815E+03  0.39741178884E+03  0.55301559975E+03  0.78860379521E+02 0.  0.
        254    2    1    2    0    0 -0.21526159048E+02 -0.37577624815E+03  0.15138650220E+04  0.18214737326E+04  0.94037656804E+03 0.  0.
         23    2    4    4    0    0 -0.13364664767E+03  0.11559757005E+03  0.12101507335E+04  0.12263783425E+04  0.91185615920E+02 0.  0.
         23    2    4    4    0    0  0.11212048862E+03 -0.49137381820E+03  0.30371428848E+03  0.59509539013E+03  0.88752020513E+02 0.  0.
          2    1    3    3  502    0  0.26112872276E+02  0.85816057008E+02  0.13395835937E+03  0.16121761624E+03  0.00000000000E+00 0. -1.
         -1    1    3    3    0  502 -0.45867132282E+01  0.28996019115E+03  0.26345342946E+03  0.39179798351E+03  0.00000000000E+00 0.  1.
         11    1    5    5    0    0 -0.12100495109E+03  0.13065087170E+03  0.11235345436E+04  0.11375595453E+04  0.00000000000E+00 0. -1.
        -11    1    5    5    0    0 -0.12641696580E+02 -0.15053301650E+02  0.86616189856E+02  0.88818797156E+02  0.00000000000E+00 0.  1.
          1    1    6    6  503    0  0.62628292021E+02 -0.37254228216E+03  0.18781786276E+03  0.42188340158E+03  0.00000000000E+00 0. -1.
         -1    1    6    6    0  503  0.49492196601E+02 -0.11883153604E+03  0.11589642572E+03  0.17321198855E+03  0.00000000000E+00 0.  1.
<mgrwt>
<rscale>  0 0.14089785E+04</rscale>
<asrwt>0</asrwt>
<pdfrwt beam="1">  1        2 0.32967431E+00 0.14089785E+04</pdfrwt>
<pdfrwt beam="2">  1       -1 0.35631734E-01 0.14089785E+04</pdfrwt>
<totfact> 0.46341871E+01</totfact>
</mgrwt>
</event>
<event>
12    6  0.1538774E-007  0.1914976E+04  0.7818608E-02  0.8647437E-01
          2   -1    0    0  501    0  0.00000000000E+00  0.00000000000E+00  0.11774381354E+04  0.11774381354E+04  0.00000000000E+00 0. -1.
         -1   -1    0    0    0  501 -0.00000000000E+00 -0.00000000000E+00 -0.77862558997E+03  0.77862558997E+03  0.00000000000E+00 0.  1.
         24    2    1    2    0    0  0.28576989976E+03  0.31360499864E+03 -0.46412625891E+03  0.63421337273E+03  0.82467491460E+02 0.  0.
        254    2    1    2    0    0 -0.28576989976E+03 -0.31360499864E+03  0.86293880438E+03  0.13218503527E+04  0.90697984762E+03 0.  0.
         23    2    4    4    0    0 -0.11328912461E+02 -0.30789076066E+03 -0.84237709482E+02  0.33128572277E+03  0.87915719051E+02 0.  0.
         23    2    4    4    0    0 -0.27444098730E+03 -0.57142379871E+01  0.94717651387E+03  0.99056462991E+03  0.93404655061E+02 0.  0.
          4    1    3    3  502    0  0.13315413238E+03  0.14413082866E+03 -0.27558901342E+03  0.33830906441E+03  0.00000000000E+00 0. -1.
         -3    1    3    3    0  502  0.15261576738E+03  0.16947416998E+03 -0.18853724549E+03  0.29590430832E+03  0.00000000000E+00 0.  1.
         11    1    5    5    0    0  0.16113078474E+02 -0.80622184069E+02 -0.58540704404E+02  0.10092859820E+03  0.00000000000E+00 0.  1.
        -11    1    5    5    0    0 -0.27441990936E+02 -0.22726857659E+03 -0.25697005078E+02  0.23035712457E+03  0.00000000000E+00 0. -1.
          4    1    6    6  503    0 -0.10805758479E+03  0.42819388859E+02  0.40620188931E+03  0.42250433912E+03  0.00000000000E+00 0. -1.
         -4    1    6    6    0  503 -0.16638340251E+03 -0.48533626846E+02  0.54097462455E+03  0.56806029079E+03  0.00000000000E+00 0.  1.
<mgrwt>
<rscale>  0 0.19149762E+04</rscale>
<asrwt>0</asrwt>
<pdfrwt beam="1">  1        2 0.18114433E+00 0.19149762E+04</pdfrwt>
<pdfrwt beam="2">  1       -1 0.11978855E+00 0.19149762E+04</pdfrwt>
<totfact> 0.12961151E+01</totfact>
</mgrwt>
</event>
<event>
12    6  0.1538774E-007  0.1186925E+04  0.7818608E-02  0.9124378E-01
         -1   -1    0    0    0  501 -0.00000000000E+00  0.00000000000E+00  0.14754253967E+03  0.14754253967E+03  0.00000000000E+00 0.  1.
          2   -1    0    0  501    0  0.00000000000E+00 -0.00000000000E+00 -0.23870942165E+04  0.23870942165E+04  0.00000000000E+00 0. -1.
         24    2    1    2    0    0  0.21810955230E+03 -0.64691692171E+02 -0.29159024517E+03  0.37720754014E+03  0.74188040933E+02 0.  0.
        254    2    1    2    0    0 -0.21810955230E+03  0.64691692171E+02 -0.19479614316E+04  0.21574292160E+04  0.89899404399E+03 0.  0.
         23    2    4    4    0    0 -0.53752893864E+03  0.17247566220E+03 -0.11160999156E+04  0.12544428705E+04  0.96242817666E+02 0.  0.
         23    2    4    4    0    0  0.31941938633E+03 -0.10778397003E+03 -0.83186151609E+03  0.90298634551E+03  0.98714890784E+02 0.  0.
          4    1    3    3  502    0  0.97910892233E+02 -0.21563613707E+02 -0.18684175639E+03  0.21204097289E+03  0.00000000000E+00 0. -1.
         -3    1    3    3    0  502  0.12019866007E+03 -0.43128078464E+02 -0.10474848878E+03  0.16516656725E+03  0.00000000000E+00 0.  1.
         11    1    5    5    0    0 -0.29035863579E+02  0.35262510986E+02 -0.10074065784E+03  0.11061286633E+03  0.00000000000E+00 0.  1.
        -11    1    5    5    0    0 -0.50849307506E+03  0.13721315122E+03 -0.10153592577E+04  0.11438300042E+04  0.00000000000E+00 0. -1.
          2    1    6    6  503    0  0.30649628362E+03 -0.12389987496E+03 -0.78059062073E+03  0.84771036803E+03  0.00000000000E+00 0. -1.
         -2    1    6    6    0  503  0.12923102713E+02  0.16115904933E+02 -0.51270895360E+02  0.55275977482E+02  0.00000000000E+00 0.  1.
<mgrwt>
<rscale>  0 0.11869253E+04</rscale>
<asrwt>0</asrwt>
<pdfrwt beam="1">  1        2 0.36724523E+00 0.11869253E+04</pdfrwt>
<pdfrwt beam="2">  1       -1 0.22698855E-01 0.11869253E+04</pdfrwt>
<totfact> 0.75537786E+01</totfact>
</mgrwt>
</event>
<event>
12    6  0.1538774E-007  0.2094038E+04  0.7818608E-02  0.8563874E-01
         -1   -1    0    0    0  501 -0.00000000000E+00  0.00000000000E+00  0.56071475325E+03  0.56071475325E+03  0.00000000000E+00 0.  1.
          2   -1    0    0  501    0  0.00000000000E+00 -0.00000000000E+00 -0.19550919856E+04  0.19550919856E+04  0.00000000000E+00 0. -1.
         24    2    1    2    0    0 -0.13523213978E+03  0.83213858980E+03 -0.70995902728E+03  0.11049521456E+04  0.78326619746E+02 0.  0.
        254    2    1    2    0    0  0.13523213978E+03 -0.83213858980E+03 -0.68441820505E+03  0.14108545932E+04  0.90074415880E+03 0.  0.
         23    2    4    4    0    0  0.41666067233E+03 -0.81192304575E+03 -0.62047203300E+03  0.11073049388E+04  0.91178592441E+02 0.  0.
         23    2    4    4    0    0 -0.28142853255E+03 -0.20215544046E+02 -0.63946172048E+02  0.30354965442E+03  0.91883581928E+02 0.  0.
          4    1    3    3  502    0 -0.10408042044E+03  0.51567363876E+03 -0.39985546942E+03  0.66078470931E+03  0.00000000000E+00 0. -1.
         -3    1    3    3    0  502 -0.31151719340E+02  0.31646495104E+03 -0.31010355786E+03  0.44416743628E+03  0.00000000000E+00 0.  1.
         11    1    5    5    0    0  0.20869757423E+03 -0.31821645790E+03 -0.28155379907E+03  0.47338032631E+03  0.00000000000E+00 0. -1.
        -11    1    5    5    0    0  0.20796309810E+03 -0.49370658785E+03 -0.33891823393E+03  0.63392461252E+03  0.00000000000E+00 0.  1.
          3    1    6    6  503    0 -0.17599036456E+03  0.19878325123E+02 -0.71487033707E+01  0.17725366058E+03  0.00000000000E+00 0. -1.
         -3    1    6    6    0  503 -0.10543816798E+03 -0.40093869169E+02 -0.56797468677E+02  0.12629599384E+03  0.00000000000E+00 0.  1.
<mgrwt>
<rscale>  0 0.20940381E+04</rscale>
<asrwt>0</asrwt>
<pdfrwt beam="1">  1        2 0.30078338E+00 0.20940381E+04</pdfrwt>
<pdfrwt beam="2">  1       -1 0.86263808E-01 0.20940381E+04</pdfrwt>
<totfact> 0.98477311E+00</totfact>
</mgrwt>
</event>
<event>
12    6  0.1538774E-007  0.1428274E+04  0.7818608E-02  0.8933603E-01
          2   -1    0    0  501    0  0.00000000000E+00  0.00000000000E+00  0.56193537947E+03  0.56193537947E+03  0.00000000000E+00 0. -1.
         -1   -1    0    0    0  501 -0.00000000000E+00 -0.00000000000E+00 -0.90756268120E+03  0.90756268120E+03  0.00000000000E+00 0.  1.
         24    2    1    2    0    0 -0.77391712350E+02  0.11323214986E+03  0.30998058381E+03  0.34841231361E+03  0.80574071735E+02 0.  0.
        254    2    1    2    0    0  0.77391712350E+02 -0.11323214986E+03 -0.65560788554E+03  0.11210857470E+04  0.89899975292E+03 0.  0.
         23    2    4    4    0    0  0.27703558454E+03 -0.11939160605E+03 -0.79917264586E+03  0.85891104655E+03  0.89711745569E+02 0.  0.
         23    2    4    4    0    0 -0.19964387219E+03  0.61594561960E+01  0.14356476032E+03  0.26217470050E+03  0.90714489296E+02 0.  0.
          4    1    3    3  502    0 -0.74990312240E+02  0.63329274256E+02  0.25925906902E+03  0.27721725916E+03  0.00000000000E+00 0. -1.
         -3    1    3    3    0  502 -0.24014001106E+01  0.49902875601E+02  0.50721514790E+02  0.71195054452E+02  0.00000000000E+00 0.  1.
         11    1    5    5    0    0  0.24634907803E+03 -0.13426781762E+03 -0.71760074772E+03  0.77049759780E+03  0.00000000000E+00 0. -1.
        -11    1    5    5    0    0  0.30686506514E+02  0.14876211567E+02 -0.81571898145E+02  0.88413448749E+02  0.00000000000E+00 0.  1.
          1    1    6    6  503    0 -0.19604724047E+03 -0.99076711060E+01  0.14714527300E+03  0.24532511858E+03  0.00000000000E+00 0. -1.
         -1    1    6    6    0  503 -0.35966317273E+01  0.16067127302E+02 -0.35805126804E+01  0.16849581911E+02  0.00000000000E+00 0.  1.
<mgrwt>
<rscale>  0 0.14282739E+04</rscale>
<asrwt>0</asrwt>
<pdfrwt beam="1">  1        2 0.86451597E-01 0.14282739E+04</pdfrwt>
<pdfrwt beam="2">  1       -1 0.13962503E+00 0.14282739E+04</pdfrwt>
<totfact> 0.25152318E+01</totfact>
</mgrwt>
</event>
<event>
12    6  0.1538774E-007  0.1252354E+04  0.7818608E-02  0.9068226E-01
         -1   -1    0    0    0  501 -0.00000000000E+00  0.00000000000E+00  0.19795600682E+03  0.19795600682E+03  0.00000000000E+00 0.  1.
          2   -1    0    0  501    0  0.00000000000E+00 -0.00000000000E+00 -0.19807307669E+04  0.19807307669E+04  0.00000000000E+00 0. -1.
         24    2    1    2    0    0  0.11218039437E+03 -0.27593034241E+03 -0.58533291395E+03  0.66184639430E+03  0.81878170209E+02 0.  0.
        254    2    1    2    0    0 -0.11218039437E+03  0.27593034241E+03 -0.11974418462E+04  0.15168403795E+04  0.88216538531E+03 0.  0.
         23    2    4    4    0    0 -0.10646922667E+03 -0.19328236120E+03 -0.12537769352E+02  0.23912982889E+03  0.91280403282E+02 0.  0.
         23    2    4    4    0    0 -0.57111677066E+01  0.46921270361E+03 -0.11849040768E+04  0.12777105506E+04  0.91396942549E+02 0.  0.
          2    1    3    3  502    0  0.84650375106E+02 -0.14663142597E+03 -0.39847367670E+03  0.43295234393E+03  0.00000000000E+00 0. -1.
         -1    1    3    3    0  502  0.27530019269E+02 -0.12929891644E+03 -0.18685923724E+03  0.22889405037E+03  0.00000000000E+00 0.  1.
         11    1    5    5    0    0 -0.11926488850E+03 -0.14628730874E+03  0.36523569110E+00  0.18874380447E+03  0.00000000000E+00 0.  1.
        -11    1    5    5    0    0  0.12795661831E+02 -0.46995052464E+02 -0.12903005044E+02  0.50386024421E+02  0.00000000000E+00 0. -1.
          3    1    6    6  503    0 -0.16154173292E+02  0.18676043121E+03 -0.36266578346E+03  0.40824855967E+03  0.00000000000E+00 0. -1.
         -3    1    6    6    0  503  0.10443005586E+02  0.28245227240E+03 -0.82223829337E+03  0.86946199091E+03  0.00000000000E+00 0.  1.
<mgrwt>
<rscale>  0 0.12523539E+04</rscale>
<asrwt>0</asrwt>
<pdfrwt beam="1">  1        2 0.30472782E+00 0.12523539E+04</pdfrwt>
<pdfrwt beam="2">  1       -1 0.30454770E-01 0.12523539E+04</pdfrwt>
<totfact> 0.76304184E+01</totfact>
</mgrwt>
</event>
<event>
12    6  0.1538774E-007  0.1848027E+04  0.7818608E-02  0.8681168E-01
          2   -1    0    0  501    0  0.00000000000E+00  0.00000000000E+00  0.64394573411E+03  0.64394573411E+03  0.00000000000E+00 0. -1.
         -1   -1    0    0    0  501 -0.00000000000E+00 -0.00000000000E+00 -0.13258897528E+04  0.13258897528E+04  0.00000000000E+00 0.  1.
         24    2    1    2    0    0  0.54278112216E+03  0.21414759896E+03 -0.66233567574E+03  0.88639959952E+03  0.80902175175E+02 0.  0.
        254    2    1    2    0    0 -0.54278112216E+03 -0.21414759896E+03 -0.19608342927E+02  0.10834358874E+04  0.91267644553E+03 0.  0.
         23    2    4    4    0    0 -0.73868781968E+03 -0.18315644864E+03 -0.20894926611E+03  0.79449775272E+03  0.91437977040E+02 0.  0.
         23    2    4    4    0    0  0.19590669751E+03 -0.30991150319E+02  0.18934092318E+03  0.28893813466E+03  0.91078948944E+02 0.  0.
          2    1    3    3  502    0  0.32655016655E+03  0.14584677415E+03 -0.45851559994E+03  0.58150051435E+03  0.00000000000E+00 0. -1.
         -1    1    3    3    0  502  0.21623095561E+03  0.68300824811E+02 -0.20382007580E+03  0.30489908517E+03  0.00000000000E+00 0.  1.
         11    1    5    5    0    0 -0.18423095949E+03 -0.85523054314E+02 -0.67171765901E+02  0.21393289926E+03  0.00000000000E+00 0. -1.
        -11    1    5    5    0    0 -0.55445686019E+03 -0.97633394325E+02 -0.14177750021E+03  0.58056485346E+03  0.00000000000E+00 0.  1.
          4    1    6    6  503    0  0.19717273485E+03 -0.34722474980E+02  0.19665206654E+03  0.28063280797E+03  0.00000000000E+00 0.  1.
         -4    1    6    6    0  503 -0.12660373380E+01  0.37313246607E+01 -0.73111433534E+01  0.83053266883E+01  0.00000000000E+00 0. -1.
<mgrwt>
<rscale>  0 0.18480271E+04</rscale>
<asrwt>0</asrwt>
<pdfrwt beam="1">  1        2 0.99068573E-01 0.18480271E+04</pdfrwt>
<pdfrwt beam="2">  1       -1 0.20398304E+00 0.18480271E+04</pdfrwt>
<totfact> 0.69017215E+00</totfact>
</mgrwt>
</event>
<event>
12    6  0.1888208E-007  0.1543171E+04  0.7818608E-02  0.8856241E-01
         -1   -1    0    0    0  501 -0.00000000000E+00  0.00000000000E+00  0.28486587154E+03  0.28486587154E+03  0.00000000000E+00 0.  1.
          2   -1    0    0  501    0  0.00000000000E+00 -0.00000000000E+00 -0.20899116147E+04  0.20899116147E+04  0.00000000000E+00 0. -1.
         24    2    1    2    0    0 -0.19548252493E+03 -0.15159768432E+03  0.71587116675E+02  0.27836197238E+03  0.10566644192E+03 0.  0.
        254    2    1    2    0    0  0.19548252493E+03  0.15159768432E+03 -0.18766328598E+04  0.20964155138E+04  0.90111699610E+03 0.  0.
         23    2    4    4    0    0  0.23730017542E+02  0.15919614527E+03 -0.18911655993E+04  0.19001907082E+04  0.91164011307E+02 0.  0.
         23    2    4    4    0    0  0.17175250739E+03 -0.75984609453E+01  0.14532739501E+02  0.19622480567E+03  0.93468248296E+02 0.  0.
          2    1    3    3  502    0 -0.90633482680E+02 -0.59084342084E+02 -0.21600096225E+02  0.11032656896E+03  0.00000000000E+00 0. -1.
         -1    1    3    3    0  502 -0.10484904225E+03 -0.92513342241E+02  0.93187212900E+02  0.16803540342E+03  0.00000000000E+00 0.  1.
         11    1    5    5    0    0  0.57237167800E+02  0.93477645853E+02 -0.10047761994E+04  0.10107370452E+04  0.00000000000E+00 0. -1.
        -11    1    5    5    0    0 -0.33507150258E+02  0.65718499417E+02 -0.88638939990E+03  0.88945366295E+03  0.00000000000E+00 0.  1.
          1    1    6    6  503    0  0.14724448095E+03  0.84405919563E+01  0.44765948776E+02  0.15413036992E+03  0.00000000000E+00 0. -1.
         -1    1    6    6    0  503  0.24508026444E+02 -0.16039052902E+02 -0.30233209275E+02  0.42094435752E+02  0.00000000000E+00 0.  1.
<mgrwt>
<rscale>  0 0.15431714E+04</rscale>
<asrwt>0</asrwt>
<pdfrwt beam="1">  1        2 0.32152487E+00 0.15431714E+04</pdfrwt>
<pdfrwt beam="2">  1       -1 0.43825518E-01 0.15431714E+04</pdfrwt>
<totfact> 0.33615058E+01</totfact>
</mgrwt>
</event>
<event>
12    6  0.1538774E-007  0.1426782E+04  0.7818608E-02  0.8934657E-01
         -1   -1    0    0    0  501 -0.00000000000E+00  0.00000000000E+00  0.32596218279E+03  0.32596218279E+03  0.00000000000E+00 0.  1.
          2   -1    0    0  501    0  0.00000000000E+00 -0.00000000000E+00 -0.15613060902E+04  0.15613060902E+04  0.00000000000E+00 0. -1.
         24    2    1    2    0    0  0.29173344567E+03  0.21938669888E+03 -0.67803332689E+03  0.77434042027E+03  0.81455307483E+02 0.  0.
        254    2    1    2    0    0 -0.29173344567E+03 -0.21938669888E+03 -0.55731058051E+03  0.11129278527E+04  0.89150120316E+03 0.  0.
         23    2    4    4    0    0 -0.57921635712E+03 -0.10536870457E+03 -0.51630928812E+03  0.78814523637E+03  0.89462172719E+02 0.  0.
         23    2    4    4    0    0  0.28748291145E+03 -0.11401799431E+03 -0.41001292387E+02  0.32478261634E+03  0.90311209155E+02 0.  0.
          4    1    3    3  502    0  0.18151124131E+03  0.13813188944E+03 -0.50140378160E+03  0.55084707660E+03  0.00000000000E+00 0. -1.
         -3    1    3    3    0  502  0.11022220436E+03  0.81254809446E+02 -0.17662954529E+03  0.22349334366E+03  0.00000000000E+00 0.  1.
         11    1    5    5    0    0 -0.10961831377E+02 -0.12612604419E+01  0.28926841408E+01  0.11407021810E+02  0.00000000000E+00 0.  1.
        -11    1    5    5    0    0 -0.56825452575E+03 -0.10410744413E+03 -0.51920197226E+03  0.77673821456E+03  0.00000000000E+00 0. -1.
          1    1    6    6  503    0  0.24264477870E+03 -0.12750030588E+03 -0.24739911559E+02  0.27521787706E+03  0.00000000000E+00 0. -1.
         -1    1    6    6    0  503  0.44838132757E+02  0.13482311569E+02 -0.16261380828E+02  0.49564739289E+02  0.00000000000E+00 0.  1.
<mgrwt>
<rscale>  0 0.14267820E+04</rscale>
<asrwt>0</asrwt>
<pdfrwt beam="1">  1        2 0.24020093E+00 0.14267820E+04</pdfrwt>
<pdfrwt beam="2">  1       -1 0.50148029E-01 0.14267820E+04</pdfrwt>
<totfact> 0.51785317E+01</totfact>
</mgrwt>
</event>
<event>
12    6  0.1538774E-007  0.1651616E+04  0.7818608E-02  0.8789451E-01
         -1   -1    0    0    0  501 -0.00000000000E+00  0.00000000000E+00  0.35031328673E+03  0.35031328673E+03  0.00000000000E+00 0.  1.
          2   -1    0    0  501    0  0.00000000000E+00 -0.00000000000E+00 -0.19467117370E+04  0.19467117370E+04  0.00000000000E+00 0. -1.
         24    2    1    2    0    0  0.28569356390E+03 -0.65687220918E+02  0.13612685894E+03  0.33265217164E+03  0.78684954893E+02 0.  0.
        254    2    1    2    0    0 -0.28569356390E+03  0.65687220918E+02 -0.17325253092E+04  0.19643728521E+04  0.87816919299E+03 0.  0.
         23    2    4    4    0    0 -0.44237988206E+02 -0.36835029475E+03 -0.47686765110E+03  0.61091146457E+03  0.90394256628E+02 0.  0.
         23    2    4    4    0    0 -0.24145557569E+03  0.43403751567E+03 -0.12556576581E+04  0.13534613875E+04  0.92153204430E+02 0.  0.
          4    1    3    3  502    0  0.37479116848E+02 -0.36733316742E+02  0.12983391742E+02  0.54060976866E+02  0.00000000000E+00 0. -1.
         -3    1    3    3    0  502  0.24821444705E+03 -0.28953904176E+02  0.12314346719E+03  0.27859119477E+03  0.00000000000E+00 0.  1.
         11    1    5    5    0    0 -0.32763396045E+02 -0.37122678346E+02 -0.77050274190E+02  0.91587543480E+02  0.00000000000E+00 0.  1.
        -11    1    5    5    0    0 -0.11474592161E+02 -0.33122761641E+03 -0.39981737691E+03  0.51932392109E+03  0.00000000000E+00 0. -1.
          3    1    6    6  503    0 -0.15619199253E+03  0.33276470245E+03 -0.83169587361E+03  0.90931089948E+03  0.00000000000E+00 0. -1.
         -3    1    6    6    0  503 -0.85263583162E+02  0.10127281322E+03 -0.42396178446E+03  0.44415048801E+03  0.00000000000E+00 0.  1.
<mgrwt>
<rscale>  0 0.16516162E+04</rscale>
<asrwt>0</asrwt>
<pdfrwt beam="1">  1        2 0.29949411E+00 0.16516162E+04</pdfrwt>
<pdfrwt beam="2">  1       -1 0.53894352E-01 0.16516162E+04</pdfrwt>
<totfact> 0.27047142E+01</totfact>
</mgrwt>
</event>
<event>
12    6  0.1538774E-007  0.2921888E+04  0.7818608E-02  0.8266395E-01
         -1   -1    0    0    0  501 -0.00000000000E+00  0.00000000000E+00  0.98977944364E+03  0.98977944364E+03  0.00000000000E+00 0.  1.
          2   -1    0    0  501    0  0.00000000000E+00 -0.00000000000E+00 -0.21563966604E+04  0.21563966604E+04  0.00000000000E+00 0. -1.
         24    2    1    2    0    0 -0.69692575095E+01  0.87089962901E+02  0.88844816349E+03  0.89627329703E+03  0.79576702444E+02 0.  0.
        254    2    1    2    0    0  0.69692575095E+01 -0.87089962901E+02 -0.20550653803E+04  0.22499028070E+04  0.91166643665E+03 0.  0.
         23    2    4    4    0    0 -0.20528100977E+03 -0.35165752451E+03 -0.47948983836E+03  0.63570104549E+03  0.91662460284E+02 0.  0.
         23    2    4    4    0    0  0.21225026728E+03  0.26456756161E+03 -0.15755755419E+04  0.16142017615E+04  0.90348592187E+02 0.  0.
          4    1    3    3  502    0 -0.24552661894E+02 -0.33124612929E+01  0.24853883089E+03  0.24977060689E+03  0.00000000000E+00 0. -1.
         -3    1    3    3    0  502  0.17583404385E+02  0.90402424194E+02  0.63990933260E+03  0.64650269014E+03  0.00000000000E+00 0.  1.
         11    1    5    5    0    0 -0.68550192660E+02 -0.61650753251E+02 -0.14918727373E+03  0.17537612988E+03  0.00000000000E+00 0. -1.
        -11    1    5    5    0    0 -0.13673081711E+03 -0.29000677126E+03 -0.33030256464E+03  0.46032491561E+03  0.00000000000E+00 0.  1.
          2    1    6    6  503    0  0.19519821474E+03  0.18649774834E+03 -0.11585394066E+04  0.11895786270E+04  0.00000000000E+00 0. -1.
         -2    1    6    6    0  503  0.17052052537E+02  0.78069813269E+02 -0.41703613527E+03  0.42462313451E+03  0.00000000000E+00 0.  1.
<mgrwt>
<rscale>  0 0.29218878E+04</rscale>
<asrwt>0</asrwt>
<pdfrwt beam="1">  1        2 0.33175333E+00 0.29218878E+04</pdfrwt>
<pdfrwt beam="2">  1       -1 0.15227376E+00 0.29218878E+04</pdfrwt>
<totfact> 0.17929622E+00</totfact>
</mgrwt>
</event>
<event>
12    6  0.1538774E-007  0.1294196E+04  0.7818608E-02  0.9034180E-01
          2   -1    0    0  501    0  0.00000000000E+00  0.00000000000E+00  0.78384025702E+03  0.78384025702E+03  0.00000000000E+00 0. -1.
         -1   -1    0    0    0  501 -0.00000000000E+00 -0.00000000000E+00 -0.53421096939E+03  0.53421096939E+03  0.00000000000E+00 0.  1.
         24    2    1    2    0    0 -0.15191878527E+03 -0.24539199638E+03 -0.99930966599E+02  0.31564829331E+03  0.79693775054E+02 0.  0.
        254    2    1    2    0    0  0.15191878527E+03  0.24539199638E+03  0.34956025423E+03  0.10024029331E+04  0.89404849966E+03 0.  0.
         23    2    4    4    0    0  0.16766165840E+03 -0.26960583854E+03  0.34713088868E+03  0.47890955821E+03  0.89759518689E+02 0.  0.
         23    2    4    4    0    0 -0.15742873135E+02  0.51499783492E+03  0.24293655486E+01  0.52349337490E+03  0.92567833065E+02 0.  0.
          4    1    3    3  502    0 -0.46073610735E+02 -0.11977366318E+03 -0.77348979119E+02  0.14983782089E+03  0.00000000000E+00 0. -1.
         -1    1    3    3    0  502 -0.10584517453E+03 -0.12561833320E+03 -0.22581987480E+02  0.16581047243E+03  0.00000000000E+00 0.  1.
         11    1    5    5    0    0  0.81439796212E+02 -0.91981942117E+02  0.79520890446E+02  0.14634442285E+03  0.00000000000E+00 0.  1.
        -11    1    5    5    0    0  0.86221862189E+02 -0.17762389642E+03  0.26760999823E+03  0.33256513535E+03  0.00000000000E+00 0. -1.
          1    1    6    6  503    0 -0.27054105236E+02  0.44847600663E+03  0.30688689774E+02  0.45033814941E+03  0.00000000000E+00 0. -1.
         -1    1    6    6    0  503  0.11311232100E+02  0.66521828288E+02 -0.28259324225E+02  0.73155225487E+02  0.00000000000E+00 0.  1.
<mgrwt>
<rscale>  0 0.12941964E+04</rscale>
<asrwt>0</asrwt>
<pdfrwt beam="1">  1        2 0.12059081E+00 0.12941964E+04</pdfrwt>
<pdfrwt beam="2">  1       -1 0.82186303E-01 0.12941964E+04</pdfrwt>
<totfact> 0.58367881E+01</totfact>
</mgrwt>
</event>
<event>
12    6  0.1538774E-007  0.2011077E+04  0.7818608E-02  0.8601459E-01
          2   -1    0    0  501    0  0.00000000000E+00  0.00000000000E+00  0.23811195073E+04  0.23811195073E+04  0.00000000000E+00 0. -1.
         -1   -1    0    0    0  501 -0.00000000000E+00 -0.00000000000E+00 -0.42463561735E+03  0.42463561735E+03  0.00000000000E+00 0.  1.
         24    2    1    2    0    0 -0.53805163128E+03  0.55418038295E+03  0.98130594349E+03  0.12508699876E+04  0.71406697929E+02 0.  0.
        254    2    1    2    0    0  0.53805163128E+03 -0.55418038295E+03  0.97517794650E+03  0.15548851370E+04  0.93278095354E+03 0.  0.
         23    2    4    4    0    0  0.62659457262E+03 -0.19446337755E+03  0.96736544393E+03  0.11734213250E+04  0.10336798410E+03 0.  0.
         23    2    4    4    0    0 -0.88542941340E+02 -0.35971700540E+03  0.78125025714E+01  0.38146381207E+03  0.90650031946E+02 0.  0.
          2    1    3    3  502    0 -0.23762806117E+03  0.20974238448E+03  0.44297369281E+03  0.54468766814E+03  0.00000000000E+00 0. -1.
         -1    1    3    3    0  502 -0.30042357010E+03  0.34443799847E+03  0.53833225068E+03  0.70618231950E+03  0.00000000000E+00 0.  1.
         11    1    5    5    0    0  0.30382989285E+03 -0.14503093809E+03  0.45933115823E+03  0.56950126401E+03  0.00000000000E+00 0.  1.
        -11    1    5    5    0    0  0.32276467977E+03 -0.49432439465E+02  0.50803428570E+03  0.60392006096E+03  0.00000000000E+00 0. -1.
          3    1    6    6  503    0  0.79404656709E+01 -0.13081387377E+03 -0.15490141174E+02  0.13196690888E+03  0.00000000000E+00 0. -1.
         -3    1    6    6    0  503 -0.96483407011E+02 -0.22890313162E+03  0.23302643746E+02  0.24949690319E+03  0.00000000000E+00 0.  1.
<mgrwt>
<rscale>  0 0.20110775E+04</rscale>
<asrwt>0</asrwt>
<pdfrwt beam="1">  1        2 0.36632607E+00 0.20110775E+04</pdfrwt>
<pdfrwt beam="2">  1       -1 0.65328558E-01 0.20110775E+04</pdfrwt>
<totfact> 0.10232608E+01</totfact>
</mgrwt>
</event>
<event>
12    6  0.1538774E-007  0.1248644E+04  0.7818608E-02  0.9071313E-01
         -1   -1    0    0    0  501 -0.00000000000E+00  0.00000000000E+00  0.17615481834E+03  0.17615481834E+03  0.00000000000E+00 0.  1.
          2   -1    0    0  501    0  0.00000000000E+00 -0.00000000000E+00 -0.22127009776E+04  0.22127009776E+04  0.00000000000E+00 0. -1.
         24    2    1    2    0    0 -0.18806230962E+03  0.21210069767E+03 -0.66017372300E+03  0.72385117755E+03  0.88187552668E+02 0.  0.
        254    2    1    2    0    0  0.18806230962E+03 -0.21210069767E+03 -0.13763724363E+04  0.16650046184E+04  0.89302024485E+03 0.  0.
         23    2    4    4    0    0  0.15692352151E+03  0.24558315751E+02  0.68230228261E+02  0.19801779218E+03  0.96579394781E+02 0.  0.
         23    2    4    4    0    0  0.31138788109E+02 -0.23665901342E+03 -0.14446026645E+04  0.14669868262E+04  0.90533845435E+02 0.  0.
          2    1    3    3  502    0 -0.64355306359E+02  0.48403726432E+02 -0.28590525471E+03  0.29702919194E+03  0.00000000000E+00 0. -1.
         -1    1    3    3    0  502 -0.12370700326E+03  0.16369697124E+03 -0.37426846829E+03  0.42682198561E+03  0.00000000000E+00 0.  1.
         11    1    5    5    0    0  0.15886796687E+03  0.97597393475E+01  0.80802165170E+02  0.17850286638E+03  0.00000000000E+00 0. -1.
        -11    1    5    5    0    0 -0.19444453634E+01  0.14798576403E+02 -0.12571936909E+02  0.19514925800E+02  0.00000000000E+00 0.  1.
          1    1    6    6  503    0 -0.57446956962E+01 -0.20197401462E+03 -0.12305049359E+04  0.12469839219E+04  0.00000000000E+00 0. -1.
         -1    1    6    6    0  503  0.36883483805E+02 -0.34684998801E+02 -0.21409772856E+03  0.22000290429E+03  0.00000000000E+00 0.  1.
<mgrwt>
<rscale>  0 0.12486440E+04</rscale>
<asrwt>0</asrwt>
<pdfrwt beam="1">  1        2 0.34041552E+00 0.12486440E+04</pdfrwt>
<pdfrwt beam="2">  1       -1 0.27100742E-01 0.12486440E+04</pdfrwt>
<totfact> 0.69529354E+01</totfact>
</mgrwt>
</event>
<event>
12    6  0.1538774E-007  0.1066962E+04  0.7818608E-02  0.9238005E-01
          2   -1    0    0  501    0  0.00000000000E+00  0.00000000000E+00  0.76305782892E+03  0.76305782892E+03  0.00000000000E+00 0. -1.
         -1   -1    0    0    0  501 -0.00000000000E+00 -0.00000000000E+00 -0.37297556845E+03  0.37297556845E+03  0.00000000000E+00 0.  1.
         24    2    1    2    0    0 -0.70862748786E+02  0.11429841416E+03  0.21706951864E+02  0.15868598032E+03  0.81390367647E+02 0.  0.
        254    2    1    2    0    0  0.70862748786E+02 -0.11429841416E+03  0.36837530861E+03  0.97734741704E+03  0.89522173173E+03 0.  0.
         23    2    4    4    0    0  0.84771320636E+02 -0.14353107739E+03 -0.27100919969E+03  0.33088255546E+03  0.90829137464E+02 0.  0.
         23    2    4    4    0    0 -0.13908571850E+02  0.29232663225E+02  0.63938450830E+03  0.64646486158E+03  0.89756731441E+02 0.  0.
          2    1    3    3  502    0 -0.23424115643E+01  0.49449288004E+02 -0.22645360848E+02  0.54438326058E+02  0.00000000000E+00 0. -1.
         -1    1    3    3    0  502 -0.68520337222E+02  0.64849126156E+02  0.44352312712E+02  0.10424765426E+03  0.00000000000E+00 0.  1.
         11    1    5    5    0    0  0.17697073162E+02 -0.64922758690E+02 -0.41182186317E+02  0.78893114175E+02  0.00000000000E+00 0.  1.
        -11    1    5    5    0    0  0.67074247474E+02 -0.78608318696E+02 -0.22982701337E+03  0.25198944128E+03  0.00000000000E+00 0. -1.
          2    1    6    6  503    0 -0.35391874207E+02  0.31630261799E+02  0.59702081268E+03  0.59890475787E+03  0.00000000000E+00 0. -1.
         -2    1    6    6    0  503  0.21483302357E+02 -0.23975985741E+01  0.42363695618E+02  0.47560103716E+02  0.00000000000E+00 0.  1.
<mgrwt>
<rscale>  0 0.10669619E+04</rscale>
<asrwt>0</asrwt>
<pdfrwt beam="1">  1        2 0.11739351E+00 0.10669619E+04</pdfrwt>
<pdfrwt beam="2">  1       -1 0.57380857E-01 0.10669619E+04</pdfrwt>
<totfact> 0.12807370E+02</totfact>
</mgrwt>
</event>
<event>
12    6  0.1538774E-007  0.1246360E+04  0.7818608E-02  0.9073218E-01
         -1   -1    0    0    0  501 -0.00000000000E+00  0.00000000000E+00  0.42377166176E+03  0.42377166176E+03  0.00000000000E+00 0.  1.
          2   -1    0    0  501    0  0.00000000000E+00 -0.00000000000E+00 -0.91642166612E+03  0.91642166612E+03  0.00000000000E+00 0. -1.
         24    2    1    2    0    0 -0.14296180116E+03  0.42201865116E+02 -0.36986311890E+03  0.40653255952E+03  0.79062767554E+02 0.  0.
        254    2    1    2    0    0  0.14296180116E+03 -0.42201865116E+02 -0.12278688545E+03  0.93366076837E+03  0.91346961479E+03 0.  0.
         23    2    4    4    0    0 -0.34125257265E+03  0.14574157250E+03  0.35251158861E+02  0.38319655133E+03  0.88898978961E+02 0.  0.
         23    2    4    4    0    0  0.48421437381E+03 -0.18794343762E+03 -0.15803804431E+03  0.55046421703E+03  0.90821447023E+02 0.  0.
          2    1    3    3  502    0 -0.15108248297E+03  0.46008391172E+02 -0.36044811466E+03  0.39352958222E+03  0.00000000000E+00 0. -1.
         -1    1    3    3    0  502  0.81206818140E+01 -0.38065260555E+01 -0.94150042439E+01  0.13002977299E+02  0.00000000000E+00 0.  1.
         11    1    5    5    0    0 -0.76845416005E+02  0.65369741690E+02  0.35173858121E+02  0.10684391131E+03  0.00000000000E+00 0. -1.
        -11    1    5    5    0    0 -0.26440715664E+03  0.80371830809E+02  0.77300740299E-01  0.27635264002E+03  0.00000000000E+00 0.  1.
          4    1    6    6  503    0  0.38455226079E+03 -0.10783844919E+03 -0.12257642989E+03  0.41777332797E+03  0.00000000000E+00 0. -1.
         -4    1    6    6    0  503  0.99662113020E+02 -0.80104988427E+02 -0.35461614425E+02  0.13269088906E+03  0.00000000000E+00 0.  1.
<mgrwt>
<rscale>  0 0.12463604E+04</rscale>
<asrwt>0</asrwt>
<pdfrwt beam="1">  1        2 0.14098795E+00 0.12463604E+04</pdfrwt>
<pdfrwt beam="2">  1       -1 0.65195641E-01 0.12463604E+04</pdfrwt>
<totfact> 0.76542266E+01</totfact>
</mgrwt>
</event>
<event>
12    6  0.1538774E-007  0.1610314E+04  0.7818608E-02  0.8814237E-01
          2   -1    0    0  501    0  0.00000000000E+00  0.00000000000E+00  0.74792057883E+03  0.74792057883E+03  0.00000000000E+00 0. -1.
         -1   -1    0    0    0  501 -0.00000000000E+00 -0.00000000000E+00 -0.86677315088E+03  0.86677315088E+03  0.00000000000E+00 0.  1.
         24    2    1    2    0    0 -0.33172700964E+03 -0.53058052573E+02 -0.47665203790E+03  0.58860229622E+03  0.79984573585E+02 0.  0.
        254    2    1    2    0    0  0.33172700964E+03  0.53058052573E+02  0.35779946585E+03  0.10260914335E+04  0.90110221743E+03 0.  0.
         23    2    4    4    0    0  0.40459892734E+03  0.20660001557E+03 -0.14627696724E+03  0.48635735672E+03  0.93609128053E+02 0.  0.
         23    2    4    4    0    0 -0.72871917699E+02 -0.15354196299E+03  0.50407643309E+03  0.53973407676E+03  0.91292784144E+02 0.  0.
          4    1    3    3  502    0 -0.50975672829E+02  0.20549258793E+02 -0.81970934376E+02  0.98691566710E+02  0.00000000000E+00 0. -1.
         -3    1    3    3    0  502 -0.28075133682E+03 -0.73607311366E+02 -0.39468110352E+03  0.48991072951E+03  0.00000000000E+00 0.  1.
         11    1    5    5    0    0  0.14805199634E+03  0.78794992297E+02 -0.74310461803E+01  0.16787872075E+03  0.00000000000E+00 0.  1.
        -11    1    5    5    0    0  0.25654693100E+03  0.12780502327E+03 -0.13884592106E+03  0.31847863598E+03  0.00000000000E+00 0. -1.
          2    1    6    6  503    0 -0.80899778445E+02 -0.66619869822E+02  0.29975420608E+03  0.31754616242E+03  0.00000000000E+00 0. -1.
         -2    1    6    6    0  503  0.80278607457E+01 -0.86922093170E+02  0.20432222701E+03  0.22218791434E+03  0.00000000000E+00 0.  1.
<mgrwt>
<rscale>  0 0.16103136E+04</rscale>
<asrwt>0</asrwt>
<pdfrwt beam="1">  1        2 0.11506470E+00 0.16103136E+04</pdfrwt>
<pdfrwt beam="2">  1       -1 0.13334971E+00 0.16103136E+04</pdfrwt>
<totfact> 0.19578633E+01</totfact>
</mgrwt>
</event>
<event>
12    6  0.1538774E-007  0.1510608E+04  0.7818608E-02  0.8877429E-01
         -1   -1    0    0    0  501 -0.00000000000E+00  0.00000000000E+00  0.14346847278E+03  0.14346847278E+03  0.00000000000E+00 0.  1.
          2   -1    0    0  501    0  0.00000000000E+00 -0.00000000000E+00 -0.39763739998E+04  0.39763739998E+04  0.00000000000E+00 0. -1.
         24    2    1    2    0    0 -0.38971160015E+03  0.26259907360E+03 -0.96450429431E+03  0.10771382267E+04  0.95523928410E+02 0.  0.
        254    2    1    2    0    0  0.38971160015E+03 -0.26259907360E+03 -0.28684012328E+04  0.30427042459E+04  0.89971667286E+03 0.  0.
         23    2    4    4    0    0  0.43355035977E+02  0.26747924546E+03 -0.15638956319E+04  0.15898518031E+04  0.91839003839E+02 0.  0.
         23    2    4    4    0    0  0.34635656418E+03 -0.53007831906E+03 -0.13045056009E+04  0.14528524428E+04  0.89997021942E+02 0.  0.
          2    1    3    3  502    0 -0.10256984849E+03  0.28360054184E+02 -0.17167597414E+03  0.20198392656E+03  0.00000000000E+00 0. -1.
         -1    1    3    3    0  502 -0.28714175167E+03  0.23423901942E+03 -0.79282832017E+03  0.87515430013E+03  0.00000000000E+00 0.  1.
         11    1    5    5    0    0 -0.14786126752E+02  0.17341542910E+03 -0.87565518747E+03  0.89278415529E+03  0.00000000000E+00 0. -1.
        -11    1    5    5    0    0  0.58141162729E+02  0.94063816355E+02 -0.68824044442E+03  0.69706764785E+03  0.00000000000E+00 0.  1.
          4    1    6    6  503    0  0.18309835055E+03 -0.35939322139E+03 -0.81616025089E+03  0.91038785619E+03  0.00000000000E+00 0.  1.
         -4    1    6    6    0  503  0.16325821362E+03 -0.17068509766E+03 -0.48834534997E+03  0.54246458660E+03  0.00000000000E+00 0. -1.
<mgrwt>
<rscale>  0 0.15106082E+04</rscale>
<asrwt>0</asrwt>
<pdfrwt beam="1">  1        2 0.61174984E+00 0.15106082E+04</pdfrwt>
<pdfrwt beam="2">  1       -1 0.22072073E-01 0.15106082E+04</pdfrwt>
<totfact> 0.69652724E+00</totfact>
</mgrwt>
</event>
<event>
12    6  0.1538774E-007  0.2736793E+04  0.7818608E-02  0.8323165E-01
         -1   -1    0    0    0  501 -0.00000000000E+00  0.00000000000E+00  0.55257811605E+03  0.55257811605E+03  0.00000000000E+00 0.  1.
          2   -1    0    0  501    0  0.00000000000E+00 -0.00000000000E+00 -0.33886767386E+04  0.33886767386E+04  0.00000000000E+00 0. -1.
         24    2    1    2    0    0 -0.10577830311E+04  0.11917915918E+03 -0.20918752326E+04  0.23484303863E+04  0.77940215939E+02 0.  0.
        254    2    1    2    0    0  0.10577830311E+04 -0.11917915918E+03 -0.74422338994E+03  0.15928244684E+04  0.92201557473E+03 0.  0.
         23    2    4    4    0    0  0.23069498683E+03  0.32590864806E+03 -0.44037789034E+03  0.60138179069E+03  0.91053544907E+02 0.  0.
         23    2    4    4    0    0  0.82708804432E+03 -0.44508780724E+03 -0.30384549960E+03  0.99144267771E+03  0.91971225691E+02 0.  0.
          2    1    3    3  502    0 -0.98502603986E+03  0.10195788494E+03 -0.19018673603E+04  0.21442413964E+04  0.00000000000E+00 0. -1.
         -1    1    3    3    0  502 -0.72756991282E+02  0.17221274240E+02 -0.19000787231E+03  0.20418898992E+03  0.00000000000E+00 0.  1.
         11    1    5    5    0    0  0.87492608624E+02  0.97442459413E+02 -0.20608810985E+03  0.24417677712E+03  0.00000000000E+00 0. -1.
        -11    1    5    5    0    0  0.14320237820E+03  0.22846618865E+03 -0.23428978049E+03  0.35720501357E+03  0.00000000000E+00 0.  1.
          1    1    6    6  503    0  0.54729870939E+03 -0.32790154200E+03 -0.17271415413E+03  0.66097312924E+03  0.00000000000E+00 0. -1.
         -1    1    6    6    0  503  0.27978933493E+03 -0.11718626524E+03 -0.13113134547E+03  0.33046954848E+03  0.00000000000E+00 0.  1.
<mgrwt>
<rscale>  0 0.27367927E+04</rscale>
<asrwt>0</asrwt>
<pdfrwt beam="1">  1        2 0.52133487E+00 0.27367927E+04</pdfrwt>
<pdfrwt beam="2">  1       -1 0.85012020E-01 0.27367927E+04</pdfrwt>
<totfact> 0.13205054E+00</totfact>
</mgrwt>
</event>
<event>
12    6  0.1538774E-007  0.2033634E+04  0.7818608E-02  0.8591055E-01
         -1   -1    0    0    0  501 -0.00000000000E+00  0.00000000000E+00  0.59286261559E+03  0.59286261559E+03  0.00000000000E+00 0.  1.
          2   -1    0    0  501    0  0.00000000000E+00 -0.00000000000E+00 -0.17439408261E+04  0.17439408261E+04  0.00000000000E+00 0. -1.
         24    2    1    2    0    0  0.19017262416E+03 -0.58468726225E+03  0.14457368783E+03  0.63747126097E+03  0.86274189264E+02 0.  0.
        254    2    1    2    0    0 -0.19017262416E+03  0.58468726225E+03 -0.12956518983E+04  0.16993321807E+04  0.91158718571E+03 0.  0.
         23    2    4    4    0    0 -0.11527611292E+03 -0.20347823017E+03 -0.11896228983E+03  0.27814725011E+03  0.92314104990E+02 0.  0.
         23    2    4    4    0    0 -0.74896511238E+02  0.78816549243E+03 -0.11766896085E+04  0.14211849306E+04  0.91399351019E+02 0.  0.
          2    1    3    3  502    0 -0.36633819819E+01 -0.19198366011E+02 -0.70104441626E+01  0.20764006174E+02  0.00000000000E+00 0. -1.
         -1    1    3    3    0  502  0.19383600614E+03 -0.56548889624E+03  0.15158413199E+03  0.61670725480E+03  0.00000000000E+00 0.  1.
         11    1    5    5    0    0 -0.10677998498E+03 -0.18107930668E+03 -0.66518966627E+02  0.22049139081E+03  0.00000000000E+00 0.  1.
        -11    1    5    5    0    0 -0.84961279419E+01 -0.22398923492E+02 -0.52443323202E+02  0.57655859304E+02  0.00000000000E+00 0. -1.
          2    1    6    6  503    0 -0.50458087150E+02  0.23914616893E+03 -0.30701850835E+03  0.39242486305E+03  0.00000000000E+00 0. -1.
         -2    1    6    6    0  503 -0.24438424088E+02  0.54901932350E+03 -0.86967110015E+03  0.10287600675E+04  0.00000000000E+00 0.  1.
<mgrwt>
<rscale>  0 0.20336345E+04</rscale>
<asrwt>0</asrwt>
<pdfrwt beam="1">  1        2 0.26829858E+00 0.20336345E+04</pdfrwt>
<pdfrwt beam="2">  1       -1 0.91209634E-01 0.20336345E+04</pdfrwt>
<totfact> 0.11471000E+01</totfact>
</mgrwt>
</event>
<event>
12    6  0.1538774E-007  0.1759226E+04  0.7818608E-02  0.8728288E-01
         -1   -1    0    0    0  501 -0.00000000000E+00  0.00000000000E+00  0.55916678808E+03  0.55916678808E+03  0.00000000000E+00 0.  1.
          2   -1    0    0  501    0  0.00000000000E+00 -0.00000000000E+00 -0.13836999741E+04  0.13836999741E+04  0.00000000000E+00 0. -1.
         24    2    1    2    0    0  0.63489655741E+03  0.83163597726E+02 -0.38169357293E+03  0.74973612443E+03  0.80027808023E+02 0.  0.
        254    2    1    2    0    0 -0.63489655741E+03 -0.83163597726E+02 -0.44283961309E+03  0.11931306378E+04  0.90412608259E+03 0.  0.
         23    2    4    4    0    0 -0.77630022339E+03  0.16971964412E+03 -0.27059679488E+03  0.84443865105E+03  0.91690869539E+02 0.  0.
         23    2    4    4    0    0  0.14140366599E+03 -0.25288324184E+03 -0.17224281821E+03  0.34869198670E+03  0.89294918124E+02 0.  0.
          2    1    3    3  502    0  0.19047302147E+03  0.16428707430E+02 -0.15649052636E+03  0.24706104342E+03  0.00000000000E+00 0. -1.
         -1    1    3    3    0  502  0.44442353594E+03  0.66734890296E+02 -0.22520304657E+03  0.50267508100E+03  0.00000000000E+00 0.  1.
         11    1    5    5    0    0 -0.25226938954E+03  0.11601923504E+02 -0.83821330229E+02  0.26608356757E+03  0.00000000000E+00 0. -1.
        -11    1    5    5    0    0 -0.52403083385E+03  0.15811772061E+03 -0.18677546465E+03  0.57835508349E+03  0.00000000000E+00 0.  1.
          2    1    6    6  503    0  0.40617196272E+02 -0.30832947761E+02 -0.15204585600E+01  0.51017047101E+02  0.00000000000E+00 0. -1.
         -2    1    6    6    0  503  0.10078646971E+03 -0.22205029408E+03 -0.17072235965E+03  0.29767493960E+03  0.00000000000E+00 0.  1.
<mgrwt>
<rscale>  0 0.17592260E+04</rscale>
<asrwt>0</asrwt>
<pdfrwt beam="1">  1        2 0.21287692E+00 0.17592260E+04</pdfrwt>
<pdfrwt beam="2">  1       -1 0.86025659E-01 0.17592260E+04</pdfrwt>
<totfact> 0.21290132E+01</totfact>
</mgrwt>
</event>
<event>
12    6  0.1538774E-007  0.1264120E+04  0.7818608E-02  0.9058513E-01
         -1   -1    0    0    0  501 -0.00000000000E+00  0.00000000000E+00  0.46213668554E+03  0.46213668554E+03  0.00000000000E+00 0.  1.
          2   -1    0    0  501    0  0.00000000000E+00 -0.00000000000E+00 -0.86446228769E+03  0.86446228769E+03  0.00000000000E+00 0. -1.
         24    2    1    2    0    0 -0.17954442079E+03 -0.20720303040E+03 -0.56128475747E+01  0.28572902361E+03  0.80251330384E+02 0.  0.
        254    2    1    2    0    0  0.17954442079E+03  0.20720303040E+03 -0.39671275457E+03  0.10408699496E+04  0.92242069987E+03 0.  0.
         23    2    4    4    0    0 -0.29020123198E+03  0.61160933880E+02 -0.44229738538E+03  0.54031857389E+03  0.91431774003E+02 0.  0.
         23    2    4    4    0    0  0.46974565277E+03  0.14604209652E+03  0.45584630813E+02  0.50055137574E+03  0.80526076089E+02 0.  0.
          4    1    3    3  502    0 -0.47249420404E+02 -0.10255531028E+02 -0.32987875078E+01  0.48462002065E+02  0.00000000000E+00 0. -1.
         -3    1    3    3    0  502 -0.13229500039E+03 -0.19694749937E+03 -0.23140600668E+01  0.23726702154E+03  0.00000000000E+00 0.  1.
         11    1    5    5    0    0 -0.27211603340E+03  0.57615412074E+02 -0.44157300482E+03  0.52187487957E+03  0.00000000000E+00 0. -1.
        -11    1    5    5    0    0 -0.18085198586E+02  0.35455218063E+01 -0.72438055464E+00  0.18443694314E+02  0.00000000000E+00 0.  1.
          1    1    6    6  503    0  0.14628979541E+03  0.82975678036E+02  0.28333665830E+02  0.17055340514E+03  0.00000000000E+00 0. -1.
         -1    1    6    6    0  503  0.32345585736E+03  0.63066418485E+02  0.17250964983E+02  0.32999797059E+03  0.00000000000E+00 0.  1.
<mgrwt>
<rscale>  0 0.12641198E+04</rscale>
<asrwt>0</asrwt>
<pdfrwt beam="1">  1        2 0.13299420E+00 0.12641198E+04</pdfrwt>
<pdfrwt beam="2">  1       -1 0.71097952E-01 0.12641198E+04</pdfrwt>
<totfact> 0.69510456E+01</totfact>
</mgrwt>
</event>
<event>
12    6  0.1538774E-007  0.1408475E+04  0.7818608E-02  0.8947707E-01
         -1   -1    0    0    0  501 -0.00000000000E+00  0.00000000000E+00  0.37324709635E+03  0.37324709635E+03  0.00000000000E+00 0.  1.
          2   -1    0    0  501    0  0.00000000000E+00 -0.00000000000E+00 -0.13287455623E+04  0.13287455623E+04  0.00000000000E+00 0. -1.
         24    2    1    2    0    0 -0.30888259131E+02  0.73632679731E+02  0.20242456034E+03  0.23201672633E+03  0.80499705513E+02 0.  0.
        254    2    1    2    0    0  0.30888259131E+02 -0.73632679731E+02 -0.11579230263E+04  0.14699759324E+04  0.90203528241E+03 0.  0.
         23    2    4    4    0    0 -0.27291291196E+03  0.18759726773E+03 -0.14020134475E+03  0.37255429691E+03  0.97293857471E+02 0.  0.
         23    2    4    4    0    0  0.30380117109E+03 -0.26122994746E+03 -0.10177216816E+04  0.10974216354E+04  0.89669324521E+02 0.  0.
          2    1    3    3  502    0  0.21488427534E+02  0.51773163103E+02  0.88933893015E+02  0.10512587818E+03  0.00000000000E+00 0. -1.
         -1    1    3    3    0  502 -0.52376686664E+02  0.21859516628E+02  0.11349066733E+03  0.12689084815E+03  0.00000000000E+00 0.  1.
         11    1    5    5    0    0 -0.19780190194E+03  0.11010670036E+03 -0.49848186578E+02  0.23180577987E+03  0.00000000000E+00 0.  1.
        -11    1    5    5    0    0 -0.75111010021E+02  0.77490567370E+02 -0.90353158171E+02  0.14074851704E+03  0.00000000000E+00 0. -1.
          4    1    6    6  503    0  0.67110862024E+02 -0.27861667863E+02 -0.12180570553E+03  0.14183360053E+03  0.00000000000E+00 0. -1.
         -4    1    6    6    0  503  0.23669030907E+03 -0.23336827960E+03 -0.89591597605E+03  0.95558803492E+03  0.00000000000E+00 0.  1.
<mgrwt>
<rscale>  0 0.14084750E+04</rscale>
<asrwt>0</asrwt>
<pdfrwt beam="1">  1        2 0.20442239E+00 0.14084750E+04</pdfrwt>
<pdfrwt beam="2">  1       -1 0.57422631E-01 0.14084750E+04</pdfrwt>
<totfact> 0.54163835E+01</totfact>
</mgrwt>
</event>
<event>
12    6  0.1538774E-007  0.2719401E+04  0.7818608E-02  0.8328737E-01
         -1   -1    0    0    0  501 -0.00000000000E+00  0.00000000000E+00  0.18148093819E+04  0.18148093819E+04  0.00000000000E+00 0.  1.
          2   -1    0    0  501    0  0.00000000000E+00 -0.00000000000E+00 -0.10187219096E+04  0.10187219096E+04  0.00000000000E+00 0. -1.
         24    2    1    2    0    0 -0.49878794309E+03 -0.51104266047E+03  0.13701667578E+04  0.15471312236E+04  0.79398147199E+02 0.  0.
        254    2    1    2    0    0  0.49878794309E+03  0.51104266047E+03 -0.57407928548E+03  0.12864000680E+04  0.90294191172E+03 0.  0.
         23    2    4    4    0    0  0.29968302058E+02 -0.20594937394E+03  0.36608321130E+02  0.23036373433E+03  0.91728060944E+02 0.  0.
         23    2    4    4    0    0  0.46881964104E+03  0.71699203441E+03 -0.61068760661E+03  0.10560363337E+04  0.91673070916E+02 0.  0.
          2    1    3    3  502    0 -0.11234955440E+03 -0.74961096143E+02  0.23054474725E+03  0.26719369153E+03  0.00000000000E+00 0. -1.
         -1    1    3    3    0  502 -0.38643838869E+03 -0.43608156433E+03  0.11396220105E+04  0.12799375320E+04  0.00000000000E+00 0.  1.
         11    1    5    5    0    0  0.18498434792E+02 -0.19317170416E+03  0.58369849018E+02  0.20264387149E+03  0.00000000000E+00 0. -1.
        -11    1    5    5    0    0  0.11469867266E+02 -0.12777669785E+02 -0.21761527888E+02  0.27719862847E+02  0.00000000000E+00 0.  1.
          4    1    6    6  503    0  0.46591322280E+03  0.68138698905E+03 -0.59139160862E+03  0.10154345842E+04  0.00000000000E+00 0. -1.
         -4    1    6    6    0  503  0.29064182359E+01  0.35605045359E+02 -0.19295997983E+02  0.40601749471E+02  0.00000000000E+00 0.  1.
<mgrwt>
<rscale>  0 0.27194015E+04</rscale>
<asrwt>0</asrwt>
<pdfrwt beam="1">  1        2 0.15672645E+00 0.27194015E+04</pdfrwt>
<pdfrwt beam="2">  1       -1 0.27920144E+00 0.27194015E+04</pdfrwt>
<totfact> 0.11017437E+00</totfact>
</mgrwt>
</event>
<event>
12    6  0.1538774E-007  0.1211974E+04  0.7818608E-02  0.9102440E-01
         -1   -1    0    0    0  501 -0.00000000000E+00  0.00000000000E+00  0.12796268515E+03  0.12796268515E+03  0.00000000000E+00 0.  1.
          2   -1    0    0  501    0  0.00000000000E+00 -0.00000000000E+00 -0.28697426987E+04  0.28697426987E+04  0.00000000000E+00 0. -1.
         24    2    1    2    0    0 -0.17904002248E+03  0.18460037272E+03 -0.76019100226E+03  0.80659793573E+03  0.81100201812E+02 0.  0.
        254    2    1    2    0    0  0.17904002248E+03 -0.18460037272E+03 -0.19815890113E+04  0.21911074481E+04  0.89895729170E+03 0.  0.
         23    2    4    4    0    0  0.25744843942E+03 -0.12678773858E+03 -0.20261253462E+04  0.20484134704E+04  0.91972808585E+02 0.  0.
         23    2    4    4    0    0 -0.78408416933E+02 -0.57812634140E+02  0.44536334899E+02  0.14269397775E+03  0.94275689592E+02 0.  0.
          2    1    3    3  502    0 -0.38209225671E+02  0.26945252257E+02 -0.25017896877E+03  0.25451032977E+03  0.00000000000E+00 0. -1.
         -1    1    3    3    0  502 -0.14083079681E+03  0.15765512047E+03 -0.51001203350E+03  0.55208760596E+03  0.00000000000E+00 0.  1.
         11    1    5    5    0    0  0.25100688719E+02 -0.46867918853E+02 -0.47196010529E+03  0.47494524671E+03  0.00000000000E+00 0.  1.
        -11    1    5    5    0    0  0.23234775070E+03 -0.79919819732E+02 -0.15541652409E+04  0.15734682237E+04  0.00000000000E+00 0. -1.
          4    1    6    6  503    0 -0.98008333620E+02 -0.33062367405E+02  0.39516735874E+02  0.11072635644E+03  0.00000000000E+00 0. -1.
         -4    1    6    6    0  503  0.19599916687E+02 -0.24750266736E+02  0.50195990242E+01  0.31967621306E+02  0.00000000000E+00 0.  1.
<mgrwt>
<rscale>  0 0.12119736E+04</rscale>
<asrwt>0</asrwt>
<pdfrwt beam="1">  1        2 0.44149890E+00 0.12119736E+04</pdfrwt>
<pdfrwt beam="2">  1       -1 0.19686566E-01 0.12119736E+04</pdfrwt>
<totfact> 0.50044239E+01</totfact>
</mgrwt>
</event>
<event>
12    6  0.1538774E-007  0.1324681E+04  0.7818608E-02  0.9010218E-01
          2   -1    0    0  501    0  0.00000000000E+00  0.00000000000E+00  0.30679267944E+04  0.30679267944E+04  0.00000000000E+00 0. -1.
         -1   -1    0    0    0  501 -0.00000000000E+00 -0.00000000000E+00 -0.14299401433E+03  0.14299401433E+03  0.00000000000E+00 0.  1.
         24    2    1    2    0    0  0.93601950938E+02 -0.26585079838E+03  0.27609245182E+03  0.40184380479E+03  0.76245847607E+02 0.  0.
        254    2    1    2    0    0 -0.93601950938E+02  0.26585079838E+03  0.26488403283E+04  0.28090770039E+04  0.89169532761E+03 0.  0.
         23    2    4    4    0    0 -0.16932527775E+02 -0.31841301442E+03  0.11195156931E+04  0.11675846864E+04  0.90912344760E+02 0.  0.
         23    2    4    4    0    0 -0.76669423163E+02  0.58426381279E+03  0.15293246351E+04  0.16414923176E+04  0.91764838965E+02 0.  0.
          4    1    3    3  502    0  0.23046170870E+02 -0.53279258828E+02  0.10507093961E+03  0.12004044220E+03  0.00000000000E+00 0. -1.
         -3    1    3    3    0  502  0.70555780068E+02 -0.21257153955E+03  0.17102151221E+03  0.28180336259E+03  0.00000000000E+00 0.  1.
         11    1    5    5    0    0  0.18323765964E+02 -0.27515425112E+03  0.93082912052E+03  0.97081845570E+03  0.00000000000E+00 0. -1.
        -11    1    5    5    0    0 -0.35256293739E+02 -0.43258763295E+02  0.18868657263E+03  0.19676623069E+03  0.00000000000E+00 0.  1.
          4    1    6    6  503    0 -0.33193885450E+02  0.35924785634E+03  0.10487213234E+04  0.11090434033E+04  0.00000000000E+00 0. -1.
         -4    1    6    6    0  503 -0.43475537714E+02  0.22501595646E+03  0.48060331170E+03  0.53244891422E+03  0.00000000000E+00 0.  1.
<mgrwt>
<rscale>  0 0.13246813E+04</rscale>
<asrwt>0</asrwt>
<pdfrwt beam="1">  1        2 0.47198869E+00 0.13246813E+04</pdfrwt>
<pdfrwt beam="2">  1       -1 0.21999081E-01 0.13246813E+04</pdfrwt>
<totfact> 0.30990228E+01</totfact>
</mgrwt>
</event>
<event>
12    6  0.1538774E-007  0.1428979E+04  0.7818608E-02  0.8933105E-01
          2   -1    0    0  501    0  0.00000000000E+00  0.00000000000E+00  0.30813006380E+03  0.30813006380E+03  0.00000000000E+00 0. -1.
         -1   -1    0    0    0  501 -0.00000000000E+00 -0.00000000000E+00 -0.16567516347E+04  0.16567516347E+04  0.00000000000E+00 0.  1.
         24    2    1    2    0    0  0.26891493825E+03 -0.29614386379E+03 -0.19930602122E+03  0.45408236639E+03  0.80321063813E+02 0.  0.
        254    2    1    2    0    0 -0.26891493825E+03  0.29614386379E+03 -0.11493155496E+04  0.15107993321E+04  0.89530551045E+03 0.  0.
         23    2    4    4    0    0 -0.56516748026E+03  0.63405585690E+02 -0.81925322698E+03  0.10016675257E+04  0.93420731847E+02 0.  0.
         23    2    4    4    0    0  0.29625254201E+03  0.23273827810E+03 -0.33006232267E+03  0.50913180634E+03  0.91331181130E+02 0.  0.
          2    1    3    3  502    0  0.18022562118E+03 -0.19306873754E+03 -0.88102216518E+02  0.27842200434E+03  0.00000000000E+00 0. -1.
         -1    1    3    3    0  502  0.88689317074E+02 -0.10307512625E+03 -0.11120380470E+03  0.17566036205E+03  0.00000000000E+00 0.  1.
         11    1    5    5    0    0 -0.25823550308E+03  0.15472694040E+02 -0.29573157807E+03  0.39291493428E+03  0.00000000000E+00 0.  1.
        -11    1    5    5    0    0 -0.30693197718E+03  0.47932891650E+02 -0.52352164891E+03  0.60875259145E+03  0.00000000000E+00 0. -1.
          1    1    6    6  503    0  0.15564793257E+02  0.43390597314E+02 -0.20822097500E+02  0.50582274254E+02  0.00000000000E+00 0. -1.
         -1    1    6    6    0  503  0.28068774875E+03  0.18934768079E+03 -0.30924022517E+03  0.45854953209E+03  0.00000000000E+00 0.  1.
<mgrwt>
<rscale>  0 0.14289786E+04</rscale>
<asrwt>0</asrwt>
<pdfrwt beam="1">  1        2 0.47404625E-01 0.14289786E+04</pdfrwt>
<pdfrwt beam="2">  1       -1 0.25488487E+00 0.14289786E+04</pdfrwt>
<totfact> 0.76866232E+00</totfact>
</mgrwt>
</event>
<event>
12    6  0.1538774E-007  0.1282558E+04  0.7818608E-02  0.9043513E-01
         -1   -1    0    0    0  501 -0.00000000000E+00  0.00000000000E+00  0.80440032970E+03  0.80440032970E+03  0.00000000000E+00 0.  1.
          2   -1    0    0  501    0  0.00000000000E+00 -0.00000000000E+00 -0.51123619756E+03  0.51123619756E+03  0.00000000000E+00 0. -1.
         24    2    1    2    0    0 -0.20382759404E+03  0.21314480894E+03  0.20924180788E+03  0.37038501977E+03  0.80165647491E+02 0.  0.
        254    2    1    2    0    0  0.20382759404E+03 -0.21314480894E+03  0.83922324260E+02  0.94525150749E+03  0.89413704667E+03 0.  0.
         23    2    4    4    0    0  0.18816316098E+03  0.30772738487E+03  0.17082077816E+03  0.40875147242E+03  0.88297844835E+02 0.  0.
         23    2    4    4    0    0  0.15664433061E+02 -0.52087219381E+03 -0.86898453905E+02  0.53650003507E+03  0.93422318472E+02 0.  0.
          2    1    3    3  502    0 -0.50972531674E+02  0.21534968564E+02  0.14158516648E+02  0.57117575666E+02  0.00000000000E+00 0. -1.
         -1    1    3    3    0  502 -0.15285506237E+03  0.19160984037E+03  0.19508329123E+03  0.31326744411E+03  0.00000000000E+00 0.  1.
         11    1    5    5    0    0  0.73820228900E+02  0.14262435767E+03  0.29759550721E+02  0.16333023129E+03  0.00000000000E+00 0.  1.
        -11    1    5    5    0    0  0.11434293208E+03  0.16510302721E+03  0.14106122744E+03  0.24542124113E+03  0.00000000000E+00 0. -1.
          2    1    6    6  503    0  0.32422430678E+02 -0.31819789178E+03 -0.92840696473E+02  0.33304730485E+03  0.00000000000E+00 0. -1.
         -2    1    6    6    0  503 -0.16757997617E+02 -0.20267430203E+03  0.59422425676E+01  0.20345273022E+03  0.00000000000E+00 0.  1.
<mgrwt>
<rscale>  0 0.12825577E+04</rscale>
<asrwt>0</asrwt>
<pdfrwt beam="1">  1        2 0.78651722E-01 0.12825577E+04</pdfrwt>
<pdfrwt beam="2">  1       -1 0.12375390E+00 0.12825577E+04</pdfrwt>
<totfact> 0.38644683E+01</totfact>
</mgrwt>
</event>
<event>
12    6  0.1538774E-007  0.1948234E+04  0.7818608E-02  0.8631213E-01
         -1   -1    0    0    0  501 -0.00000000000E+00  0.00000000000E+00  0.22455849529E+03  0.22455849529E+03  0.00000000000E+00 0.  1.
          2   -1    0    0  501    0  0.00000000000E+00 -0.00000000000E+00 -0.42256427279E+04  0.42256427279E+04  0.00000000000E+00 0. -1.
         24    2    1    2    0    0 -0.15816414252E+03 -0.40404433413E+02  0.12613828346E+03  0.22266798589E+03  0.83795889913E+02 0.  0.
        254    2    1    2    0    0  0.15816414252E+03  0.40404433413E+02 -0.41272225161E+04  0.42275332373E+04  0.90079029807E+03 0.  0.
         23    2    4    4    0    0  0.50552541432E+03 -0.11565480633E+02 -0.17995284662E+04  0.18716820138E+04  0.95922652308E+02 0.  0.
         23    2    4    4    0    0 -0.34736127180E+03  0.51969914045E+02 -0.23276940500E+04  0.23558512236E+04  0.92274982389E+02 0.  0.
          4    1    3    3  502    0 -0.48337951410E+01 -0.25009533678E+02  0.34769340688E+01  0.25708586518E+02  0.00000000000E+00 0. -1.
         -3    1    3    3    0  502 -0.15333034738E+03 -0.15394899735E+02  0.12266134939E+03  0.19695939937E+03  0.00000000000E+00 0.  1.
         11    1    5    5    0    0  0.22757690588E+03  0.23603599400E+02 -0.67260199865E+03  0.71045184677E+03  0.00000000000E+00 0.  1.
        -11    1    5    5    0    0  0.27794850844E+03 -0.35169080032E+02 -0.11269264675E+04  0.11612301670E+04  0.00000000000E+00 0. -1.
          4    1    6    6  503    0 -0.19332656498E+02  0.27540748198E+02 -0.18085500179E+03  0.18395862603E+03  0.00000000000E+00 0. -1.
         -4    1    6    6    0  503 -0.32802861530E+03  0.24429165847E+02 -0.21468390482E+04  0.21718925976E+04  0.00000000000E+00 0.  1.
<mgrwt>
<rscale>  0 0.19482340E+04</rscale>
<asrwt>0</asrwt>
<pdfrwt beam="1">  1        2 0.65009882E+00 0.19482340E+04</pdfrwt>
<pdfrwt beam="2">  1       -1 0.34547464E-01 0.19482340E+04</pdfrwt>
<totfact> 0.18897595E+00</totfact>
</mgrwt>
</event>
<event>
12    6  0.1538774E-007  0.1327878E+04  0.7818608E-02  0.9007745E-01
         -1   -1    0    0    0  501 -0.00000000000E+00  0.00000000000E+00  0.45862483534E+03  0.45862483534E+03  0.00000000000E+00 0.  1.
          2   -1    0    0  501    0  0.00000000000E+00 -0.00000000000E+00 -0.96116745969E+03  0.96116745969E+03  0.00000000000E+00 0. -1.
         24    2    1    2    0    0 -0.30884129182E+03  0.11759393080E+03  0.15980133456E+01  0.34002814388E+03  0.80033173683E+02 0.  0.
        254    2    1    2    0    0  0.30884129182E+03 -0.11759393080E+03 -0.50414063769E+03  0.10797641512E+04  0.89583567882E+03 0.  0.
         23    2    4    4    0    0 -0.72584758469E+02 -0.38278850837E+03 -0.45038509914E+03  0.60332177926E+03  0.96720434735E+02 0.  0.
         23    2    4    4    0    0  0.38142605029E+03  0.26519457757E+03 -0.53755538554E+02  0.47644237189E+03  0.91069643652E+02 0.  0.
          2    1    3    3  502    0 -0.42036423760E+00 -0.11020594463E+01  0.93898058719E+01  0.94635984397E+01  0.00000000000E+00 0. -1.
         -1    1    3    3    0  502 -0.30842092759E+03  0.11869599024E+03 -0.77917925264E+01  0.33056454544E+03  0.00000000000E+00 0.  1.
         11    1    5    5    0    0 -0.57420600733E+02 -0.14333932455E+03 -0.23323245802E+03  0.27971533177E+03  0.00000000000E+00 0.  1.
        -11    1    5    5    0    0 -0.15164157735E+02 -0.23944918382E+03 -0.21715264112E+03  0.32360644749E+03  0.00000000000E+00 0. -1.
          1    1    6    6  503    0  0.33752143586E+03  0.19855289938E+03 -0.28027418187E+02  0.39259331335E+03  0.00000000000E+00 0.  1.
         -1    1    6    6    0  503  0.43904614432E+02  0.66641678197E+02 -0.25728120367E+02  0.83849058546E+02  0.00000000000E+00 0. -1.
<mgrwt>
<rscale>  0 0.13278784E+04</rscale>
<asrwt>0</asrwt>
<pdfrwt beam="1">  1        2 0.14787191E+00 0.13278784E+04</pdfrwt>
<pdfrwt beam="2">  1       -1 0.70557668E-01 0.13278784E+04</pdfrwt>
<totfact> 0.60494595E+01</totfact>
</mgrwt>
</event>
<event>
12    6  0.1538774E-007  0.1857292E+04  0.7818608E-02  0.8676412E-01
          2   -1    0    0  501    0  0.00000000000E+00  0.00000000000E+00  0.14911611954E+04  0.14911611954E+04  0.00000000000E+00 0. -1.
         -1   -1    0    0    0  501 -0.00000000000E+00 -0.00000000000E+00 -0.57833024987E+03  0.57833024987E+03  0.00000000000E+00 0.  1.
         24    2    1    2    0    0 -0.56395070467E+03  0.43447599554E+03  0.34065226508E+03  0.79350099191E+03  0.82401883817E+02 0.  0.
        254    2    1    2    0    0  0.56395070467E+03 -0.43447599554E+03  0.57217868047E+03  0.12759904534E+04  0.89104063137E+03 0.  0.
         23    2    4    4    0    0  0.24780325721E+03  0.16606571434E+03  0.49455593664E+03  0.58653623967E+03  0.10224925537E+03 0.  0.
         23    2    4    4    0    0  0.31614744747E+03 -0.60054170988E+03  0.77622743833E+02  0.68945421371E+03  0.93393086461E+02 0.  0.
          4    1    3    3  502    0 -0.22940268560E+03  0.13536632379E+03  0.15213667698E+03  0.30674941281E+03  0.00000000000E+00 0. -1.
         -3    1    3    3    0  502 -0.33454801907E+03  0.29910967175E+03  0.18851558810E+03  0.48675157910E+03  0.00000000000E+00 0.  1.
         11    1    5    5    0    0  0.24208539563E+03  0.15199115692E+03  0.49469908623E+03  0.57134388635E+03  0.00000000000E+00 0.  1.
        -11    1    5    5    0    0  0.57178615740E+01  0.14074557422E+02 -0.14314958786E+00  0.15192353320E+02  0.00000000000E+00 0. -1.
          1    1    6    6  503    0  0.13755511722E+03 -0.23666435512E+03  0.76070794480E+02  0.28410947367E+03  0.00000000000E+00 0. -1.
         -1    1    6    6    0  503  0.17859233025E+03 -0.36387735476E+03  0.15519493535E+01  0.40534474004E+03  0.00000000000E+00 0.  1.
<mgrwt>
<rscale>  0 0.18572923E+04</rscale>
<asrwt>0</asrwt>
<pdfrwt beam="1">  1        2 0.22940941E+00 0.18572923E+04</pdfrwt>
<pdfrwt beam="2">  1       -1 0.88973885E-01 0.18572923E+04</pdfrwt>
<totfact> 0.17035130E+01</totfact>
</mgrwt>
</event>
<event>
12    6  0.1538774E-007  0.2205864E+04  0.7818608E-02  0.8515991E-01
         -1   -1    0    0    0  501 -0.00000000000E+00  0.00000000000E+00  0.38535547533E+03  0.38535547533E+03  0.00000000000E+00 0.  1.
          2   -1    0    0  501    0  0.00000000000E+00 -0.00000000000E+00 -0.31567198363E+04  0.31567198363E+04  0.00000000000E+00 0. -1.
         24    2    1    2    0    0 -0.76519351475E+03 -0.32636140331E+03 -0.54202073423E+03  0.99550148538E+03  0.72137718862E+02 0.  0.
        254    2    1    2    0    0  0.76519351475E+03  0.32636140331E+03 -0.22293436268E+04  0.25465738263E+04  0.90721131270E+03 0.  0.
         23    2    4    4    0    0  0.21137005164E+03  0.47720815971E+03 -0.16149006871E+04  0.16993872634E+04  0.87223364970E+02 0.  0.
         23    2    4    4    0    0  0.55382346311E+03 -0.15084675641E+03 -0.61444293974E+03  0.84718656294E+03  0.10348803806E+03 0.  0.
          2    1    3    3  502    0 -0.12795713622E+03 -0.48574887164E+02 -0.59173255133E+02  0.14911077256E+03  0.00000000000E+00 0. -1.
         -1    1    3    3    0  502 -0.63723637853E+03 -0.27778651614E+03 -0.48284747909E+03  0.84639071282E+03  0.00000000000E+00 0.  1.
         11    1    5    5    0    0  0.21151280076E+03  0.47805705872E+03 -0.15752160474E+04  0.16596932886E+04  0.00000000000E+00 0.  1.
        -11    1    5    5    0    0 -0.14274911994E+00 -0.84889900748E+00 -0.39684639653E+02  0.39693974748E+02  0.00000000000E+00 0. -1.
          1    1    6    6  503    0  0.15189806521E+03 -0.25562628209E+02 -0.23159257691E+03  0.27813951869E+03  0.00000000000E+00 0. -1.
         -1    1    6    6    0  503  0.40192539790E+03 -0.12528412820E+03 -0.38285036283E+03  0.56904704425E+03  0.00000000000E+00 0.  1.
<mgrwt>
<rscale>  0 0.22058643E+04</rscale>
<asrwt>0</asrwt>
<pdfrwt beam="1">  1        2 0.48564919E+00 0.22058643E+04</pdfrwt>
<pdfrwt beam="2">  1       -1 0.59285459E-01 0.22058643E+04</pdfrwt>
<totfact> 0.41555293E+00</totfact>
</mgrwt>
</event>
<event>
12    6  0.1538774E-007  0.1706471E+04  0.7818608E-02  0.8757682E-01
         -1   -1    0    0    0  501 -0.00000000000E+00  0.00000000000E+00  0.11544074862E+04  0.11544074862E+04  0.00000000000E+00 0.  1.
          2   -1    0    0  501    0  0.00000000000E+00 -0.00000000000E+00 -0.63063573952E+03  0.63063573952E+03  0.00000000000E+00 0. -1.
         24    2    1    2    0    0  0.31668521577E+03  0.30627101302E+03 -0.21847383752E+03  0.49822585306E+03  0.80042011886E+02 0.  0.
        254    2    1    2    0    0 -0.31668521577E+03 -0.30627101302E+03  0.74224558417E+03  0.12868173726E+04  0.95439980302E+03 0.  0.
         23    2    4    4    0    0  0.17182064768E+02 -0.33279481418E+03 -0.11290061258E+03  0.36405977520E+03  0.93516629009E+02 0.  0.
         23    2    4    4    0    0 -0.33386728054E+03  0.26523801159E+02  0.85514619675E+03  0.92275759744E+03  0.89642025658E+02 0.  0.
          2    1    3    3  502    0  0.12759129567E+03  0.12001267132E+03 -0.13110375255E+03  0.21879390746E+03  0.00000000000E+00 0. -1.
         -1    1    3    3    0  502  0.18909392010E+03  0.18625834170E+03 -0.87370084967E+02  0.27943194560E+03  0.00000000000E+00 0.  1.
         11    1    5    5    0    0  0.18831792291E+02 -0.32950334845E+03 -0.12384557435E+03  0.35251215486E+03  0.00000000000E+00 0.  1.
        -11    1    5    5    0    0 -0.16497275235E+01 -0.32914657358E+01  0.10944961762E+02  0.11547620342E+02  0.00000000000E+00 0. -1.
          3    1    6    6  503    0 -0.56913143729E+02  0.38959009740E+02  0.15121476779E+03  0.16620113226E+03  0.00000000000E+00 0. -1.
         -3    1    6    6    0  503 -0.27695413681E+03 -0.12435208581E+02  0.70393142897E+03  0.75655646517E+03  0.00000000000E+00 0.  1.
<mgrwt>
<rscale>  0 0.17064708E+04</rscale>
<asrwt>0</asrwt>
<pdfrwt beam="1">  1        2 0.97020883E-01 0.17064708E+04</pdfrwt>
<pdfrwt beam="2">  1       -1 0.17760115E+00 0.17064708E+04</pdfrwt>
<totfact> 0.10979545E+01</totfact>
</mgrwt>
</event>
<event>
12    6  0.1538774E-007  0.1402434E+04  0.7818608E-02  0.8952059E-01
         -1   -1    0    0    0  501 -0.00000000000E+00  0.00000000000E+00  0.19033466410E+03  0.19033466410E+03  0.00000000000E+00 0.  1.
          2   -1    0    0  501    0  0.00000000000E+00 -0.00000000000E+00 -0.25833721051E+04  0.25833721051E+04  0.00000000000E+00 0. -1.
         24    2    1    2    0    0 -0.33052958302E+03  0.73793717979E+02 -0.11648395342E+04  0.12157083815E+04  0.80002564589E+02 0.  0.
        254    2    1    2    0    0  0.33052958302E+03 -0.73793717979E+02 -0.12281979069E+04  0.15579983878E+04  0.89676839809E+03 0.  0.
         23    2    4    4    0    0  0.42662184460E+02  0.10630692343E+03  0.10086451677E+03  0.18297767112E+03  0.10092548456E+03 0.  0.
         23    2    4    4    0    0  0.28786739856E+03 -0.18010064141E+03 -0.13290624236E+04  0.13750207167E+04  0.94716234773E+02 0.  0.
          2    1    3    3  502    0 -0.30146685982E+03  0.46494750125E+02 -0.10745654429E+04  0.11170205551E+04  0.00000000000E+00 0. -1.
         -1    1    3    3    0  502 -0.29062723192E+02  0.27298967854E+02 -0.90274091254E+02  0.98687826387E+02  0.00000000000E+00 0.  1.
         11    1    5    5    0    0 -0.22273929179E+02 -0.31908939607E+00  0.35883145014E+02  0.42235409732E+02  0.00000000000E+00 0. -1.
        -11    1    5    5    0    0  0.64936113639E+02  0.10662601282E+03  0.64981371752E+02  0.14074226139E+03  0.00000000000E+00 0.  1.
          2    1    6    6  503    0  0.20308915718E+03 -0.77125748887E+02 -0.75247567210E+03  0.78320701223E+03  0.00000000000E+00 0. -1.
         -2    1    6    6    0  503  0.84778241377E+02 -0.10297489252E+03 -0.57658675154E+03  0.59181370443E+03  0.00000000000E+00 0.  1.
<mgrwt>
<rscale>  0 0.14024340E+04</rscale>
<asrwt>0</asrwt>
<pdfrwt beam="1">  1        2 0.39744182E+00 0.14024340E+04</pdfrwt>
<pdfrwt beam="2">  1       -1 0.29282259E-01 0.14024340E+04</pdfrwt>
<totfact> 0.36887906E+01</totfact>
</mgrwt>
</event>
<event>
12    6  0.1538774E-007  0.1434025E+04  0.7818608E-02  0.8929551E-01
         -1   -1    0    0    0  501 -0.00000000000E+00  0.00000000000E+00  0.72682883380E+03  0.72682883380E+03  0.00000000000E+00 0.  1.
          2   -1    0    0  501    0  0.00000000000E+00 -0.00000000000E+00 -0.70732844185E+03  0.70732844185E+03  0.00000000000E+00 0. -1.
         24    2    1    2    0    0 -0.17369337238E+03  0.10376924693E+03  0.38900107070E+03  0.44583184626E+03  0.80664477414E+02 0.  0.
        254    2    1    2    0    0  0.17369337238E+03 -0.10376924693E+03 -0.36950067875E+03  0.98832542939E+03  0.89404639620E+03 0.  0.
         23    2    4    4    0    0  0.40002184398E+02  0.33768523944E+03 -0.37902129787E+03  0.51789805240E+03  0.94497369024E+02 0.  0.
         23    2    4    4    0    0  0.13369118798E+03 -0.44145448636E+03  0.95206191129E+01  0.47042737699E+03  0.91955845703E+02 0.  0.
          2    1    3    3  502    0 -0.90142594531E+02  0.76612243588E+01  0.16076940284E+03  0.18447542545E+03  0.00000000000E+00 0. -1.
         -1    1    3    3    0  502 -0.83550777847E+02  0.96108022567E+02  0.22823166787E+03  0.26135642081E+03  0.00000000000E+00 0.  1.
         11    1    5    5    0    0  0.58634313410E+02  0.13915016922E+03 -0.13307141687E+03  0.20126786701E+03  0.00000000000E+00 0. -1.
        -11    1    5    5    0    0 -0.18632129012E+02  0.19853507022E+03 -0.24594988099E+03  0.31663018539E+03  0.00000000000E+00 0.  1.
          3    1    6    6  503    0  0.12398426731E+03 -0.42129913390E+03 -0.12079731075E+02  0.43933014769E+03  0.00000000000E+00 0. -1.
         -3    1    6    6    0  503  0.97069206727E+01 -0.20155352458E+02  0.21600350188E+02  0.31097229297E+02  0.00000000000E+00 0.  1.
<mgrwt>
<rscale>  0 0.14340247E+04</rscale>
<asrwt>0</asrwt>
<pdfrwt beam="1">  1        2 0.10881976E+00 0.14340247E+04</pdfrwt>
<pdfrwt beam="2">  1       -1 0.11181982E+00 0.14340247E+04</pdfrwt>
<totfact> 0.32925615E+01</totfact>
</mgrwt>
</event>
<event>
12    6  0.1538774E-007  0.1305417E+04  0.7818608E-02  0.9025281E-01
          4   -1    0    0  501    0  0.00000000000E+00  0.00000000000E+00  0.89178612052E+03  0.89178612052E+03  0.00000000000E+00 0. -1.
         -3   -1    0    0    0  501 -0.00000000000E+00 -0.00000000000E+00 -0.47772460024E+03  0.47772460024E+03  0.00000000000E+00 0.  1.
         24    2    1    2    0    0 -0.66222394196E+02 -0.31190295981E+03  0.14316031566E+02  0.32894855284E+03  0.79582283375E+02 0.  0.
        254    2    1    2    0    0  0.66222394196E+02  0.31190295981E+03  0.39974548871E+03  0.10405621679E+04  0.90625841113E+03 0.  0.
         23    2    4    4    0    0 -0.57308605668E+02  0.69291406289E+02  0.64754211574E+03  0.66098271081E+03  0.97477059179E+02 0.  0.
         23    2    4    4    0    0  0.12353099986E+03  0.24261155352E+03 -0.24779662703E+03  0.37957945711E+03  0.92504713757E+02 0.  0.
          2    1    3    3  502    0  0.17700063724E+02 -0.47449027887E+02  0.90676366233E+01  0.51448270498E+02  0.00000000000E+00 0. -1.
         -1    1    3    3    0  502 -0.83922457921E+02 -0.26445393192E+03  0.52483949431E+01  0.27750028234E+03  0.00000000000E+00 0.  1.
         11    1    5    5    0    0  0.22070380340E+02  0.31091847941E+01  0.22002156030E+03  0.22114758808E+03  0.00000000000E+00 0. -1.
        -11    1    5    5    0    0 -0.79378986008E+02  0.66182221495E+02  0.42752055544E+03  0.43983512273E+03  0.00000000000E+00 0.  1.
          2    1    6    6  503    0 -0.47347490664E+00  0.99437137265E+01 -0.47347476540E+02  0.48382694797E+02  0.00000000000E+00 0. -1.
         -2    1    6    6    0  503  0.12400447477E+03  0.23266783979E+03 -0.20044915049E+03  0.33119676231E+03  0.00000000000E+00 0.  1.
<mgrwt>
<rscale>  0 0.13054167E+04</rscale>
<asrwt>0</asrwt>
<pdfrwt beam="1">  1        4 0.13719786E+00 0.13054167E+04</pdfrwt>
<pdfrwt beam="2">  1       -3 0.73496092E-01 0.13054167E+04</pdfrwt>
<totfact> 0.14799089E+00</totfact>
</mgrwt>
</event>
<event>
12    6  0.1538774E-007  0.2344087E+04  0.7818608E-02  0.8460738E-01
         -1   -1    0    0    0  501 -0.00000000000E+00  0.00000000000E+00  0.65202977309E+03  0.65202977309E+03  0.00000000000E+00 0.  1.
          2   -1    0    0  501    0  0.00000000000E+00 -0.00000000000E+00 -0.21067841913E+04  0.21067841913E+04  0.00000000000E+00 0. -1.
         24    2    1    2    0    0  0.87927647170E+03 -0.42846400067E+03 -0.46472260965E+03  0.10858406019E+04  0.79838557113E+02 0.  0.
        254    2    1    2    0    0 -0.87927647170E+03  0.42846400067E+03 -0.99003180857E+03  0.16729733625E+04  0.92842252029E+03 0.  0.
         23    2    4    4    0    0  0.29599897346E+02  0.19969365234E+03  0.90500017005E+02  0.23971601863E+03  0.92302804960E+02 0.  0.
         23    2    4    4    0    0 -0.90887636905E+03  0.22877034834E+03 -0.10805318256E+04  0.14332573439E+04  0.91024509160E+02 0.  0.
          4    1    3    3  502    0  0.15127769166E+03 -0.41466759622E+02 -0.77924276392E+02  0.17514743789E+03  0.00000000000E+00 0. -1.
         -3    1    3    3    0  502  0.72799878004E+03 -0.38699724105E+03 -0.38679833326E+03  0.91069316399E+03  0.00000000000E+00 0.  1.
         11    1    5    5    0    0 -0.29875089903E+01  0.18249143712E+03  0.60763052729E+02  0.19236475355E+03  0.00000000000E+00 0. -1.
        -11    1    5    5    0    0  0.32587406337E+02  0.17202215215E+02  0.29736964276E+02  0.47351265077E+02  0.00000000000E+00 0.  1.
          3    1    6    6  503    0 -0.36836117632E+03  0.48003002993E+02 -0.44150050626E+03  0.57698955064E+03  0.00000000000E+00 0. -1.
         -3    1    6    6    0  503 -0.54051519273E+03  0.18076734534E+03 -0.63903131931E+03  0.85626779326E+03  0.00000000000E+00 0.  1.
<mgrwt>
<rscale>  0 0.23440870E+04</rscale>
<asrwt>0</asrwt>
<pdfrwt beam="1">  1        2 0.32412064E+00 0.23440870E+04</pdfrwt>
<pdfrwt beam="2">  1       -1 0.10031227E+00 0.23440870E+04</pdfrwt>
<totfact> 0.56656420E+00</totfact>
</mgrwt>
</event>
<event>
12    6  0.2269892E-007  0.2118105E+04  0.7818608E-02  0.8553309E-01
          2   -1    0    0  501    0  0.00000000000E+00  0.00000000000E+00  0.17919400802E+04  0.17919400802E+04  0.00000000000E+00 0. -1.
         -1   -1    0    0    0  501 -0.00000000000E+00 -0.00000000000E+00 -0.62590970077E+03  0.62590970077E+03  0.00000000000E+00 0.  1.
         24    2    1    2    0    0 -0.26599437104E+03 -0.42484017697E+03 -0.32676641538E+03  0.60358215871E+03  0.79328120506E+02 0.  0.
        254    2    1    2    0    0  0.26599437104E+03  0.42484017697E+03  0.14927967948E+04  0.18142676222E+04  0.90104525591E+03 0.  0.
         23    2    4    4    0    0  0.16098104071E+03  0.53235934095E+03  0.15334626799E+04  0.16337165578E+04  0.90557368691E+02 0.  0.
         23    2    4    4    0    0  0.10501333033E+03 -0.10751916398E+03 -0.40665885128E+02  0.18055106449E+03  0.91415548475E+02 0.  0.
          2    1    3    3  502    0 -0.15573421571E+02 -0.53427802376E+02 -0.61675523294E+02  0.83071846613E+02  0.00000000000E+00 0. -1.
         -1    1    3    3    0  502 -0.25042094947E+03 -0.37141237459E+03 -0.26509089208E+03  0.52051031210E+03  0.00000000000E+00 0.  1.
         11    1    5    5    0    0  0.15396464807E+03  0.45957144527E+03  0.14001553377E+04  0.14816700023E+04  0.00000000000E+00 0. -1.
        -11    1    5    5    0    0  0.70163926428E+01  0.72787895681E+02  0.13330734222E+03  0.15204655542E+03  0.00000000000E+00 0.  1.
          3    1    6    6  503    0  0.50333983283E+02 -0.95485007800E+02 -0.57218739298E+02  0.12216742902E+03  0.00000000000E+00 0. -1.
         -3    1    6    6    0  503  0.54679347046E+02 -0.12034156184E+02  0.16552854170E+02  0.58383635461E+02  0.00000000000E+00 0.  1.
<mgrwt>
<rscale>  0 0.21181055E+04</rscale>
<asrwt>0</asrwt>
<pdfrwt beam="1">  1        2 0.27568309E+00 0.21181055E+04</pdfrwt>
<pdfrwt beam="2">  1       -1 0.96293801E-01 0.21181055E+04</pdfrwt>
<totfact> 0.94870288E+00</totfact>
</mgrwt>
</event>
<event>
12    6  0.1538774E-007  0.1247729E+04  0.7818608E-02  0.9072075E-01
          2   -1    0    0  501    0  0.00000000000E+00  0.00000000000E+00  0.69825823075E+03  0.69825823075E+03  0.00000000000E+00 0. -1.
         -1   -1    0    0    0  501 -0.00000000000E+00 -0.00000000000E+00 -0.55739722362E+03  0.55739722362E+03  0.00000000000E+00 0.  1.
         24    2    1    2    0    0 -0.14484888390E+02 -0.22041155256E+03 -0.15748494774E+03  0.28336385927E+03  0.81868818718E+02 0.  0.
        254    2    1    2    0    0  0.14484888390E+02  0.22041155256E+03  0.29834595487E+03  0.97229159511E+03  0.89863762031E+03 0.  0.
         23    2    4    4    0    0  0.28257141552E+03  0.39632623386E+03  0.38642322121E+03  0.62788585622E+03  0.89424012641E+02 0.  0.
         23    2    4    4    0    0 -0.26808652713E+03 -0.17591468129E+03 -0.88077266340E+02  0.34440573889E+03  0.89673558062E+02 0.  0.
          4    1    3    3  502    0 -0.32688424350E+02 -0.10940225342E+03 -0.40715841428E+02  0.12122361933E+03  0.00000000000E+00 0. -1.
         -3    1    3    3    0  502  0.18203535960E+02 -0.11100929914E+03 -0.11676910631E+03  0.16214023993E+03  0.00000000000E+00 0.  1.
         11    1    5    5    0    0  0.10704790389E+03  0.83200113507E+02  0.95565289061E+02  0.16587416040E+03  0.00000000000E+00 0. -1.
        -11    1    5    5    0    0  0.17552351163E+03  0.31312612035E+03  0.29085793215E+03  0.46201169582E+03  0.00000000000E+00 0.  1.
          1    1    6    6  503    0 -0.22785575847E+03 -0.12023134192E+03 -0.40384654245E+02  0.26077718947E+03  0.00000000000E+00 0. -1.
         -1    1    6    6    0  503 -0.40230768656E+02 -0.55683339379E+02 -0.47692612095E+02  0.83628549428E+02  0.00000000000E+00 0.  1.
<mgrwt>
<rscale>  0 0.12477295E+04</rscale>
<asrwt>0</asrwt>
<pdfrwt beam="1">  1        2 0.10742434E+00 0.12477295E+04</pdfrwt>
<pdfrwt beam="2">  1       -1 0.85753419E-01 0.12477295E+04</pdfrwt>
<totfact> 0.62055276E+01</totfact>
</mgrwt>
</event>
<event>
12    6  0.1538774E-007  0.3349364E+04  0.7818608E-02  0.8150447E-01
          2   -1    0    0  501    0  0.00000000000E+00  0.00000000000E+00  0.20907065125E+04  0.20907065125E+04  0.00000000000E+00 0. -1.
         -1   -1    0    0    0  501 -0.00000000000E+00 -0.00000000000E+00 -0.13414413016E+04  0.13414413016E+04  0.00000000000E+00 0.  1.
         24    2    1    2    0    0 -0.11271687618E+04  0.10210706589E+04 -0.56206526188E+01  0.15229760552E+04  0.79559820295E+02 0.  0.
        254    2    1    2    0    0  0.11271687618E+04 -0.10210706589E+04  0.75488586347E+03  0.19091717589E+04  0.87292005947E+03 0.  0.
         23    2    4    4    0    0  0.70577725914E+03 -0.85430492534E+02  0.22990846284E+03  0.75287873979E+03  0.92458568943E+02 0.  0.
         23    2    4    4    0    0  0.42139150262E+03 -0.93564016636E+03  0.52497740063E+03  0.11562930191E+04  0.91754866437E+02 0.  0.
          4    1    3    3  502    0 -0.90055240241E+03  0.79992890711E+03  0.25658110415E+02  0.12047984166E+04  0.00000000000E+00 0. -1.
         -1    1    3    3    0  502 -0.22661635935E+03  0.22114175179E+03 -0.31278763033E+02  0.31817763863E+03  0.00000000000E+00 0.  1.
         11    1    5    5    0    0  0.82063466692E+02 -0.30627336197E+02  0.55141246617E+01  0.87765892343E+02  0.00000000000E+00 0.  1.
        -11    1    5    5    0    0  0.62371379244E+03 -0.54803156337E+02  0.22439433817E+03  0.66511284744E+03  0.00000000000E+00 0. -1.
          2    1    6    6  503    0  0.27938874756E+03 -0.65316064024E+03  0.31747683430E+03  0.77811852217E+03  0.00000000000E+00 0. -1.
         -2    1    6    6    0  503  0.14200275506E+03 -0.28247952612E+03  0.20750056633E+03  0.37817449696E+03  0.00000000000E+00 0.  1.
<mgrwt>
<rscale>  0 0.33493642E+04</rscale>
<asrwt>0</asrwt>
<pdfrwt beam="1">  1        2 0.32164716E+00 0.33493642E+04</pdfrwt>
<pdfrwt beam="2">  1       -1 0.20637558E+00 0.33493642E+04</pdfrwt>
<totfact> 0.76551957E-01</totfact>
</mgrwt>
</event>
<event>
12    6  0.1538774E-007  0.1381720E+04  0.7818608E-02  0.8967158E-01
          2   -1    0    0  501    0  0.00000000000E+00  0.00000000000E+00  0.18365598578E+04  0.18365598578E+04  0.00000000000E+00 0. -1.
         -1   -1    0    0    0  501 -0.00000000000E+00 -0.00000000000E+00 -0.25988130047E+03  0.25988130047E+03  0.00000000000E+00 0.  1.
         24    2    1    2    0    0 -0.23390647124E+03  0.22794023917E+03  0.11983899128E+03  0.35700998874E+03  0.80160827782E+02 0.  0.
        254    2    1    2    0    0  0.23390647124E+03 -0.22794023917E+03  0.14568395660E+04  0.17394311695E+04  0.89250786126E+03 0.  0.
         23    2    4    4    0    0  0.49920808117E+03 -0.11933993628E+03  0.13017610003E+04  0.14022773481E+04  0.91374670633E+02 0.  0.
         23    2    4    4    0    0 -0.26530160994E+03 -0.10860030289E+03  0.15507856572E+03  0.33715382139E+03  0.86280749376E+02 0.  0.
          2    1    3    3  502    0 -0.10859665263E+03  0.69554699485E+02  0.78142084065E+02  0.15078884072E+03  0.00000000000E+00 0. -1.
         -1    1    3    3    0  502 -0.12530981860E+03  0.15838553968E+03  0.41696907213E+02  0.20622114802E+03  0.00000000000E+00 0.  1.
         11    1    5    5    0    0  0.22021179103E+02 -0.22742115594E+02  0.50130864368E+02  0.59289457015E+02  0.00000000000E+00 0. -1.
        -11    1    5    5    0    0  0.47718690207E+03 -0.96597820689E+02  0.12516301359E+04  0.13429878911E+04  0.00000000000E+00 0.  1.
          3    1    6    6  503    0 -0.15677214701E+03 -0.22510956943E+02  0.10417290186E+03  0.18956857003E+03  0.00000000000E+00 0. -1.
         -3    1    6    6    0  503 -0.10852946293E+03 -0.86089345943E+02  0.50905663866E+02  0.14758525137E+03  0.00000000000E+00 0.  1.
<mgrwt>
<rscale>  0 0.13817200E+04</rscale>
<asrwt>0</asrwt>
<pdfrwt beam="1">  1        2 0.28254766E+00 0.13817200E+04</pdfrwt>
<pdfrwt beam="2">  1       -1 0.39981740E-01 0.13817200E+04</pdfrwt>
<totfact> 0.55743033E+01</totfact>
</mgrwt>
</event>
<event>
12    6  0.1538774E-007  0.2270403E+04  0.7818608E-02  0.8489683E-01
          2   -1    0    0  501    0  0.00000000000E+00  0.00000000000E+00  0.24226671644E+04  0.24226671644E+04  0.00000000000E+00 0. -1.
         -3   -1    0    0    0  501 -0.00000000000E+00 -0.00000000000E+00 -0.53192697886E+03  0.53192697886E+03  0.00000000000E+00 0.  1.
         24    2    1    2    0    0  0.65294295643E+03  0.66695429243E+03  0.10623810475E+04  0.14165527726E+04  0.82496879511E+02 0.  0.
        254    2    1    2    0    0 -0.65294295643E+03 -0.66695429243E+03  0.82835913803E+03  0.15380413706E+04  0.89901605299E+03 0.  0.
         23    2    4    4    0    0 -0.30903856516E+03 -0.82779343346E+03  0.45582548413E+03  0.99848684829E+03  0.91936450812E+02 0.  0.
         23    2    4    4    0    0 -0.34390439127E+03  0.16083914103E+03  0.37253365390E+03  0.53955452229E+03  0.90544462119E+02 0.  0.
          2    1    3    3  502    0  0.38340258768E+03  0.33840005851E+03  0.55394888762E+03  0.75390418087E+03  0.00000000000E+00 0. -1.
         -1    1    3    3    0  502  0.26954036874E+03  0.32855423392E+03  0.50843215986E+03  0.66264859178E+03  0.00000000000E+00 0.  1.
         11    1    5    5    0    0 -0.11329919434E+03 -0.25761982642E+03  0.10117782857E+03  0.29906794445E+03  0.00000000000E+00 0. -1.
        -11    1    5    5    0    0 -0.19573937081E+03 -0.57017360704E+03  0.35464765556E+03  0.69941890384E+03  0.00000000000E+00 0.  1.
          2    1    6    6  503    0 -0.34557949277E+03  0.15945518594E+03  0.35045181849E+03  0.51736603989E+03  0.00000000000E+00 0.  1.
         -2    1    6    6    0  503  0.16751014957E+01  0.13839550900E+01  0.22081835405E+02  0.22188482408E+02  0.00000000000E+00 0. -1.
<mgrwt>
<rscale>  0 0.22704026E+04</rscale>
<asrwt>0</asrwt>
<pdfrwt beam="1">  1        2 0.37271802E+00 0.22704026E+04</pdfrwt>
<pdfrwt beam="2">  1       -3 0.81834922E-01 0.22704026E+04</pdfrwt>
<totfact> 0.31034815E+00</totfact>
</mgrwt>
</event>
<event>
12    6  0.1538774E-007  0.3232369E+04  0.7818608E-02  0.8180321E-01
         -3   -1    0    0    0  501 -0.00000000000E+00  0.00000000000E+00  0.16960988426E+04  0.16960988426E+04  0.00000000000E+00 0.  1.
          2   -1    0    0  501    0  0.00000000000E+00 -0.00000000000E+00 -0.15400355003E+04  0.15400355003E+04  0.00000000000E+00 0. -1.
         24    2    1    2    0    0 -0.86166476637E+03  0.11989926642E+04 -0.12973712395E+03  0.14842635754E+04  0.78466946547E+02 0.  0.
        254    2    1    2    0    0  0.86166476637E+03 -0.11989926642E+04  0.28580046625E+03  0.17518707675E+04  0.89850971127E+03 0.  0.
         23    2    4    4    0    0  0.56420688810E+03 -0.53083592636E+03  0.56480797207E+03  0.96375112321E+03  0.98447899279E+02 0.  0.
         23    2    4    4    0    0  0.29745787826E+03 -0.66815673782E+03 -0.27900750582E+03  0.78811964432E+03  0.91502840525E+02 0.  0.
          4    1    3    3  502    0 -0.45379184101E+03  0.62057183055E+03 -0.10637392005E+03  0.77611329245E+03  0.00000000000E+00 0. -1.
         -3    1    3    3    0  502 -0.40787292535E+03  0.57842083363E+03 -0.23363203897E+02  0.70815028300E+03  0.00000000000E+00 0.  1.
         11    1    5    5    0    0  0.47136510098E+03 -0.45708694856E+03  0.51781626021E+03  0.83621003121E+03  0.00000000000E+00 0. -1.
        -11    1    5    5    0    0  0.92841787128E+02 -0.73748977807E+02  0.46991711856E+02  0.12754109200E+03  0.00000000000E+00 0.  1.
          1    1    6    6  503    0  0.22852905555E+03 -0.52694336475E+03 -0.25776010632E+03  0.62955151599E+03  0.00000000000E+00 0. -1.
         -1    1    6    6    0  503  0.68928822710E+02 -0.14121337308E+03 -0.21247399502E+02  0.15856812833E+03  0.00000000000E+00 0.  1.
<mgrwt>
<rscale>  0 0.32323691E+04</rscale>
<asrwt>0</asrwt>
<pdfrwt beam="1">  1        2 0.23692854E+00 0.32323691E+04</pdfrwt>
<pdfrwt beam="2">  1       -3 0.26093828E+00 0.32323691E+04</pdfrwt>
<totfact> 0.40249676E-01</totfact>
</mgrwt>
</event>
<event>
12    6  0.1538774E-007  0.1305967E+04  0.7818608E-02  0.9024847E-01
         -1   -1    0    0    0  501 -0.00000000000E+00  0.00000000000E+00  0.24603924328E+03  0.24603924328E+03  0.00000000000E+00 0.  1.
          2   -1    0    0  501    0  0.00000000000E+00 -0.00000000000E+00 -0.17330045807E+04  0.17330045807E+04  0.00000000000E+00 0. -1.
         24    2    1    2    0    0  0.31128635638E+03 -0.44100338438E+02 -0.22135874543E+03  0.39254143672E+03  0.79025627783E+02 0.  0.
        254    2    1    2    0    0 -0.31128635638E+03  0.44100338438E+02 -0.12656065919E+04  0.15865023872E+04  0.90354067068E+03 0.  0.
         23    2    4    4    0    0  0.51414338206E+02 -0.20693410526E+03  0.11487877600E+02  0.23235720621E+03  0.91611908903E+02 0.  0.
         23    2    4    4    0    0 -0.36270069459E+03  0.25103444370E+03 -0.12770944695E+04  0.13541451810E+04  0.90381421443E+02 0.  0.
          4    1    3    3  502    0  0.26628522687E+03 -0.12812530886E+02 -0.16297678258E+03  0.31246346132E+03  0.00000000000E+00 0. -1.
         -3    1    3    3    0  502  0.45001129506E+02 -0.31287807552E+02 -0.58381962857E+02  0.80077975407E+02  0.00000000000E+00 0.  1.
         11    1    5    5    0    0  0.70795430451E+02 -0.15040213806E+03 -0.15164557218E+02  0.16692141834E+03  0.00000000000E+00 0. -1.
        -11    1    5    5    0    0 -0.19381092245E+02 -0.56531967203E+02  0.26652434818E+02  0.65435787870E+02  0.00000000000E+00 0.  1.
          4    1    6    6  503    0 -0.31049527616E+03  0.18214828922E+03 -0.95295917203E+03  0.10186837092E+04  0.00000000000E+00 0. -1.
         -4    1    6    6    0  503 -0.52205418421E+02  0.68886154476E+02 -0.32413529751E+03  0.33546147183E+03  0.00000000000E+00 0.  1.
<mgrwt>
<rscale>  0 0.13059665E+04</rscale>
<asrwt>0</asrwt>
<pdfrwt beam="1">  1        2 0.26661608E+00 0.13059665E+04</pdfrwt>
<pdfrwt beam="2">  1       -1 0.37852192E-01 0.13059665E+04</pdfrwt>
<totfact> 0.70683437E+01</totfact>
</mgrwt>
</event>
<event>
12    6  0.1538774E-007  0.1915319E+04  0.7818608E-02  0.8647269E-01
         -1   -1    0    0    0  501 -0.00000000000E+00  0.00000000000E+00  0.69112061911E+03  0.69112061911E+03  0.00000000000E+00 0.  1.
          2   -1    0    0  501    0  0.00000000000E+00 -0.00000000000E+00 -0.13269918295E+04  0.13269918295E+04  0.00000000000E+00 0. -1.
         24    2    1    2    0    0 -0.13999109602E+03 -0.27729848919E+03  0.46342629830E+03  0.56368674164E+03  0.80540981351E+02 0.  0.
        254    2    1    2    0    0  0.13999109602E+03  0.27729848919E+03 -0.10992975086E+04  0.14544257069E+04  0.90022617458E+03 0.  0.
         23    2    4    4    0    0  0.38592597989E+03 -0.14081210356E+03 -0.71334630497E+03  0.82797154390E+03  0.88921404838E+02 0.  0.
         23    2    4    4    0    0 -0.24593488387E+03  0.41811059275E+03 -0.38595120368E+03  0.62645416303E+03  0.90476802993E+02 0.  0.
          4    1    3    3  502    0 -0.97334207945E+02 -0.11124586389E+03  0.18633360128E+03  0.23784406916E+03  0.00000000000E+00 0. -1.
         -3    1    3    3    0  502 -0.42656888079E+02 -0.16605262530E+03  0.27709269702E+03  0.32584267249E+03  0.00000000000E+00 0.  1.
         11    1    5    5    0    0  0.87133009160E+02 -0.73580781017E+02 -0.19021968107E+03  0.22178778074E+03  0.00000000000E+00 0. -1.
        -11    1    5    5    0    0  0.29879297073E+03 -0.67231322548E+02 -0.52312662390E+03  0.60618376316E+03  0.00000000000E+00 0.  1.
          2    1    6    6  503    0 -0.39840430634E+02  0.11916724776E+03 -0.13877268083E+03  0.18720563505E+03  0.00000000000E+00 0. -1.
         -2    1    6    6    0  503 -0.20609445323E+03  0.29894334499E+03 -0.24717852285E+03  0.43924852798E+03  0.00000000000E+00 0.  1.
<mgrwt>
<rscale>  0 0.19153187E+04</rscale>
<asrwt>0</asrwt>
<pdfrwt beam="1">  1        2 0.20415259E+00 0.19153187E+04</pdfrwt>
<pdfrwt beam="2">  1       -1 0.10632625E+00 0.19153187E+04</pdfrwt>
<totfact> 0.14055528E+01</totfact>
</mgrwt>
</event>
<event>
12    6  0.1538774E-007  0.1332484E+04  0.7818608E-02  0.9004194E-01
          2   -1    0    0  501    0  0.00000000000E+00  0.00000000000E+00  0.10724780131E+04  0.10724780131E+04  0.00000000000E+00 0. -1.
         -1   -1    0    0    0  501 -0.00000000000E+00 -0.00000000000E+00 -0.41388127526E+03  0.41388127526E+03  0.00000000000E+00 0.  1.
         24    2    1    2    0    0 -0.34117205566E+03 -0.10915249947E+03  0.18846077080E+03  0.41224475799E+03  0.78202548918E+02 0.  0.
        254    2    1    2    0    0  0.34117205566E+03  0.10915249947E+03  0.47013596701E+03  0.10741145303E+04  0.89687321127E+03 0.  0.
         23    2    4    4    0    0 -0.27150754315E+02  0.35099461102E+03 -0.69280511137E+02  0.37168328966E+03  0.97027306314E+02 0.  0.
         23    2    4    4    0    0  0.36832280998E+03 -0.24184211155E+03  0.53941647815E+03  0.70243124067E+03  0.91050599669E+02 0.  0.
          4    1    3    3  502    0 -0.27045510821E+03 -0.91610676774E+02  0.11228076685E+03  0.30683130913E+03  0.00000000000E+00 0. -1.
         -3    1    3    3    0  502 -0.70716947450E+02 -0.17541822694E+02  0.76180003945E+02  0.10541344886E+03  0.00000000000E+00 0.  1.
         11    1    5    5    0    0 -0.23708994149E+02  0.20780086673E+03  0.72704015749E+01  0.20927535774E+03  0.00000000000E+00 0.  1.
        -11    1    5    5    0    0 -0.34417601659E+01  0.14319374428E+03 -0.76550912712E+02  0.16240793192E+03  0.00000000000E+00 0. -1.
          1    1    6    6  503    0  0.13156352809E+03 -0.62695496582E+02  0.23989870782E+03  0.28069748347E+03  0.00000000000E+00 0. -1.
         -1    1    6    6    0  503  0.23675928189E+03 -0.17914661496E+03  0.29951777033E+03  0.42173375719E+03  0.00000000000E+00 0.  1.
<mgrwt>
<rscale>  0 0.13324842E+04</rscale>
<asrwt>0</asrwt>
<pdfrwt beam="1">  1        2 0.16499662E+00 0.13324842E+04</pdfrwt>
<pdfrwt beam="2">  1       -1 0.63674043E-01 0.13324842E+04</pdfrwt>
<totfact> 0.63232785E+01</totfact>
</mgrwt>
</event>
<event>
12    6  0.1538774E-007  0.2269726E+04  0.7818608E-02  0.8489954E-01
          2   -1    0    0  501    0  0.00000000000E+00  0.00000000000E+00  0.87044759324E+03  0.87044759324E+03  0.00000000000E+00 0. -1.
         -1   -1    0    0    0  501 -0.00000000000E+00 -0.00000000000E+00 -0.14796001363E+04  0.14796001363E+04  0.00000000000E+00 0.  1.
         24    2    1    2    0    0 -0.20859481993E+03  0.82519460988E+03 -0.66635914164E+03  0.10839482975E+04  0.80320999821E+02 0.  0.
        254    2    1    2    0    0  0.20859481993E+03 -0.82519460988E+03  0.57206598550E+02  0.12660994320E+04  0.93556252264E+03 0.  0.
         23    2    4    4    0    0  0.37055297349E+03  0.29793467396E+02 -0.44211705723E+02  0.38529370718E+03  0.91101092222E+02 0.  0.
         23    2    4    4    0    0 -0.16195815356E+03 -0.85498807728E+03  0.10141830427E+03  0.88080572485E+03  0.91093340542E+02 0.  0.
          2    1    3    3  502    0 -0.62128554802E+02  0.20713380822E+03 -0.12785979526E+03  0.25122201152E+03  0.00000000000E+00 0. -1.
         -1    1    3    3    0  502 -0.14646626513E+03  0.61806080166E+03 -0.53849934638E+03  0.83272628602E+03  0.00000000000E+00 0.  1.
         11    1    5    5    0    0  0.25363164300E+03 -0.13182550736E+02 -0.26957568019E+01  0.25398830107E+03  0.00000000000E+00 0.  1.
        -11    1    5    5    0    0  0.11692133049E+03  0.42976018132E+02 -0.41515948921E+02  0.13130540610E+03  0.00000000000E+00 0. -1.
          3    1    6    6  503    0  0.11756808740E+02 -0.56289615965E+02  0.94681954916E+01  0.58278556461E+02  0.00000000000E+00 0. -1.
         -3    1    6    6    0  503 -0.17371496230E+03 -0.79869846131E+03  0.91950108782E+02  0.82252716839E+03  0.00000000000E+00 0.  1.
<mgrwt>
<rscale>  0 0.22697263E+04</rscale>
<asrwt>0</asrwt>
<pdfrwt beam="1">  1        2 0.13391502E+00 0.22697263E+04</pdfrwt>
<pdfrwt beam="2">  1       -1 0.22763079E+00 0.22697263E+04</pdfrwt>
<totfact> 0.31166692E+00</totfact>
</mgrwt>
</event>
<event>
12    6  0.1538774E-007  0.1352745E+04  0.7818608E-02  0.8988753E-01
         -1   -1    0    0    0  501 -0.00000000000E+00  0.00000000000E+00  0.25918655542E+03  0.25918655542E+03  0.00000000000E+00 0.  1.
          2   -1    0    0  501    0  0.00000000000E+00 -0.00000000000E+00 -0.17650604194E+04  0.17650604194E+04  0.00000000000E+00 0. -1.
         24    2    1    2    0    0 -0.40668650032E+02  0.24115223797E+03  0.82904702222E+01  0.25778668754E+03  0.81098109755E+02 0.  0.
        254    2    1    2    0    0  0.40668650032E+02 -0.24115223797E+03 -0.15141643342E+04  0.17664602873E+04  0.87628760952E+03 0.  0.
         23    2    4    4    0    0 -0.30489937901E+02  0.11745719934E+03 -0.13438784330E+04  0.13524066349E+04  0.90932026382E+02 0.  0.
         23    2    4    4    0    0  0.71158587933E+02 -0.35860943731E+03 -0.17028590121E+03  0.41405365240E+03  0.93695601566E+02 0.  0.
          4    1    3    3  502    0  0.17603459224E+02  0.72213304834E+02  0.24709509950E+02  0.78327537008E+02  0.00000000000E+00 0. -1.
         -3    1    3    3    0  502 -0.58272109255E+02  0.16893893313E+03 -0.16419039728E+02  0.17945915053E+03  0.00000000000E+00 0.  1.
         11    1    5    5    0    0 -0.55218159265E+02  0.10692921135E+03 -0.94645003275E+03  0.95407052456E+03  0.00000000000E+00 0.  1.
        -11    1    5    5    0    0  0.24728221363E+02  0.10527987987E+02 -0.39742840023E+03  0.39833611031E+03  0.00000000000E+00 0. -1.
          1    1    6    6  503    0  0.20940846364E+02 -0.11780765957E+03 -0.91742202945E+01  0.12000554162E+03  0.00000000000E+00 0. -1.
         -1    1    6    6    0  503  0.50217741568E+02 -0.24080177773E+03 -0.16111168092E+03  0.29404811078E+03  0.00000000000E+00 0.  1.
<mgrwt>
<rscale>  0 0.13527453E+04</rscale>
<asrwt>0</asrwt>
<pdfrwt beam="1">  1        2 0.27154776E+00 0.13527453E+04</pdfrwt>
<pdfrwt beam="2">  1       -1 0.39874854E-01 0.13527453E+04</pdfrwt>
<totfact> 0.61499462E+01</totfact>
</mgrwt>
</event>
<event>
12    6  0.1538774E-007  0.1659780E+04  0.7818608E-02  0.8784641E-01
          2   -1    0    0  501    0  0.00000000000E+00  0.00000000000E+00  0.63799772626E+03  0.63799772626E+03  0.00000000000E+00 0. -1.
         -1   -1    0    0    0  501 -0.00000000000E+00 -0.00000000000E+00 -0.10794986425E+04  0.10794986425E+04  0.00000000000E+00 0.  1.
         24    2    1    2    0    0 -0.19859835833E+02  0.32713486563E+03 -0.64870777483E+03  0.73097809310E+03  0.78074080745E+02 0.  0.
        254    2    1    2    0    0  0.19859835833E+02 -0.32713486563E+03  0.20720685858E+03  0.98651827566E+03  0.90712292033E+03 0.  0.
         23    2    4    4    0    0 -0.37999544850E+02 -0.56418168202E+03 -0.10245823132E+03  0.58240799382E+03  0.94638503586E+02 0.  0.
         23    2    4    4    0    0  0.57859380683E+02  0.23704681639E+03  0.30966508990E+03  0.40411028184E+03  0.88734158566E+02 0.  0.
          2    1    3    3  502    0 -0.41192649969E+02  0.21570174092E+03 -0.37307143192E+03  0.43290457235E+03  0.00000000000E+00 0. -1.
         -1    1    3    3    0  502  0.21332814135E+02  0.11143312471E+03 -0.27563634291E+03  0.29807352075E+03  0.00000000000E+00 0.  1.
         11    1    5    5    0    0 -0.18711793741E+02 -0.47684986326E+02  0.12921627337E+02  0.52829514469E+02  0.00000000000E+00 0. -1.
        -11    1    5    5    0    0 -0.19287751109E+02 -0.51649669570E+03 -0.11537985865E+03  0.52957847935E+03  0.00000000000E+00 0.  1.
          3    1    6    6  503    0  0.22888103023E+02  0.19118130307E+02  0.80927291516E+02  0.86247287949E+02  0.00000000000E+00 0. -1.
         -3    1    6    6    0  503  0.34971277661E+02  0.21792868609E+03  0.22873779838E+03  0.31786299389E+03  0.00000000000E+00 0.  1.
<mgrwt>
<rscale>  0 0.16597803E+04</rscale>
<asrwt>0</asrwt>
<pdfrwt beam="1">  1        2 0.98153497E-01 0.16597803E+04</pdfrwt>
<pdfrwt beam="2">  1       -1 0.16607671E+00 0.16597803E+04</pdfrwt>
<totfact> 0.13197445E+01</totfact>
</mgrwt>
</event>
<event>
12    6  0.1538774E-007  0.2373410E+04  0.7818608E-02  0.8449526E-01
          2   -1    0    0  501    0  0.00000000000E+00  0.00000000000E+00  0.30348782805E+04  0.30348782805E+04  0.00000000000E+00 0. -1.
         -1   -1    0    0    0  501 -0.00000000000E+00 -0.00000000000E+00 -0.46402807785E+03  0.46402807785E+03  0.00000000000E+00 0.  1.
         24    2    1    2    0    0 -0.52416860094E+03 -0.45121211637E+03  0.22019929674E+04  0.23094166641E+04  0.79291890457E+02 0.  0.
        254    2    1    2    0    0  0.52416860094E+03  0.45121211637E+03  0.36885723527E+03  0.11894896943E+04  0.89469826006E+03 0.  0.
         23    2    4    4    0    0  0.52877116880E+03  0.68703403453E+03  0.33505354539E+03  0.93400443314E+03  0.92134083182E+02 0.  0.
         23    2    4    4    0    0 -0.46025678540E+01 -0.23582191817E+03  0.33803689879E+02  0.25548526111E+03  0.92178459940E+02 0.  0.
          2    1    3    3  502    0 -0.36399307324E+03 -0.29301686702E+03  0.15941201934E+04  0.16611950617E+04  0.00000000000E+00 0. -1.
         -1    1    3    3    0  502 -0.16017552770E+03 -0.15819524934E+03  0.60787277392E+03  0.64822160243E+03  0.00000000000E+00 0.  1.
         11    1    5    5    0    0  0.22969229020E+03  0.24294045874E+03  0.97514627281E+02  0.34826386147E+03  0.00000000000E+00 0.  1.
        -11    1    5    5    0    0  0.29907887859E+03  0.44409357579E+03  0.23753891811E+03  0.58574057167E+03  0.00000000000E+00 0. -1.
          2    1    6    6  503    0 -0.11329478424E+02 -0.23483766473E+03  0.15112437080E+02  0.23559599235E+03  0.00000000000E+00 0. -1.
         -2    1    6    6    0  503  0.67269105700E+01 -0.98425343738E+00  0.18691252799E+02  0.19889268761E+02  0.00000000000E+00 0.  1.
<mgrwt>
<rscale>  0 0.23734100E+04</rscale>
<asrwt>0</asrwt>
<pdfrwt beam="1">  1        2 0.46690434E+00 0.23734100E+04</pdfrwt>
<pdfrwt beam="2">  1       -1 0.71388937E-01 0.23734100E+04</pdfrwt>
<totfact> 0.33641710E+00</totfact>
</mgrwt>
</event>
<event>
12    6  0.1538774E-007  0.1528832E+04  0.7818608E-02  0.8865503E-01
         -1   -1    0    0    0  501 -0.00000000000E+00  0.00000000000E+00  0.20331077232E+03  0.20331077232E+03  0.00000000000E+00 0.  1.
          2   -1    0    0  501    0  0.00000000000E+00 -0.00000000000E+00 -0.28740808604E+04  0.28740808604E+04  0.00000000000E+00 0. -1.
         24    2    1    2    0    0  0.17280876283E+03 -0.33636812810E+03 -0.15221880975E+04  0.15706521363E+04  0.82976761972E+02 0.  0.
        254    2    1    2    0    0 -0.17280876283E+03  0.33636812810E+03 -0.11485819906E+04  0.15067394964E+04  0.89889762201E+03 0.  0.
         23    2    4    4    0    0 -0.20606534909E+03  0.54529973508E+03 -0.37336998539E+03  0.69803083696E+03  0.89594498626E+02 0.  0.
         23    2    4    4    0    0  0.33256586269E+02 -0.20893160698E+03 -0.77521200521E+03  0.80870865946E+03  0.91091305558E+02 0.  0.
          2    1    3    3  502    0  0.13769036498E+03 -0.21229983364E+03 -0.11230046883E+04  0.11511600175E+04  0.00000000000E+00 0. -1.
         -1    1    3    3    0  502  0.35118397845E+02 -0.12406829446E+03 -0.39918340918E+03  0.41949211879E+03  0.00000000000E+00 0.  1.
         11    1    5    5    0    0 -0.66173576909E+01  0.18497184019E+02  0.39528718942E+01  0.20038972919E+02  0.00000000000E+00 0. -1.
        -11    1    5    5    0    0 -0.19944799140E+03  0.52680255106E+03 -0.37732285728E+03  0.67799186404E+03  0.00000000000E+00 0.  1.
          1    1    6    6  503    0  0.25617371034E+01  0.91329575216E+01 -0.46138430669E+02  0.47103377742E+02  0.00000000000E+00 0. -1.
         -1    1    6    6    0  503  0.30694849166E+02 -0.21806456450E+03 -0.72907357454E+03  0.76160528172E+03  0.00000000000E+00 0.  1.
<mgrwt>
<rscale>  0 0.15288317E+04</rscale>
<asrwt>0</asrwt>
<pdfrwt beam="1">  1        2 0.44216627E+00 0.15288317E+04</pdfrwt>
<pdfrwt beam="2">  1       -1 0.31278581E-01 0.15288317E+04</pdfrwt>
<totfact> 0.21813358E+01</totfact>
</mgrwt>
</event>
<event>
12    6  0.1538774E-007  0.2467831E+04  0.7818608E-02  0.8414536E-01
          2   -1    0    0  501    0  0.00000000000E+00  0.00000000000E+00  0.10418918141E+04  0.10418918141E+04  0.00000000000E+00 0. -1.
         -1   -1    0    0    0  501 -0.00000000000E+00 -0.00000000000E+00 -0.14613295014E+04  0.14613295014E+04  0.00000000000E+00 0.  1.
         24    2    1    2    0    0 -0.27174297885E+03  0.10304082358E+04 -0.96984187461E+02  0.10730133412E+04  0.79789214154E+02 0.  0.
        254    2    1    2    0    0  0.27174297885E+03 -0.10304082358E+04 -0.32245349982E+03  0.14302079744E+04  0.89773782995E+03 0.  0.
         23    2    4    4    0    0  0.42920511658E+03 -0.20949049137E+03 -0.33315142702E+03  0.58935698070E+03  0.90821139070E+02 0.  0.
         23    2    4    4    0    0 -0.15746213773E+03 -0.82091774448E+03  0.10697927197E+02  0.84085099367E+03  0.90640387698E+02 0.  0.
          4    1    3    3  502    0 -0.57888836898E+02  0.32179176932E+03 -0.37260278217E+01  0.32697850621E+03  0.00000000000E+00 0. -1.
         -1    1    3    3    0  502 -0.21385414195E+03  0.70861646653E+03 -0.93258159640E+02  0.74603483498E+03  0.00000000000E+00 0.  1.
         11    1    5    5    0    0  0.88858264117E+01 -0.16456332715E+02 -0.33136573269E+02  0.38049984041E+02  0.00000000000E+00 0.  1.
        -11    1    5    5    0    0  0.42031929017E+03 -0.19303415865E+03 -0.30001485375E+03  0.55130699666E+03  0.00000000000E+00 0. -1.
          4    1    6    6  503    0 -0.11022037964E+03 -0.65632478941E+03  0.41733894953E+02  0.66682267453E+03  0.00000000000E+00 0. -1.
         -4    1    6    6    0  503 -0.47241758085E+02 -0.16459295507E+03 -0.31035967757E+02  0.17402831913E+03  0.00000000000E+00 0.  1.
<mgrwt>
<rscale>  0 0.24678308E+04</rscale>
<asrwt>0</asrwt>
<pdfrwt beam="1">  1        2 0.16029105E+00 0.24678308E+04</pdfrwt>
<pdfrwt beam="2">  1       -1 0.22481992E+00 0.24678308E+04</pdfrwt>
<totfact> 0.24673124E+00</totfact>
</mgrwt>
</event>
<event>
12    6  0.1538774E-007  0.1397073E+04  0.7818608E-02  0.8955940E-01
          2   -1    0    0  501    0  0.00000000000E+00  0.00000000000E+00  0.17675570015E+04  0.17675570015E+04  0.00000000000E+00 0. -1.
         -1   -1    0    0    0  501 -0.00000000000E+00 -0.00000000000E+00 -0.27606063164E+03  0.27606063164E+03  0.00000000000E+00 0.  1.
         24    2    1    2    0    0 -0.15422989070E+03  0.10700327469E+03  0.96423680050E+03  0.98551933906E+03  0.79115107509E+02 0.  0.
        254    2    1    2    0    0  0.15422989070E+03 -0.10700327469E+03  0.52725956940E+03  0.10580982941E+04  0.89796034797E+03 0.  0.
         23    2    4    4    0    0  0.52011920697E+03 -0.39292637330E+02  0.36805134005E+03  0.64444454133E+03  0.88199076687E+02 0.  0.
         23    2    4    4    0    0 -0.36588931627E+03 -0.67710637359E+02  0.15920822935E+03  0.41365375279E+03  0.85454342962E+02 0.  0.
          2    1    3    3  502    0 -0.12131381689E+03  0.87433671147E+02  0.88464076754E+03  0.89719060217E+03  0.00000000000E+00 0. -1.
         -1    1    3    3    0  502 -0.32916073812E+02  0.19569603543E+02  0.79596032961E+02  0.88328736893E+02  0.00000000000E+00 0.  1.
         11    1    5    5    0    0  0.32546614309E+03  0.16886113627E+02  0.21320520219E+03  0.38944808302E+03  0.00000000000E+00 0. -1.
        -11    1    5    5    0    0  0.19465306388E+03 -0.56178750957E+02  0.15484613787E+03  0.25499645831E+03  0.00000000000E+00 0.  1.
          1    1    6    6  503    0 -0.12141213308E+03 -0.58454104140E+02  0.34727672422E+02  0.13915387017E+03  0.00000000000E+00 0. -1.
         -1    1    6    6    0  503 -0.24447718319E+03 -0.92565332198E+01  0.12448055693E+03  0.27449988262E+03  0.00000000000E+00 0.  1.
<mgrwt>
<rscale>  0 0.13970725E+04</rscale>
<asrwt>0</asrwt>
<pdfrwt beam="1">  1        2 0.27193184E+00 0.13970725E+04</pdfrwt>
<pdfrwt beam="2">  1       -1 0.42470868E-01 0.13970725E+04</pdfrwt>
<totfact> 0.54406611E+01</totfact>
</mgrwt>
</event>
<event>
12    6  0.1538774E-007  0.1769873E+04  0.7818608E-02  0.8722487E-01
          2   -1    0    0  501    0  0.00000000000E+00  0.00000000000E+00  0.82048149653E+03  0.82048149653E+03  0.00000000000E+00 0. -1.
         -1   -1    0    0    0  501 -0.00000000000E+00 -0.00000000000E+00 -0.95445502505E+03  0.95445502505E+03  0.00000000000E+00 0.  1.
         24    2    1    2    0    0  0.13809186760E+01 -0.63941963935E+03  0.86554116817E+02  0.65026058054E+03  0.80547038119E+02 0.  0.
        254    2    1    2    0    0 -0.13809186760E+01  0.63941963935E+03 -0.22052764534E+03  0.11246759410E+04  0.89855670265E+03 0.  0.
         23    2    4    4    0    0 -0.23855166506E+03  0.13280166896E+03 -0.43293127011E+03  0.51976616113E+03  0.90466554269E+02 0.  0.
         23    2    4    4    0    0  0.23717074638E+03  0.50661797038E+03  0.21240362477E+03  0.60490977991E+03  0.88818979697E+02 0.  0.
          4    1    3    3  502    0 -0.68566826968E+01 -0.50332559665E+03  0.10015958552E+03  0.51324030718E+03  0.00000000000E+00 0. -1.
         -3    1    3    3    0  502  0.82376013727E+01 -0.13609404270E+03 -0.13605468704E+02  0.13702027336E+03  0.00000000000E+00 0.  1.
         11    1    5    5    0    0 -0.91319319859E+02  0.16986917369E+02 -0.20259694578E+03  0.22287506810E+03  0.00000000000E+00 0. -1.
        -11    1    5    5    0    0 -0.14723234520E+03  0.11581475159E+03 -0.23033432433E+03  0.29689109304E+03  0.00000000000E+00 0.  1.
          1    1    6    6  503    0  0.20229933722E+03  0.42303680932E+03  0.21132895965E+03  0.51433947259E+03  0.00000000000E+00 0. -1.
         -1    1    6    6    0  503  0.34871409169E+02  0.83581161063E+02  0.10746651196E+01  0.90570307316E+02  0.00000000000E+00 0.  1.
<mgrwt>
<rscale>  0 0.17698731E+04</rscale>
<asrwt>0</asrwt>
<pdfrwt beam="1">  1        2 0.12622792E+00 0.17698731E+04</pdfrwt>
<pdfrwt beam="2">  1       -1 0.14683924E+00 0.17698731E+04</pdfrwt>
<totfact> 0.13289857E+01</totfact>
</mgrwt>
</event>
<event>
12    6  0.1538774E-007  0.1660793E+04  0.7818608E-02  0.8784047E-01
         -1   -1    0    0    0  501 -0.00000000000E+00  0.00000000000E+00  0.85227413576E+03  0.85227413576E+03  0.00000000000E+00 0.  1.
          2   -1    0    0  501    0  0.00000000000E+00 -0.00000000000E+00 -0.80908093533E+03  0.80908093533E+03  0.00000000000E+00 0. -1.
         24    2    1    2    0    0  0.27085681218E+03  0.90587168400E+02  0.52810506348E+03  0.60567274426E+03  0.79844018468E+02 0.  0.
        254    2    1    2    0    0 -0.27085681218E+03 -0.90587168400E+02 -0.48491186305E+03  0.10556823268E+04  0.89317199491E+03 0.  0.
         23    2    4    4    0    0 -0.63685496448E+02  0.20090770947E+03 -0.62014520586E+03  0.66188334018E+03  0.95340072768E+02 0.  0.
         23    2    4    4    0    0 -0.20717131573E+03 -0.29149487787E+03  0.13523334281E+03  0.39379898666E+03  0.94341756418E+02 0.  0.
          2    1    3    3  502    0  0.99082256450E+02  0.36541413509E+01  0.13032853907E+03  0.16375644839E+03  0.00000000000E+00 0. -1.
         -1    1    3    3    0  502  0.17177455573E+03  0.86933027050E+02  0.39777652440E+03  0.44191629587E+03  0.00000000000E+00 0.  1.
         11    1    5    5    0    0 -0.88734609044E+02  0.15963190435E+03 -0.50573825323E+03  0.53770564113E+03  0.00000000000E+00 0. -1.
        -11    1    5    5    0    0  0.25049112596E+02  0.41275805122E+02 -0.11440695263E+03  0.12417769905E+03  0.00000000000E+00 0.  1.
          2    1    6    6  503    0 -0.48309570514E+02 -0.72156765140E+02 -0.84030781857E+01  0.87241189135E+02  0.00000000000E+00 0.  1.
         -2    1    6    6    0  503 -0.15886174522E+03 -0.21933811273E+03  0.14363642100E+03  0.30655779753E+03  0.00000000000E+00 0. -1.
<mgrwt>
<rscale>  0 0.16607935E+04</rscale>
<asrwt>0</asrwt>
<pdfrwt beam="1">  1        2 0.12447399E+00 0.16607935E+04</pdfrwt>
<pdfrwt beam="2">  1       -1 0.13111910E+00 0.16607935E+04</pdfrwt>
<totfact> 0.18349905E+01</totfact>
</mgrwt>
</event>
<event>
12    6  0.1538774E-007  0.2946695E+04  0.7818608E-02  0.8259118E-01
          2   -1    0    0  501    0  0.00000000000E+00  0.00000000000E+00  0.22838729451E+04  0.22838729451E+04  0.00000000000E+00 0. -1.
         -1   -1    0    0    0  501 -0.00000000000E+00 -0.00000000000E+00 -0.95047014248E+03  0.95047014248E+03  0.00000000000E+00 0.  1.
         24    2    1    2    0    0  0.10893178030E+03  0.91294474257E+03 -0.45532920441E+03  0.10290878848E+04  0.79768129846E+02 0.  0.
        254    2    1    2    0    0 -0.10893178030E+03 -0.91294474257E+03  0.17887320070E+04  0.22052552028E+04  0.90457397739E+03 0.  0.
         23    2    4    4    0    0  0.25869794003E+03 -0.60745337236E+03  0.14942670261E+04  0.16364595426E+04  0.96133581380E+02 0.  0.
         23    2    4    4    0    0 -0.36762972033E+03 -0.30549137021E+03  0.29446498094E+03  0.56879566018E+03  0.91336134674E+02 0.  0.
          4    1    3    3  502    0 -0.11837293922E+02  0.10917469250E+03 -0.46270887383E+02  0.11916471806E+03  0.00000000000E+00 0. -1.
         -3    1    3    3    0  502  0.12076907422E+03  0.80377005007E+03 -0.40905831703E+03  0.90992316676E+03  0.00000000000E+00 0.  1.
         11    1    5    5    0    0  0.88350105864E+02 -0.28312521119E+03  0.57755971618E+03  0.64926177477E+03  0.00000000000E+00 0.  1.
        -11    1    5    5    0    0  0.17034783417E+03 -0.32432816117E+03  0.91670730992E+03  0.98719776783E+03  0.00000000000E+00 0. -1.
          4    1    6    6  503    0 -0.81886329781E+02 -0.12084745601E+03  0.99771325279E+02  0.17681571191E+03  0.00000000000E+00 0. -1.
         -4    1    6    6    0  503 -0.28574339055E+03 -0.18464391419E+03  0.19469365566E+03  0.39197994827E+03  0.00000000000E+00 0.  1.
<mgrwt>
<rscale>  0 0.29466951E+04</rscale>
<asrwt>0</asrwt>
<pdfrwt beam="1">  1        2 0.35136507E+00 0.29466951E+04</pdfrwt>
<pdfrwt beam="2">  1       -1 0.14622618E+00 0.29466951E+04</pdfrwt>
<totfact> 0.16907999E+00</totfact>
</mgrwt>
</event>
<event>
12    6  0.1538774E-007  0.1730221E+04  0.7818608E-02  0.8744314E-01
         -1   -1    0    0    0  501 -0.00000000000E+00  0.00000000000E+00  0.78966493326E+03  0.78966493326E+03  0.00000000000E+00 0.  1.
          2   -1    0    0  501    0  0.00000000000E+00 -0.00000000000E+00 -0.94776371188E+03  0.94776371188E+03  0.00000000000E+00 0. -1.
         24    2    1    2    0    0 -0.60027581929E+03 -0.10832788009E+03  0.14938166690E+03  0.63334741101E+03  0.82146648134E+02 0.  0.
        254    2    1    2    0    0  0.60027581929E+03  0.10832788009E+03 -0.30748044552E+03  0.11040812341E+04  0.86740138249E+03 0.  0.
         23    2    4    4    0    0  0.49030951696E+03 -0.32331290046E+03 -0.25339474078E+03  0.64616595052E+03  0.91579948338E+02 0.  0.
         23    2    4    4    0    0  0.10996630234E+03  0.43164078054E+03 -0.54085704744E+02  0.45791528361E+03  0.91404553667E+02 0.  0.
          4    1    3    3  502    0 -0.51896607855E+03 -0.98982810554E+02  0.99828017012E+02  0.53766999215E+03  0.00000000000E+00 0. -1.
         -3    1    3    3    0  502 -0.81309740740E+02 -0.93450695343E+01  0.49553649891E+02  0.95677418868E+02  0.00000000000E+00 0.  1.
         11    1    5    5    0    0  0.45927981934E+03 -0.31471645920E+03 -0.21695761247E+03  0.59754080008E+03  0.00000000000E+00 0. -1.
        -11    1    5    5    0    0  0.31029697615E+02 -0.85964412525E+01 -0.36437128307E+02  0.48625150443E+02  0.00000000000E+00 0.  1.
          3    1    6    6  503    0  0.12536820341E+03  0.36600734501E+03 -0.39104115015E+02  0.38885433628E+03  0.00000000000E+00 0. -1.
         -3    1    6    6    0  503 -0.15401901074E+02  0.65633435529E+02 -0.14981589729E+02  0.69060947336E+02  0.00000000000E+00 0.  1.
<mgrwt>
<rscale>  0 0.17302205E+04</rscale>
<asrwt>0</asrwt>
<pdfrwt beam="1">  1        2 0.14580980E+00 0.17302205E+04</pdfrwt>
<pdfrwt beam="2">  1       -1 0.12148691E+00 0.17302205E+04</pdfrwt>
<totfact> 0.17726435E+01</totfact>
</mgrwt>
</event>
<event>
12    6  0.1538774E-007  0.1476959E+04  0.7818608E-02  0.8899921E-01
          2   -1    0    0  501    0  0.00000000000E+00  0.00000000000E+00  0.26121249245E+04  0.26121249245E+04  0.00000000000E+00 0. -1.
         -1   -1    0    0    0  501 -0.00000000000E+00 -0.00000000000E+00 -0.20877709058E+03  0.20877709058E+03  0.00000000000E+00 0.  1.
         24    2    1    2    0    0  0.28546750598E+03  0.11612675836E+03  0.14025022312E+04  0.14381515183E+04  0.79310528713E+02 0.  0.
        254    2    1    2    0    0 -0.28546750598E+03 -0.11612675836E+03  0.10008456027E+04  0.13827504968E+04  0.90295619772E+03 0.  0.
         23    2    4    4    0    0  0.14932986052E+03 -0.34088902989E+03  0.70581362406E+03  0.80326807424E+03  0.92531017688E+02 0.  0.
         23    2    4    4    0    0 -0.43479736650E+03  0.22476227154E+03  0.29503197868E+03  0.57948242260E+03  0.95860216136E+02 0.  0.
          4    1    3    3  502    0  0.22760156721E+03  0.12366217658E+03  0.11829055134E+04  0.12109336319E+04  0.00000000000E+00 0. -1.
         -3    1    3    3    0  502  0.57865938765E+02 -0.75354182173E+01  0.21959671783E+03  0.22721788635E+03  0.00000000000E+00 0.  1.
         11    1    5    5    0    0  0.10760546531E+03 -0.20682370087E+03  0.52419967328E+03  0.57370748372E+03  0.00000000000E+00 0. -1.
        -11    1    5    5    0    0  0.41724395216E+02 -0.13406532902E+03  0.18161395078E+03  0.22956059052E+03  0.00000000000E+00 0.  1.
          3    1    6    6  503    0 -0.19029213367E+03  0.69839634498E+02  0.75944864565E+02  0.21646314499E+03  0.00000000000E+00 0. -1.
         -3    1    6    6    0  503 -0.24450523283E+03  0.15492263704E+03  0.21908711412E+03  0.36301927761E+03  0.00000000000E+00 0.  1.
<mgrwt>
<rscale>  0 0.14769588E+04</rscale>
<asrwt>0</asrwt>
<pdfrwt beam="1">  1        2 0.40186535E+00 0.14769588E+04</pdfrwt>
<pdfrwt beam="2">  1       -1 0.32119554E-01 0.14769588E+04</pdfrwt>
<totfact> 0.29961175E+01</totfact>
</mgrwt>
</event>
<event>
12    6  0.1538774E-007  0.2500797E+04  0.7818608E-02  0.8402702E-01
         -1   -1    0    0    0  501 -0.00000000000E+00  0.00000000000E+00  0.77114275910E+03  0.77114275910E+03  0.00000000000E+00 0.  1.
          2   -1    0    0  501    0  0.00000000000E+00 -0.00000000000E+00 -0.20275056311E+04  0.20275056311E+04  0.00000000000E+00 0. -1.
         24    2    1    2    0    0 -0.44590172669E+03  0.16716600748E+03 -0.16317475239E+04  0.17016587089E+04  0.79180527885E+02 0.  0.
        254    2    1    2    0    0  0.44590172669E+03 -0.16716600748E+03  0.37538465194E+03  0.10969896812E+04  0.91416623208E+03 0.  0.
         23    2    4    4    0    0  0.38427660217E+03 -0.24123016198E+03  0.64599149095E+03  0.79485291985E+03  0.92874430286E+02 0.  0.
         23    2    4    4    0    0  0.61625124516E+02  0.74064154496E+02 -0.27060683901E+03  0.30213676137E+03  0.93677138633E+02 0.  0.
          2    1    3    3  502    0 -0.39565279783E+03  0.12553541593E+03 -0.14625751476E+04  0.15203375741E+04  0.00000000000E+00 0. -1.
         -1    1    3    3    0  502 -0.50248928854E+02  0.41630591552E+02 -0.16917237636E+03  0.18132113481E+03  0.00000000000E+00 0.  1.
         11    1    5    5    0    0  0.24253908398E+02 -0.23970040547E+02  0.16622585607E+02  0.37935804574E+02  0.00000000000E+00 0.  1.
        -11    1    5    5    0    0  0.36002269377E+03 -0.21726012143E+03  0.62936890534E+03  0.75691711528E+03  0.00000000000E+00 0. -1.
          3    1    6    6  503    0  0.41476628543E+02 -0.11376104797E+02 -0.12412812484E+03  0.13136787222E+03  0.00000000000E+00 0. -1.
         -3    1    6    6    0  503  0.20148495973E+02  0.85440259293E+02 -0.14647871417E+03  0.17076888915E+03  0.00000000000E+00 0.  1.
<mgrwt>
<rscale>  0 0.25007969E+04</rscale>
<asrwt>0</asrwt>
<pdfrwt beam="1">  1        2 0.31192394E+00 0.25007969E+04</pdfrwt>
<pdfrwt beam="2">  1       -1 0.11863735E+00 0.25007969E+04</pdfrwt>
<totfact> 0.41664262E+00</totfact>
</mgrwt>
</event>
<event>
12    6  0.1538774E-007  0.1279752E+04  0.7818608E-02  0.9045778E-01
         -1   -1    0    0    0  501 -0.00000000000E+00  0.00000000000E+00  0.15013745691E+04  0.15013745691E+04  0.00000000000E+00 0.  1.
          2   -1    0    0  501    0  0.00000000000E+00 -0.00000000000E+00 -0.27271101006E+03  0.27271101006E+03  0.00000000000E+00 0. -1.
         24    2    1    2    0    0  0.16654331432E+03 -0.24878859571E+03  0.17125901816E+03  0.35382968623E+03  0.78951596922E+02 0.  0.
        254    2    1    2    0    0 -0.16654331432E+03  0.24878859571E+03  0.10574045409E+04  0.14202558929E+04  0.89966104586E+03 0.  0.
         23    2    4    4    0    0 -0.56005302171E+02  0.53348703275E+03  0.93113283336E+03  0.10786425119E+04  0.93361165377E+02 0.  0.
         23    2    4    4    0    0 -0.11053801215E+03 -0.28469843704E+03  0.12627170750E+03  0.34161338099E+03  0.86506102520E+02 0.  0.
          2    1    3    3  502    0  0.12830215096E+03 -0.20658930866E+03  0.17027212418E+03  0.29687233059E+03  0.00000000000E+00 0. -1.
         -3    1    3    3    0  502  0.38241163360E+02 -0.42199287041E+02  0.98689398161E+00  0.56957355641E+02  0.00000000000E+00 0.  1.
         11    1    5    5    0    0  0.18390527877E+02  0.30227845309E+02  0.70947679068E+02  0.79281191419E+02  0.00000000000E+00 0. -1.
        -11    1    5    5    0    0 -0.74395830049E+02  0.50325918744E+03  0.86018515429E+03  0.99936132051E+03  0.00000000000E+00 0.  1.
          2    1    6    6  503    0 -0.32934297793E+02 -0.19851711843E+02  0.31831348577E+02  0.49919867652E+02  0.00000000000E+00 0. -1.
         -2    1    6    6    0  503 -0.77603714360E+02 -0.26484672520E+03  0.94440358927E+02  0.29169351334E+03  0.00000000000E+00 0.  1.
<mgrwt>
<rscale>  0 0.12797521E+04</rscale>
<asrwt>0</asrwt>
<pdfrwt beam="1">  1        2 0.41955541E-01 0.12797521E+04</pdfrwt>
<pdfrwt beam="2">  1       -1 0.23098070E+00 0.12797521E+04</pdfrwt>
<totfact> 0.12784952E+01</totfact>
</mgrwt>
</event>
<event>
12    6  0.1538774E-007  0.1338697E+04  0.7818608E-02  0.8999429E-01
          2   -1    0    0  501    0  0.00000000000E+00  0.00000000000E+00  0.32657201480E+04  0.32657201480E+04  0.00000000000E+00 0. -1.
         -1   -1    0    0    0  501 -0.00000000000E+00 -0.00000000000E+00 -0.13719095575E+03  0.13719095575E+03  0.00000000000E+00 0.  1.
         24    2    1    2    0    0 -0.15449020536E+03 -0.69444930402E+02  0.16421888688E+04  0.16528100595E+04  0.79416560955E+02 0.  0.
        254    2    1    2    0    0  0.15449020536E+03  0.69444930402E+02  0.14863403234E+04  0.17501010442E+04  0.90827104210E+03 0.  0.
         23    2    4    4    0    0  0.48128254209E+03  0.21902595196E+03  0.10335319299E+04  0.11645656799E+04  0.91759030719E+02 0.  0.
         23    2    4    4    0    0 -0.32679233673E+03 -0.14958102156E+03  0.45280839346E+03  0.58553536423E+03  0.92997356010E+02 0.  0.
          2    1    3    3  502    0 -0.99927726463E+02 -0.79823648940E+02  0.12820506873E+04  0.12884142697E+04  0.00000000000E+00 0. -1.
         -3    1    3    3    0  502 -0.54562478900E+02  0.10378718539E+02  0.36013818148E+03  0.36439578985E+03  0.00000000000E+00 0.  1.
         11    1    5    5    0    0  0.73156240700E+02  0.30376945874E+01  0.11184253270E+03  0.13367802835E+03  0.00000000000E+00 0. -1.
        -11    1    5    5    0    0  0.40812630139E+03  0.21598825737E+03  0.92168939724E+03  0.10308876516E+04  0.00000000000E+00 0.  1.
          3    1    6    6  503    0 -0.15994674649E+03 -0.32997715581E+02  0.24673467302E+03  0.29588817113E+03  0.00000000000E+00 0. -1.
         -3    1    6    6    0  503 -0.16684559024E+03 -0.11658330598E+03  0.20607372044E+03  0.28964719310E+03  0.00000000000E+00 0.  1.
<mgrwt>
<rscale>  0 0.13386968E+04</rscale>
<asrwt>0</asrwt>
<pdfrwt beam="1">  1        2 0.50241842E+00 0.13386968E+04</pdfrwt>
<pdfrwt beam="2">  1       -1 0.21106303E-01 0.13386968E+04</pdfrwt>
<totfact> 0.24784173E+01</totfact>
</mgrwt>
</event>
<event>
12    6  0.1538774E-007  0.1034148E+04  0.7818608E-02  0.9271865E-01
          2   -1    0    0  501    0  0.00000000000E+00  0.00000000000E+00  0.82360150838E+03  0.82360150838E+03  0.00000000000E+00 0. -1.
         -1   -1    0    0    0  501 -0.00000000000E+00 -0.00000000000E+00 -0.32462962807E+03  0.32462962807E+03  0.00000000000E+00 0.  1.
         24    2    1    2    0    0 -0.42704600330E+02 -0.18444842496E+02  0.17643649118E+03  0.19892428523E+03  0.79228408599E+02 0.  0.
        254    2    1    2    0    0  0.42704600330E+02  0.18444842496E+02  0.32253538913E+03  0.94930685122E+03  0.89162241191E+03 0.  0.
         23    2    4    4    0    0  0.13966701157E+03 -0.40038402180E+03  0.60130400894E+02  0.43777057956E+03  0.90626575456E+02 0.  0.
         23    2    4    4    0    0 -0.96962411236E+02  0.41882886430E+03  0.26240498824E+03  0.51153627166E+03  0.89407229073E+02 0.  0.
          2    1    3    3  502    0 -0.14792934578E+01  0.12092973813E+02  0.12731334464E+03  0.12789494145E+03  0.00000000000E+00 0. -1.
         -1    1    3    3    0  502 -0.41225306872E+02 -0.30537816309E+02  0.49123146543E+02  0.71029343781E+02  0.00000000000E+00 0.  1.
         11    1    5    5    0    0  0.10896728601E+03 -0.36459680536E+03  0.29778922945E+02  0.38169553855E+03  0.00000000000E+00 0.  1.
        -11    1    5    5    0    0  0.30699725556E+02 -0.35787216443E+02  0.30351477949E+02  0.56075041005E+02  0.00000000000E+00 0. -1.
          2    1    6    6  503    0 -0.33432845335E+01  0.14732131430E+02 -0.72857654944E+01  0.16771870104E+02  0.00000000000E+00 0. -1.
         -2    1    6    6    0  503 -0.93619126702E+02  0.40409673287E+03  0.26969075373E+03  0.49476440156E+03  0.00000000000E+00 0.  1.
<mgrwt>
<rscale>  0 0.10341479E+04</rscale>
<asrwt>0</asrwt>
<pdfrwt beam="1">  1        2 0.12670792E+00 0.10341479E+04</pdfrwt>
<pdfrwt beam="2">  1       -1 0.49943020E-01 0.10341479E+04</pdfrwt>
<totfact> 0.15150691E+02</totfact>
</mgrwt>
</event>
<event>
12    6  0.1538774E-007  0.2053896E+04  0.7818608E-02  0.8581829E-01
         -1   -1    0    0    0  501 -0.00000000000E+00  0.00000000000E+00  0.45272974081E+03  0.45272974081E+03  0.00000000000E+00 0.  1.
          2   -1    0    0  501    0  0.00000000000E+00 -0.00000000000E+00 -0.23294746940E+04  0.23294746940E+04  0.00000000000E+00 0. -1.
         24    2    1    2    0    0 -0.30236647090E+03 -0.76265466627E+03 -0.64903030097E+03  0.10490885931E+04  0.79239648967E+02 0.  0.
        254    2    1    2    0    0  0.30236647090E+03  0.76265466627E+03 -0.12277146522E+04  0.17331158416E+04  0.90738064264E+03 0.  0.
         23    2    4    4    0    0 -0.13196923804E+02 -0.19130190722E+03 -0.24156600482E+03  0.32220009097E+03  0.93210436284E+02 0.  0.
         23    2    4    4    0    0  0.31556339471E+03  0.95395657349E+03 -0.98614864735E+03  0.14109157507E+04  0.92632071172E+02 0.  0.
          4    1    3    3  502    0 -0.18953093106E+02 -0.92998428331E+02 -0.10054842124E+03  0.13826753930E+03  0.00000000000E+00 0. -1.
         -3    1    3    3    0  502 -0.28341337780E+03 -0.66965623794E+03 -0.54848187973E+03  0.91082105384E+03  0.00000000000E+00 0.  1.
         11    1    5    5    0    0  0.26760018844E+01 -0.19634112219E+03 -0.22622303871E+03  0.29955610575E+03  0.00000000000E+00 0. -1.
        -11    1    5    5    0    0 -0.15872925688E+02  0.50392149743E+01 -0.15342966111E+02  0.22643985218E+02  0.00000000000E+00 0.  1.
          1    1    6    6  503    0  0.27530334294E+03  0.83133906209E+03 -0.89995695797E+03  0.12557225382E+04  0.00000000000E+00 0. -1.
         -1    1    6    6    0  503  0.40260051771E+02  0.12261751140E+03 -0.86191689379E+02  0.15519321244E+03  0.00000000000E+00 0.  1.
<mgrwt>
<rscale>  0 0.20538963E+04</rscale>
<asrwt>0</asrwt>
<pdfrwt beam="1">  1        2 0.35838071E+00 0.20538963E+04</pdfrwt>
<pdfrwt beam="2">  1       -1 0.69650732E-01 0.20538963E+04</pdfrwt>
<totfact> 0.95754332E+00</totfact>
</mgrwt>
</event>
<event>
12    6  0.1538774E-007  0.2436817E+04  0.7818608E-02  0.8425847E-01
         -1   -1    0    0    0  501 -0.00000000000E+00  0.00000000000E+00  0.15427638114E+04  0.15427638114E+04  0.00000000000E+00 0.  1.
          2   -1    0    0  501    0  0.00000000000E+00 -0.00000000000E+00 -0.96224701476E+03  0.96224701476E+03  0.00000000000E+00 0. -1.
         24    2    1    2    0    0  0.37163846111E+03  0.82172240587E+03  0.79273844608E+03  0.12032338390E+04  0.77424604568E+02 0.  0.
        254    2    1    2    0    0 -0.37163846111E+03 -0.82172240587E+03 -0.21222164940E+03  0.13017769872E+04  0.91446292313E+03 0.  0.
         23    2    4    4    0    0  0.21123350429E+02  0.14401221554E+03 -0.18267232448E+03  0.25465050278E+03  0.10144942720E+03 0.  0.
         23    2    4    4    0    0 -0.39276181153E+03 -0.96573462140E+03 -0.29549324921E+02  0.10471264844E+04  0.93249729879E+02 0.  0.
          2    1    3    3  502    0  0.59863983867E+02  0.19495554326E+03  0.15347361388E+03  0.25523618585E+03  0.00000000000E+00 0. -1.
         -1    1    3    3    0  502  0.31177447724E+03  0.62676686261E+03  0.63926483220E+03  0.94799765317E+03  0.00000000000E+00 0.  1.
         11    1    5    5    0    0  0.50338343104E+02  0.28926109782E+02 -0.50168845780E+02  0.76730578653E+02  0.00000000000E+00 0.  1.
        -11    1    5    5    0    0 -0.29214992675E+02  0.11508610575E+03 -0.13250347870E+03  0.17791992413E+03  0.00000000000E+00 0. -1.
          1    1    6    6  503    0 -0.17504619994E+03 -0.50568787397E+03 -0.52147291437E+02  0.53766228991E+03  0.00000000000E+00 0. -1.
         -1    1    6    6    0  503 -0.21771561160E+03 -0.46004674743E+03  0.22597966516E+02  0.50946419447E+03  0.00000000000E+00 0.  1.
<mgrwt>
<rscale>  0 0.24368175E+04</rscale>
<asrwt>0</asrwt>
<pdfrwt beam="1">  1        2 0.14803800E+00 0.24368175E+04</pdfrwt>
<pdfrwt beam="2">  1       -1 0.23734828E+00 0.24368175E+04</pdfrwt>
<totfact> 0.22993123E+00</totfact>
</mgrwt>
</event>
<event>
12    6  0.1538774E-007  0.1572688E+04  0.7818608E-02  0.8837504E-01
          2   -1    0    0  501    0  0.00000000000E+00  0.00000000000E+00  0.10657402778E+04  0.10657402778E+04  0.00000000000E+00 0. -1.
         -1   -1    0    0    0  501 -0.00000000000E+00 -0.00000000000E+00 -0.58019509205E+03  0.58019509205E+03  0.00000000000E+00 0.  1.
         24    2    1    2    0    0 -0.23724151250E+03 -0.46493395843E+03  0.15221258129E+03  0.54974136697E+03  0.81239028155E+02 0.  0.
        254    2    1    2    0    0  0.23724151250E+03  0.46493395843E+03  0.33333260446E+03  0.10961940029E+04  0.90447970999E+03 0.  0.
         23    2    4    4    0    0 -0.26158630493E+03  0.45935142354E+03  0.13562247277E+03  0.55362682735E+03  0.93156232249E+02 0.  0.
         23    2    4    4    0    0  0.49882781743E+03  0.55825348943E+01  0.19771013169E+03  0.54256717552E+03  0.80184085996E+02 0.  0.
          4    1    3    3  502    0 -0.97654234130E+02 -0.26119742797E+03  0.54417985936E+02  0.28411575637E+03  0.00000000000E+00 0. -1.
         -3    1    3    3    0  502 -0.13958727837E+03 -0.20373653046E+03  0.97794595349E+02  0.26562561060E+03  0.00000000000E+00 0.  1.
         11    1    5    5    0    0 -0.19634965009E+02  0.87579277568E+02 -0.11098260463E+00  0.89753406773E+02  0.00000000000E+00 0. -1.
        -11    1    5    5    0    0 -0.24195133992E+03  0.37177214597E+03  0.13573345538E+03  0.46387342058E+03  0.00000000000E+00 0.  1.
          1    1    6    6  503    0  0.13540371747E+03 -0.32443421957E+02  0.42665683904E+02  0.14562658726E+03  0.00000000000E+00 0. -1.
         -1    1    6    6    0  503  0.36342409996E+03  0.38025956851E+02  0.15504444778E+03  0.39694058827E+03  0.00000000000E+00 0.  1.
<mgrwt>
<rscale>  0 0.15726885E+04</rscale>
<asrwt>0</asrwt>
<pdfrwt beam="1">  1        2 0.16396004E+00 0.15726885E+04</pdfrwt>
<pdfrwt beam="2">  1       -1 0.89260784E-01 0.15726885E+04</pdfrwt>
<totfact> 0.30859407E+01</totfact>
</mgrwt>
</event>
<event>
12    6  0.1538774E-007  0.1199423E+04  0.7818608E-02  0.9113362E-01
          2   -1    0    0  501    0  0.00000000000E+00  0.00000000000E+00  0.88614700530E+03  0.88614700530E+03  0.00000000000E+00 0. -1.
         -1   -1    0    0    0  501 -0.00000000000E+00 -0.00000000000E+00 -0.40586255479E+03  0.40586255479E+03  0.00000000000E+00 0.  1.
         24    2    1    2    0    0  0.26588659724E+02  0.16963521123E+03 -0.99747124675E+02  0.21424714496E+03  0.80431887489E+02 0.  0.
        254    2    1    2    0    0 -0.26588659724E+02 -0.16963521123E+03  0.58003157519E+03  0.10777624151E+04  0.89199334837E+03 0.  0.
         23    2    4    4    0    0  0.35349648587E+03 -0.23087126392E+03  0.79018799593E+02  0.43900722183E+03  0.90675598119E+02 0.  0.
         23    2    4    4    0    0 -0.38008514560E+03  0.61236052692E+02  0.50101277560E+03  0.63875519330E+03  0.93700712945E+02 0.  0.
          2    1    3    3  502    0  0.11592027559E+02 -0.61173012919E+01 -0.50725501443E+01  0.14054438552E+02  0.00000000000E+00 0. -1.
         -1    1    3    3    0  502  0.14996632164E+02  0.17575251252E+03 -0.94674574531E+02  0.20019270640E+03  0.00000000000E+00 0.  1.
         11    1    5    5    0    0  0.12279172317E+03 -0.58894368150E+02  0.65033898704E+02  0.15091640686E+03  0.00000000000E+00 0. -1.
        -11    1    5    5    0    0  0.23070476270E+03 -0.17197689577E+03  0.13984900889E+02  0.28809081496E+03  0.00000000000E+00 0.  1.
          3    1    6    6  503    0 -0.22876301334E+03  0.47164278103E+02  0.37276589100E+03  0.43989930086E+03  0.00000000000E+00 0. -1.
         -3    1    6    6    0  503 -0.15132213226E+03  0.14071774589E+02  0.12824688459E+03  0.19885589244E+03  0.00000000000E+00 0.  1.
<mgrwt>
<rscale>  0 0.11994230E+04</rscale>
<asrwt>0</asrwt>
<pdfrwt beam="1">  1        2 0.13633031E+00 0.11994230E+04</pdfrwt>
<pdfrwt beam="2">  1       -1 0.62440394E-01 0.11994230E+04</pdfrwt>
<totfact> 0.87795331E+01</totfact>
</mgrwt>
</event>
<event>
12    6  0.1538774E-007  0.2079622E+04  0.7818608E-02  0.8570273E-01
          2   -1    0    0  501    0  0.00000000000E+00  0.00000000000E+00  0.30258533471E+04  0.30258533471E+04  0.00000000000E+00 0. -1.
         -1   -1    0    0    0  501 -0.00000000000E+00 -0.00000000000E+00 -0.35732307341E+03  0.35732307341E+03  0.00000000000E+00 0.  1.
         24    2    1    2    0    0 -0.43936085427E+03 -0.25354326406E+02 -0.83697982839E+02  0.45477415249E+03  0.78315868785E+02 0.  0.
        254    2    1    2    0    0  0.43936085427E+03  0.25354326406E+02  0.27522282565E+04  0.29284022680E+04  0.89838670134E+03 0.  0.
         23    2    4    4    0    0  0.13023055893E+03 -0.38346938744E+03  0.72285053691E+03  0.83357850305E+03  0.91276790338E+02 0.  0.
         23    2    4    4    0    0  0.30913029534E+03  0.40882371385E+03  0.20293777196E+04  0.20948237649E+04  0.84937087724E+02 0.  0.
          4    1    3    3  502    0 -0.24005253179E+03 -0.50565316560E+02 -0.32563596636E+02  0.24747213396E+03  0.00000000000E+00 0. -1.
         -3    1    3    3    0  502 -0.19930832248E+03  0.25210990154E+02 -0.51134386203E+02  0.20730201853E+03  0.00000000000E+00 0.  1.
         11    1    5    5    0    0  0.50525464208E+01 -0.21469017324E+02  0.99783284526E+02  0.10219173548E+03  0.00000000000E+00 0.  1.
        -11    1    5    5    0    0  0.12517801251E+03 -0.36200037012E+03  0.62306725239E+03  0.73138676757E+03  0.00000000000E+00 0. -1.
          2    1    6    6  503    0  0.27688710107E+03  0.39909755183E+03  0.19080874321E+04  0.19689446339E+04  0.00000000000E+00 0. -1.
         -2    1    6    6    0  503  0.32243194269E+02  0.97261620162E+01  0.12129028747E+03  0.12587913107E+03  0.00000000000E+00 0.  1.
<mgrwt>
<rscale>  0 0.20796223E+04</rscale>
<asrwt>0</asrwt>
<pdfrwt beam="1">  1        2 0.46551588E+00 0.20796223E+04</pdfrwt>
<pdfrwt beam="2">  1       -1 0.54972783E-01 0.20796223E+04</pdfrwt>
<totfact> 0.59043775E+00</totfact>
</mgrwt>
</event>
<event>
12    6  0.1538774E-007  0.2476649E+04  0.7818608E-02  0.8411352E-01
         -1   -1    0    0    0  501 -0.00000000000E+00  0.00000000000E+00  0.14117569321E+04  0.14117569321E+04  0.00000000000E+00 0.  1.
          2   -1    0    0  501    0  0.00000000000E+00 -0.00000000000E+00 -0.10861977604E+04  0.10861977604E+04  0.00000000000E+00 0. -1.
         24    2    1    2    0    0 -0.75256099353E+03  0.37299583634E+03 -0.54305969108E+03  0.10033696623E+04  0.79767840211E+02 0.  0.
        254    2    1    2    0    0  0.75256099353E+03 -0.37299583634E+03  0.86861886276E+03  0.14945850301E+04  0.87966569815E+03 0.  0.
         23    2    4    4    0    0 -0.11641214983E+02 -0.14112817030E+02  0.59547898913E+03  0.60278354545E+03  0.91750131785E+02 0.  0.
         23    2    4    4    0    0  0.76420220852E+03 -0.35888301931E+03  0.27313987363E+03  0.89180148463E+03  0.88895783812E+02 0.  0.
          4    1    3    3  502    0 -0.49968468498E+03  0.21078631251E+03 -0.32649375629E+03  0.63301961015E+03  0.00000000000E+00 0. -1.
         -3    1    3    3    0  502 -0.25287630856E+03  0.16220952383E+03 -0.21656593479E+03  0.37035005220E+03  0.00000000000E+00 0.  1.
         11    1    5    5    0    0 -0.15871649121E+02  0.36469233944E+02  0.33939606822E+03  0.34171860557E+03  0.00000000000E+00 0.  1.
        -11    1    5    5    0    0  0.42304341378E+01 -0.50582050973E+02  0.25608292091E+03  0.26106493988E+03  0.00000000000E+00 0. -1.
          1    1    6    6  503    0  0.18226040727E+03 -0.50265703813E+02  0.41652986685E+02  0.19359873021E+03  0.00000000000E+00 0. -1.
         -1    1    6    6    0  503  0.58194180124E+03 -0.30861731549E+03  0.23148688695E+03  0.69820275443E+03  0.00000000000E+00 0.  1.
<mgrwt>
<rscale>  0 0.24766487E+04</rscale>
<asrwt>0</asrwt>
<pdfrwt beam="1">  1        2 0.16710735E+00 0.24766487E+04</pdfrwt>
<pdfrwt beam="2">  1       -1 0.21719337E+00 0.24766487E+04</pdfrwt>
<totfact> 0.26013118E+00</totfact>
</mgrwt>
</event>
<event>
12    6  0.1538774E-007  0.2189869E+04  0.7818608E-02  0.8522657E-01
         -1   -1    0    0    0  501 -0.00000000000E+00  0.00000000000E+00  0.14611694385E+04  0.14611694385E+04  0.00000000000E+00 0.  1.
          2   -1    0    0  501    0  0.00000000000E+00 -0.00000000000E+00 -0.82049489471E+03  0.82049489471E+03  0.00000000000E+00 0. -1.
         24    2    1    2    0    0 -0.13000228702E+02 -0.65673890133E+03  0.91988849032E+03  0.11332840713E+04  0.81626962992E+02 0.  0.
        254    2    1    2    0    0  0.13000228702E+02  0.65673890133E+03 -0.27921394651E+03  0.11483802620E+04  0.89963426327E+03 0.  0.
         23    2    4    4    0    0 -0.33443367696E+03  0.28562630755E+03  0.15225925504E+03  0.47445238635E+03  0.92162434403E+02 0.  0.
         23    2    4    4    0    0  0.34743390566E+03  0.37111259378E+03 -0.43147320156E+03  0.67392787561E+03  0.97850814002E+02 0.  0.
          2    1    3    3  502    0  0.16794083330E+02 -0.13943968656E+03  0.24532237794E+03  0.28268098015E+03  0.00000000000E+00 0. -1.
         -1    1    3    3    0  502 -0.29794312031E+02 -0.51729921477E+03  0.67456611238E+03  0.85060309111E+03  0.00000000000E+00 0.  1.
         11    1    5    5    0    0 -0.18933728974E+03  0.21154457187E+03  0.72242572774E+02  0.29294829662E+03  0.00000000000E+00 0. -1.
        -11    1    5    5    0    0 -0.14509638722E+03  0.74081735684E+02  0.80016682270E+02  0.18150408972E+03  0.00000000000E+00 0.  1.
          2    1    6    6  503    0  0.18922429693E+03  0.20490969197E+03 -0.29932372829E+03  0.40913141010E+03  0.00000000000E+00 0. -1.
         -2    1    6    6    0  503  0.15820960872E+03  0.16620290181E+03 -0.13214947327E+03  0.26479646551E+03  0.00000000000E+00 0.  1.
<mgrwt>
<rscale>  0 0.21898695E+04</rscale>
<asrwt>0</asrwt>
<pdfrwt beam="1">  1        2 0.12622998E+00 0.21898695E+04</pdfrwt>
<pdfrwt beam="2">  1       -1 0.22479530E+00 0.21898695E+04</pdfrwt>
<totfact> 0.35522274E+00</totfact>
</mgrwt>
</event>
<event>
12    6  0.1538774E-007  0.1490929E+04  0.7818608E-02  0.8890508E-01
          2   -1    0    0  501    0  0.00000000000E+00  0.00000000000E+00  0.13296498407E+04  0.13296498407E+04  0.00000000000E+00 0. -1.
         -1   -1    0    0    0  501 -0.00000000000E+00 -0.00000000000E+00 -0.41794236616E+03  0.41794236616E+03  0.00000000000E+00 0.  1.
         24    2    1    2    0    0  0.12739431361E+03  0.37828544060E+03 -0.33477430608E+01  0.40714585473E+03  0.80170779771E+02 0.  0.
        254    2    1    2    0    0 -0.12739431361E+03 -0.37828544060E+03  0.91505521761E+03  0.13404463521E+04  0.89450611290E+03 0.  0.
         23    2    4    4    0    0  0.12736938867E+03 -0.54394757035E+03  0.84264624313E+03  0.10150820720E+04  0.90757927701E+02 0.  0.
         23    2    4    4    0    0 -0.25476370228E+03  0.16566212975E+03  0.72408974478E+02  0.32536428012E+03  0.90941574425E+02 0.  0.
          4    1    3    3  502    0  0.37206401456E+02  0.18500175943E+03  0.30602004932E+02  0.19117125832E+03  0.00000000000E+00 0. -1.
         -3    1    3    3    0  502  0.90187912155E+02  0.19328368117E+03 -0.33949747993E+02  0.21597459641E+03  0.00000000000E+00 0.  1.
         11    1    5    5    0    0  0.22200594765E+02 -0.28998876536E+03  0.41741941029E+03  0.50874877350E+03  0.00000000000E+00 0.  1.
        -11    1    5    5    0    0  0.10516879390E+03 -0.25395880499E+03  0.42522683284E+03  0.50633329854E+03  0.00000000000E+00 0. -1.
          1    1    6    6  503    0 -0.21650297945E+03  0.12683338435E+03  0.23307999163E+02  0.25199902841E+03  0.00000000000E+00 0. -1.
         -1    1    6    6    0  503 -0.38260722831E+02  0.38828745405E+02  0.49100975315E+02  0.73365251708E+02  0.00000000000E+00 0.  1.
<mgrwt>
<rscale>  0 0.14909286E+04</rscale>
<asrwt>0</asrwt>
<pdfrwt beam="1">  1        2 0.20456151E+00 0.14909286E+04</pdfrwt>
<pdfrwt beam="2">  1       -1 0.64298826E-01 0.14909286E+04</pdfrwt>
<totfact> 0.42945879E+01</totfact>
</mgrwt>
</event>
<event>
12    6  0.1538774E-007  0.1872210E+04  0.7818608E-02  0.8668814E-01
         -1   -1    0    0    0  501 -0.00000000000E+00  0.00000000000E+00  0.55759091153E+03  0.55759091153E+03  0.00000000000E+00 0.  1.
          2   -1    0    0  501    0  0.00000000000E+00 -0.00000000000E+00 -0.15715693468E+04  0.15715693468E+04  0.00000000000E+00 0. -1.
         24    2    1    2    0    0  0.61976040091E+03 -0.31714924381E+02  0.14841549767E+02  0.62600970316E+03  0.80988183610E+02 0.  0.
        254    2    1    2    0    0 -0.61976040091E+03  0.31714924381E+02 -0.10288199850E+04  0.15031505552E+04  0.90326199906E+03 0.  0.
         23    2    4    4    0    0 -0.35816660169E+03  0.39121799477E+03 -0.23176338794E+03  0.58574788618E+03  0.89730062897E+02 0.  0.
         23    2    4    4    0    0 -0.26159379922E+03 -0.35950307039E+03 -0.79705659710E+03  0.91740266900E+03  0.93030450332E+02 0.  0.
          2    1    3    3  502    0  0.27158491765E+03  0.87331764306E+01 -0.26726163222E+02  0.27303648779E+03  0.00000000000E+00 0. -1.
         -1    1    3    3    0  502  0.34817548326E+03 -0.40448100811E+02  0.41567712989E+02  0.35297321537E+03  0.00000000000E+00 0.  1.
         11    1    5    5    0    0 -0.21487313170E+02  0.13441215368E+02  0.68868550435E+01  0.26264037584E+02  0.00000000000E+00 0.  1.
        -11    1    5    5    0    0 -0.33667928852E+03  0.37777677940E+03 -0.23865024298E+03  0.55948384860E+03  0.00000000000E+00 0. -1.
          1    1    6    6  503    0 -0.16019137484E+03 -0.16579263042E+03 -0.34067425917E+03  0.41134829978E+03  0.00000000000E+00 0. -1.
         -1    1    6    6    0  503 -0.10140242439E+03 -0.19371043996E+03 -0.45638233793E+03  0.50605436921E+03  0.00000000000E+00 0.  1.
<mgrwt>
<rscale>  0 0.18722102E+04</rscale>
<asrwt>0</asrwt>
<pdfrwt beam="1">  1        2 0.24177990E+00 0.18722102E+04</pdfrwt>
<pdfrwt beam="2">  1       -1 0.85783216E-01 0.18722102E+04</pdfrwt>
<totfact> 0.16602822E+01</totfact>
</mgrwt>
</event>
<event>
12    6  0.1538774E-007  0.1243444E+04  0.7818608E-02  0.9075658E-01
         -1   -1    0    0    0  501 -0.00000000000E+00  0.00000000000E+00  0.34358136533E+03  0.34358136533E+03  0.00000000000E+00 0.  1.
          2   -1    0    0  501    0  0.00000000000E+00 -0.00000000000E+00 -0.11250266874E+04  0.11250266874E+04  0.00000000000E+00 0. -1.
         24    2    1    2    0    0 -0.23225415132E+03 -0.14966310952E+03 -0.15096498492E+03  0.33345621385E+03  0.10982523721E+03 0.  0.
        254    2    1    2    0    0  0.23225415132E+03  0.14966310952E+03 -0.63048033712E+03  0.11351518388E+04  0.90262018844E+03 0.  0.
         23    2    4    4    0    0 -0.23757315916E+03  0.22691851130E+03 -0.14832256544E+01  0.34115745776E+03  0.91941254621E+02 0.  0.
         23    2    4    4    0    0  0.46982731048E+03 -0.77255401774E+02 -0.62899711146E+03  0.79399438108E+03  0.89908910455E+02 0.  0.
          4    1    3    3  502    0 -0.10096700873E+03 -0.26725545841E+02 -0.99711624197E+01  0.10491909137E+03  0.00000000000E+00 0. -1.
         -3    1    3    3    0  502 -0.13128714259E+03 -0.12293756368E+03 -0.14099382250E+03  0.22853712249E+03  0.00000000000E+00 0.  1.
         11    1    5    5    0    0 -0.20303694293E+03  0.22020781110E+03  0.19558117492E+02  0.30016328927E+03  0.00000000000E+00 0. -1.
        -11    1    5    5    0    0 -0.34536216234E+02  0.67107001972E+01 -0.21041343146E+02  0.40994168491E+02  0.00000000000E+00 0.  1.
          3    1    6    6  503    0  0.42608265116E+03 -0.88989171171E+02 -0.53538747644E+03  0.69000380299E+03  0.00000000000E+00 0. -1.
         -3    1    6    6    0  503  0.43744659323E+02  0.11733769397E+02 -0.93609635017E+02  0.10399057809E+03  0.00000000000E+00 0.  1.
<mgrwt>
<rscale>  0 0.12434439E+04</rscale>
<asrwt>0</asrwt>
<pdfrwt beam="1">  1        2 0.17308103E+00 0.12434439E+04</pdfrwt>
<pdfrwt beam="2">  1       -1 0.52858671E-01 0.12434439E+04</pdfrwt>
<totfact> 0.85103323E+01</totfact>
</mgrwt>
</event>
<event>
12    6  0.1538774E-007  0.1169047E+04  0.7818608E-02  0.9140390E-01
          2   -1    0    0  501    0  0.00000000000E+00  0.00000000000E+00  0.29879483653E+04  0.29879483653E+04  0.00000000000E+00 0. -1.
         -1   -1    0    0    0  501 -0.00000000000E+00 -0.00000000000E+00 -0.11434857883E+03  0.11434857883E+03  0.00000000000E+00 0.  1.
         24    2    1    2    0    0  0.50964947422E+02 -0.20401863103E+03  0.67451183713E+03  0.71102181909E+03  0.79779578363E+02 0.  0.
        254    2    1    2    0    0 -0.50964947422E+02  0.20401863103E+03  0.21990879493E+04  0.23912751250E+04  0.91541678323E+03 0.  0.
         23    2    4    4    0    0  0.16427995615E+03  0.49918832821E+03  0.15707688830E+04  0.16587779083E+04  0.89735022449E+02 0.  0.
         23    2    4    4    0    0 -0.21524490357E+03 -0.29516969718E+03  0.62831906637E+03  0.73249721676E+03  0.91169099813E+02 0.  0.
          4    1    3    3  502    0  0.64686282876E+02 -0.16831620815E+03  0.47926917793E+03  0.51206797013E+03  0.00000000000E+00 0. -1.
         -3    1    3    3    0  502 -0.13721335454E+02 -0.35702422886E+02  0.19524265920E+03  0.19895384896E+03  0.00000000000E+00 0.  1.
         11    1    5    5    0    0  0.73636006599E+02  0.16965835642E+03  0.43456232003E+03  0.47228236190E+03  0.00000000000E+00 0. -1.
        -11    1    5    5    0    0  0.90643949550E+02  0.32952997179E+03  0.11362065629E+04  0.11864955464E+04  0.00000000000E+00 0.  1.
          1    1    6    6  503    0  0.71762183758E+00 -0.41741131091E+02  0.49620611650E+02  0.64846296011E+02  0.00000000000E+00 0. -1.
         -1    1    6    6    0  503 -0.21596252541E+03 -0.25342856609E+03  0.57869845472E+03  0.66765092075E+03  0.00000000000E+00 0.  1.
<mgrwt>
<rscale>  0 0.11690469E+04</rscale>
<asrwt>0</asrwt>
<pdfrwt beam="1">  1        2 0.45968431E+00 0.11690469E+04</pdfrwt>
<pdfrwt beam="2">  1       -1 0.17592091E-01 0.11690469E+04</pdfrwt>
<totfact> 0.51317704E+01</totfact>
</mgrwt>
</event>
<event>
12    6  0.1538774E-007  0.1994772E+04  0.7818608E-02  0.8609069E-01
         -3   -1    0    0    0  501 -0.00000000000E+00  0.00000000000E+00  0.11196192004E+04  0.11196192004E+04  0.00000000000E+00 0.  1.
          2   -1    0    0  501    0  0.00000000000E+00 -0.00000000000E+00 -0.88849792073E+03  0.88849792073E+03  0.00000000000E+00 0. -1.
         24    2    1    2    0    0  0.25544668147E+03 -0.67062789283E+03  0.41340246283E+03  0.83187411779E+03  0.78218756534E+02 0.  0.
        254    2    1    2    0    0 -0.25544668147E+03  0.67062789283E+03 -0.18228118313E+03  0.11762430034E+04  0.91396192237E+03 0.  0.
         23    2    4    4    0    0  0.11779977913E+02  0.16008060939E+02  0.30076179624E+03  0.31492676089E+03  0.91247908230E+02 0.  0.
         23    2    4    4    0    0 -0.26722665938E+03  0.65461983189E+03 -0.48304297936E+03  0.86131624247E+03  0.92725065923E+02 0.  0.
          2    1    3    3  502    0  0.13769138135E+03 -0.25676515094E+03  0.17741866111E+03  0.34112261806E+03  0.00000000000E+00 0. -1.
         -1    1    3    3    0  502  0.11775530011E+03 -0.41386274188E+03  0.23598380172E+03  0.49075149974E+03  0.00000000000E+00 0.  1.
         11    1    5    5    0    0  0.44615330909E+02  0.12840870185E+02  0.86791617719E+02  0.98428657441E+02  0.00000000000E+00 0. -1.
        -11    1    5    5    0    0 -0.32835352996E+02  0.31671907539E+01  0.21397017852E+03  0.21649810345E+03  0.00000000000E+00 0.  1.
          3    1    6    6  503    0 -0.25908626034E+03  0.63476450271E+03 -0.44415354861E+03  0.81689903840E+03  0.00000000000E+00 0. -1.
         -3    1    6    6    0  503 -0.81403990433E+01  0.19855329176E+02 -0.38889430750E+02  0.44417204069E+02  0.00000000000E+00 0.  1.
<mgrwt>
<rscale>  0 0.19947725E+04</rscale>
<asrwt>0</asrwt>
<pdfrwt beam="1">  1        2 0.13669199E+00 0.19947725E+04</pdfrwt>
<pdfrwt beam="2">  1       -3 0.17224911E+00 0.19947725E+04</pdfrwt>
<totfact> 0.39005138E+00</totfact>
</mgrwt>
</event>
<event>
12    6  0.1538774E-007  0.2063480E+04  0.7818608E-02  0.8577504E-01
          2   -1    0    0  501    0  0.00000000000E+00  0.00000000000E+00  0.15245751302E+04  0.15245751302E+04  0.00000000000E+00 0. -1.
         -1   -1    0    0    0  501 -0.00000000000E+00 -0.00000000000E+00 -0.69821912648E+03  0.69821912648E+03  0.00000000000E+00 0.  1.
         24    2    1    2    0    0 -0.66642156497E+03 -0.24072776309E+03  0.82108118299E+03  0.10878438722E+04  0.84631099301E+02 0.  0.
        254    2    1    2    0    0  0.66642156497E+03  0.24072776309E+03  0.52748206856E+01  0.11349503845E+04  0.88657599409E+03 0.  0.
         23    2    4    4    0    0  0.77592009643E+03  0.12832274663E+03 -0.24169701840E+03  0.82818685958E+03  0.94643025722E+02 0.  0.
         23    2    4    4    0    0 -0.10949853147E+03  0.11240501645E+03  0.24697183908E+03  0.30676352489E+03  0.92108386094E+02 0.  0.
          4    1    3    3  502    0 -0.46234466033E+03 -0.16617019414E+03  0.50752992810E+03  0.70637224341E+03  0.00000000000E+00 0. -1.
         -3    1    3    3    0  502 -0.20407690464E+03 -0.74557568943E+02  0.31355125489E+03  0.38147162875E+03  0.00000000000E+00 0.  1.
         11    1    5    5    0    0  0.69124022518E+03  0.14255292867E+03 -0.20639111895E+03  0.73534459974E+03  0.00000000000E+00 0.  1.
        -11    1    5    5    0    0  0.84679871252E+02 -0.14230182035E+02 -0.35305899450E+02  0.92842259839E+02  0.00000000000E+00 0. -1.
          4    1    6    6  503    0 -0.78252398017E+02  0.12393192380E+03  0.21759019596E+03  0.26235101088E+03  0.00000000000E+00 0. -1.
         -4    1    6    6    0  503 -0.31246133449E+02 -0.11526907347E+02  0.29381643126E+02  0.44412514017E+02  0.00000000000E+00 0.  1.
<mgrwt>
<rscale>  0 0.20634801E+04</rscale>
<asrwt>0</asrwt>
<pdfrwt beam="1">  1        2 0.23455002E+00 0.20634801E+04</pdfrwt>
<pdfrwt beam="2">  1       -1 0.10741833E+00 0.20634801E+04</pdfrwt>
<totfact> 0.10450128E+01</totfact>
</mgrwt>
</event>
<event>
12    6  0.1538774E-007  0.2198684E+04  0.7818608E-02  0.8518976E-01
         -1   -1    0    0    0  501 -0.00000000000E+00  0.00000000000E+00  0.14877750666E+04  0.14877750666E+04  0.00000000000E+00 0.  1.
          2   -1    0    0  501    0  0.00000000000E+00 -0.00000000000E+00 -0.81232245248E+03  0.81232245248E+03  0.00000000000E+00 0. -1.
         24    2    1    2    0    0  0.51286259842E+03  0.13227830440E+03  0.10017337707E+04  0.11358668599E+04  0.78723448273E+02 0.  0.
        254    2    1    2    0    0 -0.51286259842E+03 -0.13227830440E+03 -0.32628115665E+03  0.11642306592E+04  0.98409757639E+03 0.  0.
         23    2    4    4    0    0 -0.56377545100E+03 -0.43083375568E+03 -0.94876426484E+01  0.71520573441E+03  0.89267816022E+02 0.  0.
         23    2    4    4    0    0  0.50912852581E+02  0.29855545129E+03 -0.31679351400E+03  0.44902492475E+03  0.97661540421E+02 0.  0.
          4    1    3    3  502    0  0.12135709227E+02  0.17769371354E+02  0.33369251410E+02  0.39705578152E+02  0.00000000000E+00 0. -1.
         -3    1    3    3    0  502  0.50072688919E+03  0.11450893304E+03  0.96836451933E+03  0.10961612817E+04  0.00000000000E+00 0.  1.
         11    1    5    5    0    0 -0.45790557434E+03 -0.34782215587E+03 -0.42767652332E+02  0.57661671777E+03  0.00000000000E+00 0. -1.
        -11    1    5    5    0    0 -0.10586987666E+03 -0.83011599810E+02  0.33280009683E+02  0.13858901664E+03  0.00000000000E+00 0.  1.
          3    1    6    6  503    0  0.63601817234E+02  0.29881962498E+03 -0.30505185260E+03  0.43173486332E+03  0.00000000000E+00 0. -1.
         -3    1    6    6    0  503 -0.12688964652E+02 -0.26417369428E+00 -0.11741661405E+02  0.17290061429E+02  0.00000000000E+00 0.  1.
<mgrwt>
<rscale>  0 0.21986842E+04</rscale>
<asrwt>0</asrwt>
<pdfrwt beam="1">  1        2 0.12497269E+00 0.21986842E+04</pdfrwt>
<pdfrwt beam="2">  1       -1 0.22888847E+00 0.21986842E+04</pdfrwt>
<totfact> 0.33792210E+00</totfact>
</mgrwt>
</event>
<event>
12    6  0.1538774E-007  0.1688373E+04  0.7818608E-02  0.8768024E-01
         -3   -1    0    0    0  501 -0.00000000000E+00  0.00000000000E+00  0.26729764790E+03  0.26729764790E+03  0.00000000000E+00 0.  1.
          2   -1    0    0  501    0  0.00000000000E+00 -0.00000000000E+00 -0.26661316235E+04  0.26661316235E+04  0.00000000000E+00 0. -1.
         24    2    1    2    0    0 -0.30524956527E+03 -0.49959207342E+03 -0.56006616988E+03  0.81406209549E+03  0.79078718694E+02 0.  0.
        254    2    1    2    0    0  0.30524956527E+03  0.49959207342E+03 -0.18387678057E+04  0.21193671759E+04  0.87628799266E+03 0.  0.
         23    2    4    4    0    0  0.24827482471E+03  0.66069114548E+02 -0.15802983745E+04  0.16034952249E+04  0.88591577159E+02 0.  0.
         23    2    4    4    0    0  0.56974740559E+02  0.43352295887E+03 -0.25846943125E+03  0.51587195099E+03  0.90161776801E+02 0.  0.
          2    1    3    3  502    0 -0.95043160818E+01 -0.25723332616E+02 -0.52901760263E+02  0.59587063227E+02  0.00000000000E+00 0. -1.
         -1    1    3    3    0  502 -0.29574524919E+03 -0.47386874080E+03 -0.50716440961E+03  0.75447503226E+03  0.00000000000E+00 0.  1.
         11    1    5    5    0    0  0.24367256341E+03  0.77046742432E+02 -0.14245288070E+04  0.14472715159E+04  0.00000000000E+00 0. -1.
        -11    1    5    5    0    0  0.46022613013E+01 -0.10977627885E+02 -0.15576956744E+03  0.15622370903E+03  0.00000000000E+00 0.  1.
          1    1    6    6  503    0 -0.21846915398E+02  0.16866752736E+03 -0.95214942000E+02  0.19491512942E+03  0.00000000000E+00 0. -1.
         -1    1    6    6    0  503  0.78821655957E+02  0.26485543151E+03 -0.16325448925E+03  0.32095682157E+03  0.00000000000E+00 0.  1.
<mgrwt>
<rscale>  0 0.16883728E+04</rscale>
<asrwt>0</asrwt>
<pdfrwt beam="1">  1        2 0.41017411E+00 0.16883728E+04</pdfrwt>
<pdfrwt beam="2">  1       -3 0.41122714E-01 0.16883728E+04</pdfrwt>
<totfact> 0.10097432E+01</totfact>
</mgrwt>
</event>
<event>
12    6  0.1538774E-007  0.3108813E+04  0.7818608E-02  0.8213323E-01
          2   -1    0    0  501    0  0.00000000000E+00  0.00000000000E+00  0.15718319867E+04  0.15718319867E+04  0.00000000000E+00 0. -1.
         -1   -1    0    0    0  501 -0.00000000000E+00 -0.00000000000E+00 -0.15371744292E+04  0.15371744292E+04  0.00000000000E+00 0.  1.
         24    2    1    2    0    0 -0.10467176540E+04 -0.52700060837E+03  0.81577994525E+03  0.14301076407E+04  0.79771275441E+02 0.  0.
        254    2    1    2    0    0  0.10467176540E+04  0.52700060837E+03 -0.78112238777E+03  0.16788987753E+04  0.91389355215E+03 0.  0.
         23    2    4    4    0    0  0.32061426936E+03 -0.19886006646E+03 -0.41232904864E+01  0.38806885141E+03  0.90783237213E+02 0.  0.
         23    2    4    4    0    0  0.72610338464E+03  0.72586067483E+03 -0.77699909728E+03  0.12908299239E+04  0.91730315754E+02 0.  0.
          2    1    3    3  502    0 -0.98564816039E+03 -0.48944908169E+03  0.78661859547E+03  0.13527126503E+04  0.00000000000E+00 0. -1.
         -1    1    3    3    0  502 -0.61069493609E+02 -0.37551526685E+02  0.29161349779E+02  0.77394990322E+02  0.00000000000E+00 0.  1.
         11    1    5    5    0    0  0.82716467267E+02 -0.97584005528E+02 -0.17761126728E+02  0.12915149908E+03  0.00000000000E+00 0. -1.
        -11    1    5    5    0    0  0.23789780210E+03 -0.10127606093E+03  0.13637836241E+02  0.25891735233E+03  0.00000000000E+00 0.  1.
          3    1    6    6  503    0  0.26551577315E+03  0.27331023549E+03 -0.23406851131E+03  0.44719702437E+03  0.00000000000E+00 0. -1.
         -3    1    6    6    0  503  0.46058761149E+03  0.45255043934E+03 -0.54293058597E+03  0.84363289954E+03  0.00000000000E+00 0.  1.
<mgrwt>
<rscale>  0 0.31088132E+04</rscale>
<asrwt>0</asrwt>
<pdfrwt beam="1">  1        2 0.24182031E+00 0.31088132E+04</pdfrwt>
<pdfrwt beam="2">  1       -1 0.23648837E+00 0.31088132E+04</pdfrwt>
<totfact> 0.95512609E-01</totfact>
</mgrwt>
</event>
<event>
12    6  0.1538774E-007  0.1911581E+04  0.7818608E-02  0.8649113E-01
          2   -1    0    0  501    0  0.00000000000E+00  0.00000000000E+00  0.99324039029E+03  0.99324039029E+03  0.00000000000E+00 0. -1.
         -1   -1    0    0    0  501 -0.00000000000E+00 -0.00000000000E+00 -0.91975305091E+03  0.91975305091E+03  0.00000000000E+00 0.  1.
         24    2    1    2    0    0 -0.59953539132E+02 -0.37095113997E+01  0.75933844682E+03  0.76377696539E+03  0.56144355963E+02 0.  0.
        254    2    1    2    0    0  0.59953539132E+02  0.37095113997E+01 -0.68585110745E+03  0.11492164758E+04  0.92016225709E+03 0.  0.
         23    2    4    4    0    0 -0.38099125391E+03 -0.17970506396E+03 -0.38582779486E+03  0.57833477709E+03  0.90331509097E+02 0.  0.
         23    2    4    4    0    0  0.44094479305E+03  0.18341457536E+03 -0.30002331259E+03  0.57088169873E+03  0.88423463359E+02 0.  0.
          2    1    3    3  502    0 -0.26987159360E+02  0.13819728427E+02  0.56921943995E+03  0.57002636999E+03  0.00000000000E+00 0. -1.
         -1    1    3    3    0  502 -0.32966379772E+02 -0.17529239827E+02  0.19011900687E+03  0.19375059540E+03  0.00000000000E+00 0.  1.
         11    1    5    5    0    0 -0.25455624086E+03 -0.15221585352E+03 -0.22711483462E+03  0.37356350722E+03  0.00000000000E+00 0. -1.
        -11    1    5    5    0    0 -0.12643501305E+03 -0.27489210442E+02 -0.15871296023E+03  0.20477126987E+03  0.00000000000E+00 0.  1.
          4    1    6    6  503    0  0.29281694901E+03  0.16366785365E+03 -0.22245614136E+03  0.40251169768E+03  0.00000000000E+00 0. -1.
         -4    1    6    6    0  503  0.14812784404E+03  0.19746721713E+02 -0.77567171231E+02  0.16837000104E+03  0.00000000000E+00 0.  1.
<mgrwt>
<rscale>  0 0.19115814E+04</rscale>
<asrwt>0</asrwt>
<pdfrwt beam="1">  1        2 0.15280621E+00 0.19115814E+04</pdfrwt>
<pdfrwt beam="2">  1       -1 0.14150047E+00 0.19115814E+04</pdfrwt>
<totfact> 0.11070398E+01</totfact>
</mgrwt>
</event>
<event>
12    6  0.1538774E-007  0.1482059E+04  0.7818608E-02  0.8896472E-01
          2   -1    0    0  501    0  0.00000000000E+00  0.00000000000E+00  0.37674944107E+03  0.37674944107E+03  0.00000000000E+00 0. -1.
         -1   -1    0    0    0  501 -0.00000000000E+00 -0.00000000000E+00 -0.14575324960E+04  0.14575324960E+04  0.00000000000E+00 0.  1.
         24    2    1    2    0    0 -0.10751617814E+03  0.30398399775E+03 -0.77819020036E+03  0.84607121351E+03  0.79312741442E+02 0.  0.
        254    2    1    2    0    0  0.10751617814E+03 -0.30398399775E+03 -0.30259285456E+03  0.98821072353E+03  0.88376014791E+03 0.  0.
         23    2    4    4    0    0  0.36148186040E+03  0.14514544391E+03 -0.41387236030E+02  0.40204099286E+03  0.90486028478E+02 0.  0.
         23    2    4    4    0    0 -0.25396568225E+03 -0.44912944166E+03 -0.26120561853E+03  0.58616973068E+03  0.95659578105E+02 0.  0.
          2    1    3    3  502    0 -0.33682234401E+01  0.12432625136E+03 -0.28765700673E+03  0.31339258961E+03  0.00000000000E+00 0. -1.
         -1    1    3    3    0  502 -0.10414795470E+03  0.17965774640E+03 -0.49053319363E+03  0.53267862390E+03  0.00000000000E+00 0.  1.
         11    1    5    5    0    0  0.69832927951E+02 -0.51560738209E+00  0.14393823431E+02  0.71302775753E+02  0.00000000000E+00 0. -1.
        -11    1    5    5    0    0  0.29164893244E+03  0.14566105129E+03 -0.55781059460E+02  0.33073821710E+03  0.00000000000E+00 0.  1.
          1    1    6    6  503    0 -0.51011833830E+02 -0.85177634794E+02 -0.10465519843E+02  0.99834682177E+02  0.00000000000E+00 0. -1.
         -1    1    6    6    0  503 -0.20295384842E+03 -0.36395180687E+03 -0.25074009869E+03  0.48633504850E+03  0.00000000000E+00 0.  1.
<mgrwt>
<rscale>  0 0.14820588E+04</rscale>
<asrwt>0</asrwt>
<pdfrwt beam="1">  1        2 0.57961452E-01 0.14820588E+04</pdfrwt>
<pdfrwt beam="2">  1       -1 0.22423577E+00 0.14820588E+04</pdfrwt>
<totfact> 0.97115446E+00</totfact>
</mgrwt>
</event>
<event>
12    6  0.1538774E-007  0.1339186E+04  0.7818608E-02  0.8999055E-01
         -1   -1    0    0    0  501 -0.00000000000E+00  0.00000000000E+00  0.29078614035E+03  0.29078614035E+03  0.00000000000E+00 0.  1.
          2   -1    0    0  501    0  0.00000000000E+00 -0.00000000000E+00 -0.15418704181E+04  0.15418704181E+04  0.00000000000E+00 0. -1.
         24    2    1    2    0    0  0.28963452934E+03  0.13497679994E+03 -0.11149298109E+03  0.34802825495E+03  0.81154693654E+02 0.  0.
        254    2    1    2    0    0 -0.28963452934E+03 -0.13497679994E+03 -0.11395912966E+04  0.14846283035E+04  0.89629569841E+03 0.  0.
         23    2    4    4    0    0 -0.51797992149E+03 -0.11664518434E+03 -0.31748000027E+03  0.62627086030E+03  0.97531234971E+02 0.  0.
         23    2    4    4    0    0  0.22834539215E+03 -0.18331615602E+02 -0.82211129636E+03  0.85835744317E+03  0.91830552632E+02 0.  0.
          4    1    3    3  502    0  0.43683691925E+02  0.25717663209E+02 -0.51566066659E+02  0.72309905074E+02  0.00000000000E+00 0. -1.
         -3    1    3    3    0  502  0.24595083742E+03  0.10925913673E+03 -0.59926914431E+02  0.27571834988E+03  0.00000000000E+00 0.  1.
         11    1    5    5    0    0 -0.35859409726E+03 -0.33853247271E+02 -0.21543909788E+03  0.41970200600E+03  0.00000000000E+00 0. -1.
        -11    1    5    5    0    0 -0.15938582422E+03 -0.82791937068E+02 -0.10204090240E+03  0.20656885431E+03  0.00000000000E+00 0.  1.
          4    1    6    6  503    0  0.23091115873E+03 -0.11784748308E+02 -0.72463496235E+03  0.76062781449E+03  0.00000000000E+00 0. -1.
         -4    1    6    6    0  503 -0.25657665818E+01 -0.65468672941E+01 -0.97476334013E+02  0.97729628681E+02  0.00000000000E+00 0.  1.
<mgrwt>
<rscale>  0 0.13391856E+04</rscale>
<asrwt>0</asrwt>
<pdfrwt beam="1">  1        2 0.23721084E+00 0.13391856E+04</pdfrwt>
<pdfrwt beam="2">  1       -1 0.44736328E-01 0.13391856E+04</pdfrwt>
<totfact> 0.66288150E+01</totfact>
</mgrwt>
</event>
<event>
12    6  0.1538774E-007  0.1224561E+04  0.7818608E-02  0.9091625E-01
          2   -1    0    0  501    0  0.00000000000E+00  0.00000000000E+00  0.13243239978E+04  0.13243239978E+04  0.00000000000E+00 0. -1.
         -1   -1    0    0    0  501 -0.00000000000E+00 -0.00000000000E+00 -0.28307854534E+03  0.28307854534E+03  0.00000000000E+00 0.  1.
         24    2    1    2    0    0 -0.21231828868E+03  0.62376179679E+02  0.46057247338E+03  0.51692804803E+03  0.78216111585E+02 0.  0.
        254    2    1    2    0    0  0.21231828868E+03 -0.62376179679E+02  0.58067297903E+03  0.10904744951E+04  0.89609356224E+03 0.  0.
         23    2    4    4    0    0  0.32658398195E+02  0.35907259462E+03  0.37197005152E+02  0.37379403882E+03  0.91316302402E+02 0.  0.
         23    2    4    4    0    0  0.17965989048E+03 -0.42144877430E+03  0.54347597388E+03  0.71668045624E+03  0.91476754198E+02 0.  0.
          2    1    3    3  502    0 -0.19673164775E+03  0.33739852426E+02  0.41883303701E+03  0.46396425698E+03  0.00000000000E+00 0. -1.
         -1    1    3    3    0  502 -0.15586640926E+02  0.28636327253E+02  0.41739436372E+02  0.52963791051E+02  0.00000000000E+00 0.  1.
         11    1    5    5    0    0  0.61601349935E+02  0.23915703162E+03  0.83356823789E+01  0.24710381560E+03  0.00000000000E+00 0. -1.
        -11    1    5    5    0    0 -0.28942951741E+02  0.11991556301E+03  0.28861322774E+02  0.12669022322E+03  0.00000000000E+00 0.  1.
          3    1    6    6  503    0  0.58394102187E+02 -0.16986748853E+03  0.28042662720E+03  0.33302241376E+03  0.00000000000E+00 0. -1.
         -3    1    6    6    0  503  0.12126578830E+03 -0.25158128577E+03  0.26304934668E+03  0.38365804247E+03  0.00000000000E+00 0.  1.
<mgrwt>
<rscale>  0 0.12245615E+04</rscale>
<asrwt>0</asrwt>
<pdfrwt beam="1">  1        2 0.20374215E+00 0.12245615E+04</pdfrwt>
<pdfrwt beam="2">  1       -1 0.43550546E-01 0.12245615E+04</pdfrwt>
<totfact> 0.93484818E+01</totfact>
</mgrwt>
</event>
<event>
12    6  0.1538774E-007  0.1213977E+04  0.7818608E-02  0.9100710E-01
         -1   -1    0    0    0  501 -0.00000000000E+00  0.00000000000E+00  0.72915823329E+03  0.72915823329E+03  0.00000000000E+00 0.  1.
          2   -1    0    0  501    0  0.00000000000E+00 -0.00000000000E+00 -0.50528807129E+03  0.50528807129E+03  0.00000000000E+00 0. -1.
         24    2    1    2    0    0  0.10864480921E+03  0.20761826203E+03 -0.39403979499E+02  0.25033195128E+03  0.78767854686E+02 0.  0.
        254    2    1    2    0    0 -0.10864480921E+03 -0.20761826203E+03  0.26327414149E+03  0.98411435330E+03  0.91883553996E+03 0.  0.
         23    2    4    4    0    0  0.75604549154E+02 -0.53843243121E+03  0.89826894444E+02  0.55850724820E+03  0.90752104625E+02 0.  0.
         23    2    4    4    0    0 -0.18424935836E+03  0.33081416918E+03  0.17344724705E+03  0.42560710510E+03  0.87587783458E+02 0.  0.
          2    1    3    3  502    0  0.11062356509E+03  0.20688835200E+03 -0.49707381244E+02  0.23981490174E+03  0.00000000000E+00 0. -1.
         -1    1    3    3    0  502 -0.19787558817E+01  0.72991003840E+00  0.10303401746E+02  0.10517049540E+02  0.00000000000E+00 0.  1.
         11    1    5    5    0    0 -0.16034466710E+02 -0.29877358529E+02 -0.57830083486E+00  0.33913052166E+02  0.00000000000E+00 0.  1.
        -11    1    5    5    0    0  0.91639015864E+02 -0.50855507268E+03  0.90405195279E+02  0.52459419604E+03  0.00000000000E+00 0. -1.
          4    1    6    6  503    0 -0.13333585336E+03  0.29932708647E+03  0.15799109796E+03  0.36378062279E+03  0.00000000000E+00 0. -1.
         -4    1    6    6    0  503 -0.50913505002E+02  0.31487082712E+02  0.15456149092E+02  0.61826482304E+02  0.00000000000E+00 0.  1.
<mgrwt>
<rscale>  0 0.12139769E+04</rscale>
<asrwt>0</asrwt>
<pdfrwt beam="1">  1        2 0.77736626E-01 0.12139769E+04</pdfrwt>
<pdfrwt beam="2">  1       -1 0.11217819E+00 0.12139769E+04</pdfrwt>
<totfact> 0.49978251E+01</totfact>
</mgrwt>
</event>
<event>
12    6  0.1538774E-007  0.2330149E+04  0.7818608E-02  0.8466128E-01
          2   -1    0    0  501    0  0.00000000000E+00  0.00000000000E+00  0.20123664567E+04  0.20123664567E+04  0.00000000000E+00 0. -1.
         -1   -1    0    0    0  501 -0.00000000000E+00 -0.00000000000E+00 -0.67452868847E+03  0.67452868847E+03  0.00000000000E+00 0.  1.
         24    2    1    2    0    0 -0.68506379257E+03  0.20963124966E+03  0.13584485105E+04  0.15376352466E+04  0.75379939207E+02 0.  0.
        254    2    1    2    0    0  0.68506379257E+03 -0.20963124966E+03 -0.20610742246E+02  0.11492598986E+04  0.89839626617E+03 0.  0.
         23    2    4    4    0    0  0.82543692196E+03 -0.31162306826E+02  0.15906056069E+03  0.84574765292E+03  0.87587835572E+02 0.  0.
         23    2    4    4    0    0 -0.14037312940E+03 -0.17846894283E+03 -0.17967130294E+03  0.30351224566E+03  0.91006192946E+02 0.  0.
          4    1    3    3  502    0 -0.56671843875E+03  0.16224824318E+03  0.10554532250E+04  0.12089151299E+04  0.00000000000E+00 0. -1.
         -3    1    3    3    0  502 -0.11834535382E+03  0.47383006476E+02  0.30299528547E+03  0.32872011664E+03  0.00000000000E+00 0.  1.
         11    1    5    5    0    0  0.62175474875E+03  0.14319895362E+02  0.11560413254E+03  0.63257279617E+03  0.00000000000E+00 0. -1.
        -11    1    5    5    0    0  0.20368217322E+03 -0.45482202187E+02  0.43456428148E+02  0.21317485675E+03  0.00000000000E+00 0.  1.
          1    1    6    6  503    0 -0.13930982990E+03 -0.17301999609E+03 -0.13807900900E+03  0.26155106668E+03  0.00000000000E+00 0. -1.
         -1    1    6    6    0  503 -0.10632994938E+01 -0.54489467394E+01 -0.41592293938E+02  0.41961178980E+02  0.00000000000E+00 0.  1.
<mgrwt>
<rscale>  0 0.23301493E+04</rscale>
<asrwt>0</asrwt>
<pdfrwt beam="1">  1        2 0.30959484E+00 0.23301493E+04</pdfrwt>
<pdfrwt beam="2">  1       -1 0.10377365E+00 0.23301493E+04</pdfrwt>
<totfact> 0.59217498E+00</totfact>
</mgrwt>
</event>
<event>
12    6  0.1538774E-007  0.1866662E+04  0.7818608E-02  0.8671631E-01
         -1   -1    0    0    0  501 -0.00000000000E+00  0.00000000000E+00  0.47581202441E+03  0.47581202441E+03  0.00000000000E+00 0.  1.
          2   -1    0    0  501    0  0.00000000000E+00 -0.00000000000E+00 -0.18307783778E+04  0.18307783778E+04  0.00000000000E+00 0. -1.
         24    2    1    2    0    0 -0.16932966734E+03  0.67929034553E+03 -0.49841141216E+03  0.86235935552E+03  0.71706432829E+02 0.  0.
        254    2    1    2    0    0  0.16932966734E+03 -0.67929034553E+03 -0.85655494128E+03  0.14442310467E+04  0.92844441898E+03 0.  0.
         23    2    4    4    0    0  0.23532890077E+03 -0.25749429054E+03  0.11694451061E+03  0.37827094670E+03  0.87919789318E+02 0.  0.
         23    2    4    4    0    0 -0.65999233439E+02 -0.42179605500E+03 -0.97349945188E+03  0.10659601000E+04  0.79384766888E+02 0.  0.
          4    1    3    3  502    0 -0.13880112148E+03  0.47896808208E+03 -0.38615689985E+03  0.63070859062E+03  0.00000000000E+00 0. -1.
         -3    1    3    3    0  502 -0.30528545851E+02  0.20032226345E+03 -0.11225451231E+03  0.23165076490E+03  0.00000000000E+00 0.  1.
         11    1    5    5    0    0 -0.48088853103E+01 -0.81404565843E+01  0.14385499723E+02  0.17214383916E+02  0.00000000000E+00 0.  1.
        -11    1    5    5    0    0  0.24013778608E+03 -0.24935383395E+03  0.10255901089E+03  0.36105656278E+03  0.00000000000E+00 0. -1.
          2    1    6    6  503    0 -0.35686858585E+01 -0.92788925498E+00 -0.16066634432E+00  0.36908414895E+01  0.00000000000E+00 0.  1.
         -2    1    6    6    0  503 -0.62430547581E+02 -0.42086816574E+03 -0.97333878554E+03  0.10622692585E+04  0.00000000000E+00 0. -1.
<mgrwt>
<rscale>  0 0.18666616E+04</rscale>
<asrwt>0</asrwt>
<pdfrwt beam="1">  1        2 0.28165822E+00 0.18666616E+04</pdfrwt>
<pdfrwt beam="2">  1       -1 0.73201848E-01 0.18666616E+04</pdfrwt>
<totfact> 0.16686419E+01</totfact>
</mgrwt>
</event>
<event>
12    6  0.1538774E-007  0.1800433E+04  0.7818608E-02  0.8706069E-01
         -1   -1    0    0    0  501 -0.00000000000E+00  0.00000000000E+00  0.85235196135E+03  0.85235196135E+03  0.00000000000E+00 0.  1.
          2   -1    0    0  501    0  0.00000000000E+00 -0.00000000000E+00 -0.95076907006E+03  0.95076907006E+03  0.00000000000E+00 0. -1.
         24    2    1    2    0    0  0.25814368351E+03 -0.95507327333E+02 -0.65259807940E+03  0.71275890962E+03  0.79882407937E+02 0.  0.
        254    2    1    2    0    0 -0.25814368351E+03  0.95507327333E+02  0.55418097068E+03  0.10903621218E+04  0.89778237756E+03 0.  0.
         23    2    4    4    0    0 -0.14016677955E+03 -0.33879367457E+03  0.94227083601E+01  0.37826156718E+03  0.92548072653E+02 0.  0.
         23    2    4    4    0    0 -0.11797690396E+03  0.43430100191E+03  0.54475826232E+03  0.71210055461E+03  0.88259420946E+02 0.  0.
          4    1    3    3  502    0  0.12959745328E+03 -0.89630514019E+02 -0.37665571600E+03  0.40828746899E+03  0.00000000000E+00 0. -1.
         -3    1    3    3    0  502  0.12854623022E+03 -0.58768133139E+01 -0.27594236341E+03  0.30447144063E+03  0.00000000000E+00 0.  1.
         11    1    5    5    0    0 -0.71339852270E+02 -0.23817246247E+03  0.41823554234E+02  0.25212041982E+03  0.00000000000E+00 0. -1.
        -11    1    5    5    0    0 -0.68826927279E+02 -0.10062121210E+03 -0.32400845874E+02  0.12614114736E+03  0.00000000000E+00 0.  1.
          1    1    6    6  503    0 -0.12088632561E+03  0.39844589913E+03  0.46248235214E+03  0.62230423773E+03  0.00000000000E+00 0. -1.
         -1    1    6    6    0  503  0.29094216549E+01  0.35855102777E+02  0.82275910186E+02  0.89796316887E+02  0.00000000000E+00 0.  1.
<mgrwt>
<rscale>  0 0.18004331E+04</rscale>
<asrwt>0</asrwt>
<pdfrwt beam="1">  1        2 0.14627216E+00 0.18004331E+04</pdfrwt>
<pdfrwt beam="2">  1       -1 0.13113107E+00 0.18004331E+04</pdfrwt>
<totfact> 0.14494140E+01</totfact>
</mgrwt>
</event>
<event>
12    6  0.1538774E-007  0.2046491E+04  0.7818608E-02  0.8585188E-01
          2   -1    0    0  501    0  0.00000000000E+00  0.00000000000E+00  0.85063746158E+03  0.85063746158E+03  0.00000000000E+00 0. -1.
         -1   -1    0    0    0  501 -0.00000000000E+00 -0.00000000000E+00 -0.12308781587E+04  0.12308781587E+04  0.00000000000E+00 0.  1.
         24    2    1    2    0    0  0.20951603719E+03 -0.57164930822E+03 -0.72386106540E+03  0.94932543778E+03  0.81018784210E+02 0.  0.
        254    2    1    2    0    0 -0.20951603719E+03  0.57164930822E+03  0.34362036823E+03  0.11321901825E+04  0.89056148049E+03 0.  0.
         23    2    4    4    0    0 -0.16474034322E+03 -0.25391540158E+02  0.47605882952E+03  0.51291604717E+03  0.93095388110E+02 0.  0.
         23    2    4    4    0    0 -0.44775693968E+02  0.59704084838E+03 -0.13243846128E+03  0.61927413537E+03  0.86590249465E+02 0.  0.
          4    1    3    3  502    0  0.13462245301E+03 -0.35966509272E+03 -0.39459617650E+03  0.55062539560E+03  0.00000000000E+00 0. -1.
         -3    1    3    3    0  502  0.74893584185E+02 -0.21198421550E+03 -0.32926488890E+03  0.39870004218E+03  0.00000000000E+00 0.  1.
         11    1    5    5    0    0 -0.34052361716E+02  0.23728171167E+00  0.23553129141E+03  0.23798026993E+03  0.00000000000E+00 0.  1.
        -11    1    5    5    0    0 -0.13068798151E+03 -0.25628821869E+02  0.24052753810E+03  0.27493577724E+03  0.00000000000E+00 0. -1.
          2    1    6    6  503    0  0.75942710870E+01  0.39607304423E+03 -0.68902654165E+02  0.40209340342E+03  0.00000000000E+00 0. -1.
         -2    1    6    6    0  503 -0.52369965055E+02  0.20096780415E+03 -0.63535807119E+02  0.21718073195E+03  0.00000000000E+00 0.  1.
<mgrwt>
<rscale>  0 0.20464907E+04</rscale>
<asrwt>0</asrwt>
<pdfrwt beam="1">  1        2 0.13086730E+00 0.20464907E+04</pdfrwt>
<pdfrwt beam="2">  1       -1 0.18936587E+00 0.20464907E+04</pdfrwt>
<totfact> 0.59775309E+00</totfact>
</mgrwt>
</event>
<event>
12    6  0.1538774E-007  0.1801373E+04  0.7818608E-02  0.8705570E-01
         -1   -1    0    0    0  501 -0.00000000000E+00  0.00000000000E+00  0.33194534775E+03  0.33194534775E+03  0.00000000000E+00 0.  1.
          2   -1    0    0  501    0  0.00000000000E+00 -0.00000000000E+00 -0.24438843074E+04  0.24438843074E+04  0.00000000000E+00 0. -1.
         24    2    1    2    0    0  0.66975971417E+02  0.64638752460E+03 -0.10163002823E+04  0.12089445503E+04  0.79862689461E+02 0.  0.
        254    2    1    2    0    0 -0.66975971417E+02 -0.64638752460E+03 -0.10956386773E+04  0.15668851048E+04  0.91236078818E+03 0.  0.
         23    2    4    4    0    0 -0.29882985459E+03 -0.65333884157E+03 -0.11001557380E+04  0.13171465069E+04  0.91549707264E+02 0.  0.
         23    2    4    4    0    0  0.23185388317E+03  0.69513169610E+01  0.45170606875E+01  0.24973859793E+03  0.92436029276E+02 0.  0.
          2    1    3    3  502    0  0.83778277547E+01  0.27738643486E+03 -0.49657571985E+03  0.56885926888E+03  0.00000000000E+00 0. -1.
         -1    1    3    3    0  502  0.58598143662E+02  0.36900108974E+03 -0.51972456248E+03  0.64008528144E+03  0.00000000000E+00 0.  1.
         11    1    5    5    0    0 -0.17819190938E+03 -0.48516392988E+03 -0.80567295273E+03  0.95720703204E+03  0.00000000000E+00 0.  1.
        -11    1    5    5    0    0 -0.12063794521E+03 -0.16817491168E+03 -0.29448278529E+03  0.35993947488E+03  0.00000000000E+00 0. -1.
          1    1    6    6  503    0  0.11733621607E+03  0.43106382134E+01 -0.43933111360E+02  0.12536541579E+03  0.00000000000E+00 0. -1.
         -1    1    6    6    0  503  0.11451766710E+03  0.26406787476E+01  0.48450172047E+02  0.12437318214E+03  0.00000000000E+00 0.  1.
<mgrwt>
<rscale>  0 0.18013728E+04</rscale>
<asrwt>0</asrwt>
<pdfrwt beam="1">  1        2 0.37598219E+00 0.18013728E+04</pdfrwt>
<pdfrwt beam="2">  1       -1 0.51068516E-01 0.18013728E+04</pdfrwt>
<totfact> 0.15557336E+01</totfact>
</mgrwt>
</event>
<event>
12    6  0.1538774E-007  0.1562357E+04  0.7818608E-02  0.8844013E-01
         -1   -1    0    0    0  501 -0.00000000000E+00  0.00000000000E+00  0.87558320695E+03  0.87558320695E+03  0.00000000000E+00 0.  1.
          2   -1    0    0  501    0  0.00000000000E+00 -0.00000000000E+00 -0.69695200681E+03  0.69695200681E+03  0.00000000000E+00 0. -1.
         24    2    1    2    0    0 -0.17351592163E+03  0.45839432972E+03 -0.11541225555E+03  0.50971931510E+03  0.79124300145E+02 0.  0.
        254    2    1    2    0    0  0.17351592163E+03 -0.45839432972E+03  0.29404345569E+03  0.10628158987E+04  0.89603735638E+03 0.  0.
         23    2    4    4    0    0  0.30610931021E+02 -0.29055031376E+03  0.59971753063E+03  0.67418581012E+03  0.97513466246E+02 0.  0.
         23    2    4    4    0    0  0.14290499061E+03 -0.16784401597E+03 -0.30567407494E+03  0.38863008854E+03  0.94885486733E+02 0.  0.
          4    1    3    3  502    0 -0.13494604527E+03  0.37848637604E+03 -0.12413693456E+03  0.42056194610E+03  0.00000000000E+00 0. -1.
         -3    1    3    3    0  502 -0.38569876356E+02  0.79907953678E+02  0.87246790065E+01  0.89157368999E+02  0.00000000000E+00 0.  1.
         11    1    5    5    0    0  0.48068422231E+02 -0.61639890421E+02  0.14051186756E+03  0.16079065343E+03  0.00000000000E+00 0.  1.
        -11    1    5    5    0    0 -0.17457491210E+02 -0.22891042333E+03  0.45920566308E+03  0.51339515669E+03  0.00000000000E+00 0. -1.
          3    1    6    6  503    0  0.11761418616E+03 -0.11953343357E+03 -0.28427604358E+03  0.33005182544E+03  0.00000000000E+00 0. -1.
         -3    1    6    6    0  503  0.25290804452E+02 -0.48310582397E+02 -0.21398031362E+02  0.58578263098E+02  0.00000000000E+00 0.  1.
<mgrwt>
<rscale>  0 0.15623565E+04</rscale>
<asrwt>0</asrwt>
<pdfrwt beam="1">  1        2 0.10722339E+00 0.15623565E+04</pdfrwt>
<pdfrwt beam="2">  1       -1 0.13470511E+00 0.15623565E+04</pdfrwt>
<totfact> 0.20966529E+01</totfact>
</mgrwt>
</event>
<event>
12    6  0.1538774E-007  0.2039082E+04  0.7818608E-02  0.8588564E-01
         -1   -1    0    0    0  501 -0.00000000000E+00  0.00000000000E+00  0.44452411116E+03  0.44452411116E+03  0.00000000000E+00 0.  1.
          2   -1    0    0  501    0  0.00000000000E+00 -0.00000000000E+00 -0.23383738531E+04  0.23383738531E+04  0.00000000000E+00 0. -1.
         24    2    1    2    0    0 -0.81400976242E+03 -0.71843073411E+01 -0.90840956613E+03  0.12223729478E+04  0.79524687858E+02 0.  0.
        254    2    1    2    0    0  0.81400976242E+03  0.71843073411E+01 -0.98544017580E+03  0.15605250165E+04  0.89525553862E+03 0.  0.
         23    2    4    4    0    0  0.71499122190E+03  0.22974632094E+03 -0.27697133630E+03  0.80578496060E+03  0.92630784424E+02 0.  0.
         23    2    4    4    0    0  0.99018540526E+02 -0.22256201360E+03 -0.70846883950E+03  0.75474005589E+03  0.91465480738E+02 0.  0.
          4    1    3    3  502    0 -0.51383238932E+02  0.18884324040E+02 -0.56098041533E+02  0.78382684321E+02  0.00000000000E+00 0. -1.
         -3    1    3    3    0  502 -0.76262652349E+03 -0.26068631381E+02 -0.85231152460E+03  0.11439902634E+04  0.00000000000E+00 0.  1.
         11    1    5    5    0    0  0.40603980187E+03  0.17053966382E+03 -0.13473369431E+03  0.46054887474E+03  0.00000000000E+00 0. -1.
        -11    1    5    5    0    0  0.30895142003E+03  0.59206657120E+02 -0.14223764199E+03  0.34523608586E+03  0.00000000000E+00 0.  1.
          1    1    6    6  503    0  0.10019107165E+03 -0.22891281259E+03 -0.65781161538E+03  0.70367282734E+03  0.00000000000E+00 0. -1.
         -1    1    6    6    0  503 -0.11725311277E+01  0.63507989882E+01 -0.50657224119E+02  0.51067228556E+02  0.00000000000E+00 0.  1.
<mgrwt>
<rscale>  0 0.20390817E+04</rscale>
<asrwt>0</asrwt>
<pdfrwt beam="1">  1        2 0.35974983E+00 0.20390817E+04</pdfrwt>
<pdfrwt beam="2">  1       -1 0.68388323E-01 0.20390817E+04</pdfrwt>
<totfact> 0.98382974E+00</totfact>
</mgrwt>
</event>
<event>
12    6  0.1538774E-007  0.2646848E+04  0.7818608E-02  0.8352460E-01
         -1   -1    0    0    0  501 -0.00000000000E+00  0.00000000000E+00  0.75416908703E+03  0.75416908703E+03  0.00000000000E+00 0.  1.
          2   -1    0    0  501    0  0.00000000000E+00 -0.00000000000E+00 -0.23223595014E+04  0.23223595014E+04  0.00000000000E+00 0. -1.
         24    2    1    2    0    0 -0.45668090503E+03  0.11724002026E+02 -0.19431686392E+04  0.19976329357E+04  0.77058965873E+02 0.  0.
        254    2    1    2    0    0  0.45668090503E+03 -0.11724002026E+02  0.37497822484E+03  0.10788956527E+04  0.90261412526E+03 0.  0.
         23    2    4    4    0    0 -0.94091718550E+02  0.20453526364E+03 -0.14792474789E+03  0.28411154142E+03  0.90275751771E+02 0.  0.
         23    2    4    4    0    0  0.55077262358E+03 -0.21625926567E+03  0.52290297273E+03  0.79478411130E+03  0.90198180787E+02 0.  0.
          4    1    3    3  502    0 -0.34850794581E+03  0.28160507531E+02 -0.15858878457E+04  0.16239738488E+04  0.00000000000E+00 0. -1.
         -3    1    3    3    0  502 -0.10817295922E+03 -0.16436505505E+02 -0.35728079349E+03  0.37365908689E+03  0.00000000000E+00 0.  1.
         11    1    5    5    0    0  0.37511047405E+00 -0.22902919545E+01  0.80501726443E+01  0.83780322694E+01  0.00000000000E+00 0.  1.
        -11    1    5    5    0    0 -0.94466829024E+02  0.20682555560E+03 -0.15597492053E+03  0.27573350915E+03  0.00000000000E+00 0. -1.
          4    1    6    6  503    0  0.23415275057E+03 -0.10889485789E+03  0.17296709217E+03  0.31081057840E+03  0.00000000000E+00 0. -1.
         -4    1    6    6    0  503  0.31661987301E+03 -0.10736440778E+03  0.34993588056E+03  0.48397353290E+03  0.00000000000E+00 0.  1.
<mgrwt>
<rscale>  0 0.26468485E+04</rscale>
<asrwt>0</asrwt>
<pdfrwt beam="1">  1        2 0.35728607E+00 0.26468485E+04</pdfrwt>
<pdfrwt beam="2">  1       -1 0.11602601E+00 0.26468485E+04</pdfrwt>
<totfact> 0.29638789E+00</totfact>
</mgrwt>
</event>
<event>
12    6  0.1538774E-007  0.1897055E+04  0.7818608E-02  0.8656323E-01
         -3   -1    0    0    0  501 -0.00000000000E+00  0.00000000000E+00  0.38594488688E+03  0.38594488688E+03  0.00000000000E+00 0.  1.
          2   -1    0    0  501    0  0.00000000000E+00 -0.00000000000E+00 -0.23311743083E+04  0.23311743083E+04  0.00000000000E+00 0. -1.
         24    2    1    2    0    0  0.20949021021E+03 -0.50173619072E+03 -0.63465353252E+02  0.55315424585E+03  0.79538766592E+02 0.  0.
        254    2    1    2    0    0 -0.20949021021E+03  0.50173619072E+03 -0.18817640682E+04  0.21639649494E+04  0.91982766889E+03 0.  0.
         23    2    4    4    0    0  0.27482808702E+03 -0.79088536588E+02 -0.42867686988E+03  0.52334693863E+03  0.91338301784E+02 0.  0.
         23    2    4    4    0    0 -0.48431829723E+03  0.58082472730E+03 -0.14530871983E+04  0.16406180107E+04  0.90793580865E+02 0.  0.
          4    1    3    3  502    0  0.51741786245E+02 -0.60845427676E+02 -0.23159064629E+02  0.83160812812E+02  0.00000000000E+00 0. -1.
         -3    1    3    3    0  502  0.15774842396E+03 -0.44089076304E+03 -0.40306288622E+02  0.46999343304E+03  0.00000000000E+00 0.  1.
         11    1    5    5    0    0  0.13311051246E+03 -0.39102163978E+02 -0.28811618521E+03  0.31977855453E+03  0.00000000000E+00 0. -1.
        -11    1    5    5    0    0  0.14171757456E+03 -0.39986372610E+02 -0.14056068467E+03  0.20356838411E+03  0.00000000000E+00 0.  1.
          1    1    6    6  503    0 -0.18359994717E+03  0.28630144266E+03 -0.61584930506E+03  0.70352528257E+03  0.00000000000E+00 0. -1.
         -1    1    6    6    0  503 -0.30071835005E+03  0.29452328464E+03 -0.83723789327E+03  0.93709272817E+03  0.00000000000E+00 0.  1.
<mgrwt>
<rscale>  0 0.18970554E+04</rscale>
<asrwt>0</asrwt>
<pdfrwt beam="1">  1        2 0.35864221E+00 0.18970554E+04</pdfrwt>
<pdfrwt beam="2">  1       -3 0.59376135E-01 0.18970554E+04</pdfrwt>
<totfact> 0.72729339E+00</totfact>
</mgrwt>
</event>
<event>
12    6  0.1538774E-007  0.2040326E+04  0.7818608E-02  0.8587996E-01
          2   -1    0    0  501    0  0.00000000000E+00  0.00000000000E+00  0.29001958205E+04  0.29001958205E+04  0.00000000000E+00 0. -1.
         -3   -1    0    0    0  501 -0.00000000000E+00 -0.00000000000E+00 -0.35884913874E+03  0.35884913874E+03  0.00000000000E+00 0.  1.
         24    2    1    2    0    0  0.55537496575E+03  0.15212023473E+03  0.92587084287E+02  0.58867818187E+03  0.79923183303E+02 0.  0.
        254    2    1    2    0    0 -0.55537496575E+03 -0.15212023473E+03  0.24487595975E+04  0.26703667774E+04  0.89602078161E+03 0.  0.
         23    2    4    4    0    0 -0.15894419908E+03 -0.44466796992E+03  0.68700593093E+03  0.83873983837E+03  0.92274077834E+02 0.  0.
         23    2    4    4    0    0 -0.39643076668E+03  0.29254773519E+03  0.17617536666E+04  0.18316269390E+04  0.91322133010E+02 0.  0.
          2    1    3    3  502    0  0.22218898649E+03  0.85200332999E+02  0.62671175109E+01  0.23804688450E+03  0.00000000000E+00 0. -1.
         -1    1    3    3    0  502  0.33318597926E+03  0.66919901731E+02  0.86319966777E+02  0.35063129736E+03  0.00000000000E+00 0.  1.
         11    1    5    5    0    0 -0.74035813848E+02 -0.24052266282E+03  0.28710590549E+03  0.38178823191E+03  0.00000000000E+00 0. -1.
        -11    1    5    5    0    0 -0.84908385228E+02 -0.20414530710E+03  0.39990002544E+03  0.45695160645E+03  0.00000000000E+00 0.  1.
          2    1    6    6  503    0 -0.45282168618E+02  0.70319694311E+02  0.24016649084E+03  0.25431334516E+03  0.00000000000E+00 0.  1.
         -2    1    6    6    0  503 -0.35114859806E+03  0.22222804088E+03  0.15215871757E+04  0.15773135939E+04  0.00000000000E+00 0. -1.
<mgrwt>
<rscale>  0 0.20403262E+04</rscale>
<asrwt>0</asrwt>
<pdfrwt beam="1">  1        2 0.44618396E+00 0.20403262E+04</pdfrwt>
<pdfrwt beam="2">  1       -3 0.55207562E-01 0.20403262E+04</pdfrwt>
<totfact> 0.38816398E+00</totfact>
</mgrwt>
</event>
<event>
12    6  0.1538774E-007  0.3169970E+04  0.7818608E-02  0.8196793E-01
         -1   -1    0    0    0  501 -0.00000000000E+00  0.00000000000E+00  0.24034657147E+04  0.24034657147E+04  0.00000000000E+00 0.  1.
          2   -1    0    0  501    0  0.00000000000E+00 -0.00000000000E+00 -0.10452315444E+04  0.10452315444E+04  0.00000000000E+00 0. -1.
         24    2    1    2    0    0 -0.10288453027E+04 -0.97786828056E+03  0.26579550833E+03  0.14463007682E+04  0.79935153736E+02 0.  0.
        254    2    1    2    0    0  0.10288453027E+04  0.97786828056E+03  0.10924386620E+04  0.20023964908E+04  0.89522089194E+03 0.  0.
         23    2    4    4    0    0  0.78826275753E+03  0.27316522776E+03  0.89522670320E+03  0.12269966145E+04  0.90069002631E+02 0.  0.
         23    2    4    4    0    0  0.24058254517E+03  0.70470305280E+03  0.19721195875E+03  0.77539987636E+03  0.88690799543E+02 0.  0.
          4    1    3    3  502    0 -0.80084565661E+03 -0.72964319795E+03  0.17698045357E+03  0.10977499911E+04  0.00000000000E+00 0. -1.
         -3    1    3    3    0  502 -0.22799964609E+03 -0.24822508261E+03  0.88815054757E+02  0.34855077708E+03  0.00000000000E+00 0.  1.
         11    1    5    5    0    0  0.67675817389E+03  0.20971273696E+03  0.78906661568E+03  0.10604749794E+04  0.00000000000E+00 0. -1.
        -11    1    5    5    0    0  0.11150458364E+03  0.63452490805E+02  0.10616008752E+03  0.16652163507E+03  0.00000000000E+00 0.  1.
          3    1    6    6  503    0  0.22244918184E+03  0.53749114939E+03  0.15411422605E+03  0.60177368574E+03  0.00000000000E+00 0. -1.
         -3    1    6    6    0  503  0.18133363330E+02  0.16721190341E+03  0.43097732701E+02  0.17362619062E+03  0.00000000000E+00 0.  1.
<mgrwt>
<rscale>  0 0.31699705E+04</rscale>
<asrwt>0</asrwt>
<pdfrwt beam="1">  1        2 0.16080485E+00 0.31699705E+04</pdfrwt>
<pdfrwt beam="2">  1       -1 0.36976396E+00 0.31699705E+04</pdfrwt>
<totfact> 0.25986479E-01</totfact>
</mgrwt>
</event>
<event>
12    6  0.1538774E-007  0.1378294E+04  0.7818608E-02  0.8969682E-01
         -1   -1    0    0    0  501 -0.00000000000E+00  0.00000000000E+00  0.19489110255E+03  0.19489110255E+03  0.00000000000E+00 0.  1.
          2   -1    0    0  501    0  0.00000000000E+00 -0.00000000000E+00 -0.24368671647E+04  0.24368671647E+04  0.00000000000E+00 0. -1.
         24    2    1    2    0    0  0.41249826225E+02  0.11190645098E+03  0.63359588347E+02  0.15734025961E+03  0.80727429814E+02 0.  0.
        254    2    1    2    0    0 -0.41249826225E+02 -0.11190645098E+03 -0.23053356505E+04  0.24744180076E+04  0.89103726810E+03 0.  0.
         23    2    4    4    0    0 -0.59363682938E+02  0.33276787475E+03 -0.15837224746E+04  0.16219331624E+04  0.90729275318E+02 0.  0.
         23    2    4    4    0    0  0.18113856712E+02 -0.44467432573E+03 -0.72161317589E+03  0.85248484524E+03  0.89114914438E+02 0.  0.
          2    1    3    3  502    0 -0.13506709935E+02  0.74017829324E+01 -0.10044948988E+02  0.18388001632E+02  0.00000000000E+00 0. -1.
         -1    1    3    3    0  502  0.54756536161E+02  0.10450466805E+03  0.73404537335E+02  0.13895225798E+03  0.00000000000E+00 0.  1.
         11    1    5    5    0    0 -0.43082558828E+02  0.25241036336E+03 -0.13544376149E+04  0.13784296685E+04  0.00000000000E+00 0. -1.
        -11    1    5    5    0    0 -0.16281124110E+02  0.80357511391E+02 -0.22928485967E+03  0.24350349384E+03  0.00000000000E+00 0.  1.
          1    1    6    6  503    0  0.20226609700E+02 -0.12280730066E+03 -0.13680583962E+03  0.18495022733E+03  0.00000000000E+00 0. -1.
         -1    1    6    6    0  503 -0.21127529878E+01 -0.32186702508E+03 -0.58480733627E+03  0.66753461791E+03  0.00000000000E+00 0.  1.
<mgrwt>
<rscale>  0 0.13782942E+04</rscale>
<asrwt>0</asrwt>
<pdfrwt beam="1">  1        2 0.37490265E+00 0.13782942E+04</pdfrwt>
<pdfrwt beam="2">  1       -1 0.29983246E-01 0.13782942E+04</pdfrwt>
<totfact> 0.43080023E+01</totfact>
</mgrwt>
</event>
<event>
12    6  0.1538774E-007  0.1823248E+04  0.7818608E-02  0.8694033E-01
          2   -1    0    0  501    0  0.00000000000E+00  0.00000000000E+00  0.10935312467E+04  0.10935312467E+04  0.00000000000E+00 0. -1.
         -1   -1    0    0    0  501 -0.00000000000E+00 -0.00000000000E+00 -0.75997650539E+03  0.75997650539E+03  0.00000000000E+00 0.  1.
         24    2    1    2    0    0  0.47010416895E+03  0.33102020695E+02  0.64131632267E+03  0.79954700670E+03  0.76779663751E+02 0.  0.
        254    2    1    2    0    0 -0.47010416895E+03 -0.33102020695E+02 -0.30776158139E+03  0.10539607454E+04  0.89107933897E+03 0.  0.
         23    2    4    4    0    0 -0.51196890532E+03  0.26563577919E+03 -0.42131540295E+03  0.72006827056E+03  0.91198236279E+02 0.  0.
         23    2    4    4    0    0  0.41864736367E+02 -0.29873779989E+03  0.11355382155E+03  0.33389247480E+03  0.87136588792E+02 0.  0.
          4    1    3    3  502    0  0.33349946047E+03  0.46022379788E+02  0.49815061960E+03  0.60124370216E+03  0.00000000000E+00 0. -1.
         -3    1    3    3    0  502  0.13660470848E+03 -0.12920359093E+02  0.14316570306E+03  0.19830330454E+03  0.00000000000E+00 0.  1.
         11    1    5    5    0    0 -0.49625786843E+03  0.24551212152E+03 -0.41917884275E+03  0.69444868493E+03  0.00000000000E+00 0. -1.
        -11    1    5    5    0    0 -0.15711036890E+02  0.20123657671E+02 -0.21365601985E+01  0.25619585627E+02  0.00000000000E+00 0.  1.
          2    1    6    6  503    0  0.22513172058E+02 -0.29209315622E+03  0.10096663493E+03  0.30987016022E+03  0.00000000000E+00 0. -1.
         -2    1    6    6    0  503  0.19351564309E+02 -0.66446436684E+01  0.12587186620E+02  0.24022314579E+02  0.00000000000E+00 0.  1.
<mgrwt>
<rscale>  0 0.18232477E+04</rscale>
<asrwt>0</asrwt>
<pdfrwt beam="1">  1        2 0.16823558E+00 0.18232477E+04</pdfrwt>
<pdfrwt beam="2">  1       -1 0.11691946E+00 0.18232477E+04</pdfrwt>
<totfact> 0.15588710E+01</totfact>
</mgrwt>
</event>
<event>
12    6  0.1538774E-007  0.1392276E+04  0.7818608E-02  0.8959428E-01
         -1   -1    0    0    0  501 -0.00000000000E+00  0.00000000000E+00  0.31797816852E+03  0.31797816852E+03  0.00000000000E+00 0.  1.
          2   -1    0    0  501    0  0.00000000000E+00 -0.00000000000E+00 -0.15240306035E+04  0.15240306035E+04  0.00000000000E+00 0. -1.
         24    2    1    2    0    0 -0.14413899524E+02  0.32148277915E+03 -0.37670279530E+02  0.33387530532E+03  0.80589898617E+02 0.  0.
        254    2    1    2    0    0  0.14413899524E+02 -0.32148277915E+03 -0.11683821555E+04  0.15081334667E+04  0.89765848429E+03 0.  0.
         23    2    4    4    0    0 -0.36423884968E+03  0.30947131184E+01 -0.79320318469E+03  0.87744888717E+03  0.89809467957E+02 0.  0.
         23    2    4    4    0    0  0.37865274921E+03 -0.32457749226E+03 -0.37517897079E+03  0.63068457955E+03  0.90968817688E+02 0.  0.
          4    1    3    3  502    0 -0.31291085429E+02  0.60468549142E+02  0.73106849895E+01  0.68476445423E+02  0.00000000000E+00 0. -1.
         -1    1    3    3    0  502  0.16877185905E+02  0.26101423000E+03 -0.44980964520E+02  0.26539885990E+03  0.00000000000E+00 0.  1.
         11    1    5    5    0    0 -0.31456637651E+03 -0.54926216753E+01 -0.59644401546E+03  0.67433495958E+03  0.00000000000E+00 0. -1.
        -11    1    5    5    0    0 -0.49672473168E+02  0.85873347937E+01 -0.19675916922E+03  0.20311392759E+03  0.00000000000E+00 0.  1.
          2    1    6    6  503    0  0.33287856130E+03 -0.25001159403E+03 -0.28178803201E+03  0.50271107876E+03  0.00000000000E+00 0. -1.
         -2    1    6    6    0  503  0.45774187901E+02 -0.74565898238E+02 -0.93390938777E+02  0.12797350079E+03  0.00000000000E+00 0.  1.
<mgrwt>
<rscale>  0 0.13922765E+04</rscale>
<asrwt>0</asrwt>
<pdfrwt beam="1">  1        2 0.23446624E+00 0.13922765E+04</pdfrwt>
<pdfrwt beam="2">  1       -1 0.48919719E-01 0.13922765E+04</pdfrwt>
<totfact> 0.57117408E+01</totfact>
</mgrwt>
</event>
<event>
12    6  0.1538774E-007  0.1250060E+04  0.7818608E-02  0.9070133E-01
          2   -1    0    0  501    0  0.00000000000E+00  0.00000000000E+00  0.62641662287E+03  0.62641662287E+03  0.00000000000E+00 0. -1.
         -1   -1    0    0    0  501 -0.00000000000E+00 -0.00000000000E+00 -0.62364666841E+03  0.62364666841E+03  0.00000000000E+00 0.  1.
         24    2    1    2    0    0 -0.16013704268E+03 -0.16564575433E+03  0.15688995957E+03  0.28997600988E+03  0.79932712507E+02 0.  0.
        254    2    1    2    0    0  0.16013704268E+03  0.16564575433E+03 -0.15412000511E+03  0.96008728140E+03  0.91920194928E+03 0.  0.
         23    2    4    4    0    0  0.19090045431E+03 -0.35763545868E+03 -0.86334391430E+02  0.42338224489E+03  0.86329562633E+02 0.  0.
         23    2    4    4    0    0 -0.30763411639E+02  0.52328121300E+03 -0.67785613683E+02  0.53670503651E+03  0.93208322686E+02 0.  0.
          4    1    3    3  502    0 -0.10329733461E+03 -0.83040451066E+02  0.45565147627E+02  0.14015077070E+03  0.00000000000E+00 0. -1.
         -3    1    3    3    0  502 -0.56839708065E+02 -0.82605303259E+02  0.11132481194E+03  0.14982523917E+03  0.00000000000E+00 0.  1.
         11    1    5    5    0    0  0.37086867578E+02 -0.17153247406E+02 -0.75688175203E+01  0.41556667840E+02  0.00000000000E+00 0. -1.
        -11    1    5    5    0    0  0.15381358674E+03 -0.34048221127E+03 -0.78765573910E+02  0.38182557705E+03  0.00000000000E+00 0.  1.
          4    1    6    6  503    0  0.19945712889E+02  0.11376586665E+03  0.12993652669E+02  0.11622968161E+03  0.00000000000E+00 0. -1.
         -4    1    6    6    0  503 -0.50709124527E+02  0.40951534635E+03 -0.80779266351E+02  0.42047535490E+03  0.00000000000E+00 0.  1.
<mgrwt>
<rscale>  0 0.12500602E+04</rscale>
<asrwt>0</asrwt>
<pdfrwt beam="1">  1        2 0.96371788E-01 0.12500602E+04</pdfrwt>
<pdfrwt beam="2">  1       -1 0.95945641E-01 0.12500602E+04</pdfrwt>
<totfact> 0.55406643E+01</totfact>
</mgrwt>
</event>
<event>
12    6  0.1538774E-007  0.1624016E+04  0.7818608E-02  0.8805928E-01
          2   -1    0    0  501    0  0.00000000000E+00  0.00000000000E+00  0.76641858362E+03  0.76641858362E+03  0.00000000000E+00 0. -1.
         -1   -1    0    0    0  501 -0.00000000000E+00 -0.00000000000E+00 -0.86030976780E+03  0.86030976780E+03  0.00000000000E+00 0.  1.
         24    2    1    2    0    0  0.45432938449E+03 -0.97483020313E+02  0.27156800488E+03  0.54664923149E+03  0.95697816869E+02 0.  0.
        254    2    1    2    0    0 -0.45432938449E+03  0.97483020313E+02 -0.36545918906E+03  0.10800791199E+04  0.90393161112E+03 0.  0.
         23    2    4    4    0    0 -0.10244556335E+03 -0.10835557012E+03 -0.58328088561E+03  0.60874734242E+03  0.90114995179E+02 0.  0.
         23    2    4    4    0    0 -0.35188382113E+03  0.20583859044E+03  0.21782169654E+03  0.47133177751E+03  0.92280030996E+02 0.  0.
          4    1    3    3  502    0  0.12536920517E+03 -0.47515632470E+02  0.12413647166E+03  0.18271572600E+03  0.00000000000E+00 0. -1.
         -3    1    3    3    0  502  0.32896017932E+03 -0.49967387843E+02  0.14743153322E+03  0.36393350548E+03  0.00000000000E+00 0.  1.
         11    1    5    5    0    0 -0.14964072101E+02  0.14823631100E+02 -0.45355899711E+02  0.50008210640E+02  0.00000000000E+00 0. -1.
        -11    1    5    5    0    0 -0.87481491251E+02 -0.12317920122E+03 -0.53792498590E+03  0.55873913178E+03  0.00000000000E+00 0.  1.
          1    1    6    6  503    0 -0.95672063730E+02  0.55072707135E+02  0.10794627413E+03  0.15439736056E+03  0.00000000000E+00 0. -1.
         -1    1    6    6    0  503 -0.25621175740E+03  0.15076588330E+03  0.10987542242E+03  0.31693441696E+03  0.00000000000E+00 0.  1.
<mgrwt>
<rscale>  0 0.16240165E+04</rscale>
<asrwt>0</asrwt>
<pdfrwt beam="1">  1        2 0.11791055E+00 0.16240165E+04</pdfrwt>
<pdfrwt beam="2">  1       -1 0.13235535E+00 0.16240165E+04</pdfrwt>
<totfact> 0.19308457E+01</totfact>
</mgrwt>
</event>
<event>
12    6  0.1538774E-007  0.1913350E+04  0.7818608E-02  0.8648240E-01
         -1   -1    0    0    0  501 -0.00000000000E+00  0.00000000000E+00  0.13626573448E+04  0.13626573448E+04  0.00000000000E+00 0.  1.
          2   -1    0    0  501    0  0.00000000000E+00 -0.00000000000E+00 -0.67164883599E+03  0.67164883599E+03  0.00000000000E+00 0. -1.
         24    2    1    2    0    0 -0.34746219269E+03  0.27714860826E+03  0.89694552628E+03  0.10042336903E+04  0.80204122679E+02 0.  0.
        254    2    1    2    0    0  0.34746219269E+03 -0.27714860826E+03 -0.20593701747E+03  0.10300724904E+04  0.90614455469E+03 0.  0.
         23    2    4    4    0    0  0.38888997138E+03  0.17878337319E+03  0.12709642199E+03  0.45676815275E+03  0.96357358385E+02 0.  0.
         23    2    4    4    0    0 -0.41427778693E+02 -0.45593198145E+03 -0.33303343946E+03  0.57330433770E+03  0.90423223027E+02 0.  0.
          2    1    3    3  502    0 -0.28189934139E+02  0.41381037561E+02  0.61489903885E+02  0.79297357687E+02  0.00000000000E+00 0. -1.
         -1    1    3    3    0  502 -0.31927225855E+03  0.23576757070E+03  0.83545562239E+03  0.92493633265E+03  0.00000000000E+00 0.  1.
         11    1    5    5    0    0  0.28413813248E+03  0.81273730198E+02  0.89817591315E+02  0.30888039313E+03  0.00000000000E+00 0. -1.
        -11    1    5    5    0    0  0.10475183890E+03  0.97509642995E+02  0.37278830674E+02  0.14788775963E+03  0.00000000000E+00 0.  1.
          4    1    6    6  503    0 -0.30897982047E+02 -0.24407242949E+03 -0.23275250834E+03  0.33867353937E+03  0.00000000000E+00 0. -1.
         -4    1    6    6    0  503 -0.10529796647E+02 -0.21185955196E+03 -0.10028093111E+03  0.23463079832E+03  0.00000000000E+00 0.  1.
<mgrwt>
<rscale>  0 0.19133502E+04</rscale>
<asrwt>0</asrwt>
<pdfrwt beam="1">  1        2 0.10333059E+00 0.19133502E+04</pdfrwt>
<pdfrwt beam="2">  1       -1 0.20963959E+00 0.19133502E+04</pdfrwt>
<totfact> 0.59603996E+00</totfact>
</mgrwt>
</event>
<event>
12    6  0.1538774E-007  0.1735686E+04  0.7818608E-02  0.8741269E-01
         -3   -1    0    0    0  501 -0.00000000000E+00  0.00000000000E+00  0.55962427919E+03  0.55962427919E+03  0.00000000000E+00 0.  1.
          4   -1    0    0  501    0  0.00000000000E+00 -0.00000000000E+00 -0.13458166681E+04  0.13458166681E+04  0.00000000000E+00 0. -1.
         24    2    1    2    0    0  0.60775726366E+03  0.31898247920E+02 -0.11428007017E+03  0.62433637867E+03  0.79684311759E+02 0.  0.
        254    2    1    2    0    0 -0.60775726366E+03 -0.31898247920E+02 -0.67191231873E+03  0.12811045686E+04  0.90519410177E+03 0.  0.
         23    2    4    4    0    0 -0.83224003902E+03 -0.45389376240E+02 -0.44712470571E+03  0.95035849757E+03  0.92612598585E+02 0.  0.
         23    2    4    4    0    0  0.22448277536E+03  0.13491128320E+02 -0.22478761302E+03  0.33074607103E+03  0.91043756307E+02 0.  0.
          4    1    3    3  502    0  0.38192416681E+03  0.63375376219E+01 -0.34775082772E+02  0.38355643647E+03  0.00000000000E+00 0. -1.
         -3    1    3    3    0  502  0.22583309685E+03  0.25560710299E+02 -0.79504987401E+02  0.24077994220E+03  0.00000000000E+00 0.  1.
         11    1    5    5    0    0 -0.10799918641E+03 -0.36157715306E+02 -0.71171789137E+02  0.13430051456E+03  0.00000000000E+00 0. -1.
        -11    1    5    5    0    0 -0.72424085261E+03 -0.92316609342E+01 -0.37595291658E+03  0.81605798301E+03  0.00000000000E+00 0.  1.
          2    1    6    6  503    0  0.17485987817E+02  0.11967580525E+01  0.77651893395E+01  0.19170033000E+02  0.00000000000E+00 0. -1.
         -2    1    6    6    0  503  0.20699678754E+03  0.12294370268E+02 -0.23255280235E+03  0.31157603803E+03  0.00000000000E+00 0.  1.
<mgrwt>
<rscale>  0 0.17356862E+04</rscale>
<asrwt>0</asrwt>
<pdfrwt beam="1">  1        4 0.20704872E+00 0.17356862E+04</pdfrwt>
<pdfrwt beam="2">  1       -3 0.86096043E-01 0.17356862E+04</pdfrwt>
<totfact> 0.31614537E-01</totfact>
</mgrwt>
</event>
<event>
12    6  0.1538774E-007  0.2054927E+04  0.7818608E-02  0.8581362E-01
         -1   -1    0    0    0  501 -0.00000000000E+00  0.00000000000E+00  0.11727231024E+04  0.11727231024E+04  0.00000000000E+00 0.  1.
          2   -1    0    0  501    0  0.00000000000E+00 -0.00000000000E+00 -0.90019683886E+03  0.90019683886E+03  0.00000000000E+00 0. -1.
         24    2    1    2    0    0  0.29906108048E+03 -0.22885245559E+03 -0.63135854265E+03  0.73971000971E+03  0.82135940951E+02 0.  0.
        254    2    1    2    0    0 -0.29906108048E+03  0.22885245559E+03  0.90388480622E+03  0.13332099316E+04  0.90478174302E+03 0.  0.
         23    2    4    4    0    0 -0.32404560401E+03  0.46324834644E+03  0.23335581055E+03  0.61783493877E+03  0.87524244020E+02 0.  0.
         23    2    4    4    0    0  0.24984523533E+02 -0.23439589085E+03  0.67052899567E+03  0.71537499282E+03  0.81157786156E+02 0.  0.
          2    1    3    3  502    0  0.26824208262E+03 -0.16656384621E+03 -0.52612122445E+03  0.61359666929E+03  0.00000000000E+00 0. -1.
         -1    1    3    3    0  502  0.30818997854E+02 -0.62288609383E+02 -0.10523731821E+03  0.12611334042E+03  0.00000000000E+00 0.  1.
         11    1    5    5    0    0 -0.49587276084E+02  0.32829878384E+02  0.86754195158E+01  0.60099598734E+02  0.00000000000E+00 0.  1.
        -11    1    5    5    0    0 -0.27445832793E+03  0.43041846806E+03  0.22468039104E+03  0.55773534004E+03  0.00000000000E+00 0. -1.
          4    1    6    6  503    0 -0.11023305950E+02 -0.12962707501E+03  0.26843338129E+03  0.29829712040E+03  0.00000000000E+00 0. -1.
         -4    1    6    6    0  503  0.36007829483E+02 -0.10476881584E+03  0.40209561438E+03  0.41707787242E+03  0.00000000000E+00 0.  1.
<mgrwt>
<rscale>  0 0.20549274E+04</rscale>
<asrwt>0</asrwt>
<pdfrwt beam="1">  1        2 0.13849182E+00 0.20549274E+04</pdfrwt>
<pdfrwt beam="2">  1       -1 0.18041894E+00 0.20549274E+04</pdfrwt>
<totfact> 0.63926884E+00</totfact>
</mgrwt>
</event>
<event>
12    6  0.1538774E-007  0.2447235E+04  0.7818608E-02  0.8422028E-01
         -1   -1    0    0    0  501 -0.00000000000E+00  0.00000000000E+00  0.94637455441E+03  0.94637455441E+03  0.00000000000E+00 0.  1.
          2   -1    0    0  501    0  0.00000000000E+00 -0.00000000000E+00 -0.15820798783E+04  0.15820798783E+04  0.00000000000E+00 0. -1.
         24    2    1    2    0    0 -0.38494372771E+03 -0.97411941135E+03 -0.14793544421E+03  0.10607234995E+04  0.78480224185E+02 0.  0.
        254    2    1    2    0    0  0.38494372771E+03  0.97411941135E+03 -0.48776987966E+03  0.14677309332E+04  0.90511012358E+03 0.  0.
         23    2    4    4    0    0  0.38344447468E+03  0.10741297693E+04 -0.59878651959E+03  0.12913361072E+04  0.90659909534E+02 0.  0.
         23    2    4    4    0    0  0.14992530243E+01 -0.10001035798E+03  0.11101663993E+03  0.17639482604E+03  0.93734309887E+02 0.  0.
          2    1    3    3  502    0 -0.10307315173E+03 -0.27018692924E+03 -0.76310527425E+02  0.29907916667E+03  0.00000000000E+00 0. -1.
         -1    1    3    3    0  502 -0.28187057597E+03 -0.70393248212E+03 -0.71624916785E+02  0.76164433280E+03  0.00000000000E+00 0.  1.
         11    1    5    5    0    0  0.32971316676E+03  0.97588392868E+03 -0.56232014976E+03  0.11735689862E+04  0.00000000000E+00 0. -1.
        -11    1    5    5    0    0  0.53731307922E+02  0.98245840652E+02 -0.36466369832E+02  0.11776712098E+03  0.00000000000E+00 0.  1.
          3    1    6    6  503    0  0.28133248003E+02 -0.10266313964E+03  0.10378531763E+03  0.14866940519E+03  0.00000000000E+00 0. -1.
         -3    1    6    6    0  503 -0.26633994978E+02  0.26527816601E+01  0.72313222913E+01  0.27725420847E+02  0.00000000000E+00 0.  1.
<mgrwt>
<rscale>  0 0.24472353E+04</rscale>
<asrwt>0</asrwt>
<pdfrwt beam="1">  1        2 0.24339690E+00 0.24472353E+04</pdfrwt>
<pdfrwt beam="2">  1       -1 0.14559609E+00 0.24472353E+04</pdfrwt>
<totfact> 0.44001515E+00</totfact>
</mgrwt>
</event>
<event>
12    6  0.1538774E-007  0.2280532E+04  0.7818608E-02  0.8485637E-01
         -1   -1    0    0    0  501 -0.00000000000E+00  0.00000000000E+00  0.15034570783E+04  0.15034570783E+04  0.00000000000E+00 0.  1.
          2   -1    0    0  501    0  0.00000000000E+00 -0.00000000000E+00 -0.86481141471E+03  0.86481141471E+03  0.00000000000E+00 0. -1.
         24    2    1    2    0    0 -0.44304056758E+01  0.80995792993E+03  0.74021067061E+03  0.11001278794E+04  0.79486082546E+02 0.  0.
        254    2    1    2    0    0  0.44304056758E+01 -0.80995792993E+03 -0.10156500701E+03  0.12681406137E+04  0.97047085922E+03 0.  0.
         23    2    4    4    0    0  0.45269451470E+02 -0.28709599834E+03  0.42174777703E+03  0.52177176825E+03  0.99504548707E+02 0.  0.
         23    2    4    4    0    0 -0.40839045794E+02 -0.52286193159E+03 -0.52331278404E+03  0.74636884540E+03  0.90320298260E+02 0.  0.
          2    1    3    3  502    0  0.87469243862E+01  0.33162984284E+03  0.25278352075E+03  0.41707837358E+03  0.00000000000E+00 0. -1.
         -1    1    3    3    0  502 -0.13177330062E+02  0.47832808709E+03  0.48742714986E+03  0.68304950579E+03  0.00000000000E+00 0.  1.
         11    1    5    5    0    0 -0.40710595229E+01 -0.10746859853E+02  0.73862056838E+02  0.74750732189E+02  0.00000000000E+00 0. -1.
        -11    1    5    5    0    0  0.49340510993E+02 -0.27634913849E+03  0.34788572019E+03  0.44702103606E+03  0.00000000000E+00 0.  1.
          2    1    6    6  503    0 -0.91675223598E+01 -0.92188010215E+00 -0.76416663216E+01  0.11970313000E+02  0.00000000000E+00 0. -1.
         -2    1    6    6    0  503 -0.31671523435E+02 -0.52194005149E+03 -0.51567111772E+03  0.73439853240E+03  0.00000000000E+00 0.  1.
<mgrwt>
<rscale>  0 0.22805323E+04</rscale>
<asrwt>0</asrwt>
<pdfrwt beam="1">  1        2 0.13304791E+00 0.22805323E+04</pdfrwt>
<pdfrwt beam="2">  1       -1 0.23130109E+00 0.22805323E+04</pdfrwt>
<totfact> 0.29705677E+00</totfact>
</mgrwt>
</event>
<event>
12    6  0.1538774E-007  0.3746931E+04  0.7818608E-02  0.8057640E-01
         -1   -1    0    0    0  501 -0.00000000000E+00  0.00000000000E+00  0.10415481046E+04  0.10415481046E+04  0.00000000000E+00 0.  1.
          2   -1    0    0  501    0  0.00000000000E+00 -0.00000000000E+00 -0.33698610676E+04  0.33698610676E+04  0.00000000000E+00 0. -1.
         24    2    1    2    0    0  0.51748906620E+03  0.39188202050E+02  0.88806276680E+03  0.10316839704E+04  0.79910501238E+02 0.  0.
        254    2    1    2    0    0 -0.51748906620E+03 -0.39188202050E+02 -0.32163757298E+04  0.33797252017E+04  0.89896549162E+03 0.  0.
         23    2    4    4    0    0 -0.58585483864E+03  0.31054800453E+03 -0.21247801696E+04  0.22277110196E+04  0.91321753467E+02 0.  0.
         23    2    4    4    0    0  0.68365772442E+02 -0.34973620658E+03 -0.10915955602E+04  0.11520141822E+04  0.92555473795E+02 0.  0.
          2    1    3    3  502    0  0.14501238904E+03 -0.24906287501E+02  0.24929576694E+03  0.28947762530E+03  0.00000000000E+00 0. -1.
         -1    1    3    3    0  502  0.37247667716E+03  0.64094489552E+02  0.63876699986E+03  0.74220634512E+03  0.00000000000E+00 0.  1.
         11    1    5    5    0    0 -0.26207969488E+03  0.95576317701E+02 -0.96761228643E+03  0.10070224108E+04  0.00000000000E+00 0.  1.
        -11    1    5    5    0    0 -0.32377514376E+03  0.21497168683E+03 -0.11571678832E+04  0.12206886088E+04  0.00000000000E+00 0. -1.
          4    1    6    6  503    0  0.83635973214E+02 -0.30197786598E+03 -0.99511001052E+03  0.10432782661E+04  0.00000000000E+00 0. -1.
         -4    1    6    6    0  503 -0.15270200772E+02 -0.47758340604E+02 -0.96485549712E+02  0.10873591602E+03  0.00000000000E+00 0.  1.
<mgrwt>
<rscale>  0 0.37469307E+04</rscale>
<asrwt>0</asrwt>
<pdfrwt beam="1">  1        2 0.51844016E+00 0.37469307E+04</pdfrwt>
<pdfrwt beam="2">  1       -1 0.16023817E+00 0.37469307E+04</pdfrwt>
<totfact> 0.26552523E-01</totfact>
</mgrwt>
</event>
<event>
12    6  0.1538774E-007  0.2854851E+04  0.7818608E-02  0.8286439E-01
         -1   -1    0    0    0  501 -0.00000000000E+00  0.00000000000E+00  0.56859635668E+03  0.56859635668E+03  0.00000000000E+00 0.  1.
          2   -1    0    0  501    0  0.00000000000E+00 -0.00000000000E+00 -0.35834618243E+04  0.35834618243E+04  0.00000000000E+00 0. -1.
         24    2    1    2    0    0  0.24174766430E+03 -0.78581271981E+03  0.75505272150E+02  0.82956755434E+03  0.80856151774E+02 0.  0.
        254    2    1    2    0    0 -0.24174766430E+03  0.78581271981E+03 -0.30903707398E+04  0.33224906266E+04  0.90144832965E+03 0.  0.
         23    2    4    4    0    0 -0.36476945835E+03  0.21536245142E+02 -0.56098855692E+03  0.67561206787E+03  0.90680414981E+02 0.  0.
         23    2    4    4    0    0  0.12302179405E+03  0.76427647467E+03 -0.25293821829E+04  0.26468785588E+04  0.94546212835E+02 0.  0.
          4    1    3    3  502    0  0.45008297164E+02 -0.26911931521E+03  0.13045346982E+02  0.27316869094E+03  0.00000000000E+00 0. -1.
         -3    1    3    3    0  502  0.19673936714E+03 -0.51669340460E+03  0.62459925167E+02  0.55639886340E+03  0.00000000000E+00 0.  1.
         11    1    5    5    0    0 -0.10149671401E+02 -0.16945986223E+02 -0.27464595127E+02  0.33830256636E+02  0.00000000000E+00 0.  1.
        -11    1    5    5    0    0 -0.35461978695E+03  0.38482231366E+02 -0.53352396179E+03  0.64178181124E+03  0.00000000000E+00 0. -1.
          4    1    6    6  503    0  0.87141401965E+02  0.68953982830E+03 -0.21970970327E+04  0.23044075529E+04  0.00000000000E+00 0. -1.
         -4    1    6    6    0  503  0.35880392082E+02  0.74736646371E+02 -0.33228515019E+03  0.34247100590E+03  0.00000000000E+00 0.  1.
<mgrwt>
<rscale>  0 0.28548508E+04</rscale>
<asrwt>0</asrwt>
<pdfrwt beam="1">  1        2 0.55130181E+00 0.28548508E+04</pdfrwt>
<pdfrwt beam="2">  1       -1 0.87476364E-01 0.28548508E+04</pdfrwt>
<totfact> 0.89792814E-01</totfact>
</mgrwt>
</event>
<event>
12    6  0.1538774E-007  0.1642868E+04  0.7818608E-02  0.8794637E-01
         -1   -1    0    0    0  501 -0.00000000000E+00  0.00000000000E+00  0.67008965669E+03  0.67008965669E+03  0.00000000000E+00 0.  1.
          2   -1    0    0  501    0  0.00000000000E+00 -0.00000000000E+00 -0.10069600626E+04  0.10069600626E+04  0.00000000000E+00 0. -1.
         24    2    1    2    0    0  0.54872003342E+03 -0.31028766505E+00 -0.43757095719E+02  0.55617404000E+03  0.79505395961E+02 0.  0.
        254    2    1    2    0    0 -0.54872003342E+03  0.31028766505E+00 -0.29311331017E+03  0.11208756793E+04  0.93239106839E+03 0.  0.
         23    2    4    4    0    0 -0.76106428088E+03  0.14284366071E+03 -0.33221393861E+03  0.84704355677E+03  0.86565206766E+02 0.  0.
         23    2    4    4    0    0  0.21234424746E+03 -0.14253337305E+03  0.39100628441E+02  0.27383212249E+03  0.89718060057E+02 0.  0.
          4    1    3    3  502    0  0.11278216533E+03  0.31246869878E+02 -0.17217850927E+02  0.11829048180E+03  0.00000000000E+00 0. -1.
         -3    1    3    3    0  502  0.43593786809E+03 -0.31557157543E+02 -0.26539244792E+02  0.43788355820E+03  0.00000000000E+00 0.  1.
         11    1    5    5    0    0 -0.17539128702E+02  0.19375446689E+01  0.53083030643E+01  0.18426969268E+02  0.00000000000E+00 0.  1.
        -11    1    5    5    0    0 -0.74352515218E+03  0.14090611604E+03 -0.33752224168E+03  0.82861658751E+03  0.00000000000E+00 0. -1.
          2    1    6    6  503    0  0.17825468722E+03 -0.71795190192E+02  0.21583830573E+02  0.19337824229E+03  0.00000000000E+00 0. -1.
         -2    1    6    6    0  503  0.34089560244E+02 -0.70738182855E+02  0.17516797868E+02  0.80453880197E+02  0.00000000000E+00 0.  1.
<mgrwt>
<rscale>  0 0.16428676E+04</rscale>
<asrwt>0</asrwt>
<pdfrwt beam="1">  1        2 0.15491693E+00 0.16428676E+04</pdfrwt>
<pdfrwt beam="2">  1       -1 0.10309072E+00 0.16428676E+04</pdfrwt>
<totfact> 0.24158758E+01</totfact>
</mgrwt>
</event>
<event>
12    6  0.1538774E-007  0.1440667E+04  0.7818608E-02  0.8924896E-01
         -1   -1    0    0    0  501 -0.00000000000E+00  0.00000000000E+00  0.10999227507E+04  0.10999227507E+04  0.00000000000E+00 0.  1.
          2   -1    0    0  501    0  0.00000000000E+00 -0.00000000000E+00 -0.47174275700E+03  0.47174275700E+03  0.00000000000E+00 0. -1.
         24    2    1    2    0    0 -0.26960979623E+02  0.33975038749E+03  0.51966319430E+03  0.62670174781E+03  0.80919867669E+02 0.  0.
        254    2    1    2    0    0  0.26960979623E+02 -0.33975038749E+03  0.10851679940E+03  0.94496375988E+03  0.87465615616E+03 0.  0.
         23    2    4    4    0    0  0.24855875514E+03  0.20429862235E+03 -0.26745896264E+02  0.33553621316E+03  0.91377379720E+02 0.  0.
         23    2    4    4    0    0 -0.22159777551E+03 -0.54404900984E+03  0.13526269566E+03  0.60942754672E+03  0.89504405729E+02 0.  0.
          4    1    3    3  502    0 -0.52625221519E+02  0.16581275802E+03  0.24157277579E+03  0.29769227512E+03  0.00000000000E+00 0. -1.
         -1    1    3    3    0  502  0.25664241896E+02  0.17393762946E+03  0.27809041851E+03  0.32900947269E+03  0.00000000000E+00 0.  1.
         11    1    5    5    0    0  0.15160530523E+03  0.71462695060E+02 -0.33600020413E+02  0.17093872215E+03  0.00000000000E+00 0.  1.
        -11    1    5    5    0    0  0.96953449907E+02  0.13283592729E+03  0.68541241492E+01  0.16459749101E+03  0.00000000000E+00 0. -1.
          3    1    6    6  503    0 -0.83871503816E+01 -0.99420696250E+02  0.75915950303E+01  0.10006223788E+03  0.00000000000E+00 0. -1.
         -3    1    6    6    0  503 -0.21321062513E+03 -0.44462831359E+03  0.12767110063E+03  0.50936530884E+03  0.00000000000E+00 0.  1.
<mgrwt>
<rscale>  0 0.14406673E+04</rscale>
<asrwt>0</asrwt>
<pdfrwt beam="1">  1        2 0.72575809E-01 0.14406673E+04</pdfrwt>
<pdfrwt beam="2">  1       -1 0.16921888E+00 0.14406673E+04</pdfrwt>
<totfact> 0.18227565E+01</totfact>
</mgrwt>
</event>
<event>
12    6  0.1538774E-007  0.1424642E+04  0.7818608E-02  0.8936172E-01
         -1   -1    0    0    0  501 -0.00000000000E+00  0.00000000000E+00  0.31946167922E+03  0.31946167922E+03  0.00000000000E+00 0.  1.
          2   -1    0    0  501    0  0.00000000000E+00 -0.00000000000E+00 -0.15883002563E+04  0.15883002563E+04  0.00000000000E+00 0. -1.
         24    2    1    2    0    0  0.88152493695E+02 -0.34926286230E+03 -0.71847616262E+03  0.80763788160E+03  0.79470387024E+02 0.  0.
        254    2    1    2    0    0 -0.88152493695E+02  0.34926286230E+03 -0.55036241447E+03  0.11001240539E+04  0.88182693180E+03 0.  0.
         23    2    4    4    0    0 -0.85851518068E+02  0.62989462215E+03 -0.46284989026E+03  0.79160107839E+03  0.90909450733E+02 0.  0.
         23    2    4    4    0    0 -0.23009756275E+01 -0.28063175985E+03 -0.87512524212E+02  0.30852297554E+03  0.93640298051E+02 0.  0.
          2    1    3    3  502    0  0.69910419636E+02 -0.23212046582E+03 -0.55560020475E+03  0.60618393656E+03  0.00000000000E+00 0. -1.
         -1    1    3    3    0  502  0.18242074059E+02 -0.11714239649E+03 -0.16287595788E+03  0.20145394505E+03  0.00000000000E+00 0.  1.
         11    1    5    5    0    0 -0.44183863490E+02  0.28370678503E+03 -0.26482479972E+03  0.39060712771E+03  0.00000000000E+00 0. -1.
        -11    1    5    5    0    0 -0.41667654578E+02  0.34618783712E+03 -0.19802509053E+03  0.40099395069E+03  0.00000000000E+00 0.  1.
          2    1    6    6  503    0 -0.31880931762E+01 -0.88307532345E+02  0.16469987091E+02  0.89886843763E+02  0.00000000000E+00 0. -1.
         -2    1    6    6    0  503  0.88711754865E+00 -0.19232422750E+03 -0.10398251130E+03  0.21863613178E+03  0.00000000000E+00 0.  1.
<mgrwt>
<rscale>  0 0.14246418E+04</rscale>
<asrwt>0</asrwt>
<pdfrwt beam="1">  1        2 0.24435388E+00 0.14246418E+04</pdfrwt>
<pdfrwt beam="2">  1       -1 0.49147952E-01 0.14246418E+04</pdfrwt>
<totfact> 0.51972774E+01</totfact>
</mgrwt>
</event>
<event>
12    6  0.1538774E-007  0.1745554E+04  0.7818608E-02  0.8735801E-01
          2   -1    0    0  501    0  0.00000000000E+00  0.00000000000E+00  0.17902396558E+04  0.17902396558E+04  0.00000000000E+00 0. -1.
         -1   -1    0    0    0  501 -0.00000000000E+00 -0.00000000000E+00 -0.42549615168E+03  0.42549615168E+03  0.00000000000E+00 0.  1.
         24    2    1    2    0    0  0.19070824585E+03  0.54559221301E+03  0.90069013007E+03  0.10731665603E+04  0.80020358896E+02 0.  0.
        254    2    1    2    0    0 -0.19070824585E+03 -0.54559221301E+03  0.46405337407E+03  0.11425692472E+04  0.86952771818E+03 0.  0.
         23    2    4    4    0    0 -0.11447580042E+03 -0.93096429639E+02  0.62481502061E+03  0.64846973829E+03  0.91364858645E+02 0.  0.
         23    2    4    4    0    0 -0.76232445430E+02 -0.45249578337E+03 -0.16076164655E+03  0.49409950889E+03  0.87898793958E+02 0.  0.
          4    1    3    3  502    0  0.19073517438E+03  0.46496590518E+03  0.78738889108E+03  0.93410623888E+03  0.00000000000E+00 0. -1.
         -3    1    3    3    0  502 -0.26928531980E-01  0.80626307829E+02  0.11330123899E+03  0.13906032143E+03  0.00000000000E+00 0.  1.
         11    1    5    5    0    0 -0.23048876691E+02 -0.24071222498E+02  0.33776088677E+03  0.33940107705E+03  0.00000000000E+00 0. -1.
        -11    1    5    5    0    0 -0.91426923729E+02 -0.69025207141E+02  0.28705413385E+03  0.30906866124E+03  0.00000000000E+00 0.  1.
          1    1    6    6  503    0 -0.91913529430E+02 -0.42542155962E+03 -0.15651983553E+03  0.46252573896E+03  0.00000000000E+00 0. -1.
         -1    1    6    6    0  503  0.15681084000E+02 -0.27074223749E+02 -0.42418110175E+01  0.31573769932E+02  0.00000000000E+00 0.  1.
<mgrwt>
<rscale>  0 0.17455544E+04</rscale>
<asrwt>0</asrwt>
<pdfrwt beam="1">  1        2 0.27542148E+00 0.17455544E+04</pdfrwt>
<pdfrwt beam="2">  1       -1 0.65460947E-01 0.17455544E+04</pdfrwt>
<totfact> 0.22321258E+01</totfact>
</mgrwt>
</event>
<event>
12    6  0.1538774E-007  0.1583178E+04  0.7818608E-02  0.8830950E-01
         -1   -1    0    0    0  501 -0.00000000000E+00  0.00000000000E+00  0.10191089191E+04  0.10191089191E+04  0.00000000000E+00 0.  1.
          2   -1    0    0  501    0  0.00000000000E+00 -0.00000000000E+00 -0.61486378379E+03  0.61486378379E+03  0.00000000000E+00 0. -1.
         24    2    1    2    0    0  0.32069844179E+03 -0.37831472327E+03 -0.57882035514E+02  0.50567055178E+03  0.79892781226E+02 0.  0.
        254    2    1    2    0    0 -0.32069844179E+03  0.37831472327E+03  0.46212717085E+03  0.11283021511E+04  0.90196158556E+03 0.  0.
         23    2    4    4    0    0  0.76310586728E+02  0.24067958148E+03 -0.20282469016E+03  0.33669667216E+03  0.92069688386E+02 0.  0.
         23    2    4    4    0    0 -0.39700902852E+03  0.13763514178E+03  0.66495186101E+03  0.79160547898E+03  0.88986829974E+02 0.  0.
          2    1    3    3  502    0 -0.30394671127E+01 -0.16614621707E+02 -0.30400757075E+01  0.17161762005E+02  0.00000000000E+00 0. -1.
         -1    1    3    3    0  502  0.32373790890E+03 -0.36170010156E+03 -0.54841959806E+02  0.48850878977E+03  0.00000000000E+00 0.  1.
         11    1    5    5    0    0  0.26419840510E+02  0.22952894613E+02 -0.66129994310E+02  0.74819913734E+02  0.00000000000E+00 0. -1.
        -11    1    5    5    0    0  0.49890746218E+02  0.21772668687E+03 -0.13669469585E+03  0.26187675843E+03  0.00000000000E+00 0.  1.
          2    1    6    6  503    0 -0.15830901236E+03  0.10035547206E+03  0.27208591739E+03  0.33039931993E+03  0.00000000000E+00 0. -1.
         -2    1    6    6    0  503 -0.23870001616E+03  0.37279669720E+02  0.39286594362E+03  0.46120615905E+03  0.00000000000E+00 0.  1.
<mgrwt>
<rscale>  0 0.15831780E+04</rscale>
<asrwt>0</asrwt>
<pdfrwt beam="1">  1        2 0.94594428E-01 0.15831780E+04</pdfrwt>
<pdfrwt beam="2">  1       -1 0.15678599E+00 0.15831780E+04</pdfrwt>
<totfact> 0.16329482E+01</totfact>
</mgrwt>
</event>
<event>
12    6  0.1538774E-007  0.1576393E+04  0.7818608E-02  0.8835184E-01
         -1   -1    0    0    0  501 -0.00000000000E+00  0.00000000000E+00  0.17719214770E+04  0.17719214770E+04  0.00000000000E+00 0.  1.
          2   -1    0    0  501    0  0.00000000000E+00 -0.00000000000E+00 -0.35061002227E+03  0.35061002227E+03  0.00000000000E+00 0. -1.
         24    2    1    2    0    0 -0.19277263458E+03 -0.32036778260E+03 -0.16430462736E+02  0.38156980445E+03  0.74355570024E+02 0.  0.
        254    2    1    2    0    0  0.19277263458E+03  0.32036778260E+03  0.14377419174E+04  0.17409616948E+04  0.90777144525E+03 0.  0.
         23    2    4    4    0    0  0.53717396899E+03  0.22547851619E+03  0.10576128816E+04  0.12113738017E+04  0.97391200472E+02 0.  0.
         23    2    4    4    0    0 -0.34440133442E+03  0.94889266415E+02  0.38012903586E+03  0.52958789310E+03  0.91372865693E+02 0.  0.
          2    1    3    3  502    0 -0.56784499906E+02 -0.10541382258E+03  0.28974066509E+02  0.12319111149E+03  0.00000000000E+00 0. -1.
         -1    1    3    3    0  502 -0.13598813467E+03 -0.21495396002E+03 -0.45404529245E+02  0.25837869296E+03  0.00000000000E+00 0.  1.
         11    1    5    5    0    0  0.33427351856E+03  0.11786920064E+03  0.55138401282E+03  0.65548170322E+03  0.00000000000E+00 0.  1.
        -11    1    5    5    0    0  0.20290045044E+03  0.10760931554E+03  0.50622886875E+03  0.55589209847E+03  0.00000000000E+00 0. -1.
          2    1    6    6  503    0 -0.19259569011E+01 -0.10186009619E+02  0.13209243222E+02  0.16791313482E+02  0.00000000000E+00 0. -1.
         -2    1    6    6    0  503 -0.34247537752E+03  0.10507527603E+03  0.36691979264E+03  0.51279657962E+03  0.00000000000E+00 0.  1.
<mgrwt>
<rscale>  0 0.15763926E+04</rscale>
<asrwt>0</asrwt>
<pdfrwt beam="1">  1        2 0.53940005E-01 0.15763926E+04</pdfrwt>
<pdfrwt beam="2">  1       -1 0.27260330E+00 0.15763926E+04</pdfrwt>
<totfact> 0.50443478E+00</totfact>
</mgrwt>
</event>
<event>
12    6  0.1538774E-007  0.2083253E+04  0.7818608E-02  0.8568657E-01
         -1   -1    0    0    0  501 -0.00000000000E+00  0.00000000000E+00  0.18383276540E+04  0.18383276540E+04  0.00000000000E+00 0.  1.
          2   -1    0    0  501    0  0.00000000000E+00 -0.00000000000E+00 -0.59020239884E+03  0.59020239884E+03  0.00000000000E+00 0. -1.
         24    2    1    2    0    0 -0.15763973262E+02 -0.45030053133E+03  0.13552286234E+04  0.14304154210E+04  0.80153498774E+02 0.  0.
        254    2    1    2    0    0  0.15763973262E+02  0.45030053133E+03 -0.10710336825E+03  0.99811463190E+03  0.88416209801E+03 0.  0.
         23    2    4    4    0    0  0.56175631335E+02  0.24405355272E+02  0.34934405305E+03  0.36626602792E+03  0.91423262287E+02 0.  0.
         23    2    4    4    0    0 -0.40411658073E+02  0.42589517605E+03 -0.45644742130E+03  0.63184860398E+03  0.88705168062E+02 0.  0.
          4    1    3    3  502    0  0.50925656712E+01 -0.45179800315E+01  0.52831426755E+01  0.86173061458E+01  0.00000000000E+00 0. -1.
         -1    1    3    3    0  502 -0.20856538933E+02 -0.44578255130E+03  0.13499454808E+04  0.14217981148E+04  0.00000000000E+00 0.  1.
         11    1    5    5    0    0  0.58102456901E+02 -0.22624245892E+02  0.21805533545E+03  0.22679480002E+03  0.00000000000E+00 0. -1.
        -11    1    5    5    0    0 -0.19268255662E+01  0.47029601163E+02  0.13128871761E+03  0.13947122790E+03  0.00000000000E+00 0.  1.
          1    1    6    6  503    0 -0.59600469779E+02  0.38701038737E+03 -0.39117919579E+03  0.55348931258E+03  0.00000000000E+00 0. -1.
         -1    1    6    6    0  503  0.19188811706E+02  0.38884788688E+02 -0.65268225514E+02  0.78359291394E+02  0.00000000000E+00 0.  1.
<mgrwt>
<rscale>  0 0.20832526E+04</rscale>
<asrwt>0</asrwt>
<pdfrwt beam="1">  1        2 0.90800369E-01 0.20832526E+04</pdfrwt>
<pdfrwt beam="2">  1       -1 0.28281964E+00 0.20832526E+04</pdfrwt>
<totfact> 0.22757182E+00</totfact>
</mgrwt>
</event>
<event>
12    6  0.1538774E-007  0.3840499E+04  0.7818608E-02  0.8037519E-01
         -1   -1    0    0    0  501 -0.00000000000E+00  0.00000000000E+00  0.10434311837E+04  0.10434311837E+04  0.00000000000E+00 0.  1.
          2   -1    0    0  501    0  0.00000000000E+00 -0.00000000000E+00 -0.35338781474E+04  0.35338781474E+04  0.00000000000E+00 0. -1.
         24    2    1    2    0    0  0.49966660635E+03 -0.13702081831E+04 -0.24619812297E+04  0.28626962729E+04  0.80877643005E+02 0.  0.
        254    2    1    2    0    0 -0.49966660635E+03  0.13702081831E+04 -0.28465734074E+02  0.17146130582E+04  0.90108293665E+03 0.  0.
         23    2    4    4    0    0  0.13336645740E+03 -0.20864011719E+02  0.76809047799E+02  0.17984224890E+03  0.90673511685E+02 0.  0.
         23    2    4    4    0    0 -0.63303306375E+03  0.13910721948E+04 -0.10527478187E+03  0.15347708093E+04  0.92875972759E+02 0.  0.
          2    1    3    3  502    0  0.42449204667E+03 -0.11716367212E+04 -0.20451614489E+04  0.23949136636E+04  0.00000000000E+00 0. -1.
         -1    1    3    3    0  502  0.75174559672E+02 -0.19857146187E+03 -0.41681978078E+03  0.46778260927E+03  0.00000000000E+00 0.  1.
         11    1    5    5    0    0  0.67039637813E+02  0.33809380083E+02  0.48323865896E+02  0.89289323185E+02  0.00000000000E+00 0.  1.
        -11    1    5    5    0    0  0.66326819587E+02 -0.54673391801E+02  0.28485181903E+02  0.90552925715E+02  0.00000000000E+00 0. -1.
          4    1    6    6  503    0 -0.21130881648E+03  0.56101241069E+03 -0.62552577168E+02  0.60274303462E+03  0.00000000000E+00 0. -1.
         -4    1    6    6    0  503 -0.42172424727E+03  0.83005978414E+03 -0.42722204705E+02  0.93202777467E+03  0.00000000000E+00 0.  1.
<mgrwt>
<rscale>  0 0.38404993E+04</rscale>
<asrwt>0</asrwt>
<pdfrwt beam="1">  1        2 0.54367358E+00 0.38404993E+04</pdfrwt>
<pdfrwt beam="2">  1       -1 0.16052787E+00 0.38404993E+04</pdfrwt>
<totfact> 0.20171503E-01</totfact>
</mgrwt>
</event>
<event>
12    6  0.1538774E-007  0.1645705E+04  0.7818608E-02  0.8792952E-01
          2   -1    0    0  501    0  0.00000000000E+00  0.00000000000E+00  0.30300263195E+04  0.30300263195E+04  0.00000000000E+00 0. -1.
         -1   -1    0    0    0  501 -0.00000000000E+00 -0.00000000000E+00 -0.22345879492E+03  0.22345879492E+03  0.00000000000E+00 0.  1.
         24    2    1    2    0    0  0.27272764257E+03 -0.36920555772E+03  0.32082861417E+03  0.56596852388E+03  0.81830675638E+02 0.  0.
        254    2    1    2    0    0 -0.27272764257E+03  0.36920555772E+03  0.24857389104E+04  0.26875165906E+04  0.91277290868E+03 0.  0.
         23    2    4    4    0    0 -0.22840604446E+03  0.25062754540E+02  0.85614803884E+02  0.26109059804E+03  0.89671304944E+02 0.  0.
         23    2    4    4    0    0 -0.44321598105E+02  0.34414280318E+03  0.24001241065E+04  0.24264259925E+04  0.80924021635E+02 0.  0.
          2    1    3    3  502    0  0.39090928856E+02 -0.78123854841E+02  0.97918985625E+02  0.13122334076E+03  0.00000000000E+00 0. -1.
         -1    1    3    3    0  502  0.23363671371E+03 -0.29108170288E+03  0.22290962854E+03  0.43474518312E+03  0.00000000000E+00 0.  1.
         11    1    5    5    0    0 -0.11377828516E+03 -0.14705356050E+02  0.79554762510E+02  0.13960911829E+03  0.00000000000E+00 0. -1.
        -11    1    5    5    0    0 -0.11462775930E+03  0.39768110590E+02  0.60600413734E+01  0.12148147975E+03  0.00000000000E+00 0.  1.
          3    1    6    6  503    0 -0.11670473884E+02  0.29792523681E+03  0.20933795232E+04  0.21145054918E+04  0.00000000000E+00 0. -1.
         -3    1    6    6    0  503 -0.32651124222E+02  0.46217566372E+02  0.30674458334E+03  0.31192050071E+03  0.00000000000E+00 0.  1.
<mgrwt>
<rscale>  0 0.16457047E+04</rscale>
<asrwt>0</asrwt>
<pdfrwt beam="1">  1        2 0.46615786E+00 0.16457047E+04</pdfrwt>
<pdfrwt beam="2">  1       -1 0.34378278E-01 0.16457047E+04</pdfrwt>
<totfact> 0.14617834E+01</totfact>
</mgrwt>
</event>
<event>
12    6  0.1538774E-007  0.1488349E+04  0.7818608E-02  0.8892238E-01
          2   -1    0    0  501    0  0.00000000000E+00  0.00000000000E+00  0.19126736475E+04  0.19126736475E+04  0.00000000000E+00 0. -1.
         -1   -1    0    0    0  501 -0.00000000000E+00 -0.00000000000E+00 -0.28954021961E+03  0.28954021961E+03  0.00000000000E+00 0.  1.
         24    2    1    2    0    0 -0.55993593513E+02 -0.55972498093E+02  0.12041929912E+04  0.12094151150E+04  0.79598725673E+02 0.  0.
        254    2    1    2    0    0  0.55993593513E+02  0.55972498093E+02  0.41894043663E+03  0.99279875211E+03  0.89658801558E+03 0.  0.
         23    2    4    4    0    0 -0.30362915165E+03  0.12981207279E+03 -0.94419347809E+02  0.35517682356E+03  0.90519206710E+02 0.  0.
         23    2    4    4    0    0  0.35962274516E+03 -0.73839574693E+02  0.51335978444E+03  0.63762192854E+03  0.90789062395E+02 0.  0.
          2    1    3    3  502    0 -0.16131077565E+02 -0.68516265482E+02  0.77865502722E+03  0.78183012331E+03  0.00000000000E+00 0. -1.
         -1    1    3    3    0  502 -0.39862515948E+02  0.12543767389E+02  0.42553796400E+03  0.42758499165E+03  0.00000000000E+00 0.  1.
         11    1    5    5    0    0 -0.12316205079E+02  0.29523090387E+02 -0.21590032299E+02  0.38593150536E+02  0.00000000000E+00 0. -1.
        -11    1    5    5    0    0 -0.29131294657E+03  0.10028898240E+03 -0.72829315510E+02  0.31658367303E+03  0.00000000000E+00 0.  1.
          3    1    6    6  503    0  0.10489466984E+03 -0.61033151175E+02  0.19523517446E+03  0.22987977434E+03  0.00000000000E+00 0. -1.
         -3    1    6    6    0  503  0.25472807533E+03 -0.12806423519E+02  0.31812460997E+03  0.40774215420E+03  0.00000000000E+00 0.  1.
<mgrwt>
<rscale>  0 0.14883494E+04</rscale>
<asrwt>0</asrwt>
<pdfrwt beam="1">  1        2 0.29425748E+00 0.14883494E+04</pdfrwt>
<pdfrwt beam="2">  1       -1 0.44544650E-01 0.14883494E+04</pdfrwt>
<totfact> 0.41089069E+01</totfact>
</mgrwt>
</event>
<event>
12    6  0.1538774E-007  0.1539079E+04  0.7818608E-02  0.8858874E-01
         -1   -1    0    0    0  501 -0.00000000000E+00  0.00000000000E+00  0.52209092631E+03  0.52209092631E+03  0.00000000000E+00 0.  1.
          2   -1    0    0  501    0  0.00000000000E+00 -0.00000000000E+00 -0.11342673129E+04  0.11342673129E+04  0.00000000000E+00 0. -1.
         24    2    1    2    0    0  0.49056833856E+03 -0.22558972397E+01 -0.68747277660E+02  0.50165320874E+03  0.79166721420E+02 0.  0.
        254    2    1    2    0    0 -0.49056833856E+03  0.22558972397E+01 -0.54342910891E+03  0.11547050305E+04  0.89295359739E+03 0.  0.
         23    2    4    4    0    0  0.15724822998E+03  0.99402121740E+02 -0.43830721154E+03  0.48495695680E+03  0.91990492014E+02 0.  0.
         23    2    4    4    0    0 -0.64781656855E+03 -0.97146224501E+02 -0.10512189737E+03  0.66974807366E+03  0.91696092882E+02 0.  0.
          2    1    3    3  502    0  0.14109363356E+03  0.13689787066E+02 -0.53392857743E+02  0.15147812040E+03  0.00000000000E+00 0. -1.
         -1    1    3    3    0  502  0.34947470500E+03 -0.15945684306E+02 -0.15354419917E+02  0.35017508834E+03  0.00000000000E+00 0.  1.
         11    1    5    5    0    0  0.15300739713E+03  0.74133157126E+02 -0.42100477273E+03  0.45403965380E+03  0.00000000000E+00 0.  1.
        -11    1    5    5    0    0  0.42408328532E+01  0.25268964614E+02 -0.17302438810E+02  0.30917302999E+02  0.00000000000E+00 0. -1.
          3    1    6    6  503    0 -0.36644082673E+02 -0.14788854110E+02  0.13477536723E+02  0.41750964024E+02  0.00000000000E+00 0. -1.
         -3    1    6    6    0  503 -0.61117248587E+03 -0.82357370391E+02 -0.11859943410E+03  0.62799710964E+03  0.00000000000E+00 0.  1.
<mgrwt>
<rscale>  0 0.15390785E+04</rscale>
<asrwt>0</asrwt>
<pdfrwt beam="1">  1        2 0.17450266E+00 0.15390785E+04</pdfrwt>
<pdfrwt beam="2">  1       -1 0.80321683E-01 0.15390785E+04</pdfrwt>
<totfact> 0.35273237E+01</totfact>
</mgrwt>
</event>
<event>
12    6  0.1538774E-007  0.1347751E+04  0.7818608E-02  0.8992532E-01
         -1   -1    0    0    0  501 -0.00000000000E+00  0.00000000000E+00  0.12106368897E+03  0.12106368897E+03  0.00000000000E+00 0.  1.
          2   -1    0    0  501    0  0.00000000000E+00 -0.00000000000E+00 -0.37509860568E+04  0.37509860568E+04  0.00000000000E+00 0. -1.
         24    2    1    2    0    0 -0.56263964290E+02  0.28488343589E+03 -0.36433031609E+03  0.47235442098E+03  0.77832602856E+02 0.  0.
        254    2    1    2    0    0  0.56263964290E+02 -0.28488343589E+03 -0.32655920517E+04  0.33996953248E+04  0.89972920778E+03 0.  0.
         23    2    4    4    0    0  0.20631616843E+03  0.25276116205E+03 -0.17370692323E+04  0.17698393569E+04  0.92017742917E+02 0.  0.
         23    2    4    4    0    0 -0.15005220414E+03 -0.53764459794E+03 -0.15285228194E+04  0.16298559679E+04  0.92038518512E+02 0.  0.
          4    1    3    3  502    0 -0.15223085410E+02  0.17885529915E+02 -0.71990611976E+01  0.24565443042E+02  0.00000000000E+00 0. -1.
         -3    1    3    3    0  502 -0.41040878880E+02  0.26699790598E+03 -0.35713125490E+03  0.44778897794E+03  0.00000000000E+00 0.  1.
         11    1    5    5    0    0  0.86876880840E+02  0.13837610028E+03 -0.10794026647E+04  0.10916985162E+04  0.00000000000E+00 0.  1.
        -11    1    5    5    0    0  0.11943928759E+03  0.11438506177E+03 -0.65766656757E+03  0.67814084074E+03  0.00000000000E+00 0. -1.
          4    1    6    6  503    0 -0.65352408775E+02 -0.11816315307E+03 -0.43913154351E+03  0.45942353072E+03  0.00000000000E+00 0. -1.
         -4    1    6    6    0  503 -0.84699795365E+02 -0.41948144487E+03 -0.10893912759E+04  0.11704324372E+04  0.00000000000E+00 0.  1.
<mgrwt>
<rscale>  0 0.13477510E+04</rscale>
<asrwt>0</asrwt>
<pdfrwt beam="1">  1        2 0.57707473E+00 0.13477510E+04</pdfrwt>
<pdfrwt beam="2">  1       -1 0.18625185E-01 0.13477510E+04</pdfrwt>
<totfact> 0.14050393E+01</totfact>
</mgrwt>
</event>
<event>
12    6  0.1538774E-007  0.1177510E+04  0.7818608E-02  0.9132773E-01
         -1   -1    0    0    0  501 -0.00000000000E+00  0.00000000000E+00  0.14785723862E+03  0.14785723862E+03  0.00000000000E+00 0.  1.
          2   -1    0    0  501    0  0.00000000000E+00 -0.00000000000E+00 -0.23443719881E+04  0.23443719881E+04  0.00000000000E+00 0. -1.
         24    2    1    2    0    0  0.51665232061E+02  0.10761953610E+03 -0.59206421661E+01  0.14366776676E+03  0.79712686869E+02 0.  0.
        254    2    1    2    0    0 -0.51665232061E+02 -0.10761953610E+03 -0.21905941073E+04  0.23485614600E+04  0.83832399909E+03 0.  0.
         23    2    4    4    0    0  0.15650342267E+03 -0.50774481848E+02 -0.49506160733E+02  0.19455638815E+03  0.91268608538E+02 0.  0.
         23    2    4    4    0    0 -0.20816865473E+03 -0.56845054256E+02 -0.21410879466E+04  0.21540050718E+04  0.94417717495E+02 0.  0.
          4    1    3    3  502    0  0.36164309674E+02  0.21116127170E+02 -0.31200468976E+02  0.52222766923E+02  0.00000000000E+00 0. -1.
         -3    1    3    3    0  502  0.15500922388E+02  0.86503408934E+02  0.25279826810E+02  0.91444999840E+02  0.00000000000E+00 0.  1.
         11    1    5    5    0    0  0.11889451918E+03 -0.23157955420E+02  0.69333983377E+01  0.12132711817E+03  0.00000000000E+00 0. -1.
        -11    1    5    5    0    0  0.37608903488E+02 -0.27616526428E+02 -0.56439559071E+02  0.73229269979E+02  0.00000000000E+00 0.  1.
          1    1    6    6  503    0 -0.16477099974E+03 -0.81107110482E+02 -0.17936864193E+04  0.18030637306E+04  0.00000000000E+00 0. -1.
         -1    1    6    6    0  503 -0.43397654996E+02  0.24262056227E+02 -0.34740152729E+03  0.35094134124E+03  0.00000000000E+00 0.  1.
<mgrwt>
<rscale>  0 0.11775099E+04</rscale>
<asrwt>0</asrwt>
<pdfrwt beam="1">  1        2 0.36067260E+00 0.11775099E+04</pdfrwt>
<pdfrwt beam="2">  1       -1 0.22747268E-01 0.11775099E+04</pdfrwt>
<totfact> 0.79636472E+01</totfact>
</mgrwt>
</event>
<event>
12    6  0.1538774E-007  0.1858092E+04  0.7818608E-02  0.8676002E-01
         -1   -1    0    0    0  501 -0.00000000000E+00  0.00000000000E+00  0.86506068733E+03  0.86506068733E+03  0.00000000000E+00 0.  1.
          2   -1    0    0  501    0  0.00000000000E+00 -0.00000000000E+00 -0.99776454637E+03  0.99776454637E+03  0.00000000000E+00 0. -1.
         24    2    1    2    0    0 -0.60155236198E+03  0.11443999147E+03  0.29521439004E+03  0.68302806117E+03  0.66438245109E+02 0.  0.
        254    2    1    2    0    0  0.60155236198E+03 -0.11443999147E+03 -0.42791824907E+03  0.11797971725E+04  0.91315145763E+03 0.  0.
         23    2    4    4    0    0  0.54558399724E+03 -0.31248809933E+03 -0.61843598379E+03  0.88654473999E+03  0.90486461334E+02 0.  0.
         23    2    4    4    0    0  0.55968364736E+02  0.19804810786E+03  0.19051773472E+03  0.29325243254E+03  0.85699889574E+02 0.  0.
          2    1    3    3  502    0 -0.82930115573E+02 -0.35610645660E+01  0.53877299548E+02  0.98958823035E+02  0.00000000000E+00 0. -1.
         -1    1    3    3    0  502 -0.51862224640E+03  0.11800105603E+03  0.24133709049E+03  0.58406923814E+03  0.00000000000E+00 0.  1.
         11    1    5    5    0    0  0.33513967863E+03 -0.21883966454E+03 -0.33995255787E+03  0.52514487960E+03  0.00000000000E+00 0. -1.
        -11    1    5    5    0    0  0.21044431861E+03 -0.93648434781E+02 -0.27848342592E+03  0.36139986038E+03  0.00000000000E+00 0.  1.
          1    1    6    6  503    0  0.17197474726E+02  0.86547923345E+02  0.28377241581E+02  0.92690689997E+02  0.00000000000E+00 0. -1.
         -1    1    6    6    0  503  0.38770890010E+02  0.11150018451E+03  0.16214049314E+03  0.20056174255E+03  0.00000000000E+00 0.  1.
<mgrwt>
<rscale>  0 0.18580924E+04</rscale>
<asrwt>0</asrwt>
<pdfrwt beam="1">  1        2 0.15350224E+00 0.18580924E+04</pdfrwt>
<pdfrwt beam="2">  1       -1 0.13308626E+00 0.18580924E+04</pdfrwt>
<totfact> 0.12945942E+01</totfact>
</mgrwt>
</event>
<event>
12    6  0.1538774E-007  0.1279507E+04  0.7818608E-02  0.9045976E-01
         -1   -1    0    0    0  501 -0.00000000000E+00  0.00000000000E+00  0.67479159704E+03  0.67479159704E+03  0.00000000000E+00 0.  1.
          2   -1    0    0  501    0  0.00000000000E+00 -0.00000000000E+00 -0.60653469888E+03  0.60653469888E+03  0.00000000000E+00 0. -1.
         24    2    1    2    0    0 -0.35323144041E+02  0.27706735149E+03 -0.14149563211E+03  0.32178629970E+03  0.74238581626E+02 0.  0.
        254    2    1    2    0    0  0.35323144041E+02 -0.27706735149E+03  0.20975253027E+03  0.95953999622E+03  0.89370399945E+03 0.  0.
         23    2    4    4    0    0 -0.10861082747E+03 -0.29935607162E+03  0.51334533452E+03  0.61068705024E+03  0.89469946893E+02 0.  0.
         23    2    4    4    0    0  0.14393397151E+03  0.22288720134E+02 -0.30359280424E+03  0.34885294598E+03  0.91192170352E+02 0.  0.
          2    1    3    3  502    0  0.15822157125E+02  0.16107024288E+03 -0.71027960621E+02  0.17674539594E+03  0.00000000000E+00 0. -1.
         -1    1    3    3    0  502 -0.51145301166E+02  0.11599710861E+03 -0.70467671494E+02  0.14504090376E+03  0.00000000000E+00 0.  1.
         11    1    5    5    0    0  0.85101679119E+01 -0.47159016816E+02  0.43475840297E+02  0.64703512381E+02  0.00000000000E+00 0. -1.
        -11    1    5    5    0    0 -0.11712099538E+03 -0.25219705481E+03  0.46986949422E+03  0.54598353786E+03  0.00000000000E+00 0.  1.
          3    1    6    6  503    0  0.84659147789E+01  0.26712956483E+02 -0.10312354277E+03  0.10686308451E+03  0.00000000000E+00 0. -1.
         -3    1    6    6    0  503  0.13546805673E+03 -0.44242363497E+01 -0.20046926148E+03  0.24198986148E+03  0.00000000000E+00 0.  1.
<mgrwt>
<rscale>  0 0.12795070E+04</rscale>
<asrwt>0</asrwt>
<pdfrwt beam="1">  1        2 0.93313031E-01 0.12795070E+04</pdfrwt>
<pdfrwt beam="2">  1       -1 0.10381409E+00 0.12795070E+04</pdfrwt>
<totfact> 0.48021696E+01</totfact>
</mgrwt>
</event>
<event>
12    6  0.1538774E-007  0.3928998E+04  0.7818608E-02  0.8019025E-01
          2   -1    0    0  501    0  0.00000000000E+00  0.00000000000E+00  0.39095793337E+04  0.39095793337E+04  0.00000000000E+00 0. -1.
         -1   -1    0    0    0  501 -0.00000000000E+00 -0.00000000000E+00 -0.98712840906E+03  0.98712840906E+03  0.00000000000E+00 0.  1.
         24    2    1    2    0    0 -0.79033650660E+03 -0.16468204535E+04  0.18256603723E+04  0.25838207777E+04  0.80278369444E+02 0.  0.
        254    2    1    2    0    0  0.79033650660E+03  0.16468204535E+04  0.10967905524E+04  0.23128869651E+04  0.89991510580E+03 0.  0.
         23    2    4    4    0    0  0.24369224515E+03  0.49571529425E+03  0.84080437109E+03  0.10103224967E+04  0.93166483686E+02 0.  0.
         23    2    4    4    0    0  0.54664426145E+03  0.11511051593E+04  0.25598618130E+03  0.13025644683E+04  0.85335999996E+02 0.  0.
          2    1    3    3  502    0 -0.46125485530E+03 -0.10267700508E+04  0.10863847068E+04  0.15643671276E+04  0.00000000000E+00 0. -1.
         -3    1    3    3    0  502 -0.32908165130E+03 -0.62005040272E+03  0.73927566553E+03  0.10194536501E+04  0.00000000000E+00 0.  1.
         11    1    5    5    0    0  0.18973416619E+02  0.10765128245E+03  0.12955858341E+03  0.16951169779E+03  0.00000000000E+00 0.  1.
        -11    1    5    5    0    0  0.22471882853E+03  0.38806401180E+03  0.71124578767E+03  0.84081079895E+03  0.00000000000E+00 0. -1.
          3    1    6    6  503    0  0.48827634018E+03  0.10485903832E+04  0.20820820947E+03  0.11752898513E+04  0.00000000000E+00 0. -1.
         -3    1    6    6    0  503  0.58367921261E+02  0.10251477604E+03  0.47777971828E+02  0.12727461700E+03  0.00000000000E+00 0.  1.
<mgrwt>
<rscale>  0 0.39289983E+04</rscale>
<asrwt>0</asrwt>
<pdfrwt beam="1">  1        2 0.60147374E+00 0.39289983E+04</pdfrwt>
<pdfrwt beam="2">  1       -1 0.15186591E+00 0.39289983E+04</pdfrwt>
<totfact> 0.12230674E-01</totfact>
</mgrwt>
</event>
<event>
12    6  0.1538774E-007  0.4180746E+04  0.7818608E-02  0.7969045E-01
         -1   -1    0    0    0  501 -0.00000000000E+00  0.00000000000E+00  0.98350040887E+03  0.98350040887E+03  0.00000000000E+00 0.  1.
          2   -1    0    0  501    0  0.00000000000E+00 -0.00000000000E+00 -0.44429661564E+04  0.44429661564E+04  0.00000000000E+00 0. -1.
         24    2    1    2    0    0 -0.14079907892E+04  0.13637383831E+04 -0.11789427789E+04  0.22887685129E+04  0.79591392774E+02 0.  0.
        254    2    1    2    0    0  0.14079907892E+04 -0.13637383831E+04 -0.22805229687E+04  0.31376980524E+04  0.89562470786E+03 0.  0.
         23    2    4    4    0    0  0.13732830031E+04 -0.10663425843E+04 -0.22170735416E+04  0.28189630344E+04  0.90248469240E+02 0.  0.
         23    2    4    4    0    0  0.34707786058E+02 -0.29739579874E+03 -0.63449427039E+02  0.31873501802E+03  0.88979157091E+02 0.  0.
          4    1    3    3  502    0 -0.78971595813E+03  0.73380820344E+03 -0.68629348744E+03  0.12779376060E+04  0.00000000000E+00 0. -1.
         -3    1    3    3    0  502 -0.61827483108E+03  0.62993017963E+03 -0.49264929141E+03  0.10108309069E+04  0.00000000000E+00 0.  1.
         11    1    5    5    0    0  0.59979239599E+03 -0.50802934149E+03 -0.10502971827E+04  0.13118570433E+04  0.00000000000E+00 0. -1.
        -11    1    5    5    0    0  0.77349060716E+03 -0.55831324283E+03 -0.11667763590E+04  0.15071059911E+04  0.00000000000E+00 0.  1.
          2    1    6    6  503    0 -0.63174487488E+01 -0.12792718432E+00  0.80653144316E+01  0.10245770881E+02  0.00000000000E+00 0. -1.
         -2    1    6    6    0  503  0.41025234807E+02 -0.29726787156E+03 -0.71514741471E+02  0.30848924714E+03  0.00000000000E+00 0.  1.
<mgrwt>
<rscale>  0 0.41807459E+04</rscale>
<asrwt>0</asrwt>
<pdfrwt beam="1">  1        2 0.68353326E+00 0.41807459E+04</pdfrwt>
<pdfrwt beam="2">  1       -1 0.15130775E+00 0.41807459E+04</pdfrwt>
<totfact> 0.41687038E-02</totfact>
</mgrwt>
</event>
<event>
12    6  0.1538774E-007  0.3210007E+04  0.7818608E-02  0.8186179E-01
          2   -1    0    0  501    0  0.00000000000E+00  0.00000000000E+00  0.17553949635E+04  0.17553949635E+04  0.00000000000E+00 0. -1.
         -1   -1    0    0    0  501 -0.00000000000E+00 -0.00000000000E+00 -0.14674966565E+04  0.14674966565E+04  0.00000000000E+00 0.  1.
         24    2    1    2    0    0  0.14492695095E+04 -0.22471364041E+03  0.33373875033E+03  0.15061102053E+04  0.78154114826E+02 0.  0.
        254    2    1    2    0    0 -0.14492695095E+04  0.22471364041E+03 -0.45840443368E+02  0.17167814147E+04  0.89126805619E+03 0.  0.
         23    2    4    4    0    0 -0.84459039471E+02  0.18441426314E+03  0.23121931634E+03  0.32056021249E+03  0.90302424025E+02 0.  0.
         23    2    4    4    0    0 -0.13648104701E+04  0.40299377271E+02 -0.27705975971E+03  0.13962212022E+04  0.91322920971E+02 0.  0.
          2    1    3    3  502    0  0.11264335066E+04 -0.14570416762E+03  0.27435584075E+03  0.11684833232E+04  0.00000000000E+00 0. -1.
         -1    1    3    3    0  502  0.32283600291E+03 -0.79009472787E+02  0.59382909575E+02  0.33762688210E+03  0.00000000000E+00 0.  1.
         11    1    5    5    0    0 -0.57937097732E+02  0.17220575013E+03  0.22746679149E+03  0.29112311640E+03  0.00000000000E+00 0.  1.
        -11    1    5    5    0    0 -0.26521941740E+02  0.12208513005E+02  0.37525248538E+01  0.29437096090E+02  0.00000000000E+00 0. -1.
          1    1    6    6  503    0 -0.15594425420E+03 -0.10131798274E+02 -0.64248878178E+01  0.15640506046E+03  0.00000000000E+00 0. -1.
         -1    1    6    6    0  503 -0.12088662159E+04  0.50431175545E+02 -0.27063487189E+03  0.12398161417E+04  0.00000000000E+00 0.  1.
<mgrwt>
<rscale>  0 0.32100070E+04</rscale>
<asrwt>0</asrwt>
<pdfrwt beam="1">  1        2 0.27006076E+00 0.32100070E+04</pdfrwt>
<pdfrwt beam="2">  1       -1 0.22576872E+00 0.32100070E+04</pdfrwt>
<totfact> 0.88088378E-01</totfact>
</mgrwt>
</event>
<event>
12    6  0.1538774E-007  0.2093464E+04  0.7818608E-02  0.8564128E-01
          4   -1    0    0  501    0  0.00000000000E+00  0.00000000000E+00  0.23428862630E+04  0.23428862630E+04  0.00000000000E+00 0. -1.
         -1   -1    0    0    0  501 -0.00000000000E+00 -0.00000000000E+00 -0.46764881562E+03  0.46764881562E+03  0.00000000000E+00 0.  1.
         24    2    1    2    0    0  0.91109903515E+02 -0.27980132614E+03  0.18375550716E+04  0.18627814048E+04  0.82195646467E+02 0.  0.
        254    2    1    2    0    0 -0.91109903515E+02  0.27980132614E+03  0.37682375834E+02  0.94775367386E+03  0.90012625128E+03 0.  0.
         23    2    4    4    0    0  0.27569638609E+03 -0.77296088896E+02 -0.21708340388E+03  0.36840170838E+03  0.81310711709E+02 0.  0.
         23    2    4    4    0    0 -0.36680628960E+03  0.35709741504E+03  0.25476577971E+03  0.57935196548E+03  0.93154063106E+02 0.  0.
          4    1    3    3  502    0  0.82255922994E+02 -0.17647462163E+03  0.13768435710E+04  0.13905421777E+04  0.00000000000E+00 0. -1.
         -3    1    3    3    0  502  0.88539805211E+01 -0.10332670451E+03  0.46071150056E+03  0.47223922707E+03  0.00000000000E+00 0.  1.
         11    1    5    5    0    0  0.26059935337E+03 -0.48694674520E+02 -0.18918761239E+03  0.32569179754E+03  0.00000000000E+00 0.  1.
        -11    1    5    5    0    0  0.15097032715E+02 -0.28601414376E+02 -0.27895791490E+02  0.42709910840E+02  0.00000000000E+00 0. -1.
          3    1    6    6  503    0 -0.26986953794E+03  0.26081249296E+03  0.13881306180E+03  0.40015220868E+03  0.00000000000E+00 0. -1.
         -3    1    6    6    0  503 -0.96936751666E+02  0.96284922082E+02  0.11595271792E+03  0.17919975680E+03  0.00000000000E+00 0.  1.
<mgrwt>
<rscale>  0 0.20934641E+04</rscale>
<asrwt>0</asrwt>
<pdfrwt beam="1">  1        4 0.36044403E+00 0.20934641E+04</pdfrwt>
<pdfrwt beam="2">  1       -1 0.71945973E-01 0.20934641E+04</pdfrwt>
<totfact> 0.92334696E-02</totfact>
</mgrwt>
</event>
<event>
12    6  0.1538774E-007  0.1361812E+04  0.7818608E-02  0.8981935E-01
          2   -1    0    0  501    0  0.00000000000E+00  0.00000000000E+00  0.14837048437E+04  0.14837048437E+04  0.00000000000E+00 0. -1.
         -1   -1    0    0    0  501 -0.00000000000E+00 -0.00000000000E+00 -0.31248325297E+03  0.31248325297E+03  0.00000000000E+00 0.  1.
         24    2    1    2    0    0 -0.14817747042E+03 -0.34870014162E+02 -0.13184747814E+03  0.21657887426E+03  0.79687958062E+02 0.  0.
        254    2    1    2    0    0  0.14817747042E+03  0.34870014162E+02  0.13030690688E+04  0.15796092224E+04  0.87977486700E+03 0.  0.
         23    2    4    4    0    0  0.35751562991E+03  0.60843267448E+02  0.12983812141E+04  0.13511705314E+04  0.91371215634E+02 0.  0.
         23    2    4    4    0    0 -0.20933815950E+03 -0.25973253286E+02  0.46878547311E+01  0.22843869094E+03  0.87551040120E+02 0.  0.
          2    1    3    3  502    0 -0.73256035607E+02  0.22233408437E+02 -0.47226959810E+02  0.89950858453E+02  0.00000000000E+00 0. -1.
         -1    1    3    3    0  502 -0.74921434808E+02 -0.57103422599E+02 -0.84620518327E+02  0.12662801581E+03  0.00000000000E+00 0.  1.
         11    1    5    5    0    0  0.20678743627E+03  0.80127188030E+02  0.79521101846E+03  0.82555555473E+03  0.00000000000E+00 0. -1.
        -11    1    5    5    0    0  0.15072819365E+03 -0.19283920582E+02  0.50317019564E+03  0.52561497671E+03  0.00000000000E+00 0.  1.
          3    1    6    6  503    0 -0.22868147602E+02 -0.34015427699E+02 -0.63143218577E+01  0.41471341392E+02  0.00000000000E+00 0. -1.
         -3    1    6    6    0  503 -0.18647001190E+03  0.80421744128E+01  0.11002176589E+02  0.18696734954E+03  0.00000000000E+00 0.  1.
<mgrwt>
<rscale>  0 0.13618119E+04</rscale>
<asrwt>0</asrwt>
<pdfrwt beam="1">  1        2 0.22826228E+00 0.13618119E+04</pdfrwt>
<pdfrwt beam="2">  1       -1 0.48074347E-01 0.13618119E+04</pdfrwt>
<totfact> 0.62352271E+01</totfact>
</mgrwt>
</event>
<event>
12    6  0.1538774E-007  0.1438368E+04  0.7818608E-02  0.8926505E-01
          2   -1    0    0  501    0  0.00000000000E+00  0.00000000000E+00  0.98035969846E+03  0.98035969846E+03  0.00000000000E+00 0. -1.
         -1   -1    0    0    0  501 -0.00000000000E+00 -0.00000000000E+00 -0.52758759998E+03  0.52758759998E+03  0.00000000000E+00 0.  1.
         24    2    1    2    0    0 -0.22765767983E+03  0.35535052581E+03  0.23441251562E+03  0.48972494575E+03  0.82336380976E+02 0.  0.
        254    2    1    2    0    0  0.22765767983E+03 -0.35535052581E+03  0.21835958286E+03  0.10182223527E+04  0.90055196224E+03 0.  0.
         23    2    4    4    0    0  0.23393565299E+03 -0.63964964468E+03  0.89356735268E+02  0.69283581901E+03  0.90328778827E+02 0.  0.
         23    2    4    4    0    0 -0.62779731676E+01  0.28429911887E+03  0.12900284759E+03  0.32538653367E+03  0.91483657939E+02 0.  0.
          2    1    3    3  502    0 -0.46485285056E+02  0.75857605277E+02  0.90438887874E+02  0.12686390521E+03  0.00000000000E+00 0. -1.
         -1    1    3    3    0  502 -0.18117239477E+03  0.27949292054E+03  0.14397362774E+03  0.36286104054E+03  0.00000000000E+00 0.  1.
         11    1    5    5    0    0  0.19122449047E+03 -0.53466718224E+03  0.10788751592E+03  0.57799266225E+03  0.00000000000E+00 0. -1.
        -11    1    5    5    0    0  0.42711162520E+02 -0.10498246244E+03 -0.18530780647E+02  0.11484315676E+03  0.00000000000E+00 0.  1.
          2    1    6    6  503    0 -0.18167555606E+02  0.21770933484E+03  0.13606898018E+03  0.25737556589E+03  0.00000000000E+00 0.  1.
         -2    1    6    6    0  503  0.11889582438E+02  0.66589784031E+02 -0.70661325897E+01  0.68010967774E+02  0.00000000000E+00 0. -1.
<mgrwt>
<rscale>  0 0.14383680E+04</rscale>
<asrwt>0</asrwt>
<pdfrwt beam="1">  1        2 0.15082457E+00 0.14383680E+04</pdfrwt>
<pdfrwt beam="2">  1       -1 0.81167323E-01 0.14383680E+04</pdfrwt>
<totfact> 0.43449046E+01</totfact>
</mgrwt>
</event>
<event>
12    6  0.1538774E-007  0.1024786E+04  0.7818608E-02  0.9281770E-01
          2   -1    0    0  501    0  0.00000000000E+00  0.00000000000E+00  0.93725532237E+03  0.93725532237E+03  0.00000000000E+00 0. -1.
         -1   -1    0    0    0  501 -0.00000000000E+00 -0.00000000000E+00 -0.28012271899E+03  0.28012271899E+03  0.00000000000E+00 0.  1.
         24    2    1    2    0    0  0.66025089833E+02 -0.64130077060E+01  0.13554788991E+03  0.17268473294E+03  0.83942524249E+02 0.  0.
        254    2    1    2    0    0 -0.66025089833E+02  0.64130077060E+01  0.52158471348E+03  0.10446933084E+04  0.90273642675E+03 0.  0.
         23    2    4    4    0    0  0.24037656947E+03  0.35122610457E+03  0.24500528829E+03  0.49947694706E+03  0.91153484124E+02 0.  0.
         23    2    4    4    0    0 -0.30640165930E+03 -0.34481309686E+03  0.27657942518E+03  0.54521636137E+03  0.89368079724E+02 0.  0.
          4    1    3    3  502    0  0.56054156534E+02 -0.36201559686E+02  0.12074987953E+03  0.13796070018E+03  0.00000000000E+00 0. -1.
         -3    1    3    3    0  502  0.99709332994E+01  0.29788551980E+02  0.14798010379E+02  0.34724032760E+02  0.00000000000E+00 0.  1.
         11    1    5    5    0    0  0.10059536445E+02  0.42122403685E+02  0.11053645901E+01  0.43321045654E+02  0.00000000000E+00 0. -1.
        -11    1    5    5    0    0  0.23031703302E+03  0.30910370088E+03  0.24389992370E+03  0.45615590140E+03  0.00000000000E+00 0.  1.
          4    1    6    6  503    0 -0.87283457202E+02 -0.53460179176E+02  0.86904163088E+02  0.13427109228E+03  0.00000000000E+00 0. -1.
         -4    1    6    6    0  503 -0.21911820210E+03 -0.29135291769E+03  0.18967526210E+03  0.41094526909E+03  0.00000000000E+00 0.  1.
<mgrwt>
<rscale>  0 0.10247858E+04</rscale>
<asrwt>0</asrwt>
<pdfrwt beam="1">  1        2 0.14419313E+00 0.10247858E+04</pdfrwt>
<pdfrwt beam="2">  1       -1 0.43095803E-01 0.10247858E+04</pdfrwt>
<totfact> 0.16698654E+02</totfact>
</mgrwt>
</event>
<event>
12    6  0.1538774E-007  0.1604299E+04  0.7818608E-02  0.8817911E-01
          2   -1    0    0  501    0  0.00000000000E+00  0.00000000000E+00  0.14979562709E+04  0.14979562709E+04  0.00000000000E+00 0. -1.
         -1   -1    0    0    0  501 -0.00000000000E+00 -0.00000000000E+00 -0.42954788741E+03  0.42954788741E+03  0.00000000000E+00 0.  1.
         24    2    1    2    0    0  0.26900655060E+03  0.22938591765E+03  0.90630643013E+03  0.97605157148E+03  0.79390814461E+02 0.  0.
        254    2    1    2    0    0 -0.26900655060E+03 -0.22938591765E+03  0.16210195337E+03  0.95145258684E+03  0.86833320692E+03 0.  0.
         23    2    4    4    0    0  0.30743225128E+03 -0.73954125096E+02  0.87022825810E+01  0.32838671715E+03  0.88194696767E+02 0.  0.
         23    2    4    4    0    0 -0.57643880187E+03 -0.15543179256E+03  0.15339967079E+03  0.62306586969E+03  0.90768301337E+02 0.  0.
          2    1    3    3  502    0  0.27215905651E+03  0.21293931387E+03  0.86673440283E+03  0.93308211239E+03  0.00000000000E+00 0. -1.
         -1    1    3    3    0  502 -0.31525059080E+01  0.16446603784E+02  0.39572027304E+02  0.42969459090E+02  0.00000000000E+00 0.  1.
         11    1    5    5    0    0  0.23340072466E+02 -0.23664935298E+02 -0.19444443730E+02  0.38508110020E+02  0.00000000000E+00 0. -1.
        -11    1    5    5    0    0  0.28409217881E+03 -0.50289189798E+02  0.28146726311E+02  0.28987860713E+03  0.00000000000E+00 0.  1.
          4    1    6    6  503    0 -0.23854100263E+03 -0.46823277243E+02  0.10521792681E+03  0.26488684631E+03  0.00000000000E+00 0. -1.
         -4    1    6    6    0  503 -0.33789779924E+03 -0.10860851531E+03  0.48181743979E+02  0.35817902337E+03  0.00000000000E+00 0.  1.
<mgrwt>
<rscale>  0 0.16042992E+04</rscale>
<asrwt>0</asrwt>
<pdfrwt beam="1">  1        2 0.23045481E+00 0.16042992E+04</pdfrwt>
<pdfrwt beam="2">  1       -1 0.66084291E-01 0.16042992E+04</pdfrwt>
<totfact> 0.32263711E+01</totfact>
</mgrwt>
</event>
<event>
12    6  0.1538774E-007  0.1560464E+04  0.7818608E-02  0.8845211E-01
         -1   -1    0    0    0  501 -0.00000000000E+00  0.00000000000E+00  0.13951533281E+04  0.13951533281E+04  0.00000000000E+00 0.  1.
          2   -1    0    0  501    0  0.00000000000E+00 -0.00000000000E+00 -0.43634070143E+03  0.43634070143E+03  0.00000000000E+00 0. -1.
         24    2    1    2    0    0 -0.88284785331E+00  0.31492814247E+03  0.80352187046E+03  0.86720187439E+03  0.84918668689E+02 0.  0.
        254    2    1    2    0    0  0.88284785331E+00 -0.31492814247E+03  0.15529075617E+03  0.96429215510E+03  0.89808887483E+03 0.  0.
         23    2    4    4    0    0 -0.33401704242E+03 -0.26101842487E+03 -0.18844716943E+03  0.47286012063E+03  0.91577045528E+02 0.  0.
         23    2    4    4    0    0  0.33489989027E+03 -0.53909717601E+02  0.34373792560E+03  0.49143203447E+03  0.91024660702E+02 0.  0.
          4    1    3    3  502    0  0.28417987189E+02  0.55179087920E+02  0.11410226159E+03  0.12989087666E+03  0.00000000000E+00 0. -1.
         -3    1    3    3    0  502 -0.29300835042E+02  0.25974905455E+03  0.68941960887E+03  0.73731099773E+03  0.00000000000E+00 0.  1.
         11    1    5    5    0    0 -0.17431506492E+02 -0.46186332955E+02 -0.35597343023E+02  0.60862185310E+02  0.00000000000E+00 0.  1.
        -11    1    5    5    0    0 -0.31658553592E+03 -0.21483209191E+03 -0.15284982641E+03  0.41199793532E+03  0.00000000000E+00 0. -1.
          4    1    6    6  503    0  0.19540733530E+03 -0.10138253904E+02  0.13969760748E+03  0.24042094837E+03  0.00000000000E+00 0. -1.
         -4    1    6    6    0  503  0.13949255497E+03 -0.43771463697E+02  0.20404031812E+03  0.25101108611E+03  0.00000000000E+00 0.  1.
<mgrwt>
<rscale>  0 0.15604643E+04</rscale>
<asrwt>0</asrwt>
<pdfrwt beam="1">  1        2 0.67129339E-01 0.15604643E+04</pdfrwt>
<pdfrwt beam="2">  1       -1 0.21463897E+00 0.15604643E+04</pdfrwt>
<totfact> 0.94753442E+00</totfact>
</mgrwt>
</event>
<event>
12    6  0.1538774E-007  0.1756840E+04  0.7818608E-02  0.8729594E-01
         -1   -1    0    0    0  501 -0.00000000000E+00  0.00000000000E+00  0.20931652669E+04  0.20931652669E+04  0.00000000000E+00 0.  1.
          2   -1    0    0  501    0  0.00000000000E+00 -0.00000000000E+00 -0.36863863007E+03  0.36863863007E+03  0.00000000000E+00 0. -1.
         24    2    1    2    0    0  0.38753051748E+03 -0.50008297430E+03  0.72463309961E+03  0.96545202197E+03  0.82107213525E+02 0.  0.
        254    2    1    2    0    0 -0.38753051748E+03  0.50008297430E+03  0.99989353718E+03  0.14963518750E+04  0.91597978408E+03 0.  0.
         23    2    4    4    0    0 -0.38787835280E+03  0.27202440219E+03  0.11209933608E+04  0.12205437609E+04  0.93027228416E+02 0.  0.
         23    2    4    4    0    0  0.34783532253E+00  0.22805857211E+03 -0.12109982365E+03  0.27580811408E+03  0.96923243874E+02 0.  0.
          2    1    3    3  502    0  0.74911356442E+02 -0.98992342892E+02  0.19536192849E+03  0.23146809365E+03  0.00000000000E+00 0. -1.
         -1    1    3    3    0  502  0.31261916104E+03 -0.40109063141E+03  0.52927117112E+03  0.73398392832E+03  0.00000000000E+00 0.  1.
         11    1    5    5    0    0 -0.29980535293E+03  0.25212483836E+03  0.88269378401E+03  0.96571139586E+03  0.00000000000E+00 0.  1.
        -11    1    5    5    0    0 -0.88072999869E+02  0.19899563834E+02  0.23829957682E+03  0.25483236502E+03  0.00000000000E+00 0. -1.
          2    1    6    6  503    0 -0.42975848388E+02  0.60973980742E+02 -0.45415017509E+02  0.87334264109E+02  0.00000000000E+00 0. -1.
         -2    1    6    6    0  503  0.43323683711E+02  0.16708459137E+03 -0.75684806146E+02  0.18847384997E+03  0.00000000000E+00 0.  1.
<mgrwt>
<rscale>  0 0.17568399E+04</rscale>
<asrwt>0</asrwt>
<pdfrwt beam="1">  1        2 0.56713637E-01 0.17568399E+04</pdfrwt>
<pdfrwt beam="2">  1       -1 0.32202542E+00 0.17568399E+04</pdfrwt>
<totfact> 0.22468971E+00</totfact>
</mgrwt>
</event>
<event>
12    6  0.1538774E-007  0.1407043E+04  0.7818608E-02  0.8948736E-01
         -1   -1    0    0    0  501 -0.00000000000E+00  0.00000000000E+00  0.60101075617E+03  0.60101075617E+03  0.00000000000E+00 0.  1.
          2   -1    0    0  501    0  0.00000000000E+00 -0.00000000000E+00 -0.82351657955E+03  0.82351657955E+03  0.00000000000E+00 0. -1.
         24    2    1    2    0    0 -0.17247970847E+03  0.33980513175E+03 -0.12578490551E+03  0.40881169308E+03  0.78028075365E+02 0.  0.
        254    2    1    2    0    0  0.17247970847E+03 -0.33980513175E+03 -0.96720917866E+02  0.10157156426E+04  0.93653966992E+03 0.  0.
         23    2    4    4    0    0  0.45146895243E+03 -0.49555917176E+03 -0.10420758619E+03  0.68479187850E+03  0.93153572723E+02 0.  0.
         23    2    4    4    0    0 -0.27898924396E+03  0.15575404002E+03  0.74866683227E+01  0.33092376413E+03  0.85791422884E+02 0.  0.
          4    1    3    3  502    0 -0.12644057811E+03  0.21812290444E+03 -0.11830141532E+03  0.27849604324E+03  0.00000000000E+00 0. -1.
         -3    1    3    3    0  502 -0.46039130360E+02  0.12168222731E+03 -0.74834901968E+01  0.13031564984E+03  0.00000000000E+00 0.  1.
         11    1    5    5    0    0  0.16042138474E+03 -0.20590937033E+03  0.54345213497E+00  0.26102487393E+03  0.00000000000E+00 0.  1.
        -11    1    5    5    0    0  0.29104756769E+03 -0.28964980144E+03 -0.10475103832E+03  0.42376700457E+03  0.00000000000E+00 0. -1.
          2    1    6    6  503    0 -0.18517062759E+03  0.98561680895E+02  0.45521176519E+02  0.21465028250E+03  0.00000000000E+00 0. -1.
         -2    1    6    6    0  503 -0.93818616365E+02  0.57192359122E+02 -0.38034508196E+02  0.11627348164E+03  0.00000000000E+00 0.  1.
<mgrwt>
<rscale>  0 0.14070427E+04</rscale>
<asrwt>0</asrwt>
<pdfrwt beam="1">  1        2 0.12669486E+00 0.14070427E+04</pdfrwt>
<pdfrwt beam="2">  1       -1 0.92463193E-01 0.14070427E+04</pdfrwt>
<totfact> 0.41879584E+01</totfact>
</mgrwt>
</event>
<event>
12    6  0.1538774E-007  0.1529577E+04  0.7818608E-02  0.8865019E-01
          2   -1    0    0  501    0  0.00000000000E+00  0.00000000000E+00  0.10888287758E+04  0.10888287758E+04  0.00000000000E+00 0. -1.
         -1   -1    0    0    0  501 -0.00000000000E+00 -0.00000000000E+00 -0.53718413755E+03  0.53718413755E+03  0.00000000000E+00 0.  1.
         24    2    1    2    0    0  0.36363214424E+03  0.22231159937E+03 -0.66187339213E+02  0.43763572960E+03  0.74118043739E+02 0.  0.
        254    2    1    2    0    0 -0.36363214424E+03 -0.22231159937E+03  0.61783197745E+03  0.11883771837E+04  0.92134314721E+03 0.  0.
         23    2    4    4    0    0  0.19680879148E+02  0.24501843801E+03 -0.66868678263E+02  0.27050474746E+03  0.90994649815E+02 0.  0.
         23    2    4    4    0    0 -0.38331302339E+03 -0.46733003739E+03  0.68470065571E+03  0.91787243627E+03  0.91370583821E+02 0.  0.
          4    1    3    3  502    0  0.55051272481E+02  0.29440589291E+02 -0.36999285210E+02  0.72569539103E+02  0.00000000000E+00 0. -1.
         -3    1    3    3    0  502  0.30858087176E+03  0.19287101008E+03 -0.29188054003E+02  0.36506619049E+03  0.00000000000E+00 0.  1.
         11    1    5    5    0    0 -0.27352887425E+02  0.47580201190E+02  0.51957667657E+01  0.55127597336E+02  0.00000000000E+00 0.  1.
        -11    1    5    5    0    0  0.47033766574E+02  0.19743823682E+03 -0.72064445028E+02  0.21537715012E+03  0.00000000000E+00 0. -1.
          4    1    6    6  503    0 -0.12533627627E+03 -0.11188275138E+03  0.23894424862E+03  0.29209807626E+03  0.00000000000E+00 0. -1.
         -4    1    6    6    0  503 -0.25797674712E+03 -0.35544728601E+03  0.44575640709E+03  0.62577436001E+03  0.00000000000E+00 0.  1.
<mgrwt>
<rscale>  0 0.15295771E+04</rscale>
<asrwt>0</asrwt>
<pdfrwt beam="1">  1        2 0.16751212E+00 0.15295771E+04</pdfrwt>
<pdfrwt beam="2">  1       -1 0.82643714E-01 0.15295771E+04</pdfrwt>
<totfact> 0.35420245E+01</totfact>
</mgrwt>
</event>
<event>
12    6  0.1538774E-007  0.3268278E+04  0.7818608E-02  0.8171014E-01
          2   -1    0    0  501    0  0.00000000000E+00  0.00000000000E+00  0.21176527586E+04  0.21176527586E+04  0.00000000000E+00 0. -1.
         -1   -1    0    0    0  501 -0.00000000000E+00 -0.00000000000E+00 -0.12610237108E+04  0.12610237108E+04  0.00000000000E+00 0.  1.
         24    2    1    2    0    0 -0.63143917261E+03 -0.14454785383E+03 -0.10129008280E+04  0.12048915085E+04  0.78650805487E+02 0.  0.
        254    2    1    2    0    0  0.63143917261E+03  0.14454785383E+03  0.18695298758E+04  0.21737849609E+04  0.90032748976E+03 0.  0.
         23    2    4    4    0    0  0.30134234096E+03 -0.25539759856E+03  0.14360067397E+04  0.14921363906E+04  0.91216840310E+02 0.  0.
         23    2    4    4    0    0  0.33009683166E+03  0.39994545239E+03  0.43352313609E+03  0.68164857024E+03  0.88216668586E+02 0.  0.
          4    1    3    3  502    0 -0.29406969182E+02 -0.19672099098E+02 -0.35043235043E+02  0.49797486298E+02  0.00000000000E+00 0. -1.
         -3    1    3    3    0  502 -0.60203220343E+03 -0.12487575474E+03 -0.97785759292E+03  0.11550940222E+04  0.00000000000E+00 0.  1.
         11    1    5    5    0    0  0.65171340677E+02 -0.29356366941E+02  0.16611152934E+03  0.18083733051E+03  0.00000000000E+00 0.  1.
        -11    1    5    5    0    0  0.23617100028E+03 -0.22604123162E+03  0.12698952104E+04  0.13112990601E+04  0.00000000000E+00 0. -1.
          2    1    6    6  503    0  0.31116658611E+03  0.34013691881E+03  0.40093885624E+03  0.61095804626E+03  0.00000000000E+00 0. -1.
         -2    1    6    6    0  503  0.18930245541E+02  0.59808533587E+02  0.32584279853E+02  0.70690523973E+02  0.00000000000E+00 0.  1.
<mgrwt>
<rscale>  0 0.32682780E+04</rscale>
<asrwt>0</asrwt>
<pdfrwt beam="1">  1        2 0.32579273E+00 0.32682780E+04</pdfrwt>
<pdfrwt beam="2">  1       -1 0.19400365E+00 0.32682780E+04</pdfrwt>
<totfact> 0.90600183E-01</totfact>
</mgrwt>
</event>
<event>
12    6  0.1538774E-007  0.1447961E+04  0.7818608E-02  0.8919815E-01
          2   -1    0    0  501    0  0.00000000000E+00  0.00000000000E+00  0.22126805745E+04  0.22126805745E+04  0.00000000000E+00 0. -1.
         -1   -1    0    0    0  501 -0.00000000000E+00 -0.00000000000E+00 -0.23688359634E+03  0.23688359634E+03  0.00000000000E+00 0.  1.
         24    2    1    2    0    0  0.15281397739E+03 -0.13919019367E+03 -0.44539224620E+02  0.22575256316E+03  0.79085115812E+02 0.  0.
        254    2    1    2    0    0 -0.15281397739E+03  0.13919019367E+03  0.20203362028E+04  0.22238116077E+04  0.90600975300E+03 0.  0.
         23    2    4    4    0    0 -0.33503432273E+03  0.35439993083E+03  0.17622355138E+04  0.18308487350E+04  0.93197510790E+02 0.  0.
         23    2    4    4    0    0  0.18222034533E+03 -0.21520973716E+03  0.25810068905E+03  0.39296287274E+03  0.91018506054E+02 0.  0.
          2    1    3    3  502    0  0.26736293414E+02 -0.71879903068E+01  0.17740948991E+02  0.32882181517E+02  0.00000000000E+00 0. -1.
         -1    1    3    3    0  502  0.12607768398E+03 -0.13200220337E+03 -0.62280173611E+02  0.19287038164E+03  0.00000000000E+00 0.  1.
         11    1    5    5    0    0 -0.11893686380E+03  0.75391951020E+02  0.59456694852E+03  0.61101536815E+03  0.00000000000E+00 0.  1.
        -11    1    5    5    0    0 -0.21609745893E+03  0.27900797981E+03  0.11676685652E+04  0.12198333668E+04  0.00000000000E+00 0. -1.
          2    1    6    6  503    0  0.12336745971E+03 -0.19513313907E+03  0.22564658030E+03  0.32282015315E+03  0.00000000000E+00 0. -1.
         -2    1    6    6    0  503  0.58852885623E+02 -0.20076598087E+02  0.32454108750E+02  0.70142719591E+02  0.00000000000E+00 0.  1.
<mgrwt>
<rscale>  0 0.14479610E+04</rscale>
<asrwt>0</asrwt>
<pdfrwt beam="1">  1        2 0.34041238E+00 0.14479610E+04</pdfrwt>
<pdfrwt beam="2">  1       -1 0.36443632E-01 0.14479610E+04</pdfrwt>
<totfact> 0.40544143E+01</totfact>
</mgrwt>
</event>
<event>
12    6  0.1538774E-007  0.3078672E+04  0.7818608E-02  0.8221616E-01
          2   -1    0    0  501    0  0.00000000000E+00  0.00000000000E+00  0.37952409122E+04  0.37952409122E+04  0.00000000000E+00 0. -1.
         -1   -1    0    0    0  501 -0.00000000000E+00 -0.00000000000E+00 -0.62434911385E+03  0.62434911385E+03  0.00000000000E+00 0.  1.
         24    2    1    2    0    0  0.49423248421E+03  0.79721531648E+02  0.33320454858E+04  0.33702828153E+04  0.75218776743E+02 0.  0.
        254    2    1    2    0    0 -0.49423248421E+03 -0.79721531648E+02 -0.16115368747E+03  0.10493072108E+04  0.90799440556E+03 0.  0.
         23    2    4    4    0    0 -0.40002980786E+03  0.31417643626E+03 -0.31681893865E+03  0.60613833909E+03  0.91097562788E+02 0.  0.
         23    2    4    4    0    0 -0.94202676351E+02 -0.39389796791E+03  0.15566525118E+03  0.44316887168E+03  0.90206568770E+02 0.  0.
          4    1    3    3  502    0  0.44870401957E+03  0.76597665132E+02  0.31438826838E+04  0.31766650483E+04  0.00000000000E+00 0. -1.
         -3    1    3    3    0  502  0.45528464640E+02  0.31238665165E+01  0.18816280194E+03  0.19361776693E+03  0.00000000000E+00 0.  1.
         11    1    5    5    0    0 -0.21946063608E+03  0.22200954906E+03 -0.16682550039E+03  0.35395191516E+03  0.00000000000E+00 0. -1.
        -11    1    5    5    0    0 -0.18056917178E+03  0.92166887197E+02 -0.14999343826E+03  0.25218642393E+03  0.00000000000E+00 0.  1.
          3    1    6    6  503    0 -0.98536289744E+02 -0.22821216032E+03  0.81566263011E+02  0.26161660073E+03  0.00000000000E+00 0. -1.
         -3    1    6    6    0  503  0.43336133937E+01 -0.16568580758E+03  0.74098988172E+02  0.18155227095E+03  0.00000000000E+00 0.  1.
<mgrwt>
<rscale>  0 0.30786720E+04</rscale>
<asrwt>0</asrwt>
<pdfrwt beam="1">  1        2 0.58388320E+00 0.30786720E+04</pdfrwt>
<pdfrwt beam="2">  1       -1 0.96053712E-01 0.30786720E+04</pdfrwt>
<totfact> 0.49916207E-01</totfact>
</mgrwt>
</event>
<event>
12    6  0.1538774E-007  0.1454011E+04  0.7818608E-02  0.8915624E-01
          2   -1    0    0  501    0  0.00000000000E+00  0.00000000000E+00  0.12671784596E+04  0.12671784596E+04  0.00000000000E+00 0. -1.
         -1   -1    0    0    0  501 -0.00000000000E+00 -0.00000000000E+00 -0.41709759894E+03  0.41709759894E+03  0.00000000000E+00 0.  1.
         24    2    1    2    0    0 -0.81428109556E+02  0.34478860466E+03  0.56549386733E+03  0.67220982443E+03  0.81074133563E+02 0.  0.
        254    2    1    2    0    0  0.81428109556E+02 -0.34478860466E+03  0.28458699328E+03  0.10120662341E+04  0.90431111154E+03 0.  0.
         23    2    4    4    0    0 -0.26573312721E+03 -0.72461846971E+02  0.44745246316E+03  0.53347583547E+03  0.92292719531E+02 0.  0.
         23    2    4    4    0    0  0.34716123676E+03 -0.27232675769E+03 -0.16286546988E+03  0.47859039860E+03  0.88548410962E+02 0.  0.
          2    1    3    3  502    0 -0.25130296269E+02  0.25762059491E+03  0.38270262756E+03  0.46201861852E+03  0.00000000000E+00 0. -1.
         -1    1    3    3    0  502 -0.56297813287E+02  0.87168009752E+02  0.18279123977E+03  0.21019120591E+03  0.00000000000E+00 0.  1.
         11    1    5    5    0    0 -0.70914093395E+01 -0.12254051246E+02  0.73340314078E+02  0.74694387523E+02  0.00000000000E+00 0. -1.
        -11    1    5    5    0    0 -0.25864171787E+03 -0.60207795724E+02  0.37411214908E+03  0.45878144795E+03  0.00000000000E+00 0.  1.
          1    1    6    6  503    0  0.32434993926E+02 -0.50797375294E+02 -0.47681869338E+02  0.76850262402E+02  0.00000000000E+00 0. -1.
         -1    1    6    6    0  503  0.31472624284E+03 -0.22152938240E+03 -0.11518360054E+03  0.40174013620E+03  0.00000000000E+00 0.  1.
<mgrwt>
<rscale>  0 0.14540111E+04</rscale>
<asrwt>0</asrwt>
<pdfrwt beam="1">  1        2 0.19495053E+00 0.14540111E+04</pdfrwt>
<pdfrwt beam="2">  1       -1 0.64168862E-01 0.14540111E+04</pdfrwt>
<totfact> 0.47036841E+01</totfact>
</mgrwt>
</event>
<event>
12    6  0.1538774E-007  0.1113450E+04  0.7818608E-02  0.9192181E-01
         -1   -1    0    0    0  501 -0.00000000000E+00  0.00000000000E+00  0.13780809195E+03  0.13780809195E+03  0.00000000000E+00 0.  1.
          2   -1    0    0  501    0  0.00000000000E+00 -0.00000000000E+00 -0.22490885180E+04  0.22490885180E+04  0.00000000000E+00 0. -1.
         24    2    1    2    0    0 -0.67963194392E+02  0.28539173426E+02 -0.32288331997E+02  0.11247485093E+03  0.78578467131E+02 0.  0.
        254    2    1    2    0    0  0.67963194392E+02 -0.28539173426E+02 -0.20789920940E+04  0.22744217590E+04  0.91943065567E+03 0.  0.
         23    2    4    4    0    0 -0.29243009949E+02 -0.59280623255E+02 -0.21272738581E+04  0.21304405115E+04  0.95463917566E+02 0.  0.
         23    2    4    4    0    0  0.97206204340E+02  0.30741449829E+02  0.48281764079E+02  0.14398124755E+03  0.89472833879E+02 0.  0.
          2    1    3    3  502    0 -0.59476384002E+02 -0.21596203507E+01 -0.48464396863E+02  0.76752211547E+02  0.00000000000E+00 0. -1.
         -1    1    3    3    0  502 -0.84868103895E+01  0.30698793777E+02  0.16176064866E+02  0.35722639383E+02  0.00000000000E+00 0.  1.
         11    1    5    5    0    0 -0.42450618457E+02 -0.11202197794E+02 -0.39207682998E+03  0.39452729291E+03  0.00000000000E+00 0. -1.
        -11    1    5    5    0    0  0.13207608509E+02 -0.48078425461E+02 -0.17351970281E+04  0.17359132186E+04  0.00000000000E+00 0.  1.
          3    1    6    6  503    0  0.25753143936E+02  0.22950285123E+02 -0.24017507560E+02  0.42033090288E+02  0.00000000000E+00 0. -1.
         -3    1    6    6    0  503  0.71453060405E+02  0.77911647062E+01  0.72299271639E+02  0.10194815726E+03  0.00000000000E+00 0.  1.
<mgrwt>
<rscale>  0 0.11134498E+04</rscale>
<asrwt>0</asrwt>
<pdfrwt beam="1">  1        2 0.34601359E+00 0.11134498E+04</pdfrwt>
<pdfrwt beam="2">  1       -1 0.21201247E-01 0.11134498E+04</pdfrwt>
<totfact> 0.10201327E+02</totfact>
</mgrwt>
</event>
<event>
12    6  0.1538774E-007  0.1415052E+04  0.7818608E-02  0.8942995E-01
          2   -1    0    0  501    0  0.00000000000E+00  0.00000000000E+00  0.17619472606E+04  0.17619472606E+04  0.00000000000E+00 0. -1.
         -1   -1    0    0    0  501 -0.00000000000E+00 -0.00000000000E+00 -0.28411346264E+03  0.28411346264E+03  0.00000000000E+00 0.  1.
         24    2    1    2    0    0 -0.28549426113E+03 -0.98260537767E+02  0.89245422331E+03  0.94550334363E+03  0.79623650244E+02 0.  0.
        254    2    1    2    0    0  0.28549426113E+03  0.98260537767E+02  0.58537957463E+03  0.11005573796E+04  0.88170017180E+03 0.  0.
         23    2    4    4    0    0 -0.13583805583E+03  0.38168200417E+03  0.27061236653E+03  0.49549708242E+03  0.90294939212E+02 0.  0.
         23    2    4    4    0    0  0.42133231696E+03 -0.28342146641E+03  0.31476720810E+03  0.60506029717E+03  0.95764915178E+02 0.  0.
          2    1    3    3  502    0 -0.27167938517E+03 -0.11008374763E+03  0.82064771251E+03  0.87143031154E+03  0.00000000000E+00 0. -1.
         -1    1    3    3    0  502 -0.13814875962E+02  0.11823209859E+02  0.71806510800E+02  0.74073032087E+02  0.00000000000E+00 0.  1.
         11    1    5    5    0    0 -0.13186418154E+02  0.16622086825E+03  0.98130899218E+02  0.19347592110E+03  0.00000000000E+00 0.  1.
        -11    1    5    5    0    0 -0.12265163767E+03  0.21546113593E+03  0.17248146731E+03  0.30202116132E+03  0.00000000000E+00 0. -1.
          3    1    6    6  503    0  0.41987143386E+03 -0.28096515387E+03  0.32075256099E+03  0.59842764311E+03  0.00000000000E+00 0. -1.
         -3    1    6    6    0  503  0.14608831046E+01 -0.24563125316E+01 -0.59853528848E+01  0.66326540581E+01  0.00000000000E+00 0.  1.
<mgrwt>
<rscale>  0 0.14150519E+04</rscale>
<asrwt>0</asrwt>
<pdfrwt beam="1">  1        2 0.27106880E+00 0.14150519E+04</pdfrwt>
<pdfrwt beam="2">  1       -1 0.43709764E-01 0.14150519E+04</pdfrwt>
<totfact> 0.51882340E+01</totfact>
</mgrwt>
</event>
<event>
12    6  0.1538774E-007  0.1113992E+04  0.7818608E-02  0.9191661E-01
         -1   -1    0    0    0  501 -0.00000000000E+00  0.00000000000E+00  0.21452309515E+03  0.21452309515E+03  0.00000000000E+00 0.  1.
          2   -1    0    0  501    0  0.00000000000E+00 -0.00000000000E+00 -0.14462053153E+04  0.14462053153E+04  0.00000000000E+00 0. -1.
         24    2    1    2    0    0  0.17886173629E+03  0.29620093367E+02 -0.82860013526E+02  0.21500267015E+03  0.80569818745E+02 0.  0.
        254    2    1    2    0    0 -0.17886173629E+03 -0.29620093367E+02 -0.11488222066E+04  0.14457257403E+04  0.85875583437E+03 0.  0.
         23    2    4    4    0    0 -0.15154078192E+03  0.58300272368E+02  0.87256229893E+02  0.20277182989E+03  0.84493993857E+02 0.  0.
         23    2    4    4    0    0 -0.27320954366E+02 -0.87920365735E+02 -0.12360784365E+04  0.12429539104E+04  0.92564015266E+02 0.  0.
          4    1    3    3  502    0 -0.44865040897E+01  0.95056380841E+01 -0.15316508700E+02  0.18576364367E+02  0.00000000000E+00 0. -1.
         -3    1    3    3    0  502  0.18334824038E+03  0.20114455283E+02 -0.67543504826E+02  0.19642630578E+03  0.00000000000E+00 0.  1.
         11    1    5    5    0    0 -0.11941680310E+01  0.18063856869E+02 -0.85386097495E+01  0.20015914136E+02  0.00000000000E+00 0.  1.
        -11    1    5    5    0    0 -0.15034661389E+03  0.40236415499E+02  0.95794839643E+02  0.18275591575E+03  0.00000000000E+00 0. -1.
          4    1    6    6  503    0  0.92841459119E+01 -0.53055343624E+02 -0.25761138310E+03  0.26318185643E+03  0.00000000000E+00 0.  1.
         -4    1    6    6    0  503 -0.36605100278E+02 -0.34865022111E+02 -0.97846705338E+03  0.97977205394E+03  0.00000000000E+00 0. -1.
<mgrwt>
<rscale>  0 0.11139918E+04</rscale>
<asrwt>0</asrwt>
<pdfrwt beam="1">  1        2 0.22249312E+00 0.11139918E+04</pdfrwt>
<pdfrwt beam="2">  1       -1 0.33003554E-01 0.11139918E+04</pdfrwt>
<totfact> 0.13256995E+02</totfact>
</mgrwt>
</event>
<event>
12    6  0.1538774E-007  0.2136882E+04  0.7818608E-02  0.8545168E-01
          2   -1    0    0  501    0  0.00000000000E+00  0.00000000000E+00  0.71595917591E+03  0.71595917591E+03  0.00000000000E+00 0. -1.
         -1   -1    0    0    0  501 -0.00000000000E+00 -0.00000000000E+00 -0.15944569392E+04  0.15944569392E+04  0.00000000000E+00 0.  1.
         24    2    1    2    0    0 -0.34770747465E+02 -0.21713438048E+03 -0.12413570901E+04  0.12632456519E+04  0.80410248182E+02 0.  0.
        254    2    1    2    0    0  0.34770747465E+02  0.21713438048E+03  0.36285932680E+03  0.10471704631E+04  0.95736238894E+03 0.  0.
         23    2    4    4    0    0 -0.11443732545E+03 -0.83492983330E+02 -0.27398701599E+03  0.32090279391E+03  0.88559237164E+02 0.  0.
         23    2    4    4    0    0  0.14920807292E+03  0.30062736381E+03  0.63684634280E+03  0.72626766923E+03  0.96185249062E+02 0.  0.
          4    1    3    3  502    0 -0.18604201929E+02 -0.12857346513E+03 -0.50651983068E+03  0.52291451609E+03  0.00000000000E+00 0. -1.
         -3    1    3    3    0  502 -0.16166545536E+02 -0.88560915348E+02 -0.73483725939E+03  0.74033113585E+03  0.00000000000E+00 0.  1.
         11    1    5    5    0    0 -0.16118424409E+02  0.18931317997E+02 -0.46981718676E+02  0.53155247119E+02  0.00000000000E+00 0.  1.
        -11    1    5    5    0    0 -0.98318901042E+02 -0.10242430133E+03 -0.22700529732E+03  0.26774754680E+03  0.00000000000E+00 0. -1.
          1    1    6    6  503    0  0.15959305193E+03  0.29256286252E+03  0.62616411894E+03  0.70932677561E+03  0.00000000000E+00 0. -1.
         -1    1    6    6    0  503 -0.10384979010E+02  0.80645012836E+01  0.10682223859E+02  0.16940893617E+02  0.00000000000E+00 0.  1.
<mgrwt>
<rscale>  0 0.21368819E+04</rscale>
<asrwt>0</asrwt>
<pdfrwt beam="1">  1        2 0.11014757E+00 0.21368819E+04</pdfrwt>
<pdfrwt beam="2">  1       -1 0.24530107E+00 0.21368819E+04</pdfrwt>
<totfact> 0.31240799E+00</totfact>
</mgrwt>
</event>
<event>
12    6  0.1538774E-007  0.1519127E+04  0.7818608E-02  0.8871832E-01
          2   -1    0    0  501    0  0.00000000000E+00  0.00000000000E+00  0.30906600141E+04  0.30906600141E+04  0.00000000000E+00 0. -1.
         -1   -1    0    0    0  501 -0.00000000000E+00 -0.00000000000E+00 -0.18667102104E+03  0.18667102104E+03  0.00000000000E+00 0.  1.
         24    2    1    2    0    0 -0.29949507540E+03  0.19125471370E+03  0.17176398670E+04  0.17552319102E+04  0.65396331230E+02 0.  0.
        254    2    1    2    0    0  0.29949507540E+03 -0.19125471370E+03  0.11863491261E+04  0.15220991250E+04  0.88492137028E+03 0.  0.
         23    2    4    4    0    0 -0.20817445199E+02 -0.28978821772E+03  0.18316926905E+02  0.30367176661E+03  0.86431793168E+02 0.  0.
         23    2    4    4    0    0  0.32031252060E+03  0.98533504028E+02  0.11680321992E+04  0.12184273584E+04  0.89202281400E+02 0.  0.
          4    1    3    3  502    0 -0.26043213608E+03  0.18973567361E+03  0.15277687669E+04  0.15613782144E+04  0.00000000000E+00 0. -1.
         -3    1    3    3    0  502 -0.39062939318E+02  0.15190400877E+01  0.18987110007E+03  0.19385369575E+03  0.00000000000E+00 0.  1.
         11    1    5    5    0    0 -0.23734223665E+01 -0.32184673083E+02  0.31467394607E+02  0.45074197037E+02  0.00000000000E+00 0.  1.
        -11    1    5    5    0    0 -0.18444022833E+02 -0.25760354464E+03 -0.13150467702E+02  0.25859756958E+03  0.00000000000E+00 0. -1.
          1    1    6    6  503    0  0.13713394811E+03  0.39288468084E+02  0.65761455932E+03  0.67290876951E+03  0.00000000000E+00 0. -1.
         -1    1    6    6    0  503  0.18317857249E+03  0.59245035944E+02  0.51041763987E+03  0.54551858887E+03  0.00000000000E+00 0.  1.
<mgrwt>
<rscale>  0 0.15191269E+04</rscale>
<asrwt>0</asrwt>
<pdfrwt beam="1">  1        2 0.47548612E+00 0.15191269E+04</pdfrwt>
<pdfrwt beam="2">  1       -1 0.28718621E-01 0.15191269E+04</pdfrwt>
<totfact> 0.18613446E+01</totfact>
</mgrwt>
</event>
<event>
12    6  0.1538774E-007  0.1970725E+04  0.7818608E-02  0.8620431E-01
          2   -1    0    0  501    0  0.00000000000E+00  0.00000000000E+00  0.14505921293E+04  0.14505921293E+04  0.00000000000E+00 0. -1.
         -1   -1    0    0    0  501 -0.00000000000E+00 -0.00000000000E+00 -0.66933974603E+03  0.66933974603E+03  0.00000000000E+00 0.  1.
         24    2    1    2    0    0  0.82195166716E+01 -0.21657348569E+03  0.11159424457E+04  0.11396104360E+04  0.80079764512E+02 0.  0.
        254    2    1    2    0    0 -0.82195166716E+01  0.21657348569E+03 -0.33469006240E+03  0.98032143931E+03  0.89556744657E+03 0.  0.
         23    2    4    4    0    0  0.34088588765E+03  0.17261362270E+03 -0.45104504986E+03  0.59866495237E+03  0.94654302824E+02 0.  0.
         23    2    4    4    0    0 -0.34910540433E+03  0.43959862985E+02  0.11635498746E+03  0.38165648694E+03  0.91192861757E+02 0.  0.
          4    1    3    3  502    0  0.17499880308E+02 -0.98414817821E+02  0.33080067351E+03  0.34557315835E+03  0.00000000000E+00 0. -1.
         -3    1    3    3    0  502 -0.92803636364E+01 -0.11815866787E+03  0.78514177215E+03  0.79403727766E+03  0.00000000000E+00 0.  1.
         11    1    5    5    0    0  0.85497057588E+02  0.76274947975E+02 -0.88077384156E+02  0.14451726591E+03  0.00000000000E+00 0. -1.
        -11    1    5    5    0    0  0.25538883007E+03  0.96338674726E+02 -0.36296766571E+03  0.45414768646E+03  0.00000000000E+00 0.  1.
          2    1    6    6  503    0 -0.13244395530E+03 -0.48812028837E+01  0.36169742011E+01  0.13258321892E+03  0.00000000000E+00 0. -1.
         -2    1    6    6    0  503 -0.21666144903E+03  0.48841065869E+02  0.11273801326E+03  0.24907326802E+03  0.00000000000E+00 0.  1.
<mgrwt>
<rscale>  0 0.19707247E+04</rscale>
<asrwt>0</asrwt>
<pdfrwt beam="1">  1        2 0.22316802E+00 0.19707247E+04</pdfrwt>
<pdfrwt beam="2">  1       -1 0.10297535E+00 0.19707247E+04</pdfrwt>
<totfact> 0.12799275E+01</totfact>
</mgrwt>
</event>
<event>
12    6  0.1538774E-007  0.1906165E+04  0.7818608E-02  0.8651794E-01
          2   -1    0    0  501    0  0.00000000000E+00  0.00000000000E+00  0.55145533673E+03  0.55145533673E+03  0.00000000000E+00 0. -1.
         -1   -1    0    0    0  501 -0.00000000000E+00 -0.00000000000E+00 -0.16472167283E+04  0.16472167283E+04  0.00000000000E+00 0.  1.
         24    2    1    2    0    0 -0.18235035471E+03  0.39886043909E+02  0.36487751304E+03  0.41743575353E+03  0.79211491866E+02 0.  0.
        254    2    1    2    0    0  0.18235035471E+03 -0.39886043909E+02 -0.14606389046E+04  0.17812363115E+04  0.10022446006E+04 0.  0.
         23    2    4    4    0    0  0.56739562268E+03  0.11704795838E+02 -0.11106066442E+04  0.12504121877E+04  0.89491486334E+02 0.  0.
         23    2    4    4    0    0 -0.38504526797E+03 -0.51590839746E+02 -0.35003226043E+03  0.53082412382E+03  0.91269896203E+02 0.  0.
          4    1    3    3  502    0 -0.13083248471E+03  0.14851400447E+01  0.29381257766E+03  0.32162894069E+03  0.00000000000E+00 0. -1.
         -3    1    3    3    0  502 -0.51517870003E+02  0.38400903864E+02  0.71064935376E+02  0.95806812843E+02  0.00000000000E+00 0.  1.
         11    1    5    5    0    0  0.24053264397E+03 -0.28839308016E+02 -0.40945830732E+03  0.47575599201E+03  0.00000000000E+00 0. -1.
        -11    1    5    5    0    0  0.32686297870E+03  0.40544103854E+02 -0.70114833685E+03  0.77465619566E+03  0.00000000000E+00 0.  1.
          3    1    6    6  503    0 -0.20114420349E+03  0.18887913731E+02 -0.18290165180E+03  0.27252294970E+03  0.00000000000E+00 0. -1.
         -3    1    6    6    0  503 -0.18390106448E+03 -0.70478753478E+02 -0.16713060863E+03  0.25830117411E+03  0.00000000000E+00 0.  1.
<mgrwt>
<rscale>  0 0.19061652E+04</rscale>
<asrwt>0</asrwt>
<pdfrwt beam="1">  1        2 0.84839282E-01 0.19061652E+04</pdfrwt>
<pdfrwt beam="2">  1       -1 0.25341796E+00 0.19061652E+04</pdfrwt>
<totfact> 0.38867023E+00</totfact>
</mgrwt>
</event>
<event>
12    6  0.1538774E-007  0.2240419E+04  0.7818608E-02  0.8501791E-01
          2   -1    0    0  501    0  0.00000000000E+00  0.00000000000E+00  0.32983500111E+04  0.32983500111E+04  0.00000000000E+00 0. -1.
         -1   -1    0    0    0  501 -0.00000000000E+00 -0.00000000000E+00 -0.38045362004E+03  0.38045362004E+03  0.00000000000E+00 0.  1.
         24    2    1    2    0    0 -0.79355804581E+03  0.46882419111E+03  0.16570485691E+04  0.18978118392E+04  0.79682634303E+02 0.  0.
        254    2    1    2    0    0  0.79355804581E+03 -0.46882419111E+03  0.12608478220E+04  0.17809917920E+04  0.85595796555E+03 0.  0.
         23    2    4    4    0    0  0.14326309745E+03 -0.48648441014E+03  0.88533205971E+03  0.10243968129E+04  0.91567341550E+02 0.  0.
         23    2    4    4    0    0  0.65029494836E+03  0.17660219029E+02  0.37551576225E+03  0.75659497905E+03  0.90710922270E+02 0.  0.
          2    1    3    3  502    0 -0.63510438991E+03  0.36968681364E+03  0.13825923334E+04  0.15657546062E+04  0.00000000000E+00 0. -1.
         -1    1    3    3    0  502 -0.15845365590E+03  0.99137377470E+02  0.27445623571E+03  0.33205723302E+03  0.00000000000E+00 0.  1.
         11    1    5    5    0    0  0.15380741703E+03 -0.46207452327E+03  0.85575267742E+03  0.98462288796E+03  0.00000000000E+00 0. -1.
        -11    1    5    5    0    0 -0.10544319583E+02 -0.24409886867E+02  0.29579382287E+02  0.39773924986E+02  0.00000000000E+00 0.  1.
          4    1    6    6  503    0  0.59615282969E+03  0.35705838381E+02  0.32266604322E+03  0.67881255048E+03  0.00000000000E+00 0. -1.
         -4    1    6    6    0  503  0.54142118676E+02 -0.18045619352E+02  0.52849719035E+02  0.77782428572E+02  0.00000000000E+00 0.  1.
<mgrwt>
<rscale>  0 0.22404189E+04</rscale>
<asrwt>0</asrwt>
<pdfrwt beam="1">  1        2 0.50743844E+00 0.22404189E+04</pdfrwt>
<pdfrwt beam="2">  1       -1 0.58531328E-01 0.22404189E+04</pdfrwt>
<totfact> 0.34311971E+00</totfact>
</mgrwt>
</event>
<event>
12    6  0.1538774E-007  0.2470686E+04  0.7818608E-02  0.8413504E-01
         -1   -1    0    0    0  501 -0.00000000000E+00  0.00000000000E+00  0.64881864353E+03  0.64881864353E+03  0.00000000000E+00 0.  1.
          2   -1    0    0  501    0  0.00000000000E+00 -0.00000000000E+00 -0.23520784037E+04  0.23520784037E+04  0.00000000000E+00 0. -1.
         24    2    1    2    0    0  0.68902787594E+03 -0.66766813521E+03 -0.16530257367E+03  0.97697732222E+03  0.81360891535E+02 0.  0.
        254    2    1    2    0    0 -0.68902787594E+03  0.66766813521E+03 -0.15379571865E+04  0.20239197250E+04  0.90022141345E+03 0.  0.
         23    2    4    4    0    0 -0.76069847316E+03  0.56818481178E+03 -0.72888470369E+03  0.12004127351E+04  0.90673458163E+02 0.  0.
         23    2    4    4    0    0  0.71670597221E+02  0.99483323423E+02 -0.80907248282E+03  0.82350698988E+03  0.92368142685E+02 0.  0.
          2    1    3    3  502    0  0.14892423206E+03 -0.15665020886E+03 -0.41939847073E+01  0.21618349692E+03  0.00000000000E+00 0. -1.
         -1    1    3    3    0  502  0.54010364388E+03 -0.51101792634E+03 -0.16110858897E+03  0.76079382530E+03  0.00000000000E+00 0.  1.
         11    1    5    5    0    0 -0.59363085450E+03  0.41362507380E+03 -0.59176043568E+03  0.93469979476E+03  0.00000000000E+00 0.  1.
        -11    1    5    5    0    0 -0.16706761866E+03  0.15455973798E+03 -0.13712426801E+03  0.26571294038E+03  0.00000000000E+00 0. -1.
          1    1    6    6  503    0  0.35015346610E+02 -0.25949046639E+01 -0.95723018986E+02  0.10195932715E+03  0.00000000000E+00 0. -1.
         -1    1    6    6    0  503  0.36655250611E+02  0.10207822809E+03 -0.71334946383E+03  0.72154766274E+03  0.00000000000E+00 0.  1.
<mgrwt>
<rscale>  0 0.24706860E+04</rscale>
<asrwt>0</asrwt>
<pdfrwt beam="1">  1        2 0.36185822E+00 0.24706860E+04</pdfrwt>
<pdfrwt beam="2">  1       -1 0.99818253E-01 0.24706860E+04</pdfrwt>
<totfact> 0.41209861E+00</totfact>
</mgrwt>
</event>
<event>
12    6  0.1538774E-007  0.2321866E+04  0.7818608E-02  0.8469349E-01
          2   -1    0    0  501    0  0.00000000000E+00  0.00000000000E+00  0.63633561313E+03  0.63633561313E+03  0.00000000000E+00 0. -1.
         -1   -1    0    0    0  501 -0.00000000000E+00 -0.00000000000E+00 -0.21180108731E+04  0.21180108731E+04  0.00000000000E+00 0.  1.
         24    2    1    2    0    0  0.55553986643E+03 -0.77542119596E+03 -0.33164966335E+03  0.10130759024E+04  0.80179239206E+02 0.  0.
        254    2    1    2    0    0 -0.55553986643E+03  0.77542119596E+03 -0.11500255966E+04  0.17412705839E+04  0.89418219566E+03 0.  0.
         23    2    4    4    0    0 -0.48214732739E+02  0.82679955625E+02  0.13758007787E+03  0.19035803027E+03  0.90262208843E+02 0.  0.
         23    2    4    4    0    0 -0.50732513369E+03  0.69274124034E+03 -0.12876056745E+04  0.15509125536E+04  0.10065862408E+03 0.  0.
          4    1    3    3  502    0  0.44991053456E+03 -0.63298297327E+03 -0.30221332527E+03  0.83331856305E+03  0.00000000000E+00 0. -1.
         -3    1    3    3    0  502  0.10562933187E+03 -0.14243822269E+03 -0.29436338084E+02  0.17975733931E+03  0.00000000000E+00 0.  1.
         11    1    5    5    0    0 -0.30432682625E+02  0.75205046123E+01 -0.13780880056E+01  0.31378420737E+02  0.00000000000E+00 0.  1.
        -11    1    5    5    0    0 -0.17782050114E+02  0.75159451013E+02  0.13895816588E+03  0.15897960953E+03  0.00000000000E+00 0. -1.
          1    1    6    6  503    0 -0.42825176525E+03  0.63632761033E+03 -0.11568604934E+04  0.13880340786E+04  0.00000000000E+00 0. -1.
         -1    1    6    6    0  503 -0.79073368441E+02  0.56413630006E+02 -0.13074518108E+03  0.16287847502E+03  0.00000000000E+00 0.  1.
<mgrwt>
<rscale>  0 0.23218663E+04</rscale>
<asrwt>0</asrwt>
<pdfrwt beam="1">  1        2 0.97897788E-01 0.23218663E+04</pdfrwt>
<pdfrwt beam="2">  1       -1 0.32584782E+00 0.23218663E+04</pdfrwt>
<totfact> 0.10689662E+00</totfact>
</mgrwt>
</event>
<event>
12    6  0.1538774E-007  0.1509127E+04  0.7818608E-02  0.8878406E-01
          2   -1    0    0  501    0  0.00000000000E+00  0.00000000000E+00  0.17991459214E+04  0.17991459214E+04  0.00000000000E+00 0. -1.
         -1   -1    0    0    0  501 -0.00000000000E+00 -0.00000000000E+00 -0.31646479562E+03  0.31646479562E+03  0.00000000000E+00 0.  1.
         24    2    1    2    0    0 -0.27049438097E+03  0.39578426932E+03  0.42677122120E+03  0.64668579072E+03  0.79097652932E+02 0.  0.
        254    2    1    2    0    0  0.27049438097E+03 -0.39578426932E+03  0.10559099046E+04  0.14689249263E+04  0.90165531914E+03 0.  0.
         23    2    4    4    0    0 -0.29288157892E+03 -0.12146198451E+03  0.60942121361E+03  0.69312543645E+03  0.92173868919E+02 0.  0.
         23    2    4    4    0    0  0.56337595989E+03 -0.27432228481E+03  0.44648869101E+03  0.77579948987E+03  0.99335336943E+02 0.  0.
          4    1    3    3  502    0 -0.16826067599E+03  0.28807969600E+03  0.33113585715E+03  0.47005587139E+03  0.00000000000E+00 0. -1.
         -3    1    3    3    0  502 -0.10223370498E+03  0.10770457332E+03  0.95635364044E+02  0.17662991934E+03  0.00000000000E+00 0.  1.
         11    1    5    5    0    0 -0.26512274092E+03 -0.74698645503E+02  0.52063912070E+03  0.58901192636E+03  0.00000000000E+00 0. -1.
        -11    1    5    5    0    0 -0.27758837997E+02 -0.46763339011E+02  0.88782092901E+02  0.10411351009E+03  0.00000000000E+00 0.  1.
          1    1    6    6  503    0  0.49391324739E+03 -0.27404561101E+03  0.39262893122E+03  0.68790171572E+03  0.00000000000E+00 0. -1.
         -1    1    6    6    0  503  0.69462712502E+02 -0.27667379509E+00  0.53859759790E+02  0.87897774154E+02  0.00000000000E+00 0.  1.
<mgrwt>
<rscale>  0 0.15091274E+04</rscale>
<asrwt>0</asrwt>
<pdfrwt beam="1">  1        2 0.27679167E+00 0.15091274E+04</pdfrwt>
<pdfrwt beam="2">  1       -1 0.48686893E-01 0.15091274E+04</pdfrwt>
<totfact> 0.40118106E+01</totfact>
</mgrwt>
</event>
<event>
12    6  0.1538774E-007  0.1346023E+04  0.7818608E-02  0.8993844E-01
         -1   -1    0    0    0  501 -0.00000000000E+00  0.00000000000E+00  0.27415404016E+03  0.27415404016E+03  0.00000000000E+00 0.  1.
          2   -1    0    0  501    0  0.00000000000E+00 -0.00000000000E+00 -0.16521530924E+04  0.16521530924E+04  0.00000000000E+00 0. -1.
         24    2    1    2    0    0  0.17702567561E+03  0.32109054458E+03 -0.35167536318E+03  0.51486620890E+03  0.83513019077E+02 0.  0.
        254    2    1    2    0    0 -0.17702567561E+03 -0.32109054458E+03 -0.10263236891E+04  0.14114409237E+04  0.89687676893E+03 0.  0.
         23    2    4    4    0    0 -0.26299573698E+03  0.43488350339E+02  0.34006046634E+02  0.28321926942E+03  0.89435725959E+02 0.  0.
         23    2    4    4    0    0  0.85970061379E+02 -0.36457889492E+03 -0.10603297357E+04  0.11282216543E+04  0.90974340468E+02 0.  0.
          4    1    3    3  502    0  0.16356038545E+03  0.25591498611E+03 -0.31991672152E+03  0.44112491260E+03  0.00000000000E+00 0. -1.
         -3    1    3    3    0  502  0.13465290155E+02  0.65175558465E+02 -0.31758641667E+02  0.73741296305E+02  0.00000000000E+00 0.  1.
         11    1    5    5    0    0 -0.14172192326E+03  0.66551434693E+02  0.62764447106E+01  0.15669585429E+03  0.00000000000E+00 0. -1.
        -11    1    5    5    0    0 -0.12127381372E+03 -0.23063084355E+02  0.27729601924E+02  0.12652341513E+03  0.00000000000E+00 0.  1.
          1    1    6    6  503    0 -0.22203771123E+00 -0.14179788264E+03 -0.31246161698E+03  0.34313109872E+03  0.00000000000E+00 0. -1.
         -1    1    6    6    0  503  0.86192099091E+02 -0.22278101227E+03 -0.74786811874E+03  0.78509055554E+03  0.00000000000E+00 0.  1.
<mgrwt>
<rscale>  0 0.13460229E+04</rscale>
<asrwt>0</asrwt>
<pdfrwt beam="1">  1        2 0.25417740E+00 0.13460229E+04</pdfrwt>
<pdfrwt beam="2">  1       -1 0.42177545E-01 0.13460229E+04</pdfrwt>
<totfact> 0.64119574E+01</totfact>
</mgrwt>
</event>
<event>
12    6  0.1538774E-007  0.1964286E+04  0.7818608E-02  0.8623503E-01
         -1   -1    0    0    0  501 -0.00000000000E+00  0.00000000000E+00  0.32060123599E+03  0.32060123599E+03  0.00000000000E+00 0.  1.
          2   -1    0    0  501    0  0.00000000000E+00 -0.00000000000E+00 -0.30087373545E+04  0.30087373545E+04  0.00000000000E+00 0. -1.
         24    2    1    2    0    0 -0.41441772598E+03  0.24545488967E+03 -0.21009716288E+04  0.21569780945E+04  0.80514351410E+02 0.  0.
        254    2    1    2    0    0  0.41441772598E+03 -0.24545488967E+03 -0.58716448979E+03  0.11723604960E+04  0.89312756095E+03 0.  0.
         23    2    4    4    0    0 -0.52074613052E+02 -0.47369369956E+03 -0.23312241026E+03  0.53763083477E+03  0.87197304998E+02 0.  0.
         23    2    4    4    0    0  0.46649233903E+03  0.22823880990E+03 -0.35404207953E+03  0.63472966127E+03  0.88475375652E+02 0.  0.
          2    1    3    3  502    0 -0.36693603797E+03  0.24426858327E+03 -0.18888371442E+04  0.19395914400E+04  0.00000000000E+00 0. -1.
         -1    1    3    3    0  502 -0.47481688011E+02  0.11863063976E+01 -0.21213448453E+03  0.21738665448E+03  0.00000000000E+00 0.  1.
         11    1    5    5    0    0 -0.12028854616E+02 -0.32194762146E+03 -0.11844063456E+03  0.34325376651E+03  0.00000000000E+00 0.  1.
        -11    1    5    5    0    0 -0.40045758436E+02 -0.15174607810E+03 -0.11468177569E+03  0.19437706826E+03  0.00000000000E+00 0. -1.
          4    1    6    6  503    0  0.18084877899E+03  0.45004126017E+02 -0.10619512228E+03  0.21449721727E+03  0.00000000000E+00 0. -1.
         -4    1    6    6    0  503  0.28564356004E+03  0.18323468388E+03 -0.24784695725E+03  0.42023244400E+03  0.00000000000E+00 0.  1.
<mgrwt>
<rscale>  0 0.19642860E+04</rscale>
<asrwt>0</asrwt>
<pdfrwt beam="1">  1        2 0.46288267E+00 0.19642860E+04</pdfrwt>
<pdfrwt beam="2">  1       -1 0.49323267E-01 0.19642860E+04</pdfrwt>
<totfact> 0.75316295E+00</totfact>
</mgrwt>
</event>
<event>
12    6  0.1538774E-007  0.2074304E+04  0.7818608E-02  0.8572648E-01
         -1   -1    0    0    0  501 -0.00000000000E+00  0.00000000000E+00  0.85468406694E+03  0.85468406694E+03  0.00000000000E+00 0.  1.
          2   -1    0    0  501    0  0.00000000000E+00 -0.00000000000E+00 -0.12585757288E+04  0.12585757288E+04  0.00000000000E+00 0. -1.
         24    2    1    2    0    0  0.25579873845E+03  0.10747719519E+03 -0.97057155976E+03  0.10127136047E+04  0.81211762441E+02 0.  0.
        254    2    1    2    0    0 -0.25579873845E+03 -0.10747719519E+03  0.56667989787E+03  0.11005461911E+04  0.90171584774E+03 0.  0.
         23    2    4    4    0    0 -0.45947805317E+03 -0.33161289837E+03  0.18071700184E+03  0.60159271229E+03  0.90376772548E+02 0.  0.
         23    2    4    4    0    0  0.20367931472E+03  0.22413570318E+03  0.38596289603E+03  0.49895347883E+03  0.90912816707E+02 0.  0.
          4    1    3    3  502    0  0.98476214426E+02  0.74427762192E+02 -0.51582335307E+03  0.53038739442E+03  0.00000000000E+00 0. -1.
         -3    1    3    3    0  502  0.15732252402E+03  0.33049433003E+02 -0.45474820670E+03  0.48232621024E+03  0.00000000000E+00 0.  1.
         11    1    5    5    0    0 -0.25614444184E+03 -0.23064182997E+03  0.83641559067E+02  0.35468512686E+03  0.00000000000E+00 0.  1.
        -11    1    5    5    0    0 -0.20333361133E+03 -0.10097106840E+03  0.97075442773E+02  0.24690758543E+03  0.00000000000E+00 0. -1.
          2    1    6    6  503    0 -0.78692348478E+01  0.93313654626E+01  0.51572709951E+01  0.13251289847E+02  0.00000000000E+00 0. -1.
         -2    1    6    6    0  503  0.21154854957E+03  0.21480433771E+03  0.38080562503E+03  0.48570218898E+03  0.00000000000E+00 0.  1.
<mgrwt>
<rscale>  0 0.20743043E+04</rscale>
<asrwt>0</asrwt>
<pdfrwt beam="1">  1        2 0.19362703E+00 0.20743043E+04</pdfrwt>
<pdfrwt beam="2">  1       -1 0.13148986E+00 0.20743043E+04</pdfrwt>
<totfact> 0.90685874E+00</totfact>
</mgrwt>
</event>
<event>
12    6  0.1538774E-007  0.1069863E+04  0.7818608E-02  0.9235074E-01
          2   -1    0    0  501    0  0.00000000000E+00  0.00000000000E+00  0.57104317796E+03  0.57104317796E+03  0.00000000000E+00 0. -1.
         -1   -1    0    0    0  501 -0.00000000000E+00 -0.00000000000E+00 -0.50110347513E+03  0.50110347513E+03  0.00000000000E+00 0.  1.
         24    2    1    2    0    0 -0.13947086650E+02  0.21623971011E+02  0.14638289088E+03  0.16808323033E+03  0.78497797584E+02 0.  0.
        254    2    1    2    0    0  0.13947086650E+02 -0.21623971011E+02 -0.76443188059E+02  0.90406342276E+03  0.90045821337E+03 0.  0.
         23    2    4    4    0    0  0.28931039528E+03 -0.34548631108E+03 -0.97737977804E+02  0.46999897514E+03  0.91022131212E+02 0.  0.
         23    2    4    4    0    0 -0.27536330863E+03  0.32386234007E+03  0.21294789745E+02  0.43406444762E+03  0.85127607570E+02 0.  0.
          4    1    3    3  502    0  0.62903582163E+01  0.56637247335E+01  0.14162050693E+03  0.14187323344E+03  0.00000000000E+00 0. -1.
         -3    1    3    3    0  502 -0.20237444866E+02  0.15960246278E+02  0.47623839579E+01  0.26209996889E+02  0.00000000000E+00 0.  1.
         11    1    5    5    0    0  0.26273317717E+03 -0.26466486895E+03 -0.63537278237E+02  0.37830305440E+03  0.00000000000E+00 0.  1.
        -11    1    5    5    0    0  0.26577218110E+02 -0.80821442128E+02 -0.34200699567E+02  0.91695920743E+02  0.00000000000E+00 0. -1.
          2    1    6    6  503    0  0.44645934408E+01  0.18427683116E+02 -0.25926117171E+01  0.19137234261E+02  0.00000000000E+00 0. -1.
         -2    1    6    6    0  503 -0.27982790207E+03  0.30543465695E+03  0.23887401462E+02  0.41492721336E+03  0.00000000000E+00 0.  1.
<mgrwt>
<rscale>  0 0.10698630E+04</rscale>
<asrwt>0</asrwt>
<pdfrwt beam="1">  1        2 0.87852796E-01 0.10698630E+04</pdfrwt>
<pdfrwt beam="2">  1       -1 0.77092843E-01 0.10698630E+04</pdfrwt>
<totfact> 0.10103233E+02</totfact>
</mgrwt>
</event>
<event>
12    6  0.1538774E-007  0.2005931E+04  0.7818608E-02  0.8603853E-01
          2   -1    0    0  501    0  0.00000000000E+00  0.00000000000E+00  0.14768179699E+04  0.14768179699E+04  0.00000000000E+00 0. -1.
         -1   -1    0    0    0  501 -0.00000000000E+00 -0.00000000000E+00 -0.68115323051E+03  0.68115323051E+03  0.00000000000E+00 0.  1.
         24    2    1    2    0    0  0.51683166365E+03  0.37519791028E+03 -0.19914663081E+03  0.67411289366E+03  0.82948010258E+02 0.  0.
        254    2    1    2    0    0 -0.51683166365E+03 -0.37519791028E+03  0.99481137018E+03  0.14838583067E+04  0.89682627738E+03 0.  0.
         23    2    4    4    0    0 -0.36687578721E+03 -0.27747708118E+03  0.11424106115E+04  0.12349137981E+04  0.91206960062E+02 0.  0.
         23    2    4    4    0    0 -0.14995587645E+03 -0.97720829096E+02 -0.14759924135E+03  0.24894450864E+03  0.90286804222E+02 0.  0.
          4    1    3    3  502    0  0.24675558073E+03  0.13289519577E+03 -0.68960798312E+02  0.28862612734E+03  0.00000000000E+00 0. -1.
         -3    1    3    3    0  502  0.27007608293E+03  0.24230271451E+03 -0.13018583249E+03  0.38548676632E+03  0.00000000000E+00 0.  1.
         11    1    5    5    0    0 -0.10034924298E+03 -0.11826109455E+03  0.31345062649E+03  0.34972410883E+03  0.00000000000E+00 0.  1.
        -11    1    5    5    0    0 -0.26652654422E+03 -0.15921598663E+03  0.82895998504E+03  0.88518968926E+03  0.00000000000E+00 0. -1.
          1    1    6    6  503    0 -0.18439499675E+02 -0.39206222828E+02 -0.77611393796E+02  0.88885721596E+02  0.00000000000E+00 0. -1.
         -1    1    6    6    0  503 -0.13151637677E+03 -0.58514606268E+02 -0.69987847553E+02  0.16005878705E+03  0.00000000000E+00 0.  1.
<mgrwt>
<rscale>  0 0.20059305E+04</rscale>
<asrwt>0</asrwt>
<pdfrwt beam="1">  1        2 0.22720276E+00 0.20059305E+04</pdfrwt>
<pdfrwt beam="2">  1       -1 0.10479280E+00 0.20059305E+04</pdfrwt>
<totfact> 0.11840242E+01</totfact>
</mgrwt>
</event>
<event>
12    6  0.1538774E-007  0.1497610E+04  0.7818608E-02  0.8886044E-01
          2   -1    0    0  501    0  0.00000000000E+00  0.00000000000E+00  0.79114393500E+03  0.79114393500E+03  0.00000000000E+00 0. -1.
         -1   -1    0    0    0  501 -0.00000000000E+00 -0.00000000000E+00 -0.70873228702E+03  0.70873228702E+03  0.00000000000E+00 0.  1.
         24    2    1    2    0    0 -0.16212915131E+03 -0.12145004500E+03 -0.40129351945E+03  0.45845883254E+03  0.90066848733E+02 0.  0.
        254    2    1    2    0    0  0.16212915131E+03  0.12145004500E+03  0.48370516743E+03  0.10414173895E+04  0.89974636147E+03 0.  0.
         23    2    4    4    0    0 -0.27849635033E+03  0.47071037736E+02 -0.88403421438E+02  0.30993889454E+03  0.92038327254E+02 0.  0.
         23    2    4    4    0    0  0.44062550164E+03  0.74379007268E+02  0.57210858887E+03  0.73147849494E+03  0.89830293843E+02 0.  0.
          4    1    3    3  502    0 -0.11997822454E+02 -0.50802722735E+02 -0.13454958154E+03  0.14432066475E+03  0.00000000000E+00 0. -1.
         -3    1    3    3    0  502 -0.15013132886E+03 -0.70647322269E+02 -0.26674393791E+03  0.31413816778E+03  0.00000000000E+00 0.  1.
         11    1    5    5    0    0 -0.12785324510E+03  0.64768770125E+02 -0.61186737698E+02  0.15583729572E+03  0.00000000000E+00 0. -1.
        -11    1    5    5    0    0 -0.15064310523E+03 -0.17697732389E+02 -0.27216683739E+02  0.15410159882E+03  0.00000000000E+00 0.  1.
          2    1    6    6  503    0  0.41622748039E+03  0.81246868276E+02  0.50328118497E+03  0.65813244881E+03  0.00000000000E+00 0. -1.
         -2    1    6    6    0  503  0.24398021253E+02 -0.68678610085E+01  0.68827403899E+02  0.73346046133E+02  0.00000000000E+00 0.  1.
<mgrwt>
<rscale>  0 0.14976104E+04</rscale>
<asrwt>0</asrwt>
<pdfrwt beam="1">  1        2 0.12171445E+00 0.14976104E+04</pdfrwt>
<pdfrwt beam="2">  1       -1 0.10903574E+00 0.14976104E+04</pdfrwt>
<totfact> 0.30067865E+01</totfact>
</mgrwt>
</event>
<event>
12    6  0.1538774E-007  0.3012634E+04  0.7818608E-02  0.8240132E-01
         -1   -1    0    0    0  501 -0.00000000000E+00  0.00000000000E+00  0.12377411674E+04  0.12377411674E+04  0.00000000000E+00 0.  1.
          2   -1    0    0  501    0  0.00000000000E+00 -0.00000000000E+00 -0.18331710933E+04  0.18331710933E+04  0.00000000000E+00 0. -1.
         24    2    1    2    0    0  0.63795217557E+03 -0.11525750627E+04  0.11975332742E+03  0.13252618214E+04  0.81029516045E+02 0.  0.
        254    2    1    2    0    0 -0.63795217557E+03  0.11525750627E+04 -0.71518325326E+03  0.17456504393E+04  0.89464859971E+03 0.  0.
         23    2    4    4    0    0 -0.41705725574E+03  0.44163042846E+03 -0.78005557308E+03  0.99281908190E+03  0.90712966968E+02 0.  0.
         23    2    4    4    0    0 -0.22089491983E+03  0.71094463424E+03  0.64872319818E+02  0.75283135739E+03  0.91158083737E+02 0.  0.
          4    1    3    3  502    0 -0.25179492041E+01 -0.59960446580E+01  0.79379306432E+00  0.65515438764E+01  0.00000000000E+00 0. -1.
         -3    1    3    3    0  502  0.64047012477E+03 -0.11465790180E+04  0.11895953436E+03  0.13187102776E+04  0.00000000000E+00 0.  1.
         11    1    5    5    0    0 -0.32887211146E+03  0.28982469673E+03 -0.56971412200E+03  0.71883892587E+03  0.00000000000E+00 0.  1.
        -11    1    5    5    0    0 -0.88185144287E+02  0.15180573172E+03 -0.21034145108E+03  0.27398015603E+03  0.00000000000E+00 0. -1.
          4    1    6    6  503    0 -0.52066736630E+02  0.80200507250E+02 -0.73488781161E+01  0.95901368270E+02  0.00000000000E+00 0. -1.
         -4    1    6    6    0  503 -0.16882818320E+03  0.63074412699E+03  0.72221197934E+02  0.65692998912E+03  0.00000000000E+00 0.  1.
<mgrwt>
<rscale>  0 0.30126343E+04</rscale>
<asrwt>0</asrwt>
<pdfrwt beam="1">  1        2 0.28202632E+00 0.30126343E+04</pdfrwt>
<pdfrwt beam="2">  1       -1 0.19042172E+00 0.30126343E+04</pdfrwt>
<totfact> 0.14124028E+00</totfact>
</mgrwt>
</event>
<event>
12    6  0.1538774E-007  0.2271732E+04  0.7818608E-02  0.8489151E-01
          2   -1    0    0  501    0  0.00000000000E+00  0.00000000000E+00  0.30005377238E+04  0.30005377238E+04  0.00000000000E+00 0. -1.
         -1   -1    0    0    0  501 -0.00000000000E+00 -0.00000000000E+00 -0.42998662028E+03  0.42998662028E+03  0.00000000000E+00 0.  1.
         24    2    1    2    0    0  0.48091438603E+02  0.90295292414E+03  0.14892746750E+04  0.17442010425E+04  0.81617702141E+02 0.  0.
        254    2    1    2    0    0 -0.48091438603E+02 -0.90295292414E+03  0.10812764285E+04  0.16863233016E+04  0.92568395954E+03 0.  0.
         23    2    4    4    0    0 -0.46923141149E+03 -0.56767384455E+03  0.54272128055E+03  0.91953112548E+03  0.92516977143E+02 0.  0.
         23    2    4    4    0    0  0.42113997289E+03 -0.33527907959E+03  0.53855514791E+03  0.76679217607E+03  0.90319742956E+02 0.  0.
          2    1    3    3  502    0  0.25366373229E+02  0.78308227714E+03  0.12422326894E+04  0.14686740143E+04  0.00000000000E+00 0. -1.
         -1    1    3    3    0  502  0.22725065373E+02  0.11987064699E+03  0.24704198557E+03  0.27552702815E+03  0.00000000000E+00 0.  1.
         11    1    5    5    0    0 -0.42628559273E+03 -0.54417511259E+03  0.48832173689E+03  0.84634749273E+03  0.00000000000E+00 0.  1.
        -11    1    5    5    0    0 -0.42945818755E+02 -0.23498731956E+02  0.54399543660E+02  0.73183632750E+02  0.00000000000E+00 0. -1.
          1    1    6    6  503    0  0.18976738390E+03 -0.18965324655E+03  0.31397436191E+03  0.41298899968E+03  0.00000000000E+00 0. -1.
         -1    1    6    6    0  503  0.23137258899E+03 -0.14562583304E+03  0.22458078600E+03  0.35380317639E+03  0.00000000000E+00 0.  1.
<mgrwt>
<rscale>  0 0.22717316E+04</rscale>
<asrwt>0</asrwt>
<pdfrwt beam="1">  1        2 0.46162117E+00 0.22717316E+04</pdfrwt>
<pdfrwt beam="2">  1       -1 0.66151790E-01 0.22717316E+04</pdfrwt>
<totfact> 0.41693978E+00</totfact>
</mgrwt>
</event>
<event>
12    6  0.1538774E-007  0.1464248E+04  0.7818608E-02  0.8908582E-01
         -1   -1    0    0    0  501 -0.00000000000E+00  0.00000000000E+00  0.68892124976E+03  0.68892124976E+03  0.00000000000E+00 0.  1.
          2   -1    0    0  501    0  0.00000000000E+00 -0.00000000000E+00 -0.77803639953E+03  0.77803639953E+03  0.00000000000E+00 0. -1.
         24    2    1    2    0    0 -0.33333423187E+03  0.17656988900E+03  0.22550564317E+03  0.44752515156E+03  0.84482722110E+02 0.  0.
        254    2    1    2    0    0  0.33333423187E+03 -0.17656988900E+03 -0.31462079295E+03  0.10194324977E+04  0.89329039972E+03 0.  0.
         23    2    4    4    0    0  0.60992576277E+03 -0.16357228982E+02 -0.29920020994E+03  0.68578264759E+03  0.92195873423E+02 0.  0.
         23    2    4    4    0    0 -0.27659153089E+03 -0.16021266001E+03 -0.15420583010E+02  0.33364985014E+03  0.94411104914E+02 0.  0.
          4    1    3    3  502    0 -0.95759664019E+02  0.73043241838E+02  0.11249756709E+03  0.16480573726E+03  0.00000000000E+00 0. -1.
         -3    1    3    3    0  502 -0.23757456786E+03  0.10352664716E+03  0.11300807608E+03  0.28271941430E+03  0.00000000000E+00 0.  1.
         11    1    5    5    0    0  0.34504704162E+02  0.20509602884E+02 -0.14067302872E+02  0.42533603537E+02  0.00000000000E+00 0. -1.
        -11    1    5    5    0    0  0.57542105860E+03 -0.36866831866E+02 -0.28513290707E+03  0.64324904405E+03  0.00000000000E+00 0.  1.
          1    1    6    6  503    0 -0.65508345552E+02 -0.79903789911E+02 -0.29242970020E+02  0.10738300738E+03  0.00000000000E+00 0. -1.
         -1    1    6    6    0  503 -0.21108318534E+03 -0.80308870104E+02  0.13822387010E+02  0.22626684276E+03  0.00000000000E+00 0.  1.
<mgrwt>
<rscale>  0 0.14642484E+04</rscale>
<asrwt>0</asrwt>
<pdfrwt beam="1">  1        2 0.11969791E+00 0.14642484E+04</pdfrwt>
<pdfrwt beam="2">  1       -1 0.10598789E+00 0.14642484E+04</pdfrwt>
<totfact> 0.32942580E+01</totfact>
</mgrwt>
</event>
<event>
12    6  0.1538774E-007  0.1364525E+04  0.7818608E-02  0.8979905E-01
          2   -1    0    0  501    0  0.00000000000E+00  0.00000000000E+00  0.18995577325E+04  0.18995577325E+04  0.00000000000E+00 0. -1.
         -1   -1    0    0    0  501 -0.00000000000E+00 -0.00000000000E+00 -0.24504758850E+03  0.24504758850E+03  0.00000000000E+00 0.  1.
         24    2    1    2    0    0 -0.70456665466E+01  0.38048895059E+03  0.56221321406E+03  0.68350150080E+03  0.79177778376E+02 0.  0.
        254    2    1    2    0    0  0.70456665466E+01 -0.38048895059E+03  0.10922969299E+04  0.14611038202E+04  0.89268712735E+03 0.  0.
         23    2    4    4    0    0 -0.37936533257E+02  0.11522002381E+03  0.91164603170E+03  0.92407978646E+03  0.90056261219E+02 0.  0.
         23    2    4    4    0    0  0.44982199803E+02 -0.49570897440E+03  0.18065089824E+03  0.53702403375E+03  0.89494581906E+02 0.  0.
          4    1    3    3  502    0  0.57079900699E+01  0.21684752637E+03  0.25171475393E+03  0.33228865191E+03  0.00000000000E+00 0. -1.
         -1    1    3    3    0  502 -0.12753656617E+02  0.16364142422E+03  0.31049846014E+03  0.35121284889E+03  0.00000000000E+00 0.  1.
         11    1    5    5    0    0  0.21773084309E+02  0.27638755548E+02  0.11087951274E+03  0.11632813225E+03  0.00000000000E+00 0. -1.
        -11    1    5    5    0    0 -0.59709617566E+02  0.87581268261E+02  0.80076651897E+03  0.80775165421E+03  0.00000000000E+00 0.  1.
          4    1    6    6  503    0  0.29588120893E+02 -0.46378947030E+02  0.31180694289E+02  0.63235269604E+02  0.00000000000E+00 0. -1.
         -4    1    6    6    0  503  0.15394078910E+02 -0.44933002737E+03  0.14947020395E+03  0.47378876415E+03  0.00000000000E+00 0.  1.
<mgrwt>
<rscale>  0 0.13645249E+04</rscale>
<asrwt>0</asrwt>
<pdfrwt beam="1">  1        2 0.29223964E+00 0.13645249E+04</pdfrwt>
<pdfrwt beam="2">  1       -1 0.37699630E-01 0.13645249E+04</pdfrwt>
<totfact> 0.57329036E+01</totfact>
</mgrwt>
</event>
<event>
12    6  0.1538774E-007  0.1434952E+04  0.7818608E-02  0.8928900E-01
          2   -1    0    0  501    0  0.00000000000E+00  0.00000000000E+00  0.28623384671E+04  0.28623384671E+04  0.00000000000E+00 0. -1.
         -1   -1    0    0    0  501 -0.00000000000E+00 -0.00000000000E+00 -0.17984315963E+03  0.17984315963E+03  0.00000000000E+00 0.  1.
         24    2    1    2    0    0  0.39860273938E+03 -0.16143427711E+03  0.87363814393E+03  0.97706264747E+03  0.80390552192E+02 0.  0.
        254    2    1    2    0    0 -0.39860273938E+03  0.16143427711E+03  0.18088571636E+04  0.20651189793E+04  0.89878083579E+03 0.  0.
         23    2    4    4    0    0 -0.29158131542E+03  0.50028627223E+03  0.80215035406E+03  0.99360804610E+03  0.92226574690E+02 0.  0.
         23    2    4    4    0    0 -0.10702142395E+03 -0.33885199512E+03  0.10067068095E+04  0.10715109332E+04  0.91666896152E+02 0.  0.
          2    1    3    3  502    0  0.26806410306E+03 -0.12496851897E+03  0.51824926710E+03  0.59670578759E+03  0.00000000000E+00 0. -1.
         -1    1    3    3    0  502  0.13053863631E+03 -0.36465758141E+02  0.35538887683E+03  0.38035685988E+03  0.00000000000E+00 0.  1.
         11    1    5    5    0    0 -0.25404887887E+03  0.36549506445E+03  0.63781602109E+03  0.77777680073E+03  0.00000000000E+00 0. -1.
        -11    1    5    5    0    0 -0.37532436558E+02  0.13479120777E+03  0.16433433297E+03  0.21583124537E+03  0.00000000000E+00 0.  1.
          3    1    6    6  503    0 -0.13320559133E+02 -0.19205659530E+03  0.55066358927E+03  0.58334686220E+03  0.00000000000E+00 0. -1.
         -3    1    6    6    0  503 -0.93700864819E+02 -0.14679539982E+03  0.45604322025E+03  0.48816407100E+03  0.00000000000E+00 0.  1.
<mgrwt>
<rscale>  0 0.14349523E+04</rscale>
<asrwt>0</asrwt>
<pdfrwt beam="1">  1        2 0.44035973E+00 0.14349523E+04</pdfrwt>
<pdfrwt beam="2">  1       -1 0.27668181E-01 0.14349523E+04</pdfrwt>
<totfact> 0.27727574E+01</totfact>
</mgrwt>
</event>
<event>
12    6  0.1538774E-007  0.3021767E+04  0.7818608E-02  0.8237542E-01
          2   -1    0    0  501    0  0.00000000000E+00  0.00000000000E+00  0.30245200460E+04  0.30245200460E+04  0.00000000000E+00 0. -1.
         -1   -1    0    0    0  501 -0.00000000000E+00 -0.00000000000E+00 -0.75475435247E+03  0.75475435247E+03  0.00000000000E+00 0.  1.
         24    2    1    2    0    0  0.18244967900E+03  0.26581803068E+03  0.27096534072E+04  0.27297559778E+04  0.73477891667E+02 0.  0.
        254    2    1    2    0    0 -0.18244967900E+03 -0.26581803068E+03 -0.43988771370E+03  0.10495184206E+04  0.89668311220E+03 0.  0.
         23    2    4    4    0    0  0.27208016221E+03  0.10930381438E+02  0.79850623013E+02  0.29990927901E+03  0.97068871094E+02 0.  0.
         23    2    4    4    0    0 -0.45452984121E+03 -0.27674841212E+03 -0.51973833671E+03  0.74960914158E+03  0.92730072465E+02 0.  0.
          4    1    3    3  502    0  0.10054644865E+03  0.15759178168E+03  0.12644635027E+04  0.12782068329E+04  0.00000000000E+00 0. -1.
         -3    1    3    3    0  502  0.81903230342E+02  0.10822624900E+03  0.14451899044E+04  0.14515491449E+04  0.00000000000E+00 0.  1.
         11    1    5    5    0    0  0.26713069985E+03  0.30422272816E+02  0.72102634613E+02  0.27835789086E+03  0.00000000000E+00 0. -1.
        -11    1    5    5    0    0  0.49494623633E+01 -0.19491891379E+02  0.77479883996E+01  0.21551388156E+02  0.00000000000E+00 0.  1.
          1    1    6    6  503    0 -0.41732979269E+03 -0.22265005304E+03 -0.43690666000E+03  0.64391352799E+03  0.00000000000E+00 0. -1.
         -1    1    6    6    0  503 -0.37200048522E+02 -0.54098359080E+02 -0.82831676714E+02  0.10569561359E+03  0.00000000000E+00 0.  1.
<mgrwt>
<rscale>  0 0.30217675E+04</rscale>
<asrwt>0</asrwt>
<pdfrwt beam="1">  1        2 0.46531077E+00 0.30217675E+04</pdfrwt>
<pdfrwt beam="2">  1       -1 0.11611606E+00 0.30217675E+04</pdfrwt>
<totfact> 0.10933575E+00</totfact>
</mgrwt>
</event>
<event>
12    6  0.1538774E-007  0.1837518E+04  0.7818608E-02  0.8686598E-01
         -1   -1    0    0    0  501 -0.00000000000E+00  0.00000000000E+00  0.37944531858E+03  0.37944531858E+03  0.00000000000E+00 0.  1.
          2   -1    0    0  501    0  0.00000000000E+00 -0.00000000000E+00 -0.22246109845E+04  0.22246109845E+04  0.00000000000E+00 0. -1.
         24    2    1    2    0    0 -0.84657723274E+02 -0.20758586141E+03 -0.15980362030E+04  0.16154819709E+04  0.76180523220E+02 0.  0.
        254    2    1    2    0    0  0.84657723274E+02  0.20758586141E+03 -0.24712946286E+03  0.98857433216E+03  0.93056295801E+03 0.  0.
         23    2    4    4    0    0  0.16446188852E+03  0.46831505550E+03 -0.41960833926E+03  0.65637923588E+03  0.91628810628E+02 0.  0.
         23    2    4    4    0    0 -0.79804165248E+02 -0.26072919409E+03  0.17247887640E+03  0.33219509628E+03  0.79096155052E+02 0.  0.
          4    1    3    3  502    0 -0.36534703664E+02 -0.16465453742E+03 -0.10187059631E+04  0.10325733584E+04  0.00000000000E+00 0. -1.
         -3    1    3    3    0  502 -0.48123019610E+02 -0.42931323983E+02 -0.57933023997E+03  0.58290861251E+03  0.00000000000E+00 0.  1.
         11    1    5    5    0    0  0.13214996214E+03  0.28583526149E+03 -0.30552355151E+03  0.43875967195E+03  0.00000000000E+00 0.  1.
        -11    1    5    5    0    0  0.32311926380E+02  0.18247979401E+03 -0.11408478774E+03  0.21761956393E+03  0.00000000000E+00 0. -1.
          1    1    6    6  503    0 -0.34519853278E+02 -0.16924582442E+03  0.66606133458E+02  0.18512737876E+03  0.00000000000E+00 0. -1.
         -1    1    6    6    0  503 -0.45284311971E+02 -0.91483369677E+02  0.10587274294E+03  0.14706771752E+03  0.00000000000E+00 0.  1.
<mgrwt>
<rscale>  0 0.18375181E+04</rscale>
<asrwt>0</asrwt>
<pdfrwt beam="1">  1        2 0.34224784E+00 0.18375181E+04</pdfrwt>
<pdfrwt beam="2">  1       -1 0.58376203E-01 0.18375181E+04</pdfrwt>
<totfact> 0.15943411E+01</totfact>
</mgrwt>
</event>
<event>
12    6  0.1538774E-007  0.2035481E+04  0.7818608E-02  0.8590209E-01
         -1   -1    0    0    0  501 -0.00000000000E+00  0.00000000000E+00  0.50385341451E+03  0.50385341451E+03  0.00000000000E+00 0.  1.
          2   -1    0    0  501    0  0.00000000000E+00 -0.00000000000E+00 -0.20557485363E+04  0.20557485363E+04  0.00000000000E+00 0. -1.
         24    2    1    2    0    0 -0.66862150910E+03  0.41332037124E+03 -0.91886711564E+03  0.12116634207E+04  0.76961141148E+02 0.  0.
        254    2    1    2    0    0  0.66862150910E+03 -0.41332037124E+03 -0.63302800609E+03  0.13479385300E+04  0.89349055535E+03 0.  0.
         23    2    4    4    0    0 -0.14305235335E+03 -0.32653472511E+03 -0.18830023964E+03  0.41387300073E+03  0.93514586988E+02 0.  0.
         23    2    4    4    0    0  0.81167386245E+03 -0.86785646127E+02 -0.44472776645E+03  0.93406552929E+03  0.91375157414E+02 0.  0.
          4    1    3    3  502    0 -0.12278918713E+03  0.63927878066E+02 -0.12192982308E+03  0.18447449641E+03  0.00000000000E+00 0. -1.
         -3    1    3    3    0  502 -0.54583232197E+03  0.34939249318E+03 -0.79693729256E+03  0.10271889243E+04  0.00000000000E+00 0.  1.
         11    1    5    5    0    0 -0.99854488738E+02 -0.20054604349E+03 -0.16600315654E+03  0.27883092092E+03  0.00000000000E+00 0.  1.
        -11    1    5    5    0    0 -0.43197864617E+02 -0.12598868162E+03 -0.22297083103E+02  0.13504207981E+03  0.00000000000E+00 0. -1.
          2    1    6    6  503    0  0.19407412721E+03  0.78832903962E+01 -0.13620462011E+03  0.23723113552E+03  0.00000000000E+00 0. -1.
         -2    1    6    6    0  503  0.61759973525E+03 -0.94668936523E+02 -0.30852314634E+03  0.69683439377E+03  0.00000000000E+00 0.  1.
<mgrwt>
<rscale>  0 0.20354812E+04</rscale>
<asrwt>0</asrwt>
<pdfrwt beam="1">  1        2 0.31626901E+00 0.20354812E+04</pdfrwt>
<pdfrwt beam="2">  1       -1 0.77515910E-01 0.20354812E+04</pdfrwt>
<totfact> 0.10941358E+01</totfact>
</mgrwt>
</event>
<event>
12    6  0.1538774E-007  0.1729079E+04  0.7818608E-02  0.8744951E-01
          2   -1    0    0  501    0  0.00000000000E+00  0.00000000000E+00  0.44487174089E+04  0.44487174089E+04  0.00000000000E+00 0. -1.
         -1   -1    0    0    0  501 -0.00000000000E+00 -0.00000000000E+00 -0.16800996357E+03  0.16800996357E+03  0.00000000000E+00 0.  1.
         24    2    1    2    0    0  0.58598126596E+02  0.48102579655E+03  0.48277188887E+03  0.68874193487E+03  0.80481046078E+02 0.  0.
        254    2    1    2    0    0 -0.58598126596E+02 -0.48102579655E+03  0.37979355565E+04  0.39279854376E+04  0.87745971395E+03 0.  0.
         23    2    4    4    0    0 -0.20359445689E+03  0.19856157578E+03  0.10052540862E+04  0.10487847246E+04  0.92391657315E+02 0.  0.
         23    2    4    4    0    0  0.14499633029E+03 -0.67958737233E+03  0.27926814702E+04  0.28792007130E+04  0.88679306364E+02 0.  0.
          4    1    3    3  502    0 -0.17226109355E+02  0.13625893266E+03  0.15400095520E+03  0.20634807916E+03  0.00000000000E+00 0. -1.
         -3    1    3    3    0  502  0.75824235951E+02  0.34476686389E+03  0.32877093367E+03  0.48239385570E+03  0.00000000000E+00 0.  1.
         11    1    5    5    0    0 -0.32448487366E+02  0.91641294094E+02  0.32384089459E+03  0.33811825760E+03  0.00000000000E+00 0. -1.
        -11    1    5    5    0    0 -0.17114596952E+03  0.10692028169E+03  0.68141319164E+03  0.71066646696E+03  0.00000000000E+00 0.  1.
          2    1    6    6  503    0  0.38433309842E+02 -0.31686312026E+03  0.11408943353E+04  0.11847021738E+04  0.00000000000E+00 0. -1.
         -2    1    6    6    0  503  0.10656302045E+03 -0.36272425207E+03  0.16517871349E+04  0.16944985393E+04  0.00000000000E+00 0.  1.
<mgrwt>
<rscale>  0 0.17290794E+04</rscale>
<asrwt>0</asrwt>
<pdfrwt beam="1">  1        2 0.68441797E+00 0.17290794E+04</pdfrwt>
<pdfrwt beam="2">  1       -1 0.25847690E-01 0.17290794E+04</pdfrwt>
<totfact> 0.20210932E+00</totfact>
</mgrwt>
</event>
<event>
12    6  0.1538774E-007  0.1935428E+04  0.7818608E-02  0.8637420E-01
         -1   -1    0    0    0  501 -0.00000000000E+00  0.00000000000E+00  0.19563941883E+04  0.19563941883E+04  0.00000000000E+00 0.  1.
          2   -1    0    0  501    0  0.00000000000E+00 -0.00000000000E+00 -0.47867152827E+03  0.47867152827E+03  0.00000000000E+00 0. -1.
         24    2    1    2    0    0  0.37005433305E+03 -0.61511901084E+03  0.28057174554E+03  0.77497539735E+03  0.80961442617E+02 0.  0.
        254    2    1    2    0    0 -0.37005433305E+03  0.61511901084E+03  0.11971509145E+04  0.16600903192E+04  0.89856438224E+03 0.  0.
         23    2    4    4    0    0 -0.47354889759E+03  0.16348564732E+03  0.18254926738E+03  0.54100455384E+03  0.91572796006E+02 0.  0.
         23    2    4    4    0    0  0.10349456453E+03  0.45163336352E+03  0.10146016471E+04  0.11190857654E+04  0.90843976413E+02 0.  0.
          4    1    3    3  502    0  0.33610324021E+02 -0.72230103303E+02  0.63914323238E+01  0.79923038676E+02  0.00000000000E+00 0. -1.
         -3    1    3    3    0  502  0.33644400903E+03 -0.54288890753E+03  0.27418031322E+03  0.69505235867E+03  0.00000000000E+00 0.  1.
         11    1    5    5    0    0 -0.46089974150E+03  0.16901010902E+03  0.18865399089E+03  0.52591189085E+03  0.00000000000E+00 0. -1.
        -11    1    5    5    0    0 -0.12649156088E+02 -0.55244616979E+01 -0.61047235113E+01  0.15092662983E+02  0.00000000000E+00 0.  1.
          3    1    6    6  503    0 -0.22831014919E+01  0.10722452854E+03  0.30406251602E+03  0.32242258872E+03  0.00000000000E+00 0.  1.
         -3    1    6    6    0  503  0.10577766603E+03  0.34440883498E+03  0.71053913109E+03  0.79666317666E+03  0.00000000000E+00 0. -1.
<mgrwt>
<rscale>  0 0.19354278E+04</rscale>
<asrwt>0</asrwt>
<pdfrwt beam="1">  1        2 0.73641774E-01 0.19354278E+04</pdfrwt>
<pdfrwt beam="2">  1       -1 0.30098372E+00 0.19354278E+04</pdfrwt>
<totfact> 0.22513464E+00</totfact>
</mgrwt>
</event>
<event>
12    6  0.1538774E-007  0.1507867E+04  0.7818608E-02  0.8879238E-01
          2   -1    0    0  501    0  0.00000000000E+00  0.00000000000E+00  0.10025148775E+04  0.10025148775E+04  0.00000000000E+00 0. -1.
         -1   -1    0    0    0  501 -0.00000000000E+00 -0.00000000000E+00 -0.56698979576E+03  0.56698979576E+03  0.00000000000E+00 0.  1.
         24    2    1    2    0    0 -0.20400642014E+03  0.69763954725E+02  0.58614302398E+03  0.62968727594E+03  0.80354166557E+02 0.  0.
        254    2    1    2    0    0  0.20400642014E+03 -0.69763954725E+02 -0.15061794225E+03  0.93981739730E+03  0.90226678256E+03 0.  0.
         23    2    4    4    0    0  0.45098282001E+03  0.24094670000E+03 -0.55786847662E+02  0.52208816243E+03  0.89571540101E+02 0.  0.
         23    2    4    4    0    0 -0.24697639987E+03 -0.31071065473E+03 -0.94831094590E+02  0.41772923487E+03  0.89254266622E+02 0.  0.
          2    1    3    3  502    0 -0.10453994694E+03  0.75356626130E+02  0.29330299713E+03  0.32036521305E+03  0.00000000000E+00 0. -1.
         -1    1    3    3    0  502 -0.99466473199E+02 -0.55926714053E+01  0.29284002684E+03  0.30932206288E+03  0.00000000000E+00 0.  1.
         11    1    5    5    0    0  0.45655102388E+02  0.21996491627E+01  0.10845218529E+02  0.46977075211E+02  0.00000000000E+00 0. -1.
        -11    1    5    5    0    0  0.40532771762E+03  0.23874705084E+03 -0.66632066191E+02  0.47511108722E+03  0.00000000000E+00 0.  1.
          1    1    6    6  503    0 -0.33287245349E+02 -0.11529028274E+02 -0.25755029626E+02  0.43638065343E+02  0.00000000000E+00 0. -1.
         -1    1    6    6    0  503 -0.21368915452E+03 -0.29918162645E+03 -0.69076064965E+02  0.37409116953E+03  0.00000000000E+00 0.  1.
<mgrwt>
<rscale>  0 0.15078670E+04</rscale>
<asrwt>0</asrwt>
<pdfrwt beam="1">  1        2 0.15423306E+00 0.15078670E+04</pdfrwt>
<pdfrwt beam="2">  1       -1 0.87229200E-01 0.15078670E+04</pdfrwt>
<totfact> 0.35782285E+01</totfact>
</mgrwt>
</event>
<event>
12    6  0.1538774E-007  0.2289685E+04  0.7818608E-02  0.8481999E-01
         -1   -1    0    0    0  501 -0.00000000000E+00  0.00000000000E+00  0.73096964480E+03  0.73096964480E+03  0.00000000000E+00 0.  1.
          2   -1    0    0  501    0  0.00000000000E+00 -0.00000000000E+00 -0.17930494662E+04  0.17930494662E+04  0.00000000000E+00 0. -1.
         24    2    1    2    0    0  0.62978158440E+03  0.34961574664E+03  0.25173768141E+03  0.76770425212E+03  0.84510023878E+02 0.  0.
        254    2    1    2    0    0 -0.62978158440E+03 -0.34961574664E+03 -0.13138175028E+04  0.17563148589E+04  0.91633478516E+03 0.  0.
         23    2    4    4    0    0  0.16598373912E+03 -0.48605851387E+02 -0.63447302150E+03  0.66375944284E+03  0.90041393320E+02 0.  0.
         23    2    4    4    0    0 -0.79576532351E+03 -0.30100989525E+03 -0.67934448132E+03  0.10925554160E+04  0.91208583422E+02 0.  0.
          4    1    3    3  502    0  0.12987603838E+03  0.10525566450E+03  0.80315731936E+02  0.18546470568E+03  0.00000000000E+00 0. -1.
         -3    1    3    3    0  502  0.49990554602E+03  0.24436008214E+03  0.17142194948E+03  0.58223954644E+03  0.00000000000E+00 0.  1.
         11    1    5    5    0    0  0.11821313910E+01  0.55654734768E+01  0.31088011413E+00  0.56981203999E+01  0.00000000000E+00 0.  1.
        -11    1    5    5    0    0  0.16480160772E+03 -0.54171324864E+02 -0.63478390162E+03  0.65806132244E+03  0.00000000000E+00 0. -1.
          3    1    6    6  503    0 -0.60454185172E+03 -0.26600941841E+03 -0.54419669939E+03  0.85579314603E+03  0.00000000000E+00 0. -1.
         -3    1    6    6    0  503 -0.19122347179E+03 -0.35000476842E+02 -0.13514778193E+03  0.23676227002E+03  0.00000000000E+00 0.  1.
<mgrwt>
<rscale>  0 0.22896853E+04</rscale>
<asrwt>0</asrwt>
<pdfrwt beam="1">  1        2 0.27585376E+00 0.22896853E+04</pdfrwt>
<pdfrwt beam="2">  1       -1 0.11245687E+00 0.22896853E+04</pdfrwt>
<totfact> 0.65123846E+00</totfact>
</mgrwt>
</event>
<event>
12    6  0.1538774E-007  0.1682661E+04  0.7818608E-02  0.8771316E-01
         -1   -1    0    0    0  501 -0.00000000000E+00  0.00000000000E+00  0.72841001877E+03  0.72841001877E+03  0.00000000000E+00 0.  1.
          2   -1    0    0  501    0  0.00000000000E+00 -0.00000000000E+00 -0.97175573275E+03  0.97175573275E+03  0.00000000000E+00 0. -1.
         24    2    1    2    0    0  0.16994007118E+03  0.23529556174E+03  0.40389475682E+03  0.50361824627E+03  0.79099521028E+02 0.  0.
        254    2    1    2    0    0 -0.16994007118E+03 -0.23529556174E+03 -0.64724047079E+03  0.11965475053E+04  0.96361925890E+03 0.  0.
         23    2    4    4    0    0 -0.17957585219E+02 -0.46316671381E+03  0.16920906976E+02  0.47234675396E+03  0.89326699483E+02 0.  0.
         23    2    4    4    0    0 -0.15198248596E+03  0.22787115207E+03 -0.66416137777E+03  0.72420075129E+03  0.91282278986E+02 0.  0.
          2    1    3    3  502    0  0.12298430674E+03  0.16568368185E+03  0.22090750891E+03  0.30228521239E+03  0.00000000000E+00 0. -1.
         -1    1    3    3    0  502  0.46955764444E+02  0.69611879882E+02  0.18298724791E+03  0.20133303388E+03  0.00000000000E+00 0.  1.
         11    1    5    5    0    0 -0.35429838384E+02 -0.25802290717E+03  0.45813728599E+02  0.26444279495E+03  0.00000000000E+00 0.  1.
        -11    1    5    5    0    0  0.17472253165E+02 -0.20514380664E+03 -0.28892821623E+02  0.20790395901E+03  0.00000000000E+00 0. -1.
          3    1    6    6  503    0 -0.40021398826E+02  0.13560374984E+03 -0.28277380458E+03  0.31615046084E+03  0.00000000000E+00 0. -1.
         -3    1    6    6    0  503 -0.11196108714E+03  0.92267402232E+02 -0.38138757319E+03  0.40805029044E+03  0.00000000000E+00 0.  1.
<mgrwt>
<rscale>  0 0.16826605E+04</rscale>
<asrwt>0</asrwt>
<pdfrwt beam="1">  1        2 0.14950088E+00 0.16826605E+04</pdfrwt>
<pdfrwt beam="2">  1       -1 0.11206308E+00 0.16826605E+04</pdfrwt>
<totfact> 0.20861864E+01</totfact>
</mgrwt>
</event>
<event>
12    6  0.1538774E-007  0.4334927E+04  0.7818608E-02  0.7940191E-01
         -1   -1    0    0    0  501 -0.00000000000E+00  0.00000000000E+00  0.24751700703E+04  0.24751700703E+04  0.00000000000E+00 0.  1.
          2   -1    0    0  501    0  0.00000000000E+00 -0.00000000000E+00 -0.18980101136E+04  0.18980101136E+04  0.00000000000E+00 0. -1.
         24    2    1    2    0    0  0.13755148987E+04 -0.15358750827E+04  0.48797756897E+03  0.21205022202E+04  0.86336848685E+02 0.  0.
        254    2    1    2    0    0 -0.13755148987E+04  0.15358750827E+04  0.89182387663E+02  0.22526779638E+04  0.90313398986E+03 0.  0.
         23    2    4    4    0    0 -0.39653750340E+03  0.18870287206E+03 -0.29826370340E+03  0.54046184118E+03  0.10142484648E+03 0.  0.
         23    2    4    4    0    0 -0.97897739535E+03  0.13471722107E+04  0.38744609106E+03  0.17122161226E+04  0.91103628129E+02 0.  0.
          4    1    3    3  502    0  0.19227984520E+03 -0.18401672407E+03  0.42093430680E+02  0.26945417146E+03  0.00000000000E+00 0. -1.
         -3    1    3    3    0  502  0.11832350535E+04 -0.13518583587E+04  0.44588413829E+03  0.18510480487E+04  0.00000000000E+00 0.  1.
         11    1    5    5    0    0 -0.71103806701E+02  0.56530506547E+01 -0.17906131354E+02  0.73541402279E+02  0.00000000000E+00 0.  1.
        -11    1    5    5    0    0 -0.32543369670E+03  0.18304982140E+03 -0.28035757205E+03  0.46692043890E+03  0.00000000000E+00 0. -1.
          3    1    6    6  503    0 -0.70218634948E+03  0.94601498715E+03  0.23307846768E+03  0.12009727713E+04  0.00000000000E+00 0. -1.
         -3    1    6    6    0  503 -0.27679104587E+03  0.40115722354E+03  0.15436762338E+03  0.51124335127E+03  0.00000000000E+00 0.  1.
<mgrwt>
<rscale>  0 0.43349269E+04</rscale>
<asrwt>0</asrwt>
<pdfrwt beam="1">  1        2 0.29200156E+00 0.43349269E+04</pdfrwt>
<pdfrwt beam="2">  1       -1 0.38079539E+00 0.43349269E+04</pdfrwt>
<totfact> 0.64285196E-02</totfact>
</mgrwt>
</event>
<event>
12    6  0.1538774E-007  0.1971453E+04  0.7818608E-02  0.8620085E-01
          2   -1    0    0  501    0  0.00000000000E+00  0.00000000000E+00  0.12624799063E+04  0.12624799063E+04  0.00000000000E+00 0. -1.
         -1   -1    0    0    0  501 -0.00000000000E+00 -0.00000000000E+00 -0.76964099494E+03  0.76964099494E+03  0.00000000000E+00 0.  1.
         24    2    1    2    0    0  0.22686053427E+03  0.37199165211E+03  0.85091691161E+03  0.95894519124E+03  0.75317979811E+02 0.  0.
        254    2    1    2    0    0 -0.22686053427E+03 -0.37199165211E+03 -0.35807800022E+03  0.10731757100E+04  0.91304039294E+03 0.  0.
         23    2    4    4    0    0  0.31106500535E+02 -0.27060805777E+02 -0.57417874435E+03  0.58280329332E+03  0.90986519080E+02 0.  0.
         23    2    4    4    0    0 -0.25796703480E+03 -0.34493084633E+03  0.21610074414E+03  0.49037241672E+03  0.90781582190E+02 0.  0.
          2    1    3    3  502    0  0.23230507951E+03  0.36826210610E+03  0.83474460055E+03  0.94147818716E+03  0.00000000000E+00 0. -1.
         -1    1    3    3    0  502 -0.54445452386E+01  0.37295460085E+01  0.16172311064E+02  0.17467004077E+02  0.00000000000E+00 0.  1.
         11    1    5    5    0    0  0.61960475810E+01 -0.56382160935E+02 -0.42387914421E+03  0.42765741894E+03  0.00000000000E+00 0.  1.
        -11    1    5    5    0    0  0.24910452954E+02  0.29321355158E+02 -0.15029960014E+03  0.15514587438E+03  0.00000000000E+00 0. -1.
          4    1    6    6  503    0 -0.44091499422E+02 -0.16745357206E+02  0.12009520243E+02  0.48669249899E+02  0.00000000000E+00 0. -1.
         -4    1    6    6    0  503 -0.21387553538E+03 -0.32818548913E+03  0.20409122389E+03  0.44170316682E+03  0.00000000000E+00 0.  1.
<mgrwt>
<rscale>  0 0.19714526E+04</rscale>
<asrwt>0</asrwt>
<pdfrwt beam="1">  1        2 0.19422768E+00 0.19714526E+04</pdfrwt>
<pdfrwt beam="2">  1       -1 0.11840631E+00 0.19714526E+04</pdfrwt>
<totfact> 0.11810284E+01</totfact>
</mgrwt>
</event>
<event>
12    6  0.1538774E-007  0.2746467E+04  0.7818608E-02  0.8320083E-01
         -1   -1    0    0    0  501 -0.00000000000E+00  0.00000000000E+00  0.10898070825E+04  0.10898070825E+04  0.00000000000E+00 0.  1.
          2   -1    0    0  501    0  0.00000000000E+00 -0.00000000000E+00 -0.17303711982E+04  0.17303711982E+04  0.00000000000E+00 0. -1.
         24    2    1    2    0    0 -0.31590433105E+03  0.32660975786E+03 -0.14532295661E+04  0.15245805047E+04  0.77460074869E+02 0.  0.
        254    2    1    2    0    0  0.31590433105E+03 -0.32660975786E+03  0.81266545047E+03  0.12955977760E+04  0.90093228515E+03 0.  0.
         23    2    4    4    0    0  0.17051391296E+03  0.29914698102E+03  0.35681267211E+03  0.50270882519E+03  0.82685967264E+02 0.  0.
         23    2    4    4    0    0  0.14539041809E+03 -0.62575673888E+03  0.45585277836E+03  0.79288895079E+03  0.90339707827E+02 0.  0.
          4    1    3    3  502    0 -0.22462995801E+03  0.17937338261E+03 -0.93095877939E+03  0.97432934748E+03  0.00000000000E+00 0. -1.
         -3    1    3    3    0  502 -0.91274373037E+02  0.14723637526E+03 -0.52227078670E+03  0.55025115721E+03  0.00000000000E+00 0.  1.
         11    1    5    5    0    0  0.14897574664E+03  0.26953653422E+03  0.34866148313E+03  0.46519731963E+03  0.00000000000E+00 0. -1.
        -11    1    5    5    0    0  0.21538166319E+02  0.29610446799E+02  0.81511889735E+01  0.37511505564E+02  0.00000000000E+00 0.  1.
          3    1    6    6  503    0  0.96282421729E+02 -0.52951644444E+03  0.40450808778E+03  0.67326425922E+03  0.00000000000E+00 0. -1.
         -3    1    6    6    0  503  0.49107996361E+02 -0.96240294446E+02  0.51344690581E+02  0.11962469157E+03  0.00000000000E+00 0.  1.
<mgrwt>
<rscale>  0 0.27464674E+04</rscale>
<asrwt>0</asrwt>
<pdfrwt beam="1">  1        2 0.26621095E+00 0.27464674E+04</pdfrwt>
<pdfrwt beam="2">  1       -1 0.16766263E+00 0.27464674E+04</pdfrwt>
<totfact> 0.24027041E+00</totfact>
</mgrwt>
</event>
<event>
12    6  0.1538774E-007  0.1405382E+04  0.7818608E-02  0.8949932E-01
         -1   -1    0    0    0  501 -0.00000000000E+00  0.00000000000E+00  0.58362141412E+03  0.58362141412E+03  0.00000000000E+00 0.  1.
          2   -1    0    0  501    0  0.00000000000E+00 -0.00000000000E+00 -0.84605343344E+03  0.84605343344E+03  0.00000000000E+00 0. -1.
         24    2    1    2    0    0 -0.23910293786E+03  0.28102555315E+03  0.52347237747E+02  0.38077589753E+03  0.78131136048E+02 0.  0.
        254    2    1    2    0    0  0.23910293786E+03 -0.28102555315E+03 -0.31477925707E+03  0.10488989500E+04  0.93003088673E+03 0.  0.
         23    2    4    4    0    0 -0.20824906387E+03 -0.45343440365E+03 -0.21393177984E+03  0.55048153228E+03  0.91064152874E+02 0.  0.
         23    2    4    4    0    0  0.44735200173E+03  0.17240885050E+03 -0.10084747723E+03  0.49841741775E+03  0.91657424519E+02 0.  0.
          4    1    3    3  502    0 -0.43243473646E+02  0.21727468026E+02 -0.11177161132E+02  0.49669002514E+02  0.00000000000E+00 0. -1.
         -3    1    3    3    0  502 -0.19585946422E+03  0.25929808513E+03  0.63524398880E+02  0.33110689502E+03  0.00000000000E+00 0.  1.
         11    1    5    5    0    0 -0.18932542890E+03 -0.43579764452E+03 -0.22046376016E+03  0.52380146481E+03  0.00000000000E+00 0. -1.
        -11    1    5    5    0    0 -0.18923634971E+02 -0.17636759131E+02  0.65319803185E+01  0.26680067467E+02  0.00000000000E+00 0.  1.
          3    1    6    6  503    0  0.44867787179E+03  0.16220644874E+03 -0.94617611405E+02  0.48639002563E+03  0.00000000000E+00 0. -1.
         -3    1    6    6    0  503 -0.13258700555E+01  0.10202401756E+02 -0.62298658251E+01  0.12027392119E+02  0.00000000000E+00 0.  1.
<mgrwt>
<rscale>  0 0.14053824E+04</rscale>
<asrwt>0</asrwt>
<pdfrwt beam="1">  1        2 0.13016207E+00 0.14053824E+04</pdfrwt>
<pdfrwt beam="2">  1       -1 0.89787910E-01 0.14053824E+04</pdfrwt>
<totfact> 0.43091477E+01</totfact>
</mgrwt>
</event>
<event>
12    6  0.1538774E-007  0.1665745E+04  0.7818608E-02  0.8781146E-01
          2   -1    0    0  501    0  0.00000000000E+00  0.00000000000E+00  0.47459947004E+03  0.47459947004E+03  0.00000000000E+00 0. -1.
         -1   -1    0    0    0  501 -0.00000000000E+00 -0.00000000000E+00 -0.14616044191E+04  0.14616044191E+04  0.00000000000E+00 0.  1.
         24    2    1    2    0    0  0.36426871172E+03  0.18471461673E+03 -0.83797489208E+03  0.93565331956E+03  0.80212409730E+02 0.  0.
        254    2    1    2    0    0 -0.36426871172E+03 -0.18471461673E+03 -0.14903005699E+03  0.10005505696E+04  0.90115498138E+03 0.  0.
         23    2    4    4    0    0 -0.38013861424E+03  0.28815560538E+03 -0.17839298292E+03  0.51770156929E+03  0.93015265065E+02 0.  0.
         23    2    4    4    0    0  0.15869902524E+02 -0.47287022211E+03  0.29362925930E+02  0.48284900031E+03  0.91776221964E+02 0.  0.
          2    1    3    3  502    0  0.10080590397E+03  0.21182440377E+02 -0.16242103582E+03  0.19233075399E+03  0.00000000000E+00 0. -1.
         -1    1    3    3    0  502  0.26346280775E+03  0.16353217635E+03 -0.67555385626E+03  0.74332256557E+03  0.00000000000E+00 0.  1.
         11    1    5    5    0    0 -0.12819298094E+03  0.51059467759E+02 -0.72616353489E+02  0.15592833099E+03  0.00000000000E+00 0. -1.
        -11    1    5    5    0    0 -0.25194563330E+03  0.23709613762E+03 -0.10577662943E+03  0.36177323830E+03  0.00000000000E+00 0.  1.
          3    1    6    6  503    0  0.11169820613E+02 -0.53427835273E+02 -0.24698507231E+02  0.59910889945E+02  0.00000000000E+00 0. -1.
         -3    1    6    6    0  503  0.47000819110E+01 -0.41944238684E+03  0.54061433161E+02  0.42293811037E+03  0.00000000000E+00 0.  1.
<mgrwt>
<rscale>  0 0.16657451E+04</rscale>
<asrwt>0</asrwt>
<pdfrwt beam="1">  1        2 0.73015304E-01 0.16657451E+04</pdfrwt>
<pdfrwt beam="2">  1       -1 0.22486222E+00 0.16657451E+04</pdfrwt>
<totfact> 0.72855469E+00</totfact>
</mgrwt>
</event>
<event>
12    6  0.1538774E-007  0.1571389E+04  0.7818608E-02  0.8838320E-01
          2   -1    0    0  501    0  0.00000000000E+00  0.00000000000E+00  0.33858885664E+04  0.33858885664E+04  0.00000000000E+00 0. -1.
         -1   -1    0    0    0  501 -0.00000000000E+00 -0.00000000000E+00 -0.18232014566E+03  0.18232014566E+03  0.00000000000E+00 0.  1.
         24    2    1    2    0    0  0.37997969112E+03 -0.18625130561E+03  0.37373528320E+03  0.57007063341E+03  0.78919900285E+02 0.  0.
        254    2    1    2    0    0 -0.37997969112E+03  0.18625130561E+03  0.28298331375E+04  0.29981380786E+04  0.89543410578E+03 0.  0.
         23    2    4    4    0    0 -0.41274406996E+03 -0.23079295827E+03  0.89343251028E+03  0.10150086618E+04  0.91639927433E+02 0.  0.
         23    2    4    4    0    0  0.32764378840E+02  0.41704426388E+03  0.19364006272E+04  0.19831294168E+04  0.90307652074E+02 0.  0.
          4    1    3    3  502    0  0.21109522564E+02  0.13254599404E+01  0.40332371527E+02  0.45541947476E+02  0.00000000000E+00 0. -1.
         -3    1    3    3    0  502  0.35887016856E+03 -0.18757676555E+03  0.33340291168E+03  0.52452868594E+03  0.00000000000E+00 0.  1.
         11    1    5    5    0    0 -0.17497956809E+03 -0.59693090541E+02  0.28470713934E+03  0.33946909948E+03  0.00000000000E+00 0. -1.
        -11    1    5    5    0    0 -0.23776450187E+03 -0.17109986773E+03  0.60872537094E+03  0.67553956236E+03  0.00000000000E+00 0.  1.
          1    1    6    6  503    0  0.59541663307E+01  0.46927412118E+02  0.38848180568E+03  0.39135118174E+03  0.00000000000E+00 0. -1.
         -1    1    6    6    0  503  0.26810212509E+02  0.37011685176E+03  0.15479188215E+04  0.15917782350E+04  0.00000000000E+00 0.  1.
<mgrwt>
<rscale>  0 0.15713888E+04</rscale>
<asrwt>0</asrwt>
<pdfrwt beam="1">  1        2 0.52090589E+00 0.15713888E+04</pdfrwt>
<pdfrwt beam="2">  1       -1 0.28049256E-01 0.15713888E+04</pdfrwt>
<totfact> 0.12377601E+01</totfact>
</mgrwt>
</event>
<event>
12    6  0.1538774E-007  0.1318833E+04  0.7818608E-02  0.9014762E-01
         -1   -1    0    0    0  501 -0.00000000000E+00  0.00000000000E+00  0.34353475371E+03  0.34353475371E+03  0.00000000000E+00 0.  1.
          2   -1    0    0  501    0  0.00000000000E+00 -0.00000000000E+00 -0.12657528085E+04  0.12657528085E+04  0.00000000000E+00 0. -1.
         24    2    1    2    0    0 -0.16927401764E+03 -0.46450095838E+02 -0.61823447125E+03  0.64763444099E+03  0.80032513752E+02 0.  0.
        254    2    1    2    0    0  0.16927401764E+03  0.46450095838E+02 -0.30398358350E+03  0.96165312118E+03  0.89529849882E+03 0.  0.
         23    2    4    4    0    0  0.30115348404E+02 -0.30740214263E+03 -0.44242702114E+03  0.54708493623E+03  0.90317478420E+02 0.  0.
         23    2    4    4    0    0  0.13915866923E+03  0.35385223847E+03  0.13844343764E+03  0.41456818495E+03  0.90131307850E+02 0.  0.
          4    1    3    3  502    0 -0.62704103832E+02 -0.57323599862E+02 -0.30364996210E+03  0.31531111497E+03  0.00000000000E+00 0. -1.
         -3    1    3    3    0  502 -0.10656991380E+03  0.10873504024E+02 -0.31458450915E+03  0.33232332602E+03  0.00000000000E+00 0.  1.
         11    1    5    5    0    0  0.40037963146E+02 -0.10598170095E+03 -0.21574222143E+03  0.24367984229E+03  0.00000000000E+00 0. -1.
        -11    1    5    5    0    0 -0.99226147426E+01 -0.20142044168E+03 -0.22668479972E+03  0.30340509394E+03  0.00000000000E+00 0.  1.
          2    1    6    6  503    0  0.92555182590E+02  0.12656172518E+03  0.76287761972E+02  0.17436787185E+03  0.00000000000E+00 0. -1.
         -2    1    6    6    0  503  0.46603486642E+02  0.22729051329E+03  0.62155675669E+02  0.24020031310E+03  0.00000000000E+00 0.  1.
<mgrwt>
<rscale>  0 0.13188329E+04</rscale>
<asrwt>0</asrwt>
<pdfrwt beam="1">  1        2 0.19473120E+00 0.13188329E+04</pdfrwt>
<pdfrwt beam="2">  1       -1 0.52851501E-01 0.13188329E+04</pdfrwt>
<totfact> 0.69713992E+01</totfact>
</mgrwt>
</event>
<event>
12    6  0.1538774E-007  0.1458152E+04  0.7818608E-02  0.8912769E-01
         -1   -1    0    0    0  501 -0.00000000000E+00  0.00000000000E+00  0.29085153115E+03  0.29085153115E+03  0.00000000000E+00 0.  1.
          2   -1    0    0  501    0  0.00000000000E+00 -0.00000000000E+00 -0.18275703189E+04  0.18275703189E+04  0.00000000000E+00 0. -1.
         24    2    1    2    0    0 -0.24737268152E+03  0.22758038566E+03 -0.87055162818E+03  0.93669841465E+03  0.80979671365E+02 0.  0.
        254    2    1    2    0    0  0.24737268152E+03 -0.22758038566E+03 -0.66616715955E+03  0.11817234354E+04  0.91635447168E+03 0.  0.
         23    2    4    4    0    0  0.35347713718E+03  0.20964893995E+03 -0.58027399759E+03  0.71687632333E+03  0.91076814517E+02 0.  0.
         23    2    4    4    0    0 -0.10610445566E+03 -0.43722932561E+03 -0.85893161957E+02  0.46484711205E+03  0.79231077402E+02 0.  0.
          2    1    3    3  502    0 -0.19982110993E+03  0.17600410624E+03 -0.76447493939E+03  0.80952322656E+03  0.00000000000E+00 0. -1.
         -1    1    3    3    0  502 -0.47551571595E+02  0.51576279425E+02 -0.10607668879E+03  0.12717518809E+03  0.00000000000E+00 0.  1.
         11    1    5    5    0    0  0.46996090011E+02  0.33208396351E+02 -0.14532126892E+03  0.15630003604E+03  0.00000000000E+00 0.  1.
        -11    1    5    5    0    0  0.30648104717E+03  0.17644054360E+03 -0.43495272867E+03  0.56057628730E+03  0.00000000000E+00 0. -1.
          3    1    6    6  503    0 -0.11781656469E+03 -0.40813175935E+03 -0.86318474401E+02  0.43347797513E+03  0.00000000000E+00 0. -1.
         -3    1    6    6    0  503  0.11712109027E+02 -0.29097566264E+02  0.42531244313E+00  0.31369136919E+02  0.00000000000E+00 0.  1.
<mgrwt>
<rscale>  0 0.14581517E+04</rscale>
<asrwt>0</asrwt>
<pdfrwt beam="1">  1        2 0.28116468E+00 0.14581517E+04</pdfrwt>
<pdfrwt beam="2">  1       -1 0.44746388E-01 0.14581517E+04</pdfrwt>
<totfact> 0.45524506E+01</totfact>
</mgrwt>
</event>
<event>
12    6  0.1538774E-007  0.1156553E+04  0.7818608E-02  0.9151759E-01
         -1   -1    0    0    0  501 -0.00000000000E+00  0.00000000000E+00  0.30479769132E+03  0.30479769132E+03  0.00000000000E+00 0.  1.
          2   -1    0    0  501    0  0.00000000000E+00 -0.00000000000E+00 -0.10971342312E+04  0.10971342312E+04  0.00000000000E+00 0. -1.
         24    2    1    2    0    0  0.51290201218E+02 -0.17171578172E+03 -0.30778766212E+03  0.36496361474E+03  0.79675596631E+02 0.  0.
        254    2    1    2    0    0 -0.51290201218E+02  0.17171578172E+03 -0.48454887771E+03  0.10369683077E+04  0.89910992760E+03 0.  0.
         23    2    4    4    0    0  0.37414154801E+03  0.24503406430E+03 -0.14390521923E+03  0.47915762100E+03  0.94126101701E+02 0.  0.
         23    2    4    4    0    0 -0.42543174923E+03 -0.73318282579E+02 -0.34064365848E+03  0.55781068674E+03  0.93524950456E+02 0.  0.
          4    1    3    3  502    0  0.57088674110E+02 -0.17784727236E+03 -0.30046296944E+03  0.35378915332E+03  0.00000000000E+00 0. -1.
         -1    1    3    3    0  502 -0.57984728914E+01  0.61314906397E+01 -0.73246926807E+01  0.11174461428E+02  0.00000000000E+00 0.  1.
         11    1    5    5    0    0  0.28457989733E+03  0.13971218488E+03 -0.80664886977E+02  0.32712694258E+03  0.00000000000E+00 0. -1.
        -11    1    5    5    0    0  0.89561650679E+02  0.10532187942E+03 -0.63240332252E+02  0.15203067842E+03  0.00000000000E+00 0.  1.
          2    1    6    6  503    0 -0.38402809752E+03 -0.79368705935E+02 -0.33467694722E+03  0.51554401380E+03  0.00000000000E+00 0. -1.
         -2    1    6    6    0  503 -0.41403651707E+02  0.60504233561E+01 -0.59667112658E+01  0.42266672933E+02  0.00000000000E+00 0.  1.
<mgrwt>
<rscale>  0 0.11565535E+04</rscale>
<asrwt>0</asrwt>
<pdfrwt beam="1">  1        2 0.16878988E+00 0.11565535E+04</pdfrwt>
<pdfrwt beam="2">  1       -1 0.46891952E-01 0.11565535E+04</pdfrwt>
<totfact> 0.11182886E+02</totfact>
</mgrwt>
</event>
<event>
12    6  0.1538774E-007  0.2542443E+04  0.7818608E-02  0.8388019E-01
         -1   -1    0    0    0  501 -0.00000000000E+00  0.00000000000E+00  0.72994240406E+03  0.72994240406E+03  0.00000000000E+00 0.  1.
          2   -1    0    0  501    0  0.00000000000E+00 -0.00000000000E+00 -0.22138782961E+04  0.22138782961E+04  0.00000000000E+00 0. -1.
         24    2    1    2    0    0 -0.73754677846E+03 -0.76972148173E+03 -0.10063518962E+04  0.14674888070E+04  0.65824386554E+02 0.  0.
        254    2    1    2    0    0  0.73754677846E+03  0.76972148173E+03 -0.47758399587E+03  0.14763318932E+04  0.90278622934E+03 0.  0.
         23    2    4    4    0    0  0.78574528010E+03  0.54398446307E+03 -0.25504082829E+02  0.96051895123E+03  0.92905630430E+02 0.  0.
         23    2    4    4    0    0 -0.48198501641E+02  0.22573701866E+03 -0.45207991304E+03  0.51581294196E+03  0.91686673857E+02 0.  0.
          4    1    3    3  502    0 -0.20209478627E+03 -0.23860012925E+03 -0.26375891589E+03  0.40907345309E+03  0.00000000000E+00 0. -1.
         -3    1    3    3    0  502 -0.53545199219E+03 -0.53112135249E+03 -0.74259298032E+03  0.10584153539E+04  0.00000000000E+00 0.  1.
         11    1    5    5    0    0  0.24263102890E+03  0.19766945886E+03 -0.44497576729E+02  0.31610609846E+03  0.00000000000E+00 0. -1.
        -11    1    5    5    0    0  0.54311425120E+03  0.34631500422E+03  0.18993493900E+02  0.64441285277E+03  0.00000000000E+00 0.  1.
          3    1    6    6  503    0 -0.26959384760E+02  0.77182329451E+01 -0.36414425757E+02  0.45960743572E+02  0.00000000000E+00 0. -1.
         -3    1    6    6    0  503 -0.21239116881E+02  0.21801878572E+03 -0.41566548729E+03  0.46985219839E+03  0.00000000000E+00 0.  1.
<mgrwt>
<rscale>  0 0.25424426E+04</rscale>
<asrwt>0</asrwt>
<pdfrwt beam="1">  1        2 0.34059666E+00 0.25424426E+04</pdfrwt>
<pdfrwt beam="2">  1       -1 0.11229883E+00 0.25424426E+04</pdfrwt>
<totfact> 0.37250100E+00</totfact>
</mgrwt>
</event>
<event>
12    6  0.2100951E-007  0.2348051E+04  0.7818608E-02  0.8459212E-01
         -3   -1    0    0    0  501 -0.00000000000E+00  0.00000000000E+00  0.95941115880E+03  0.95941115880E+03  0.00000000000E+00 0.  1.
          4   -1    0    0  501    0  0.00000000000E+00 -0.00000000000E+00 -0.14366481963E+04  0.14366481963E+04  0.00000000000E+00 0. -1.
         24    2    1    2    0    0  0.18661903882E+03 -0.20266226214E+03  0.77616639442E+03  0.82714626141E+03  0.76406856982E+02 0.  0.
        254    2    1    2    0    0 -0.18661903882E+03  0.20266226214E+03 -0.12534034319E+04  0.15689130937E+04  0.90253502660E+03 0.  0.
         23    2    4    4    0    0  0.21001473132E+03 -0.41386309006E+02 -0.10071825408E+04  0.10337297021E+04  0.91440759890E+02 0.  0.
         23    2    4    4    0    0 -0.39663377015E+03  0.24404857115E+03 -0.24622089111E+03  0.53518339158E+03  0.94437718629E+02 0.  0.
          4    1    3    3  502    0 -0.11995188614E+01 -0.16315706573E+02  0.18932682044E+02  0.25021742063E+02  0.00000000000E+00 0. -1.
         -3    1    3    3    0  502  0.18781855768E+03 -0.18634655557E+03  0.75723371237E+03  0.80212451935E+03  0.00000000000E+00 0.  1.
         11    1    5    5    0    0  0.15545933264E+03 -0.48160191824E+02 -0.88371791758E+03  0.89857908168E+03  0.00000000000E+00 0. -1.
        -11    1    5    5    0    0  0.54555398679E+02  0.67738828182E+01 -0.12346462323E+03  0.13515062043E+03  0.00000000000E+00 0.  1.
          2    1    6    6  503    0 -0.40147565682E+03  0.24222444934E+03 -0.23895923649E+03  0.52626695087E+03  0.00000000000E+00 0. -1.
         -2    1    6    6    0  503  0.48418866743E+01  0.18241218067E+01 -0.72616546260E+01  0.89164407047E+01  0.00000000000E+00 0.  1.
<mgrwt>
<rscale>  0 0.23480514E+04</rscale>
<asrwt>0</asrwt>
<pdfrwt beam="1">  1        4 0.22102280E+00 0.23480514E+04</pdfrwt>
<pdfrwt beam="2">  1       -3 0.14760172E+00 0.23480514E+04</pdfrwt>
<totfact> 0.66481464E-02</totfact>
</mgrwt>
</event>
<event>
12    6  0.1538774E-007  0.1479914E+04  0.7818608E-02  0.8897921E-01
          2   -1    0    0  501    0  0.00000000000E+00  0.00000000000E+00  0.19653406639E+04  0.19653406639E+04  0.00000000000E+00 0. -1.
         -1   -1    0    0    0  501 -0.00000000000E+00 -0.00000000000E+00 -0.27859615491E+03  0.27859615491E+03  0.00000000000E+00 0.  1.
         24    2    1    2    0    0 -0.26771955433E+03 -0.27459299773E+02 -0.34844436182E+02  0.28306127379E+03  0.80509484349E+02 0.  0.
        254    2    1    2    0    0  0.26771955433E+03  0.27459299773E+02  0.17215889452E+04  0.19608755450E+04  0.89929785613E+03 0.  0.
         23    2    4    4    0    0 -0.27773873994E+03 -0.13368537004E+03  0.36093954395E+03  0.48341909667E+03  0.91684692385E+02 0.  0.
         23    2    4    4    0    0  0.54545829427E+03  0.16114466981E+03  0.13606494012E+04  0.14774564484E+04  0.89545565656E+02 0.  0.
          4    1    3    3  502    0 -0.54482597532E+02  0.14737664538E+02  0.18215078797E+02  0.59307177352E+02  0.00000000000E+00 0. -1.
         -3    1    3    3    0  502 -0.21323695680E+03 -0.42196964310E+02 -0.53059514979E+02  0.22375409643E+03  0.00000000000E+00 0.  1.
         11    1    5    5    0    0 -0.18876406185E+03 -0.13587455104E+03  0.26021687708E+03  0.34900800533E+03  0.00000000000E+00 0. -1.
        -11    1    5    5    0    0 -0.88974678096E+02  0.21891810086E+01  0.10072266686E+03  0.13441109134E+03  0.00000000000E+00 0.  1.
          3    1    6    6  503    0  0.48545171255E+03  0.16837907433E+03  0.12475376447E+04  0.13492090471E+04  0.00000000000E+00 0. -1.
         -3    1    6    6    0  503  0.60006581719E+02 -0.72344045226E+01  0.11311175654E+03  0.12824740124E+03  0.00000000000E+00 0.  1.
<mgrwt>
<rscale>  0 0.14799140E+04</rscale>
<asrwt>0</asrwt>
<pdfrwt beam="1">  1        2 0.30236009E+00 0.14799140E+04</pdfrwt>
<pdfrwt beam="2">  1       -1 0.42860948E-01 0.14799140E+04</pdfrwt>
<totfact> 0.41297140E+01</totfact>
</mgrwt>
</event>
<event>
12    6  0.1538774E-007  0.2787943E+04  0.7818608E-02  0.8307021E-01
         -1   -1    0    0    0  501 -0.00000000000E+00  0.00000000000E+00  0.18246621059E+04  0.18246621059E+04  0.00000000000E+00 0.  1.
          2   -1    0    0  501    0  0.00000000000E+00 -0.00000000000E+00 -0.10649406509E+04  0.10649406509E+04  0.00000000000E+00 0. -1.
         24    2    1    2    0    0 -0.94607599888E+03  0.40102524776E+03 -0.39912542054E+03  0.11053304045E+04  0.81075006835E+02 0.  0.
        254    2    1    2    0    0  0.94607599888E+03 -0.40102524776E+03  0.11588468755E+04  0.17842723524E+04  0.88590106755E+03 0.  0.
         23    2    4    4    0    0  0.43032873382E+02 -0.40245391013E+03  0.18875132493E+03  0.45578421418E+03  0.91056077532E+02 0.  0.
         23    2    4    4    0    0  0.90304312550E+03  0.14286623773E+01  0.97009555061E+03  0.13284881382E+04  0.91139609519E+02 0.  0.
          4    1    3    3  502    0 -0.81239886909E+03  0.35112472775E+03 -0.37226851530E+03  0.96013766951E+03  0.00000000000E+00 0. -1.
         -3    1    3    3    0  502 -0.13367712979E+03  0.49900520005E+02 -0.26856905248E+02  0.14519273496E+03  0.00000000000E+00 0.  1.
         11    1    5    5    0    0  0.31885338770E+02 -0.52541794655E+02  0.49892399307E+02  0.79161648055E+02  0.00000000000E+00 0. -1.
        -11    1    5    5    0    0  0.11147534612E+02 -0.34991211548E+03  0.13885892563E+03  0.37662256612E+03  0.00000000000E+00 0.  1.
          3    1    6    6  503    0  0.12267541248E+02 -0.49950652658E+01  0.28648465365E+01  0.13551774458E+02  0.00000000000E+00 0. -1.
         -3    1    6    6    0  503  0.89077558425E+03  0.64237276430E+01  0.96723070407E+03  0.13149363637E+04  0.00000000000E+00 0.  1.
<mgrwt>
<rscale>  0 0.27879432E+04</rscale>
<asrwt>0</asrwt>
<pdfrwt beam="1">  1        2 0.16383702E+00 0.27879432E+04</pdfrwt>
<pdfrwt beam="2">  1       -1 0.28071725E+00 0.27879432E+04</pdfrwt>
<totfact> 0.10012874E+00</totfact>
</mgrwt>
</event>
<event>
12    6  0.1538774E-007  0.1415975E+04  0.7818608E-02  0.8942336E-01
          2   -1    0    0  501    0  0.00000000000E+00  0.00000000000E+00  0.23954118576E+04  0.23954118576E+04  0.00000000000E+00 0. -1.
         -1   -1    0    0    0  501 -0.00000000000E+00 -0.00000000000E+00 -0.20925266893E+03  0.20925266893E+03  0.00000000000E+00 0.  1.
         24    2    1    2    0    0  0.22077282943E+03  0.35402036218E+03  0.63499025279E+03  0.76407620407E+03  0.80800776202E+02 0.  0.
        254    2    1    2    0    0 -0.22077282943E+03 -0.35402036218E+03  0.15511689359E+04  0.18405883224E+04  0.89864856651E+03 0.  0.
         23    2    4    4    0    0 -0.75157022530E+02  0.18052262450E+01 -0.92267251787E+02  0.15009857682E+03  0.91457641204E+02 0.  0.
         23    2    4    4    0    0 -0.14561580690E+03 -0.35582558843E+03  0.16434361876E+04  0.16904897456E+04  0.95169662070E+02 0.  0.
          2    1    3    3  502    0  0.30232071669E+02  0.29745585737E+02  0.11301866492E+03  0.12071452542E+03  0.00000000000E+00 0. -1.
         -1    1    3    3    0  502  0.19054075776E+03  0.32427477645E+03  0.52197158787E+03  0.64336167865E+03  0.00000000000E+00 0.  1.
         11    1    5    5    0    0 -0.49233095535E+02  0.19228503831E+02 -0.17670801859E+00  0.52855125402E+02  0.00000000000E+00 0.  1.
        -11    1    5    5    0    0 -0.25923926995E+02 -0.17423277586E+02 -0.92090543769E+02  0.97243451421E+02  0.00000000000E+00 0. -1.
          1    1    6    6  503    0 -0.13894070564E+03 -0.35424670967E+03  0.16383275057E+04  0.16819370580E+04  0.00000000000E+00 0. -1.
         -1    1    6    6    0  503 -0.66751012602E+01 -0.15788787617E+01  0.51086819381E+01  0.85526876549E+01  0.00000000000E+00 0.  1.
<mgrwt>
<rscale>  0 0.14159750E+04</rscale>
<asrwt>0</asrwt>
<pdfrwt beam="1">  1        2 0.36852488E+00 0.14159750E+04</pdfrwt>
<pdfrwt beam="2">  1       -1 0.32192720E-01 0.14159750E+04</pdfrwt>
<totfact> 0.40003912E+01</totfact>
</mgrwt>
</event>
<event>
12    6  0.1538774E-007  0.1570167E+04  0.7818608E-02  0.8839088E-01
          2   -1    0    0  501    0  0.00000000000E+00  0.00000000000E+00  0.17831914163E+04  0.17831914163E+04  0.00000000000E+00 0. -1.
         -1   -1    0    0    0  501 -0.00000000000E+00 -0.00000000000E+00 -0.34564790350E+03  0.34564790350E+03  0.00000000000E+00 0.  1.
         24    2    1    2    0    0  0.53564232645E+02 -0.44654386430E+03  0.89227878296E+03  0.10022501863E+04  0.77932404938E+02 0.  0.
        254    2    1    2    0    0 -0.53564232645E+02  0.44654386430E+03  0.54526472984E+03  0.11265891335E+04  0.87727926014E+03 0.  0.
         23    2    4    4    0    0 -0.33355481029E+03  0.17723029737E+03  0.60906993784E+03  0.72196420805E+03  0.87159272379E+02 0.  0.
         23    2    4    4    0    0  0.27999057764E+03  0.26931356693E+03 -0.63805208000E+02  0.40462492541E+03  0.93411481056E+02 0.  0.
          2    1    3    3  502    0  0.53560586042E+02 -0.35049952673E+03  0.62977190677E+03  0.72272491944E+03  0.00000000000E+00 0. -1.
         -1    1    3    3    0  502  0.36466034416E-02 -0.96044337567E+02  0.26250687619E+03  0.27952526690E+03  0.00000000000E+00 0.  1.
         11    1    5    5    0    0 -0.29320499797E+03  0.12315536669E+03  0.47129108315E+03  0.56855228452E+03  0.00000000000E+00 0.  1.
        -11    1    5    5    0    0 -0.40349812313E+02  0.54074930681E+02  0.13777885469E+03  0.15341192353E+03  0.00000000000E+00 0. -1.
          4    1    6    6  503    0 -0.69774757191E+00  0.29864942442E+02 -0.11403328732E+02  0.31975577319E+02  0.00000000000E+00 0. -1.
         -4    1    6    6    0  503  0.28068832521E+03  0.23944862449E+03 -0.52401879268E+02  0.37264934809E+03  0.00000000000E+00 0.  1.
<mgrwt>
<rscale>  0 0.15701673E+04</rscale>
<asrwt>0</asrwt>
<pdfrwt beam="1">  1        2 0.27433714E+00 0.15701673E+04</pdfrwt>
<pdfrwt beam="2">  1       -1 0.53176602E-01 0.15701673E+04</pdfrwt>
<totfact> 0.34425862E+01</totfact>
</mgrwt>
</event>
<event>
12    6  0.1538774E-007  0.2414951E+04  0.7818608E-02  0.8433927E-01
          2   -1    0    0  501    0  0.00000000000E+00  0.00000000000E+00  0.20820031812E+04  0.20820031812E+04  0.00000000000E+00 0. -1.
         -1   -1    0    0    0  501 -0.00000000000E+00 -0.00000000000E+00 -0.70028574318E+03  0.70028574318E+03  0.00000000000E+00 0.  1.
         24    2    1    2    0    0  0.22628104061E+03  0.11395337454E+03  0.17561210848E+04  0.17753152411E+04  0.59953812070E+02 0.  0.
        254    2    1    2    0    0 -0.22628104061E+03 -0.11395337454E+03 -0.37440364679E+03  0.10069736833E+04  0.89979410273E+03 0.  0.
         23    2    4    4    0    0  0.18942341828E+03 -0.12249609815E+03  0.18385921509E+03  0.30492391458E+03  0.91037669433E+02 0.  0.
         23    2    4    4    0    0 -0.41570445888E+03  0.85427236091E+01 -0.55826286188E+03  0.70204976876E+03  0.91286798615E+02 0.  0.
          2    1    3    3  502    0  0.18491999147E+03  0.75371772208E+02  0.14842304760E+04  0.14976035567E+04  0.00000000000E+00 0. -1.
         -1    1    3    3    0  502  0.41361049143E+02  0.38581602336E+02  0.27189060887E+03  0.27771168434E+03  0.00000000000E+00 0.  1.
         11    1    5    5    0    0  0.17434594842E+03 -0.10853484123E+03  0.19355258958E+03  0.28220369669E+03  0.00000000000E+00 0. -1.
        -11    1    5    5    0    0  0.15077469860E+02 -0.13961256919E+02 -0.96933744901E+01  0.22720217893E+02  0.00000000000E+00 0.  1.
          4    1    6    6  503    0 -0.31489439914E+03  0.42555041073E+02 -0.39128269918E+03  0.50405512080E+03  0.00000000000E+00 0. -1.
         -4    1    6    6    0  503 -0.10081005975E+03 -0.34012317464E+02 -0.16698016271E+03  0.19799464797E+03  0.00000000000E+00 0.  1.
<mgrwt>
<rscale>  0 0.24149511E+04</rscale>
<asrwt>0</asrwt>
<pdfrwt beam="1">  1        2 0.32030818E+00 0.24149511E+04</pdfrwt>
<pdfrwt beam="2">  1       -1 0.10773627E+00 0.24149511E+04</pdfrwt>
<totfact> 0.49255858E+00</totfact>
</mgrwt>
</event>
<event>
12    6  0.1538774E-007  0.3166218E+04  0.7818608E-02  0.8197796E-01
         -1   -1    0    0    0  501 -0.00000000000E+00  0.00000000000E+00  0.14805239142E+04  0.14805239142E+04  0.00000000000E+00 0.  1.
          2   -1    0    0  501    0  0.00000000000E+00 -0.00000000000E+00 -0.16928024987E+04  0.16928024987E+04  0.00000000000E+00 0. -1.
         24    2    1    2    0    0  0.14028605826E+04 -0.15883205981E+01  0.27129180572E+03  0.14310422277E+04  0.79134548893E+02 0.  0.
        254    2    1    2    0    0 -0.14028605826E+04  0.15883205981E+01 -0.48357039018E+03  0.17422841851E+04  0.91306819157E+03 0.  0.
         23    2    4    4    0    0 -0.10707487095E+04 -0.39807755614E+03 -0.33688888098E+03  0.11943511934E+04  0.89510421378E+02 0.  0.
         23    2    4    4    0    0 -0.33211187311E+03  0.39966587674E+03 -0.14668150921E+03  0.54793299169E+03  0.93187922746E+02 0.  0.
          2    1    3    3  502    0  0.47870820201E+03  0.53384533005E+01  0.13045729352E+03  0.49619466662E+03  0.00000000000E+00 0. -1.
         -1    1    3    3    0  502  0.92415238057E+03 -0.69267738986E+01  0.14083451220E+03  0.93484756112E+03  0.00000000000E+00 0.  1.
         11    1    5    5    0    0 -0.84417128947E+03 -0.32956430489E+03 -0.23202317233E+03  0.93545312524E+03  0.00000000000E+00 0.  1.
        -11    1    5    5    0    0 -0.22657741999E+03 -0.68513251253E+02 -0.10486570865E+03  0.25889806817E+03  0.00000000000E+00 0. -1.
          3    1    6    6  503    0 -0.11140910238E+03  0.72602716113E+02 -0.27839886566E+02  0.13586096483E+03  0.00000000000E+00 0. -1.
         -3    1    6    6    0  503 -0.22070277072E+03  0.32706316063E+03 -0.11884162264E+03  0.41207202685E+03  0.00000000000E+00 0.  1.
<mgrwt>
<rscale>  0 0.31662183E+04</rscale>
<asrwt>0</asrwt>
<pdfrwt beam="1">  1        2 0.26043115E+00 0.31662183E+04</pdfrwt>
<pdfrwt beam="2">  1       -1 0.22777291E+00 0.31662183E+04</pdfrwt>
<totfact> 0.92902790E-01</totfact>
</mgrwt>
</event>
<event>
12    6  0.1538774E-007  0.2275332E+04  0.7818608E-02  0.8487711E-01
         -1   -1    0    0    0  501 -0.00000000000E+00  0.00000000000E+00  0.96928988124E+03  0.96928988124E+03  0.00000000000E+00 0.  1.
          2   -1    0    0  501    0  0.00000000000E+00 -0.00000000000E+00 -0.13352906198E+04  0.13352906198E+04  0.00000000000E+00 0. -1.
         24    2    1    2    0    0  0.72132550803E+03 -0.48317349024E+03 -0.57239748185E+03  0.10428093985E+04  0.77752519312E+02 0.  0.
        254    2    1    2    0    0 -0.72132550803E+03  0.48317349024E+03  0.20639674326E+03  0.12617711025E+04  0.89201994898E+03 0.  0.
         23    2    4    4    0    0 -0.85220654146E+03  0.34314323862E+03 -0.54805340053E+02  0.92499808005E+03  0.92814607049E+02 0.  0.
         23    2    4    4    0    0  0.13088103343E+03  0.14003025162E+03  0.26120208331E+03  0.33677302249E+03  0.91930539377E+02 0.  0.
          2    1    3    3  502    0  0.70001218522E+03 -0.46644901912E+03 -0.56888474070E+03  0.10154908149E+04  0.00000000000E+00 0. -1.
         -1    1    3    3    0  502  0.21313322811E+02 -0.16724471117E+02 -0.35127411548E+01  0.27318583672E+02  0.00000000000E+00 0.  1.
         11    1    5    5    0    0 -0.29823309253E+03  0.94061782467E+02  0.18131103681E+02  0.31324005702E+03  0.00000000000E+00 0. -1.
        -11    1    5    5    0    0 -0.55397344893E+03  0.24908145615E+03 -0.72936443734E+02  0.61175802303E+03  0.00000000000E+00 0.  1.
          4    1    6    6  503    0  0.46030911621E+02  0.15899783997E+02  0.20220288119E+02  0.52730522541E+02  0.00000000000E+00 0. -1.
         -4    1    6    6    0  503  0.84850121811E+02  0.12413046762E+03  0.24098179519E+03  0.28404249995E+03  0.00000000000E+00 0.  1.
<mgrwt>
<rscale>  0 0.22753318E+04</rscale>
<asrwt>0</asrwt>
<pdfrwt beam="1">  1        2 0.20542933E+00 0.22753318E+04</pdfrwt>
<pdfrwt beam="2">  1       -1 0.14912152E+00 0.22753318E+04</pdfrwt>
<totfact> 0.57865972E+00</totfact>
</mgrwt>
</event>
<event>
12    6  0.1538774E-007  0.1836369E+04  0.7818608E-02  0.8687194E-01
         -1   -1    0    0    0  501 -0.00000000000E+00  0.00000000000E+00  0.44790342661E+03  0.44790342661E+03  0.00000000000E+00 0.  1.
          2   -1    0    0  501    0  0.00000000000E+00 -0.00000000000E+00 -0.18822433107E+04  0.18822433107E+04  0.00000000000E+00 0. -1.
         24    2    1    2    0    0 -0.21976135310E+03  0.42855439744E+03 -0.11841505097E+04  0.12809610127E+04  0.81821527447E+02 0.  0.
        254    2    1    2    0    0  0.21976135310E+03 -0.42855439744E+03 -0.25018937431E+03  0.10491857246E+04  0.89790981610E+03 0.  0.
         23    2    4    4    0    0  0.49573809654E+03 -0.27699204568E+03  0.83775477613E+02  0.58123710537E+03  0.91309300075E+02 0.  0.
         23    2    4    4    0    0 -0.27597674343E+03 -0.15156235177E+03 -0.33396485193E+03  0.46794861925E+03  0.91154147180E+02 0.  0.
          4    1    3    3  502    0 -0.19540640401E+03  0.31502393018E+03 -0.94508101162E+03  0.10151856273E+04  0.00000000000E+00 0. -1.
         -3    1    3    3    0  502 -0.24354949093E+02  0.11353046726E+03 -0.23906949813E+03  0.26577538539E+03  0.00000000000E+00 0.  1.
         11    1    5    5    0    0  0.40551099982E+03 -0.24705555666E+03  0.39838804962E+02  0.47651101711E+03  0.00000000000E+00 0.  1.
        -11    1    5    5    0    0  0.90227096721E+02 -0.29936489011E+02  0.43936672651E+02  0.10472608825E+03  0.00000000000E+00 0. -1.
          4    1    6    6  503    0 -0.93092038023E+02 -0.81301768986E+02 -0.18201615890E+03  0.22001360705E+03  0.00000000000E+00 0. -1.
         -4    1    6    6    0  503 -0.18288470541E+03 -0.70260582784E+02 -0.15194869302E+03  0.24793501221E+03  0.00000000000E+00 0.  1.
<mgrwt>
<rscale>  0 0.18363695E+04</rscale>
<asrwt>0</asrwt>
<pdfrwt beam="1">  1        2 0.28957589E+00 0.18363695E+04</pdfrwt>
<pdfrwt beam="2">  1       -1 0.68908220E-01 0.18363695E+04</pdfrwt>
<totfact> 0.17744098E+01</totfact>
</mgrwt>
</event>
<event>
12    6  0.1538774E-007  0.2269454E+04  0.7818608E-02  0.8490063E-01
          2   -1    0    0  501    0  0.00000000000E+00  0.00000000000E+00  0.39764952554E+04  0.39764952554E+04  0.00000000000E+00 0. -1.
         -1   -1    0    0    0  501 -0.00000000000E+00 -0.00000000000E+00 -0.32380395555E+03  0.32380395555E+03  0.00000000000E+00 0.  1.
         24    2    1    2    0    0  0.33018018949E+03 -0.11695804733E+03 -0.14024446153E+03  0.38592269773E+03  0.81053545688E+02 0.  0.
        254    2    1    2    0    0 -0.33018018949E+03  0.11695804733E+03  0.37929357613E+04  0.39143765132E+04  0.90182240762E+03 0.  0.
         23    2    4    4    0    0 -0.60906059346E+03  0.20102336473E+03  0.28713618911E+04  0.29434548826E+04  0.88556967877E+02 0.  0.
         23    2    4    4    0    0  0.27888040396E+03 -0.84065317405E+02  0.92157387025E+03  0.97092163059E+03  0.92461652118E+02 0.  0.
          4    1    3    3  502    0  0.41146866921E+02  0.92333699695E+01 -0.30304878678E+02  0.51929812729E+02  0.00000000000E+00 0. -1.
         -3    1    3    3    0  502  0.28903332257E+03 -0.12619141730E+03 -0.10993958285E+03  0.33399288500E+03  0.00000000000E+00 0.  1.
         11    1    5    5    0    0 -0.52558683185E+03  0.18387648019E+03  0.23424302615E+04  0.24077025580E+04  0.00000000000E+00 0. -1.
        -11    1    5    5    0    0 -0.83473761603E+02  0.17146884538E+02  0.52893162963E+03  0.53575232463E+03  0.00000000000E+00 0.  1.
          4    1    6    6  503    0  0.23432854672E+03 -0.91344044745E+02  0.67678760341E+03  0.72200766093E+03  0.00000000000E+00 0. -1.
         -4    1    6    6    0  503  0.44551857240E+02  0.72787273399E+01  0.24478626684E+03  0.24891396966E+03  0.00000000000E+00 0.  1.
<mgrwt>
<rscale>  0 0.22694536E+04</rscale>
<asrwt>0</asrwt>
<pdfrwt beam="1">  1        2 0.61176847E+00 0.22694536E+04</pdfrwt>
<pdfrwt beam="2">  1       -1 0.49815996E-01 0.22694536E+04</pdfrwt>
<totfact> 0.15029203E+00</totfact>
</mgrwt>
</event>
<event>
12    6  0.1538774E-007  0.1940961E+04  0.7818608E-02  0.8634732E-01
         -1   -1    0    0    0  501 -0.00000000000E+00  0.00000000000E+00  0.38769802023E+03  0.38769802023E+03  0.00000000000E+00 0.  1.
          2   -1    0    0  501    0  0.00000000000E+00 -0.00000000000E+00 -0.24292931234E+04  0.24292931234E+04  0.00000000000E+00 0. -1.
         24    2    1    2    0    0 -0.24895314706E+03  0.16452171771E+03 -0.18275407126E+04  0.18533051633E+04  0.76091439331E+02 0.  0.
        254    2    1    2    0    0  0.24895314706E+03 -0.16452171771E+03 -0.21405439062E+03  0.96368598036E+03  0.89096931573E+03 0.  0.
         23    2    4    4    0    0 -0.63256335476E+02 -0.45318613154E+03  0.25592405724E+02  0.46718133876E+03  0.90688468167E+02 0.  0.
         23    2    4    4    0    0  0.31220948254E+03  0.28866441383E+03 -0.23964679635E+03  0.49650464161E+03  0.91018499987E+02 0.  0.
          2    1    3    3  502    0 -0.24644974765E+03  0.16697719791E+03 -0.18246107506E+04  0.18487355825E+04  0.00000000000E+00 0. -1.
         -1    1    3    3    0  502 -0.25033994141E+01 -0.24554802064E+01 -0.29299620004E+01  0.45695808335E+01  0.00000000000E+00 0.  1.
         11    1    5    5    0    0  0.11321149058E+02 -0.91524804608E+02  0.32683968844E+02  0.97842731431E+02  0.00000000000E+00 0. -1.
        -11    1    5    5    0    0 -0.74577484533E+02 -0.36166132693E+03 -0.70915631196E+01  0.36933860733E+03  0.00000000000E+00 0.  1.
          1    1    6    6  503    0  0.17659168201E+03  0.21856535088E+03 -0.17260351022E+03  0.32976871667E+03  0.00000000000E+00 0. -1.
         -1    1    6    6    0  503  0.13561780053E+03  0.70099062949E+02 -0.67043286130E+02  0.16673592493E+03  0.00000000000E+00 0.  1.
<mgrwt>
<rscale>  0 0.19409607E+04</rscale>
<asrwt>0</asrwt>
<pdfrwt beam="1">  1        2 0.37373740E+00 0.19409607E+04</pdfrwt>
<pdfrwt beam="2">  1       -1 0.59645850E-01 0.19409607E+04</pdfrwt>
<totfact> 0.11588349E+01</totfact>
</mgrwt>
</event>
<event>
12    6  0.1538774E-007  0.3433315E+04  0.7818608E-02  0.8129778E-01
         -1   -1    0    0    0  501 -0.00000000000E+00  0.00000000000E+00  0.15439257776E+04  0.15439257776E+04  0.00000000000E+00 0.  1.
          2   -1    0    0  501    0  0.00000000000E+00 -0.00000000000E+00 -0.19087144835E+04  0.19087144835E+04  0.00000000000E+00 0. -1.
         24    2    1    2    0    0 -0.14010619115E+04 -0.89315411618E+02 -0.92070939941E+03  0.16807425696E+04  0.78981418467E+02 0.  0.
        254    2    1    2    0    0  0.14010619115E+04  0.89315411618E+02  0.55592069357E+03  0.17718976915E+04  0.92715796348E+03 0.  0.
         23    2    4    4    0    0  0.37283576970E+03  0.44737217089E+03  0.19493352749E+03  0.62070832615E+03  0.90174140210E+02 0.  0.
         23    2    4    4    0    0  0.10282261418E+04 -0.35805675927E+03  0.36098716607E+03  0.11511893654E+04  0.97322039824E+02 0.  0.
          2    1    3    3  502    0 -0.13192066699E+04 -0.10215294775E+03 -0.86134191660E+03  0.15788132758E+04  0.00000000000E+00 0. -1.
         -1    1    3    3    0  502 -0.81855241573E+02  0.12837536130E+02 -0.59367482811E+02  0.10192929374E+03  0.00000000000E+00 0.  1.
         11    1    5    5    0    0  0.18203019650E+03  0.28334159176E+03  0.94478215674E+02  0.34977647619E+03  0.00000000000E+00 0. -1.
        -11    1    5    5    0    0  0.19080557319E+03  0.16403057913E+03  0.10045531182E+03  0.27093184996E+03  0.00000000000E+00 0.  1.
          3    1    6    6  503    0  0.88747941662E+03 -0.29337365534E+03  0.34116213387E+03  0.99502734543E+03  0.00000000000E+00 0. -1.
         -3    1    6    6    0  503  0.14074672516E+03 -0.64683103934E+02  0.19825032200E+02  0.15616201996E+03  0.00000000000E+00 0.  1.
<mgrwt>
<rscale>  0 0.34333153E+04</rscale>
<asrwt>0</asrwt>
<pdfrwt beam="1">  1        2 0.29364838E+00 0.34333153E+04</pdfrwt>
<pdfrwt beam="2">  1       -1 0.23752704E+00 0.34333153E+04</pdfrwt>
<totfact> 0.59410534E-01</totfact>
</mgrwt>
</event>
<event>
12    6  0.1538774E-007  0.1875508E+04  0.7818608E-02  0.8667145E-01
         -1   -1    0    0    0  501 -0.00000000000E+00  0.00000000000E+00  0.13439449155E+04  0.13439449155E+04  0.00000000000E+00 0.  1.
          2   -1    0    0  501    0  0.00000000000E+00 -0.00000000000E+00 -0.65432921774E+03  0.65432921774E+03  0.00000000000E+00 0. -1.
         24    2    1    2    0    0 -0.23204067720E+02 -0.72256221729E+03  0.28774106595E+03  0.78220517633E+03  0.80096380870E+02 0.  0.
        254    2    1    2    0    0  0.23204067720E+02  0.72256221729E+03  0.40187463185E+03  0.12160689570E+04  0.89145157004E+03 0.  0.
         23    2    4    4    0    0 -0.28315633048E+03  0.46126705917E+03  0.55000587708E+03  0.77710878523E+03  0.91906430058E+02 0.  0.
         23    2    4    4    0    0  0.30636039820E+03  0.26129515812E+03 -0.14813124523E+03  0.43896017172E+03  0.92797162128E+02 0.  0.
          2    1    3    3  502    0 -0.13379298516E+02 -0.23817950371E+03  0.13557551240E+03  0.27438877743E+03  0.00000000000E+00 0. -1.
         -1    1    3    3    0  502 -0.98247692035E+01 -0.48438271358E+03  0.15216555355E+03  0.50781639890E+03  0.00000000000E+00 0.  1.
         11    1    5    5    0    0 -0.11881291080E+03  0.16103943685E+03  0.26268199153E+03  0.33023027824E+03  0.00000000000E+00 0.  1.
        -11    1    5    5    0    0 -0.16434341968E+03  0.30022762233E+03  0.28732388555E+03  0.44687850699E+03  0.00000000000E+00 0. -1.
          3    1    6    6  503    0  0.22323122782E+03  0.13571261275E+03 -0.76689539475E+02  0.27227078396E+03  0.00000000000E+00 0. -1.
         -3    1    6    6    0  503  0.83129170384E+02  0.12558254537E+03 -0.71441705759E+02  0.16668938776E+03  0.00000000000E+00 0.  1.
<mgrwt>
<rscale>  0 0.18755079E+04</rscale>
<asrwt>0</asrwt>
<pdfrwt beam="1">  1        2 0.10066603E+00 0.18755079E+04</pdfrwt>
<pdfrwt beam="2">  1       -1 0.20676076E+00 0.18755079E+04</pdfrwt>
<totfact> 0.64621212E+00</totfact>
</mgrwt>
</event>
<event>
12    6  0.1538774E-007  0.2620266E+04  0.7818608E-02  0.8361350E-01
          2   -1    0    0  501    0  0.00000000000E+00  0.00000000000E+00  0.12005576600E+04  0.12005576600E+04  0.00000000000E+00 0. -1.
         -1   -1    0    0    0  501 -0.00000000000E+00 -0.00000000000E+00 -0.14297094872E+04  0.14297094872E+04  0.00000000000E+00 0.  1.
         24    2    1    2    0    0  0.49971215417E+03  0.79309548108E+02  0.93133518955E+03  0.10629156836E+04  0.80014208683E+02 0.  0.
        254    2    1    2    0    0 -0.49971215417E+03 -0.79309548108E+02 -0.11604870168E+04  0.15673514636E+04  0.92404450811E+03 0.  0.
         23    2    4    4    0    0  0.22036178547E+03  0.16105729832E+03 -0.29134795981E+03  0.40969303763E+03  0.92010768694E+02 0.  0.
         23    2    4    4    0    0 -0.72007393965E+03 -0.24036684643E+03 -0.86913905698E+03  0.11576584260E+04  0.92128342684E+02 0.  0.
          2    1    3    3  502    0  0.48141399066E+03  0.90842907921E+02  0.90214232112E+03  0.10265829883E+04  0.00000000000E+00 0. -1.
         -1    1    3    3    0  502  0.18298163510E+02 -0.11533359813E+02  0.29192868435E+02  0.36332695246E+02  0.00000000000E+00 0.  1.
         11    1    5    5    0    0 -0.87588880574E+01  0.10701274627E+02 -0.11234866136E+02  0.17817340311E+02  0.00000000000E+00 0. -1.
        -11    1    5    5    0    0  0.22912067353E+03  0.15035602369E+03 -0.28011309367E+03  0.39187569731E+03  0.00000000000E+00 0.  1.
          3    1    6    6  503    0 -0.11982156202E+03 -0.52946035277E+02 -0.10393863406E+03  0.16722358992E+03  0.00000000000E+00 0. -1.
         -3    1    6    6    0  503 -0.60025237763E+03 -0.18742081115E+03 -0.76520042292E+03  0.99043483609E+03  0.00000000000E+00 0.  1.
<mgrwt>
<rscale>  0 0.26202662E+04</rscale>
<asrwt>0</asrwt>
<pdfrwt beam="1">  1        2 0.18470118E+00 0.26202662E+04</pdfrwt>
<pdfrwt beam="2">  1       -1 0.21995531E+00 0.26202662E+04</pdfrwt>
<totfact> 0.20974609E+00</totfact>
</mgrwt>
</event>
<event>
12    6  0.1538774E-007  0.1854059E+04  0.7818608E-02  0.8678068E-01
         -1   -1    0    0    0  501 -0.00000000000E+00  0.00000000000E+00  0.30597277936E+03  0.30597277936E+03  0.00000000000E+00 0.  1.
          2   -1    0    0  501    0  0.00000000000E+00 -0.00000000000E+00 -0.28086921786E+04  0.28086921786E+04  0.00000000000E+00 0. -1.
         24    2    1    2    0    0 -0.39551874255E+03 -0.15226596088E+02  0.23636762536E+02  0.40408743174E+03  0.77852623633E+02 0.  0.
        254    2    1    2    0    0  0.39551874255E+03  0.15226596088E+02 -0.25263561618E+04  0.27105775263E+04  0.89893723063E+03 0.  0.
         23    2    4    4    0    0  0.54708623595E+03  0.15602944284E+03 -0.23609610161E+04  0.24302446063E+04  0.91122940157E+02 0.  0.
         23    2    4    4    0    0 -0.15156749340E+03 -0.14080284675E+03 -0.16539514572E+03  0.28033291999E+03  0.91830523762E+02 0.  0.
          4    1    3    3  502    0 -0.13787458889E+03 -0.40895922431E+02 -0.26531719014E+01  0.14383642812E+03  0.00000000000E+00 0. -1.
         -3    1    3    3    0  502 -0.25764415366E+03  0.25669326344E+02  0.26289934437E+02  0.26025100362E+03  0.00000000000E+00 0.  1.
         11    1    5    5    0    0  0.19056207921E+03  0.10944245313E+02 -0.74260825857E+03  0.76674683452E+03  0.00000000000E+00 0.  1.
        -11    1    5    5    0    0  0.35652415674E+03  0.14508519752E+03 -0.16183527575E+04  0.16634977717E+04  0.00000000000E+00 0. -1.
          4    1    6    6  503    0 -0.13703761659E+03 -0.15023355532E+03 -0.13119149248E+03  0.24199305197E+03  0.00000000000E+00 0. -1.
         -4    1    6    6    0  503 -0.14529876809E+02  0.94307085731E+01 -0.34203653245E+02  0.38339868017E+02  0.00000000000E+00 0.  1.
<mgrwt>
<rscale>  0 0.18540586E+04</rscale>
<asrwt>0</asrwt>
<pdfrwt beam="1">  1        2 0.43210649E+00 0.18540586E+04</pdfrwt>
<pdfrwt beam="2">  1       -1 0.47072735E-01 0.18540586E+04</pdfrwt>
<totfact> 0.11027540E+01</totfact>
</mgrwt>
</event>
<event>
12    6  0.1538774E-007  0.1808466E+04  0.7818608E-02  0.8701810E-01
         -1   -1    0    0    0  501 -0.00000000000E+00  0.00000000000E+00  0.41640128263E+03  0.41640128263E+03  0.00000000000E+00 0.  1.
          2   -1    0    0  501    0  0.00000000000E+00 -0.00000000000E+00 -0.19635800492E+04  0.19635800492E+04  0.00000000000E+00 0. -1.
         24    2    1    2    0    0 -0.42545220246E+03 -0.75659012724E+02  0.10145061705E+03  0.45171217277E+03  0.83772289795E+02 0.  0.
        254    2    1    2    0    0  0.42545220246E+03  0.75659012724E+02 -0.16486293836E+04  0.19282691591E+04  0.90194747212E+03 0.  0.
         23    2    4    4    0    0 -0.26179437970E+03  0.10522611772E+03 -0.38397501112E+03  0.48577782096E+03  0.94522214707E+02 0.  0.
         23    2    4    4    0    0  0.68724658217E+03 -0.29567104992E+02 -0.12646543725E+04  0.14424913381E+04  0.90821254289E+02 0.  0.
          2    1    3    3  502    0 -0.25971414475E+02 -0.14177119453E+02 -0.11965623348E+02  0.31916785990E+02  0.00000000000E+00 0. -1.
         -1    1    3    3    0  502 -0.39948078799E+03 -0.61481893271E+02  0.11341624040E+03  0.41979538678E+03  0.00000000000E+00 0.  1.
         11    1    5    5    0    0 -0.16360444583E+03  0.95808336286E+02 -0.30628277913E+03  0.36021492582E+03  0.00000000000E+00 0. -1.
        -11    1    5    5    0    0 -0.98189933878E+02  0.94177814302E+01 -0.77692231996E+02  0.12556289513E+03  0.00000000000E+00 0.  1.
          3    1    6    6  503    0  0.91289983352E+02  0.23241709174E+02 -0.14284122095E+03  0.17110713751E+03  0.00000000000E+00 0.  1.
         -3    1    6    6    0  503  0.59595659882E+03 -0.52808814165E+02 -0.11218131516E+04  0.12713842006E+04  0.00000000000E+00 0. -1.
<mgrwt>
<rscale>  0 0.18084659E+04</rscale>
<asrwt>0</asrwt>
<pdfrwt beam="1">  1        2 0.30208924E+00 0.18084659E+04</pdfrwt>
<pdfrwt beam="2">  1       -1 0.64061736E-01 0.18084659E+04</pdfrwt>
<totfact> 0.18585415E+01</totfact>
</mgrwt>
</event>
<event>
12    6  0.1538774E-007  0.4761772E+04  0.7818608E-02  0.7866345E-01
          2   -1    0    0  501    0  0.00000000000E+00  0.00000000000E+00  0.32200710112E+04  0.32200710112E+04  0.00000000000E+00 0. -1.
         -1   -1    0    0    0  501 -0.00000000000E+00 -0.00000000000E+00 -0.17604017582E+04  0.17604017582E+04  0.00000000000E+00 0.  1.
         24    2    1    2    0    0 -0.94157505401E+03 -0.16378632907E+04 -0.66045737193E+03  0.20029625993E+04  0.80594619436E+02 0.  0.
        254    2    1    2    0    0  0.94157505401E+03  0.16378632907E+04  0.21201266250E+04  0.29775101701E+04  0.89524866152E+03 0.  0.
         23    2    4    4    0    0  0.58694202627E+03  0.31642954117E+03  0.10063136155E+04  0.12106037609E+04  0.90916315756E+02 0.  0.
         23    2    4    4    0    0  0.35463302774E+03  0.13214337495E+04  0.11138130095E+04  0.17669064093E+04  0.97093254878E+02 0.  0.
          2    1    3    3  502    0 -0.21762701270E+02 -0.24730274873E+02 -0.20669345003E+02  0.38889889235E+02  0.00000000000E+00 0. -1.
         -1    1    3    3    0  502 -0.91981235274E+03 -0.16131330158E+04 -0.63978802692E+03  0.19640727100E+04  0.00000000000E+00 0.  1.
         11    1    5    5    0    0  0.39451923028E+03  0.17070226933E+03  0.68537188321E+03  0.80902367462E+03  0.00000000000E+00 0.  1.
        -11    1    5    5    0    0  0.19242279599E+03  0.14572727184E+03  0.32094173226E+03  0.40158008626E+03  0.00000000000E+00 0. -1.
          3    1    6    6  503    0  0.36870617067E+02  0.14637888704E+03  0.16426598018E+03  0.22309086315E+03  0.00000000000E+00 0. -1.
         -3    1    6    6    0  503  0.31776241067E+03  0.11750548625E+04  0.94954702936E+03  0.15438155461E+04  0.00000000000E+00 0.  1.
<mgrwt>
<rscale>  0 0.47617722E+04</rscale>
<asrwt>0</asrwt>
<pdfrwt beam="1">  1        2 0.49539554E+00 0.47617722E+04</pdfrwt>
<pdfrwt beam="2">  1       -1 0.27083104E+00 0.47617722E+04</pdfrwt>
<totfact> 0.54053342E-02</totfact>
</mgrwt>
</event>
<event>
12    6  0.1538774E-007  0.2007569E+04  0.7818608E-02  0.8603090E-01
         -1   -1    0    0    0  501 -0.00000000000E+00  0.00000000000E+00  0.40810725976E+03  0.40810725976E+03  0.00000000000E+00 0.  1.
          2   -1    0    0  501    0  0.00000000000E+00 -0.00000000000E+00 -0.24689179704E+04  0.24689179704E+04  0.00000000000E+00 0. -1.
         24    2    1    2    0    0 -0.70595318647E+02  0.79297875912E+03 -0.93670079836E+03  0.12319153467E+04  0.80050137006E+02 0.  0.
        254    2    1    2    0    0  0.70595318647E+02 -0.79297875912E+03 -0.11241099123E+04  0.16451098835E+04  0.89942449503E+03 0.  0.
         23    2    4    4    0    0  0.48446121542E+02  0.17668175195E+03 -0.86262660300E+02  0.22220023389E+03  0.91478025862E+02 0.  0.
         23    2    4    4    0    0  0.22149197105E+02 -0.96966051107E+03 -0.10378472520E+04  0.14229096496E+04  0.82540042828E+02 0.  0.
          2    1    3    3  502    0 -0.80820178789E+01  0.50323930829E+03 -0.57014888604E+03  0.76051618830E+03  0.00000000000E+00 0. -1.
         -1    1    3    3    0  502 -0.62513300768E+02  0.28973945083E+03 -0.36655191232E+03  0.47139915843E+03  0.00000000000E+00 0.  1.
         11    1    5    5    0    0  0.42997064044E+02  0.18752160319E+03 -0.83666520650E+02  0.20979319783E+03  0.00000000000E+00 0. -1.
        -11    1    5    5    0    0  0.54490574987E+01 -0.10839851245E+02 -0.25961396506E+01  0.12407036057E+02  0.00000000000E+00 0.  1.
          4    1    6    6  503    0 -0.10408499930E+02 -0.61971632911E+03 -0.61612680427E+03  0.87393873034E+03  0.00000000000E+00 0. -1.
         -4    1    6    6    0  503  0.32557697035E+02 -0.34994418195E+03 -0.42172044774E+03  0.54897091923E+03  0.00000000000E+00 0.  1.
<mgrwt>
<rscale>  0 0.20075690E+04</rscale>
<asrwt>0</asrwt>
<pdfrwt beam="1">  1        2 0.37983354E+00 0.20075690E+04</pdfrwt>
<pdfrwt beam="2">  1       -1 0.62785731E-01 0.20075690E+04</pdfrwt>
<totfact> 0.98717546E+00</totfact>
</mgrwt>
</event>
<event>
12    6  0.1538774E-007  0.1644260E+04  0.7818608E-02  0.8793809E-01
          2   -1    0    0  501    0  0.00000000000E+00  0.00000000000E+00  0.88048284861E+03  0.88048284861E+03  0.00000000000E+00 0. -1.
         -1   -1    0    0    0  501 -0.00000000000E+00 -0.00000000000E+00 -0.76764445497E+03  0.76764445497E+03  0.00000000000E+00 0.  1.
         24    2    1    2    0    0 -0.42133180805E+03 -0.14687446310E+03 -0.32011820206E+03  0.55477269981E+03  0.78768551998E+02 0.  0.
        254    2    1    2    0    0  0.42133180805E+03  0.14687446310E+03  0.43295659571E+03  0.10933546038E+04  0.89937771566E+03 0.  0.
         23    2    4    4    0    0  0.45900233921E+03  0.44917831484E+03  0.42502406602E+03  0.77557671936E+03  0.91812226860E+02 0.  0.
         23    2    4    4    0    0 -0.37670531162E+02 -0.30230385174E+03  0.79325296903E+01  0.31777788441E+03  0.90073143040E+02 0.  0.
          2    1    3    3  502    0 -0.21236013948E+02 -0.25154819561E+02 -0.10932332062E+02  0.34687881455E+02  0.00000000000E+00 0. -1.
         -1    1    3    3    0  502 -0.40009579410E+03 -0.12171964354E+03 -0.30918587000E+03  0.52008481836E+03  0.00000000000E+00 0.  1.
         11    1    5    5    0    0  0.13283467005E+03  0.77066542190E+02  0.11162363910E+03  0.18985293860E+03  0.00000000000E+00 0. -1.
        -11    1    5    5    0    0  0.32616766916E+03  0.37211177265E+03  0.31340042692E+03  0.58572378076E+03  0.00000000000E+00 0.  1.
          1    1    6    6  503    0  0.10842606176E+02 -0.10616480091E+02 -0.14818315076E+02  0.21209767088E+02  0.00000000000E+00 0. -1.
         -1    1    6    6    0  503 -0.48513137338E+02 -0.29168737165E+03  0.22750844767E+02  0.29656811732E+03  0.00000000000E+00 0.  1.
<mgrwt>
<rscale>  0 0.16442600E+04</rscale>
<asrwt>0</asrwt>
<pdfrwt beam="1">  1        2 0.13545890E+00 0.16442600E+04</pdfrwt>
<pdfrwt beam="2">  1       -1 0.11809915E+00 0.16442600E+04</pdfrwt>
<totfact> 0.21233126E+01</totfact>
</mgrwt>
</event>
<event>
12    6  0.1538774E-007  0.1466421E+04  0.7818608E-02  0.8907095E-01
          2   -1    0    0  501    0  0.00000000000E+00  0.00000000000E+00  0.10038176488E+04  0.10038176488E+04  0.00000000000E+00 0. -1.
         -1   -1    0    0    0  501 -0.00000000000E+00 -0.00000000000E+00 -0.53555286391E+03  0.53555286391E+03  0.00000000000E+00 0.  1.
         24    2    1    2    0    0 -0.35831359831E+03  0.25557750843E+03  0.31358934643E+02  0.44846009710E+03  0.80153467579E+02 0.  0.
        254    2    1    2    0    0  0.35831359831E+03 -0.25557750843E+03  0.43690585029E+03  0.10909104157E+04  0.89749112276E+03 0.  0.
         23    2    4    4    0    0  0.70871380201E+02 -0.42941265966E+03  0.56609029256E+03  0.71979056512E+03  0.90676642536E+02 0.  0.
         23    2    4    4    0    0  0.28744221811E+03  0.17383515123E+03 -0.12918444227E+03  0.37111985054E+03  0.90551834799E+02 0.  0.
          4    1    3    3  502    0 -0.20338187652E+02  0.15512487518E+02 -0.17558773985E+02  0.31025629564E+02  0.00000000000E+00 0. -1.
         -3    1    3    3    0  502 -0.33797541065E+03  0.24006502091E+03  0.48917708628E+02  0.41743446754E+03  0.00000000000E+00 0.  1.
         11    1    5    5    0    0  0.63582882140E+01 -0.70646285287E+02  0.15440201546E+03  0.16991559032E+03  0.00000000000E+00 0. -1.
        -11    1    5    5    0    0  0.64513091987E+02 -0.35876637437E+03  0.41168827710E+03  0.54987497480E+03  0.00000000000E+00 0.  1.
          4    1    6    6  503    0  0.21574901805E+03  0.10091738036E+03 -0.12448333888E+03  0.26875278251E+03  0.00000000000E+00 0. -1.
         -4    1    6    6    0  503  0.71693200052E+02  0.72917770872E+02 -0.47011033865E+01  0.10236706802E+03  0.00000000000E+00 0.  1.
<mgrwt>
<rscale>  0 0.14664207E+04</rscale>
<asrwt>0</asrwt>
<pdfrwt beam="1">  1        2 0.15443348E+00 0.14664207E+04</pdfrwt>
<pdfrwt beam="2">  1       -1 0.82392748E-01 0.14664207E+04</pdfrwt>
<totfact> 0.40543791E+01</totfact>
</mgrwt>
</event>
<event>
12    6  0.1646919E-007  0.1559058E+04  0.7818608E-02  0.8846103E-01
         -1   -1    0    0    0  501 -0.00000000000E+00  0.00000000000E+00  0.31864986528E+03  0.31864986528E+03  0.00000000000E+00 0.  1.
          2   -1    0    0  501    0  0.00000000000E+00 -0.00000000000E+00 -0.19070010514E+04  0.19070010514E+04  0.00000000000E+00 0. -1.
         24    2    1    2    0    0 -0.11866745284E+03 -0.10905543678E+03  0.16451623991E+03  0.24537431189E+03  0.84663493237E+02 0.  0.
        254    2    1    2    0    0  0.11866745284E+03  0.10905543678E+03 -0.17528674261E+04  0.19802766048E+04  0.90718033797E+03 0.  0.
         23    2    4    4    0    0  0.62487547093E+02  0.48962732636E+02 -0.18321228502E+04  0.18360918247E+04  0.90868077262E+02 0.  0.
         23    2    4    4    0    0  0.56179905747E+02  0.60092704142E+02  0.79255424178E+02  0.14418478016E+03  0.87980189069E+02 0.  0.
          2    1    3    3  502    0 -0.51169722894E+00  0.11892012589E+02  0.18343251376E+02  0.21866793740E+02  0.00000000000E+00 0. -1.
         -1    1    3    3    0  502 -0.11815575561E+03 -0.12094744937E+03  0.14617298853E+03  0.22350751815E+03  0.00000000000E+00 0.  1.
         11    1    5    5    0    0  0.69731952821E+02  0.14955558366E+01 -0.88042349801E+03  0.88318192791E+03  0.00000000000E+00 0. -1.
        -11    1    5    5    0    0 -0.72444057283E+01  0.47467176800E+02 -0.95169935223E+03  0.95290989675E+03  0.00000000000E+00 0.  1.
          3    1    6    6  503    0  0.30550304494E+02  0.68472051807E+02  0.88211831013E+02  0.11577162914E+03  0.00000000000E+00 0. -1.
         -3    1    6    6    0  503  0.25629601252E+02 -0.83793476655E+01 -0.89564068353E+01  0.28413151023E+02  0.00000000000E+00 0.  1.
<mgrwt>
<rscale>  0 0.15590582E+04</rscale>
<asrwt>0</asrwt>
<pdfrwt beam="1">  1        2 0.29338478E+00 0.15590582E+04</pdfrwt>
<pdfrwt beam="2">  1       -1 0.49023056E-01 0.15590582E+04</pdfrwt>
<totfact> 0.34369803E+01</totfact>
</mgrwt>
</event>
<event>
12    6  0.1538774E-007  0.1727152E+04  0.7818608E-02  0.8746028E-01
          2   -1    0    0  501    0  0.00000000000E+00  0.00000000000E+00  0.18794871131E+04  0.18794871131E+04  0.00000000000E+00 0. -1.
         -1   -1    0    0    0  501 -0.00000000000E+00 -0.00000000000E+00 -0.39679117427E+03  0.39679117427E+03  0.00000000000E+00 0.  1.
         24    2    1    2    0    0 -0.10384530573E+03 -0.16412503714E+02 -0.26892474781E+03  0.29968800637E+03  0.80244397795E+02 0.  0.
        254    2    1    2    0    0  0.10384530573E+03  0.16412503714E+02  0.17516206866E+04  0.19765902810E+04  0.90976969134E+03 0.  0.
         23    2    4    4    0    0 -0.12901630873E+03  0.39563002904E+03  0.57545692241E+03  0.71583362742E+03  0.89993248644E+02 0.  0.
         23    2    4    4    0    0  0.23286161446E+03 -0.37921752533E+03  0.11761637642E+04  0.12607566536E+04  0.90087048165E+02 0.  0.
          2    1    3    3  502    0 -0.26251796325E+02  0.82449338918E+01 -0.11726020136E+02  0.29910454584E+02  0.00000000000E+00 0. -1.
         -1    1    3    3    0  502 -0.77593509400E+02 -0.24657437606E+02 -0.25719872767E+03  0.26977755178E+03  0.00000000000E+00 0.  1.
         11    1    5    5    0    0 -0.94527381532E+02  0.37035708720E+03  0.50377145414E+03  0.63236498631E+03  0.00000000000E+00 0. -1.
        -11    1    5    5    0    0 -0.34488927202E+02  0.25272941840E+02  0.71685468270E+02  0.83468641117E+02  0.00000000000E+00 0.  1.
          2    1    6    6  503    0  0.16940104737E+03 -0.26332611460E+03  0.93119535257E+03  0.98242665993E+03  0.00000000000E+00 0. -1.
         -2    1    6    6    0  503  0.63460567088E+02 -0.11589141073E+03  0.24496841164E+03  0.27832999364E+03  0.00000000000E+00 0.  1.
<mgrwt>
<rscale>  0 0.17271525E+04</rscale>
<asrwt>0</asrwt>
<pdfrwt beam="1">  1        2 0.28915186E+00 0.17271525E+04</pdfrwt>
<pdfrwt beam="2">  1       -1 0.61044797E-01 0.17271525E+04</pdfrwt>
<totfact> 0.22944056E+01</totfact>
</mgrwt>
</event>
<event>
12    6  0.1538774E-007  0.1464434E+04  0.7818608E-02  0.8908454E-01
          2   -1    0    0  501    0  0.00000000000E+00  0.00000000000E+00  0.58041753564E+03  0.58041753564E+03  0.00000000000E+00 0. -1.
         -1   -1    0    0    0  501 -0.00000000000E+00 -0.00000000000E+00 -0.92371757306E+03  0.92371757306E+03  0.00000000000E+00 0.  1.
         24    2    1    2    0    0 -0.34704571046E+03 -0.16147088999E+03 -0.35577014038E+03  0.52863624535E+03  0.79814244680E+02 0.  0.
        254    2    1    2    0    0  0.34704571046E+03  0.16147088999E+03  0.12470102965E+02  0.97549886334E+03  0.89717832980E+03 0.  0.
         23    2    4    4    0    0 -0.82446695498E+01  0.13458313079E+03  0.40508442830E+03  0.43760110406E+03  0.96024676783E+02 0.  0.
         23    2    4    4    0    0  0.35529038001E+03  0.26887759197E+02 -0.39261432533E+03  0.53789775929E+03  0.90740207564E+02 0.  0.
          4    1    3    3  502    0 -0.17934004097E+02 -0.32818831089E+02 -0.28763796111E+02  0.47181141823E+02  0.00000000000E+00 0. -1.
         -3    1    3    3    0  502 -0.32911170636E+03 -0.12865205890E+03 -0.32700634427E+03  0.48145510353E+03  0.00000000000E+00 0.  1.
         11    1    5    5    0    0 -0.77676629369E+01  0.97804350831E+02  0.14590445323E+03  0.17582416529E+03  0.00000000000E+00 0. -1.
        -11    1    5    5    0    0 -0.47700661294E+00  0.36778779959E+02  0.25917997507E+03  0.26177693876E+03  0.00000000000E+00 0.  1.
          2    1    6    6  503    0  0.36018717684E+03  0.30550043665E+02 -0.38452191447E+03  0.52775487704E+03  0.00000000000E+00 0. -1.
         -2    1    6    6    0  503 -0.48967968338E+01 -0.36622844687E+01 -0.80924108599E+01  0.10142882248E+02  0.00000000000E+00 0.  1.
<mgrwt>
<rscale>  0 0.14644342E+04</rscale>
<asrwt>0</asrwt>
<pdfrwt beam="1">  1        2 0.89295005E-01 0.14644342E+04</pdfrwt>
<pdfrwt beam="2">  1       -1 0.14211040E+00 0.14644342E+04</pdfrwt>
<totfact> 0.23035819E+01</totfact>
</mgrwt>
</event>
<event>
12    6  0.1538774E-007  0.1619651E+04  0.7818608E-02  0.8808566E-01
          2   -1    0    0  501    0  0.00000000000E+00  0.00000000000E+00  0.19924223558E+04  0.19924223558E+04  0.00000000000E+00 0. -1.
         -1   -1    0    0    0  501 -0.00000000000E+00 -0.00000000000E+00 -0.32915582624E+03  0.32915582624E+03  0.00000000000E+00 0.  1.
         24    2    1    2    0    0  0.31870116126E+03 -0.34367783388E+03  0.15632988555E+03  0.50067849976E+03  0.80963221957E+02 0.  0.
        254    2    1    2    0    0 -0.31870116126E+03  0.34367783388E+03  0.15069366441E+04  0.18208996823E+04  0.90836816337E+03 0.  0.
         23    2    4    4    0    0 -0.14062158216E+03 -0.28442235934E+03  0.73886124402E+03  0.80905875244E+03  0.89384669443E+02 0.  0.
         23    2    4    4    0    0 -0.17807957911E+03  0.62810019322E+03  0.76807540004E+03  0.10118409299E+04  0.87521757490E+02 0.  0.
          2    1    3    3  502    0  0.41603662999E+01  0.20519930711E+01  0.98055634812E+01  0.10847506557E+02  0.00000000000E+00 0. -1.
         -1    1    3    3    0  502  0.31454079496E+03 -0.34572982695E+03  0.14652432207E+03  0.48983099320E+03  0.00000000000E+00 0.  1.
         11    1    5    5    0    0 -0.29015535600E+02 -0.41241971126E+02  0.54496246998E+02  0.74247171161E+02  0.00000000000E+00 0. -1.
        -11    1    5    5    0    0 -0.11160604656E+03 -0.24318038821E+03  0.68436499702E+03  0.73481158128E+03  0.00000000000E+00 0.  1.
          3    1    6    6  503    0 -0.88361537178E+02  0.20153329868E+03  0.21513121498E+03  0.30774156591E+03  0.00000000000E+00 0. -1.
         -3    1    6    6    0  503 -0.89718041928E+02  0.42656689454E+03  0.55294418506E+03  0.70409936398E+03  0.00000000000E+00 0.  1.
<mgrwt>
<rscale>  0 0.16196511E+04</rscale>
<asrwt>0</asrwt>
<pdfrwt beam="1">  1        2 0.30652651E+00 0.16196511E+04</pdfrwt>
<pdfrwt beam="2">  1       -1 0.50639359E-01 0.16196511E+04</pdfrwt>
<totfact> 0.28830473E+01</totfact>
</mgrwt>
</event>
<event>
12    6  0.1538774E-007  0.1789735E+04  0.7818608E-02  0.8711777E-01
         -1   -1    0    0    0  501 -0.00000000000E+00  0.00000000000E+00  0.68288312580E+03  0.68288312580E+03  0.00000000000E+00 0.  1.
          2   -1    0    0  501    0  0.00000000000E+00 -0.00000000000E+00 -0.11726569874E+04  0.11726569874E+04  0.00000000000E+00 0. -1.
         24    2    1    2    0    0 -0.13672583947E+03  0.28632839839E+03  0.42454589229E+03  0.53582766950E+03  0.78703048502E+02 0.  0.
        254    2    1    2    0    0  0.13672583947E+03 -0.28632839839E+03 -0.91431975390E+03  0.13197124437E+04  0.89720812237E+03 0.  0.
         23    2    4    4    0    0 -0.28355892166E+03 -0.29728441570E+03 -0.74834266387E+03  0.85847194930E+03  0.90408292182E+02 0.  0.
         23    2    4    4    0    0  0.42028476113E+03  0.10956017310E+02 -0.16597709003E+03  0.46124049442E+03  0.91842716238E+02 0.  0.
          2    1    3    3  502    0 -0.39151751578E+02  0.14152939955E+03  0.14595678604E+03  0.20704302447E+03  0.00000000000E+00 0. -1.
         -1    1    3    3    0  502 -0.97574087889E+02  0.14479899884E+03  0.27858910624E+03  0.32878464503E+03  0.00000000000E+00 0.  1.
         11    1    5    5    0    0 -0.21509124922E+02 -0.71757749731E+02 -0.13039112626E+03  0.15037839907E+03  0.00000000000E+00 0. -1.
        -11    1    5    5    0    0 -0.26204979674E+03 -0.22552666597E+03 -0.61795153761E+03  0.70809355023E+03  0.00000000000E+00 0.  1.
          4    1    6    6  503    0  0.61529870612E+01 -0.97776197164E+01 -0.17174729440E+02  0.20698609336E+02  0.00000000000E+00 0.  1.
         -4    1    6    6    0  503  0.41413177407E+03  0.20733637026E+02 -0.14880236059E+03  0.44054188508E+03  0.00000000000E+00 0. -1.
<mgrwt>
<rscale>  0 0.17897348E+04</rscale>
<asrwt>0</asrwt>
<pdfrwt beam="1">  1        2 0.18040877E+00 0.17897348E+04</pdfrwt>
<pdfrwt beam="2">  1       -1 0.10505894E+00 0.17897348E+04</pdfrwt>
<totfact> 0.18022654E+01</totfact>
</mgrwt>
</event>
<event>
12    6  0.1538774E-007  0.2002890E+04  0.7818608E-02  0.8605271E-01
          2   -1    0    0  501    0  0.00000000000E+00  0.00000000000E+00  0.10774726660E+04  0.10774726660E+04  0.00000000000E+00 0. -1.
         -1   -1    0    0    0  501 -0.00000000000E+00 -0.00000000000E+00 -0.93078176432E+03  0.93078176432E+03  0.00000000000E+00 0.  1.
         24    2    1    2    0    0  0.72106919394E+02 -0.39796755275E+03  0.74616118138E+03  0.85249942232E+03  0.80132238161E+02 0.  0.
        254    2    1    2    0    0 -0.72106919394E+02  0.39796755275E+03 -0.59947027970E+03  0.11557550080E+04  0.90156943239E+03 0.  0.
         23    2    4    4    0    0 -0.24755201625E+02  0.50135855391E+03  0.28987625530E+02  0.51084147265E+03  0.90252468971E+02 0.  0.
         23    2    4    4    0    0 -0.47351717768E+02 -0.10339100116E+03 -0.62845790523E+03  0.64491353536E+03  0.89566986945E+02 0.  0.
          4    1    3    3  502    0  0.69702862464E+02 -0.24035035063E+03  0.51664394172E+03  0.57406249015E+03  0.00000000000E+00 0. -1.
         -3    1    3    3    0  502  0.24040569303E+01 -0.15761720213E+03  0.22951723966E+03  0.27843693217E+03  0.00000000000E+00 0.  1.
         11    1    5    5    0    0  0.30970642666E+02  0.10618225100E+03 -0.12239577437E+01  0.11061351277E+03  0.00000000000E+00 0.  1.
        -11    1    5    5    0    0 -0.55725844292E+02  0.39517630290E+03  0.30211583273E+02  0.40022795987E+03  0.00000000000E+00 0. -1.
          1    1    6    6  503    0 -0.14712799657E+02 -0.11038885857E+03 -0.48035301274E+03  0.49309348345E+03  0.00000000000E+00 0. -1.
         -1    1    6    6    0  503 -0.32638918111E+02  0.69978574104E+01 -0.14810489248E+03  0.15182005191E+03  0.00000000000E+00 0.  1.
<mgrwt>
<rscale>  0 0.20028898E+04</rscale>
<asrwt>0</asrwt>
<pdfrwt beam="1">  1        2 0.16576503E+00 0.20028898E+04</pdfrwt>
<pdfrwt beam="2">  1       -1 0.14319719E+00 0.20028898E+04</pdfrwt>
<totfact> 0.94144092E+00</totfact>
</mgrwt>
</event>
<event>
12    6  0.1538774E-007  0.1456996E+04  0.7818608E-02  0.8913565E-01
         -1   -1    0    0    0  501 -0.00000000000E+00  0.00000000000E+00  0.89976730709E+03  0.89976730709E+03  0.00000000000E+00 0.  1.
          2   -1    0    0  501    0  0.00000000000E+00 -0.00000000000E+00 -0.58982944930E+03  0.58982944930E+03  0.00000000000E+00 0. -1.
         24    2    1    2    0    0 -0.14121630705E+03  0.42247737256E+03  0.17207990274E+03  0.48776064756E+03  0.99346769844E+02 0.  0.
        254    2    1    2    0    0  0.14121630705E+03 -0.42247737256E+03  0.13785795505E+03  0.10018361088E+04  0.88670265450E+03 0.  0.
         23    2    4    4    0    0  0.92350993550E+02 -0.48964792420E+02  0.47075712885E+03  0.49065991715E+03  0.90601451557E+02 0.  0.
         23    2    4    4    0    0  0.48865313499E+02 -0.37351258014E+03 -0.33289917380E+03  0.51117619169E+03  0.92627062187E+02 0.  0.
          4    1    3    3  502    0 -0.12490704892E+03  0.38861575638E+03  0.18480363126E+03  0.44808075065E+03  0.00000000000E+00 0. -1.
         -3    1    3    3    0  502 -0.16309258129E+02  0.33861616182E+02 -0.12723728523E+02  0.39679896909E+02  0.00000000000E+00 0.  1.
         11    1    5    5    0    0  0.97306507320E+02 -0.63817840358E+02  0.44912694041E+03  0.46395719815E+03  0.00000000000E+00 0.  1.
        -11    1    5    5    0    0 -0.49555137694E+01  0.14853047938E+02  0.21630188443E+02  0.26702718998E+02  0.00000000000E+00 0. -1.
          3    1    6    6  503    0  0.47630074862E+02 -0.17544238440E+03 -0.10785666772E+03  0.21138049826E+03  0.00000000000E+00 0.  1.
         -3    1    6    6    0  503  0.12352386376E+01 -0.19807019574E+03 -0.22504250608E+03  0.29979569343E+03  0.00000000000E+00 0. -1.
<mgrwt>
<rscale>  0 0.14569959E+04</rscale>
<asrwt>0</asrwt>
<pdfrwt beam="1">  1        2 0.90742992E-01 0.14569959E+04</pdfrwt>
<pdfrwt beam="2">  1       -1 0.13842574E+00 0.14569959E+04</pdfrwt>
<totfact> 0.24217600E+01</totfact>
</mgrwt>
</event>
<event>
12    6  0.1538774E-007  0.1531435E+04  0.7818608E-02  0.8863814E-01
          2   -1    0    0  501    0  0.00000000000E+00  0.00000000000E+00  0.11837799951E+04  0.11837799951E+04  0.00000000000E+00 0. -1.
         -1   -1    0    0    0  501 -0.00000000000E+00 -0.00000000000E+00 -0.49529731219E+03  0.49529731219E+03  0.00000000000E+00 0.  1.
         24    2    1    2    0    0 -0.36475509048E+03  0.25267736203E+03 -0.15302175770E+02  0.45119080270E+03  0.80292331776E+02 0.  0.
        254    2    1    2    0    0  0.36475509048E+03 -0.25267736203E+03  0.70378485867E+03  0.12278865046E+04  0.90305039479E+03 0.  0.
         23    2    4    4    0    0 -0.27179243668E+03 -0.18964598758E+03  0.14485648721E+03  0.37401918665E+03  0.95237707088E+02 0.  0.
         23    2    4    4    0    0  0.63654752717E+03 -0.63031374453E+02  0.55892837146E+03  0.85386731794E+03  0.86733867144E+02 0.  0.
          4    1    3    3  502    0 -0.21008873784E+03  0.18385270784E+03 -0.32361734986E+02  0.28104515267E+03  0.00000000000E+00 0. -1.
         -3    1    3    3    0  502 -0.15466635264E+03  0.68824654193E+02  0.17059559216E+02  0.17014565003E+03  0.00000000000E+00 0.  1.
         11    1    5    5    0    0 -0.21912846124E+03 -0.10591521777E+03  0.82017777888E+02  0.25683113474E+03  0.00000000000E+00 0. -1.
        -11    1    5    5    0    0 -0.52663975449E+02 -0.83730769805E+02  0.62838709324E+02  0.11718805192E+03  0.00000000000E+00 0.  1.
          4    1    6    6  503    0  0.46581095105E+03 -0.27425094606E+02  0.36028510237E+03  0.58952297065E+03  0.00000000000E+00 0. -1.
         -4    1    6    6    0  503  0.17073657611E+03 -0.35606279847E+02  0.19864326909E+03  0.26434434728E+03  0.00000000000E+00 0.  1.
<mgrwt>
<rscale>  0 0.15314347E+04</rscale>
<asrwt>0</asrwt>
<pdfrwt beam="1">  1        2 0.18212000E+00 0.15314347E+04</pdfrwt>
<pdfrwt beam="2">  1       -1 0.76199587E-01 0.15314347E+04</pdfrwt>
<totfact> 0.36822670E+01</totfact>
</mgrwt>
</event>
<event>
12    6  0.1552858E-007  0.1386267E+04  0.7818608E-02  0.8963820E-01
          2   -1    0    0  501    0  0.00000000000E+00  0.00000000000E+00  0.16689473607E+04  0.16689473607E+04  0.00000000000E+00 0. -1.
         -1   -1    0    0    0  501 -0.00000000000E+00 -0.00000000000E+00 -0.28786636199E+03  0.28786636199E+03  0.00000000000E+00 0.  1.
         24    2    1    2    0    0 -0.27547563741E+03 -0.23045767197E+03  0.66340786761E+03  0.75855211420E+03  0.79333131668E+02 0.  0.
        254    2    1    2    0    0  0.27547563741E+03  0.23045767197E+03  0.71767313109E+03  0.11982616085E+04  0.88981941645E+03 0.  0.
         23    2    4    4    0    0  0.26708091708E+02  0.30355535899E+03  0.83920024967E+03  0.89757244424E+03  0.92304146542E+02 0.  0.
         23    2    4    4    0    0  0.24876754570E+03 -0.73097687024E+02 -0.12152711858E+03  0.30068916425E+03  0.91741862325E+02 0.  0.
          4    1    3    3  502    0 -0.20840171188E+03 -0.15280242569E+03  0.53532573264E+03  0.59443544211E+03  0.00000000000E+00 0. -1.
         -3    1    3    3    0  502 -0.67073925524E+02 -0.77655246275E+02  0.12808213497E+03  0.16411667209E+03  0.00000000000E+00 0.  1.
         11    1    5    5    0    0  0.33437926602E+02  0.29121489638E+03  0.83125860913E+03  0.88142786776E+03  0.00000000000E+00 0. -1.
        -11    1    5    5    0    0 -0.67298348948E+01  0.12340462608E+02  0.79416405397E+01  0.16144576475E+02  0.00000000000E+00 0.  1.
          4    1    6    6  503    0  0.22427663764E+03 -0.78830220427E+02 -0.13370045815E+03  0.27274535074E+03  0.00000000000E+00 0. -1.
         -4    1    6    6    0  503  0.24490908061E+02  0.57325334026E+01  0.12173339567E+02  0.27943813503E+02  0.00000000000E+00 0.  1.
<mgrwt>
<rscale>  0 0.13862666E+04</rscale>
<asrwt>0</asrwt>
<pdfrwt beam="1">  1        2 0.25676113E+00 0.13862666E+04</pdfrwt>
<pdfrwt beam="2">  1       -1 0.44287134E-01 0.13862666E+04</pdfrwt>
<totfact> 0.57151761E+01</totfact>
</mgrwt>
</event>
<event>
12    6  0.1538774E-007  0.1913116E+04  0.7818608E-02  0.8648355E-01
         -1   -1    0    0    0  501 -0.00000000000E+00  0.00000000000E+00  0.23420972064E+03  0.23420972064E+03  0.00000000000E+00 0.  1.
          2   -1    0    0  501    0  0.00000000000E+00 -0.00000000000E+00 -0.39067683218E+04  0.39067683218E+04  0.00000000000E+00 0. -1.
         24    2    1    2    0    0  0.64173069446E+03  0.33125680969E+03 -0.15438028218E+04  0.17062906995E+04  0.80940969083E+02 0.  0.
        254    2    1    2    0    0 -0.64173069446E+03 -0.33125680969E+03 -0.21287557794E+04  0.24346873429E+04  0.93517481330E+03 0.  0.
         23    2    4    4    0    0  0.15658013516E+03  0.10314035605E+02 -0.65090913128E+02  0.19396324807E+03  0.93601263750E+02 0.  0.
         23    2    4    4    0    0 -0.79831082962E+03 -0.34157084529E+03 -0.20636648662E+04  0.22407240948E+04  0.90338065419E+02 0.  0.
          4    1    3    3  502    0  0.64099124882E+03  0.33269445582E+03 -0.15441056663E+04  0.17046459135E+04  0.00000000000E+00 0. -1.
         -3    1    3    3    0  502  0.73944564122E+00 -0.14376461328E+01  0.30284441910E+00  0.16447860048E+01  0.00000000000E+00 0.  1.
         11    1    5    5    0    0  0.50036042987E+02 -0.33976910785E+02 -0.48223726539E+02  0.77353499375E+02  0.00000000000E+00 0. -1.
        -11    1    5    5    0    0  0.10654409217E+03  0.44290946389E+02 -0.16867186589E+02  0.11660974870E+03  0.00000000000E+00 0.  1.
          4    1    6    6  503    0 -0.41202833857E+03 -0.13527007678E+03 -0.96301965267E+03  0.10561591721E+04  0.00000000000E+00 0. -1.
         -4    1    6    6    0  503 -0.38628249105E+03 -0.20630076852E+03 -0.11006452136E+04  0.11845649227E+04  0.00000000000E+00 0.  1.
<mgrwt>
<rscale>  0 0.19131159E+04</rscale>
<asrwt>0</asrwt>
<pdfrwt beam="1">  1        2 0.60104120E+00 0.19131159E+04</pdfrwt>
<pdfrwt beam="2">  1       -1 0.36032269E-01 0.19131159E+04</pdfrwt>
<totfact> 0.32200656E+00</totfact>
</mgrwt>
</event>
<event>
12    6  0.1538774E-007  0.1239169E+04  0.7818608E-02  0.9079247E-01
          2   -1    0    0  501    0  0.00000000000E+00  0.00000000000E+00  0.69361674024E+03  0.69361674024E+03  0.00000000000E+00 0. -1.
         -1   -1    0    0    0  501 -0.00000000000E+00 -0.00000000000E+00 -0.55345358801E+03  0.55345358801E+03  0.00000000000E+00 0.  1.
         24    2    1    2    0    0  0.28437731821E+02  0.44666931596E+02  0.31893666853E+03  0.33234951278E+03  0.77017924824E+02 0.  0.
        254    2    1    2    0    0 -0.28437731821E+02 -0.44666931596E+02 -0.17877351630E+03  0.91472081546E+03  0.89551681209E+03 0.  0.
         23    2    4    4    0    0 -0.30749112091E+03 -0.20697210804E+02 -0.42265200863E+03  0.53147207011E+03  0.94067406345E+02 0.  0.
         23    2    4    4    0    0  0.27905338909E+03 -0.23969720792E+02  0.24387849233E+03  0.38324874535E+03  0.94644283052E+02 0.  0.
          4    1    3    3  502    0  0.46361388210E+02  0.51594813119E+02  0.19582149632E+03  0.20774373993E+03  0.00000000000E+00 0. -1.
         -3    1    3    3    0  502 -0.17923656389E+02 -0.69278815228E+01  0.12311517221E+03  0.12460577286E+03  0.00000000000E+00 0.  1.
         11    1    5    5    0    0 -0.31142798307E+03 -0.19411452230E+02 -0.42457631354E+03  0.52690534172E+03  0.00000000000E+00 0. -1.
        -11    1    5    5    0    0  0.39368621657E+01 -0.12857585732E+01  0.19243049050E+01  0.45667283899E+01  0.00000000000E+00 0.  1.
          3    1    6    6  503    0  0.15602506771E+03 -0.50462944071E+02  0.99876378626E+02  0.19200422257E+03  0.00000000000E+00 0. -1.
         -3    1    6    6    0  503  0.12302832137E+03  0.26493223279E+02  0.14400211371E+03  0.19124452278E+03  0.00000000000E+00 0.  1.
<mgrwt>
<rscale>  0 0.12391685E+04</rscale>
<asrwt>0</asrwt>
<pdfrwt beam="1">  1        2 0.10671027E+00 0.12391685E+04</pdfrwt>
<pdfrwt beam="2">  1       -1 0.85146706E-01 0.12391685E+04</pdfrwt>
<totfact> 0.63593418E+01</totfact>
</mgrwt>
</event>
<event>
12    6  0.1538774E-007  0.2376987E+04  0.7818608E-02  0.8448170E-01
          2   -1    0    0  501    0  0.00000000000E+00  0.00000000000E+00  0.39375326282E+04  0.39375326282E+04  0.00000000000E+00 0. -1.
         -1   -1    0    0    0  501 -0.00000000000E+00 -0.00000000000E+00 -0.35873158591E+03  0.35873158591E+03  0.00000000000E+00 0.  1.
         24    2    1    2    0    0 -0.65376644847E+03  0.60858257035E+03  0.24197004512E+04  0.25800876432E+04  0.64176779894E+02 0.  0.
        254    2    1    2    0    0  0.65376644847E+03 -0.60858257035E+03  0.11591005911E+04  0.17161765709E+04  0.89664069064E+03 0.  0.
         23    2    4    4    0    0 -0.46108115145E+02 -0.34873645028E+03  0.80802871976E+03  0.88610463832E+03  0.92346889759E+02 0.  0.
         23    2    4    4    0    0  0.69987456361E+03 -0.25984612007E+03  0.35107187132E+03  0.83007193257E+03  0.91779864328E+02 0.  0.
          4    1    3    3  502    0 -0.56211923907E+03  0.53758668226E+03  0.20479062619E+04  0.21906386140E+04  0.00000000000E+00 0. -1.
         -3    1    3    3    0  502 -0.91647209397E+02  0.70995888092E+02  0.37179418934E+03  0.38944902920E+03  0.00000000000E+00 0.  1.
         11    1    5    5    0    0 -0.28294932385E+02 -0.25532970166E+03  0.47810170126E+03  0.54274772823E+03  0.00000000000E+00 0.  1.
        -11    1    5    5    0    0 -0.17813182760E+02 -0.93406748622E+02  0.32992701850E+03  0.34335691009E+03  0.00000000000E+00 0. -1.
          2    1    6    6  503    0  0.47041731790E+03 -0.21135390289E+03  0.21340045566E+03  0.55812425115E+03  0.00000000000E+00 0. -1.
         -2    1    6    6    0  503  0.22945724571E+03 -0.48492217174E+02  0.13767141566E+03  0.27194768141E+03  0.00000000000E+00 0.  1.
<mgrwt>
<rscale>  0 0.23769874E+04</rscale>
<asrwt>0</asrwt>
<pdfrwt beam="1">  1        2 0.60577422E+00 0.23769874E+04</pdfrwt>
<pdfrwt beam="2">  1       -1 0.55189477E-01 0.23769874E+04</pdfrwt>
<totfact> 0.13117911E+00</totfact>
</mgrwt>
</event>
<event>
12    6  0.1538774E-007  0.1989465E+04  0.7818608E-02  0.8611562E-01
         -1   -1    0    0    0  501 -0.00000000000E+00  0.00000000000E+00  0.19018447527E+04  0.19018447527E+04  0.00000000000E+00 0.  1.
          2   -1    0    0  501    0  0.00000000000E+00 -0.00000000000E+00 -0.52028029044E+03  0.52028029044E+03  0.00000000000E+00 0. -1.
         24    2    1    2    0    0 -0.48788192782E+03  0.15537292777E+03 -0.17753395653E+03  0.54786909164E+03  0.80453176902E+02 0.  0.
        254    2    1    2    0    0  0.48788192782E+03 -0.15537292777E+03  0.15590984188E+04  0.18742559515E+04  0.90547113158E+03 0.  0.
         23    2    4    4    0    0 -0.12758168861E+03 -0.56334310720E+02 -0.26105656890E+02  0.16886508641E+03  0.91560200175E+02 0.  0.
         23    2    4    4    0    0  0.61546361643E+03 -0.99038617053E+02  0.15852040757E+04  0.17053908651E+04  0.82957401050E+02 0.  0.
          4    1    3    3  502    0 -0.23720477379E+03  0.11117867793E+03 -0.11282188128E+03  0.28522899577E+03  0.00000000000E+00 0. -1.
         -3    1    3    3    0  502 -0.25067715403E+03  0.44194249843E+02 -0.64712075244E+02  0.26264009587E+03  0.00000000000E+00 0.  1.
         11    1    5    5    0    0 -0.16868805756E+02 -0.17215841998E+02 -0.43921800896E+02  0.50100563044E+02  0.00000000000E+00 0.  1.
        -11    1    5    5    0    0 -0.11071288285E+03 -0.39118468722E+02  0.17816144006E+02  0.11876452337E+03  0.00000000000E+00 0. -1.
          1    1    6    6  503    0  0.61129316314E+03 -0.10596802799E+03  0.15706230199E+04  0.16887170351E+04  0.00000000000E+00 0. -1.
         -1    1    6    6    0  503  0.41704532871E+01  0.69294109389E+01  0.14581055814E+02  0.16673829951E+02  0.00000000000E+00 0.  1.
<mgrwt>
<rscale>  0 0.19894646E+04</rscale>
<asrwt>0</asrwt>
<pdfrwt beam="1">  1        2 0.80043122E-01 0.19894646E+04</pdfrwt>
<pdfrwt beam="2">  1       -1 0.29259150E+00 0.19894646E+04</pdfrwt>
<totfact> 0.23044096E+00</totfact>
</mgrwt>
</event>
<event>
12    6  0.1538774E-007  0.1189088E+04  0.7818608E-02  0.9122462E-01
         -1   -1    0    0    0  501 -0.00000000000E+00  0.00000000000E+00  0.21926043943E+03  0.21926043943E+03  0.00000000000E+00 0.  1.
          2   -1    0    0  501    0  0.00000000000E+00 -0.00000000000E+00 -0.16121571134E+04  0.16121571134E+04  0.00000000000E+00 0. -1.
         24    2    1    2    0    0  0.44811490800E+02 -0.17513768491E+03 -0.15655114459E+02  0.19843726404E+03  0.80318035132E+02 0.  0.
        254    2    1    2    0    0 -0.44811490800E+02  0.17513768491E+03 -0.13772415595E+04  0.16329802887E+04  0.85857383604E+03 0.  0.
         23    2    4    4    0    0 -0.36290209689E+03  0.11040523123E+03 -0.26750976801E+03  0.47305199054E+03  0.91265890484E+02 0.  0.
         23    2    4    4    0    0  0.31809060609E+03  0.64732453686E+02 -0.11097317915E+04  0.11599282982E+04  0.92504506745E+02 0.  0.
          4    1    3    3  502    0  0.22960624957E+02 -0.32143118956E+01 -0.94011414837E+01  0.25018064685E+02  0.00000000000E+00 0. -1.
         -3    1    3    3    0  502  0.21850865844E+02 -0.17192337302E+03 -0.62539729750E+01  0.17341919936E+03  0.00000000000E+00 0.  1.
         11    1    5    5    0    0 -0.26068562468E+02  0.44504779830E+01  0.51319357569E+01  0.26939069547E+02  0.00000000000E+00 0.  1.
        -11    1    5    5    0    0 -0.33683353442E+03  0.10595475324E+03 -0.27264170377E+03  0.44611292100E+03  0.00000000000E+00 0. -1.
          4    1    6    6  503    0  0.24308177218E+03  0.31194092546E+02 -0.69002097539E+03  0.73225048027E+03  0.00000000000E+00 0. -1.
         -4    1    6    6    0  503  0.75008833908E+02  0.33538361140E+02 -0.41971081607E+03  0.42767781794E+03  0.00000000000E+00 0.  1.
<mgrwt>
<rscale>  0 0.11890875E+04</rscale>
<asrwt>0</asrwt>
<pdfrwt beam="1">  1        2 0.24802416E+00 0.11890875E+04</pdfrwt>
<pdfrwt beam="2">  1       -1 0.33732376E-01 0.11890875E+04</pdfrwt>
<totfact> 0.10235082E+02</totfact>
</mgrwt>
</event>
<event>
12    6  0.2205414E-007  0.2291434E+04  0.7818608E-02  0.8481306E-01
          2   -1    0    0  501    0  0.00000000000E+00  0.00000000000E+00  0.98248227152E+03  0.98248227152E+03  0.00000000000E+00 0. -1.
         -1   -1    0    0    0  501 -0.00000000000E+00 -0.00000000000E+00 -0.13360722660E+04  0.13360722660E+04  0.00000000000E+00 0.  1.
         24    2    1    2    0    0 -0.25948322849E+03  0.50784728521E+02  0.81086821071E+03  0.85612170181E+03  0.74340289595E+02 0.  0.
        254    2    1    2    0    0  0.25948322849E+03 -0.50784728521E+02 -0.11644582052E+04  0.14624328357E+04  0.84429630626E+03 0.  0.
         23    2    4    4    0    0 -0.49969248535E+02 -0.23748060726E+03 -0.10362842093E+04  0.10682650851E+04  0.91713494164E+02 0.  0.
         23    2    4    4    0    0  0.30945247702E+03  0.18669587873E+03 -0.12817399584E+03  0.39416775054E+03  0.91232974752E+02 0.  0.
          4    1    3    3  502    0 -0.23312471153E+03  0.56176671898E+02  0.64596733287E+03  0.68904045217E+03  0.00000000000E+00 0. -1.
         -3    1    3    3    0  502 -0.26358516955E+02 -0.53919433774E+01  0.16490087784E+03  0.16708124964E+03  0.00000000000E+00 0.  1.
         11    1    5    5    0    0 -0.56410997570E+02 -0.20438528679E+03 -0.73111378533E+03  0.76123775077E+03  0.00000000000E+00 0. -1.
        -11    1    5    5    0    0  0.64417490347E+01 -0.33095320467E+02 -0.30517042399E+03  0.30702733436E+03  0.00000000000E+00 0.  1.
          3    1    6    6  503    0  0.19053624477E+03  0.14086347292E+03 -0.12214583117E+03  0.26658241249E+03  0.00000000000E+00 0. -1.
         -3    1    6    6    0  503  0.11891623225E+03  0.45832405810E+02 -0.60281646664E+01  0.12758533805E+03  0.00000000000E+00 0.  1.
<mgrwt>
<rscale>  0 0.22914339E+04</rscale>
<asrwt>0</asrwt>
<pdfrwt beam="1">  1        2 0.15115112E+00 0.22914339E+04</pdfrwt>
<pdfrwt beam="2">  1       -1 0.20554958E+00 0.22914339E+04</pdfrwt>
<totfact> 0.36872623E+00</totfact>
</mgrwt>
</event>
<event>
12    6  0.1538774E-007  0.1315073E+04  0.7818608E-02  0.9017697E-01
         -3   -1    0    0    0  501 -0.00000000000E+00  0.00000000000E+00  0.54546939755E+03  0.54546939755E+03  0.00000000000E+00 0.  1.
          2   -1    0    0  501    0  0.00000000000E+00 -0.00000000000E+00 -0.79262830157E+03  0.79262830157E+03  0.00000000000E+00 0. -1.
         24    2    1    2    0    0  0.26890325467E+03 -0.17779249552E+03  0.57937291670E+02  0.33796094417E+03  0.83317094161E+02 0.  0.
        254    2    1    2    0    0 -0.26890325467E+03  0.17779249552E+03 -0.30509619568E+03  0.10001367550E+04  0.89625370747E+03 0.  0.
         23    2    4    4    0    0 -0.88114182967E+02  0.49460470838E+03 -0.35308497153E+03  0.62098092206E+03  0.92468273774E+02 0.  0.
         23    2    4    4    0    0 -0.18078907170E+03 -0.31681221286E+03  0.47988775851E+02  0.37915583289E+03  0.91660004044E+02 0.  0.
          4    1    3    3  502    0  0.71026217371E+02 -0.34312706472E+02 -0.20069931140E+02  0.81393411990E+02  0.00000000000E+00 0. -1.
         -3    1    3    3    0  502  0.19787703730E+03 -0.14347978905E+03  0.78007222810E+02  0.25656753218E+03  0.00000000000E+00 0.  1.
         11    1    5    5    0    0 -0.97098771660E+02  0.44622891634E+03 -0.28997247583E+03  0.54095513120E+03  0.00000000000E+00 0. -1.
        -11    1    5    5    0    0  0.89845886939E+01  0.48375792045E+02 -0.63112495700E+02  0.80025790865E+02  0.00000000000E+00 0.  1.
          3    1    6    6  503    0 -0.18041858099E+03 -0.28423157734E+03  0.64260732973E+02  0.34273589792E+03  0.00000000000E+00 0. -1.
         -3    1    6    6    0  503 -0.37049071420E+00 -0.32580635523E+02 -0.16271957122E+02  0.36419934967E+02  0.00000000000E+00 0.  1.
<mgrwt>
<rscale>  0 0.13150734E+04</rscale>
<asrwt>0</asrwt>
<pdfrwt beam="1">  1        2 0.12194282E+00 0.13150734E+04</pdfrwt>
<pdfrwt beam="2">  1       -3 0.83918369E-01 0.13150734E+04</pdfrwt>
<totfact> 0.28256853E+01</totfact>
</mgrwt>
</event>
<event>
12    6  0.1538774E-007  0.3322936E+04  0.7818608E-02  0.8157084E-01
          2   -1    0    0  501    0  0.00000000000E+00  0.00000000000E+00  0.24950372906E+04  0.24950372906E+04  0.00000000000E+00 0. -1.
         -1   -1    0    0    0  501 -0.00000000000E+00 -0.00000000000E+00 -0.11063864380E+04  0.11063864380E+04  0.00000000000E+00 0.  1.
         24    2    1    2    0    0 -0.93460741211E+03 -0.11505682710E+04  0.10934042657E+04  0.18436527088E+04  0.78892721227E+02 0.  0.
        254    2    1    2    0    0  0.93460741211E+03  0.11505682710E+04  0.29524658684E+03  0.17577710198E+04  0.89737954627E+03 0.  0.
         23    2    4    4    0    0  0.17844201126E+03 -0.93704383963E+02 -0.10525918295E+03  0.24501827146E+03  0.91281952213E+02 0.  0.
         23    2    4    4    0    0  0.75616540085E+03  0.12442726550E+04  0.40050576979E+03  0.15127527483E+04  0.89529060584E+02 0.  0.
          2    1    3    3  502    0 -0.32038770274E+03 -0.42728209202E+03  0.43344633231E+03  0.68781828212E+03  0.00000000000E+00 0. -1.
         -1    1    3    3    0  502 -0.61421970937E+03 -0.72328617897E+03  0.65995793339E+03  0.11558344267E+04  0.00000000000E+00 0.  1.
         11    1    5    5    0    0  0.69146016578E+02 -0.13485033911E+02  0.44859137043E+01  0.70591367531E+02  0.00000000000E+00 0. -1.
        -11    1    5    5    0    0  0.10929599468E+03 -0.80219350052E+02 -0.10974509665E+03  0.17442690393E+03  0.00000000000E+00 0.  1.
          3    1    6    6  503    0  0.22579950211E+03  0.35732630184E+03  0.15802166980E+03  0.45126305994E+03  0.00000000000E+00 0. -1.
         -3    1    6    6    0  503  0.53036589874E+03  0.88694635311E+03  0.24248409999E+03  0.10614896884E+04  0.00000000000E+00 0.  1.
<mgrwt>
<rscale>  0 0.33229357E+04</rscale>
<asrwt>0</asrwt>
<pdfrwt beam="1">  1        2 0.38385189E+00 0.33229357E+04</pdfrwt>
<pdfrwt beam="2">  1       -1 0.17021330E+00 0.33229357E+04</pdfrwt>
<totfact> 0.81381867E-01</totfact>
</mgrwt>
</event>
<event>
12    6  0.1538774E-007  0.1636056E+04  0.7818608E-02  0.8798698E-01
         -1   -1    0    0    0  501 -0.00000000000E+00  0.00000000000E+00  0.61321221436E+03  0.61321221436E+03  0.00000000000E+00 0.  1.
          2   -1    0    0  501    0  0.00000000000E+00 -0.00000000000E+00 -0.10912538730E+04  0.10912538730E+04  0.00000000000E+00 0. -1.
         24    2    1    2    0    0  0.34435748406E+03  0.16053768332E+03 -0.59442768018E+03  0.71010692958E+03  0.80951589759E+02 0.  0.
        254    2    1    2    0    0 -0.34435748406E+03 -0.16053768332E+03  0.11638602154E+03  0.99435915778E+03  0.91150973887E+03 0.  0.
         23    2    4    4    0    0 -0.12220783754E+03  0.32772704590E+03 -0.14638850868E+03  0.39006936660E+03  0.91568242905E+02 0.  0.
         23    2    4    4    0    0 -0.22214964652E+03 -0.48826472922E+03  0.26277453022E+03  0.60428979118E+03  0.91448273578E+02 0.  0.
          4    1    3    3  502    0  0.22285072383E+03  0.90704818679E+02 -0.44058513358E+03  0.50200106492E+03  0.00000000000E+00 0. -1.
         -3    1    3    3    0  502  0.12150676022E+03  0.69832864641E+02 -0.15384254659E+03  0.20810586466E+03  0.00000000000E+00 0.  1.
         11    1    5    5    0    0 -0.87137398192E+02  0.12309571072E+03 -0.36515498094E+02  0.15517365035E+03  0.00000000000E+00 0. -1.
        -11    1    5    5    0    0 -0.35070439345E+02  0.20463133519E+03 -0.10987301059E+03  0.23489571625E+03  0.00000000000E+00 0.  1.
          3    1    6    6  503    0 -0.35971062120E+02 -0.59777405458E+02  0.32110915286E+01  0.69839577763E+02  0.00000000000E+00 0. -1.
         -3    1    6    6    0  503 -0.18617858440E+03 -0.42848732377E+03  0.25956343869E+03  0.53445021342E+03  0.00000000000E+00 0.  1.
<mgrwt>
<rscale>  0 0.16360565E+04</rscale>
<asrwt>0</asrwt>
<pdfrwt beam="1">  1        2 0.16788521E+00 0.16360565E+04</pdfrwt>
<pdfrwt beam="2">  1       -1 0.94340341E-01 0.16360565E+04</pdfrwt>
<totfact> 0.26175108E+01</totfact>
</mgrwt>
</event>
<event>
12    6  0.1538774E-007  0.2430806E+04  0.7818608E-02  0.8428060E-01
         -1   -1    0    0    0  501 -0.00000000000E+00  0.00000000000E+00  0.95046899350E+03  0.95046899350E+03  0.00000000000E+00 0.  1.
          2   -1    0    0  501    0  0.00000000000E+00 -0.00000000000E+00 -0.15541847701E+04  0.15541847701E+04  0.00000000000E+00 0. -1.
         24    2    1    2    0    0  0.18392228768E+03 -0.44506303459E+03 -0.12186805959E+04  0.13127336059E+04  0.78604152025E+02 0.  0.
        254    2    1    2    0    0 -0.18392228768E+03  0.44506303459E+03  0.61496481929E+03  0.11919201577E+04  0.90032406421E+03 0.  0.
         23    2    4    4    0    0  0.27073895168E+03  0.25201668862E+03  0.57506939762E+03  0.68986539781E+03  0.91637676274E+02 0.  0.
         23    2    4    4    0    0 -0.45466123936E+03  0.19304634596E+03  0.39895421676E+02  0.50205475985E+03  0.80520823066E+02 0.  0.
          2    1    3    3  502    0  0.18082339055E+03 -0.44676757890E+03 -0.11909786337E+04  0.12848067847E+04  0.00000000000E+00 0. -1.
         -1    1    3    3    0  502  0.30988971273E+01  0.17045443151E+01 -0.27701962154E+02  0.27926821193E+02  0.00000000000E+00 0.  1.
         11    1    5    5    0    0  0.13288122235E+03  0.18146359932E+03  0.31237784664E+03  0.38492385767E+03  0.00000000000E+00 0.  1.
        -11    1    5    5    0    0  0.13785772934E+03  0.70553089305E+02  0.26269155098E+03  0.30494154014E+03  0.00000000000E+00 0. -1.
          4    1    6    6  503    0 -0.35013028661E+02  0.40201786520E+02 -0.29180167810E+01  0.53391110096E+02  0.00000000000E+00 0. -1.
         -4    1    6    6    0  503 -0.41964821070E+03  0.15284455944E+03  0.42813438457E+02  0.44866364975E+03  0.00000000000E+00 0.  1.
<mgrwt>
<rscale>  0 0.24308060E+04</rscale>
<asrwt>0</asrwt>
<pdfrwt beam="1">  1        2 0.23910535E+00 0.24308060E+04</pdfrwt>
<pdfrwt beam="2">  1       -1 0.14622600E+00 0.24308060E+04</pdfrwt>
<totfact> 0.45159148E+00</totfact>
</mgrwt>
</event>
<event>
12    6  0.1538774E-007  0.1309181E+04  0.7818608E-02  0.9022316E-01
          2   -1    0    0  501    0  0.00000000000E+00  0.00000000000E+00  0.29106480715E+04  0.29106480715E+04  0.00000000000E+00 0. -1.
         -1   -1    0    0    0  501 -0.00000000000E+00 -0.00000000000E+00 -0.14721426298E+03  0.14721426298E+03  0.00000000000E+00 0.  1.
         24    2    1    2    0    0 -0.22197640714E+03 -0.24435197056E+03  0.56505541428E+03  0.65914746324E+03  0.78780367170E+02 0.  0.
        254    2    1    2    0    0  0.22197640714E+03  0.24435197056E+03  0.21983783943E+04  0.23987148713E+04  0.90110158051E+03 0.  0.
         23    2    4    4    0    0 -0.26110827485E+03 -0.14275114089E+02  0.25091445142E+03  0.37342286071E+03  0.90029222424E+02 0.  0.
         23    2    4    4    0    0  0.48308468199E+03  0.25862708465E+03  0.19474639429E+04  0.20252920106E+04  0.94515292140E+02 0.  0.
          4    1    3    3  502    0 -0.10610219056E+03 -0.12310111021E+03  0.35436403395E+03  0.38985308352E+03  0.00000000000E+00 0. -1.
         -3    1    3    3    0  502 -0.11587421658E+03 -0.12125086035E+03  0.21069138033E+03  0.26929437972E+03  0.00000000000E+00 0.  1.
         11    1    5    5    0    0 -0.25637185770E+03 -0.89867718312E+01  0.20893994603E+03  0.33085222160E+03  0.00000000000E+00 0.  1.
        -11    1    5    5    0    0 -0.47364171454E+01 -0.52883422573E+01  0.41974505392E+02  0.42570639109E+02  0.00000000000E+00 0. -1.
          2    1    6    6  503    0  0.15874690548E+03  0.57164761185E+02  0.73563046097E+03  0.75473211474E+03  0.00000000000E+00 0. -1.
         -2    1    6    6    0  503  0.32433777651E+03  0.20146232346E+03  0.12118334819E+04  0.12705598958E+04  0.00000000000E+00 0.  1.
<mgrwt>
<rscale>  0 0.13091813E+04</rscale>
<asrwt>0</asrwt>
<pdfrwt beam="1">  1        2 0.44779197E+00 0.13091813E+04</pdfrwt>
<pdfrwt beam="2">  1       -1 0.22648350E-01 0.13091813E+04</pdfrwt>
<totfact> 0.36970973E+01</totfact>
</mgrwt>
</event>
<event>
12    6  0.1538774E-007  0.2086528E+04  0.7818608E-02  0.8567201E-01
          2   -1    0    0  501    0  0.00000000000E+00  0.00000000000E+00  0.11613373794E+04  0.11613373794E+04  0.00000000000E+00 0. -1.
         -1   -1    0    0    0  501 -0.00000000000E+00 -0.00000000000E+00 -0.93719523710E+03  0.93719523710E+03  0.00000000000E+00 0.  1.
         24    2    1    2    0    0  0.61079156074E+02  0.77391464554E+03 -0.25028996696E+03  0.81931578490E+03  0.77192913722E+02 0.  0.
        254    2    1    2    0    0 -0.61079156074E+02 -0.77391464554E+03  0.47443210925E+03  0.12792168316E+04  0.89924153265E+03 0.  0.
         23    2    4    4    0    0 -0.16852242611E+03 -0.13972543504E+03 -0.22384325611E+03  0.32562822549E+03  0.89470289092E+02 0.  0.
         23    2    4    4    0    0  0.10744327003E+03 -0.63418921050E+03  0.69827536536E+03  0.95358860610E+03  0.89457994719E+02 0.  0.
          2    1    3    3  502    0 -0.12602458180E+02  0.14252004308E+03 -0.65249366472E+02  0.15725223196E+03  0.00000000000E+00 0. -1.
         -1    1    3    3    0  502  0.73681614254E+02  0.63139460246E+03 -0.18504060049E+03  0.66206355293E+03  0.00000000000E+00 0.  1.
         11    1    5    5    0    0 -0.10982380894E+03 -0.10185277785E+03 -0.90247074696E+02  0.17487078618E+03  0.00000000000E+00 0.  1.
        -11    1    5    5    0    0 -0.58698617170E+02 -0.37872657188E+02 -0.13359618141E+03  0.15075743931E+03  0.00000000000E+00 0. -1.
          4    1    6    6  503    0 -0.90062669782E+01 -0.17877384678E+03  0.20671001499E+03  0.27344145888E+03  0.00000000000E+00 0. -1.
         -4    1    6    6    0  503  0.11644953701E+03 -0.45541536371E+03  0.49156535037E+03  0.68014714721E+03  0.00000000000E+00 0.  1.
<mgrwt>
<rscale>  0 0.20865281E+04</rscale>
<asrwt>0</asrwt>
<pdfrwt beam="1">  1        2 0.17866729E+00 0.20865281E+04</pdfrwt>
<pdfrwt beam="2">  1       -1 0.14418388E+00 0.20865281E+04</pdfrwt>
<totfact> 0.81534615E+00</totfact>
</mgrwt>
</event>
<event>
12    6  0.1538774E-007  0.2820675E+04  0.7818608E-02  0.8296878E-01
         -1   -1    0    0    0  501 -0.00000000000E+00  0.00000000000E+00  0.72138886475E+03  0.72138886475E+03  0.00000000000E+00 0.  1.
          2   -1    0    0  501    0  0.00000000000E+00 -0.00000000000E+00 -0.27572531880E+04  0.27572531880E+04  0.00000000000E+00 0. -1.
         24    2    1    2    0    0  0.57222939333E+03 -0.47795642107E+03  0.34677022563E+03  0.82618712439E+03  0.80291693837E+02 0.  0.
        254    2    1    2    0    0 -0.57222939333E+03  0.47795642107E+03 -0.23826345489E+04  0.26524549284E+04  0.89592462546E+03 0.  0.
         23    2    4    4    0    0 -0.73352539015E+03  0.48530332729E+03 -0.14341155600E+04  0.16847444277E+04  0.89986274617E+02 0.  0.
         23    2    4    4    0    0  0.16129599682E+03 -0.73469062252E+01 -0.94851898887E+03  0.96771050071E+03  0.10346480227E+03 0.  0.
          2    1    3    3  502    0  0.34471805236E+02 -0.53435411629E+02  0.42817842366E+02  0.76661699675E+02  0.00000000000E+00 0. -1.
         -1    1    3    3    0  502  0.53775758809E+03 -0.42452100944E+03  0.30395238326E+03  0.74952542472E+03  0.00000000000E+00 0.  1.
         11    1    5    5    0    0 -0.25225860670E+03  0.20874570128E+03 -0.48340949538E+03  0.58386121012E+03  0.00000000000E+00 0.  1.
        -11    1    5    5    0    0 -0.48126678345E+03  0.27655762602E+03 -0.95070606467E+03  0.11008832176E+04  0.00000000000E+00 0. -1.
          3    1    6    6  503    0  0.17381562624E+03 -0.15567816182E+02 -0.90538930012E+03  0.92205423571E+03  0.00000000000E+00 0. -1.
         -3    1    6    6    0  503 -0.12519629423E+02  0.82209099566E+01 -0.43129688754E+02  0.45656264996E+02  0.00000000000E+00 0.  1.
<mgrwt>
<rscale>  0 0.28206749E+04</rscale>
<asrwt>0</asrwt>
<pdfrwt beam="1">  1        2 0.42419280E+00 0.28206749E+04</pdfrwt>
<pdfrwt beam="2">  1       -1 0.11098290E+00 0.28206749E+04</pdfrwt>
<totfact> 0.18098651E+00</totfact>
</mgrwt>
</event>
<event>
12    6  0.1538774E-007  0.1318992E+04  0.7818608E-02  0.9014638E-01
          2   -1    0    0  501    0  0.00000000000E+00  0.00000000000E+00  0.34093735506E+03  0.34093735506E+03  0.00000000000E+00 0. -1.
         -1   -1    0    0    0  501 -0.00000000000E+00 -0.00000000000E+00 -0.12757034853E+04  0.12757034853E+04  0.00000000000E+00 0.  1.
         24    2    1    2    0    0 -0.27029379730E+03  0.35182264370E+02  0.10120987992E+02  0.28409641131E+03  0.79446887521E+02 0.  0.
        254    2    1    2    0    0  0.27029379730E+03 -0.35182264370E+02 -0.94488711821E+03  0.13325444290E+04  0.89920323654E+03 0.  0.
         23    2    4    4    0    0 -0.36112037099E+02 -0.41088343868E+03 -0.58644103044E+03  0.72282063192E+03  0.91800350418E+02 0.  0.
         23    2    4    4    0    0  0.30640583440E+03  0.37570117431E+03 -0.35844608777E+03  0.60972379711E+03  0.90794290557E+02 0.  0.
          2    1    3    3  502    0 -0.11275561493E+03 -0.21260800296E+01  0.39624728201E+02  0.11953437999E+03  0.00000000000E+00 0. -1.
         -1    1    3    3    0  502 -0.15753818237E+03  0.37308344400E+02 -0.29503740209E+02  0.16456203132E+03  0.00000000000E+00 0.  1.
         11    1    5    5    0    0  0.19104948870E+02 -0.12290856183E+03 -0.22802008066E+03  0.25973962121E+03  0.00000000000E+00 0. -1.
        -11    1    5    5    0    0 -0.55216985969E+02 -0.28797487685E+03 -0.35842094978E+03  0.46308101070E+03  0.00000000000E+00 0.  1.
          4    1    6    6  503    0  0.10478719875E+03  0.18850490013E+03 -0.12766879594E+03  0.25062676603E+03  0.00000000000E+00 0. -1.
         -4    1    6    6    0  503  0.20161863564E+03  0.18719627418E+03 -0.23077729183E+03  0.35909703108E+03  0.00000000000E+00 0.  1.
<mgrwt>
<rscale>  0 0.13189920E+04</rscale>
<asrwt>0</asrwt>
<pdfrwt beam="1">  1        2 0.52451901E-01 0.13189920E+04</pdfrwt>
<pdfrwt beam="2">  1       -1 0.19626208E+00 0.13189920E+04</pdfrwt>
<totfact> 0.17040211E+01</totfact>
</mgrwt>
</event>
<event>
12    6  0.1538774E-007  0.1323001E+04  0.7818608E-02  0.9011522E-01
         -1   -1    0    0    0  501 -0.00000000000E+00  0.00000000000E+00  0.31763247371E+03  0.31763247371E+03  0.00000000000E+00 0.  1.
          2   -1    0    0  501    0  0.00000000000E+00 -0.00000000000E+00 -0.13776382511E+04  0.13776382511E+04  0.00000000000E+00 0. -1.
         24    2    1    2    0    0  0.29725482525E+03 -0.14478185400E+03 -0.41115482860E+03  0.53674478769E+03  0.98612664695E+02 0.  0.
        254    2    1    2    0    0 -0.29725482525E+03  0.14478185400E+03 -0.64885094878E+03  0.11585259371E+04  0.90102862156E+03 0.  0.
         23    2    4    4    0    0 -0.26655598596E+03 -0.33185535326E+03 -0.14799952243E+03  0.46042036599E+03  0.94355633835E+02 0.  0.
         23    2    4    4    0    0 -0.30698839293E+02  0.47663720727E+03 -0.50085142635E+03  0.69810557114E+03  0.91508420907E+02 0.  0.
          2    1    3    3  502    0  0.18425662315E+03 -0.92909619782E+02 -0.17804394883E+03  0.27254788265E+03  0.00000000000E+00 0. -1.
         -1    1    3    3    0  502  0.11299820211E+03 -0.51872234223E+02 -0.23311087977E+03  0.26419690503E+03  0.00000000000E+00 0.  1.
         11    1    5    5    0    0 -0.10192896591E+02 -0.65394387668E+02 -0.24710237234E+02  0.70646421732E+02  0.00000000000E+00 0.  1.
        -11    1    5    5    0    0 -0.25636308937E+03 -0.26646096559E+03 -0.12328928520E+03  0.38977394426E+03  0.00000000000E+00 0. -1.
          2    1    6    6  503    0 -0.42367682572E+02  0.13136070390E+03 -0.11030414433E+03  0.17668519834E+03  0.00000000000E+00 0.  1.
         -2    1    6    6    0  503  0.11668843279E+02  0.34527650336E+03 -0.39054728202E+03  0.52142037280E+03  0.00000000000E+00 0. -1.
<mgrwt>
<rscale>  0 0.13230006E+04</rscale>
<asrwt>0</asrwt>
<pdfrwt beam="1">  1        2 0.21194435E+00 0.13230006E+04</pdfrwt>
<pdfrwt beam="2">  1       -1 0.48866534E-01 0.13230006E+04</pdfrwt>
<totfact> 0.69684984E+01</totfact>
</mgrwt>
</event>
<event>
12    6  0.1538774E-007  0.1286253E+04  0.7818608E-02  0.9040538E-01
          2   -1    0    0  501    0  0.00000000000E+00  0.00000000000E+00  0.37958447278E+03  0.37958447278E+03  0.00000000000E+00 0. -1.
         -1   -1    0    0    0  501 -0.00000000000E+00 -0.00000000000E+00 -0.10896439761E+04  0.10896439761E+04  0.00000000000E+00 0.  1.
         24    2    1    2    0    0 -0.40382609238E+02  0.59094411446E+02  0.18246662303E+03  0.21171578586E+03  0.80041244797E+02 0.  0.
        254    2    1    2    0    0  0.40382609238E+02 -0.59094411446E+02 -0.89252612637E+03  0.12575126630E+04  0.88295657132E+03 0.  0.
         23    2    4    4    0    0 -0.13693046844E+02  0.39553838164E+03 -0.30940913971E+03  0.51062764903E+03  0.91479338288E+02 0.  0.
         23    2    4    4    0    0  0.54075656082E+02 -0.45463279309E+03 -0.58311698666E+03  0.74688501401E+03  0.90535357097E+02 0.  0.
          4    1    3    3  502    0 -0.52172615312E+02  0.66254710676E+02  0.17841145838E+03  0.19733807781E+03  0.00000000000E+00 0. -1.
         -3    1    3    3    0  502  0.11790006073E+02 -0.71602992305E+01  0.40551646557E+01  0.14377708046E+02  0.00000000000E+00 0.  1.
         11    1    5    5    0    0  0.30435651722E+02  0.26800221090E+03 -0.18495174517E+03  0.32704535157E+03  0.00000000000E+00 0. -1.
        -11    1    5    5    0    0 -0.44128698566E+02  0.12753617074E+03 -0.12445739453E+03  0.18358229745E+03  0.00000000000E+00 0.  1.
          3    1    6    6  503    0  0.33838134096E+02 -0.43406849844E+03 -0.56301440423E+03  0.71172024000E+03  0.00000000000E+00 0. -1.
         -3    1    6    6    0  503  0.20237521986E+02 -0.20564294642E+02 -0.20102582432E+02  0.35164774003E+02  0.00000000000E+00 0.  1.
<mgrwt>
<rscale>  0 0.12862534E+04</rscale>
<asrwt>0</asrwt>
<pdfrwt beam="1">  1        2 0.58397612E-01 0.12862534E+04</pdfrwt>
<pdfrwt beam="2">  1       -1 0.16763753E+00 0.12862534E+04</pdfrwt>
<totfact> 0.24265077E+01</totfact>
</mgrwt>
</event>
<event>
12    6  0.1538774E-007  0.1211343E+04  0.7818608E-02  0.9102986E-01
          2   -1    0    0  501    0  0.00000000000E+00  0.00000000000E+00  0.13525165602E+04  0.13525165602E+04  0.00000000000E+00 0. -1.
         -1   -1    0    0    0  501 -0.00000000000E+00 -0.00000000000E+00 -0.27122609871E+03  0.27122609871E+03  0.00000000000E+00 0.  1.
         24    2    1    2    0    0 -0.91272741847E+02 -0.73166279116E+02  0.55189013808E+03  0.56971356195E+03  0.79415365980E+02 0.  0.
        254    2    1    2    0    0  0.91272741847E+02  0.73166279116E+02  0.52940032339E+03  0.10540290969E+04  0.90389635300E+03 0.  0.
         23    2    4    4    0    0 -0.21584075699E+03 -0.11540594614E+03 -0.13347516926E+03  0.29406375180E+03  0.93552683177E+02 0.  0.
         23    2    4    4    0    0  0.30711349884E+03  0.18857222525E+03  0.66287549265E+03  0.75996534514E+03  0.90913264970E+02 0.  0.
          4    1    3    3  502    0 -0.93960795229E+02 -0.67264457959E+02  0.36816097822E+03  0.38586998358E+03  0.00000000000E+00 0. -1.
         -3    1    3    3    0  502  0.26880533828E+01 -0.59018211572E+01  0.18372915987E+03  0.18384357838E+03  0.00000000000E+00 0.  1.
         11    1    5    5    0    0 -0.28992539727E+02 -0.38520403768E+02 -0.64581371268E+02  0.80592446179E+02  0.00000000000E+00 0.  1.
        -11    1    5    5    0    0 -0.18684821727E+03 -0.76885542369E+02 -0.68893797989E+02  0.21347130562E+03  0.00000000000E+00 0. -1.
          4    1    6    6  503    0  0.17570107133E+03  0.54801286182E+02  0.33746295004E+03  0.38438950309E+03  0.00000000000E+00 0. -1.
         -4    1    6    6    0  503  0.13141242751E+03  0.13377093907E+03  0.32541254261E+03  0.37557584205E+03  0.00000000000E+00 0.  1.
<mgrwt>
<rscale>  0 0.12113427E+04</rscale>
<asrwt>0</asrwt>
<pdfrwt beam="1">  1        2 0.20807947E+00 0.12113427E+04</pdfrwt>
<pdfrwt beam="2">  1       -1 0.41727093E-01 0.12113427E+04</pdfrwt>
<totfact> 0.97533563E+01</totfact>
</mgrwt>
</event>
<event>
12    6  0.1538774E-007  0.2581743E+04  0.7818608E-02  0.8374429E-01
         -1   -1    0    0    0  501 -0.00000000000E+00  0.00000000000E+00  0.84638694967E+03  0.84638694967E+03  0.00000000000E+00 0.  1.
          2   -1    0    0  501    0  0.00000000000E+00 -0.00000000000E+00 -0.19687789173E+04  0.19687789173E+04  0.00000000000E+00 0. -1.
         24    2    1    2    0    0 -0.48158257972E+03  0.31109066300E+02 -0.16045890509E+04  0.16775255381E+04  0.80599959473E+02 0.  0.
        254    2    1    2    0    0  0.48158257972E+03 -0.31109066300E+02  0.48219708332E+03  0.11376403289E+04  0.91039658150E+03 0.  0.
         23    2    4    4    0    0 -0.25561866653E+03  0.69526174320E+02  0.15535677475E+03  0.32055705448E+03  0.91903787309E+02 0.  0.
         23    2    4    4    0    0  0.73720124625E+03 -0.10063524062E+03  0.32684030857E+03  0.81708327439E+03  0.84896176956E+02 0.  0.
          2    1    3    3  502    0 -0.33825402802E+03  0.56803650124E+02 -0.10854499584E+04  0.11383514634E+04  0.00000000000E+00 0. -1.
         -3    1    3    3    0  502 -0.14332855171E+03 -0.25694583824E+02 -0.51913909250E+03  0.53917407462E+03  0.00000000000E+00 0.  1.
         11    1    5    5    0    0 -0.17990810629E+03  0.41324476268E+01  0.10795650622E+03  0.20985378497E+03  0.00000000000E+00 0.  1.
        -11    1    5    5    0    0 -0.75710560233E+02  0.65393726693E+02  0.47400268536E+02  0.11070326950E+03  0.00000000000E+00 0. -1.
          2    1    6    6  503    0  0.18339171023E+03 -0.62468390888E+02  0.85718487845E+02  0.21185485220E+03  0.00000000000E+00 0. -1.
         -2    1    6    6    0  503  0.55380953602E+03 -0.38166849732E+02  0.24112182072E+03  0.60522842219E+03  0.00000000000E+00 0.  1.
<mgrwt>
<rscale>  0 0.25817427E+04</rscale>
<asrwt>0</asrwt>
<pdfrwt beam="1">  1        2 0.30288906E+00 0.25817427E+04</pdfrwt>
<pdfrwt beam="2">  1       -1 0.13021338E+00 0.25817427E+04</pdfrwt>
<totfact> 0.35400528E+00</totfact>
</mgrwt>
</event>
<event>
12    6  0.1538774E-007  0.1548473E+04  0.7818608E-02  0.8852844E-01
          2   -1    0    0  501    0  0.00000000000E+00  0.00000000000E+00  0.12921985046E+04  0.12921985046E+04  0.00000000000E+00 0. -1.
         -1   -1    0    0    0  501 -0.00000000000E+00 -0.00000000000E+00 -0.46389306914E+03  0.46389306914E+03  0.00000000000E+00 0.  1.
         24    2    1    2    0    0  0.35212566001E+03 -0.92248696827E+02 -0.12672436927E+03  0.39319299775E+03  0.77713352829E+02 0.  0.
        254    2    1    2    0    0 -0.35212566001E+03  0.92248696827E+02  0.95502980473E+03  0.13628985760E+04  0.90161427340E+03 0.  0.
         23    2    4    4    0    0 -0.41002022464E+03  0.26022124521E+03  0.10362333863E+04  0.11480602730E+04  0.91820904604E+02 0.  0.
         23    2    4    4    0    0  0.57894564631E+02 -0.16797254838E+03 -0.81203581550E+02  0.21483830299E+03  0.89414300604E+02 0.  0.
          2    1    3    3  502    0  0.20449392593E+03 -0.49175586701E+02 -0.32456173055E+02  0.21281308051E+03  0.00000000000E+00 0. -1.
         -1    1    3    3    0  502  0.14763173409E+03 -0.43073110126E+02 -0.94268196213E+02  0.18037991724E+03  0.00000000000E+00 0.  1.
         11    1    5    5    0    0 -0.19262110434E+03  0.88417266640E+02  0.36825642823E+03  0.42489210373E+03  0.00000000000E+00 0. -1.
        -11    1    5    5    0    0 -0.21739912030E+03  0.17180397857E+03  0.66797695805E+03  0.72316816927E+03  0.00000000000E+00 0.  1.
          4    1    6    6  503    0  0.56333816851E+02 -0.42885559332E+02 -0.47577062240E+02  0.85300920110E+02  0.00000000000E+00 0. -1.
         -4    1    6    6    0  503  0.15607477796E+01 -0.12508698905E+03 -0.33626519310E+02  0.12953738288E+03  0.00000000000E+00 0.  1.
<mgrwt>
<rscale>  0 0.15484727E+04</rscale>
<asrwt>0</asrwt>
<pdfrwt beam="1">  1        2 0.19879977E+00 0.15484727E+04</pdfrwt>
<pdfrwt beam="2">  1       -1 0.71368165E-01 0.15484727E+04</pdfrwt>
<totfact> 0.36348426E+01</totfact>
</mgrwt>
</event>
<event>
12    6  0.1538774E-007  0.2346532E+04  0.7818608E-02  0.8459797E-01
          2   -1    0    0  501    0  0.00000000000E+00  0.00000000000E+00  0.13130346072E+04  0.13130346072E+04  0.00000000000E+00 0. -1.
         -1   -1    0    0    0  501 -0.00000000000E+00 -0.00000000000E+00 -0.10483750593E+04  0.10483750593E+04  0.00000000000E+00 0.  1.
         24    2    1    2    0    0  0.97083019897E+03 -0.21475054294E+03  0.15182395726E+03  0.10105608114E+04  0.97742358776E+02 0.  0.
        254    2    1    2    0    0 -0.97083019897E+03  0.21475054294E+03  0.11283559062E+03  0.13508488550E+04  0.90743136797E+03 0.  0.
         23    2    4    4    0    0 -0.74217250776E+03  0.55028941699E+03  0.45247416739E+02  0.92947135258E+03  0.90725921391E+02 0.  0.
         23    2    4    4    0    0 -0.22865769121E+03 -0.33553887405E+03  0.67588173880E+02  0.42137750240E+03  0.90111944480E+02 0.  0.
          2    1    3    3  502    0  0.64475922248E+03 -0.96777543881E+02  0.11187954215E+03  0.66151143597E+03  0.00000000000E+00 0. -1.
         -1    1    3    3    0  502  0.32607097649E+03 -0.11797299906E+03  0.39944415111E+02  0.34904937547E+03  0.00000000000E+00 0.  1.
         11    1    5    5    0    0 -0.45117338424E+02  0.46084317521E+02  0.24305072501E+02  0.68920788570E+02  0.00000000000E+00 0. -1.
        -11    1    5    5    0    0 -0.69705516934E+03  0.50420509947E+03  0.20942344238E+02  0.86055056401E+03  0.00000000000E+00 0.  1.
          3    1    6    6  503    0 -0.71716886339E+02 -0.10806324892E+03 -0.20524202995E+02  0.13130963583E+03  0.00000000000E+00 0. -1.
         -3    1    6    6    0  503 -0.15694080487E+03 -0.22747562513E+03  0.88112376875E+02  0.29006786657E+03  0.00000000000E+00 0.  1.
<mgrwt>
<rscale>  0 0.23465317E+04</rscale>
<asrwt>0</asrwt>
<pdfrwt beam="1">  1        2 0.20200532E+00 0.23465317E+04</pdfrwt>
<pdfrwt beam="2">  1       -1 0.16128847E+00 0.23465317E+04</pdfrwt>
<totfact> 0.47778592E+00</totfact>
</mgrwt>
</event>
<event>
12    6  0.1538774E-007  0.1324937E+04  0.7818608E-02  0.9010020E-01
         -1   -1    0    0    0  501 -0.00000000000E+00  0.00000000000E+00  0.44885772798E+03  0.44885772798E+03  0.00000000000E+00 0.  1.
          2   -1    0    0  501    0  0.00000000000E+00 -0.00000000000E+00 -0.97773631905E+03  0.97773631905E+03  0.00000000000E+00 0. -1.
         24    2    1    2    0    0  0.13594867063E+03 -0.12557922874E+02  0.22046255092E+03  0.27204995828E+03  0.82266037760E+02 0.  0.
        254    2    1    2    0    0 -0.13594867063E+03  0.12557922874E+02 -0.74934114199E+03  0.11545440888E+04  0.86765209809E+03 0.  0.
         23    2    4    4    0    0 -0.38444425029E+03  0.20621362362E+03 -0.68966453974E+03  0.82121359501E+03  0.91832189882E+02 0.  0.
         23    2    4    4    0    0  0.24849557966E+03 -0.19365570074E+03 -0.59676602253E+02  0.33333049375E+03  0.91078744292E+02 0.  0.
          2    1    3    3  502    0  0.73056608501E+01 -0.22433523019E+02  0.10981049095E+02  0.26023433185E+02  0.00000000000E+00 0. -1.
         -3    1    3    3    0  502  0.12864300978E+03  0.98756001445E+01  0.20948150183E+03  0.24602652510E+03  0.00000000000E+00 0.  1.
         11    1    5    5    0    0 -0.23944168187E+03  0.14147554995E+03 -0.35659091672E+03  0.45222199431E+03  0.00000000000E+00 0. -1.
        -11    1    5    5    0    0 -0.14500256842E+03  0.64738073666E+02 -0.33307362302E+03  0.36899160070E+03  0.00000000000E+00 0.  1.
          1    1    6    6  503    0  0.15609277163E+03 -0.13541091928E+03 -0.81161568787E+02  0.22200961840E+03  0.00000000000E+00 0. -1.
         -1    1    6    6    0  503  0.92402808037E+02 -0.58244781467E+02  0.21484966534E+02  0.11132087535E+03  0.00000000000E+00 0.  1.
<mgrwt>
<rscale>  0 0.13249370E+04</rscale>
<asrwt>0</asrwt>
<pdfrwt beam="1">  1        2 0.15042097E+00 0.13249370E+04</pdfrwt>
<pdfrwt beam="2">  1       -1 0.69055035E-01 0.13249370E+04</pdfrwt>
<totfact> 0.61683320E+01</totfact>
</mgrwt>
</event>
<event>
12    6  0.1538774E-007  0.1930838E+04  0.7818608E-02  0.8639657E-01
         -1   -1    0    0    0  501 -0.00000000000E+00  0.00000000000E+00  0.82933626334E+03  0.82933626334E+03  0.00000000000E+00 0.  1.
          2   -1    0    0  501    0  0.00000000000E+00 -0.00000000000E+00 -0.11238312329E+04  0.11238312329E+04  0.00000000000E+00 0. -1.
         24    2    1    2    0    0  0.54791426003E+03  0.19300316364E+03  0.37892666573E+03  0.69805672761E+03  0.78977967981E+02 0.  0.
        254    2    1    2    0    0 -0.54791426003E+03 -0.19300316364E+03 -0.67342163528E+03  0.12551107686E+04  0.88563315494E+03 0.  0.
         23    2    4    4    0    0  0.66953907259E+02  0.34847863986E+02  0.15492322638E+03  0.19468859899E+03  0.90582808432E+02 0.  0.
         23    2    4    4    0    0 -0.61486816729E+03 -0.22785102763E+03 -0.82834486166E+03  0.10604221696E+04  0.91438580915E+02 0.  0.
          4    1    3    3  502    0  0.47642408718E+02  0.38403188112E+02  0.55463851968E+02  0.82588394104E+02  0.00000000000E+00 0. -1.
         -3    1    3    3    0  502  0.50027185132E+03  0.15459997553E+03  0.32346281377E+03  0.61546833350E+03  0.00000000000E+00 0.  1.
         11    1    5    5    0    0  0.42235143914E+02  0.21490133649E+01  0.14697024453E+03  0.15293357518E+03  0.00000000000E+00 0.  1.
        -11    1    5    5    0    0  0.24718763345E+02  0.32698850621E+02  0.79529818505E+01  0.41755023812E+02  0.00000000000E+00 0. -1.
          4    1    6    6  503    0 -0.52464456760E+03 -0.21675895620E+03 -0.67299691985E+03  0.88043240600E+03  0.00000000000E+00 0.  1.
         -4    1    6    6    0  503 -0.90223599694E+02 -0.11092071425E+02 -0.15534794181E+03  0.17998976364E+03  0.00000000000E+00 0. -1.
<mgrwt>
<rscale>  0 0.19308382E+04</rscale>
<asrwt>0</asrwt>
<pdfrwt beam="1">  1        2 0.17289711E+00 0.19308382E+04</pdfrwt>
<pdfrwt beam="2">  1       -1 0.12759019E+00 0.19308382E+04</pdfrwt>
<totfact> 0.11931607E+01</totfact>
</mgrwt>
</event>
<event>
12    6  0.1538774E-007  0.1858032E+04  0.7818608E-02  0.8676033E-01
          2   -1    0    0  501    0  0.00000000000E+00  0.00000000000E+00  0.10939089411E+04  0.10939089411E+04  0.00000000000E+00 0. -1.
         -1   -1    0    0    0  501 -0.00000000000E+00 -0.00000000000E+00 -0.78897885217E+03  0.78897885217E+03  0.00000000000E+00 0.  1.
         24    2    1    2    0    0 -0.68756384549E+03 -0.13965774871E+03  0.15597804478E+03  0.72305025975E+03  0.78893594669E+02 0.  0.
        254    2    1    2    0    0  0.68756384549E+03  0.13965774871E+03  0.14895204414E+03  0.11598375335E+04  0.91147576176E+03 0.  0.
         23    2    4    4    0    0  0.79364906476E+03 -0.15817038420E+03  0.16484033217E+03  0.83089267444E+03  0.91178906042E+02 0.  0.
         23    2    4    4    0    0 -0.10608521927E+03  0.29782813290E+03 -0.15888288033E+02  0.32894485906E+03  0.89423778203E+02 0.  0.
          4    1    3    3  502    0 -0.72334043381E+02 -0.22048994651E+02 -0.66519044173E+01  0.75911921523E+02  0.00000000000E+00 0. -1.
         -3    1    3    3    0  502 -0.61522980211E+03 -0.11760875405E+03  0.16262994920E+03  0.64713833823E+03  0.00000000000E+00 0.  1.
         11    1    5    5    0    0  0.24810201246E+03 -0.81836413232E+02  0.24250488972E+02  0.26237357591E+03  0.00000000000E+00 0. -1.
        -11    1    5    5    0    0  0.54554705229E+03 -0.76333970965E+02  0.14058984320E+03  0.56851909854E+03  0.00000000000E+00 0.  1.
          1    1    6    6  503    0 -0.13034235047E+02  0.16896455213E+03 -0.32835689710E+01  0.16949835688E+03  0.00000000000E+00 0. -1.
         -1    1    6    6    0  503 -0.93050984221E+02  0.12886358077E+03 -0.12604719062E+02  0.15944650218E+03  0.00000000000E+00 0.  1.
<mgrwt>
<rscale>  0 0.18580323E+04</rscale>
<asrwt>0</asrwt>
<pdfrwt beam="1">  1        2 0.16829368E+00 0.18580323E+04</pdfrwt>
<pdfrwt beam="2">  1       -1 0.12138136E+00 0.18580323E+04</pdfrwt>
<totfact> 0.14178332E+01</totfact>
</mgrwt>
</event>
<event>
12    6  0.1538774E-007  0.2247925E+04  0.7818608E-02  0.8498741E-01
          2   -1    0    0  501    0  0.00000000000E+00  0.00000000000E+00  0.18046803622E+04  0.18046803622E+04  0.00000000000E+00 0. -1.
         -1   -1    0    0    0  501 -0.00000000000E+00 -0.00000000000E+00 -0.70000838528E+03  0.70000838528E+03  0.00000000000E+00 0.  1.
         24    2    1    2    0    0  0.63675991547E+03 -0.61975616823E+03  0.11005795467E+03  0.89911325314E+03  0.82042614310E+02 0.  0.
        254    2    1    2    0    0 -0.63675991547E+03  0.61975616823E+03  0.99461402227E+03  0.16055754944E+04  0.89389860542E+03 0.  0.
         23    2    4    4    0    0  0.18719528983E+03  0.63046968299E+01  0.28557205018E+03  0.35414283928E+03  0.93722617520E+02 0.  0.
         23    2    4    4    0    0 -0.82395520530E+03  0.61345147140E+03  0.70904197209E+03  0.12514326551E+04  0.90101519969E+02 0.  0.
          2    1    3    3  502    0  0.30370588841E+03 -0.27954492491E+03  0.11573832754E+02  0.41293653908E+03  0.00000000000E+00 0. -1.
         -1    1    3    3    0  502  0.33305402706E+03 -0.34021124332E+03  0.98484121918E+02  0.48617671406E+03  0.00000000000E+00 0.  1.
         11    1    5    5    0    0  0.62639160793E+02  0.44989171165E+02  0.12975904806E+03  0.15094734361E+03  0.00000000000E+00 0.  1.
        -11    1    5    5    0    0  0.12455612904E+03 -0.38684474335E+02  0.15581300211E+03  0.20319549567E+03  0.00000000000E+00 0. -1.
          2    1    6    6  503    0 -0.40318120910E+03  0.35574959184E+03  0.36217798714E+03  0.64829449622E+03  0.00000000000E+00 0. -1.
         -2    1    6    6    0  503 -0.42077399621E+03  0.25770187956E+03  0.34686398495E+03  0.60313815886E+03  0.00000000000E+00 0.  1.
<mgrwt>
<rscale>  0 0.22479247E+04</rscale>
<asrwt>0</asrwt>
<pdfrwt beam="1">  1        2 0.27764313E+00 0.22479247E+04</pdfrwt>
<pdfrwt beam="2">  1       -1 0.10769360E+00 0.22479247E+04</pdfrwt>
<totfact> 0.71331061E+00</totfact>
</mgrwt>
</event>
<event>
12    6  0.1538774E-007  0.1329598E+04  0.7818608E-02  0.9006418E-01
          2   -1    0    0  501    0  0.00000000000E+00  0.00000000000E+00  0.34579327332E+04  0.34579327332E+04  0.00000000000E+00 0. -1.
         -1   -1    0    0    0  501 -0.00000000000E+00 -0.00000000000E+00 -0.12780972996E+03  0.12780972996E+03  0.00000000000E+00 0.  1.
         24    2    1    2    0    0  0.26233043557E+03  0.19280997719E+03  0.12998577925E+04  0.13425505593E+04  0.82575897699E+02 0.  0.
        254    2    1    2    0    0 -0.26233043557E+03 -0.19280997719E+03  0.20302652107E+04  0.22431919038E+04  0.89662709457E+03 0.  0.
         23    2    4    4    0    0 -0.92439846526E-01 -0.51795848447E+03  0.10994157049E+04  0.12187969155E+04  0.92032759786E+02 0.  0.
         23    2    4    4    0    0 -0.26223799572E+03  0.32514850728E+03  0.93084950575E+03  0.10243949882E+04  0.91727702475E+02 0.  0.
          2    1    3    3  502    0  0.17746102741E+03  0.15146883668E+03  0.10460823537E+04  0.10717852002E+04  0.00000000000E+00 0. -1.
         -1    1    3    3    0  502  0.84869408161E+02  0.41341140514E+02  0.25377543884E+03  0.27076535912E+03  0.00000000000E+00 0.  1.
         11    1    5    5    0    0  0.29269652718E+02 -0.45239734776E+03  0.97210732928E+03  0.10726195656E+04  0.00000000000E+00 0. -1.
        -11    1    5    5    0    0 -0.29362092565E+02 -0.65561136709E+02  0.12730837566E+03  0.14617734995E+03  0.00000000000E+00 0.  1.
          1    1    6    6  503    0 -0.18417172776E+03  0.16554017212E+03  0.48810800992E+03  0.54733189496E+03  0.00000000000E+00 0. -1.
         -1    1    6    6    0  503 -0.78066267961E+02  0.15960833516E+03  0.44274149583E+03  0.47706309329E+03  0.00000000000E+00 0.  1.
<mgrwt>
<rscale>  0 0.13295976E+04</rscale>
<asrwt>0</asrwt>
<pdfrwt beam="1">  1        2 0.53198958E+00 0.13295976E+04</pdfrwt>
<pdfrwt beam="2">  1       -1 0.19663038E-01 0.13295976E+04</pdfrwt>
<totfact> 0.20779368E+01</totfact>
</mgrwt>
</event>
<event>
12    6  0.1538774E-007  0.1326764E+04  0.7818608E-02  0.9008606E-01
          2   -1    0    0  501    0  0.00000000000E+00  0.00000000000E+00  0.62455507225E+03  0.62455507225E+03  0.00000000000E+00 0. -1.
         -1   -1    0    0    0  501 -0.00000000000E+00 -0.00000000000E+00 -0.70462274930E+03  0.70462274930E+03  0.00000000000E+00 0.  1.
         24    2    1    2    0    0  0.17477115003E+03 -0.27528964323E+03 -0.14694704697E+03  0.36640706775E+03  0.79569856941E+02 0.  0.
        254    2    1    2    0    0 -0.17477115003E+03  0.27528964323E+03  0.66879369922E+02  0.96277075379E+03  0.90339655284E+03 0.  0.
         23    2    4    4    0    0  0.19573625925E+02 -0.21776055945E+03 -0.24525966438E+03  0.34076676768E+03  0.90370896287E+02 0.  0.
         23    2    4    4    0    0 -0.19434477596E+03  0.49305020268E+03  0.31213903430E+03  0.62200398611E+03  0.92681107562E+02 0.  0.
          2    1    3    3  502    0  0.10884607350E+01 -0.43833120586E+02 -0.51179973820E+01  0.44144321314E+02  0.00000000000E+00 0. -1.
         -1    1    3    3    0  502  0.17368268930E+03 -0.23145652264E+03 -0.14182904959E+03  0.32226274644E+03  0.00000000000E+00 0.  1.
         11    1    5    5    0    0  0.66855648443E+01 -0.11504741567E+03 -0.63455852801E+02  0.13155702142E+03  0.00000000000E+00 0. -1.
        -11    1    5    5    0    0  0.12888061081E+02 -0.10271314378E+03 -0.18180381158E+03  0.20920974625E+03  0.00000000000E+00 0.  1.
          4    1    6    6  503    0 -0.77603514609E+02  0.13143767808E+03  0.50993615074E+02  0.16093016335E+03  0.00000000000E+00 0. -1.
         -4    1    6    6    0  503 -0.11674126135E+03  0.36161252460E+03  0.26114541923E+03  0.46107382276E+03  0.00000000000E+00 0.  1.
<mgrwt>
<rscale>  0 0.13267641E+04</rscale>
<asrwt>0</asrwt>
<pdfrwt beam="1">  1        2 0.96085396E-01 0.13267641E+04</pdfrwt>
<pdfrwt beam="2">  1       -1 0.10840350E+00 0.13267641E+04</pdfrwt>
<totfact> 0.41732223E+01</totfact>
</mgrwt>
</event>
<event>
12    6  0.1538774E-007  0.1831453E+04  0.7818608E-02  0.8689750E-01
         -1   -1    0    0    0  501 -0.00000000000E+00  0.00000000000E+00  0.92383923735E+03  0.92383923735E+03  0.00000000000E+00 0.  1.
          2   -1    0    0  501    0  0.00000000000E+00 -0.00000000000E+00 -0.90768471788E+03  0.90768471788E+03  0.00000000000E+00 0. -1.
         24    2    1    2    0    0  0.35771016392E+03  0.46834247032E+03  0.38142613090E+03  0.70646589636E+03  0.79416235851E+02 0.  0.
        254    2    1    2    0    0 -0.35771016392E+03 -0.46834247032E+03 -0.36527161143E+03  0.11250580589E+04  0.88601978242E+03 0.  0.
         23    2    4    4    0    0  0.26615675706E+03 -0.11756472201E+03 -0.24884503683E+03  0.39429535995E+03  0.94255479041E+02 0.  0.
         23    2    4    4    0    0 -0.62386692098E+03 -0.35077774831E+03 -0.11642657459E+03  0.73076269892E+03  0.90575996091E+02 0.  0.
          4    1    3    3  502    0  0.28651745249E+02  0.14582372157E+02  0.35054546663E+02  0.47564580575E+02  0.00000000000E+00 0. -1.
         -3    1    3    3    0  502  0.32905841867E+03  0.45376009816E+03  0.34637158424E+03  0.65890131579E+03  0.00000000000E+00 0.  1.
         11    1    5    5    0    0 -0.68037644565E+01 -0.83437079918E+01 -0.33503101259E+01  0.11275338211E+02  0.00000000000E+00 0.  1.
        -11    1    5    5    0    0  0.27296052151E+03 -0.10922101402E+03 -0.24549472671E+03  0.38302002174E+03  0.00000000000E+00 0. -1.
          3    1    6    6  503    0 -0.57025836422E+03 -0.34733163899E+03 -0.10739292364E+03  0.67628922027E+03  0.00000000000E+00 0. -1.
         -3    1    6    6    0  503 -0.53608556753E+02 -0.34461093188E+01 -0.90336509551E+01  0.54473478649E+02  0.00000000000E+00 0.  1.
<mgrwt>
<rscale>  0 0.18314527E+04</rscale>
<asrwt>0</asrwt>
<pdfrwt beam="1">  1        2 0.13964380E+00 0.18314527E+04</pdfrwt>
<pdfrwt beam="2">  1       -1 0.14212911E+00 0.18314527E+04</pdfrwt>
<totfact> 0.12543714E+01</totfact>
</mgrwt>
</event>
<event>
12    6  0.1538774E-007  0.1647798E+04  0.7818608E-02  0.8791710E-01
         -1   -1    0    0    0  501 -0.00000000000E+00  0.00000000000E+00  0.25166631055E+03  0.25166631055E+03  0.00000000000E+00 0.  1.
          2   -1    0    0  501    0  0.00000000000E+00 -0.00000000000E+00 -0.26972602617E+04  0.26972602617E+04  0.00000000000E+00 0. -1.
         24    2    1    2    0    0  0.35697021528E+03 -0.44277188831E+03 -0.10980292139E+04  0.12392277867E+04  0.80886792447E+02 0.  0.
        254    2    1    2    0    0 -0.35697021528E+03  0.44277188831E+03 -0.13475647372E+04  0.17096987855E+04  0.88524829084E+03 0.  0.
         23    2    4    4    0    0 -0.37853650672E+03  0.50167833884E+03 -0.39113025189E+03  0.74675232082E+03  0.98412967294E+02 0.  0.
         23    2    4    4    0    0  0.21566291438E+02 -0.58906450531E+02 -0.95643448534E+03  0.96294646468E+03  0.92541311016E+02 0.  0.
          2    1    3    3  502    0  0.35809097985E+03 -0.42184042389E+03 -0.10634019348E+04  0.11987502525E+04  0.00000000000E+00 0. -1.
         -1    1    3    3    0  502 -0.11207645712E+01 -0.20931464415E+02 -0.34627279115E+02  0.40477534197E+02  0.00000000000E+00 0.  1.
         11    1    5    5    0    0 -0.10340848805E+03  0.10144374526E+03 -0.13340582384E+03  0.19692958815E+03  0.00000000000E+00 0.  1.
        -11    1    5    5    0    0 -0.27512801866E+03  0.40023459358E+03 -0.25772442805E+03  0.54982273268E+03  0.00000000000E+00 0. -1.
          4    1    6    6  503    0 -0.42818189767E+01  0.24226582231E+02 -0.23122352314E+03  0.23252866256E+03  0.00000000000E+00 0. -1.
         -4    1    6    6    0  503  0.25848110415E+02 -0.83133032762E+02 -0.72521096220E+03  0.73041780212E+03  0.00000000000E+00 0.  1.
<mgrwt>
<rscale>  0 0.16477980E+04</rscale>
<asrwt>0</asrwt>
<pdfrwt beam="1">  1        2 0.41496315E+00 0.16477980E+04</pdfrwt>
<pdfrwt beam="2">  1       -1 0.38717891E-01 0.16477980E+04</pdfrwt>
<totfact> 0.18804456E+01</totfact>
</mgrwt>
</event>
<event>
12    6  0.1538774E-007  0.6113618E+04  0.7818608E-02  0.7676472E-01
         -1   -1    0    0    0  501 -0.00000000000E+00  0.00000000000E+00  0.20217803510E+04  0.20217803510E+04  0.00000000000E+00 0.  1.
          2   -1    0    0  501    0  0.00000000000E+00 -0.00000000000E+00 -0.46217093206E+04  0.46217093206E+04  0.00000000000E+00 0. -1.
         24    2    1    2    0    0 -0.15746920277E+02 -0.14446409241E+04 -0.41173121391E+04  0.43641811088E+04  0.81130358345E+02 0.  0.
        254    2    1    2    0    0  0.15746920277E+02  0.14446409241E+04  0.15173831695E+04  0.22793085628E+04  0.89753020929E+03 0.  0.
         23    2    4    4    0    0  0.30546736920E+02  0.13544390022E+04  0.16201913827E+04  0.21139332450E+04  0.90859968395E+02 0.  0.
         23    2    4    4    0    0 -0.14799816643E+02  0.90201921838E+02 -0.10280821319E+03  0.16537531785E+03  0.91782600632E+02 0.  0.
          4    1    3    3  502    0 -0.81417850437E+01 -0.13925715010E+04 -0.39217830164E+04  0.41616948112E+04  0.00000000000E+00 0. -1.
         -3    1    3    3    0  502 -0.76051352332E+01 -0.52069423080E+02 -0.19552912273E+03  0.20248629765E+03  0.00000000000E+00 0.  1.
         11    1    5    5    0    0  0.23062823479E+02  0.11714075390E+04  0.14467188385E+04  0.18616452170E+04  0.00000000000E+00 0. -1.
        -11    1    5    5    0    0  0.74839134409E+01  0.18303146317E+03  0.17347254419E+03  0.25228802798E+03  0.00000000000E+00 0.  1.
          2    1    6    6  503    0  0.27807474260E+02  0.11496496383E+02 -0.57877101140E+02  0.65231770559E+02  0.00000000000E+00 0. -1.
         -2    1    6    6    0  503 -0.42607290903E+02  0.78705425455E+02 -0.44931112050E+02  0.10014354729E+03  0.00000000000E+00 0.  1.
<mgrwt>
<rscale>  0 0.61136179E+04</rscale>
<asrwt>0</asrwt>
<pdfrwt beam="1">  1        2 0.71103220E+00 0.61136179E+04</pdfrwt>
<pdfrwt beam="2">  1       -1 0.31104313E+00 0.61136179E+04</pdfrwt>
<totfact> 0.19411871E-03</totfact>
</mgrwt>
</event>
<event>
12    6  0.1538774E-007  0.2466884E+04  0.7818608E-02  0.8414879E-01
          2   -1    0    0  501    0  0.00000000000E+00  0.00000000000E+00  0.15753516359E+04  0.15753516359E+04  0.00000000000E+00 0. -1.
         -1   -1    0    0    0  501 -0.00000000000E+00 -0.00000000000E+00 -0.96573951804E+03  0.96573951804E+03  0.00000000000E+00 0.  1.
         24    2    1    2    0    0 -0.10508103714E+04  0.20534061299E+03  0.32419146692E+03  0.11211039945E+04  0.73531320827E+02 0.  0.
        254    2    1    2    0    0  0.10508103714E+04 -0.20534061299E+03  0.28542065096E+03  0.14199871595E+04  0.88799289476E+03 0.  0.
         23    2    4    4    0    0 -0.60286343453E+02  0.12448811280E+03  0.19253599695E+03  0.25364777918E+03  0.90196187972E+02 0.  0.
         23    2    4    4    0    0  0.11110967149E+04 -0.32982872578E+03  0.92884654003E+02  0.11663393803E+04  0.91635653570E+02 0.  0.
          4    1    3    3  502    0 -0.23198133842E+02  0.99529063559E+01  0.18603150855E+02  0.31357470887E+02  0.00000000000E+00 0. -1.
         -3    1    3    3    0  502 -0.10276122376E+04  0.19538770663E+03  0.30558831607E+03  0.10897465236E+04  0.00000000000E+00 0.  1.
         11    1    5    5    0    0 -0.78347993471E+02  0.76625866255E+02  0.15657179446E+03  0.19111425452E+03  0.00000000000E+00 0. -1.
        -11    1    5    5    0    0  0.18061650018E+02  0.47862246540E+02  0.35964202495E+02  0.62533524659E+02  0.00000000000E+00 0.  1.
          1    1    6    6  503    0  0.92195530453E+03 -0.28267170541E+03  0.43734162432E+02  0.96530697375E+03  0.00000000000E+00 0. -1.
         -1    1    6    6    0  503  0.18914141034E+03 -0.47157020376E+02  0.49150491570E+02  0.20103240658E+03  0.00000000000E+00 0.  1.
<mgrwt>
<rscale>  0 0.24668841E+04</rscale>
<asrwt>0</asrwt>
<pdfrwt beam="1">  1        2 0.24236179E+00 0.24668841E+04</pdfrwt>
<pdfrwt beam="2">  1       -1 0.14857531E+00 0.24668841E+04</pdfrwt>
<totfact> 0.41975740E+00</totfact>
</mgrwt>
</event>
<event>
12    6  0.1538774E-007  0.2435288E+04  0.7818608E-02  0.8426409E-01
         -1   -1    0    0    0  501 -0.00000000000E+00  0.00000000000E+00  0.15701201873E+04  0.15701201873E+04  0.00000000000E+00 0.  1.
          2   -1    0    0  501    0  0.00000000000E+00 -0.00000000000E+00 -0.94429490360E+03  0.94429490360E+03  0.00000000000E+00 0. -1.
         24    2    1    2    0    0 -0.63883434372E+03  0.62755349041E+03 -0.29970693815E+03  0.94791574508E+03  0.82385125905E+02 0.  0.
        254    2    1    2    0    0  0.63883434372E+03 -0.62755349041E+03  0.92553222183E+03  0.15664993458E+04  0.89183945007E+03 0.  0.
         23    2    4    4    0    0  0.45501665073E+02 -0.65461098430E+03  0.49326580621E+03  0.82597789821E+03  0.91336687367E+02 0.  0.
         23    2    4    4    0    0  0.59333267864E+03  0.27057493893E+02  0.43226641562E+03  0.74052144759E+03  0.93498581538E+02 0.  0.
          2    1    3    3  502    0 -0.33273828325E+03  0.33726757251E+03 -0.20110599210E+03  0.51469194735E+03  0.00000000000E+00 0. -1.
         -3    1    3    3    0  502 -0.30609606046E+03  0.29028591790E+03 -0.98600946044E+02  0.43322379773E+03  0.00000000000E+00 0.  1.
         11    1    5    5    0    0  0.66083274983E+02 -0.60225890753E+03  0.44320065784E+03  0.75067277427E+03  0.00000000000E+00 0. -1.
        -11    1    5    5    0    0 -0.20581609910E+02 -0.52352076773E+02  0.50065148378E+02  0.75305123937E+02  0.00000000000E+00 0.  1.
          1    1    6    6  503    0  0.23190364356E+03 -0.24316009340E+02  0.20516351028E+03  0.31058434306E+03  0.00000000000E+00 0. -1.
         -1    1    6    6    0  503  0.36142903509E+03  0.51373503233E+02  0.22710290534E+03  0.42993710453E+03  0.00000000000E+00 0.  1.
<mgrwt>
<rscale>  0 0.24352877E+04</rscale>
<asrwt>0</asrwt>
<pdfrwt beam="1">  1        2 0.14527614E+00 0.24352877E+04</pdfrwt>
<pdfrwt beam="2">  1       -1 0.24155695E+00 0.24352877E+04</pdfrwt>
<totfact> 0.22171768E+00</totfact>
</mgrwt>
</event>
<event>
12    6  0.1538774E-007  0.1847470E+04  0.7818608E-02  0.8681455E-01
         -1   -1    0    0    0  501 -0.00000000000E+00  0.00000000000E+00  0.59650101680E+03  0.59650101680E+03  0.00000000000E+00 0.  1.
          2   -1    0    0  501    0  0.00000000000E+00 -0.00000000000E+00 -0.14304865692E+04  0.14304865692E+04  0.00000000000E+00 0. -1.
         24    2    1    2    0    0  0.16265869927E+03  0.66901148310E+03 -0.40125524190E+03  0.80098348541E+03  0.80836611573E+02 0.  0.
        254    2    1    2    0    0 -0.16265869927E+03 -0.66901148310E+03 -0.43273031047E+03  0.12260041006E+04  0.91749458637E+03 0.  0.
         23    2    4    4    0    0 -0.47733060089E+03 -0.10871937122E+03 -0.18242708007E+03  0.53046190823E+03  0.91900991945E+02 0.  0.
         23    2    4    4    0    0  0.31467190162E+03 -0.56029211188E+03 -0.25030323040E+03  0.69554219233E+03  0.90452074913E+02 0.  0.
          2    1    3    3  502    0 -0.22227565409E+01  0.11585622201E+03 -0.60982065275E+02  0.13094432828E+03  0.00000000000E+00 0. -1.
         -1    1    3    3    0  502  0.16488145581E+03  0.55315526110E+03 -0.34027317663E+03  0.67003915713E+03  0.00000000000E+00 0.  1.
         11    1    5    5    0    0 -0.30005592007E+03 -0.26800660168E+02 -0.13111174830E+03  0.32854546275E+03  0.00000000000E+00 0. -1.
        -11    1    5    5    0    0 -0.17727468082E+03 -0.81918711055E+02 -0.51315331768E+02  0.20191644548E+03  0.00000000000E+00 0.  1.
          3    1    6    6  503    0  0.31166840206E+03 -0.55066839526E+03 -0.23069336130E+03  0.67349261416E+03  0.00000000000E+00 0. -1.
         -3    1    6    6    0  503  0.30034995575E+01 -0.96237166198E+01 -0.19609869101E+02  0.22049578167E+02  0.00000000000E+00 0.  1.
<mgrwt>
<rscale>  0 0.18474704E+04</rscale>
<asrwt>0</asrwt>
<pdfrwt beam="1">  1        2 0.22007486E+00 0.18474704E+04</pdfrwt>
<pdfrwt beam="2">  1       -1 0.91769387E-01 0.18474704E+04</pdfrwt>
<totfact> 0.17237782E+01</totfact>
</mgrwt>
</event>
<event>
12    6  0.1538774E-007  0.1712739E+04  0.7818608E-02  0.8754132E-01
          2   -1    0    0  501    0  0.00000000000E+00  0.00000000000E+00  0.10272618100E+04  0.10272618100E+04  0.00000000000E+00 0. -1.
         -1   -1    0    0    0  501 -0.00000000000E+00 -0.00000000000E+00 -0.71390661719E+03  0.71390661719E+03  0.00000000000E+00 0.  1.
         24    2    1    2    0    0  0.40897415564E+03  0.46060751266E+03  0.21742705401E+03  0.65832779310E+03  0.81864636212E+02 0.  0.
        254    2    1    2    0    0 -0.40897415564E+03 -0.46060751266E+03  0.95928138774E+02  0.10828406341E+04  0.88539397460E+03 0.  0.
         23    2    4    4    0    0 -0.14772014112E+03 -0.65802907092E+03  0.22833919490E+03  0.71793911156E+03  0.92055861950E+02 0.  0.
         23    2    4    4    0    0 -0.26125401452E+03  0.19742155825E+03 -0.13241105613E+03  0.36490152249E+03  0.91605139413E+02 0.  0.
          2    1    3    3  502    0  0.24273359371E+03  0.27530228196E+03  0.17174685198E+03  0.40522577057E+03  0.00000000000E+00 0. -1.
         -1    1    3    3    0  502  0.16624056192E+03  0.18530523070E+03  0.45680202025E+02  0.25310202254E+03  0.00000000000E+00 0.  1.
         11    1    5    5    0    0 -0.45721710935E+02 -0.31532789027E+03  0.66648451601E+02  0.32552138076E+03  0.00000000000E+00 0. -1.
        -11    1    5    5    0    0 -0.10199843018E+03 -0.34270118065E+03  0.16169074330E+03  0.39241773080E+03  0.00000000000E+00 0.  1.
          1    1    6    6  503    0 -0.12579680423E+03  0.10654695696E+03 -0.18373762804E+02  0.16587551101E+03  0.00000000000E+00 0. -1.
         -1    1    6    6    0  503 -0.13545721028E+03  0.90874601298E+02 -0.11403729333E+03  0.19902601149E+03  0.00000000000E+00 0.  1.
<mgrwt>
<rscale>  0 0.17127393E+04</rscale>
<asrwt>0</asrwt>
<pdfrwt beam="1">  1        2 0.15804028E+00 0.17127393E+04</pdfrwt>
<pdfrwt beam="2">  1       -1 0.10983179E+00 0.17127393E+04</pdfrwt>
<totfact> 0.20102548E+01</totfact>
</mgrwt>
</event>
<event>
12    6  0.1538774E-007  0.1179845E+04  0.7818608E-02  0.9130683E-01
          2   -1    0    0  501    0  0.00000000000E+00  0.00000000000E+00  0.16548814241E+04  0.16548814241E+04  0.00000000000E+00 0. -1.
         -1   -1    0    0    0  501 -0.00000000000E+00 -0.00000000000E+00 -0.21029217580E+03  0.21029217580E+03  0.00000000000E+00 0.  1.
         24    2    1    2    0    0  0.39184564080E+02 -0.15992745300E+01  0.81086543326E+03  0.81558223486E+03  0.78317579316E+02 0.  0.
        254    2    1    2    0    0 -0.39184564080E+02  0.15992745300E+01  0.63372381506E+03  0.10495913651E+04  0.83576203077E+03 0.  0.
         23    2    4    4    0    0 -0.11486356034E+03 -0.29645015397E+03 -0.96410460749E+01  0.33056051931E+03  0.90005421370E+02 0.  0.
         23    2    4    4    0    0  0.75678996256E+02  0.29804942850E+03  0.64336486113E+03  0.71903084574E+03  0.92337642809E+02 0.  0.
          2    1    3    3  502    0  0.51321543902E+02  0.39981759875E+01  0.78286328991E+03  0.78455389679E+03  0.00000000000E+00 0. -1.
         -1    1    3    3    0  502 -0.12136979822E+02 -0.55974505175E+01  0.28002143349E+02  0.31028338074E+02  0.00000000000E+00 0.  1.
         11    1    5    5    0    0 -0.84476624616E+02 -0.28187518217E+03  0.37773319087E+01  0.29428589274E+03  0.00000000000E+00 0.  1.
        -11    1    5    5    0    0 -0.30386935720E+02 -0.14574971808E+02 -0.13418377984E+02  0.36274626578E+02  0.00000000000E+00 0. -1.
          1    1    6    6  503    0  0.46831489699E+02  0.11053532703E+03  0.34664053895E+03  0.36683907942E+03  0.00000000000E+00 0. -1.
         -1    1    6    6    0  503  0.28847506557E+02  0.18751410147E+03  0.29672432219E+03  0.35219176632E+03  0.00000000000E+00 0.  1.
<mgrwt>
<rscale>  0 0.11798451E+04</rscale>
<asrwt>0</asrwt>
<pdfrwt beam="1">  1        2 0.25459713E+00 0.11798451E+04</pdfrwt>
<pdfrwt beam="2">  1       -1 0.32352643E-01 0.11798451E+04</pdfrwt>
<totfact> 0.10442643E+02</totfact>
</mgrwt>
</event>
<event>
12    6  0.1538774E-007  0.1676869E+04  0.7818608E-02  0.8774668E-01
         -1   -1    0    0    0  501 -0.00000000000E+00  0.00000000000E+00  0.52561786756E+03  0.52561786756E+03  0.00000000000E+00 0.  1.
          2   -1    0    0  501    0  0.00000000000E+00 -0.00000000000E+00 -0.13374203034E+04  0.13374203034E+04  0.00000000000E+00 0. -1.
         24    2    1    2    0    0 -0.17105049825E+02  0.53579289141E+03 -0.37875206711E+03  0.66106976962E+03  0.78698835823E+02 0.  0.
        254    2    1    2    0    0  0.17105049825E+02 -0.53579289141E+03 -0.43305036876E+03  0.12019684014E+04  0.98479886819E+03 0.  0.
         23    2    4    4    0    0  0.49977452079E+02 -0.29888692770E+03 -0.73859272397E+03  0.80338528121E+03  0.89875229532E+02 0.  0.
         23    2    4    4    0    0 -0.32872402254E+02 -0.23690596370E+03  0.30554235521E+03  0.39858312016E+03  0.91144623427E+02 0.  0.
          4    1    3    3  502    0  0.55257489959E+01  0.69081854069E+01  0.19049847346E+01  0.90490825182E+01  0.00000000000E+00 0. -1.
         -3    1    3    3    0  502 -0.22630798821E+02  0.52888470600E+03 -0.38065705184E+03  0.65202068710E+03  0.00000000000E+00 0.  1.
         11    1    5    5    0    0  0.46823522552E+02 -0.11496053298E+03 -0.21299447461E+03  0.24652588631E+03  0.00000000000E+00 0. -1.
        -11    1    5    5    0    0  0.31539295268E+01 -0.18392639472E+03 -0.52559824937E+03  0.55685939490E+03  0.00000000000E+00 0.  1.
          2    1    6    6  503    0 -0.24243224903E+01  0.49003746463E+01 -0.23120531412E+01  0.59360425318E+01  0.00000000000E+00 0. -1.
         -2    1    6    6    0  503 -0.30448079764E+02 -0.24180633835E+03  0.30785440835E+03  0.39264707763E+03  0.00000000000E+00 0.  1.
<mgrwt>
<rscale>  0 0.16768685E+04</rscale>
<asrwt>0</asrwt>
<pdfrwt beam="1">  1        2 0.20575697E+00 0.16768685E+04</pdfrwt>
<pdfrwt beam="2">  1       -1 0.80864289E-01 0.16768685E+04</pdfrwt>
<totfact> 0.26047811E+01</totfact>
</mgrwt>
</event>
<event>
12    6  0.1538774E-007  0.1368559E+04  0.7818608E-02  0.8976897E-01
         -1   -1    0    0    0  501 -0.00000000000E+00  0.00000000000E+00  0.24398544986E+03  0.24398544986E+03  0.00000000000E+00 0.  1.
          2   -1    0    0  501    0  0.00000000000E+00 -0.00000000000E+00 -0.19191237158E+04  0.19191237158E+04  0.00000000000E+00 0. -1.
         24    2    1    2    0    0 -0.27230385152E+03  0.19236575759E+03 -0.66251902992E+03  0.74645842336E+03  0.84348921493E+02 0.  0.
        254    2    1    2    0    0  0.27230385152E+03 -0.19236575759E+03 -0.10126192360E+04  0.14166507423E+04  0.93292423929E+03 0.  0.
         23    2    4    4    0    0  0.51034720850E+03  0.16654417608E+03 -0.63886921936E+03  0.83926303414E+03  0.89539517594E+02 0.  0.
         23    2    4    4    0    0 -0.23804335699E+03 -0.35890993367E+03 -0.37375001668E+03  0.57738770818E+03  0.90589791356E+02 0.  0.
          4    1    3    3  502    0 -0.15796201805E+03  0.16024991198E+03 -0.44294549074E+03  0.49682264562E+03  0.00000000000E+00 0. -1.
         -3    1    3    3    0  502 -0.11434183346E+03  0.32115845611E+02 -0.21957353918E+03  0.24963577774E+03  0.00000000000E+00 0.  1.
         11    1    5    5    0    0  0.80708893267E+01 -0.60292325301E+01 -0.28249320723E+02  0.29991915923E+02  0.00000000000E+00 0. -1.
        -11    1    5    5    0    0  0.50227631917E+03  0.17257340861E+03 -0.61061989864E+03  0.80927111821E+03  0.00000000000E+00 0.  1.
          1    1    6    6  503    0 -0.82490225892E+02 -0.15502533101E+03 -0.20718791403E+03  0.27159588057E+03  0.00000000000E+00 0. -1.
         -1    1    6    6    0  503 -0.15555313109E+03 -0.20388460266E+03 -0.16656210266E+03  0.30579182762E+03  0.00000000000E+00 0.  1.
<mgrwt>
<rscale>  0 0.13685588E+04</rscale>
<asrwt>0</asrwt>
<pdfrwt beam="1">  1        2 0.29524981E+00 0.13685588E+04</pdfrwt>
<pdfrwt beam="2">  1       -1 0.37536222E-01 0.13685588E+04</pdfrwt>
<totfact> 0.56341461E+01</totfact>
</mgrwt>
</event>
<event>
12    6  0.1538774E-007  0.2224194E+04  0.7818608E-02  0.8508425E-01
          2   -1    0    0  501    0  0.00000000000E+00  0.00000000000E+00  0.20008615903E+04  0.20008615903E+04  0.00000000000E+00 0. -1.
         -1   -1    0    0    0  501 -0.00000000000E+00 -0.00000000000E+00 -0.61811371235E+03  0.61811371235E+03  0.00000000000E+00 0.  1.
         24    2    1    2    0    0 -0.16600407081E+02  0.52357274199E+03 -0.32392485539E+03  0.62141496833E+03  0.82615139364E+02 0.  0.
        254    2    1    2    0    0  0.16600407081E+02 -0.52357274199E+03  0.17066727334E+04  0.19975603344E+04  0.89616487372E+03 0.  0.
         23    2    4    4    0    0 -0.55708579602E+02 -0.15884448512E+03  0.15837994005E+04  0.15954110256E+04  0.92632517085E+02 0.  0.
         23    2    4    4    0    0  0.72308986683E+02 -0.36472825687E+03  0.12287333289E+03  0.40214930880E+03  0.91492730377E+02 0.  0.
          2    1    3    3  502    0 -0.45911259968E+02  0.36732066155E+03 -0.20753106812E+03  0.42438361942E+03  0.00000000000E+00 0. -1.
         -1    1    3    3    0  502  0.29310852887E+02  0.15625208044E+03 -0.11639378727E+03  0.19703134891E+03  0.00000000000E+00 0.  1.
         11    1    5    5    0    0 -0.10276473566E+02  0.11716597411E+02  0.11968843089E+03  0.12069881960E+03  0.00000000000E+00 0.  1.
        -11    1    5    5    0    0 -0.45432106037E+02 -0.17056108253E+03  0.14641109696E+04  0.14747122060E+04  0.00000000000E+00 0. -1.
          3    1    6    6  503    0  0.52319154093E+02 -0.33520728050E+03  0.84216758320E+02  0.34956212204E+03  0.00000000000E+00 0. -1.
         -3    1    6    6    0  503  0.19989832591E+02 -0.29520976378E+02  0.38656574574E+02  0.52587186758E+02  0.00000000000E+00 0.  1.
<mgrwt>
<rscale>  0 0.22241942E+04</rscale>
<asrwt>0</asrwt>
<pdfrwt beam="1">  1        2 0.30782486E+00 0.22241942E+04</pdfrwt>
<pdfrwt beam="2">  1       -1 0.95094418E-01 0.22241942E+04</pdfrwt>
<totfact> 0.74027049E+00</totfact>
</mgrwt>
</event>
<event>
12    6  0.1538774E-007  0.1722876E+04  0.7818608E-02  0.8748424E-01
          2   -1    0    0  501    0  0.00000000000E+00  0.00000000000E+00  0.10677843911E+04  0.10677843911E+04  0.00000000000E+00 0. -1.
         -1   -1    0    0    0  501 -0.00000000000E+00 -0.00000000000E+00 -0.69496727349E+03  0.69496727349E+03  0.00000000000E+00 0.  1.
         24    2    1    2    0    0  0.60292620975E+03  0.11581704723E+03  0.20038761893E+03  0.64958017824E+03  0.69753905310E+02 0.  0.
        254    2    1    2    0    0 -0.60292620975E+03 -0.11581704723E+03  0.17242949864E+03  0.11131714863E+04  0.91240628181E+03 0.  0.
         23    2    4    4    0    0  0.15025532444E+03 -0.20864140392E+03 -0.11551343505E+03  0.29605428229E+03  0.90536657940E+02 0.  0.
         23    2    4    4    0    0 -0.75318153420E+03  0.92824356693E+02  0.28794293369E+03  0.81711720402E+03  0.94183901935E+02 0.  0.
          4    1    3    3  502    0  0.39239004906E+03  0.10834362828E+03  0.13898415884E+03  0.43014519502E+03  0.00000000000E+00 0. -1.
         -3    1    3    3    0  502  0.21053616069E+03  0.74734189527E+01  0.61403460094E+02  0.21943498322E+03  0.00000000000E+00 0.  1.
         11    1    5    5    0    0  0.14645361049E+03 -0.17731401216E+03 -0.12670643453E+03  0.26257082756E+03  0.00000000000E+00 0.  1.
        -11    1    5    5    0    0  0.38017139578E+01 -0.31327391760E+02  0.11192999478E+02  0.33483454733E+02  0.00000000000E+00 0. -1.
          2    1    6    6  503    0 -0.19308668284E+03  0.40729735112E+02  0.35273822702E+02  0.20046351534E+03  0.00000000000E+00 0. -1.
         -2    1    6    6    0  503 -0.56009485135E+03  0.52094621581E+02  0.25266911099E+03  0.61665368868E+03  0.00000000000E+00 0.  1.
<mgrwt>
<rscale>  0 0.17228757E+04</rscale>
<asrwt>0</asrwt>
<pdfrwt beam="1">  1        2 0.16427452E+00 0.17228757E+04</pdfrwt>
<pdfrwt beam="2">  1       -1 0.10691804E+00 0.17228757E+04</pdfrwt>
<totfact> 0.20175103E+01</totfact>
</mgrwt>
</event>
<event>
12    6  0.1538774E-007  0.2109136E+04  0.7818608E-02  0.8557230E-01
         -1   -1    0    0    0  501 -0.00000000000E+00  0.00000000000E+00  0.48210527190E+03  0.48210527190E+03  0.00000000000E+00 0.  1.
          2   -1    0    0  501    0  0.00000000000E+00 -0.00000000000E+00 -0.23067850153E+04  0.23067850153E+04  0.00000000000E+00 0. -1.
         24    2    1    2    0    0 -0.23227806490E+03 -0.37191689106E+03 -0.17222458228E+04  0.17789969471E+04  0.80151047786E+02 0.  0.
        254    2    1    2    0    0  0.23227806490E+03  0.37191689106E+03 -0.10243392065E+03  0.10098933401E+04  0.90394500775E+03 0.  0.
         23    2    4    4    0    0 -0.28676648703E+03  0.55319198881E+02  0.15688261167E+03  0.34371233897E+03  0.90723680827E+02 0.  0.
         23    2    4    4    0    0  0.51904455193E+03  0.31659769218E+03 -0.25931653232E+03  0.66618100116E+03  0.83130721099E+02 0.  0.
          4    1    3    3  502    0 -0.62743042269E+02 -0.12332932733E+03 -0.69255142110E+03  0.70623953670E+03  0.00000000000E+00 0. -1.
         -3    1    3    3    0  502 -0.16953502263E+03 -0.24858756373E+03 -0.10296944017E+04  0.10727574104E+04  0.00000000000E+00 0.  1.
         11    1    5    5    0    0 -0.17714794800E+02  0.16939327923E+02  0.42051725971E+02  0.48673426451E+02  0.00000000000E+00 0. -1.
        -11    1    5    5    0    0 -0.26905169223E+03  0.38379870958E+02  0.11483088570E+03  0.29503891252E+03  0.00000000000E+00 0.  1.
          1    1    6    6  503    0  0.18986909866E+03  0.14454960106E+03 -0.66679806466E+02  0.24777219050E+03  0.00000000000E+00 0. -1.
         -1    1    6    6    0  503  0.32917545327E+03  0.17204809111E+03 -0.19263672586E+03  0.41840881066E+03  0.00000000000E+00 0.  1.
<mgrwt>
<rscale>  0 0.21091356E+04</rscale>
<asrwt>0</asrwt>
<pdfrwt beam="1">  1        2 0.35489001E+00 0.21091356E+04</pdfrwt>
<pdfrwt beam="2">  1       -1 0.74170040E-01 0.21091356E+04</pdfrwt>
<totfact> 0.86193267E+00</totfact>
</mgrwt>
</event>
<event>
12    6  0.1538774E-007  0.1666715E+04  0.7818608E-02  0.8780579E-01
         -1   -1    0    0    0  501 -0.00000000000E+00  0.00000000000E+00  0.80233093303E+03  0.80233093303E+03  0.00000000000E+00 0.  1.
          2   -1    0    0  501    0  0.00000000000E+00 -0.00000000000E+00 -0.86558399034E+03  0.86558399034E+03  0.00000000000E+00 0. -1.
         24    2    1    2    0    0  0.31208947338E+03  0.11218547814E+03 -0.51335346093E+03  0.61636405831E+03  0.79921559255E+02 0.  0.
        254    2    1    2    0    0 -0.31208947338E+03 -0.11218547814E+03  0.45010040361E+03  0.10515508651E+04  0.89060845918E+03 0.  0.
         23    2    4    4    0    0  0.23319252879E+03 -0.12805974940E+03 -0.72555412460E+02  0.29053924460E+03  0.91491583647E+02 0.  0.
         23    2    4    4    0    0 -0.54528200217E+03  0.15874271255E+02  0.52265581607E+03  0.76101162045E+03  0.91570355463E+02 0.  0.
          2    1    3    3  502    0  0.30109367466E+03  0.10462224532E+03 -0.51177725514E+03  0.60292551282E+03  0.00000000000E+00 0. -1.
         -1    1    3    3    0  502  0.10995798723E+02  0.75632328189E+01 -0.15762057889E+01  0.13438545491E+02  0.00000000000E+00 0.  1.
         11    1    5    5    0    0  0.43879649767E+02  0.15416243157E+01 -0.38897323577E+02  0.58658350221E+02  0.00000000000E+00 0.  1.
        -11    1    5    5    0    0  0.18931287902E+03 -0.12960137371E+03 -0.33658088883E+02  0.23188089438E+03  0.00000000000E+00 0. -1.
          1    1    6    6  503    0 -0.46924642494E+03  0.11355117701E+02  0.48873430716E+03  0.67762996466E+03  0.00000000000E+00 0. -1.
         -1    1    6    6    0  503 -0.76035577236E+02  0.45191535539E+01  0.33921508914E+02  0.83381655785E+02  0.00000000000E+00 0.  1.
<mgrwt>
<rscale>  0 0.16667151E+04</rscale>
<asrwt>0</asrwt>
<pdfrwt beam="1">  1        2 0.13316677E+00 0.16667151E+04</pdfrwt>
<pdfrwt beam="2">  1       -1 0.12343553E+00 0.16667151E+04</pdfrwt>
<totfact> 0.19468263E+01</totfact>
</mgrwt>
</event>
<event>
12    6  0.1538774E-007  0.2077000E+04  0.7818608E-02  0.8571443E-01
          2   -1    0    0  501    0  0.00000000000E+00  0.00000000000E+00  0.27631923279E+04  0.27631923279E+04  0.00000000000E+00 0. -1.
         -1   -1    0    0    0  501 -0.00000000000E+00 -0.00000000000E+00 -0.39030291543E+03  0.39030291543E+03  0.00000000000E+00 0.  1.
         24    2    1    2    0    0 -0.78936230411E+03  0.22421348116E+03  0.12280550483E+04  0.14790336716E+04  0.77825881967E+02 0.  0.
        254    2    1    2    0    0  0.78936230411E+03 -0.22421348116E+03  0.11448343642E+04  0.16744615717E+04  0.90543431646E+03 0.  0.
         23    2    4    4    0    0  0.29673643352E+03 -0.41566740161E+03  0.98891650004E+03  0.11163160020E+04  0.85870090781E+02 0.  0.
         23    2    4    4    0    0  0.49262587059E+03  0.19145392044E+03  0.15591786418E+03  0.55814556975E+03  0.88776374277E+02 0.  0.
          2    1    3    3  502    0 -0.76226845879E+03  0.21110834485E+03  0.11535281084E+04  0.13986590125E+04  0.00000000000E+00 0. -1.
         -1    1    3    3    0  502 -0.27093845323E+02  0.13105136311E+02  0.74526939916E+02  0.80374659099E+02  0.00000000000E+00 0.  1.
         11    1    5    5    0    0  0.24013881038E+02 -0.45508757737E+01  0.42323512854E+02  0.48873885595E+02  0.00000000000E+00 0. -1.
        -11    1    5    5    0    0  0.27272255248E+03 -0.41111652583E+03  0.94659298719E+03  0.10674421164E+04  0.00000000000E+00 0.  1.
          4    1    6    6  503    0  0.85126183360E+02  0.68178506384E+02  0.17414293194E+02  0.11044470759E+03  0.00000000000E+00 0. -1.
         -4    1    6    6    0  503  0.40749968723E+03  0.12327541406E+03  0.13850357098E+03  0.44770086216E+03  0.00000000000E+00 0.  1.
<mgrwt>
<rscale>  0 0.20769998E+04</rscale>
<asrwt>0</asrwt>
<pdfrwt beam="1">  1        2 0.42510650E+00 0.20769998E+04</pdfrwt>
<pdfrwt beam="2">  1       -1 0.60046604E-01 0.20769998E+04</pdfrwt>
<totfact> 0.71996105E+00</totfact>
</mgrwt>
</event>
<event>
12    6  0.1538774E-007  0.1933781E+04  0.7818608E-02  0.8638222E-01
          2   -1    0    0  501    0  0.00000000000E+00  0.00000000000E+00  0.17009334792E+04  0.17009334792E+04  0.00000000000E+00 0. -1.
         -1   -1    0    0    0  501 -0.00000000000E+00 -0.00000000000E+00 -0.54962621091E+03  0.54962621091E+03  0.00000000000E+00 0.  1.
         24    2    1    2    0    0  0.44617328881E+03 -0.57781137695E+03  0.66464856224E+03  0.99047038769E+03  0.79607076428E+02 0.  0.
        254    2    1    2    0    0 -0.44617328881E+03  0.57781137695E+03  0.48665870606E+03  0.12600893024E+04  0.90446214016E+03 0.  0.
         23    2    4    4    0    0 -0.47178348177E+03  0.45578021046E+03  0.72097983580E+03  0.97934045833E+03  0.94765794287E+02 0.  0.
         23    2    4    4    0    0  0.25610192961E+02  0.12203116649E+03 -0.23432112974E+03  0.28074884412E+03  0.91466026781E+02 0.  0.
          2    1    3    3  502    0  0.29364087605E+03 -0.35703341723E+03  0.37153788454E+03  0.59307522690E+03  0.00000000000E+00 0. -1.
         -1    1    3    3    0  502  0.15253241276E+03 -0.22077795972E+03  0.29311067770E+03  0.39739516079E+03  0.00000000000E+00 0.  1.
         11    1    5    5    0    0 -0.26973489788E+03  0.29241903428E+03  0.37543482755E+03  0.54700741904E+03  0.00000000000E+00 0.  1.
        -11    1    5    5    0    0 -0.20204858389E+03  0.16336117618E+03  0.34554500825E+03  0.43233303929E+03  0.00000000000E+00 0. -1.
          1    1    6    6  503    0 -0.26584131818E+02  0.78911673777E+02 -0.98433449941E+02  0.12892987392E+03  0.00000000000E+00 0. -1.
         -1    1    6    6    0  503  0.52194324779E+02  0.43119492713E+02 -0.13588767980E+03  0.15181897020E+03  0.00000000000E+00 0.  1.
<mgrwt>
<rscale>  0 0.19337814E+04</rscale>
<asrwt>0</asrwt>
<pdfrwt beam="1">  1        2 0.26168207E+00 0.19337814E+04</pdfrwt>
<pdfrwt beam="2">  1       -1 0.84557879E-01 0.19337814E+04</pdfrwt>
<totfact> 0.14428756E+01</totfact>
</mgrwt>
</event>
<event>
12    6  0.1538774E-007  0.2369866E+04  0.7818608E-02  0.8450872E-01
         -1   -1    0    0    0  501 -0.00000000000E+00  0.00000000000E+00  0.62631215864E+03  0.62631215864E+03  0.00000000000E+00 0.  1.
          2   -1    0    0  501    0  0.00000000000E+00 -0.00000000000E+00 -0.22417990423E+04  0.22417990423E+04  0.00000000000E+00 0. -1.
         24    2    1    2    0    0 -0.48778876150E+03  0.87723723145E+03 -0.89315053390E+03  0.13459471203E+04  0.79829433324E+02 0.  0.
        254    2    1    2    0    0  0.48778876150E+03 -0.87723723145E+03 -0.72233634979E+03  0.15221640806E+04  0.88754191456E+03 0.  0.
         23    2    4    4    0    0  0.51541771234E+03 -0.18601605297E+03 -0.57716510209E+02  0.55862484326E+03  0.92049605054E+02 0.  0.
         23    2    4    4    0    0 -0.27628950841E+02 -0.69122117848E+03 -0.66461983958E+03  0.96353923739E+03  0.90212273718E+02 0.  0.
          2    1    3    3  502    0 -0.44050833915E+03  0.78783720440E+03 -0.83310741918E+03  0.12283334358E+04  0.00000000000E+00 0. -1.
         -1    1    3    3    0  502 -0.47280422352E+02  0.89400027046E+02 -0.60043114726E+02  0.11761368458E+03  0.00000000000E+00 0.  1.
         11    1    5    5    0    0  0.51415586372E+03 -0.18020790231E+03 -0.65594120082E+02  0.54875652965E+03  0.00000000000E+00 0. -1.
        -11    1    5    5    0    0  0.12618486293E+01 -0.58081506545E+01  0.78776098739E+01  0.98683136003E+01  0.00000000000E+00 0.  1.
          3    1    6    6  503    0 -0.32354904009E+02 -0.68934999401E+03 -0.64985888486E+03  0.94792764718E+03  0.00000000000E+00 0. -1.
         -3    1    6    6    0  503  0.47259531679E+01 -0.18711844665E+01 -0.14760954725E+02  0.15611590215E+02  0.00000000000E+00 0.  1.
<mgrwt>
<rscale>  0 0.23698658E+04</rscale>
<asrwt>0</asrwt>
<pdfrwt beam="1">  1        2 0.34489216E+00 0.23698658E+04</pdfrwt>
<pdfrwt beam="2">  1       -1 0.96355716E-01 0.23698658E+04</pdfrwt>
<totfact> 0.52018407E+00</totfact>
</mgrwt>
</event>
<event>
12    6  0.1538774E-007  0.1264725E+04  0.7818608E-02  0.9058016E-01
         -1   -1    0    0    0  501 -0.00000000000E+00  0.00000000000E+00  0.66747976270E+03  0.66747976270E+03  0.00000000000E+00 0.  1.
          2   -1    0    0  501    0  0.00000000000E+00 -0.00000000000E+00 -0.59909271582E+03  0.59909271582E+03  0.00000000000E+00 0. -1.
         24    2    1    2    0    0  0.19404542000E+03  0.13997639188E+02 -0.23749383505E+03  0.31724160249E+03  0.79933433185E+02 0.  0.
        254    2    1    2    0    0 -0.19404542000E+03 -0.13997639188E+02  0.30588088194E+03  0.94933087602E+03  0.87739183910E+03 0.  0.
         23    2    4    4    0    0 -0.10333057182E+03  0.42191768689E+03  0.13685011487E+03  0.46412391947E+03  0.89394167063E+02 0.  0.
         23    2    4    4    0    0 -0.90714848175E+02 -0.43591532608E+03  0.16903076707E+03  0.48520695655E+03  0.92752548654E+02 0.  0.
          4    1    3    3  502    0  0.10144461524E+03  0.30503613608E+02 -0.17416052084E+03  0.20384643098E+03  0.00000000000E+00 0. -1.
         -3    1    3    3    0  502  0.92600804758E+02 -0.16505974420E+02 -0.63333314209E+02  0.11339517151E+03  0.00000000000E+00 0.  1.
         11    1    5    5    0    0  0.11759146675E+02  0.89455359165E+01  0.41504732925E+01  0.15346874988E+02  0.00000000000E+00 0. -1.
        -11    1    5    5    0    0 -0.11508971850E+03  0.41297215097E+03  0.13269964158E+03  0.44877704449E+03  0.00000000000E+00 0.  1.
          3    1    6    6  503    0 -0.76994637865E+02 -0.15064306371E+03  0.60120338364E+02  0.17954376065E+03  0.00000000000E+00 0. -1.
         -3    1    6    6    0  503 -0.13720210309E+02 -0.28527226237E+03  0.10891042870E+03  0.30566319590E+03  0.00000000000E+00 0.  1.
<mgrwt>
<rscale>  0 0.12647249E+04</rscale>
<asrwt>0</asrwt>
<pdfrwt beam="1">  1        2 0.92168110E-01 0.12647249E+04</pdfrwt>
<pdfrwt beam="2">  1       -1 0.10268919E+00 0.12647249E+04</pdfrwt>
<totfact> 0.50047193E+01</totfact>
</mgrwt>
</event>
<event>
12    6  0.1538774E-007  0.1644308E+04  0.7818608E-02  0.8793781E-01
          2   -1    0    0  501    0  0.00000000000E+00  0.00000000000E+00  0.11243786927E+04  0.11243786927E+04  0.00000000000E+00 0. -1.
         -1   -1    0    0    0  501 -0.00000000000E+00 -0.00000000000E+00 -0.60116516532E+03  0.60116516532E+03  0.00000000000E+00 0.  1.
         24    2    1    2    0    0 -0.47083267218E+03 -0.23251464637E+02  0.54344420787E+03  0.72376547118E+03  0.79251589322E+02 0.  0.
        254    2    1    2    0    0  0.47083267218E+03  0.23251464637E+02 -0.20230680484E+02  0.10017783868E+04  0.88370052626E+03 0.  0.
         23    2    4    4    0    0  0.64664222369E+03 -0.21737470344E+03 -0.15865379911E+02  0.68807521012E+03  0.88305477443E+02 0.  0.
         23    2    4    4    0    0 -0.17580955152E+03  0.24062616807E+03 -0.43653005728E+01  0.31370317673E+03  0.97880928038E+02 0.  0.
          4    1    3    3  502    0 -0.34216809289E+03  0.46400299357E+01  0.43317545136E+03  0.55203397118E+03  0.00000000000E+00 0. -1.
         -3    1    3    3    0  502 -0.12866457928E+03 -0.27891494572E+02  0.11026875651E+03  0.17173150000E+03  0.00000000000E+00 0.  1.
         11    1    5    5    0    0  0.42062445997E+03 -0.18521624316E+03 -0.11003870355E+02  0.45972935323E+03  0.00000000000E+00 0.  1.
        -11    1    5    5    0    0  0.22601776372E+03 -0.32158460276E+02 -0.48615095558E+01  0.22834585689E+03  0.00000000000E+00 0. -1.
          2    1    6    6  503    0 -0.15620446076E+03  0.22362019370E+03 -0.33340444091E+02  0.27480431184E+03  0.00000000000E+00 0.  1.
         -2    1    6    6    0  503 -0.19605090750E+02  0.17005974377E+02  0.28975143518E+02  0.38898864890E+02  0.00000000000E+00 0. -1.
<mgrwt>
<rscale>  0 0.16443081E+04</rscale>
<asrwt>0</asrwt>
<pdfrwt beam="1">  1        2 0.17298134E+00 0.16443081E+04</pdfrwt>
<pdfrwt beam="2">  1       -1 0.92486949E-01 0.16443081E+04</pdfrwt>
<totfact> 0.26087047E+01</totfact>
</mgrwt>
</event>
<event>
12    6  0.1538774E-007  0.1952552E+04  0.7818608E-02  0.8629131E-01
         -1   -1    0    0    0  501 -0.00000000000E+00  0.00000000000E+00  0.11251108311E+04  0.11251108311E+04  0.00000000000E+00 0.  1.
          2   -1    0    0  501    0  0.00000000000E+00 -0.00000000000E+00 -0.84713013079E+03  0.84713013079E+03  0.00000000000E+00 0. -1.
         24    2    1    2    0    0 -0.23462007538E+03  0.66678107311E+03 -0.18703834617E+03  0.73535171301E+03  0.78199869917E+02 0.  0.
        254    2    1    2    0    0  0.23462007538E+03 -0.66678107311E+03  0.46501904650E+03  0.12368892489E+04  0.90222431868E+03 0.  0.
         23    2    4    4    0    0 -0.64532583454E+02  0.19445774071E+03  0.42627393351E+02  0.22829133839E+03  0.91222657663E+02 0.  0.
         23    2    4    4    0    0  0.29915265883E+03 -0.86123881382E+03  0.42239165315E+03  0.10085979105E+04  0.87352325203E+02 0.  0.
          2    1    3    3  502    0 -0.65593404540E+02  0.15842425700E+03 -0.79249989658E+02  0.18889494643E+03  0.00000000000E+00 0. -1.
         -1    1    3    3    0  502 -0.16902667084E+03  0.50835681611E+03 -0.10778835651E+03  0.54645676658E+03  0.00000000000E+00 0.  1.
         11    1    5    5    0    0 -0.66862942224E+02  0.10745529236E+03  0.59155731505E+02  0.13970215986E+03  0.00000000000E+00 0. -1.
        -11    1    5    5    0    0  0.23303587701E+01  0.87002448355E+02 -0.16528338154E+02  0.88589178537E+02  0.00000000000E+00 0.  1.
          4    1    6    6  503    0  0.15387443511E+03 -0.33185135158E+03  0.14436536139E+03  0.39324803737E+03  0.00000000000E+00 0. -1.
         -4    1    6    6    0  503  0.14527822373E+03 -0.52938746224E+03  0.27802629176E+03  0.61534987314E+03  0.00000000000E+00 0.  1.
<mgrwt>
<rscale>  0 0.19525525E+04</rscale>
<asrwt>0</asrwt>
<pdfrwt beam="1">  1        2 0.13032771E+00 0.19525525E+04</pdfrwt>
<pdfrwt beam="2">  1       -1 0.17309397E+00 0.19525525E+04</pdfrwt>
<totfact> 0.79253569E+00</totfact>
</mgrwt>
</event>
<event>
12    6  0.1538774E-007  0.3646400E+04  0.7818608E-02  0.8079945E-01
          2   -1    0    0  501    0  0.00000000000E+00  0.00000000000E+00  0.17254396277E+04  0.17254396277E+04  0.00000000000E+00 0. -1.
         -1   -1    0    0    0  501 -0.00000000000E+00 -0.00000000000E+00 -0.19264997002E+04  0.19264997002E+04  0.00000000000E+00 0.  1.
         24    2    1    2    0    0  0.28193075929E+03  0.16812680396E+04  0.58426035390E+02  0.17075369173E+04  0.78240322469E+02 0.  0.
        254    2    1    2    0    0 -0.28193075929E+03 -0.16812680396E+04 -0.25948610784E+03  0.19444024106E+04  0.89845451753E+03 0.  0.
         23    2    4    4    0    0 -0.82257426601E+02 -0.12346281813E+04  0.21159492425E+03  0.12591964476E+04  0.98642036340E+02 0.  0.
         23    2    4    4    0    0 -0.19967333269E+03 -0.44663985830E+03 -0.47108103210E+03  0.68520596300E+03  0.90737368896E+02 0.  0.
          4    1    3    3  502    0  0.26420320818E+03  0.14505269702E+04  0.33443169905E+02  0.14747712609E+04  0.00000000000E+00 0. -1.
         -3    1    3    3    0  502  0.17727551106E+02  0.23074106943E+03  0.24982865485E+02  0.23276565631E+03  0.00000000000E+00 0.  1.
         11    1    5    5    0    0 -0.77572851156E+02 -0.11123189402E+04  0.16030266135E+03  0.11264847603E+04  0.00000000000E+00 0. -1.
        -11    1    5    5    0    0 -0.46845754456E+01 -0.12230924113E+03  0.51292262903E+02  0.13271168730E+03  0.00000000000E+00 0.  1.
          4    1    6    6  503    0 -0.14279381948E+03 -0.39760834305E+03 -0.40196655415E+03  0.58314627667E+03  0.00000000000E+00 0. -1.
         -4    1    6    6    0  503 -0.56879513202E+02 -0.49031515255E+02 -0.69114477947E+02  0.10205968632E+03  0.00000000000E+00 0.  1.
<mgrwt>
<rscale>  0 0.36464004E+04</rscale>
<asrwt>0</asrwt>
<pdfrwt beam="1">  1        2 0.26545225E+00 0.36464004E+04</pdfrwt>
<pdfrwt beam="2">  1       -1 0.29638457E+00 0.36464004E+04</pdfrwt>
<totfact> 0.30573054E-01</totfact>
</mgrwt>
</event>
<event>
12    6  0.1538774E-007  0.1972235E+04  0.7818608E-02  0.8619713E-01
         -1   -1    0    0    0  501 -0.00000000000E+00  0.00000000000E+00  0.35483626954E+03  0.35483626954E+03  0.00000000000E+00 0.  1.
          2   -1    0    0  501    0  0.00000000000E+00 -0.00000000000E+00 -0.27404980824E+04  0.27404980824E+04  0.00000000000E+00 0. -1.
         24    2    1    2    0    0 -0.24083155666E+03 -0.54219865975E+03 -0.17305276517E+04  0.18311631332E+04  0.80332073261E+02 0.  0.
        254    2    1    2    0    0  0.24083155666E+03  0.54219865975E+03 -0.65513416119E+03  0.12641712187E+04  0.90385224218E+03 0.  0.
         23    2    4    4    0    0 -0.12155220155E+03  0.41901462090E+03  0.57238607031E+02  0.45031206792E+03  0.95689655364E+02 0.  0.
         23    2    4    4    0    0  0.36238375822E+03  0.12318403885E+03 -0.71237276822E+03  0.81385915078E+03  0.91626746964E+02 0.  0.
          4    1    3    3  502    0 -0.13643522394E+03 -0.36587371136E+03 -0.10407787827E+04  0.11116198170E+04  0.00000000000E+00 0. -1.
         -3    1    3    3    0  502 -0.10439633273E+03 -0.17632494839E+03 -0.68974886894E+03  0.71954331622E+03  0.00000000000E+00 0.  1.
         11    1    5    5    0    0 -0.50056589692E+02  0.19623176736E+03 -0.21004845678E+02  0.20360199467E+03  0.00000000000E+00 0. -1.
        -11    1    5    5    0    0 -0.71495611860E+02  0.22278285354E+03  0.78243452709E+02  0.24671007324E+03  0.00000000000E+00 0.  1.
          3    1    6    6  503    0  0.24093600188E+03  0.44100148123E+02 -0.39202935611E+03  0.46225749979E+03  0.00000000000E+00 0. -1.
         -3    1    6    6    0  503  0.12144775634E+03  0.79083890729E+02 -0.32034341211E+03  0.35160165099E+03  0.00000000000E+00 0.  1.
<mgrwt>
<rscale>  0 0.19722354E+04</rscale>
<asrwt>0</asrwt>
<pdfrwt beam="1">  1        2 0.42161507E+00 0.19722354E+04</pdfrwt>
<pdfrwt beam="2">  1       -1 0.54590197E-01 0.19722354E+04</pdfrwt>
<totfact> 0.90366570E+00</totfact>
</mgrwt>
</event>
<event>
12    6  0.1538774E-007  0.1638659E+04  0.7818608E-02  0.8797144E-01
         -1   -1    0    0    0  501 -0.00000000000E+00  0.00000000000E+00  0.58675850640E+03  0.58675850640E+03  0.00000000000E+00 0.  1.
          2   -1    0    0  501    0  0.00000000000E+00 -0.00000000000E+00 -0.11440833956E+04  0.11440833956E+04  0.00000000000E+00 0. -1.
         24    2    1    2    0    0 -0.20396365126E+03 -0.32588075849E+03 -0.68724761900E+03  0.79161780862E+03  0.80932226593E+02 0.  0.
        254    2    1    2    0    0  0.20396365126E+03  0.32588075849E+03  0.12992272977E+03  0.93922409342E+03  0.84703160636E+03 0.  0.
         23    2    4    4    0    0  0.29116237479E+03  0.51882460806E+03  0.28049033831E+03  0.66379564406E+03  0.89416579960E+02 0.  0.
         23    2    4    4    0    0 -0.87198723531E+02 -0.19294384956E+03 -0.15056760854E+03  0.27542844936E+03  0.91429095513E+02 0.  0.
          2    1    3    3  502    0 -0.83262312791E+02 -0.18596435072E+03 -0.30146055423E+03  0.36385961334E+03  0.00000000000E+00 0. -1.
         -1    1    3    3    0  502 -0.12070133847E+03 -0.13991640778E+03 -0.38578706478E+03  0.42775819527E+03  0.00000000000E+00 0.  1.
         11    1    5    5    0    0  0.24925399488E+03  0.48781485653E+03  0.26953071589E+03  0.61052247708E+03  0.00000000000E+00 0.  1.
        -11    1    5    5    0    0  0.41908379909E+02  0.31009751531E+02  0.10959622417E+02  0.53273166980E+02  0.00000000000E+00 0. -1.
          4    1    6    6  503    0  0.12694663496E+01 -0.14345289361E+02  0.11590523681E+02  0.18486187029E+02  0.00000000000E+00 0. -1.
         -4    1    6    6    0  503 -0.88468189881E+02 -0.17859856020E+03 -0.16215813222E+03  0.25694226233E+03  0.00000000000E+00 0.  1.
<mgrwt>
<rscale>  0 0.16386588E+04</rscale>
<asrwt>0</asrwt>
<pdfrwt beam="1">  1        2 0.17601283E+00 0.16386588E+04</pdfrwt>
<pdfrwt beam="2">  1       -1 0.90270540E-01 0.16386588E+04</pdfrwt>
<totfact> 0.26788609E+01</totfact>
</mgrwt>
</event>
<event>
12    6  0.1538774E-007  0.1743405E+04  0.7818608E-02  0.8736989E-01
         -1   -1    0    0    0  501 -0.00000000000E+00  0.00000000000E+00  0.69492075327E+03  0.69492075327E+03  0.00000000000E+00 0.  1.
          2   -1    0    0  501    0  0.00000000000E+00 -0.00000000000E+00 -0.10934556409E+04  0.10934556409E+04  0.00000000000E+00 0. -1.
         24    2    1    2    0    0  0.34823108964E+03  0.20619543981E+03 -0.65403532460E+03  0.77306618248E+03  0.78023493127E+02 0.  0.
        254    2    1    2    0    0 -0.34823108964E+03 -0.20619543981E+03  0.25550043697E+03  0.10153102117E+04  0.89542889247E+03 0.  0.
         23    2    4    4    0    0 -0.16194006367E+03 -0.26524247236E+03  0.55718860842E+03  0.64454234008E+03  0.91638034898E+02 0.  0.
         23    2    4    4    0    0 -0.18629102598E+03  0.59047032557E+02 -0.30168817145E+03  0.37076787160E+03  0.90896443303E+02 0.  0.
          2    1    3    3  502    0  0.18692004016E+03  0.69429117208E+02 -0.34774075452E+03  0.40085301058E+03  0.00000000000E+00 0. -1.
         -1    1    3    3    0  502  0.16131104948E+03  0.13676632260E+03 -0.30629457007E+03  0.37221317190E+03  0.00000000000E+00 0.  1.
         11    1    5    5    0    0 -0.93618261454E+02 -0.21035043990E+03  0.45485564164E+03  0.50980912229E+03  0.00000000000E+00 0. -1.
        -11    1    5    5    0    0 -0.68321802212E+02 -0.54892032466E+02  0.10233296679E+03  0.13473321780E+03  0.00000000000E+00 0.  1.
          1    1    6    6  503    0 -0.15807570440E+03  0.12744454018E+02 -0.24864917604E+03  0.29491822965E+03  0.00000000000E+00 0. -1.
         -1    1    6    6    0  503 -0.28215321578E+02  0.46302578539E+02 -0.53038995406E+02  0.75849641956E+02  0.00000000000E+00 0.  1.
<mgrwt>
<rscale>  0 0.17434047E+04</rscale>
<asrwt>0</asrwt>
<pdfrwt beam="1">  1        2 0.16822394E+00 0.17434047E+04</pdfrwt>
<pdfrwt beam="2">  1       -1 0.10691089E+00 0.17434047E+04</pdfrwt>
<totfact> 0.19416256E+01</totfact>
</mgrwt>
</event>
<event>
12    6  0.1538774E-007  0.1832144E+04  0.7818608E-02  0.8689390E-01
          2   -1    0    0  501    0  0.00000000000E+00  0.00000000000E+00  0.43790685927E+04  0.43790685927E+04  0.00000000000E+00 0. -1.
         -1   -1    0    0    0  501 -0.00000000000E+00 -0.00000000000E+00 -0.19163619737E+03  0.19163619737E+03  0.00000000000E+00 0.  1.
         24    2    1    2    0    0  0.57491833953E+03 -0.38025609869E+03  0.15180140349E+04  0.16690326325E+04  0.78597204982E+02 0.  0.
        254    2    1    2    0    0 -0.57491833953E+03  0.38025609869E+03  0.26694183605E+04  0.29016721576E+04  0.90486525465E+03 0.  0.
         23    2    4    4    0    0 -0.37035946353E+03  0.45214076841E+03  0.25850063030E+04  0.26518778343E+04  0.92741874298E+02 0.  0.
         23    2    4    4    0    0 -0.20455887600E+03 -0.71884669716E+02  0.84412057547E+02  0.24979432326E+03  0.90884921648E+02 0.  0.
          2    1    3    3  502    0  0.17019977945E+03 -0.99716045866E+02  0.51951710306E+03  0.55570610496E+03  0.00000000000E+00 0. -1.
         -1    1    3    3    0  502  0.40471856008E+03 -0.28054005282E+03  0.99849693181E+03  0.11133265275E+04  0.00000000000E+00 0.  1.
         11    1    5    5    0    0 -0.38739471558E+02  0.19704965668E+02  0.27833414331E+03  0.28170716650E+03  0.00000000000E+00 0.  1.
        -11    1    5    5    0    0 -0.33161999197E+03  0.43243580274E+03  0.23066721597E+04  0.23701706678E+04  0.00000000000E+00 0. -1.
          4    1    6    6  503    0 -0.31962578291E+02  0.83743326898E+01  0.44307214072E+02  0.55270833880E+02  0.00000000000E+00 0.  1.
         -4    1    6    6    0  503 -0.17259629771E+03 -0.80259002406E+02  0.40104843474E+02  0.19452348938E+03  0.00000000000E+00 0. -1.
<mgrwt>
<rscale>  0 0.18321442E+04</rscale>
<asrwt>0</asrwt>
<pdfrwt beam="1">  1        2 0.67370279E+00 0.18321442E+04</pdfrwt>
<pdfrwt beam="2">  1       -1 0.29482495E-01 0.18321442E+04</pdfrwt>
<totfact> 0.18462021E+00</totfact>
</mgrwt>
</event>
<event>
12    6  0.1538774E-007  0.1331374E+04  0.7818608E-02  0.9005049E-01
          2   -1    0    0  501    0  0.00000000000E+00  0.00000000000E+00  0.10712476552E+04  0.10712476552E+04  0.00000000000E+00 0. -1.
         -1   -1    0    0    0  501 -0.00000000000E+00 -0.00000000000E+00 -0.41366620209E+03  0.41366620209E+03  0.00000000000E+00 0.  1.
         24    2    1    2    0    0 -0.31406298598E+03  0.55200293169E+02  0.20399330873E+01  0.32973255898E+03  0.83885443307E+02 0.  0.
        254    2    1    2    0    0  0.31406298598E+03 -0.55200293169E+02  0.65554151999E+03  0.11551812983E+04  0.89611746771E+03 0.  0.
         23    2    4    4    0    0  0.42404327193E+03  0.89418339134E+02 -0.26329463445E+02  0.44363824248E+03  0.91177374993E+02 0.  0.
         23    2    4    4    0    0 -0.10998028595E+03 -0.14461863230E+03  0.68187098343E+03  0.71154305580E+03  0.91297700399E+02 0.  0.
          4    1    3    3  502    0 -0.12240808290E+02 -0.13478722329E+02 -0.83275723885E+01  0.20021533535E+02  0.00000000000E+00 0. -1.
         -3    1    3    3    0  502 -0.30182217769E+03  0.68679015498E+02  0.10367505476E+02  0.30971102545E+03  0.00000000000E+00 0.  1.
         11    1    5    5    0    0  0.22482708736E+03  0.34815383986E+02 -0.57690782416E+02  0.23470738494E+03  0.00000000000E+00 0.  1.
        -11    1    5    5    0    0  0.19921618457E+03  0.54602955148E+02  0.31361318972E+02  0.20893085754E+03  0.00000000000E+00 0. -1.
          4    1    6    6  503    0 -0.33476156720E+02 -0.46068905589E+01  0.53869536682E+02  0.63590907304E+02  0.00000000000E+00 0. -1.
         -4    1    6    6    0  503 -0.76504129227E+02 -0.14001174174E+03  0.62800144675E+03  0.64795214849E+03  0.00000000000E+00 0.  1.
<mgrwt>
<rscale>  0 0.13313737E+04</rscale>
<asrwt>0</asrwt>
<pdfrwt beam="1">  1        2 0.16480733E+00 0.13313737E+04</pdfrwt>
<pdfrwt beam="2">  1       -1 0.63640954E-01 0.13313737E+04</pdfrwt>
<totfact> 0.63416060E+01</totfact>
</mgrwt>
</event>
<event>
12    6  0.1538774E-007  0.1955632E+04  0.7818608E-02  0.8627650E-01
         -1   -1    0    0    0  501 -0.00000000000E+00  0.00000000000E+00  0.29140151496E+03  0.29140151496E+03  0.00000000000E+00 0.  1.
          2   -1    0    0  501    0  0.00000000000E+00 -0.00000000000E+00 -0.32811240654E+04  0.32811240654E+04  0.00000000000E+00 0. -1.
         24    2    1    2    0    0  0.55346429340E+03 -0.16158028865E+03 -0.25228761835E+03  0.63434190609E+03  0.79433605659E+02 0.  0.
        254    2    1    2    0    0 -0.55346429340E+03  0.16158028865E+03 -0.27374349321E+04  0.29381836743E+04  0.89829971756E+03 0.  0.
         23    2    4    4    0    0 -0.20867216456E+03  0.18671278882E+03 -0.24803534935E+04  0.24977501716E+04  0.90535790292E+02 0.  0.
         23    2    4    4    0    0 -0.34479212884E+03 -0.25132500170E+02 -0.25708143866E+03  0.44043350272E+03  0.91528954675E+02 0.  0.
          2    1    3    3  502    0  0.33011870054E+02 -0.10164183505E+02  0.40048094654E+01  0.34772585317E+02  0.00000000000E+00 0. -1.
         -1    1    3    3    0  502  0.52045242334E+03 -0.15141610515E+03 -0.25629242781E+03  0.59956932077E+03  0.00000000000E+00 0.  1.
         11    1    5    5    0    0 -0.93148891022E+02  0.39422071435E+02 -0.11237490466E+04  0.11282919549E+04  0.00000000000E+00 0.  1.
        -11    1    5    5    0    0 -0.11552327354E+03  0.14729071739E+03 -0.13566044468E+04  0.13694582167E+04  0.00000000000E+00 0. -1.
          2    1    6    6  503    0 -0.95192355547E+02 -0.47721028876E+02 -0.66003556989E+02  0.12528108671E+03  0.00000000000E+00 0. -1.
         -2    1    6    6    0  503 -0.24959977329E+03  0.22588528706E+02 -0.19107788167E+03  0.31515241602E+03  0.00000000000E+00 0.  1.
<mgrwt>
<rscale>  0 0.19556324E+04</rscale>
<asrwt>0</asrwt>
<pdfrwt beam="1">  1        2 0.50478835E+00 0.19556324E+04</pdfrwt>
<pdfrwt beam="2">  1       -1 0.44830999E-01 0.19556324E+04</pdfrwt>
<totfact> 0.60283396E+00</totfact>
</mgrwt>
</event>
<event>
12    6  0.1538774E-007  0.1774558E+04  0.7818608E-02  0.8719947E-01
          2   -1    0    0  501    0  0.00000000000E+00  0.00000000000E+00  0.31508339825E+04  0.31508339825E+04  0.00000000000E+00 0. -1.
         -1   -1    0    0    0  501 -0.00000000000E+00 -0.00000000000E+00 -0.24985891937E+03  0.24985891937E+03  0.00000000000E+00 0.  1.
         24    2    1    2    0    0 -0.24935864497E+03 -0.53915699981E+03  0.16387994711E+04  0.17449710050E+04  0.79938084861E+02 0.  0.
        254    2    1    2    0    0  0.24935864497E+03  0.53915699981E+03  0.12621755920E+04  0.16557218969E+04  0.89188439301E+03 0.  0.
         23    2    4    4    0    0  0.39189684809E+02  0.26315551484E+03  0.12661577811E+04  0.12973365301E+04  0.95602767258E+02 0.  0.
         23    2    4    4    0    0  0.21016896016E+03  0.27600148497E+03 -0.39821891309E+01  0.35838536682E+03  0.89868803263E+02 0.  0.
          2    1    3    3  502    0 -0.18737712889E+03 -0.36821019219E+03  0.12306579021E+04  0.12981555401E+04  0.00000000000E+00 0. -1.
         -1    1    3    3    0  502 -0.61981516084E+02 -0.17094680761E+03  0.40814156898E+03  0.44681546493E+03  0.00000000000E+00 0.  1.
         11    1    5    5    0    0  0.14671762307E+02  0.14938251726E+03  0.91930037337E+03  0.93147387164E+03  0.00000000000E+00 0.  1.
        -11    1    5    5    0    0  0.24517922502E+02  0.11377299758E+03  0.34685740777E+03  0.36586265842E+03  0.00000000000E+00 0. -1.
          3    1    6    6  503    0  0.50415041876E+02  0.15683528858E+02 -0.40922127141E+01  0.52956545674E+02  0.00000000000E+00 0. -1.
         -3    1    6    6    0  503  0.15975391829E+03  0.26031795611E+03  0.11002358316E+00  0.30542882115E+03  0.00000000000E+00 0.  1.
<mgrwt>
<rscale>  0 0.17745579E+04</rscale>
<asrwt>0</asrwt>
<pdfrwt beam="1">  1        2 0.48474366E+00 0.17745579E+04</pdfrwt>
<pdfrwt beam="2">  1       -1 0.38439836E-01 0.17745579E+04</pdfrwt>
<totfact> 0.98983367E+00</totfact>
</mgrwt>
</event>
<event>
12    6  0.1538774E-007  0.2346591E+04  0.7818608E-02  0.8459774E-01
          2   -1    0    0  501    0  0.00000000000E+00  0.00000000000E+00  0.29508266366E+04  0.29508266366E+04  0.00000000000E+00 0. -1.
         -1   -1    0    0    0  501 -0.00000000000E+00 -0.00000000000E+00 -0.46652075803E+03  0.46652075803E+03  0.00000000000E+00 0.  1.
         24    2    1    2    0    0 -0.77115910296E+03 -0.45367575621E+03  0.41663866717E+03  0.99014846900E+03  0.79360933891E+02 0.  0.
        254    2    1    2    0    0  0.77115910296E+03  0.45367575621E+03  0.20676672114E+04  0.24271989257E+04  0.90307190945E+03 0.  0.
         23    2    4    4    0    0 -0.16000942207E+03  0.22711431964E+03  0.66293479144E+03  0.72417989728E+03  0.88147924423E+02 0.  0.
         23    2    4    4    0    0  0.93116852504E+03  0.22656143657E+03  0.14047324200E+04  0.17030190284E+04  0.92713174366E+02 0.  0.
          2    1    3    3  502    0 -0.49047504783E+02 -0.81476799409E+01  0.21934009954E+02  0.54342830314E+02  0.00000000000E+00 0. -1.
         -1    1    3    3    0  502 -0.72211159818E+03 -0.44552807627E+03  0.39470465721E+03  0.93580563869E+03  0.00000000000E+00 0.  1.
         11    1    5    5    0    0 -0.12792892158E+03  0.22556001464E+03  0.58615706442E+03  0.64095493862E+03  0.00000000000E+00 0. -1.
        -11    1    5    5    0    0 -0.32080500493E+02  0.15543050016E+01  0.76777727023E+02  0.83224958652E+02  0.00000000000E+00 0.  1.
          3    1    6    6  503    0  0.67378773667E+03  0.17119268654E+03  0.10882445691E+04  0.12913454581E+04  0.00000000000E+00 0. -1.
         -3    1    6    6    0  503  0.25738078837E+03  0.55368750034E+02  0.31648785094E+03  0.41167357031E+03  0.00000000000E+00 0.  1.
<mgrwt>
<rscale>  0 0.23465906E+04</rscale>
<asrwt>0</asrwt>
<pdfrwt beam="1">  1        2 0.45397332E+00 0.23465906E+04</pdfrwt>
<pdfrwt beam="2">  1       -1 0.71772426E-01 0.23465906E+04</pdfrwt>
<totfact> 0.37640844E+00</totfact>
</mgrwt>
</event>
<event>
12    6  0.1538774E-007  0.1814820E+04  0.7818608E-02  0.8698458E-01
          2   -1    0    0  501    0  0.00000000000E+00  0.00000000000E+00  0.12450658784E+04  0.12450658784E+04  0.00000000000E+00 0. -1.
         -1   -1    0    0    0  501 -0.00000000000E+00 -0.00000000000E+00 -0.66132507052E+03  0.66132507052E+03  0.00000000000E+00 0.  1.
         24    2    1    2    0    0 -0.50755515687E+03  0.41180583770E+03  0.42585412854E+03  0.78404428148E+03  0.78596509466E+02 0.  0.
        254    2    1    2    0    0  0.50755515687E+03 -0.41180583770E+03  0.15788667929E+03  0.11223466674E+04  0.89863093264E+03 0.  0.
         23    2    4    4    0    0 -0.14299903866E+03  0.15395101953E+03 -0.41254411996E+02  0.23269811306E+03  0.91087012469E+02 0.  0.
         23    2    4    4    0    0  0.65055419553E+03 -0.56575685722E+03  0.19914109129E+03  0.88964855434E+03  0.92281055392E+02 0.  0.
          2    1    3    3  502    0 -0.46137521652E+03  0.38381080796E+03  0.41302668562E+03  0.72853885947E+03  0.00000000000E+00 0. -1.
         -1    1    3    3    0  502 -0.46179940354E+02  0.27995029736E+02  0.12827442929E+02  0.55505422015E+02  0.00000000000E+00 0.  1.
         11    1    5    5    0    0 -0.20225819702E+02  0.85116976150E+02 -0.25129212388E+02  0.91024506188E+02  0.00000000000E+00 0. -1.
        -11    1    5    5    0    0 -0.12277321896E+03  0.68834043376E+02 -0.16125199608E+02  0.14167360687E+03  0.00000000000E+00 0.  1.
          1    1    6    6  503    0  0.41623513034E+03 -0.41788057605E+03  0.14404361022E+03  0.60714448134E+03  0.00000000000E+00 0. -1.
         -1    1    6    6    0  503  0.23431906519E+03 -0.14787628117E+03  0.55097481069E+02  0.28250407301E+03  0.00000000000E+00 0.  1.
<mgrwt>
<rscale>  0 0.18148204E+04</rscale>
<asrwt>0</asrwt>
<pdfrwt beam="1">  1        2 0.19154860E+00 0.18148204E+04</pdfrwt>
<pdfrwt beam="2">  1       -1 0.10174232E+00 0.18148204E+04</pdfrwt>
<totfact> 0.17536778E+01</totfact>
</mgrwt>
</event>
<event>
12    6  0.1538774E-007  0.2468265E+04  0.7818608E-02  0.8414379E-01
          2   -1    0    0  501    0  0.00000000000E+00  0.00000000000E+00  0.36970795942E+04  0.36970795942E+04  0.00000000000E+00 0. -1.
         -1   -1    0    0    0  501 -0.00000000000E+00 -0.00000000000E+00 -0.41196913148E+03  0.41196913148E+03  0.00000000000E+00 0.  1.
         24    2    1    2    0    0 -0.50499061690E+03  0.93780697289E+03  0.13431242362E+04  0.17161570800E+04  0.81944907656E+02 0.  0.
        254    2    1    2    0    0  0.50499061690E+03 -0.93780697289E+03  0.19419862265E+04  0.23928916457E+04  0.90560614083E+03 0.  0.
         23    2    4    4    0    0 -0.73663205460E+02 -0.17476130760E+03 -0.16860997309E+02  0.21072294517E+03  0.90288891446E+02 0.  0.
         23    2    4    4    0    0  0.57865382235E+03 -0.76304566529E+03  0.19588472238E+04  0.21821687005E+04  0.87743134417E+02 0.  0.
          2    1    3    3  502    0 -0.48732588503E+03  0.91679148148E+03  0.13246783399E+04  0.16830822449E+04  0.00000000000E+00 0. -1.
         -3    1    3    3    0  502 -0.17664731860E+02  0.21015491410E+02  0.18445896281E+02  0.33074835154E+02  0.00000000000E+00 0.  1.
         11    1    5    5    0    0 -0.92443721694E+02 -0.15543744502E+03 -0.25010448967E+02  0.18257098223E+03  0.00000000000E+00 0. -1.
        -11    1    5    5    0    0  0.18780516235E+02 -0.19323862579E+02  0.81494516586E+01  0.28151962940E+02  0.00000000000E+00 0.  1.
          3    1    6    6  503    0  0.51926943271E+03 -0.72250811954E+03  0.18128449450E+04  0.20194220760E+04  0.00000000000E+00 0. -1.
         -3    1    6    6    0  503  0.59384389642E+02 -0.40537545758E+02  0.14600227882E+03  0.16274662445E+03  0.00000000000E+00 0.  1.
<mgrwt>
<rscale>  0 0.24682647E+04</rscale>
<asrwt>0</asrwt>
<pdfrwt beam="1">  1        2 0.56878145E+00 0.24682647E+04</pdfrwt>
<pdfrwt beam="2">  1       -1 0.63379869E-01 0.24682647E+04</pdfrwt>
<totfact> 0.15097005E+00</totfact>
</mgrwt>
</event>
<event>
12    6  0.1538774E-007  0.1947364E+04  0.7818608E-02  0.8631633E-01
          2   -1    0    0  501    0  0.00000000000E+00  0.00000000000E+00  0.21002473599E+04  0.21002473599E+04  0.00000000000E+00 0. -1.
         -1   -1    0    0    0  501 -0.00000000000E+00 -0.00000000000E+00 -0.45140256061E+03  0.45140256061E+03  0.00000000000E+00 0.  1.
         24    2    1    2    0    0  0.25677948382E+03 -0.43910783007E+02  0.16005919445E+04  0.16234738999E+04  0.76870481003E+02 0.  0.
        254    2    1    2    0    0 -0.25677948382E+03  0.43910783007E+02  0.48252854783E+02  0.92817602055E+03  0.88956086186E+03 0.  0.
         23    2    4    4    0    0  0.13585229981E+03 -0.21850009861E+03  0.28263729653E+03  0.39304490134E+03  0.91664129409E+02 0.  0.
         23    2    4    4    0    0 -0.39263178363E+03  0.26241088162E+03 -0.23438444175E+03  0.53513111921E+03  0.91706378757E+02 0.  0.
          4    1    3    3  502    0  0.20067566797E+03 -0.34767953335E+02  0.14084759173E+04  0.14231247113E+04  0.00000000000E+00 0. -1.
         -3    1    3    3    0  502  0.56103815846E+02 -0.91428296719E+01  0.19211602723E+03  0.20034918868E+03  0.00000000000E+00 0.  1.
         11    1    5    5    0    0  0.14119690332E+03 -0.22431689741E+03  0.27191262710E+03  0.37972504888E+03  0.00000000000E+00 0. -1.
        -11    1    5    5    0    0 -0.53446035179E+01  0.58167987976E+01  0.10724669433E+02  0.13319852456E+02  0.00000000000E+00 0.  1.
          4    1    6    6  503    0 -0.16169305402E+03  0.12114794083E+03 -0.51740609017E+02  0.20856307897E+03  0.00000000000E+00 0. -1.
         -4    1    6    6    0  503 -0.23093872960E+03  0.14126294078E+03 -0.18264383273E+03  0.32656804024E+03  0.00000000000E+00 0.  1.
<mgrwt>
<rscale>  0 0.19473644E+04</rscale>
<asrwt>0</asrwt>
<pdfrwt beam="1">  1        2 0.32311497E+00 0.19473644E+04</pdfrwt>
<pdfrwt beam="2">  1       -1 0.69446549E-01 0.19473644E+04</pdfrwt>
<totfact> 0.13086344E+01</totfact>
</mgrwt>
</event>
<event>
12    6  0.1538774E-007  0.2682788E+04  0.7818608E-02  0.8340611E-01
          2   -1    0    0  501    0  0.00000000000E+00  0.00000000000E+00  0.31985374312E+04  0.31985374312E+04  0.00000000000E+00 0. -1.
         -1   -1    0    0    0  501 -0.00000000000E+00 -0.00000000000E+00 -0.56255027055E+03  0.56255027055E+03  0.00000000000E+00 0.  1.
         24    2    1    2    0    0 -0.82704188401E+03 -0.79343451246E+03  0.72869193311E+03  0.13607836466E+04  0.84874000104E+02 0.  0.
        254    2    1    2    0    0  0.82704188401E+03  0.79343451246E+03  0.19072952276E+04  0.24003040552E+04  0.90008214569E+03 0.  0.
         23    2    4    4    0    0  0.54787561089E+03  0.87105423336E+03  0.97888725155E+03  0.14232853561E+04  0.92832059652E+02 0.  0.
         23    2    4    4    0    0  0.27916627312E+03 -0.77619720904E+02  0.92840797602E+03  0.97701869909E+03  0.93088878545E+02 0.  0.
          4    1    3    3  502    0 -0.71342122290E+03 -0.69293039389E+03  0.66423503726E+03  0.11959642791E+04  0.00000000000E+00 0. -1.
         -1    1    3    3    0  502 -0.11362066111E+03 -0.10050411857E+03  0.64456895850E+02  0.16481936750E+03  0.00000000000E+00 0.  1.
         11    1    5    5    0    0  0.44415761764E+03  0.76665794547E+03  0.83604007241E+03  0.12181967810E+04  0.00000000000E+00 0. -1.
        -11    1    5    5    0    0  0.10371799326E+03  0.10439628789E+03  0.14284717914E+03  0.20508857510E+03  0.00000000000E+00 0.  1.
          3    1    6    6  503    0  0.24868873415E+03 -0.89235174502E+02  0.73875094301E+03  0.78457756702E+03  0.00000000000E+00 0. -1.
         -3    1    6    6    0  503  0.30477538965E+02  0.11615453598E+02  0.18965703301E+03  0.19244113207E+03  0.00000000000E+00 0.  1.
<mgrwt>
<rscale>  0 0.26827882E+04</rscale>
<asrwt>0</asrwt>
<pdfrwt beam="1">  1        2 0.49208267E+00 0.26827882E+04</pdfrwt>
<pdfrwt beam="2">  1       -1 0.86546197E-01 0.26827882E+04</pdfrwt>
<totfact> 0.17083590E+00</totfact>
</mgrwt>
</event>
<event>
12    6  0.1538774E-007  0.3395702E+04  0.7818608E-02  0.8138962E-01
          2   -1    0    0  501    0  0.00000000000E+00  0.00000000000E+00  0.25690170742E+04  0.25690170742E+04  0.00000000000E+00 0. -1.
         -1   -1    0    0    0  501 -0.00000000000E+00 -0.00000000000E+00 -0.11221016104E+04  0.11221016104E+04  0.00000000000E+00 0.  1.
         24    2    1    2    0    0 -0.15632289227E+04  0.11839918856E+03  0.31258463955E+03  0.16005489955E+04  0.79654865452E+02 0.  0.
        254    2    1    2    0    0  0.15632289227E+04 -0.11839918856E+03  0.11343308242E+04  0.20905696891E+04  0.79124722668E+03 0.  0.
         23    2    4    4    0    0  0.16825072176E+03 -0.11998070224E+03 -0.76831837362E+02  0.24094588806E+03  0.97201416954E+02 0.  0.
         23    2    4    4    0    0  0.13949782009E+04  0.15815136810E+01  0.12111626616E+04  0.18496238011E+04  0.90700222664E+02 0.  0.
          4    1    3    3  502    0 -0.95420422417E+03  0.54996893271E+02  0.22597490500E+03  0.98213798286E+03  0.00000000000E+00 0. -1.
         -3    1    3    3    0  502 -0.60902469850E+03  0.63402295285E+02  0.86609734543E+02  0.61841101263E+03  0.00000000000E+00 0.  1.
         11    1    5    5    0    0 -0.48174912254E+01  0.98631739313E+01  0.97478624938E+00  0.11020010433E+02  0.00000000000E+00 0.  1.
        -11    1    5    5    0    0  0.17306821298E+03 -0.12984387617E+03 -0.77806623611E+02  0.22992587762E+03  0.00000000000E+00 0. -1.
          2    1    6    6  503    0  0.10928108457E+04  0.31327096523E+02  0.97678441881E+03  0.14660575474E+04  0.00000000000E+00 0. -1.
         -2    1    6    6    0  503  0.30216735523E+03 -0.29745582842E+02  0.23437824280E+03  0.38356625368E+03  0.00000000000E+00 0.  1.
<mgrwt>
<rscale>  0 0.33957021E+04</rscale>
<asrwt>0</asrwt>
<pdfrwt beam="1">  1        2 0.39523339E+00 0.33957021E+04</pdfrwt>
<pdfrwt beam="2">  1       -1 0.17263102E+00 0.33957021E+04</pdfrwt>
<totfact> 0.70318524E-01</totfact>
</mgrwt>
</event>
<event>
12    6  0.1538774E-007  0.1624218E+04  0.7818608E-02  0.8805806E-01
          2   -1    0    0  501    0  0.00000000000E+00  0.00000000000E+00  0.80826413885E+03  0.80826413885E+03  0.00000000000E+00 0. -1.
         -1   -1    0    0    0  501 -0.00000000000E+00 -0.00000000000E+00 -0.81597251018E+03  0.81597251018E+03  0.00000000000E+00 0.  1.
         24    2    1    2    0    0  0.30206805861E+03 -0.31554245183E+03 -0.34455945165E+03  0.56183567363E+03  0.78268496256E+02 0.  0.
        254    2    1    2    0    0 -0.30206805861E+03  0.31554245183E+03  0.33685108032E+03  0.10624009754E+04  0.90797303443E+03 0.  0.
         23    2    4    4    0    0 -0.17005212960E+03 -0.22127099526E+03 -0.14243664565E+03  0.32591597667E+03  0.89746563716E+02 0.  0.
         23    2    4    4    0    0 -0.13201592901E+03  0.53681344709E+03  0.47928772597E+03  0.73648499872E+03  0.84241003040E+02 0.  0.
          4    1    3    3  502    0  0.21525466805E+03 -0.22555576232E+03 -0.19870100485E+03  0.36971889776E+03  0.00000000000E+00 0. -1.
         -1    1    3    3    0  502  0.86813390566E+02 -0.89986689513E+02 -0.14585844680E+03  0.19211677587E+03  0.00000000000E+00 0.  1.
         11    1    5    5    0    0 -0.52388366282E+02 -0.49969014796E+02 -0.82211838667E+02  0.10954556029E+03  0.00000000000E+00 0. -1.
        -11    1    5    5    0    0 -0.11766376332E+03 -0.17130198046E+03 -0.60224806979E+02  0.21637041638E+03  0.00000000000E+00 0.  1.
          2    1    6    6  503    0 -0.10202766654E+03  0.32643078450E+03  0.24844091765E+03  0.42271691636E+03  0.00000000000E+00 0.  1.
         -2    1    6    6    0  503 -0.29988262473E+02  0.21038266259E+03  0.23084680831E+03  0.31376808237E+03  0.00000000000E+00 0. -1.
<mgrwt>
<rscale>  0 0.16242184E+04</rscale>
<asrwt>0</asrwt>
<pdfrwt beam="1">  1        2 0.12434833E+00 0.16242184E+04</pdfrwt>
<pdfrwt beam="2">  1       -1 0.12553423E+00 0.16242184E+04</pdfrwt>
<totfact> 0.20561514E+01</totfact>
</mgrwt>
</event>
<event>
12    6  0.1538774E-007  0.2794616E+04  0.7818608E-02  0.8304942E-01
         -1   -1    0    0    0  501 -0.00000000000E+00  0.00000000000E+00  0.15996113976E+04  0.15996113976E+04  0.00000000000E+00 0.  1.
          2   -1    0    0  501    0  0.00000000000E+00 -0.00000000000E+00 -0.12205898932E+04  0.12205898932E+04  0.00000000000E+00 0. -1.
         24    2    1    2    0    0 -0.10570000391E+04 -0.44554011655E+03  0.69308933942E+03  0.13423815932E+04  0.76553452881E+02 0.  0.
        254    2    1    2    0    0  0.10570000391E+04  0.44554011655E+03 -0.31406783493E+03  0.14778196976E+04  0.87724419389E+03 0.  0.
         23    2    4    4    0    0  0.20886328604E+03 -0.17770813351E+03  0.14901262860E+03  0.32445696157E+03  0.88676397389E+02 0.  0.
         23    2    4    4    0    0  0.84813675305E+03  0.62324825006E+03 -0.46308046353E+03  0.11533627361E+04  0.89597724225E+02 0.  0.
          2    1    3    3  502    0 -0.47597924325E+03 -0.19104844493E+03  0.26678749630E+03  0.57812742237E+03  0.00000000000E+00 0. -1.
         -1    1    3    3    0  502 -0.58102079584E+03 -0.25449167162E+03  0.42630184312E+03  0.76425417079E+03  0.00000000000E+00 0.  1.
         11    1    5    5    0    0  0.84155830898E+02 -0.10156738236E+03  0.28241304334E+02  0.13489146861E+03  0.00000000000E+00 0.  1.
        -11    1    5    5    0    0  0.12470745514E+03 -0.76140751157E+02  0.12077132427E+03  0.18956549296E+03  0.00000000000E+00 0. -1.
          1    1    6    6  503    0  0.60747576616E+03  0.40077403302E+03 -0.34003818416E+03  0.80328861482E+03  0.00000000000E+00 0. -1.
         -1    1    6    6    0  503  0.24066098688E+03  0.22247421705E+03 -0.12304227937E+03  0.35007412125E+03  0.00000000000E+00 0.  1.
<mgrwt>
<rscale>  0 0.27946159E+04</rscale>
<asrwt>0</asrwt>
<pdfrwt beam="1">  1        2 0.18778306E+00 0.27946159E+04</pdfrwt>
<pdfrwt beam="2">  1       -1 0.24609406E+00 0.27946159E+04</pdfrwt>
<totfact> 0.13503934E+00</totfact>
</mgrwt>
</event>
<event>
12    6  0.1538774E-007  0.1205464E+04  0.7818608E-02  0.9108087E-01
         -1   -1    0    0    0  501 -0.00000000000E+00  0.00000000000E+00  0.28967401771E+03  0.28967401771E+03  0.00000000000E+00 0.  1.
          2   -1    0    0  501    0  0.00000000000E+00 -0.00000000000E+00 -0.12541206192E+04  0.12541206192E+04  0.00000000000E+00 0. -1.
         24    2    1    2    0    0  0.72861484495E+02  0.19692631340E+03 -0.38955287059E+03  0.44975629051E+03  0.80252807001E+02 0.  0.
        254    2    1    2    0    0 -0.72861484495E+02 -0.19692631340E+03 -0.57489373085E+03  0.10940383464E+04  0.90682320916E+03 0.  0.
         23    2    4    4    0    0  0.11697631903E+03  0.25473865332E+03 -0.51128820340E+03  0.59038846023E+03  0.92561689341E+02 0.  0.
         23    2    4    4    0    0 -0.18983780353E+03 -0.45166496673E+03 -0.63605527458E+02  0.50364988612E+03  0.97866801546E+02 0.  0.
          4    1    3    3  502    0  0.15570553008E+02  0.74396613154E+02 -0.22060883132E+03  0.23333571228E+03  0.00000000000E+00 0. -1.
         -3    1    3    3    0  502  0.57290931487E+02  0.12252970025E+03 -0.16894403927E+03  0.21642057822E+03  0.00000000000E+00 0.  1.
         11    1    5    5    0    0  0.73130136092E+02  0.23298812867E+03 -0.44966009698E+03  0.51168905375E+03  0.00000000000E+00 0. -1.
        -11    1    5    5    0    0  0.43846182941E+02  0.21750524650E+02 -0.61628106414E+02  0.78699406485E+02  0.00000000000E+00 0.  1.
          3    1    6    6  503    0 -0.62280587762E+02 -0.25338530944E+03 -0.62241173829E+01  0.26100139136E+03  0.00000000000E+00 0. -1.
         -3    1    6    6    0  503 -0.12755721577E+03 -0.19827965729E+03 -0.57381410076E+02  0.24264849476E+03  0.00000000000E+00 0.  1.
<mgrwt>
<rscale>  0 0.12054645E+04</rscale>
<asrwt>0</asrwt>
<pdfrwt beam="1">  1        2 0.19294164E+00 0.12054645E+04</pdfrwt>
<pdfrwt beam="2">  1       -1 0.44565233E-01 0.12054645E+04</pdfrwt>
<totfact> 0.98579935E+01</totfact>
</mgrwt>
</event>
<event>
12    6  0.1538774E-007  0.1206160E+04  0.7818608E-02  0.9107482E-01
         -1   -1    0    0    0  501 -0.00000000000E+00  0.00000000000E+00  0.14061391726E+03  0.14061391726E+03  0.00000000000E+00 0.  1.
          2   -1    0    0  501    0  0.00000000000E+00 -0.00000000000E+00 -0.25865531552E+04  0.25865531552E+04  0.00000000000E+00 0. -1.
         24    2    1    2    0    0  0.23303513954E+03  0.77948518623E+02 -0.38080758652E+03  0.46017007889E+03  0.79754220821E+02 0.  0.
        254    2    1    2    0    0 -0.23303513954E+03 -0.77948518623E+02 -0.20651316514E+04  0.22669969936E+04  0.90228891346E+03 0.  0.
         23    2    4    4    0    0  0.23649867156E+03  0.95515976275E+02 -0.14184375654E+04  0.14439983157E+04  0.90061564064E+02 0.  0.
         23    2    4    4    0    0 -0.46953381110E+03 -0.17346449490E+03 -0.64669408599E+03  0.82299867788E+03  0.92529196375E+02 0.  0.
          2    1    3    3  502    0  0.55439119749E+02 -0.10628508407E+02 -0.55886455160E+02  0.79433979252E+02  0.00000000000E+00 0. -1.
         -1    1    3    3    0  502  0.17759601979E+03  0.88577027031E+02 -0.32492113136E+03  0.38073609964E+03  0.00000000000E+00 0.  1.
         11    1    5    5    0    0 -0.46811426018E+01  0.47268072051E+01 -0.89806740169E+01  0.11176238554E+02  0.00000000000E+00 0.  1.
        -11    1    5    5    0    0  0.24117981416E+03  0.90789169070E+02 -0.14094568914E+04  0.14328220772E+04  0.00000000000E+00 0. -1.
          1    1    6    6  503    0 -0.46786265616E+03 -0.18073716522E+03 -0.63655436959E+03  0.81040906545E+03  0.00000000000E+00 0. -1.
         -1    1    6    6    0  503 -0.16711549447E+01  0.72726703247E+01 -0.10139716401E+02  0.12589612432E+02  0.00000000000E+00 0.  1.
<mgrwt>
<rscale>  0 0.12061598E+04</rscale>
<asrwt>0</asrwt>
<pdfrwt beam="1">  1        2 0.39793130E+00 0.12061598E+04</pdfrwt>
<pdfrwt beam="2">  1       -1 0.21632908E-01 0.12061598E+04</pdfrwt>
<totfact> 0.62869362E+01</totfact>
</mgrwt>
</event>
<event>
12    6  0.1538774E-007  0.1360434E+04  0.7818608E-02  0.8982967E-01
         -1   -1    0    0    0  501 -0.00000000000E+00  0.00000000000E+00  0.63805855375E+03  0.63805855375E+03  0.00000000000E+00 0.  1.
          2   -1    0    0  501    0  0.00000000000E+00 -0.00000000000E+00 -0.72516070800E+03  0.72516070800E+03  0.00000000000E+00 0. -1.
         24    2    1    2    0    0 -0.38761149017E+03 -0.14304282378E+02  0.39850944035E+02  0.39830442697E+03  0.81308296002E+02 0.  0.
        254    2    1    2    0    0  0.38761149017E+03  0.14304282378E+02 -0.12695309829E+03  0.96491483477E+03  0.87435477319E+03 0.  0.
         23    2    4    4    0    0  0.14180844561E+03 -0.11928727989E+03  0.34931106636E+03  0.40490845353E+03  0.87140944870E+02 0.  0.
         23    2    4    4    0    0  0.24580304456E+03  0.13359156227E+03 -0.47626416464E+03  0.56000638124E+03  0.92269985796E+02 0.  0.
          2    1    3    3  502    0 -0.26036811732E+03  0.23214549421E+02  0.46383155279E+02  0.26548421594E+03  0.00000000000E+00 0. -1.
         -1    1    3    3    0  502 -0.12724337285E+03 -0.37518831800E+02 -0.65322112442E+01  0.13282021103E+03  0.00000000000E+00 0.  1.
         11    1    5    5    0    0  0.57931176346E+01  0.25275141280E+01  0.75725993653E+02  0.75989306184E+02  0.00000000000E+00 0.  1.
        -11    1    5    5    0    0  0.13601532798E+03 -0.12181479402E+03  0.27358507270E+03  0.32891914735E+03  0.00000000000E+00 0. -1.
          1    1    6    6  503    0  0.20919441051E+03  0.11898134675E+03 -0.45617480692E+03  0.51576575761E+03  0.00000000000E+00 0. -1.
         -1    1    6    6    0  503  0.36608634052E+02  0.14610215522E+02 -0.20089357727E+02  0.44240623624E+02  0.00000000000E+00 0.  1.
<mgrwt>
<rscale>  0 0.13604337E+04</rscale>
<asrwt>0</asrwt>
<pdfrwt beam="1">  1        2 0.11156319E+00 0.13604337E+04</pdfrwt>
<pdfrwt beam="2">  1       -1 0.98162855E-01 0.13604337E+04</pdfrwt>
<totfact> 0.43433487E+01</totfact>
</mgrwt>
</event>
<event>
12    6  0.1538774E-007  0.2547659E+04  0.7818608E-02  0.8386201E-01
         -1   -1    0    0    0  501 -0.00000000000E+00  0.00000000000E+00  0.10220217033E+04  0.10220217033E+04  0.00000000000E+00 0.  1.
          2   -1    0    0  501    0  0.00000000000E+00 -0.00000000000E+00 -0.15876779818E+04  0.15876779818E+04  0.00000000000E+00 0. -1.
         24    2    1    2    0    0 -0.42265481677E+03 -0.62990731958E+03 -0.10781924393E+04  0.13210103300E+04  0.84551938251E+02 0.  0.
        254    2    1    2    0    0  0.42265481677E+03  0.62990731958E+03  0.51253616086E+03  0.12886893551E+04  0.90697663274E+03 0.  0.
         23    2    4    4    0    0 -0.15799049495E+03  0.56004317313E+03  0.22455179159E+03  0.63052908315E+03  0.92380005034E+02 0.  0.
         23    2    4    4    0    0  0.58064531172E+03  0.69864146448E+02  0.28798436927E+03  0.65816027194E+03  0.90608882726E+02 0.  0.
          4    1    3    3  502    0 -0.39044742645E+03 -0.59918369701E+03 -0.10410694188E+04  0.12630502090E+04  0.00000000000E+00 0. -1.
         -3    1    3    3    0  502 -0.32207390316E+02 -0.30723622569E+02 -0.37123020538E+02  0.57960121019E+02  0.00000000000E+00 0.  1.
         11    1    5    5    0    0 -0.57375164800E+02  0.78733606480E+02  0.40314959660E+02  0.10543332631E+03  0.00000000000E+00 0. -1.
        -11    1    5    5    0    0 -0.10061533015E+03  0.48130956665E+03  0.18423683193E+03  0.52509575684E+03  0.00000000000E+00 0.  1.
          2    1    6    6  503    0  0.81760494605E+02  0.31269667741E+02  0.71228554219E+02  0.11285423136E+03  0.00000000000E+00 0. -1.
         -2    1    6    6    0  503  0.49888481712E+03  0.38594478707E+02  0.21675581505E+03  0.54530604058E+03  0.00000000000E+00 0.  1.
<mgrwt>
<rscale>  0 0.25476588E+04</rscale>
<asrwt>0</asrwt>
<pdfrwt beam="1">  1        2 0.24425815E+00 0.25476588E+04</pdfrwt>
<pdfrwt beam="2">  1       -1 0.15723411E+00 0.25476588E+04</pdfrwt>
<totfact> 0.35164831E+00</totfact>
</mgrwt>
</event>
<event>
12    6  0.1538774E-007  0.1319832E+04  0.7818608E-02  0.9013985E-01
          2   -1    0    0  501    0  0.00000000000E+00  0.00000000000E+00  0.23269980138E+04  0.23269980138E+04  0.00000000000E+00 0. -1.
         -1   -1    0    0    0  501 -0.00000000000E+00 -0.00000000000E+00 -0.18714625965E+03  0.18714625965E+03  0.00000000000E+00 0.  1.
         24    2    1    2    0    0 -0.24385275461E+03 -0.21110275817E+03  0.35962884685E+03  0.48959752373E+03  0.79651034619E+02 0.  0.
        254    2    1    2    0    0  0.24385275461E+03  0.21110275817E+03  0.17802229073E+04  0.20245467497E+04  0.90860739691E+03 0.  0.
         23    2    4    4    0    0  0.29004476680E+03  0.24459986716E+03  0.18531959540E+04  0.18940075126E+04  0.94732001829E+02 0.  0.
         23    2    4    4    0    0 -0.46192012187E+02 -0.33497108984E+02 -0.72973046656E+02  0.13053923715E+03  0.91976456762E+02 0.  0.
          2    1    3    3  502    0 -0.67361995914E+02 -0.33853818490E+02  0.12875059210E+03  0.14919931127E+03  0.00000000000E+00 0. -1.
         -1    1    3    3    0  502 -0.17649075869E+03 -0.17724893968E+03  0.23087825475E+03  0.34039821245E+03  0.00000000000E+00 0.  1.
         11    1    5    5    0    0  0.12431429533E+03  0.46773061128E+02  0.60383863429E+03  0.61827409741E+03  0.00000000000E+00 0. -1.
        -11    1    5    5    0    0  0.16573047146E+03  0.19782680603E+03  0.12493573197E+04  0.12757334152E+04  0.00000000000E+00 0.  1.
          3    1    6    6  503    0 -0.60959695944E+02  0.62416742795E+01 -0.24115282095E+02  0.65852789295E+02  0.00000000000E+00 0. -1.
         -3    1    6    6    0  503  0.14767683757E+02 -0.39738783263E+02 -0.48857764562E+02  0.64686447860E+02  0.00000000000E+00 0.  1.
<mgrwt>
<rscale>  0 0.13198318E+04</rscale>
<asrwt>0</asrwt>
<pdfrwt beam="1">  1        2 0.35799968E+00 0.13198318E+04</pdfrwt>
<pdfrwt beam="2">  1       -1 0.28791734E-01 0.13198318E+04</pdfrwt>
<totfact> 0.53663112E+01</totfact>
</mgrwt>
</event>
<event>
12    6  0.1538774E-007  0.2094769E+04  0.7818608E-02  0.8563551E-01
         -1   -1    0    0    0  501 -0.00000000000E+00  0.00000000000E+00  0.12155948142E+04  0.12155948142E+04  0.00000000000E+00 0.  1.
          2   -1    0    0  501    0  0.00000000000E+00 -0.00000000000E+00 -0.90245019823E+03  0.90245019823E+03  0.00000000000E+00 0. -1.
         24    2    1    2    0    0 -0.43881348769E+03  0.13648922986E+03 -0.59793640165E+03  0.75833426353E+03  0.79726582586E+02 0.  0.
        254    2    1    2    0    0  0.43881348769E+03 -0.13648922986E+03  0.91108101759E+03  0.13597107489E+04  0.89864237222E+03 0.  0.
         23    2    4    4    0    0  0.50384593750E+03 -0.89460442484E+02  0.10535821455E+04  0.11747665992E+04  0.90428567337E+02 0.  0.
         23    2    4    4    0    0 -0.65032449806E+02 -0.47028787380E+02 -0.14250112794E+03  0.18494414964E+03  0.86353000248E+02 0.  0.
          4    1    3    3  502    0 -0.41878830859E+03  0.14150621808E+03 -0.54644262621E+03  0.70285645826E+03  0.00000000000E+00 0. -1.
         -3    1    3    3    0  502 -0.20025179099E+02 -0.50169882207E+01 -0.51493775438E+02  0.55477805270E+02  0.00000000000E+00 0.  1.
         11    1    5    5    0    0  0.15961411364E+03 -0.32445312080E+02  0.24604491847E+03  0.29507196657E+03  0.00000000000E+00 0. -1.
        -11    1    5    5    0    0  0.34423182386E+03 -0.57015130404E+02  0.80753722707E+03  0.87969463267E+03  0.00000000000E+00 0.  1.
          1    1    6    6  503    0 -0.47039485823E+02 -0.75288982887E+01 -0.14518452928E+02  0.49801435836E+02  0.00000000000E+00 0. -1.
         -1    1    6    6    0  503 -0.17992963984E+02 -0.39499889091E+02 -0.12798267501E+03  0.13514271381E+03  0.00000000000E+00 0.  1.
<mgrwt>
<rscale>  0 0.20947685E+04</rscale>
<asrwt>0</asrwt>
<pdfrwt beam="1">  1        2 0.13883849E+00 0.20947685E+04</pdfrwt>
<pdfrwt beam="2">  1       -1 0.18701459E+00 0.20947685E+04</pdfrwt>
<totfact> 0.56979327E+00</totfact>
</mgrwt>
</event>
<event>
12    6  0.1538774E-007  0.1524969E+04  0.7818608E-02  0.8868017E-01
         -1   -1    0    0    0  501 -0.00000000000E+00  0.00000000000E+00  0.18208757622E+03  0.18208757622E+03  0.00000000000E+00 0.  1.
          2   -1    0    0  501    0  0.00000000000E+00 -0.00000000000E+00 -0.31928716598E+04  0.31928716598E+04  0.00000000000E+00 0. -1.
         24    2    1    2    0    0  0.36435280875E+03  0.22843609014E+03 -0.15080466300E+04  0.15702099517E+04  0.80116400567E+02 0.  0.
        254    2    1    2    0    0 -0.36435280875E+03 -0.22843609014E+03 -0.15027374535E+04  0.18047492843E+04  0.90219959451E+03 0.  0.
         23    2    4    4    0    0 -0.29626294504E+02  0.31610393376E+03 -0.69353562074E+03  0.76953938850E+03  0.10197940452E+03 0.  0.
         23    2    4    4    0    0 -0.33472651424E+03 -0.54454002389E+03 -0.80920183280E+03  0.10352098958E+04  0.91028815063E+02 0.  0.
          4    1    3    3  502    0  0.33416478724E+03  0.17878082296E+03 -0.12854699435E+04  0.13401722513E+04  0.00000000000E+00 0. -1.
         -1    1    3    3    0  502  0.30188021508E+02  0.49655267174E+02 -0.22257668656E+03  0.23003770039E+03  0.00000000000E+00 0.  1.
         11    1    5    5    0    0 -0.33973968588E+02  0.20298375244E+03 -0.33124307836E+03  0.38997257757E+03  0.00000000000E+00 0.  1.
        -11    1    5    5    0    0  0.43476740836E+01  0.11312018132E+03 -0.36229254238E+03  0.37956681092E+03  0.00000000000E+00 0. -1.
          4    1    6    6  503    0 -0.18694897825E+03 -0.24889713642E+03 -0.33631812742E+03  0.45826803055E+03  0.00000000000E+00 0. -1.
         -4    1    6    6    0  503 -0.14777753599E+03 -0.29564288747E+03 -0.47288370538E+03  0.57694186524E+03  0.00000000000E+00 0.  1.
<mgrwt>
<rscale>  0 0.15249685E+04</rscale>
<asrwt>0</asrwt>
<pdfrwt beam="1">  1        2 0.49121103E+00 0.15249685E+04</pdfrwt>
<pdfrwt beam="2">  1       -1 0.28013473E-01 0.15249685E+04</pdfrwt>
<totfact> 0.16711689E+01</totfact>
</mgrwt>
</event>
<event>
12    6  0.1538774E-007  0.1500319E+04  0.7818608E-02  0.8884241E-01
          4   -1    0    0  501    0  0.00000000000E+00  0.00000000000E+00  0.60624933150E+03  0.60624933150E+03  0.00000000000E+00 0. -1.
         -3   -1    0    0    0  501 -0.00000000000E+00 -0.00000000000E+00 -0.92823035543E+03  0.92823035543E+03  0.00000000000E+00 0.  1.
         24    2    1    2    0    0 -0.19275661261E+03 -0.40103043603E+03  0.61786620747E+02  0.45605679775E+03  0.78674608051E+02 0.  0.
        254    2    1    2    0    0  0.19275661261E+03  0.40103043603E+03 -0.38376764468E+03  0.10784228892E+04  0.90428856040E+03 0.  0.
         23    2    4    4    0    0  0.48863831739E+03  0.13390567891E+03  0.40045476610E+01  0.51497973317E+03  0.92140941550E+02 0.  0.
         23    2    4    4    0    0 -0.29588170478E+03  0.26712475712E+03 -0.38777219234E+03  0.56344315600E+03  0.90549974083E+02 0.  0.
          2    1    3    3  502    0 -0.10745697153E+03 -0.25740709536E+03  0.73944472592E+02  0.28857095921E+03  0.00000000000E+00 0. -1.
         -1    1    3    3    0  502 -0.85299641074E+02 -0.14362334067E+03 -0.12157851844E+02  0.16748583854E+03  0.00000000000E+00 0.  1.
         11    1    5    5    0    0  0.46871171257E+03  0.11681415295E+03 -0.13822452293E+02  0.48324659960E+03  0.00000000000E+00 0. -1.
        -11    1    5    5    0    0  0.19926604812E+02  0.17091525958E+02  0.17826999954E+02  0.31733133572E+02  0.00000000000E+00 0.  1.
          1    1    6    6  503    0 -0.20546470509E+03  0.22583815479E+03 -0.25634674876E+03  0.39866310689E+03  0.00000000000E+00 0. -1.
         -1    1    6    6    0  503 -0.90416999695E+02  0.41286602324E+02 -0.13142544358E+03  0.16478004911E+03  0.00000000000E+00 0.  1.
<mgrwt>
<rscale>  0 0.15003187E+04</rscale>
<asrwt>0</asrwt>
<pdfrwt beam="1">  1        4 0.93269128E-01 0.15003187E+04</pdfrwt>
<pdfrwt beam="2">  1       -3 0.14280467E+00 0.15003187E+04</pdfrwt>
<totfact> 0.78813813E-01</totfact>
</mgrwt>
</event>
<event>
12    6  0.1538774E-007  0.1358530E+04  0.7818608E-02  0.8984396E-01
         -1   -1    0    0    0  501 -0.00000000000E+00  0.00000000000E+00  0.12163956359E+04  0.12163956359E+04  0.00000000000E+00 0.  1.
          2   -1    0    0  501    0  0.00000000000E+00 -0.00000000000E+00 -0.37931794472E+03  0.37931794472E+03  0.00000000000E+00 0. -1.
         24    2    1    2    0    0  0.12637979729E+03 -0.15212267915E+03 -0.13786722404E+03  0.25410132968E+03  0.80292911311E+02 0.  0.
        254    2    1    2    0    0 -0.12637979729E+03  0.15212267915E+03  0.97494491525E+03  0.13416122510E+04  0.90016258614E+03 0.  0.
         23    2    4    4    0    0  0.21943913769E+03  0.15761769831E+03  0.93959450898E+03  0.98199359181E+03  0.92068990847E+02 0.  0.
         23    2    4    4    0    0 -0.34581893498E+03 -0.54950191563E+01  0.35350406269E+02  0.35961865915E+03  0.91951061766E+02 0.  0.
          4    1    3    3  502    0  0.10607212640E+03 -0.73500770827E+02 -0.10550350576E+03  0.16668727917E+03  0.00000000000E+00 0. -1.
         -3    1    3    3    0  502  0.20307670892E+02 -0.78621908323E+02 -0.32363718284E+02  0.87414050511E+02  0.00000000000E+00 0.  1.
         11    1    5    5    0    0  0.16612292053E+03  0.15938292603E+03  0.71491559679E+03  0.75106860696E+03  0.00000000000E+00 0. -1.
        -11    1    5    5    0    0  0.53316217163E+02 -0.17652277250E+01  0.22467891219E+03  0.23092498484E+03  0.00000000000E+00 0.  1.
          4    1    6    6  503    0 -0.23418141508E+03 -0.16058157055E+02  0.65122641703E+02  0.24359753291E+03  0.00000000000E+00 0. -1.
         -4    1    6    6    0  503 -0.11163751990E+03  0.10563137898E+02 -0.29772235434E+02  0.11602112624E+03  0.00000000000E+00 0.  1.
<mgrwt>
<rscale>  0 0.13585296E+04</rscale>
<asrwt>0</asrwt>
<pdfrwt beam="1">  1        2 0.58356608E-01 0.13585296E+04</pdfrwt>
<pdfrwt beam="2">  1       -1 0.18713779E+00 0.13585296E+04</pdfrwt>
<totfact> 0.17458033E+01</totfact>
</mgrwt>
</event>
<event>
12    6  0.1538774E-007  0.1157648E+04  0.7818608E-02  0.9150756E-01
          2   -1    0    0  501    0  0.00000000000E+00  0.00000000000E+00  0.11601884927E+04  0.11601884927E+04  0.00000000000E+00 0. -1.
         -1   -1    0    0    0  501 -0.00000000000E+00 -0.00000000000E+00 -0.28877851372E+03  0.28877851372E+03  0.00000000000E+00 0.  1.
         24    2    1    2    0    0 -0.11513004726E+03 -0.22216088570E+02  0.39587886076E+03  0.42078257133E+03  0.81175227519E+02 0.  0.
        254    2    1    2    0    0  0.11513004726E+03  0.22216088570E+02  0.47553111818E+03  0.10281844351E+04  0.90403811080E+03 0.  0.
         23    2    4    4    0    0  0.39595489325E+03 -0.25817553233E+03  0.14359824807E+03  0.50295049081E+03  0.94360247833E+02 0.  0.
         23    2    4    4    0    0 -0.28082484600E+03  0.28039162090E+03  0.33193287011E+03  0.52523394425E+03  0.90604694846E+02 0.  0.
          2    1    3    3  502    0 -0.88004999913E+02 -0.44120684312E+02  0.21353623699E+03  0.23513663965E+03  0.00000000000E+00 0. -1.
         -1    1    3    3    0  502 -0.27125047343E+02  0.21904595742E+02  0.18234262377E+03  0.18564593168E+03  0.00000000000E+00 0.  1.
         11    1    5    5    0    0  0.30533775791E+03 -0.23918277000E+03  0.99642150557E+02  0.40045986320E+03  0.00000000000E+00 0.  1.
        -11    1    5    5    0    0  0.90617135343E+02 -0.18992762337E+02  0.43956097509E+02  0.10249062761E+03  0.00000000000E+00 0. -1.
          1    1    6    6  503    0 -0.53699527575E+02  0.14119615223E+02  0.62153347947E+02  0.83342914857E+02  0.00000000000E+00 0. -1.
         -1    1    6    6    0  503 -0.22712531842E+03  0.26627200568E+03  0.26977952217E+03  0.44189102939E+03  0.00000000000E+00 0.  1.
<mgrwt>
<rscale>  0 0.11576485E+04</rscale>
<asrwt>0</asrwt>
<pdfrwt beam="1">  1        2 0.17849053E+00 0.11576485E+04</pdfrwt>
<pdfrwt beam="2">  1       -1 0.44427464E-01 0.11576485E+04</pdfrwt>
<totfact> 0.11318488E+02</totfact>
</mgrwt>
</event>
<event>
12    6  0.1538774E-007  0.3243090E+04  0.7818608E-02  0.8177529E-01
         -1   -1    0    0    0  501 -0.00000000000E+00  0.00000000000E+00  0.93802736065E+03  0.93802736065E+03  0.00000000000E+00 0.  1.
          2   -1    0    0  501    0  0.00000000000E+00 -0.00000000000E+00 -0.28031258313E+04  0.28031258313E+04  0.00000000000E+00 0. -1.
         24    2    1    2    0    0  0.79503494763E+03  0.11257174289E+04 -0.18851176152E+03  0.13933003149E+04  0.80179709050E+02 0.  0.
        254    2    1    2    0    0 -0.79503494763E+03 -0.11257174289E+04 -0.16765867091E+04  0.23478528770E+04  0.89562818250E+03 0.  0.
         23    2    4    4    0    0  0.71732065406E+02 -0.57361240842E+03 -0.81633384152E+03  0.10045976807E+04  0.92945547804E+02 0.  0.
         23    2    4    4    0    0 -0.86676701304E+03 -0.55210502044E+03 -0.86025286757E+03  0.13432551963E+04  0.90523576111E+02 0.  0.
          2    1    3    3  502    0  0.12490331082E+03  0.15894576971E+03 -0.11412458504E+01  0.20215315285E+03  0.00000000000E+00 0. -1.
         -1    1    3    3    0  502  0.67013163681E+03  0.96677165915E+03 -0.18737051567E+03  0.11911471621E+04  0.00000000000E+00 0.  1.
         11    1    5    5    0    0  0.21679337362E+02 -0.45968173272E+03 -0.66431845573E+03  0.80814373703E+03  0.00000000000E+00 0.  1.
        -11    1    5    5    0    0  0.50052728044E+02 -0.11393067570E+03 -0.15201538579E+03  0.19645394363E+03  0.00000000000E+00 0. -1.
          3    1    6    6  503    0 -0.98978315939E+02 -0.63140120362E+02 -0.13853692251E+03  0.18159256792E+03  0.00000000000E+00 0. -1.
         -3    1    6    6    0  503 -0.76778869710E+03 -0.48896490008E+03 -0.72171594507E+03  0.11616626284E+04  0.00000000000E+00 0.  1.
<mgrwt>
<rscale>  0 0.32430903E+04</rscale>
<asrwt>0</asrwt>
<pdfrwt beam="1">  1        2 0.43125012E+00 0.32430903E+04</pdfrwt>
<pdfrwt beam="2">  1       -1 0.14431190E+00 0.32430903E+04</pdfrwt>
<totfact> 0.84877492E-01</totfact>
</mgrwt>
</event>
<event>
12    6  0.1538774E-007  0.2461281E+04  0.7818608E-02  0.8416911E-01
          2   -1    0    0  501    0  0.00000000000E+00  0.00000000000E+00  0.13610880310E+04  0.13610880310E+04  0.00000000000E+00 0. -1.
         -1   -1    0    0    0  501 -0.00000000000E+00 -0.00000000000E+00 -0.11126946986E+04  0.11126946986E+04  0.00000000000E+00 0.  1.
         24    2    1    2    0    0 -0.30122000617E+02  0.10553494164E+01 -0.97013468309E+03  0.97392091587E+03  0.80325577240E+02 0.  0.
        254    2    1    2    0    0  0.30122000617E+02 -0.10553494164E+01  0.12185280155E+04  0.14998618137E+04  0.87399455786E+03 0.  0.
         23    2    4    4    0    0 -0.17421866990E+03 -0.10507331577E+02 -0.56676818642E+02  0.20508478103E+03  0.91569409089E+02 0.  0.
         23    2    4    4    0    0  0.20434067052E+03  0.94519821602E+01  0.12752048341E+04  0.12947770327E+04  0.91955129958E+02 0.  0.
          2    1    3    3  502    0 -0.23710936645E+02 -0.36515536785E+02 -0.36507892758E+03  0.36766590310E+03  0.00000000000E+00 0. -1.
         -1    1    3    3    0  502 -0.64110639717E+01  0.37570886201E+02 -0.60505575551E+03  0.60625501277E+03  0.00000000000E+00 0.  1.
         11    1    5    5    0    0 -0.10920478704E+02  0.21186100552E+02  0.10034273312E+02  0.25861058613E+02  0.00000000000E+00 0.  1.
        -11    1    5    5    0    0 -0.16329819119E+03 -0.31693432128E+02 -0.66711091953E+02  0.17922372242E+03  0.00000000000E+00 0. -1.
          3    1    6    6  503    0  0.15054102363E+03 -0.34921527846E+02  0.87995846822E+03  0.89342544104E+03  0.00000000000E+00 0. -1.
         -3    1    6    6    0  503  0.53799646887E+02  0.44373510006E+02  0.39524636587E+03  0.40135159166E+03  0.00000000000E+00 0.  1.
<mgrwt>
<rscale>  0 0.24612805E+04</rscale>
<asrwt>0</asrwt>
<pdfrwt beam="1">  1        2 0.20939816E+00 0.24612805E+04</pdfrwt>
<pdfrwt beam="2">  1       -1 0.17118380E+00 0.24612805E+04</pdfrwt>
<totfact> 0.37460773E+00</totfact>
</mgrwt>
</event>
<event>
12    6  0.1538774E-007  0.2262925E+04  0.7818608E-02  0.8492684E-01
          2   -1    0    0  501    0  0.00000000000E+00  0.00000000000E+00  0.25278037365E+04  0.25278037365E+04  0.00000000000E+00 0. -1.
         -1   -1    0    0    0  501 -0.00000000000E+00 -0.00000000000E+00 -0.50645055538E+03  0.50645055538E+03  0.00000000000E+00 0.  1.
         24    2    1    2    0    0  0.60801011307E+03 -0.71065188124E+03  0.64114265430E+03  0.11368040615E+04  0.80976398615E+02 0.  0.
        254    2    1    2    0    0 -0.60801011307E+03  0.71065188124E+03  0.13802105268E+04  0.18974502304E+04  0.90588845037E+03 0.  0.
         23    2    4    4    0    0 -0.27184631347E+03  0.49750180970E+03  0.14065402487E+03  0.59213932527E+03  0.97144001443E+02 0.  0.
         23    2    4    4    0    0 -0.33616379960E+03  0.21315007154E+03  0.12395565019E+04  0.13053109051E+04  0.94324887041E+02 0.  0.
          4    1    3    3  502    0  0.11117692723E+03 -0.17965834198E+03  0.13256697039E+03  0.24942219354E+03  0.00000000000E+00 0. -1.
         -3    1    3    3    0  502  0.49683318584E+03 -0.53099353926E+03  0.50857568391E+03  0.88738186794E+03  0.00000000000E+00 0.  1.
         11    1    5    5    0    0  0.40814474054E+01 -0.15987880436E+00 -0.32134687187E+01  0.51971295310E+01  0.00000000000E+00 0. -1.
        -11    1    5    5    0    0 -0.27592776087E+03  0.49766168851E+03  0.14386749359E+03  0.58694219574E+03  0.00000000000E+00 0.  1.
          1    1    6    6  503    0  0.33142437228E+00 -0.63321809392E+01  0.33692176136E+02  0.34283656315E+02  0.00000000000E+00 0. -1.
         -1    1    6    6    0  503 -0.33649522398E+03  0.21948225248E+03  0.12058643258E+04  0.12710272488E+04  0.00000000000E+00 0.  1.
<mgrwt>
<rscale>  0 0.22629252E+04</rscale>
<asrwt>0</asrwt>
<pdfrwt beam="1">  1        2 0.38889288E+00 0.22629252E+04</pdfrwt>
<pdfrwt beam="2">  1       -1 0.77915471E-01 0.22629252E+04</pdfrwt>
<totfact> 0.57260665E+00</totfact>
</mgrwt>
</event>
<event>
12    6  0.1538774E-007  0.3300958E+04  0.7818608E-02  0.8162652E-01
         -1   -1    0    0    0  501 -0.00000000000E+00  0.00000000000E+00  0.11156987125E+04  0.11156987125E+04  0.00000000000E+00 0.  1.
          2   -1    0    0  501    0  0.00000000000E+00 -0.00000000000E+00 -0.24415921284E+04  0.24415921284E+04  0.00000000000E+00 0. -1.
         24    2    1    2    0    0  0.15074928067E+04  0.19213269385E+03 -0.72711177235E+03  0.16864789692E+04  0.77911808207E+02 0.  0.
        254    2    1    2    0    0 -0.15074928067E+04 -0.19213269385E+03 -0.59878164354E+03  0.18708118716E+04  0.91211187256E+03 0.  0.
         23    2    4    4    0    0 -0.90174775145E+02  0.25211475753E+03 -0.75630336241E+02  0.29351127822E+03  0.93464333551E+02 0.  0.
         23    2    4    4    0    0 -0.14173180316E+04 -0.44424745138E+03 -0.52315130730E+03  0.15773005934E+04  0.89686515049E+02 0.  0.
          2    1    3    3  502    0  0.86518737027E+03  0.86789571925E+02 -0.38170332351E+03  0.94962047295E+03  0.00000000000E+00 0. -1.
         -1    1    3    3    0  502  0.64230543644E+03  0.10534312192E+03 -0.34540844884E+03  0.73685849629E+03  0.00000000000E+00 0.  1.
         11    1    5    5    0    0 -0.15021172207E+02  0.17925286130E+02  0.18847935390E+02  0.30036580461E+02  0.00000000000E+00 0. -1.
        -11    1    5    5    0    0 -0.75153602938E+02  0.23418947140E+03 -0.94478271631E+02  0.26347469776E+03  0.00000000000E+00 0.  1.
          3    1    6    6  503    0 -0.40717370076E+02 -0.28058341092E+02 -0.24325468547E+02  0.55108104221E+02  0.00000000000E+00 0. -1.
         -3    1    6    6    0  503 -0.13766006615E+04 -0.41618911029E+03 -0.49882583875E+03  0.15221924892E+04  0.00000000000E+00 0.  1.
<mgrwt>
<rscale>  0 0.33009582E+04</rscale>
<asrwt>0</asrwt>
<pdfrwt beam="1">  1        2 0.37562955E+00 0.33009582E+04</pdfrwt>
<pdfrwt beam="2">  1       -1 0.17164596E+00 0.33009582E+04</pdfrwt>
<totfact> 0.85452837E-01</totfact>
</mgrwt>
</event>
<event>
12    6  0.1538774E-007  0.2161406E+04  0.7818608E-02  0.8534666E-01
          2   -1    0    0  501    0  0.00000000000E+00  0.00000000000E+00  0.77781350107E+03  0.77781350107E+03  0.00000000000E+00 0. -1.
         -1   -1    0    0    0  501 -0.00000000000E+00 -0.00000000000E+00 -0.15015404527E+04  0.15015404527E+04  0.00000000000E+00 0.  1.
         24    2    1    2    0    0  0.37663579936E+03  0.79826230110E+03 -0.46031478946E+03  0.10008253491E+04  0.10336560037E+03 0.  0.
        254    2    1    2    0    0 -0.37663579936E+03 -0.79826230110E+03 -0.26341216218E+03  0.12785286046E+04  0.88666352073E+03 0.  0.
         23    2    4    4    0    0 -0.21054896926E+03 -0.45614188070E+03 -0.58237176391E+03  0.77445735024E+03  0.90725036010E+02 0.  0.
         23    2    4    4    0    0 -0.16608683009E+03 -0.34212042040E+03  0.31895960174E+03  0.50407125440E+03  0.87871410512E+02 0.  0.
          4    1    3    3  502    0  0.20253534067E+03  0.50753307379E+03 -0.32598887053E+03  0.63630113069E+03  0.00000000000E+00 0. -1.
         -3    1    3    3    0  502  0.17410045869E+03  0.29072922731E+03 -0.13432591893E+03  0.36452421844E+03  0.00000000000E+00 0.  1.
         11    1    5    5    0    0 -0.18636386931E+02 -0.12189272933E+03 -0.16994208115E+03  0.20996538602E+03  0.00000000000E+00 0. -1.
        -11    1    5    5    0    0 -0.19191258233E+03 -0.33424915137E+03 -0.41242968276E+03  0.56449196422E+03  0.00000000000E+00 0.  1.
          2    1    6    6  503    0 -0.12205370275E+03 -0.15207667649E+03  0.15048412254E+03  0.24631259209E+03  0.00000000000E+00 0. -1.
         -2    1    6    6    0  503 -0.44033127349E+02 -0.19004374392E+03  0.16847547920E+03  0.25775866231E+03  0.00000000000E+00 0.  1.
<mgrwt>
<rscale>  0 0.21614055E+04</rscale>
<asrwt>0</asrwt>
<pdfrwt beam="1">  1        2 0.11966362E+00 0.21614055E+04</pdfrwt>
<pdfrwt beam="2">  1       -1 0.23100622E+00 0.21614055E+04</pdfrwt>
<totfact> 0.34770807E+00</totfact>
</mgrwt>
</event>
<event>
12    6  0.1538774E-007  0.3809567E+04  0.7818608E-02  0.8044105E-01
         -1   -1    0    0    0  501 -0.00000000000E+00  0.00000000000E+00  0.18389418983E+04  0.18389418983E+04  0.00000000000E+00 0.  1.
          2   -1    0    0  501    0  0.00000000000E+00 -0.00000000000E+00 -0.19729829488E+04  0.19729829488E+04  0.00000000000E+00 0. -1.
         24    2    1    2    0    0 -0.75995122761E+03 -0.13810701199E+04 -0.92131419921E+03  0.18276148897E+04  0.80472273820E+02 0.  0.
        254    2    1    2    0    0  0.75995122761E+03  0.13810701199E+04  0.78727314874E+03  0.19843099574E+04  0.91258229871E+03 0.  0.
         23    2    4    4    0    0  0.60418105639E+03  0.42320096889E+03  0.67432531509E+03  0.10030219177E+04  0.84879490730E+02 0.  0.
         23    2    4    4    0    0  0.15577017122E+03  0.95786915105E+03  0.11294783366E+03  0.98128803969E+03  0.91604295363E+02 0.  0.
          4    1    3    3  502    0 -0.70909244028E+03 -0.12589186609E+04 -0.82362342785E+03  0.16631427583E+04  0.00000000000E+00 0. -1.
         -3    1    3    3    0  502 -0.50858787331E+02 -0.12215145902E+03 -0.97690771366E+02  0.16447213138E+03  0.00000000000E+00 0.  1.
         11    1    5    5    0    0  0.16812028330E+02  0.16613359972E+02  0.51501320666E+01  0.24190326299E+02  0.00000000000E+00 0. -1.
        -11    1    5    5    0    0  0.58736902806E+03  0.40658760892E+03  0.66917518302E+03  0.97883159145E+03  0.00000000000E+00 0.  1.
          4    1    6    6  503    0  0.10435209511E+03  0.42393356002E+03  0.80121354808E+02  0.44387887374E+03  0.00000000000E+00 0. -1.
         -4    1    6    6    0  503  0.51418076111E+02  0.53393559103E+03  0.32826478847E+02  0.53740916594E+03  0.00000000000E+00 0.  1.
<mgrwt>
<rscale>  0 0.38095674E+04</rscale>
<asrwt>0</asrwt>
<pdfrwt beam="1">  1        2 0.30353584E+00 0.38095674E+04</pdfrwt>
<pdfrwt beam="2">  1       -1 0.28291414E+00 0.38095674E+04</pdfrwt>
<totfact> 0.26865519E-01</totfact>
</mgrwt>
</event>
<event>
12    6  0.1538774E-007  0.1905823E+04  0.7818608E-02  0.8651963E-01
          2   -1    0    0  501    0  0.00000000000E+00  0.00000000000E+00  0.10732985988E+04  0.10732985988E+04  0.00000000000E+00 0. -1.
         -1   -1    0    0    0  501 -0.00000000000E+00 -0.00000000000E+00 -0.84602773819E+03  0.84602773819E+03  0.00000000000E+00 0.  1.
         24    2    1    2    0    0  0.60408857603E+02  0.96963251157E+02 -0.64531655602E+03  0.65986600900E+03  0.77062248838E+02 0.  0.
        254    2    1    2    0    0 -0.60408857603E+02 -0.96963251157E+02  0.87258741662E+03  0.12594603280E+04  0.90098857704E+03 0.  0.
         23    2    4    4    0    0 -0.29459391363E+03  0.29498203262E+03  0.53367437359E+03  0.68372630281E+03  0.94198442752E+02 0.  0.
         23    2    4    4    0    0  0.23418505603E+03 -0.39194528378E+03  0.33891304303E+03  0.57573402516E+03  0.90243398938E+02 0.  0.
          4    1    3    3  502    0  0.17986163494E+02 -0.11227860834E+02 -0.82884586636E+02  0.85553618497E+02  0.00000000000E+00 0. -1.
         -3    1    3    3    0  502  0.42422694109E+02  0.10819111199E+03 -0.56243196939E+03  0.57431239050E+03  0.00000000000E+00 0.  1.
         11    1    5    5    0    0 -0.13621179806E+03  0.11102471104E+03  0.29452993531E+03  0.34296942019E+03  0.00000000000E+00 0.  1.
        -11    1    5    5    0    0 -0.15838211557E+03  0.18395732158E+03  0.23914443828E+03  0.34075688263E+03  0.00000000000E+00 0. -1.
          4    1    6    6  503    0  0.86865043880E+02 -0.13159140357E+03  0.17134734205E+03  0.23285563117E+03  0.00000000000E+00 0. -1.
         -4    1    6    6    0  503  0.14732001215E+03 -0.26035388021E+03  0.16756570098E+03  0.34287839399E+03  0.00000000000E+00 0.  1.
<mgrwt>
<rscale>  0 0.19058231E+04</rscale>
<asrwt>0</asrwt>
<pdfrwt beam="1">  1        2 0.16512286E+00 0.19058231E+04</pdfrwt>
<pdfrwt beam="2">  1       -1 0.13015811E+00 0.19058231E+04</pdfrwt>
<totfact> 0.12219732E+01</totfact>
</mgrwt>
</event>
<event>
12    6  0.1538774E-007  0.2278700E+04  0.7818608E-02  0.8486367E-01
         -1   -1    0    0    0  501 -0.00000000000E+00  0.00000000000E+00  0.94849112796E+03  0.94849112796E+03  0.00000000000E+00 0.  1.
          2   -1    0    0  501    0  0.00000000000E+00 -0.00000000000E+00 -0.13686136840E+04  0.13686136840E+04  0.00000000000E+00 0. -1.
         24    2    1    2    0    0  0.75730736086E+03  0.46508545273E+03 -0.64516003504E+03  0.11014097244E+04  0.83982099962E+02 0.  0.
        254    2    1    2    0    0 -0.75730736086E+03 -0.46508545273E+03  0.22503747896E+03  0.12156950876E+04  0.79840701516E+03 0.  0.
         23    2    4    4    0    0 -0.55746429192E+03 -0.18006595209E+02  0.39298033342E+03  0.68843647879E+03  0.91763656427E+02 0.  0.
         23    2    4    4    0    0 -0.19984306894E+03 -0.44707885752E+03 -0.16794285446E+03  0.52725860878E+03  0.99900355982E+02 0.  0.
          2    1    3    3  502    0  0.69181104191E+03  0.45053631164E+03 -0.59729950679E+03  0.10189956755E+04  0.00000000000E+00 0. -1.
         -1    1    3    3    0  502  0.65496318944E+02  0.14549141086E+02 -0.47860528256E+02  0.82414048963E+02  0.00000000000E+00 0.  1.
         11    1    5    5    0    0 -0.34137625444E+03  0.33785632695E+02  0.23913711663E+03  0.41816955487E+03  0.00000000000E+00 0. -1.
        -11    1    5    5    0    0 -0.21608803748E+03 -0.51792227903E+02  0.15384321680E+03  0.27026692392E+03  0.00000000000E+00 0.  1.
          2    1    6    6  503    0 -0.17558891745E+03 -0.28569964216E+03 -0.95252616073E+02  0.34860983109E+03  0.00000000000E+00 0. -1.
         -2    1    6    6    0  503 -0.24254151485E+02 -0.16137921536E+03 -0.72690238383E+02  0.17864877769E+03  0.00000000000E+00 0.  1.
<mgrwt>
<rscale>  0 0.22786996E+04</rscale>
<asrwt>0</asrwt>
<pdfrwt beam="1">  1        2 0.21055595E+00 0.22786996E+04</pdfrwt>
<pdfrwt beam="2">  1       -1 0.14592171E+00 0.22786996E+04</pdfrwt>
<totfact> 0.58648690E+00</totfact>
</mgrwt>
</event>
<event>
12    6  0.1538774E-007  0.2394593E+04  0.7818608E-02  0.8441531E-01
         -1   -1    0    0    0  501 -0.00000000000E+00  0.00000000000E+00  0.48873868402E+03  0.48873868402E+03  0.00000000000E+00 0.  1.
          2   -1    0    0  501    0  0.00000000000E+00 -0.00000000000E+00 -0.29330977765E+04  0.29330977765E+04  0.00000000000E+00 0. -1.
         24    2    1    2    0    0 -0.70369162159E+03  0.44634718247E+03 -0.18950739172E+04  0.20725972705E+04  0.99732585640E+02 0.  0.
        254    2    1    2    0    0  0.70369162159E+03 -0.44634718247E+03 -0.54928517523E+03  0.13492391899E+04  0.90792316983E+03 0.  0.
         23    2    4    4    0    0  0.16236176967E+03 -0.29363004025E+03  0.20510780400E+03  0.40387512761E+03  0.92010665963E+02 0.  0.
         23    2    4    4    0    0  0.54132985192E+03 -0.15271714221E+03 -0.75439297923E+03  0.94536406232E+03  0.90795975147E+02 0.  0.
          2    1    3    3  502    0 -0.31924717967E+03  0.16945704590E+03 -0.92203229022E+03  0.99034236320E+03  0.00000000000E+00 0. -1.
         -1    1    3    3    0  502 -0.38444444192E+03  0.27689013656E+03 -0.97304162698E+03  0.10822549073E+04  0.00000000000E+00 0.  1.
         11    1    5    5    0    0  0.83613716166E+02 -0.22410958015E+03  0.16868161716E+03  0.29269411578E+03  0.00000000000E+00 0. -1.
        -11    1    5    5    0    0  0.78748053503E+02 -0.69520460102E+02  0.36426186845E+02  0.11118101183E+03  0.00000000000E+00 0.  1.
          3    1    6    6  503    0  0.54796105699E+02 -0.38599314468E+02 -0.12360676082E+03  0.14060992709E+03  0.00000000000E+00 0.  1.
         -3    1    6    6    0  503  0.48653374623E+03 -0.11411782775E+03 -0.63078621841E+03  0.80475413523E+03  0.00000000000E+00 0. -1.
<mgrwt>
<rscale>  0 0.23945925E+04</rscale>
<asrwt>0</asrwt>
<pdfrwt beam="1">  1        2 0.45124581E+00 0.23945925E+04</pdfrwt>
<pdfrwt beam="2">  1       -1 0.75190567E-01 0.23945925E+04</pdfrwt>
<totfact> 0.34893194E+00</totfact>
</mgrwt>
</event>
<event>
12    6  0.1538774E-007  0.2195716E+04  0.7818608E-02  0.8520213E-01
         -1   -1    0    0    0  501 -0.00000000000E+00  0.00000000000E+00  0.96980237681E+03  0.96980237681E+03  0.00000000000E+00 0.  1.
          2   -1    0    0  501    0  0.00000000000E+00 -0.00000000000E+00 -0.12428223372E+04  0.12428223372E+04  0.00000000000E+00 0. -1.
         24    2    1    2    0    0  0.22334491870E+03  0.40726314639E+03  0.66423236508E+03  0.81417287403E+03  0.76984484615E+02 0.  0.
        254    2    1    2    0    0 -0.22334491870E+03 -0.40726314639E+03 -0.93725232546E+03  0.13984518400E+04  0.92815914801E+03 0.  0.
         23    2    4    4    0    0 -0.16149234538E+01 -0.16122456359E+03 -0.10260728210E+04  0.10436017301E+04  0.10140596152E+03 0.  0.
         23    2    4    4    0    0 -0.22172999524E+03 -0.24603858280E+03  0.88820495587E+02  0.35485010991E+03  0.91270723938E+02 0.  0.
          2    1    3    3  502    0  0.38734080870E+02  0.69102139162E+02  0.16969526261E+03  0.18727497647E+03  0.00000000000E+00 0. -1.
         -1    1    3    3    0  502  0.18461083783E+03  0.33816100722E+03  0.49453710247E+03  0.62689789756E+03  0.00000000000E+00 0.  1.
         11    1    5    5    0    0 -0.32941902160E+02 -0.62984704707E+02 -0.22606336540E+03  0.23697444402E+03  0.00000000000E+00 0. -1.
        -11    1    5    5    0    0  0.31326978707E+02 -0.98239858879E+02 -0.80000945565E+03  0.80662728604E+03  0.00000000000E+00 0.  1.
          1    1    6    6  503    0 -0.90427905893E+02 -0.45101075294E+02  0.71531245977E+01  0.10130390095E+03  0.00000000000E+00 0. -1.
         -1    1    6    6    0  503 -0.13130208935E+03 -0.20093750751E+03  0.81667370990E+02  0.25354620895E+03  0.00000000000E+00 0.  1.
<mgrwt>
<rscale>  0 0.21957159E+04</rscale>
<asrwt>0</asrwt>
<pdfrwt beam="1">  1        2 0.19120344E+00 0.21957159E+04</pdfrwt>
<pdfrwt beam="2">  1       -1 0.14920037E+00 0.21957159E+04</pdfrwt>
<totfact> 0.65899476E+00</totfact>
</mgrwt>
</event>
<event>
12    6  0.1538774E-007  0.1305113E+04  0.7818608E-02  0.9025520E-01
         -1   -1    0    0    0  501 -0.00000000000E+00  0.00000000000E+00  0.13548602513E+04  0.13548602513E+04  0.00000000000E+00 0.  1.
          2   -1    0    0  501    0  0.00000000000E+00 -0.00000000000E+00 -0.31429807538E+03  0.31429807538E+03  0.00000000000E+00 0. -1.
         24    2    1    2    0    0  0.10905713608E+03  0.30534090593E+03  0.10022684236E+03  0.34858045417E+03  0.79601415417E+02 0.  0.
        254    2    1    2    0    0 -0.10905713608E+03 -0.30534090593E+03  0.94033533357E+03  0.13205778725E+04  0.86865922550E+03 0.  0.
         23    2    4    4    0    0 -0.28742735518E+03 -0.47848281253E+03  0.88173880172E+03  0.10467866222E+04  0.82089167844E+02 0.  0.
         23    2    4    4    0    0  0.17837021910E+03  0.17314190659E+03  0.58596531854E+02  0.27379125036E+03  0.98661240359E+02 0.  0.
          2    1    3    3  502    0  0.38378030244E+02  0.30790595108E+02  0.47446111144E+01  0.49431217738E+02  0.00000000000E+00 0. -1.
         -1    1    3    3    0  502  0.70679105838E+02  0.27455031083E+03  0.95482231245E+02  0.29914923644E+03  0.00000000000E+00 0.  1.
         11    1    5    5    0    0 -0.38132449054E+02 -0.86840739347E+02  0.10182208211E+03  0.13915147892E+03  0.00000000000E+00 0.  1.
        -11    1    5    5    0    0 -0.24929490613E+03 -0.39164207318E+03  0.77991671961E+03  0.90763514324E+03  0.00000000000E+00 0. -1.
          2    1    6    6  503    0  0.12062785389E+03  0.15552684381E+03  0.11384708284E+02  0.19715296057E+03  0.00000000000E+00 0. -1.
         -2    1    6    6    0  503  0.57742365209E+02  0.17615062780E+02  0.47211823570E+02  0.76638289787E+02  0.00000000000E+00 0.  1.
<mgrwt>
<rscale>  0 0.13051130E+04</rscale>
<asrwt>0</asrwt>
<pdfrwt beam="1">  1        2 0.48353551E-01 0.13051130E+04</pdfrwt>
<pdfrwt beam="2">  1       -1 0.20844004E+00 0.13051130E+04</pdfrwt>
<totfact> 0.15412550E+01</totfact>
</mgrwt>
</event>
<event>
12    6  0.1538774E-007  0.2521625E+04  0.7818608E-02  0.8395322E-01
         -1   -1    0    0    0  501 -0.00000000000E+00  0.00000000000E+00  0.20872786330E+04  0.20872786330E+04  0.00000000000E+00 0.  1.
          2   -1    0    0  501    0  0.00000000000E+00 -0.00000000000E+00 -0.76158916333E+03  0.76158916333E+03  0.00000000000E+00 0. -1.
         24    2    1    2    0    0  0.10668937670E+04 -0.67781891983E+02  0.90440287619E+03  0.14025286267E+04  0.79279829516E+02 0.  0.
        254    2    1    2    0    0 -0.10668937670E+04  0.67781891983E+02  0.42128659351E+03  0.14463391696E+04  0.87838368887E+03 0.  0.
         23    2    4    4    0    0 -0.98034404626E+03  0.26337578925E+03  0.66402001877E+02  0.10216837574E+04  0.94800943752E+02 0.  0.
         23    2    4    4    0    0 -0.86549720732E+02 -0.19559389727E+03  0.35488459163E+03  0.42465541223E+03  0.92958694855E+02 0.  0.
          4    1    3    3  502    0  0.12508839976E+03  0.15117894915E+02  0.12098108059E+03  0.17467707451E+03  0.00000000000E+00 0. -1.
         -3    1    3    3    0  502  0.94180536723E+03 -0.82899786898E+02  0.78342179560E+03  0.12278515522E+04  0.00000000000E+00 0.  1.
         11    1    5    5    0    0 -0.98151313333E+03  0.26183283588E+03  0.63023528203E+02  0.10177899734E+04  0.00000000000E+00 0. -1.
        -11    1    5    5    0    0  0.11690870715E+01  0.15429533647E+01  0.33784736745E+01  0.38937840253E+01  0.00000000000E+00 0.  1.
          1    1    6    6  503    0 -0.22711345167E+02 -0.13385248141E+03  0.15576343280E+03  0.20662656890E+03  0.00000000000E+00 0. -1.
         -1    1    6    6    0  503 -0.63838375565E+02 -0.61741415856E+02  0.19912115883E+03  0.21802884333E+03  0.00000000000E+00 0.  1.
<mgrwt>
<rscale>  0 0.25216255E+04</rscale>
<asrwt>0</asrwt>
<pdfrwt beam="1">  1        2 0.11716756E+00 0.25216255E+04</pdfrwt>
<pdfrwt beam="2">  1       -1 0.32111979E+00 0.25216255E+04</pdfrwt>
<totfact> 0.89848907E-01</totfact>
</mgrwt>
</event>
<event>
12    6  0.1538774E-007  0.1596269E+04  0.7818608E-02  0.8822843E-01
         -1   -1    0    0    0  501 -0.00000000000E+00  0.00000000000E+00  0.61809499387E+03  0.61809499387E+03  0.00000000000E+00 0.  1.
          2   -1    0    0  501    0  0.00000000000E+00 -0.00000000000E+00 -0.10306162448E+04  0.10306162448E+04  0.00000000000E+00 0. -1.
         24    2    1    2    0    0  0.40897803322E+03 -0.32484775999E+03 -0.19405471005E+02  0.52869289007E+03  0.79690029971E+02 0.  0.
        254    2    1    2    0    0 -0.40897803322E+03  0.32484775999E+03 -0.39311577993E+03  0.11200183486E+04  0.90945697311E+03 0.  0.
         23    2    4    4    0    0 -0.69177980429E+03  0.22967380215E+03 -0.31058006943E+03  0.79766701573E+03  0.92213531769E+02 0.  0.
         23    2    4    4    0    0  0.28280177106E+03  0.95173957844E+02 -0.82535710499E+02  0.32235133287E+03  0.89795959419E+02 0.  0.
          4    1    3    3  502    0  0.29952525983E+03 -0.22262900905E+03 -0.47842580190E+02  0.37625519189E+03  0.00000000000E+00 0. -1.
         -3    1    3    3    0  502  0.10945277339E+03 -0.10221875094E+03  0.28437109185E+02  0.15243769818E+03  0.00000000000E+00 0.  1.
         11    1    5    5    0    0 -0.59283948075E+03  0.20855755359E+03 -0.29862086907E+03  0.69579402594E+03  0.00000000000E+00 0. -1.
        -11    1    5    5    0    0 -0.98940323531E+02  0.21116248560E+02 -0.11959200364E+02  0.10187298978E+03  0.00000000000E+00 0.  1.
          1    1    6    6  503    0  0.24201535579E+03  0.43861277482E+02 -0.61820139537E+02  0.25360791342E+03  0.00000000000E+00 0. -1.
         -1    1    6    6    0  503  0.40786415278E+02  0.51312680362E+02 -0.20715570962E+02  0.68743419448E+02  0.00000000000E+00 0.  1.
<mgrwt>
<rscale>  0 0.15962691E+04</rscale>
<asrwt>0</asrwt>
<pdfrwt beam="1">  1        2 0.15855634E+00 0.15962691E+04</pdfrwt>
<pdfrwt beam="2">  1       -1 0.95091538E-01 0.15962691E+04</pdfrwt>
<totfact> 0.28157999E+01</totfact>
</mgrwt>
</event>
<event>
12    6  0.1538774E-007  0.2056478E+04  0.7818608E-02  0.8580661E-01
          2   -1    0    0  501    0  0.00000000000E+00  0.00000000000E+00  0.86994503432E+03  0.86994503432E+03  0.00000000000E+00 0. -1.
         -1   -1    0    0    0  501 -0.00000000000E+00 -0.00000000000E+00 -0.12153364449E+04  0.12153364449E+04  0.00000000000E+00 0.  1.
         24    2    1    2    0    0 -0.41092893634E+03 -0.30500659700E+03  0.54848171678E+03  0.75441363741E+03  0.80100734893E+02 0.  0.
        254    2    1    2    0    0  0.41092893634E+03  0.30500659700E+03 -0.89387312736E+03  0.13308678418E+04  0.84279797676E+03 0.  0.
         23    2    4    4    0    0  0.59409844138E+03  0.24509793697E+03 -0.33015879490E+03  0.72819718731E+03  0.90776412120E+02 0.  0.
         23    2    4    4    0    0 -0.18316950504E+03  0.59908660035E+02 -0.56371433246E+03  0.60267065451E+03  0.91093106547E+02 0.  0.
          4    1    3    3  502    0 -0.31039755451E+03 -0.27039316793E+03  0.43432244977E+03  0.59841047574E+03  0.00000000000E+00 0. -1.
         -3    1    3    3    0  502 -0.10053138183E+03 -0.34613429077E+02  0.11415926702E+03  0.15600316167E+03  0.00000000000E+00 0.  1.
         11    1    5    5    0    0  0.49994213258E+03  0.19164686853E+03 -0.23765105803E+03  0.58578894111E+03  0.00000000000E+00 0.  1.
        -11    1    5    5    0    0  0.94156308802E+02  0.53451068436E+02 -0.92507736871E+02  0.14240824620E+03  0.00000000000E+00 0. -1.
          1    1    6    6  503    0 -0.98261476889E+01 -0.14484681698E+02 -0.17288306192E+02  0.24601721754E+02  0.00000000000E+00 0. -1.
         -1    1    6    6    0  503 -0.17334335735E+03  0.74393341733E+02 -0.54642602627E+03  0.57806893276E+03  0.00000000000E+00 0.  1.
<mgrwt>
<rscale>  0 0.20564785E+04</rscale>
<asrwt>0</asrwt>
<pdfrwt beam="1">  1        2 0.13383770E+00 0.20564785E+04</pdfrwt>
<pdfrwt beam="2">  1       -1 0.18697484E+00 0.20564785E+04</pdfrwt>
<totfact> 0.60201932E+00</totfact>
</mgrwt>
</event>
<event>
12    6  0.1538774E-007  0.2301513E+04  0.7818608E-02  0.8477325E-01
          2   -1    0    0  501    0  0.00000000000E+00  0.00000000000E+00  0.29634951643E+04  0.29634951643E+04  0.00000000000E+00 0. -1.
         -1   -1    0    0    0  501 -0.00000000000E+00 -0.00000000000E+00 -0.44685099516E+03  0.44685099516E+03  0.00000000000E+00 0.  1.
         24    2    1    2    0    0 -0.79347937005E+03  0.38862439670E+03  0.48469483441E+03  0.10111305453E+04  0.82567939928E+02 0.  0.
        254    2    1    2    0    0  0.79347937005E+03 -0.38862439670E+03  0.20319493348E+04  0.23992156142E+04  0.92020597261E+03 0.  0.
         23    2    4    4    0    0 -0.17227394385E+03  0.22803705685E+02  0.17273980343E+03  0.26217468153E+03  0.93264158311E+02 0.  0.
         23    2    4    4    0    0  0.96575331391E+03 -0.41142810238E+03  0.18592095313E+04  0.21370409327E+04  0.91276063551E+02 0.  0.
          4    1    3    3  502    0 -0.21356927431E+03  0.95921091207E+02  0.88746658563E+02  0.25037703583E+03  0.00000000000E+00 0. -1.
         -3    1    3    3    0  502 -0.57991009575E+03  0.29270330549E+03  0.39594817584E+03  0.76075350946E+03  0.00000000000E+00 0.  1.
         11    1    5    5    0    0 -0.14752448513E+03  0.50700591669E+01  0.87352720928E+02  0.17152165189E+03  0.00000000000E+00 0. -1.
        -11    1    5    5    0    0 -0.24749458720E+02  0.17733646518E+02  0.85387082498E+02  0.90653029642E+02  0.00000000000E+00 0.  1.
          3    1    6    6  503    0  0.83761211859E+03 -0.33638602643E+03  0.15412377860E+04  0.17861028898E+04  0.00000000000E+00 0. -1.
         -3    1    6    6    0  503  0.12814119532E+03 -0.75042075952E+02  0.31797174536E+03  0.35093804289E+03  0.00000000000E+00 0.  1.
<mgrwt>
<rscale>  0 0.23015132E+04</rscale>
<asrwt>0</asrwt>
<pdfrwt beam="1">  1        2 0.45592232E+00 0.23015132E+04</pdfrwt>
<pdfrwt beam="2">  1       -1 0.68746309E-01 0.23015132E+04</pdfrwt>
<totfact> 0.40552042E+00</totfact>
</mgrwt>
</event>
<event>
12    6  0.1538774E-007  0.1608282E+04  0.7818608E-02  0.8815476E-01
         -1   -1    0    0    0  501 -0.00000000000E+00  0.00000000000E+00  0.24832349413E+03  0.24832349413E+03  0.00000000000E+00 0.  1.
          2   -1    0    0  501    0  0.00000000000E+00 -0.00000000000E+00 -0.26040331525E+04  0.26040331525E+04  0.00000000000E+00 0. -1.
         24    2    1    2    0    0 -0.20334532333E+03 -0.49728546564E+02  0.87505183398E+02  0.24131764888E+03  0.82187600507E+02 0.  0.
        254    2    1    2    0    0  0.20334532333E+03  0.49728546564E+02 -0.24432148418E+04  0.26110389978E+04  0.89688551992E+03 0.  0.
         23    2    4    4    0    0  0.24690747608E+03 -0.38954462147E+03 -0.11964852255E+04  0.12853832649E+04  0.89022070006E+02 0.  0.
         23    2    4    4    0    0 -0.43562152757E+02  0.43927316804E+03 -0.12467296163E+04  0.13256557329E+04  0.90386993889E+02 0.  0.
          2    1    3    3  502    0 -0.59823592311E+01  0.15206730773E+02  0.13653073409E+01  0.16398089733E+02  0.00000000000E+00 0. -1.
         -1    1    3    3    0  502 -0.19736296410E+03 -0.64935277337E+02  0.86139876058E+02  0.22491955915E+03  0.00000000000E+00 0.  1.
         11    1    5    5    0    0  0.54136646652E+02 -0.30943208550E+02 -0.17298028992E+03  0.18387615226E+03  0.00000000000E+00 0.  1.
        -11    1    5    5    0    0  0.19277082943E+03 -0.35860141292E+03 -0.10235049356E+04  0.11015071126E+04  0.00000000000E+00 0. -1.
          4    1    6    6  503    0 -0.54106754893E+02  0.19213920260E+03 -0.47450999702E+03  0.51478612197E+03  0.00000000000E+00 0. -1.
         -4    1    6    6    0  503  0.10544602137E+02  0.24713396544E+03 -0.77221961927E+03  0.81086961091E+03  0.00000000000E+00 0.  1.
<mgrwt>
<rscale>  0 0.16082818E+04</rscale>
<asrwt>0</asrwt>
<pdfrwt beam="1">  1        2 0.40062050E+00 0.16082818E+04</pdfrwt>
<pdfrwt beam="2">  1       -1 0.38203613E-01 0.16082818E+04</pdfrwt>
<totfact> 0.21938916E+01</totfact>
</mgrwt>
</event>
<event>
12    6  0.1538774E-007  0.2081167E+04  0.7818608E-02  0.8569585E-01
         -1   -1    0    0    0  501 -0.00000000000E+00  0.00000000000E+00  0.45789826896E+03  0.45789826896E+03  0.00000000000E+00 0.  1.
          2   -1    0    0  501    0  0.00000000000E+00 -0.00000000000E+00 -0.23647484585E+04  0.23647484585E+04  0.00000000000E+00 0. -1.
         24    2    1    2    0    0  0.67317033046E+03  0.81477297120E+02 -0.14530019173E+04  0.16056232843E+04  0.83753898523E+02 0.  0.
        254    2    1    2    0    0 -0.67317033046E+03 -0.81477297120E+02 -0.45384827219E+03  0.12170234432E+04  0.90297893845E+03 0.  0.
         23    2    4    4    0    0 -0.45094246579E+03  0.37280726458E+03 -0.12356668648E+03  0.60508554123E+03  0.92333212939E+02 0.  0.
         23    2    4    4    0    0 -0.22222786466E+03 -0.45428456170E+03 -0.33028158571E+03  0.61193790194E+03  0.98093746674E+02 0.  0.
          2    1    3    3  502    0  0.54122984095E+03  0.62790064868E+02 -0.10825976491E+04  0.12119777237E+04  0.00000000000E+00 0. -1.
         -1    1    3    3    0  502  0.13194048951E+03  0.18687232252E+02 -0.37040426824E+03  0.39364556056E+03  0.00000000000E+00 0.  1.
         11    1    5    5    0    0 -0.26028919582E+03  0.27204158762E+03 -0.85806474170E+02  0.38616038360E+03  0.00000000000E+00 0.  1.
        -11    1    5    5    0    0 -0.19065326998E+03  0.10076567696E+03 -0.37760212312E+02  0.21892515762E+03  0.00000000000E+00 0. -1.
          3    1    6    6  503    0 -0.19669113460E+02 -0.13488770580E+03 -0.74375672913E+02  0.15528460297E+03  0.00000000000E+00 0. -1.
         -3    1    6    6    0  503 -0.20255875120E+03 -0.31939685590E+03 -0.25590591279E+03  0.45665329896E+03  0.00000000000E+00 0.  1.
<mgrwt>
<rscale>  0 0.20811672E+04</rscale>
<asrwt>0</asrwt>
<pdfrwt beam="1">  1        2 0.36380746E+00 0.20811672E+04</pdfrwt>
<pdfrwt beam="2">  1       -1 0.70445887E-01 0.20811672E+04</pdfrwt>
<totfact> 0.89107211E+00</totfact>
</mgrwt>
</event>
<event>
12    6  0.1538774E-007  0.1447135E+04  0.7818608E-02  0.8920389E-01
         -1   -1    0    0    0  501 -0.00000000000E+00  0.00000000000E+00  0.36526291111E+03  0.36526291111E+03  0.00000000000E+00 0.  1.
          2   -1    0    0  501    0  0.00000000000E+00 -0.00000000000E+00 -0.14333508984E+04  0.14333508984E+04  0.00000000000E+00 0. -1.
         24    2    1    2    0    0 -0.13094965175E+03 -0.26619274866E+02 -0.84643284101E+03  0.86094359315E+03  0.83180040537E+02 0.  0.
        254    2    1    2    0    0  0.13094965175E+03  0.26619274866E+02 -0.22165514628E+03  0.93767021636E+03  0.90124249439E+03 0.  0.
         23    2    4    4    0    0 -0.11149751179E+03  0.22279291664E+03 -0.46200902952E+03  0.53365184810E+03  0.96247455994E+02 0.  0.
         23    2    4    4    0    0  0.24244716354E+03 -0.19617364177E+03  0.24035388324E+03  0.40401836826E+03  0.90532468547E+02 0.  0.
          4    1    3    3  502    0 -0.14138755516E+03 -0.17681502232E+02 -0.79696588750E+03  0.80960342274E+03  0.00000000000E+00 0. -1.
         -3    1    3    3    0  502  0.10437903409E+02 -0.89377726346E+01 -0.49466953516E+02  0.51340170407E+02  0.00000000000E+00 0.  1.
         11    1    5    5    0    0  0.77223377484E+01  0.57514815298E+01 -0.65255582043E+02  0.65962148448E+02  0.00000000000E+00 0.  1.
        -11    1    5    5    0    0 -0.11921984954E+03  0.21704143511E+03 -0.39675344748E+03  0.46768969966E+03  0.00000000000E+00 0. -1.
          1    1    6    6  503    0  0.20540205171E+03 -0.18128283445E+03  0.16796737944E+03  0.32135106888E+03  0.00000000000E+00 0. -1.
         -1    1    6    6    0  503  0.37045111831E+02 -0.14890807319E+02  0.72386503800E+02  0.82667299373E+02  0.00000000000E+00 0.  1.
<mgrwt>
<rscale>  0 0.14471350E+04</rscale>
<asrwt>0</asrwt>
<pdfrwt beam="1">  1        2 0.22051552E+00 0.14471350E+04</pdfrwt>
<pdfrwt beam="2">  1       -1 0.56194295E-01 0.14471350E+04</pdfrwt>
<totfact> 0.49048832E+01</totfact>
</mgrwt>
</event>
<event>
12    6  0.1538774E-007  0.1340530E+04  0.7818608E-02  0.8998028E-01
          2   -1    0    0  501    0  0.00000000000E+00  0.00000000000E+00  0.10865756141E+04  0.10865756141E+04  0.00000000000E+00 0. -1.
         -1   -1    0    0    0  501 -0.00000000000E+00 -0.00000000000E+00 -0.41345969830E+03  0.41345969830E+03  0.00000000000E+00 0.  1.
         24    2    1    2    0    0 -0.20969379705E+03  0.25298454446E+03  0.33682780601E+03  0.47626502207E+03  0.73503279474E+02 0.  0.
        254    2    1    2    0    0  0.20969379705E+03 -0.25298454446E+03  0.33628810982E+03  0.10237702904E+04  0.90941918077E+03 0.  0.
         23    2    4    4    0    0 -0.28375462042E+03 -0.34518053542E+03  0.18069654662E+03  0.49039350706E+03  0.90378444139E+02 0.  0.
         23    2    4    4    0    0  0.49344841748E+03  0.92195990959E+02  0.15559156320E+03  0.53337678329E+03  0.91052825098E+02 0.  0.
          2    1    3    3  502    0 -0.15835338339E+03  0.16913742445E+03  0.19039943386E+03  0.29989199189E+03  0.00000000000E+00 0. -1.
         -1    1    3    3    0  502 -0.51340413659E+02  0.83847120005E+02  0.14642837215E+03  0.17637303019E+03  0.00000000000E+00 0.  1.
         11    1    5    5    0    0 -0.27135364311E+03 -0.28919020788E+03  0.14204539254E+03  0.42123707043E+03  0.00000000000E+00 0. -1.
        -11    1    5    5    0    0 -0.12400977315E+02 -0.55990327534E+02  0.38651154078E+02  0.69156436629E+02  0.00000000000E+00 0.  1.
          3    1    6    6  503    0  0.34614262747E+03  0.10532992815E+03  0.12082753315E+03  0.38145563973E+03  0.00000000000E+00 0. -1.
         -3    1    6    6    0  503  0.14730579001E+03 -0.13133937192E+02  0.34764030047E+02  0.15192114356E+03  0.00000000000E+00 0.  1.
<mgrwt>
<rscale>  0 0.13405301E+04</rscale>
<asrwt>0</asrwt>
<pdfrwt beam="1">  1        2 0.16716548E+00 0.13405301E+04</pdfrwt>
<pdfrwt beam="2">  1       -1 0.63609185E-01 0.13405301E+04</pdfrwt>
<totfact> 0.62056974E+01</totfact>
</mgrwt>
</event>
<event>
12    6  0.1538774E-007  0.1671263E+04  0.7818608E-02  0.8777926E-01
         -1   -1    0    0    0  501 -0.00000000000E+00  0.00000000000E+00  0.80653989746E+03  0.80653989746E+03  0.00000000000E+00 0.  1.
          2   -1    0    0  501    0  0.00000000000E+00 -0.00000000000E+00 -0.86577210649E+03  0.86577210649E+03  0.00000000000E+00 0. -1.
         24    2    1    2    0    0 -0.42232188344E+02  0.52609030025E+03 -0.30302811832E+03  0.61378242599E+03  0.79675995207E+02 0.  0.
        254    2    1    2    0    0  0.42232188344E+02 -0.52609030025E+03  0.24379590928E+03  0.10585295780E+04  0.88458683027E+03 0.  0.
         23    2    4    4    0    0 -0.13053232149E+03  0.16386050325E+03 -0.11560040730E+03  0.25623906499E+03  0.91684528565E+02 0.  0.
         23    2    4    4    0    0  0.17276450983E+03 -0.68995080350E+03  0.35939631658E+03  0.80229051298E+03  0.92869089248E+02 0.  0.
          2    1    3    3  502    0 -0.36572003320E+02  0.47519652859E+03 -0.29852850482E+03  0.56237756036E+03  0.00000000000E+00 0. -1.
         -1    1    3    3    0  502 -0.56601850241E+01  0.50893771657E+02 -0.44996134969E+01  0.51404865622E+02  0.00000000000E+00 0.  1.
         11    1    5    5    0    0 -0.78028832975E+01 -0.11821277077E+02 -0.45937744329E+01  0.14890612581E+02  0.00000000000E+00 0.  1.
        -11    1    5    5    0    0 -0.12272943819E+03  0.17568178033E+03 -0.11100663287E+03  0.24134845240E+03  0.00000000000E+00 0. -1.
          2    1    6    6  503    0  0.15361761269E+03 -0.60258118286E+03  0.34664054246E+03  0.71194249665E+03  0.00000000000E+00 0. -1.
         -2    1    6    6    0  503  0.19146897145E+02 -0.87369620635E+02  0.12755774126E+02  0.90348016324E+02  0.00000000000E+00 0.  1.
<mgrwt>
<rscale>  0 0.16712627E+04</rscale>
<asrwt>0</asrwt>
<pdfrwt beam="1">  1        2 0.13319571E+00 0.16712627E+04</pdfrwt>
<pdfrwt beam="2">  1       -1 0.12408306E+00 0.16712627E+04</pdfrwt>
<totfact> 0.19204308E+01</totfact>
</mgrwt>
</event>
<event>
12    6  0.1538774E-007  0.1570878E+04  0.7818608E-02  0.8838641E-01
         -1   -1    0    0    0  501 -0.00000000000E+00  0.00000000000E+00  0.25758606570E+03  0.25758606570E+03  0.00000000000E+00 0.  1.
          2   -1    0    0  501    0  0.00000000000E+00 -0.00000000000E+00 -0.23949832008E+04  0.23949832008E+04  0.00000000000E+00 0. -1.
         24    2    1    2    0    0  0.19869633128E+03 -0.45976475361E+02 -0.15250308287E+04  0.15406719016E+04  0.79729614661E+02 0.  0.
        254    2    1    2    0    0 -0.19869633128E+03  0.45976475361E+02 -0.61236630632E+03  0.11118973648E+04  0.90538897081E+03 0.  0.
         23    2    4    4    0    0 -0.74232618240E+02  0.61382560986E+02  0.22470374637E+03  0.26073926052E+03  0.90636019002E+02 0.  0.
         23    2    4    4    0    0 -0.12446371304E+03 -0.15406085625E+02 -0.83707005269E+03  0.85115810432E+03  0.89751223400E+02 0.  0.
          2    1    3    3  502    0  0.19217899865E+03 -0.22645646580E+02 -0.14006603785E+04  0.14139643167E+04  0.00000000000E+00 0. -1.
         -1    1    3    3    0  502  0.65173326355E+01 -0.23330828781E+02 -0.12437045021E+03  0.12670758494E+03  0.00000000000E+00 0.  1.
         11    1    5    5    0    0 -0.66124670943E+01  0.53586140311E+02  0.15123855841E+03  0.16058736159E+03  0.00000000000E+00 0. -1.
        -11    1    5    5    0    0 -0.67620151146E+02  0.77964206749E+01  0.73465187961E+02  0.10015189893E+03  0.00000000000E+00 0.  1.
          2    1    6    6  503    0  0.33847507962E+01 -0.22481720746E+02 -0.20442579698E+03  0.20568614629E+03  0.00000000000E+00 0.  1.
         -2    1    6    6    0  503 -0.12784846384E+03  0.70756351216E+01 -0.63264425571E+03  0.64547195803E+03  0.00000000000E+00 0. -1.
<mgrwt>
<rscale>  0 0.15708778E+04</rscale>
<asrwt>0</asrwt>
<pdfrwt beam="1">  1        2 0.36845896E+00 0.15708778E+04</pdfrwt>
<pdfrwt beam="2">  1       -1 0.39628625E-01 0.15708778E+04</pdfrwt>
<totfact> 0.27185555E+01</totfact>
</mgrwt>
</event>
<event>
12    6  0.1538774E-007  0.2043177E+04  0.7818608E-02  0.8586696E-01
          2   -1    0    0  501    0  0.00000000000E+00  0.00000000000E+00  0.13295876221E+04  0.13295876221E+04  0.00000000000E+00 0. -1.
         -1   -1    0    0    0  501 -0.00000000000E+00 -0.00000000000E+00 -0.78493732725E+03  0.78493732725E+03  0.00000000000E+00 0.  1.
         24    2    1    2    0    0  0.50284603904E+03  0.53246244298E+03  0.60868089662E+03  0.95633472182E+03  0.87825247371E+02 0.  0.
        254    2    1    2    0    0 -0.50284603904E+03 -0.53246244298E+03 -0.64030601800E+02  0.11581902275E+04  0.89494932422E+03 0.  0.
         23    2    4    4    0    0  0.18608065979E+03  0.86152284652E+02 -0.60998655770E+01  0.22600034254E+03  0.94819398690E+02 0.  0.
         23    2    4    4    0    0 -0.68892669884E+03 -0.61861472763E+03 -0.57930736223E+02  0.93218988496E+03  0.91202158986E+02 0.  0.
          2    1    3    3  502    0 -0.21762892775E+01  0.12803977902E+02  0.10741029374E+02  0.16853717606E+02  0.00000000000E+00 0. -1.
         -1    1    3    3    0  502  0.50502232832E+03  0.51965846508E+03  0.59793986725E+03  0.93948100421E+03  0.00000000000E+00 0.  1.
         11    1    5    5    0    0  0.89341642023E+01 -0.17913651641E+02  0.35108671229E+01  0.20323493624E+02  0.00000000000E+00 0.  1.
        -11    1    5    5    0    0  0.17714649559E+03  0.10406593629E+03 -0.96107326999E+01  0.20567684891E+03  0.00000000000E+00 0. -1.
          3    1    6    6  503    0 -0.50889786968E+03 -0.49502290481E+03 -0.17843504226E+02  0.71017118267E+03  0.00000000000E+00 0. -1.
         -3    1    6    6    0  503 -0.18002882916E+03 -0.12359182282E+03 -0.40087231996E+02  0.22201870229E+03  0.00000000000E+00 0.  1.
<mgrwt>
<rscale>  0 0.20431769E+04</rscale>
<asrwt>0</asrwt>
<pdfrwt beam="1">  1        2 0.20455194E+00 0.20431769E+04</pdfrwt>
<pdfrwt beam="2">  1       -1 0.12075959E+00 0.20431769E+04</pdfrwt>
<totfact> 0.10220602E+01</totfact>
</mgrwt>
</event>
<event>
12    6  0.2356585E-007  0.3320414E+04  0.7818608E-02  0.8157720E-01
          2   -1    0    0  501    0  0.00000000000E+00  0.00000000000E+00  0.14489183055E+04  0.14489183055E+04  0.00000000000E+00 0. -1.
         -1   -1    0    0    0  501 -0.00000000000E+00 -0.00000000000E+00 -0.19023069246E+04  0.19023069246E+04  0.00000000000E+00 0.  1.
         24    2    1    2    0    0  0.86198280793E+03  0.29582188595E+03 -0.14580594333E+04  0.17224496863E+04  0.10183644368E+03 0.  0.
        254    2    1    2    0    0 -0.86198280793E+03 -0.29582188595E+03  0.10046708143E+04  0.16287755438E+04  0.90167698080E+03 0.  0.
         23    2    4    4    0    0 -0.31391801328E+03  0.16704297213E+03 -0.28877398336E+02  0.36744924901E+03  0.87961200884E+02 0.  0.
         23    2    4    4    0    0 -0.54806479464E+03 -0.46286485808E+03  0.10335482126E+04  0.12613262948E+04  0.90017877073E+02 0.  0.
          2    1    3    3  502    0  0.87498815989E+02 -0.73876112573E+00 -0.14943348251E+03  0.17316741686E+03  0.00000000000E+00 0. -1.
         -1    1    3    3    0  502  0.77448399194E+03  0.29656064708E+03 -0.13086259508E+04  0.15492822694E+04  0.00000000000E+00 0.  1.
         11    1    5    5    0    0 -0.10200804982E+02 -0.76771101255E+01  0.80945808835E+01  0.15116768234E+02  0.00000000000E+00 0. -1.
        -11    1    5    5    0    0 -0.30371720830E+03  0.17472008226E+03 -0.36971979220E+02  0.35233248078E+03  0.00000000000E+00 0.  1.
          1    1    6    6  503    0 -0.82355487786E+02 -0.38998813769E+02  0.10050762957E+03  0.13566546151E+03  0.00000000000E+00 0. -1.
         -1    1    6    6    0  503 -0.46570930686E+03 -0.42386604431E+03  0.93304058306E+03  0.11256608333E+04  0.00000000000E+00 0.  1.
<mgrwt>
<rscale>  0 0.33204140E+04</rscale>
<asrwt>0</asrwt>
<pdfrwt beam="1">  1        2 0.22291051E+00 0.33204140E+04</pdfrwt>
<pdfrwt beam="2">  1       -1 0.29266260E+00 0.33204140E+04</pdfrwt>
<totfact> 0.47464916E-01</totfact>
</mgrwt>
</event>
<event>
12    6  0.1538774E-007  0.2059523E+04  0.7818608E-02  0.8579287E-01
          2   -1    0    0  501    0  0.00000000000E+00  0.00000000000E+00  0.11699732566E+04  0.11699732566E+04  0.00000000000E+00 0. -1.
         -1   -1    0    0    0  501 -0.00000000000E+00 -0.00000000000E+00 -0.90635274030E+03  0.90635274030E+03  0.00000000000E+00 0.  1.
         24    2    1    2    0    0  0.66538813912E+03 -0.44460617234E+03  0.33958082278E+03  0.87291175635E+03  0.79017561422E+02 0.  0.
        254    2    1    2    0    0 -0.66538813912E+03  0.44460617234E+03 -0.75960306511E+02  0.12034142405E+04  0.89555560517E+03 0.  0.
         23    2    4    4    0    0 -0.38342222201E+03  0.24572775775E+02 -0.42629521480E+03  0.58111200817E+03  0.91362652265E+02 0.  0.
         23    2    4    4    0    0 -0.28196591711E+03  0.42003339656E+03  0.35033490829E+03  0.62230223235E+03  0.92696751741E+02 0.  0.
          4    1    3    3  502    0  0.42943935742E+03 -0.25877068689E+03  0.24492947410E+03  0.55800616249E+03  0.00000000000E+00 0. -1.
         -3    1    3    3    0  502  0.23594878170E+03 -0.18583548544E+03  0.94651348677E+02  0.31490559386E+03  0.00000000000E+00 0.  1.
         11    1    5    5    0    0 -0.36957343035E+03  0.22614978214E+02 -0.37129933625E+03  0.52436547823E+03  0.00000000000E+00 0.  1.
        -11    1    5    5    0    0 -0.13848791662E+02  0.19577975610E+01 -0.54995878556E+02  0.56746529937E+02  0.00000000000E+00 0. -1.
          2    1    6    6  503    0 -0.37997980314E+02  0.42300956459E+02  0.78237154967E+02  0.96717474340E+02  0.00000000000E+00 0. -1.
         -2    1    6    6    0  503 -0.24396793679E+03  0.37773244010E+03  0.27209775332E+03  0.52558475801E+03  0.00000000000E+00 0.  1.
<mgrwt>
<rscale>  0 0.20595227E+04</rscale>
<asrwt>0</asrwt>
<pdfrwt beam="1">  1        2 0.17999588E+00 0.20595227E+04</pdfrwt>
<pdfrwt beam="2">  1       -1 0.13943888E+00 0.20595227E+04</pdfrwt>
<totfact> 0.88177015E+00</totfact>
</mgrwt>
</event>
<event>
12    6  0.1538774E-007  0.1151258E+04  0.7818608E-02  0.9156624E-01
          2   -1    0    0  501    0  0.00000000000E+00  0.00000000000E+00  0.68396203084E+03  0.68396203084E+03  0.00000000000E+00 0. -1.
         -1   -1    0    0    0  501 -0.00000000000E+00 -0.00000000000E+00 -0.48445503065E+03  0.48445503065E+03  0.00000000000E+00 0.  1.
         24    2    1    2    0    0 -0.15445872345E+03  0.32468709555E+02  0.33098834332E+03  0.37516839237E+03  0.79286347308E+02 0.  0.
        254    2    1    2    0    0  0.15445872345E+03 -0.32468709555E+02 -0.13148134314E+03  0.79324866912E+03  0.76618822304E+03 0.  0.
         23    2    4    4    0    0  0.29325504870E+03  0.27163309945E+03 -0.17139988054E+03  0.44442451275E+03  0.91390175498E+02 0.  0.
         23    2    4    4    0    0 -0.13879632525E+03 -0.30410180900E+03  0.39918537405E+02  0.34882415638E+03  0.91337135383E+02 0.  0.
          4    1    3    3  502    0 -0.13536360401E+03  0.32293967073E+01  0.29713112025E+03  0.32652815639E+03  0.00000000000E+00 0. -1.
         -3    1    3    3    0  502 -0.19095119442E+02  0.29239312848E+02  0.33857223069E+02  0.48640235981E+02  0.00000000000E+00 0.  1.
         11    1    5    5    0    0  0.27656968766E+03  0.25967018202E+03 -0.13507054923E+03  0.40269523070E+03  0.00000000000E+00 0.  1.
        -11    1    5    5    0    0  0.16685361038E+02  0.11962917430E+02 -0.36329331309E+02  0.41729282043E+02  0.00000000000E+00 0. -1.
          4    1    6    6  503    0  0.13531357010E+02 -0.26744273588E+02  0.82702080109E+00  0.29983958306E+02  0.00000000000E+00 0. -1.
         -4    1    6    6    0  503 -0.15232768226E+03 -0.27735753542E+03  0.39091516604E+02  0.31884019807E+03  0.00000000000E+00 0.  1.
<mgrwt>
<rscale>  0 0.11512582E+04</rscale>
<asrwt>0</asrwt>
<pdfrwt beam="1">  1        2 0.10522493E+00 0.11512582E+04</pdfrwt>
<pdfrwt beam="2">  1       -1 0.74531543E-01 0.11512582E+04</pdfrwt>
<totfact> 0.86449264E+01</totfact>
</mgrwt>
</event>
<event>
12    6  0.1538774E-007  0.1758568E+04  0.7818608E-02  0.8728648E-01
         -1   -1    0    0    0  501 -0.00000000000E+00  0.00000000000E+00  0.70105888596E+03  0.70105888596E+03  0.00000000000E+00 0.  1.
          2   -1    0    0  501    0  0.00000000000E+00 -0.00000000000E+00 -0.11028175642E+04  0.11028175642E+04  0.00000000000E+00 0. -1.
         24    2    1    2    0    0  0.11615675802E+03 -0.33051715282E+02  0.48397624088E+03  0.50517530072E+03  0.79901654592E+02 0.  0.
        254    2    1    2    0    0 -0.11615675802E+03  0.33051715282E+02 -0.88573491913E+03  0.12987011495E+04  0.94207935988E+03 0.  0.
         23    2    4    4    0    0 -0.24520218323E+03  0.27293192317E+03 -0.93533061503E+03  0.10085327601E+04  0.87630037265E+02 0.  0.
         23    2    4    4    0    0  0.12904542521E+03 -0.23988020789E+03  0.49595695905E+02  0.29016838935E+03  0.86848864256E+02 0.  0.
          4    1    3    3  502    0  0.45765676427E+02  0.12217351474E+02  0.83065653309E+02  0.95622505592E+02  0.00000000000E+00 0. -1.
         -3    1    3    3    0  502  0.70391081590E+02 -0.45269066757E+02  0.40091058757E+03  0.40955279513E+03  0.00000000000E+00 0.  1.
         11    1    5    5    0    0 -0.11446683994E+02  0.54650371446E+01 -0.68367670822E+01  0.14409531207E+02  0.00000000000E+00 0.  1.
        -11    1    5    5    0    0 -0.23375549923E+03  0.26746688603E+03 -0.92849384795E+03  0.99412322889E+03  0.00000000000E+00 0. -1.
          3    1    6    6  503    0  0.14109364603E+03 -0.21890063379E+03  0.52900857955E+02  0.26575064477E+03  0.00000000000E+00 0. -1.
         -3    1    6    6    0  503 -0.12048220819E+02 -0.20979574101E+02 -0.33051620505E+01  0.24417744584E+02  0.00000000000E+00 0.  1.
<mgrwt>
<rscale>  0 0.17585677E+04</rscale>
<asrwt>0</asrwt>
<pdfrwt beam="1">  1        2 0.16966424E+00 0.17585677E+04</pdfrwt>
<pdfrwt beam="2">  1       -1 0.10785521E+00 0.17585677E+04</pdfrwt>
<totfact> 0.18744164E+01</totfact>
</mgrwt>
</event>
<event>
12    6  0.1538774E-007  0.3215458E+04  0.7818608E-02  0.8184747E-01
         -1   -1    0    0    0  501 -0.00000000000E+00  0.00000000000E+00  0.10720690908E+04  0.10720690908E+04  0.00000000000E+00 0.  1.
          2   -1    0    0  501    0  0.00000000000E+00 -0.00000000000E+00 -0.24110309729E+04  0.24110309729E+04  0.00000000000E+00 0. -1.
         24    2    1    2    0    0  0.78243445531E+03  0.94794250632E+03  0.30633827133E+03  0.12691704470E+04  0.78433506755E+02 0.  0.
        254    2    1    2    0    0 -0.78243445531E+03 -0.94794250632E+03 -0.16453001534E+04  0.22139296168E+04  0.82684525814E+03 0.  0.
         23    2    4    4    0    0 -0.85964771771E+03 -0.57588088394E+03 -0.14312283566E+04  0.17682277511E+04  0.87073416416E+02 0.  0.
         23    2    4    4    0    0  0.77213262396E+02 -0.37206162239E+03 -0.21407179680E+03  0.44570186566E+03  0.91824180524E+02 0.  0.
          4    1    3    3  502    0  0.67034013341E+01  0.25207722418E+02  0.44885997960E+01  0.26467194545E+02  0.00000000000E+00 0. -1.
         -3    1    3    3    0  502  0.77573105398E+03  0.92273478391E+03  0.30184967153E+03  0.12427032525E+04  0.00000000000E+00 0.  1.
         11    1    5    5    0    0 -0.66056005934E+02 -0.69418904802E+02 -0.15725594091E+03  0.18415159846E+03  0.00000000000E+00 0. -1.
        -11    1    5    5    0    0 -0.79359171177E+03 -0.50646197914E+03 -0.12739724157E+04  0.15840761526E+04  0.00000000000E+00 0.  1.
          2    1    6    6  503    0  0.48576795451E+02 -0.35292217614E+03 -0.19072511678E+03  0.40409137288E+03  0.00000000000E+00 0.  1.
         -2    1    6    6    0  503  0.28636466945E+02 -0.19139446250E+02 -0.23346680013E+02  0.41610492782E+02  0.00000000000E+00 0. -1.
<mgrwt>
<rscale>  0 0.32154575E+04</rscale>
<asrwt>0</asrwt>
<pdfrwt beam="1">  1        2 0.37092784E+00 0.32154575E+04</pdfrwt>
<pdfrwt beam="2">  1       -1 0.16493371E+00 0.32154575E+04</pdfrwt>
<totfact> 0.10046358E+00</totfact>
</mgrwt>
</event>
<event>
12    6  0.1538774E-007  0.1331082E+04  0.7818608E-02  0.9005274E-01
          2   -1    0    0  501    0  0.00000000000E+00  0.00000000000E+00  0.81885815197E+03  0.81885815197E+03  0.00000000000E+00 0. -1.
         -3   -1    0    0    0  501 -0.00000000000E+00 -0.00000000000E+00 -0.54092980414E+03  0.54092980414E+03  0.00000000000E+00 0.  1.
         24    2    1    2    0    0 -0.27857576894E+03  0.16522465701E+03 -0.73808702146E+02  0.34114723045E+03  0.77653473893E+02 0.  0.
        254    2    1    2    0    0  0.27857576894E+03 -0.16522465701E+03  0.35173704998E+03  0.10186407257E+04  0.89944779133E+03 0.  0.
         23    2    4    4    0    0  0.13125531074E+03 -0.94422441336E+02 -0.29263700541E+03  0.34740819718E+03  0.94405955883E+02 0.  0.
         23    2    4    4    0    0  0.14732045819E+03 -0.70802215671E+02  0.64437405539E+03  0.67123252848E+03  0.92838100444E+02 0.  0.
          4    1    3    3  502    0 -0.44227902662E+02  0.45972829287E+02  0.11269256558E+02  0.64781205221E+02  0.00000000000E+00 0. -1.
         -3    1    3    3    0  502 -0.23434786627E+03  0.11925182772E+03 -0.85077958704E+02  0.27636602523E+03  0.00000000000E+00 0.  1.
         11    1    5    5    0    0  0.13990355959E+03 -0.84295828986E+02 -0.29137294411E+03  0.33403141368E+03  0.00000000000E+00 0. -1.
        -11    1    5    5    0    0 -0.86482488417E+01 -0.10126612350E+02 -0.12640613003E+01  0.13376783495E+02  0.00000000000E+00 0.  1.
          3    1    6    6  503    0  0.10671814010E+03 -0.51602879198E+02  0.58442495187E+03  0.59632553437E+03  0.00000000000E+00 0. -1.
         -3    1    6    6    0  503  0.40602318091E+02 -0.19199336473E+02  0.59949103513E+02  0.74906994115E+02  0.00000000000E+00 0.  1.
<mgrwt>
<rscale>  0 0.13310819E+04</rscale>
<asrwt>0</asrwt>
<pdfrwt beam="1">  1        2 0.12597818E+00 0.13310819E+04</pdfrwt>
<pdfrwt beam="2">  1       -3 0.83219970E-01 0.13310819E+04</pdfrwt>
<totfact> 0.27546565E+01</totfact>
</mgrwt>
</event>
<event>
12    6  0.1538774E-007  0.2101817E+04  0.7818608E-02  0.8560444E-01
         -1   -1    0    0    0  501 -0.00000000000E+00  0.00000000000E+00  0.69311223829E+03  0.69311223829E+03  0.00000000000E+00 0.  1.
          2   -1    0    0  501    0  0.00000000000E+00 -0.00000000000E+00 -0.15934045632E+04  0.15934045632E+04  0.00000000000E+00 0. -1.
         24    2    1    2    0    0  0.15874233699E+03 -0.82815350889E+03 -0.53179511032E+03  0.10000157852E+04  0.78664905664E+02 0.  0.
        254    2    1    2    0    0 -0.15874233699E+03  0.82815350889E+03 -0.36849721461E+03  0.12865010163E+04  0.89903131426E+03 0.  0.
         23    2    4    4    0    0  0.14508303357E+03  0.70441659774E+02  0.21109734797E+03  0.28103847601E+03  0.91702893177E+02 0.  0.
         23    2    4    4    0    0 -0.30382537056E+03  0.75771184912E+03 -0.57959456259E+03  0.10054625403E+04  0.92671251899E+02 0.  0.
          4    1    3    3  502    0  0.10727386070E+03 -0.40515051022E+03 -0.23243611879E+03  0.47925063009E+03  0.00000000000E+00 0. -1.
         -3    1    3    3    0  502  0.51468476292E+02 -0.42300299867E+03 -0.29935899153E+03  0.52076515508E+03  0.00000000000E+00 0.  1.
         11    1    5    5    0    0  0.11361628323E+03  0.81617085601E+01  0.14958514548E+03  0.18801858698E+03  0.00000000000E+00 0. -1.
        -11    1    5    5    0    0  0.31466750342E+02  0.62279951214E+02  0.61512202488E+02  0.93019889031E+02  0.00000000000E+00 0.  1.
          2    1    6    6  503    0 -0.25885601372E+03  0.56921153761E+03 -0.40817480761E+03  0.74673615417E+03  0.00000000000E+00 0. -1.
         -2    1    6    6    0  503 -0.44969356840E+02  0.18850031151E+03 -0.17141975498E+03  0.25872638616E+03  0.00000000000E+00 0.  1.
<mgrwt>
<rscale>  0 0.21018166E+04</rscale>
<asrwt>0</asrwt>
<pdfrwt beam="1">  1        2 0.24513916E+00 0.21018166E+04</pdfrwt>
<pdfrwt beam="2">  1       -1 0.10663265E+00 0.21018166E+04</pdfrwt>
<totfact> 0.96938147E+00</totfact>
</mgrwt>
</event>
<event>
12    6  0.1538774E-007  0.1590920E+04  0.7818608E-02  0.8826145E-01
         -3   -1    0    0    0  501 -0.00000000000E+00  0.00000000000E+00  0.44407731861E+03  0.44407731861E+03  0.00000000000E+00 0.  1.
          4   -1    0    0  501    0  0.00000000000E+00 -0.00000000000E+00 -0.14248801245E+04  0.14248801245E+04  0.00000000000E+00 0. -1.
         24    2    1    2    0    0  0.51928675118E+03 -0.28857575107E+02 -0.15726740085E+03  0.55224624100E+03  0.98749105025E+02 0.  0.
        254    2    1    2    0    0 -0.51928675118E+03  0.28857575107E+02 -0.82353540507E+03  0.13167112021E+04  0.88601711994E+03 0.  0.
         23    2    4    4    0    0 -0.91943153231E+02 -0.37392131001E+03 -0.15937927152E+03  0.42579821992E+03  0.87359500853E+02 0.  0.
         23    2    4    4    0    0 -0.42734359795E+03  0.40277888512E+03 -0.66415613355E+03  0.89091298221E+03  0.88143015279E+02 0.  0.
          2    1    3    3  502    0  0.73731124215E+02 -0.41306962697E+01  0.12318913163E+02  0.74867195428E+02  0.00000000000E+00 0. -1.
         -1    1    3    3    0  502  0.44555562696E+03 -0.24726878838E+02 -0.16958631401E+03  0.47737904558E+03  0.00000000000E+00 0.  1.
         11    1    5    5    0    0 -0.71823847041E+02 -0.20416905477E+03 -0.12964080358E+03  0.25229032063E+03  0.00000000000E+00 0.  1.
        -11    1    5    5    0    0 -0.20119306190E+02 -0.16975225524E+03 -0.29738467937E+02  0.17350789928E+03  0.00000000000E+00 0. -1.
          3    1    6    6  503    0 -0.75249214060E+02  0.48072422113E+02 -0.14493885587E+03  0.17023711089E+03  0.00000000000E+00 0. -1.
         -3    1    6    6    0  503 -0.35209438389E+03  0.35470646300E+03 -0.51921727768E+03  0.72067587132E+03  0.00000000000E+00 0.  1.
<mgrwt>
<rscale>  0 0.15909204E+04</rscale>
<asrwt>0</asrwt>
<pdfrwt beam="1">  1        4 0.21921233E+00 0.15909204E+04</pdfrwt>
<pdfrwt beam="2">  1       -3 0.68319587E-01 0.15909204E+04</pdfrwt>
<totfact> 0.44535700E-01</totfact>
</mgrwt>
</event>
<event>
12    6  0.1538774E-007  0.1795926E+04  0.7818608E-02  0.8708469E-01
          2   -1    0    0  501    0  0.00000000000E+00  0.00000000000E+00  0.58273491193E+03  0.58273491193E+03  0.00000000000E+00 0. -1.
         -1   -1    0    0    0  501 -0.00000000000E+00 -0.00000000000E+00 -0.13837129390E+04  0.13837129390E+04  0.00000000000E+00 0.  1.
         24    2    1    2    0    0  0.25107198667E+03 -0.60810089585E+03 -0.45940905285E+03  0.80625188076E+03  0.78495702837E+02 0.  0.
        254    2    1    2    0    0 -0.25107198667E+03  0.60810089585E+03 -0.34156897426E+03  0.11601959702E+04  0.89250293170E+03 0.  0.
         23    2    4    4    0    0  0.10485237350E+03  0.61416287073E+03  0.38702315035E+02  0.63113438267E+03  0.92966057179E+02 0.  0.
         23    2    4    4    0    0 -0.35592436017E+03 -0.60619748778E+01 -0.38027128930E+03  0.52906158755E+03  0.92633753327E+02 0.  0.
          2    1    3    3  502    0 -0.16014931092E+01 -0.20592137461E+02 -0.28062054414E+02  0.34843647962E+02  0.00000000000E+00 0. -1.
         -1    1    3    3    0  502  0.25267347978E+03 -0.58750875839E+03 -0.43134699843E+03  0.77140823280E+03  0.00000000000E+00 0.  1.
         11    1    5    5    0    0  0.87706541936E+02  0.44371973980E+03  0.67860660252E+02  0.45736715470E+03  0.00000000000E+00 0.  1.
        -11    1    5    5    0    0  0.17145831561E+02  0.17044313093E+03 -0.29158345218E+02  0.17376722797E+03  0.00000000000E+00 0. -1.
          1    1    6    6  503    0 -0.33943124727E+03 -0.11487942058E+02 -0.32106936170E+03  0.46736610859E+03  0.00000000000E+00 0. -1.
         -1    1    6    6    0  503 -0.16493112899E+02  0.54259671801E+01 -0.59201927595E+02  0.61695478958E+02  0.00000000000E+00 0.  1.
<mgrwt>
<rscale>  0 0.17959263E+04</rscale>
<asrwt>0</asrwt>
<pdfrwt beam="1">  1        2 0.89651526E-01 0.17959263E+04</pdfrwt>
<pdfrwt beam="2">  1       -1 0.21287891E+00 0.17959263E+04</pdfrwt>
<totfact> 0.68109183E+00</totfact>
</mgrwt>
</event>
<event>
12    6  0.1538774E-007  0.2410149E+04  0.7818608E-02  0.8435714E-01
         -1   -1    0    0    0  501 -0.00000000000E+00  0.00000000000E+00  0.14087147615E+04  0.14087147615E+04  0.00000000000E+00 0.  1.
          2   -1    0    0  501    0  0.00000000000E+00 -0.00000000000E+00 -0.10308721442E+04  0.10308721442E+04  0.00000000000E+00 0. -1.
         24    2    1    2    0    0  0.12774468439E+03 -0.23790184089E+03 -0.84936821711E+03  0.89726941827E+03  0.10368245001E+03 0.  0.
        254    2    1    2    0    0 -0.12774468439E+03  0.23790184089E+03  0.12272108343E+04  0.15423174875E+04  0.89430465161E+03 0.  0.
         23    2    4    4    0    0 -0.27790803025E+03 -0.16625820099E+02  0.17645240412E+02  0.29391274019E+03  0.92542169679E+02 0.  0.
         23    2    4    4    0    0  0.15016334586E+03  0.25452766099E+03  0.12095655939E+04  0.12484047473E+04  0.90178302948E+02 0.  0.
          4    1    3    3  502    0  0.83443758030E+02 -0.16774289542E+03 -0.71676134842E+03  0.74084233836E+03  0.00000000000E+00 0. -1.
         -3    1    3    3    0  502  0.44300926357E+02 -0.70158945471E+02 -0.13260686869E+03  0.15642707991E+03  0.00000000000E+00 0.  1.
         11    1    5    5    0    0 -0.26409827182E+03 -0.37223947120E+02  0.66659893270E+01  0.26679196921E+03  0.00000000000E+00 0.  1.
        -11    1    5    5    0    0 -0.13809758422E+02  0.20598127021E+02  0.10979251085E+02  0.27120770986E+02  0.00000000000E+00 0. -1.
          2    1    6    6  503    0  0.29619978936E+02  0.57946985142E+01  0.17337279189E+03  0.17598024506E+03  0.00000000000E+00 0. -1.
         -2    1    6    6    0  503  0.12054336692E+03  0.24873296248E+03  0.10361928020E+04  0.10724245022E+04  0.00000000000E+00 0.  1.
<mgrwt>
<rscale>  0 0.24101492E+04</rscale>
<asrwt>0</asrwt>
<pdfrwt beam="1">  1        2 0.15859571E+00 0.24101492E+04</pdfrwt>
<pdfrwt beam="2">  1       -1 0.21672535E+00 0.24101492E+04</pdfrwt>
<totfact> 0.28544200E+00</totfact>
</mgrwt>
</event>
<event>
12    6  0.1538774E-007  0.1494018E+04  0.7818608E-02  0.8888441E-01
          2   -1    0    0  501    0  0.00000000000E+00  0.00000000000E+00  0.22743626963E+04  0.22743626963E+04  0.00000000000E+00 0. -1.
         -1   -1    0    0    0  501 -0.00000000000E+00 -0.00000000000E+00 -0.24535329991E+03  0.24535329991E+03  0.00000000000E+00 0.  1.
         24    2    1    2    0    0 -0.34449386527E+03  0.26599628745E+03  0.85161572082E+03  0.96014478841E+03  0.84844744149E+02 0.  0.
        254    2    1    2    0    0  0.34449386527E+03 -0.26599628745E+03  0.11773936756E+04  0.15595712078E+04  0.92551414729E+03 0.  0.
         23    2    4    4    0    0  0.87620952976E+02  0.24882147249E+03  0.83947993996E+03  0.88469906951E+03  0.91522223630E+02 0.  0.
         23    2    4    4    0    0  0.25687291229E+03 -0.51481775994E+03  0.33791373562E+03  0.67487213832E+03  0.10122100242E+03 0.  0.
          2    1    3    3  502    0 -0.26665572593E+03  0.22051799051E+03  0.73812083369E+03  0.81520293512E+03  0.00000000000E+00 0. -1.
         -1    1    3    3    0  502 -0.77838139335E+02  0.45478296935E+02  0.11349488714E+03  0.14494185329E+03  0.00000000000E+00 0.  1.
         11    1    5    5    0    0 -0.61749423351E+01  0.19167388082E+02  0.16168315772E+03  0.16293238526E+03  0.00000000000E+00 0. -1.
        -11    1    5    5    0    0  0.93795895311E+02  0.22965408441E+03  0.67779678225E+03  0.72176668425E+03  0.00000000000E+00 0.  1.
          4    1    6    6  503    0  0.25661330284E+03 -0.51952352999E+03  0.33571821982E+03  0.66967291160E+03  0.00000000000E+00 0.  1.
         -4    1    6    6    0  503  0.25960945094E+00  0.47057700489E+01  0.21955157980E+01  0.51992267155E+01  0.00000000000E+00 0. -1.
<mgrwt>
<rscale>  0 0.14940179E+04</rscale>
<asrwt>0</asrwt>
<pdfrwt beam="1">  1        2 0.34990194E+00 0.14940179E+04</pdfrwt>
<pdfrwt beam="2">  1       -1 0.37746663E-01 0.14940179E+04</pdfrwt>
<totfact> 0.34994290E+01</totfact>
</mgrwt>
</event>
<event>
12    6  0.1538774E-007  0.1754043E+04  0.7818608E-02  0.8731128E-01
         -1   -1    0    0    0  501 -0.00000000000E+00  0.00000000000E+00  0.12623245424E+04  0.12623245424E+04  0.00000000000E+00 0.  1.
          2   -1    0    0  501    0  0.00000000000E+00 -0.00000000000E+00 -0.60932563175E+03  0.60932563175E+03  0.00000000000E+00 0. -1.
         24    2    1    2    0    0 -0.30905551196E+03  0.40068658839E+03  0.66473275417E+03  0.83939950769E+03  0.81589505811E+02 0.  0.
        254    2    1    2    0    0  0.30905551196E+03 -0.40068658839E+03 -0.11733843553E+02  0.10322506664E+04  0.89963253812E+03 0.  0.
         23    2    4    4    0    0  0.13520435530E+03  0.81397055368E+02  0.35231675980E+03  0.39702123052E+03  0.92698759103E+02 0.  0.
         23    2    4    4    0    0  0.17385115666E+03 -0.48208364376E+03 -0.36405060335E+03  0.63522943589E+03  0.91404213090E+02 0.  0.
          4    1    3    3  502    0 -0.63299589474E+01  0.23184532980E+02  0.61762050311E+02  0.66273235989E+02  0.00000000000E+00 0. -1.
         -3    1    3    3    0  502 -0.30272555301E+03  0.37750205541E+03  0.60297070385E+03  0.77312627170E+03  0.00000000000E+00 0.  1.
         11    1    5    5    0    0  0.41689365890E+02  0.70824954074E+02  0.21833222793E+03  0.23328767456E+03  0.00000000000E+00 0. -1.
        -11    1    5    5    0    0  0.93514989407E+02  0.10572101294E+02  0.13398453186E+03  0.16373355596E+03  0.00000000000E+00 0.  1.
          2    1    6    6  503    0  0.17034631518E+03 -0.48599116780E+03 -0.36244831895E+03  0.62974126924E+03  0.00000000000E+00 0. -1.
         -2    1    6    6    0  503  0.35048414778E+01  0.39075240393E+01 -0.16022844039E+01  0.54881666531E+01  0.00000000000E+00 0.  1.
<mgrwt>
<rscale>  0 0.17540430E+04</rscale>
<asrwt>0</asrwt>
<pdfrwt beam="1">  1        2 0.93742405E-01 0.17540430E+04</pdfrwt>
<pdfrwt beam="2">  1       -1 0.19420378E+00 0.17540430E+04</pdfrwt>
<totfact> 0.86975253E+00</totfact>
</mgrwt>
</event>
<event>
12    6  0.1538774E-007  0.1629728E+04  0.7818608E-02  0.8802490E-01
          2   -1    0    0  501    0  0.00000000000E+00  0.00000000000E+00  0.59110652584E+03  0.59110652584E+03  0.00000000000E+00 0. -1.
         -1   -1    0    0    0  501 -0.00000000000E+00 -0.00000000000E+00 -0.11233224505E+04  0.11233224505E+04  0.00000000000E+00 0.  1.
         24    2    1    2    0    0  0.24919876636E+03  0.25790646637E+03  0.27079657086E+03  0.45635737751E+03  0.79470136941E+02 0.  0.
        254    2    1    2    0    0 -0.24919876636E+03 -0.25790646637E+03 -0.80301249548E+03  0.12580715988E+04  0.89961064314E+03 0.  0.
         23    2    4    4    0    0 -0.47527893351E+03  0.13480650941E+03 -0.46861679956E+03  0.68765537378E+03  0.95944508137E+02 0.  0.
         23    2    4    4    0    0  0.22608016715E+03 -0.39271297578E+03 -0.33439569591E+03  0.57041622501E+03  0.90655749879E+02 0.  0.
          4    1    3    3  502    0  0.23050871907E+03  0.25438066463E+03  0.27096093311E+03  0.43733696319E+03  0.00000000000E+00 0. -1.
         -3    1    3    3    0  502  0.18690047295E+02  0.35258017457E+01 -0.16436225279E+00  0.19020414317E+02  0.00000000000E+00 0.  1.
         11    1    5    5    0    0 -0.30643767930E+03  0.72641556553E+02 -0.35640156897E+03  0.47560795347E+03  0.00000000000E+00 0. -1.
        -11    1    5    5    0    0 -0.16884125421E+03  0.62164952855E+02 -0.11221523059E+03  0.21204742032E+03  0.00000000000E+00 0.  1.
          1    1    6    6  503    0  0.22204891900E+03 -0.33761086643E+03 -0.27215422127E+03  0.48719066054E+03  0.00000000000E+00 0. -1.
         -1    1    6    6    0  503  0.40312481544E+01 -0.55102109356E+02 -0.62241474640E+02  0.83225564477E+02  0.00000000000E+00 0.  1.
<mgrwt>
<rscale>  0 0.16297279E+04</rscale>
<asrwt>0</asrwt>
<pdfrwt beam="1">  1        2 0.90939465E-01 0.16297279E+04</pdfrwt>
<pdfrwt beam="2">  1       -1 0.17281884E+00 0.16297279E+04</pdfrwt>
<totfact> 0.12951365E+01</totfact>
</mgrwt>
</event>
<event>
12    6  0.1538774E-007  0.1515394E+04  0.7818608E-02  0.8874280E-01
          2   -1    0    0  501    0  0.00000000000E+00  0.00000000000E+00  0.57157279514E+03  0.57157279514E+03  0.00000000000E+00 0. -1.
         -1   -1    0    0    0  501 -0.00000000000E+00 -0.00000000000E+00 -0.10044303666E+04  0.10044303666E+04  0.00000000000E+00 0.  1.
         24    2    1    2    0    0  0.14112261141E+03 -0.11774707491E+03 -0.60596182194E+03  0.63827921487E+03  0.80191404686E+02 0.  0.
        254    2    1    2    0    0 -0.14112261141E+03  0.11774707491E+03  0.17310425053E+03  0.93772394683E+03  0.90309531822E+03 0.  0.
         23    2    4    4    0    0  0.16536365843E+03  0.40821610782E+03 -0.47167826524E+02  0.45222237183E+03  0.91075460557E+02 0.  0.
         23    2    4    4    0    0 -0.30648626984E+03 -0.29046903291E+03  0.22027207706E+03  0.48550157500E+03  0.94265045013E+02 0.  0.
          4    1    3    3  502    0  0.55714473897E+02 -0.27691449104E+02 -0.10390191019E+03  0.12110543297E+03  0.00000000000E+00 0. -1.
         -3    1    3    3    0  502  0.85408137518E+02 -0.90055625804E+02 -0.50205991175E+03  0.51717378189E+03  0.00000000000E+00 0.  1.
         11    1    5    5    0    0  0.17208468237E+03  0.34059166026E+03 -0.44876585832E+02  0.38422613771E+03  0.00000000000E+00 0.  1.
        -11    1    5    5    0    0 -0.67210239448E+01  0.67624447561E+02 -0.22912406919E+01  0.67996234121E+02  0.00000000000E+00 0. -1.
          3    1    6    6  503    0 -0.89844022790E+01  0.28396255080E+01  0.20198261958E+02  0.22287950634E+02  0.00000000000E+00 0. -1.
         -3    1    6    6    0  503 -0.29750186756E+03 -0.29330865842E+03  0.20007381510E+03  0.46321362436E+03  0.00000000000E+00 0.  1.
<mgrwt>
<rscale>  0 0.15153944E+04</rscale>
<asrwt>0</asrwt>
<pdfrwt beam="1">  1        2 0.87934276E-01 0.15153944E+04</pdfrwt>
<pdfrwt beam="2">  1       -1 0.15452775E+00 0.15153944E+04</pdfrwt>
<totfact> 0.18663406E+01</totfact>
</mgrwt>
</event>
<event>
12    6  0.1538774E-007  0.2912491E+04  0.7818608E-02  0.8269171E-01
          2   -1    0    0  501    0  0.00000000000E+00  0.00000000000E+00  0.12159918017E+04  0.12159918017E+04  0.00000000000E+00 0. -1.
         -1   -1    0    0    0  501 -0.00000000000E+00 -0.00000000000E+00 -0.17439681640E+04  0.17439681640E+04  0.00000000000E+00 0.  1.
         24    2    1    2    0    0 -0.35190026663E+03  0.11823471271E+04  0.23119154767E+03  0.12576014331E+04  0.79582073313E+02 0.  0.
        254    2    1    2    0    0  0.35190026663E+03 -0.11823471271E+04 -0.75916790995E+03  0.17023585325E+04  0.89437695142E+03 0.  0.
         23    2    4    4    0    0  0.44039211277E+03 -0.11587328019E+04 -0.88225828572E+03  0.15242647301E+04  0.91631683696E+02 0.  0.
         23    2    4    4    0    0 -0.88491846144E+02 -0.23614325134E+02  0.12309037578E+03  0.17809380241E+03  0.90430739594E+02 0.  0.
          2    1    3    3  502    0 -0.31138225887E+03  0.95089605149E+03  0.17156485365E+03  0.10151830923E+04  0.00000000000E+00 0. -1.
         -1    1    3    3    0  502 -0.40518007752E+02  0.23145107557E+03  0.59626694017E+02  0.24241834084E+03  0.00000000000E+00 0.  1.
         11    1    5    5    0    0  0.20583740150E+03 -0.49384147084E+03 -0.32930587198E+03  0.62824421326E+03  0.00000000000E+00 0. -1.
        -11    1    5    5    0    0  0.23455471127E+03 -0.66489133109E+03 -0.55295241375E+03  0.89602051685E+03  0.00000000000E+00 0.  1.
          1    1    6    6  503    0 -0.68265663039E+02  0.34636819609E+01  0.22475241067E+02  0.71953695554E+02  0.00000000000E+00 0. -1.
         -1    1    6    6    0  503 -0.20226183105E+02 -0.27078007095E+02  0.10061513471E+03  0.10614010686E+03  0.00000000000E+00 0.  1.
<mgrwt>
<rscale>  0 0.29124910E+04</rscale>
<asrwt>0</asrwt>
<pdfrwt beam="1">  1        2 0.18707566E+00 0.29124910E+04</pdfrwt>
<pdfrwt beam="2">  1       -1 0.26830280E+00 0.29124910E+04</pdfrwt>
<totfact> 0.96449637E-01</totfact>
</mgrwt>
</event>
<event>
12    6  0.1538774E-007  0.1468655E+04  0.7818608E-02  0.8905569E-01
          2   -1    0    0  501    0  0.00000000000E+00  0.00000000000E+00  0.54097544297E+03  0.54097544297E+03  0.00000000000E+00 0. -1.
         -1   -1    0    0    0  501 -0.00000000000E+00 -0.00000000000E+00 -0.99678614966E+03  0.99678614966E+03  0.00000000000E+00 0.  1.
         24    2    1    2    0    0 -0.32709996079E+03  0.29949451570E+03 -0.23654678963E+03  0.50864067230E+03  0.77907641141E+02 0.  0.
        254    2    1    2    0    0  0.32709996079E+03 -0.29949451570E+03 -0.21926391706E+03  0.10291209203E+04  0.90239783581E+03 0.  0.
         23    2    4    4    0    0 -0.24728790316E+03  0.16840728525E+02 -0.25252084546E+03  0.36552331141E+03  0.91682040805E+02 0.  0.
         23    2    4    4    0    0  0.57438786395E+03 -0.31633524422E+03  0.33256928397E+02  0.66359760893E+03  0.96261925460E+02 0.  0.
          2    1    3    3  502    0 -0.14141455058E+03  0.14294509924E+03 -0.65099014420E+02  0.21135103073E+03  0.00000000000E+00 0. -1.
         -1    1    3    3    0  502 -0.18568541021E+03  0.15654941646E+03 -0.17144777521E+03  0.29728964157E+03  0.00000000000E+00 0.  1.
         11    1    5    5    0    0 -0.21365461083E+03  0.11509899632E+02 -0.25315565231E+03  0.33146425873E+03  0.00000000000E+00 0. -1.
        -11    1    5    5    0    0 -0.33633292336E+02  0.53308288931E+01  0.63480685083E+00  0.34059052685E+02  0.00000000000E+00 0.  1.
          2    1    6    6  503    0  0.53774036817E+03 -0.32024435507E+03  0.29910649106E+02  0.62659061391E+03  0.00000000000E+00 0. -1.
         -2    1    6    6    0  503  0.36647495781E+02  0.39091108499E+01  0.33462792908E+01  0.37006995011E+02  0.00000000000E+00 0.  1.
<mgrwt>
<rscale>  0 0.14686549E+04</rscale>
<asrwt>0</asrwt>
<pdfrwt beam="1">  1        2 0.83226991E-01 0.14686549E+04</pdfrwt>
<pdfrwt beam="2">  1       -1 0.15335172E+00 0.14686549E+04</pdfrwt>
<totfact> 0.20422423E+01</totfact>
</mgrwt>
</event>
<event>
12    6  0.1538774E-007  0.2106840E+04  0.7818608E-02  0.8558236E-01
         -1   -1    0    0    0  501 -0.00000000000E+00  0.00000000000E+00  0.69165039686E+03  0.69165039686E+03  0.00000000000E+00 0.  1.
          2   -1    0    0  501    0  0.00000000000E+00 -0.00000000000E+00 -0.16044148410E+04  0.16044148410E+04  0.00000000000E+00 0. -1.
         24    2    1    2    0    0 -0.69479015543E+03 -0.49048982607E+03 -0.25836092652E+03  0.89259094989E+03  0.81575767974E+02 0.  0.
        254    2    1    2    0    0  0.69479015543E+03  0.49048982607E+03 -0.65440351757E+03  0.14034742879E+04  0.90453440150E+03 0.  0.
         23    2    4    4    0    0  0.83899005999E+03  0.31019724302E+03 -0.25963865034E+03  0.93568441742E+03  0.89254971402E+02 0.  0.
         23    2    4    4    0    0 -0.14419990457E+03  0.18029258305E+03 -0.39476486723E+03  0.46778987050E+03  0.98432893702E+02 0.  0.
          2    1    3    3  502    0 -0.51520189397E+03 -0.37878792671E+03 -0.15907426442E+03  0.65895212768E+03  0.00000000000E+00 0. -1.
         -1    1    3    3    0  502 -0.17958826146E+03 -0.11170189936E+03 -0.99286662106E+02  0.23363882221E+03  0.00000000000E+00 0.  1.
         11    1    5    5    0    0  0.32088786766E+03  0.76544490275E+02 -0.77644012300E+02  0.33890511246E+03  0.00000000000E+00 0.  1.
        -11    1    5    5    0    0  0.51810219233E+03  0.23365275274E+03 -0.18199463804E+03  0.59677930497E+03  0.00000000000E+00 0. -1.
          3    1    6    6  503    0 -0.60737696039E+02  0.13571714760E+03 -0.18258601619E+03  0.23546945701E+03  0.00000000000E+00 0. -1.
         -3    1    6    6    0  503 -0.83462208526E+02  0.44575435444E+02 -0.21217885104E+03  0.23232041349E+03  0.00000000000E+00 0.  1.
<mgrwt>
<rscale>  0 0.21068404E+04</rscale>
<asrwt>0</asrwt>
<pdfrwt beam="1">  1        2 0.24683305E+00 0.21068404E+04</pdfrwt>
<pdfrwt beam="2">  1       -1 0.10640776E+00 0.21068404E+04</pdfrwt>
<totfact> 0.96003643E+00</totfact>
</mgrwt>
</event>
<event>
12    6  0.1538774E-007  0.1608976E+04  0.7818608E-02  0.8815052E-01
          2   -1    0    0  501    0  0.00000000000E+00  0.00000000000E+00  0.25232771980E+04  0.25232771980E+04  0.00000000000E+00 0. -1.
         -1   -1    0    0    0  501 -0.00000000000E+00 -0.00000000000E+00 -0.25649228047E+03  0.25649228047E+03  0.00000000000E+00 0.  1.
         24    2    1    2    0    0  0.16498514789E+02 -0.33261683188E+03  0.29561391733E+02  0.34403110987E+03  0.81100991585E+02 0.  0.
        254    2    1    2    0    0 -0.16498514789E+02  0.33261683188E+03  0.22372235258E+04  0.24357383686E+04  0.90374008322E+03 0.  0.
         23    2    4    4    0    0 -0.33604569293E+03  0.45781329620E+03  0.16722069278E+04  0.17681776838E+04  0.87501944331E+02 0.  0.
         23    2    4    4    0    0  0.31954717814E+03 -0.12519646432E+03  0.56501659797E+03  0.66756068475E+03  0.92784471227E+02 0.  0.
          4    1    3    3  502    0 -0.10183719529E+02 -0.13807002562E+03  0.48634287025E+02  0.14673899956E+03  0.00000000000E+00 0. -1.
         -3    1    3    3    0  502  0.26682234318E+02 -0.19454680627E+03 -0.19072895292E+02  0.19729211031E+03  0.00000000000E+00 0.  1.
         11    1    5    5    0    0 -0.12875420974E+03  0.11287396944E+03  0.45370059922E+03  0.48493547327E+03  0.00000000000E+00 0.  1.
        -11    1    5    5    0    0 -0.20729148320E+03  0.34493932676E+03  0.12185063286E+04  0.12832422106E+04  0.00000000000E+00 0. -1.
          1    1    6    6  503    0  0.27424291998E+03 -0.12672149963E+03  0.53086005414E+03  0.61080268067E+03  0.00000000000E+00 0. -1.
         -1    1    6    6    0  503  0.45304258168E+02  0.15250353170E+01  0.34156543828E+02  0.56758004080E+02  0.00000000000E+00 0.  1.
<mgrwt>
<rscale>  0 0.16089762E+04</rscale>
<asrwt>0</asrwt>
<pdfrwt beam="1">  1        2 0.38819648E+00 0.16089762E+04</pdfrwt>
<pdfrwt beam="2">  1       -1 0.39460353E-01 0.16089762E+04</pdfrwt>
<totfact> 0.23045391E+01</totfact>
</mgrwt>
</event>
<event>
12    6  0.1538774E-007  0.1933382E+04  0.7818608E-02  0.8638416E-01
          2   -1    0    0  501    0  0.00000000000E+00  0.00000000000E+00  0.43485817171E+04  0.43485817171E+04  0.00000000000E+00 0. -1.
         -1   -1    0    0    0  501 -0.00000000000E+00 -0.00000000000E+00 -0.21489574466E+03  0.21489574466E+03  0.00000000000E+00 0.  1.
         24    2    1    2    0    0 -0.25491078323E+03 -0.58183171087E+03  0.25963541039E+04  0.26740884159E+04  0.78654792707E+02 0.  0.
        254    2    1    2    0    0  0.25491078323E+03  0.58183171087E+03  0.15373318685E+04  0.18893890458E+04  0.89604355091E+03 0.  0.
         23    2    4    4    0    0 -0.27998204691E+03  0.45362596460E+03  0.74265645152E+03  0.91866472683E+03  0.90773415641E+02 0.  0.
         23    2    4    4    0    0  0.53489283014E+03  0.12820574627E+03  0.79467541702E+03  0.97072431896E+03  0.90827484184E+02 0.  0.
          2    1    3    3  502    0 -0.37502225092E+02 -0.16567736049E+03  0.63652037861E+03  0.65879708336E+03  0.00000000000E+00 0. -1.
         -3    1    3    3    0  502 -0.21740855814E+03 -0.41615435037E+03  0.19598337253E+04  0.20152913326E+04  0.00000000000E+00 0.  1.
         11    1    5    5    0    0 -0.12978952057E+03  0.25505917559E+03  0.33088344224E+03  0.43747497648E+03  0.00000000000E+00 0.  1.
        -11    1    5    5    0    0 -0.15019252633E+03  0.19856678901E+03  0.41177300928E+03  0.48118975035E+03  0.00000000000E+00 0. -1.
          1    1    6    6  503    0  0.35814743188E+03  0.12218115579E+03  0.58084649054E+03  0.69323910981E+03  0.00000000000E+00 0. -1.
         -1    1    6    6    0  503  0.17674539826E+03  0.60245904759E+01  0.21382892648E+03  0.27748520915E+03  0.00000000000E+00 0.  1.
<mgrwt>
<rscale>  0 0.19333822E+04</rscale>
<asrwt>0</asrwt>
<pdfrwt beam="1">  1        2 0.66901251E+00 0.19333822E+04</pdfrwt>
<pdfrwt beam="2">  1       -1 0.33060887E-01 0.19333822E+04</pdfrwt>
<totfact> 0.15907609E+00</totfact>
</mgrwt>
</event>
<event>
12    6  0.1538774E-007  0.2337211E+04  0.7818608E-02  0.8463392E-01
         -1   -1    0    0    0  501 -0.00000000000E+00  0.00000000000E+00  0.97225927465E+03  0.97225927465E+03  0.00000000000E+00 0.  1.
          2   -1    0    0  501    0  0.00000000000E+00 -0.00000000000E+00 -0.14046035590E+04  0.14046035590E+04  0.00000000000E+00 0. -1.
         24    2    1    2    0    0 -0.65493636208E+03  0.55141366349E+03 -0.69199130279E+03  0.11035164222E+04  0.76797554030E+02 0.  0.
        254    2    1    2    0    0  0.65493636208E+03 -0.55141366349E+03  0.25964701846E+03  0.12733464114E+04  0.90608820908E+03 0.  0.
         23    2    4    4    0    0  0.51493673622E+03  0.11145582852E+03  0.24439590006E+03  0.58875560029E+03  0.96548210171E+02 0.  0.
         23    2    4    4    0    0  0.13999962586E+03 -0.66286949201E+03  0.15251118399E+02  0.68459081113E+03  0.97139710737E+02 0.  0.
          4    1    3    3  502    0 -0.58022634097E+03  0.47455197624E+03 -0.63342843653E+03  0.98137340962E+03  0.00000000000E+00 0. -1.
         -3    1    3    3    0  502 -0.74710021109E+02  0.76861687243E+02 -0.58562866262E+02  0.12214301259E+03  0.00000000000E+00 0.  1.
         11    1    5    5    0    0  0.81146127805E+02  0.54744525697E+02  0.37586820578E+02  0.10485430956E+03  0.00000000000E+00 0. -1.
        -11    1    5    5    0    0  0.43379060841E+03  0.56711302820E+02  0.20680907948E+03  0.48390129073E+03  0.00000000000E+00 0.  1.
          2    1    6    6  503    0  0.84066708326E+02 -0.18400845357E+03  0.37935392636E+01  0.20233811647E+03  0.00000000000E+00 0. -1.
         -2    1    6    6    0  503  0.55932917530E+02 -0.47886103843E+03  0.11457579136E+02  0.48225269467E+03  0.00000000000E+00 0.  1.
<mgrwt>
<rscale>  0 0.23372110E+04</rscale>
<asrwt>0</asrwt>
<pdfrwt beam="1">  1        2 0.21609285E+00 0.23372110E+04</pdfrwt>
<pdfrwt beam="2">  1       -1 0.14957835E+00 0.23372110E+04</pdfrwt>
<totfact> 0.52075708E+00</totfact>
</mgrwt>
</event>
<event>
12    6  0.1538774E-007  0.1300176E+04  0.7818608E-02  0.9029426E-01
         -1   -1    0    0    0  501 -0.00000000000E+00  0.00000000000E+00  0.13434431717E+04  0.13434431717E+04  0.00000000000E+00 0.  1.
          2   -1    0    0  501    0  0.00000000000E+00 -0.00000000000E+00 -0.31457553308E+03  0.31457553308E+03  0.00000000000E+00 0. -1.
         24    2    1    2    0    0  0.58561737565E+02 -0.15337580345E+03  0.61788395848E+03  0.64482390549E+03  0.84045634937E+02 0.  0.
        254    2    1    2    0    0 -0.58561737565E+02  0.15337580345E+03  0.41098368016E+03  0.10131947993E+04  0.91142882432E+03 0.  0.
         23    2    4    4    0    0  0.40272469219E+03 -0.16513306688E+01  0.28781945855E+03  0.50279339827E+03  0.88154727808E+02 0.  0.
         23    2    4    4    0    0 -0.46128642976E+03  0.15502713411E+03  0.12316422161E+03  0.51040140104E+03  0.92312415785E+02 0.  0.
          2    1    3    3  502    0 -0.19354441961E+02 -0.58045324473E+02  0.21665055206E+03  0.22512511149E+03  0.00000000000E+00 0. -1.
         -1    1    3    3    0  502  0.77916179527E+02 -0.95330478973E+02  0.40123340643E+03  0.41969879400E+03  0.00000000000E+00 0.  1.
         11    1    5    5    0    0  0.13725227522E+03  0.87211631133E+01  0.50343978347E+02  0.14645395828E+03  0.00000000000E+00 0. -1.
        -11    1    5    5    0    0  0.26547241697E+03 -0.10372493782E+02  0.23747548020E+03  0.35633943999E+03  0.00000000000E+00 0.  1.
          1    1    6    6  503    0 -0.72144518453E+02  0.53689173175E+02  0.45746321761E+02  0.10089640635E+03  0.00000000000E+00 0.  1.
         -1    1    6    6    0  503 -0.38914191130E+03  0.10133796094E+03  0.77417899844E+02  0.40950499469E+03  0.00000000000E+00 0. -1.
<mgrwt>
<rscale>  0 0.13001759E+04</rscale>
<asrwt>0</asrwt>
<pdfrwt beam="1">  1        2 0.48396237E-01 0.13001759E+04</pdfrwt>
<pdfrwt beam="2">  1       -1 0.20668356E+00 0.13001759E+04</pdfrwt>
<totfact> 0.15832761E+01</totfact>
</mgrwt>
</event>
<event>
12    6  0.1538774E-007  0.1716637E+04  0.7818608E-02  0.8751932E-01
         -1   -1    0    0    0  501 -0.00000000000E+00  0.00000000000E+00  0.36774959896E+03  0.36774959896E+03  0.00000000000E+00 0.  1.
          2   -1    0    0  501    0  0.00000000000E+00 -0.00000000000E+00 -0.20032933987E+04  0.20032933987E+04  0.00000000000E+00 0. -1.
         24    2    1    2    0    0 -0.51438403359E+03  0.32150958161E+03 -0.36152720383E+03  0.71064961860E+03  0.79759740596E+02 0.  0.
        254    2    1    2    0    0  0.51438403359E+03 -0.32150958161E+03 -0.12740165959E+04  0.16603933790E+04  0.87511630169E+03 0.  0.
         23    2    4    4    0    0 -0.23683347167E+03 -0.64714803305E+02 -0.38831761414E+03  0.46780225886E+03  0.88149219322E+02 0.  0.
         23    2    4    4    0    0  0.75121750526E+03 -0.25679477831E+03 -0.88569898174E+03  0.11925911202E+04  0.86830843016E+02 0.  0.
          2    1    3    3  502    0 -0.42015749033E+03  0.23501338668E+03 -0.31093408074E+03  0.57310000101E+03  0.00000000000E+00 0. -1.
         -1    1    3    3    0  502 -0.94226543263E+02  0.86496194934E+02 -0.50593123098E+02  0.13754961759E+03  0.00000000000E+00 0.  1.
         11    1    5    5    0    0 -0.19557012322E+03 -0.30602238534E+02 -0.34952820490E+03  0.40168910381E+03  0.00000000000E+00 0.  1.
        -11    1    5    5    0    0 -0.41263348452E+02 -0.34112564770E+02 -0.38789409241E+02  0.66113155044E+02  0.00000000000E+00 0. -1.
          3    1    6    6  503    0  0.27587995914E+03 -0.12222212554E+03 -0.28759732346E+03  0.41684555928E+03  0.00000000000E+00 0. -1.
         -3    1    6    6    0  503  0.47533754612E+03 -0.13457265277E+03 -0.59810165828E+03  0.77574556090E+03  0.00000000000E+00 0.  1.
<mgrwt>
<rscale>  0 0.17166366E+04</rscale>
<asrwt>0</asrwt>
<pdfrwt beam="1">  1        2 0.30819899E+00 0.17166366E+04</pdfrwt>
<pdfrwt beam="2">  1       -1 0.56576861E-01 0.17166366E+04</pdfrwt>
<totfact> 0.22771162E+01</totfact>
</mgrwt>
</event>
<event>
12    6  0.1538774E-007  0.5313651E+04  0.7818608E-02  0.7781865E-01
         -1   -1    0    0    0  501 -0.00000000000E+00  0.00000000000E+00  0.24194950190E+04  0.24194950190E+04  0.00000000000E+00 0.  1.
          2   -1    0    0  501    0  0.00000000000E+00 -0.00000000000E+00 -0.29174360488E+04  0.29174360488E+04  0.00000000000E+00 0. -1.
         24    2    1    2    0    0 -0.20661597474E+04  0.96838060305E+03 -0.14522927253E+04  0.27060685407E+04  0.82919798107E+02 0.  0.
        254    2    1    2    0    0  0.20661597474E+04 -0.96838060305E+03  0.95435169548E+03  0.26308625271E+04  0.89658986385E+03 0.  0.
         23    2    4    4    0    0  0.14049138302E+04 -0.78702919466E+03  0.23045789183E+03  0.16295223158E+04  0.95049008690E+02 0.  0.
         23    2    4    4    0    0  0.66124591714E+03 -0.18135140838E+03  0.72389380364E+03  0.10013402114E+04  0.92333545744E+02 0.  0.
          4    1    3    3  502    0 -0.16338824276E+04  0.77000409006E+03 -0.11887019751E+04  0.21622882490E+04  0.00000000000E+00 0. -1.
         -3    1    3    3    0  502 -0.43227731973E+03  0.19837651298E+03 -0.26359075019E+03  0.54378029171E+03  0.00000000000E+00 0.  1.
         11    1    5    5    0    0  0.10923845595E+04 -0.63858919924E+03  0.21251310881E+03  0.12830674233E+04  0.00000000000E+00 0. -1.
        -11    1    5    5    0    0  0.31252927070E+03 -0.14843999542E+03  0.17944783022E+02  0.34645489248E+03  0.00000000000E+00 0.  1.
          2    1    6    6  503    0  0.27169925274E+03 -0.57708809139E+02  0.35525112630E+03  0.45094806057E+03  0.00000000000E+00 0. -1.
         -2    1    6    6    0  503  0.38954666439E+03 -0.12364259924E+03  0.36864267735E+03  0.55039215079E+03  0.00000000000E+00 0.  1.
<mgrwt>
<rscale>  0 0.53136511E+04</rscale>
<asrwt>0</asrwt>
<pdfrwt beam="1">  1        2 0.44883632E+00 0.53136511E+04</pdfrwt>
<pdfrwt beam="2">  1       -1 0.37223000E+00 0.53136511E+04</pdfrwt>
<totfact> 0.17472606E-02</totfact>
</mgrwt>
</event>
<event>
12    6  0.1538774E-007  0.1477765E+04  0.7818608E-02  0.8899375E-01
          2   -1    0    0  501    0  0.00000000000E+00  0.00000000000E+00  0.35370731016E+03  0.35370731016E+03  0.00000000000E+00 0. -1.
         -1   -1    0    0    0  501 -0.00000000000E+00 -0.00000000000E+00 -0.15434993465E+04  0.15434993465E+04  0.00000000000E+00 0.  1.
         24    2    1    2    0    0  0.12398710433E+03 -0.10675951558E+03  0.17584128606E+03  0.25343324168E+03  0.80856996590E+02 0.  0.
        254    2    1    2    0    0 -0.12398710433E+03  0.10675951558E+03 -0.13656333224E+04  0.16437734149E+04  0.90014791692E+03 0.  0.
         23    2    4    4    0    0 -0.26568089129E+03  0.39271796448E+03 -0.41688210086E+03  0.63860753773E+03  0.95995654117E+02 0.  0.
         23    2    4    4    0    0  0.14169378696E+03 -0.28595844890E+03 -0.94875122149E+03  0.10051658772E+04  0.91543414059E+02 0.  0.
          2    1    3    3  502    0  0.70879228846E+02 -0.71983750703E+02  0.15792584448E+03  0.18747292552E+03  0.00000000000E+00 0. -1.
         -1    1    3    3    0  502  0.53107875483E+02 -0.34775764873E+02  0.17915441580E+02  0.65960316159E+02  0.00000000000E+00 0.  1.
         11    1    5    5    0    0 -0.19607910005E+03  0.31819120606E+03 -0.27564960927E+03  0.46440861769E+03  0.00000000000E+00 0. -1.
        -11    1    5    5    0    0 -0.69601791242E+02  0.74526758415E+02 -0.14123249159E+03  0.17419892004E+03  0.00000000000E+00 0.  1.
          2    1    6    6  503    0  0.50675581503E+02 -0.20084356333E+03 -0.57309842937E+03  0.60938326301E+03  0.00000000000E+00 0. -1.
         -2    1    6    6    0  503  0.91018205460E+02 -0.85114885570E+02 -0.37565279212E+03  0.39578261420E+03  0.00000000000E+00 0.  1.
<mgrwt>
<rscale>  0 0.14777645E+04</rscale>
<asrwt>0</asrwt>
<pdfrwt beam="1">  1        2 0.54416508E-01 0.14777645E+04</pdfrwt>
<pdfrwt beam="2">  1       -1 0.23746144E+00 0.14777645E+04</pdfrwt>
<totfact> 0.85261398E+00</totfact>
</mgrwt>
</event>
<event>
12    6  0.1538774E-007  0.1585364E+04  0.7818608E-02  0.8829590E-01
         -1   -1    0    0    0  501 -0.00000000000E+00  0.00000000000E+00  0.89335996185E+03  0.89335996185E+03  0.00000000000E+00 0.  1.
          2   -1    0    0  501    0  0.00000000000E+00 -0.00000000000E+00 -0.70334992524E+03  0.70334992524E+03  0.00000000000E+00 0. -1.
         24    2    1    2    0    0  0.43365479330E+03 -0.19745669842E+03  0.29952492703E+03  0.56828192176E+03  0.78635444783E+02 0.  0.
        254    2    1    2    0    0 -0.43365479330E+03  0.19745669842E+03 -0.10951489041E+03  0.10284279653E+04  0.90477894601E+03 0.  0.
         23    2    4    4    0    0 -0.57870357609E+03  0.12310746280E+03 -0.37340027929E+03  0.70567553792E+03  0.92178738735E+02 0.  0.
         23    2    4    4    0    0  0.14504878279E+03  0.74349235627E+02  0.26388538888E+03  0.32275242740E+03  0.89256219432E+02 0.  0.
          2    1    3    3  502    0  0.17322498990E+03 -0.10643766509E+03  0.92500731918E+02  0.22336575181E+03  0.00000000000E+00 0. -1.
         -1    1    3    3    0  502  0.26042980340E+03 -0.91019033329E+02  0.20702419511E+03  0.34491616994E+03  0.00000000000E+00 0.  1.
         11    1    5    5    0    0 -0.13063735036E+02 -0.91506290468E+01 -0.17078898085E+01  0.16040949867E+02  0.00000000000E+00 0. -1.
        -11    1    5    5    0    0 -0.56563984105E+03  0.13225809184E+03 -0.37169238948E+03  0.68963458806E+03  0.00000000000E+00 0.  1.
          4    1    6    6  503    0  0.24327292132E-02  0.28181534311E+02  0.17604141350E+02  0.33228070583E+02  0.00000000000E+00 0. -1.
         -4    1    6    6    0  503  0.14504635006E+03  0.46167701316E+02  0.24628124753E+03  0.28952435682E+03  0.00000000000E+00 0.  1.
<mgrwt>
<rscale>  0 0.15853639E+04</rscale>
<asrwt>0</asrwt>
<pdfrwt beam="1">  1        2 0.10820768E+00 0.15853639E+04</pdfrwt>
<pdfrwt beam="2">  1       -1 0.13743999E+00 0.15853639E+04</pdfrwt>
<totfact> 0.19642363E+01</totfact>
</mgrwt>
</event>
<event>
12    6  0.1538774E-007  0.2124391E+04  0.7818608E-02  0.8550575E-01
          2   -1    0    0  501    0  0.00000000000E+00  0.00000000000E+00  0.61638534740E+03  0.61638534740E+03  0.00000000000E+00 0. -1.
         -1   -1    0    0    0  501 -0.00000000000E+00 -0.00000000000E+00 -0.18304441310E+04  0.18304441310E+04  0.00000000000E+00 0.  1.
         24    2    1    2    0    0  0.29242980114E+03  0.55027720163E+03  0.19529463367E+03  0.65798754609E+03  0.80544581674E+02 0.  0.
        254    2    1    2    0    0 -0.29242980114E+03 -0.55027720163E+03 -0.14093534173E+04  0.17888419323E+04  0.90849227669E+03 0.  0.
         23    2    4    4    0    0 -0.45049973534E+03  0.61171699932E+02 -0.58902229393E+03  0.74950175970E+03  0.90075727241E+02 0.  0.
         23    2    4    4    0    0  0.15806993419E+03 -0.61144890156E+03 -0.82033112338E+03  0.10393401726E+04  0.91809472124E+02 0.  0.
          4    1    3    3  502    0  0.18311283348E+03  0.40946594191E+03  0.16025032080E+03  0.47631169698E+03  0.00000000000E+00 0. -1.
         -3    1    3    3    0  502  0.10931696766E+03  0.14081125973E+03  0.35044312869E+02  0.18167584911E+03  0.00000000000E+00 0.  1.
         11    1    5    5    0    0 -0.33311288326E+03  0.42488272589E+02 -0.36554444096E+03  0.49637907351E+03  0.00000000000E+00 0.  1.
        -11    1    5    5    0    0 -0.11738685208E+03  0.18683427344E+02 -0.22347785296E+03  0.25312268619E+03  0.00000000000E+00 0. -1.
          4    1    6    6  503    0  0.12633587513E+03 -0.47783315317E+03 -0.69899967553E+03  0.85608750838E+03  0.00000000000E+00 0.  1.
         -4    1    6    6    0  503  0.31734059068E+02 -0.13361574839E+03 -0.12133144785E+03  0.18325266426E+03  0.00000000000E+00 0. -1.
<mgrwt>
<rscale>  0 0.21243907E+04</rscale>
<asrwt>0</asrwt>
<pdfrwt beam="1">  1        2 0.94828516E-01 0.21243907E+04</pdfrwt>
<pdfrwt beam="2">  1       -1 0.28160679E+00 0.21243907E+04</pdfrwt>
<totfact> 0.21904718E+00</totfact>
</mgrwt>
</event>
<event>
12    6  0.1538774E-007  0.3587869E+04  0.7818608E-02  0.8093276E-01
         -1   -1    0    0    0  501 -0.00000000000E+00  0.00000000000E+00  0.18454109494E+04  0.18454109494E+04  0.00000000000E+00 0.  1.
          2   -1    0    0  501    0  0.00000000000E+00 -0.00000000000E+00 -0.17438935248E+04  0.17438935248E+04  0.00000000000E+00 0. -1.
         24    2    1    2    0    0  0.68839150582E+01 -0.15466326225E+04 -0.60728528173E+03  0.16634878923E+04  0.79225610330E+02 0.  0.
        254    2    1    2    0    0 -0.68839150582E+01  0.15466326225E+04  0.70880270637E+03  0.19258165819E+04  0.90235712077E+03 0.  0.
         23    2    4    4    0    0 -0.38506567170E+03  0.46655810267E+03  0.80377300121E+02  0.61709715164E+03  0.91631596595E+02 0.  0.
         23    2    4    4    0    0  0.37818175664E+03  0.10800745198E+04  0.62842540625E+03  0.13087194303E+04  0.90805542587E+02 0.  0.
          2    1    3    3  502    0  0.20869951808E+02 -0.10177504801E+04 -0.36303909747E+03  0.10807631475E+04  0.00000000000E+00 0. -1.
         -1    1    3    3    0  502 -0.13986036750E+02 -0.52888214231E+03 -0.24424618426E+03  0.58272474480E+03  0.00000000000E+00 0.  1.
         11    1    5    5    0    0 -0.33066028382E+02  0.26254263295E+02  0.28634270182E+02  0.51015389864E+02  0.00000000000E+00 0.  1.
        -11    1    5    5    0    0 -0.35199964332E+03  0.44030383937E+03  0.51743029939E+02  0.56608176177E+03  0.00000000000E+00 0. -1.
          3    1    6    6  503    0  0.16815024045E+03  0.42319025519E+03  0.20436714789E+03  0.49912966912E+03  0.00000000000E+00 0. -1.
         -3    1    6    6    0  503  0.21003151619E+03  0.65688426459E+03  0.42405825835E+03  0.80958976114E+03  0.00000000000E+00 0.  1.
<mgrwt>
<rscale>  0 0.35878686E+04</rscale>
<asrwt>0</asrwt>
<pdfrwt beam="1">  1        2 0.26829131E+00 0.35878686E+04</pdfrwt>
<pdfrwt beam="2">  1       -1 0.28390938E+00 0.35878686E+04</pdfrwt>
<totfact> 0.36139702E-01</totfact>
</mgrwt>
</event>
<event>
12    6  0.1538774E-007  0.1260680E+04  0.7818608E-02  0.9061341E-01
          4   -1    0    0  501    0  0.00000000000E+00  0.00000000000E+00  0.13131189921E+04  0.13131189921E+04  0.00000000000E+00 0. -1.
         -3   -1    0    0    0  501 -0.00000000000E+00 -0.00000000000E+00 -0.30258387223E+03  0.30258387223E+03  0.00000000000E+00 0.  1.
         24    2    1    2    0    0  0.57146538824E+02  0.30858119614E+02  0.63510519033E+03  0.64347411349E+03  0.80513238096E+02 0.  0.
        254    2    1    2    0    0 -0.57146538824E+02 -0.30858119614E+02  0.37542992954E+03  0.97222875082E+03  0.89446249865E+03 0.  0.
         23    2    4    4    0    0 -0.40259083319E+03  0.14580996380E+02 -0.50219665794E+02  0.41474367620E+03  0.84842900061E+02 0.  0.
         23    2    4    4    0    0  0.34544429437E+03 -0.45439115994E+02  0.42564959533E+03  0.55748507462E+03  0.90639707882E+02 0.  0.
          2    1    3    3  502    0 -0.15145624392E+02  0.75311977071E+01  0.27110487913E+03  0.27163203854E+03  0.00000000000E+00 0. -1.
         -1    1    3    3    0  502  0.72292163216E+02  0.23326921907E+02  0.36400031120E+03  0.37184207495E+03  0.00000000000E+00 0.  1.
         11    1    5    5    0    0 -0.94279693280E+02 -0.27825099982E+02 -0.30425734305E+02  0.10290103042E+03  0.00000000000E+00 0. -1.
        -11    1    5    5    0    0 -0.30831113991E+03  0.42406096362E+02 -0.19793931489E+02  0.31184264578E+03  0.00000000000E+00 0.  1.
          3    1    6    6  503    0  0.25791858354E+03 -0.45610587825E+01  0.26354683454E+03  0.36878141628E+03  0.00000000000E+00 0. -1.
         -3    1    6    6    0  503  0.87525710825E+02 -0.40878057212E+02  0.16210276079E+03  0.18870365834E+03  0.00000000000E+00 0.  1.
<mgrwt>
<rscale>  0 0.12606802E+04</rscale>
<asrwt>0</asrwt>
<pdfrwt beam="1">  1        4 0.20201830E+00 0.12606802E+04</pdfrwt>
<pdfrwt beam="2">  1       -3 0.46551366E-01 0.12606802E+04</pdfrwt>
<totfact> 0.13164429E+00</totfact>
</mgrwt>
</event>
<event>
12    6  0.1538774E-007  0.3167068E+04  0.7818608E-02  0.8197569E-01
         -1   -1    0    0    0  501 -0.00000000000E+00  0.00000000000E+00  0.11041373440E+04  0.11041373440E+04  0.00000000000E+00 0.  1.
          2   -1    0    0  501    0  0.00000000000E+00 -0.00000000000E+00 -0.22710766522E+04  0.22710766522E+04  0.00000000000E+00 0. -1.
         24    2    1    2    0    0  0.17864034130E+03  0.13404703670E+04 -0.10826472957E+04  0.17340971814E+04  0.78706361100E+02 0.  0.
        254    2    1    2    0    0 -0.17864034130E+03 -0.13404703670E+04 -0.84292012505E+02  0.16411168148E+04  0.92595144596E+03 0.  0.
         23    2    4    4    0    0 -0.45867841495E+03 -0.33453955008E+03  0.77570662357E+02  0.58041868560E+03  0.92552925541E+02 0.  0.
         23    2    4    4    0    0  0.28003807365E+03 -0.10059308169E+04 -0.16186267486E+03  0.10606981292E+04  0.92535748631E+02 0.  0.
          2    1    3    3  502    0  0.71877138918E+02  0.66142768451E+03 -0.48657323298E+03  0.82426113338E+03  0.00000000000E+00 0. -1.
         -3    1    3    3    0  502  0.10676320238E+03  0.67904268245E+03 -0.59607406271E+03  0.90983604798E+03  0.00000000000E+00 0.  1.
         11    1    5    5    0    0 -0.35435211385E+03 -0.23062239861E+03  0.91276655917E+02  0.43253154710E+03  0.00000000000E+00 0.  1.
        -11    1    5    5    0    0 -0.10432630110E+03 -0.10391715148E+03 -0.13705993560E+02  0.14788713850E+03  0.00000000000E+00 0. -1.
          1    1    6    6  503    0  0.10411592646E+03 -0.29367137440E+03 -0.85324739335E+02  0.32305311240E+03  0.00000000000E+00 0. -1.
         -1    1    6    6    0  503  0.17592214719E+03 -0.71225944248E+03 -0.76537935526E+02  0.73764501682E+03  0.00000000000E+00 0.  1.
<mgrwt>
<rscale>  0 0.31670684E+04</rscale>
<asrwt>0</asrwt>
<pdfrwt beam="1">  1        2 0.34939641E+00 0.31670684E+04</pdfrwt>
<pdfrwt beam="2">  1       -1 0.16986728E+00 0.31670684E+04</pdfrwt>
<totfact> 0.11144861E+00</totfact>
</mgrwt>
</event>
<event>
12    6  0.1538774E-007  0.1458334E+04  0.7818608E-02  0.8912643E-01
         -1   -1    0    0    0  501 -0.00000000000E+00  0.00000000000E+00  0.50005283023E+03  0.50005283023E+03  0.00000000000E+00 0.  1.
          2   -1    0    0  501    0  0.00000000000E+00 -0.00000000000E+00 -0.10632563768E+04  0.10632563768E+04  0.00000000000E+00 0. -1.
         24    2    1    2    0    0  0.38493877109E+03  0.87637159923E+02 -0.40132772226E+03  0.56893390073E+03  0.82241798750E+02 0.  0.
        254    2    1    2    0    0 -0.38493877109E+03 -0.87637159923E+02 -0.16187582434E+03  0.99437530632E+03  0.89817611749E+03 0.  0.
         23    2    4    4    0    0 -0.86754760604E+02 -0.34599951856E+03  0.22730259195E+03  0.43266660198E+03  0.91059677311E+02 0.  0.
         23    2    4    4    0    0 -0.29818401048E+03  0.25836235864E+03 -0.38917841629E+03  0.56170870434E+03  0.91607949215E+02 0.  0.
          4    1    3    3  502    0  0.28551674570E+03  0.70522001323E+02 -0.34517692581E+03  0.45347577097E+03  0.00000000000E+00 0. -1.
         -3    1    3    3    0  502  0.99422025389E+02  0.17115158600E+02 -0.56150796452E+02  0.11545812976E+03  0.00000000000E+00 0.  1.
         11    1    5    5    0    0 -0.39255680469E+02 -0.29676649125E+03  0.19259129324E+03  0.35595331858E+03  0.00000000000E+00 0. -1.
        -11    1    5    5    0    0 -0.47499080135E+02 -0.49233027310E+02  0.34711298709E+02  0.76713283399E+02  0.00000000000E+00 0.  1.
          1    1    6    6  503    0 -0.10760761500E+03  0.13912790088E+03 -0.21209363332E+03  0.27553526254E+03  0.00000000000E+00 0. -1.
         -1    1    6    6    0  503 -0.19057639548E+03  0.11923445776E+03 -0.17708478296E+03  0.28617344180E+03  0.00000000000E+00 0.  1.
<mgrwt>
<rscale>  0 0.14583338E+04</rscale>
<asrwt>0</asrwt>
<pdfrwt beam="1">  1        2 0.16357790E+00 0.14583338E+04</pdfrwt>
<pdfrwt beam="2">  1       -1 0.76931205E-01 0.14583338E+04</pdfrwt>
<totfact> 0.43035387E+01</totfact>
</mgrwt>
</event>
<event>
12    6  0.1538774E-007  0.2137242E+04  0.7818608E-02  0.8545013E-01
          2   -1    0    0  501    0  0.00000000000E+00  0.00000000000E+00  0.21492993371E+04  0.21492993371E+04  0.00000000000E+00 0. -1.
         -1   -1    0    0    0  501 -0.00000000000E+00 -0.00000000000E+00 -0.53131324279E+03  0.53131324279E+03  0.00000000000E+00 0.  1.
         24    2    1    2    0    0  0.47332613518E+03  0.24770800439E+03  0.15504489940E+04  0.16417706765E+04  0.78243118607E+02 0.  0.
        254    2    1    2    0    0 -0.47332613518E+03 -0.24770800439E+03  0.67537100258E+02  0.10388419033E+04  0.88838862808E+03 0.  0.
         23    2    4    4    0    0 -0.59729655007E+03 -0.20154481595E+03 -0.24866555778E+03  0.68382577865E+03  0.91649628306E+02 0.  0.
         23    2    4    4    0    0  0.12397041489E+03 -0.46163188445E+02  0.31620265804E+03  0.35501612466E+03  0.92480398362E+02 0.  0.
          2    1    3    3  502    0  0.41874827169E+03  0.22738111936E+03  0.14417613590E+04  0.15184624147E+04  0.00000000000E+00 0. -1.
         -1    1    3    3    0  502  0.54577863485E+02  0.20326885033E+02  0.10868763505E+03  0.12330826189E+03  0.00000000000E+00 0.  1.
         11    1    5    5    0    0 -0.52290303303E+03 -0.14326266236E+03 -0.20380130661E+03  0.57921217610E+03  0.00000000000E+00 0.  1.
        -11    1    5    5    0    0 -0.74393517041E+02 -0.58282153592E+02 -0.44864251178E+02  0.10461360255E+03  0.00000000000E+00 0. -1.
          4    1    6    6  503    0  0.14003380637E+02 -0.89220192539E+01  0.15753263992E+03  0.15840527054E+03  0.00000000000E+00 0.  1.
         -4    1    6    6    0  503  0.10996703425E+03 -0.37241169191E+02  0.15867001813E+03  0.19661085412E+03  0.00000000000E+00 0. -1.
<mgrwt>
<rscale>  0 0.21372423E+04</rscale>
<asrwt>0</asrwt>
<pdfrwt beam="1">  1        2 0.33066143E+00 0.21372423E+04</pdfrwt>
<pdfrwt beam="2">  1       -1 0.81740500E-01 0.21372423E+04</pdfrwt>
<totfact> 0.85892555E+00</totfact>
</mgrwt>
</event>
<event>
12    6  0.1538774E-007  0.2629852E+04  0.7818608E-02  0.8358131E-01
         -1   -1    0    0    0  501 -0.00000000000E+00  0.00000000000E+00  0.75965842964E+03  0.75965842964E+03  0.00000000000E+00 0.  1.
          2   -1    0    0  501    0  0.00000000000E+00 -0.00000000000E+00 -0.22760635605E+04  0.22760635605E+04  0.00000000000E+00 0. -1.
         24    2    1    2    0    0  0.56126594048E+03  0.44302977806E+03 -0.17278686268E+04  0.18716469066E+04  0.78976651602E+02 0.  0.
        254    2    1    2    0    0 -0.56126594048E+03 -0.44302977806E+03  0.21146349592E+03  0.11640750835E+04  0.89390108499E+03 0.  0.
         23    2    4    4    0    0 -0.67529468802E+03 -0.13081831241E+02  0.48913112241E+02  0.68273663432E+03  0.86849118156E+02 0.  0.
         23    2    4    4    0    0  0.11402874753E+03 -0.42994794682E+03  0.16255038368E+03  0.48133844919E+03  0.86059765242E+02 0.  0.
          4    1    3    3  502    0  0.26746827890E+03  0.24863027017E+03 -0.81092825712E+03  0.88935984262E+03  0.00000000000E+00 0. -1.
         -3    1    3    3    0  502  0.29379766158E+03  0.19439950789E+03 -0.91694036965E+03  0.98228706401E+03  0.00000000000E+00 0.  1.
         11    1    5    5    0    0 -0.28447906284E+03  0.23353576204E+02 -0.11168982277E+02  0.28565446413E+03  0.00000000000E+00 0.  1.
        -11    1    5    5    0    0 -0.39081562518E+03 -0.36435407445E+02  0.60082094519E+02  0.39708217019E+03  0.00000000000E+00 0. -1.
          1    1    6    6  503    0  0.11291947193E+03 -0.29668869491E+03  0.91797337154E+02  0.33045686547E+03  0.00000000000E+00 0. -1.
         -1    1    6    6    0  503  0.11092756003E+01 -0.13325925191E+03  0.70753046526E+02  0.15088158371E+03  0.00000000000E+00 0.  1.
<mgrwt>
<rscale>  0 0.26298524E+04</rscale>
<asrwt>0</asrwt>
<pdfrwt beam="1">  1        2 0.35016362E+00 0.26298524E+04</pdfrwt>
<pdfrwt beam="2">  1       -1 0.11687053E+00 0.26298524E+04</pdfrwt>
<totfact> 0.30987828E+00</totfact>
</mgrwt>
</event>
<event>
12    6  0.1538774E-007  0.2066406E+04  0.7818608E-02  0.8576188E-01
          2   -1    0    0  501    0  0.00000000000E+00  0.00000000000E+00  0.12554354928E+04  0.12554354928E+04  0.00000000000E+00 0. -1.
         -1   -1    0    0    0  501 -0.00000000000E+00 -0.00000000000E+00 -0.85030934374E+03  0.85030934374E+03  0.00000000000E+00 0.  1.
         24    2    1    2    0    0 -0.78178435295E+03  0.14540953380E+03 -0.10147882946E+03  0.80484091767E+03  0.71695487286E+02 0.  0.
        254    2    1    2    0    0  0.78178435295E+03 -0.14540953380E+03  0.50660497848E+03  0.13009039188E+04  0.89631004388E+03 0.  0.
         23    2    4    4    0    0  0.74851220465E+02  0.30012133886E+03  0.53099111670E+01  0.32254480278E+03  0.91276674980E+02 0.  0.
         23    2    4    4    0    0  0.70693313248E+03 -0.44553087266E+03  0.50129506731E+03  0.97835911605E+03  0.87393381636E+02 0.  0.
          2    1    3    3  502    0 -0.59909146113E+03  0.85771968650E+02 -0.59405641682E+02  0.60810890445E+03  0.00000000000E+00 0. -1.
         -1    1    3    3    0  502 -0.18269289182E+03  0.59637565148E+02 -0.42073187776E+02  0.19673201322E+03  0.00000000000E+00 0.  1.
         11    1    5    5    0    0  0.54421775906E+02  0.62981127076E+02  0.13809639262E+02  0.84374511537E+02  0.00000000000E+00 0. -1.
        -11    1    5    5    0    0  0.20429444559E+02  0.23714021179E+03 -0.84997280950E+01  0.23817029124E+03  0.00000000000E+00 0.  1.
          1    1    6    6  503    0  0.32028968392E+02 -0.43535931929E+02  0.23706344337E+02  0.59018835527E+02  0.00000000000E+00 0. -1.
         -1    1    6    6    0  503  0.67490416409E+03 -0.40199494073E+03  0.47758872297E+03  0.91934028052E+03  0.00000000000E+00 0.  1.
<mgrwt>
<rscale>  0 0.20664061E+04</rscale>
<asrwt>0</asrwt>
<pdfrwt beam="1">  1        2 0.19314392E+00 0.20664061E+04</pdfrwt>
<pdfrwt beam="2">  1       -1 0.13081682E+00 0.20664061E+04</pdfrwt>
<totfact> 0.92327928E+00</totfact>
</mgrwt>
</event>
<event>
12    6  0.1538774E-007  0.2055438E+04  0.7818608E-02  0.8581132E-01
          2   -1    0    0  501    0  0.00000000000E+00  0.00000000000E+00  0.10880639522E+04  0.10880639522E+04  0.00000000000E+00 0. -1.
         -1   -1    0    0    0  501 -0.00000000000E+00 -0.00000000000E+00 -0.97072043050E+03  0.97072043050E+03  0.00000000000E+00 0.  1.
         24    2    1    2    0    0 -0.10387351111E+03  0.80271797047E+03 -0.43098473601E+02  0.81446506084E+03  0.79686952952E+02 0.  0.
        254    2    1    2    0    0  0.10387351111E+03 -0.80271797047E+03  0.16044199527E+03  0.12443193218E+04  0.93136625148E+03 0.  0.
         23    2    4    4    0    0 -0.19919845816E+03 -0.86372775245E+03  0.21887522086E+03  0.91773764334E+03  0.92899750302E+02 0.  0.
         23    2    4    4    0    0  0.30307196927E+03  0.61009781981E+02 -0.58433225594E+02  0.32658167848E+03  0.87557631387E+02 0.  0.
          4    1    3    3  502    0 -0.77323904058E+02  0.46542058441E+03  0.10434934927E+02  0.47191545260E+03  0.00000000000E+00 0. -1.
         -3    1    3    3    0  502 -0.26549607053E+02  0.33729738606E+03 -0.53533408528E+02  0.34254960824E+03  0.00000000000E+00 0.  1.
         11    1    5    5    0    0 -0.65031370823E+02 -0.27272439801E+03  0.11413664714E+03  0.30271248848E+03  0.00000000000E+00 0. -1.
        -11    1    5    5    0    0 -0.13416708733E+03 -0.59100335444E+03  0.10473857373E+03  0.61502515486E+03  0.00000000000E+00 0.  1.
          1    1    6    6  503    0  0.10339431220E+03 -0.95399689394E+01 -0.48426165945E+02  0.11457088788E+03  0.00000000000E+00 0. -1.
         -1    1    6    6    0  503  0.19967765707E+03  0.70549750921E+02 -0.10007059650E+02  0.21201079060E+03  0.00000000000E+00 0.  1.
<mgrwt>
<rscale>  0 0.20554376E+04</rscale>
<asrwt>0</asrwt>
<pdfrwt beam="1">  1        2 0.16739445E+00 0.20554376E+04</pdfrwt>
<pdfrwt beam="2">  1       -1 0.14934160E+00 0.20554376E+04</pdfrwt>
<totfact> 0.82529743E+00</totfact>
</mgrwt>
</event>
<event>
12    6  0.1538774E-007  0.1299948E+04  0.7818608E-02  0.9029607E-01
         -1   -1    0    0    0  501 -0.00000000000E+00  0.00000000000E+00  0.64872598587E+03  0.64872598587E+03  0.00000000000E+00 0.  1.
          2   -1    0    0  501    0  0.00000000000E+00 -0.00000000000E+00 -0.65122410826E+03  0.65122410826E+03  0.00000000000E+00 0. -1.
         24    2    1    2    0    0  0.19762645285E+03  0.21255025721E+03 -0.16469677127E+03  0.34280863812E+03  0.78478718090E+02 0.  0.
        254    2    1    2    0    0 -0.19762645285E+03 -0.21255025721E+03  0.16219864888E+03  0.95714145601E+03  0.89753971411E+03 0.  0.
         23    2    4    4    0    0 -0.23181194310E+03 -0.37905353681E+03  0.43179007505E+03  0.62583009359E+03  0.88330495316E+02 0.  0.
         23    2    4    4    0    0  0.34185490247E+02  0.16650327960E+03 -0.26959142617E+03  0.33131136242E+03  0.90530060980E+02 0.  0.
          2    1    3    3  502    0  0.13884568105E+03  0.16041673913E+03 -0.15686001912E+03  0.26384980374E+03  0.00000000000E+00 0. -1.
         -1    1    3    3    0  502  0.58780771803E+02  0.52133518083E+02 -0.78367521585E+01  0.78958834375E+02  0.00000000000E+00 0.  1.
         11    1    5    5    0    0 -0.61318424250E+02 -0.11179693648E+03  0.18206489615E+03  0.22227489864E+03  0.00000000000E+00 0. -1.
        -11    1    5    5    0    0 -0.17049351885E+03 -0.26725660034E+03  0.24972517890E+03  0.40355519495E+03  0.00000000000E+00 0.  1.
          3    1    6    6  503    0  0.15825443695E+02  0.51637350786E+02 -0.16935457108E+03  0.17775778860E+03  0.00000000000E+00 0. -1.
         -3    1    6    6    0  503  0.18360046552E+02  0.11486592882E+03 -0.10023685509E+03  0.15355357381E+03  0.00000000000E+00 0.  1.
<mgrwt>
<rscale>  0 0.12999477E+04</rscale>
<asrwt>0</asrwt>
<pdfrwt beam="1">  1        2 0.10018832E+00 0.12999477E+04</pdfrwt>
<pdfrwt beam="2">  1       -1 0.99803998E-01 0.12999477E+04</pdfrwt>
<totfact> 0.48119610E+01</totfact>
</mgrwt>
</event>
<event>
12    6  0.1538774E-007  0.1719123E+04  0.7818608E-02  0.8750532E-01
          2   -1    0    0  501    0  0.00000000000E+00  0.00000000000E+00  0.13475089525E+04  0.13475089525E+04  0.00000000000E+00 0. -1.
         -1   -1    0    0    0  501 -0.00000000000E+00 -0.00000000000E+00 -0.54830509088E+03  0.54830509088E+03  0.00000000000E+00 0.  1.
         24    2    1    2    0    0 -0.58860111622E+03 -0.96742095445E+02  0.47754602078E+03  0.77016368949E+03  0.96392943762E+02 0.  0.
        254    2    1    2    0    0  0.58860111622E+03  0.96742095445E+02  0.32165784081E+03  0.11256503539E+04  0.89878509418E+03 0.  0.
         23    2    4    4    0    0  0.12456864208E+03  0.41874523793E+03  0.32759708689E+03  0.55352251877E+03  0.90567138464E+02 0.  0.
         23    2    4    4    0    0  0.46403247414E+03 -0.32200314249E+03 -0.59392460710E+01  0.57212783508E+03  0.91010022537E+02 0.  0.
          2    1    3    3  502    0 -0.16601301981E+03 -0.50678649154E+02  0.18772849939E+03  0.25567682278E+03  0.00000000000E+00 0. -1.
         -1    1    3    3    0  502 -0.42258809641E+03 -0.46063446291E+02  0.28981752139E+03  0.51448686671E+03  0.00000000000E+00 0.  1.
         11    1    5    5    0    0 -0.12260898806E+01  0.14019268689E+03  0.93199689674E+02  0.16834985865E+03  0.00000000000E+00 0.  1.
        -11    1    5    5    0    0  0.12579473196E+03  0.27855255105E+03  0.23439739721E+03  0.38517266012E+03  0.00000000000E+00 0. -1.
          2    1    6    6  503    0  0.26262194758E+03 -0.16933786944E+03 -0.47275379029E+02  0.31603886287E+03  0.00000000000E+00 0. -1.
         -2    1    6    6    0  503  0.20141052656E+03 -0.15266527305E+03  0.41336132958E+02  0.25608897221E+03  0.00000000000E+00 0.  1.
<mgrwt>
<rscale>  0 0.17191231E+04</rscale>
<asrwt>0</asrwt>
<pdfrwt beam="1">  1        2 0.20730907E+00 0.17191231E+04</pdfrwt>
<pdfrwt beam="2">  1       -1 0.84354630E-01 0.17191231E+04</pdfrwt>
<totfact> 0.23386825E+01</totfact>
</mgrwt>
</event>
<event>
12    6  0.1538774E-007  0.1916705E+04  0.7818608E-02  0.8646586E-01
         -1   -1    0    0    0  501 -0.00000000000E+00  0.00000000000E+00  0.86984736715E+03  0.86984736715E+03  0.00000000000E+00 0.  1.
          2   -1    0    0  501    0  0.00000000000E+00 -0.00000000000E+00 -0.10558628606E+04  0.10558628606E+04  0.00000000000E+00 0. -1.
         24    2    1    2    0    0 -0.26534553299E+03 -0.48031649301E+02 -0.77155812119E+03  0.82158067224E+03  0.83531882640E+02 0.  0.
        254    2    1    2    0    0  0.26534553299E+03  0.48031649301E+02  0.58554262773E+03  0.11041295555E+04  0.89639646098E+03 0.  0.
         23    2    4    4    0    0 -0.13278072755E+03 -0.33602197792E+03  0.27587551868E+03  0.46352107756E+03  0.90570394060E+02 0.  0.
         23    2    4    4    0    0  0.39812626055E+03  0.38405362722E+03  0.30966710905E+03  0.64060847796E+03  0.92107522399E+02 0.  0.
          2    1    3    3  502    0 -0.22624142403E+03 -0.21911373329E+02 -0.55057365328E+03  0.59564808227E+03  0.00000000000E+00 0. -1.
         -1    1    3    3    0  502 -0.39104108967E+02 -0.26120275972E+02 -0.22098446790E+03  0.22593258997E+03  0.00000000000E+00 0.  1.
         11    1    5    5    0    0 -0.76923371191E+02 -0.16678440523E+03  0.85013784603E+02  0.20238968955E+03  0.00000000000E+00 0. -1.
        -11    1    5    5    0    0 -0.55857356362E+02 -0.16923757269E+03  0.19086173407E+03  0.26113138801E+03  0.00000000000E+00 0.  1.
          2    1    6    6  503    0  0.21738462895E+03  0.20714866464E+03  0.22011334589E+03  0.37231241076E+03  0.00000000000E+00 0. -1.
         -2    1    6    6    0  503  0.18074163160E+03  0.17690496258E+03  0.89553763167E+02  0.26829606720E+03  0.00000000000E+00 0.  1.
<mgrwt>
<rscale>  0 0.19167050E+04</rscale>
<asrwt>0</asrwt>
<pdfrwt beam="1">  1        2 0.16244044E+00 0.19167050E+04</pdfrwt>
<pdfrwt beam="2">  1       -1 0.13382267E+00 0.19167050E+04</pdfrwt>
<totfact> 0.11666302E+01</totfact>
</mgrwt>
</event>
<event>
12    6  0.1538774E-007  0.1654241E+04  0.7818608E-02  0.8787901E-01
          2   -1    0    0  501    0  0.00000000000E+00  0.00000000000E+00  0.19938844624E+04  0.19938844624E+04  0.00000000000E+00 0. -1.
         -1   -1    0    0    0  501 -0.00000000000E+00 -0.00000000000E+00 -0.34311338925E+03  0.34311338925E+03  0.00000000000E+00 0.  1.
         24    2    1    2    0    0 -0.26331834009E+03 -0.26248102349E+03  0.34234729655E+02  0.38216585244E+03  0.81522304524E+02 0.  0.
        254    2    1    2    0    0  0.26331834009E+03  0.26248102349E+03  0.16165363434E+04  0.19548319992E+04  0.10343817281E+04 0.  0.
         23    2    4    4    0    0  0.65026304192E+03  0.22849032138E+03  0.11099367021E+04  0.13097765234E+04  0.92223684456E+02 0.  0.
         23    2    4    4    0    0 -0.38694470183E+03  0.33990702108E+02  0.50659964132E+03  0.64505547573E+03  0.92584016336E+02 0.  0.
          4    1    3    3  502    0 -0.10739445439E+03 -0.92801853506E+02 -0.25265202378E+02  0.14416685922E+03  0.00000000000E+00 0. -1.
         -3    1    3    3    0  502 -0.15592388571E+03 -0.16967916998E+03  0.59499932033E+02  0.23799899322E+03  0.00000000000E+00 0.  1.
         11    1    5    5    0    0  0.41801721821E+03  0.11624997346E+03  0.63067853009E+03  0.76551150179E+03  0.00000000000E+00 0. -1.
        -11    1    5    5    0    0  0.23224582371E+03  0.11224034793E+03  0.47925817203E+03  0.54426502165E+03  0.00000000000E+00 0.  1.
          2    1    6    6  503    0 -0.37065923087E+02  0.58317401573E+01  0.10592949863E+03  0.11237860351E+03  0.00000000000E+00 0. -1.
         -2    1    6    6    0  503 -0.34987877874E+03  0.28158961951E+02  0.40067014269E+03  0.53267687221E+03  0.00000000000E+00 0.  1.
<mgrwt>
<rscale>  0 0.16542412E+04</rscale>
<asrwt>0</asrwt>
<pdfrwt beam="1">  1        2 0.30675145E+00 0.16542412E+04</pdfrwt>
<pdfrwt beam="2">  1       -1 0.52786677E-01 0.16542412E+04</pdfrwt>
<totfact> 0.26499390E+01</totfact>
</mgrwt>
</event>
<event>
12    6  0.1538774E-007  0.1138743E+04  0.7818608E-02  0.9168232E-01
          2   -1    0    0  501    0  0.00000000000E+00  0.00000000000E+00  0.64817177160E+03  0.64817177160E+03  0.00000000000E+00 0. -1.
         -1   -1    0    0    0  501 -0.00000000000E+00 -0.00000000000E+00 -0.50015136328E+03  0.50015136328E+03  0.00000000000E+00 0.  1.
         24    2    1    2    0    0  0.11507284797E+03 -0.13403205028E+03 -0.61442036436E+02  0.20343322252E+03  0.80022505218E+02 0.  0.
        254    2    1    2    0    0 -0.11507284797E+03  0.13403205028E+03  0.20946244475E+03  0.94488991236E+03  0.90428760905E+03 0.  0.
         23    2    4    4    0    0  0.27895521516E+02  0.33923478741E+03 -0.23717640597E+03  0.42485534094E+03  0.91602467568E+02 0.  0.
         23    2    4    4    0    0 -0.14296836949E+03 -0.20520273713E+03  0.44663885072E+03  0.52003457142E+03  0.91660103080E+02 0.  0.
          4    1    3    3  502    0  0.20748836143E+00  0.71578781043E+01 -0.13389661375E+02  0.15184245194E+02  0.00000000000E+00 0. -1.
         -3    1    3    3    0  502  0.11486535961E+03 -0.14118992838E+03 -0.48052375060E+02  0.18824897733E+03  0.00000000000E+00 0.  1.
         11    1    5    5    0    0 -0.82919004044E+01  0.29027526678E+03 -0.20891215481E+03  0.35773282565E+03  0.00000000000E+00 0.  1.
        -11    1    5    5    0    0  0.36187421920E+02  0.48959520629E+02 -0.28264251159E+02  0.67122515291E+02  0.00000000000E+00 0. -1.
          3    1    6    6  503    0 -0.66048677112E+01 -0.17101392679E+02  0.10685117744E+03  0.10841243485E+03  0.00000000000E+00 0. -1.
         -3    1    6    6    0  503 -0.13636350178E+03 -0.18810134445E+03  0.33978767328E+03  0.41162213657E+03  0.00000000000E+00 0.  1.
<mgrwt>
<rscale>  0 0.11387432E+04</rscale>
<asrwt>0</asrwt>
<pdfrwt beam="1">  1        2 0.99718734E-01 0.11387432E+04</pdfrwt>
<pdfrwt beam="2">  1       -1 0.76946363E-01 0.11387432E+04</pdfrwt>
<totfact> 0.86548351E+01</totfact>
</mgrwt>
</event>
<event>
12    6  0.1538774E-007  0.2289410E+04  0.7818608E-02  0.8482108E-01
         -1   -1    0    0    0  501 -0.00000000000E+00  0.00000000000E+00  0.75882508991E+03  0.75882508991E+03  0.00000000000E+00 0.  1.
          2   -1    0    0  501    0  0.00000000000E+00 -0.00000000000E+00 -0.17268138280E+04  0.17268138280E+04  0.00000000000E+00 0. -1.
         24    2    1    2    0    0 -0.37905084127E+03  0.55413736197E+03  0.34408424497E+03  0.75824665403E+03  0.76133202398E+02 0.  0.
        254    2    1    2    0    0  0.37905084127E+03 -0.55413736197E+03 -0.13120729831E+04  0.17273922639E+04  0.90088887452E+03 0.  0.
         23    2    4    4    0    0  0.64311973314E+03 -0.53759136307E+03 -0.10200312544E+04  0.13229620291E+04  0.84600860967E+02 0.  0.
         23    2    4    4    0    0 -0.26406889187E+03 -0.16545998901E+02 -0.29204172869E+03  0.40443023481E+03  0.90935657472E+02 0.  0.
          2    1    3    3  502    0 -0.32687582492E+02  0.18100245472E+02  0.15912133484E+02  0.40611487628E+02  0.00000000000E+00 0. -1.
         -1    1    3    3    0  502 -0.34636325878E+03  0.53603711650E+03  0.32817211149E+03  0.71763516640E+03  0.00000000000E+00 0.  1.
         11    1    5    5    0    0  0.29064079290E+02 -0.47737640457E+01 -0.37677341453E+02  0.47823546367E+02  0.00000000000E+00 0. -1.
        -11    1    5    5    0    0  0.61405565385E+03 -0.53281759903E+03 -0.98235391293E+03  0.12751384827E+04  0.00000000000E+00 0.  1.
          1    1    6    6  503    0 -0.25700893658E+02 -0.81588181334E+01 -0.83012653614E+02  0.87282317271E+02  0.00000000000E+00 0. -1.
         -1    1    6    6    0  503 -0.23836799821E+03 -0.83871807676E+01 -0.20902907508E+03  0.31714791754E+03  0.00000000000E+00 0.  1.
<mgrwt>
<rscale>  0 0.22894101E+04</rscale>
<asrwt>0</asrwt>
<pdfrwt beam="1">  1        2 0.26566366E+00 0.22894101E+04</pdfrwt>
<pdfrwt beam="2">  1       -1 0.11674232E+00 0.22894101E+04</pdfrwt>
<totfact> 0.64808605E+00</totfact>
</mgrwt>
</event>
<event>
12    6  0.1538774E-007  0.1431451E+04  0.7818608E-02  0.8931362E-01
         -1   -1    0    0    0  501 -0.00000000000E+00  0.00000000000E+00  0.13727415445E+04  0.13727415445E+04  0.00000000000E+00 0.  1.
          2   -1    0    0  501    0  0.00000000000E+00 -0.00000000000E+00 -0.37316758712E+03  0.37316758712E+03  0.00000000000E+00 0. -1.
         24    2    1    2    0    0  0.22158019789E+03 -0.33820816497E+03  0.42819272827E+02  0.41537458452E+03  0.84970632522E+02 0.  0.
        254    2    1    2    0    0 -0.22158019789E+03  0.33820816497E+03  0.95675468452E+03  0.13305345471E+04  0.83154080336E+03 0.  0.
         23    2    4    4    0    0  0.29043562136E+03  0.46503081936E+02  0.46536762852E+03  0.55788324646E+03  0.90284551411E+02 0.  0.
         23    2    4    4    0    0 -0.51201581926E+03  0.29170508303E+03  0.49138705600E+03  0.77265130061E+03  0.90976584323E+02 0.  0.
          2    1    3    3  502    0  0.19043645406E+03 -0.32685522705E+03  0.28791693430E+02  0.37938021047E+03  0.00000000000E+00 0. -1.
         -1    1    3    3    0  502  0.31143743839E+02 -0.11352937913E+02  0.14027579397E+02  0.35994374051E+02  0.00000000000E+00 0.  1.
         11    1    5    5    0    0  0.16063445861E+03  0.58598498684E+02  0.31856021942E+03  0.36154920376E+03  0.00000000000E+00 0.  1.
        -11    1    5    5    0    0  0.12980116275E+03 -0.12095416748E+02  0.14680740910E+03  0.19633404270E+03  0.00000000000E+00 0. -1.
          4    1    6    6  503    0 -0.33986681101E+03  0.23445542778E+03  0.36955063505E+03  0.55411773903E+03  0.00000000000E+00 0. -1.
         -4    1    6    6    0  503 -0.17214900825E+03  0.57249655245E+02  0.12183642095E+03  0.21853356158E+03  0.00000000000E+00 0.  1.
<mgrwt>
<rscale>  0 0.14314505E+04</rscale>
<asrwt>0</asrwt>
<pdfrwt beam="1">  1        2 0.57410399E-01 0.14314505E+04</pdfrwt>
<pdfrwt beam="2">  1       -1 0.21119100E+00 0.14314505E+04</pdfrwt>
<totfact> 0.12059409E+01</totfact>
</mgrwt>
</event>
<event>
12    6  0.1538774E-007  0.1847557E+04  0.7818608E-02  0.8681410E-01
         -1   -1    0    0    0  501 -0.00000000000E+00  0.00000000000E+00  0.63193196370E+03  0.63193196370E+03  0.00000000000E+00 0.  1.
          2   -1    0    0  501    0  0.00000000000E+00 -0.00000000000E+00 -0.13504088922E+04  0.13504088922E+04  0.00000000000E+00 0. -1.
         24    2    1    2    0    0  0.22445665732E+03  0.53011424116E+02  0.43639400994E+03  0.49979780302E+03  0.78530948606E+02 0.  0.
        254    2    1    2    0    0 -0.22445665732E+03 -0.53011424116E+02 -0.11548709384E+04  0.14825430529E+04  0.90056427704E+03 0.  0.
         23    2    4    4    0    0  0.97971988201E+02  0.30348880584E+03 -0.14929583597E+03  0.36436604581E+03  0.93645090411E+02 0.  0.
         23    2    4    4    0    0 -0.32242864552E+03 -0.35650022995E+03 -0.10055751025E+04  0.11181770071E+04  0.89921560409E+02 0.  0.
          4    1    3    3  502    0  0.11663924245E+03  0.61560207194E+02  0.28168595174E+03  0.31103271114E+03  0.00000000000E+00 0. -1.
         -1    1    3    3    0  502  0.10781741487E+03 -0.85487830781E+01  0.15470805820E+03  0.18876509189E+03  0.00000000000E+00 0.  1.
         11    1    5    5    0    0  0.31062135016E+02  0.15208282540E+03 -0.12014403785E+03  0.19628711584E+03  0.00000000000E+00 0. -1.
        -11    1    5    5    0    0  0.66909853185E+02  0.15140598044E+03 -0.29151798119E+02  0.16807892997E+03  0.00000000000E+00 0.  1.
          4    1    6    6  503    0 -0.11164102646E+03 -0.15854851733E+03 -0.32081146106E+03  0.37486176743E+03  0.00000000000E+00 0. -1.
         -4    1    6    6    0  503 -0.21078761906E+03 -0.19795171263E+03 -0.68476364141E+03  0.74331523964E+03  0.00000000000E+00 0.  1.
<mgrwt>
<rscale>  0 0.18475568E+04</rscale>
<asrwt>0</asrwt>
<pdfrwt beam="1">  1        2 0.20775521E+00 0.18475568E+04</pdfrwt>
<pdfrwt beam="2">  1       -1 0.97220303E-01 0.18475568E+04</pdfrwt>
<totfact> 0.16837443E+01</totfact>
</mgrwt>
</event>
<event>
12    6  0.1538774E-007  0.1046497E+04  0.7818608E-02  0.9258968E-01
         -1   -1    0    0    0  501 -0.00000000000E+00  0.00000000000E+00  0.18777569978E+03  0.18777569978E+03  0.00000000000E+00 0.  1.
          2   -1    0    0  501    0  0.00000000000E+00 -0.00000000000E+00 -0.14580630589E+04  0.14580630589E+04  0.00000000000E+00 0. -1.
         24    2    1    2    0    0 -0.20143595487E+02 -0.13841111263E+02 -0.21838475303E+03  0.23459493778E+03  0.82131258802E+02 0.  0.
        254    2    1    2    0    0  0.20143595487E+02  0.13841111263E+02 -0.10519026061E+04  0.14112438209E+04  0.94048534733E+03 0.  0.
         23    2    4    4    0    0  0.23313640560E+03 -0.36175158974E+03 -0.27943616554E+03  0.52129716616E+03  0.91920446784E+02 0.  0.
         23    2    4    4    0    0 -0.21299281011E+03  0.37559270101E+03 -0.77246644052E+03  0.88994665472E+03  0.94153238493E+02 0.  0.
          4    1    3    3  502    0  0.14524390420E+02  0.18738109498E+02 -0.14641852626E+03  0.14832551869E+03  0.00000000000E+00 0. -1.
         -3    1    3    3    0  502 -0.34667985907E+02 -0.32579220761E+02 -0.71966226777E+02  0.86269419082E+02  0.00000000000E+00 0.  1.
         11    1    5    5    0    0  0.12654419906E+03 -0.22897896470E+03 -0.21714254074E+03  0.33999365228E+03  0.00000000000E+00 0.  1.
        -11    1    5    5    0    0  0.10659220653E+03 -0.13277262504E+03 -0.62293624805E+02  0.18130351388E+03  0.00000000000E+00 0. -1.
          2    1    6    6  503    0 -0.13618475671E+03  0.14526670072E+03 -0.34463597500E+03  0.39802343846E+03  0.00000000000E+00 0. -1.
         -2    1    6    6    0  503 -0.76808053399E+02  0.23032600028E+03 -0.42783046552E+03  0.49192321626E+03  0.00000000000E+00 0.  1.
<mgrwt>
<rscale>  0 0.10464967E+04</rscale>
<asrwt>0</asrwt>
<pdfrwt beam="1">  1        2 0.22431739E+00 0.10464967E+04</pdfrwt>
<pdfrwt beam="2">  1       -1 0.28888569E-01 0.10464967E+04</pdfrwt>
<totfact> 0.16571730E+02</totfact>
</mgrwt>
</event>
<event>
12    6  0.1538774E-007  0.1532659E+04  0.7818608E-02  0.8863021E-01
          2   -1    0    0  501    0  0.00000000000E+00  0.00000000000E+00  0.25799012998E+04  0.25799012998E+04  0.00000000000E+00 0. -1.
         -1   -1    0    0    0  501 -0.00000000000E+00 -0.00000000000E+00 -0.22762918695E+03  0.22762918695E+03  0.00000000000E+00 0.  1.
         24    2    1    2    0    0  0.31887548854E+03  0.38759506019E+03  0.81866701172E+03  0.96359599292E+03  0.79937810926E+02 0.  0.
        254    2    1    2    0    0 -0.31887548854E+03 -0.38759506019E+03  0.15336051011E+04  0.18439344938E+04  0.89232186089E+03 0.  0.
         23    2    4    4    0    0 -0.28681152925E+03 -0.10358371019E+03  0.38923699376E+02  0.31939491560E+03  0.86646519896E+02 0.  0.
         23    2    4    4    0    0 -0.32063959289E+02 -0.28401135000E+03  0.14946814017E+04  0.15245395782E+04  0.91966778899E+02 0.  0.
          4    1    3    3  502    0  0.31497093391E+03  0.36610741343E+03  0.80174343358E+03  0.93596680532E+03  0.00000000000E+00 0. -1.
         -3    1    3    3    0  502  0.39045546309E+01  0.21487646761E+02  0.16923578138E+02  0.27629187596E+02  0.00000000000E+00 0.  1.
         11    1    5    5    0    0 -0.28143097229E+03 -0.84754201988E+02  0.48001510788E+02  0.29781002662E+03  0.00000000000E+00 0. -1.
        -11    1    5    5    0    0 -0.53805569640E+01 -0.18829508198E+02 -0.90778114120E+01  0.21584888980E+02  0.00000000000E+00 0.  1.
          1    1    6    6  503    0 -0.63647160960E+02 -0.21733401339E+03  0.11315651130E+04  0.11540037432E+04  0.00000000000E+00 0. -1.
         -1    1    6    6    0  503  0.31583201670E+02 -0.66677336606E+02  0.36311628872E+03  0.37053583494E+03  0.00000000000E+00 0.  1.
<mgrwt>
<rscale>  0 0.15326589E+04</rscale>
<asrwt>0</asrwt>
<pdfrwt beam="1">  1        2 0.39690787E+00 0.15326589E+04</pdfrwt>
<pdfrwt beam="2">  1       -1 0.35019877E-01 0.15326589E+04</pdfrwt>
<totfact> 0.26689207E+01</totfact>
</mgrwt>
</event>
<event>
12    6  0.1538774E-007  0.1882777E+04  0.7818608E-02  0.8663477E-01
         -1   -1    0    0    0  501 -0.00000000000E+00  0.00000000000E+00  0.11772473609E+04  0.11772473609E+04  0.00000000000E+00 0.  1.
          2   -1    0    0  501    0  0.00000000000E+00 -0.00000000000E+00 -0.75278358264E+03  0.75278358264E+03  0.00000000000E+00 0. -1.
         24    2    1    2    0    0  0.33484293829E+03 -0.13214349418E+03  0.81519214244E+03  0.89515234686E+03  0.84721889846E+02 0.  0.
        254    2    1    2    0    0 -0.33484293829E+03  0.13214349418E+03 -0.39072836423E+03  0.10348785966E+04  0.88810098457E+03 0.  0.
         23    2    4    4    0    0 -0.58717348753E+03 -0.54284392961E+02 -0.38080817813E+03  0.70788949344E+03  0.91505008695E+02 0.  0.
         23    2    4    4    0    0  0.25233054924E+03  0.18642788714E+03 -0.99201860944E+01  0.32698910320E+03  0.91637330480E+02 0.  0.
          4    1    3    3  502    0  0.31597378996E+02  0.11826496013E+02  0.63343123427E+02  0.71767761932E+02  0.00000000000E+00 0. -1.
         -3    1    3    3    0  502  0.30324555929E+03 -0.14396999019E+03  0.75184901901E+03  0.82338458492E+03  0.00000000000E+00 0.  1.
         11    1    5    5    0    0 -0.53634185243E+03 -0.72118840759E+02 -0.33005312114E+03  0.63387599152E+03  0.00000000000E+00 0.  1.
        -11    1    5    5    0    0 -0.50831635097E+02  0.17834447799E+02 -0.50755056997E+02  0.74013501914E+02  0.00000000000E+00 0. -1.
          1    1    6    6  503    0  0.11829128704E+02  0.44184041062E+02  0.10145779633E+02  0.46851836835E+02  0.00000000000E+00 0. -1.
         -1    1    6    6    0  503  0.24050142053E+03  0.14224384607E+03 -0.20065965727E+02  0.28013726636E+03  0.00000000000E+00 0.  1.
<mgrwt>
<rscale>  0 0.18827772E+04</rscale>
<asrwt>0</asrwt>
<pdfrwt beam="1">  1        2 0.11581286E+00 0.18827772E+04</pdfrwt>
<pdfrwt beam="2">  1       -1 0.18111498E+00 0.18827772E+04</pdfrwt>
<totfact> 0.81625115E+00</totfact>
</mgrwt>
</event>
<event>
12    6  0.1538774E-007  0.1950145E+04  0.7818608E-02  0.8630291E-01
         -1   -1    0    0    0  501 -0.00000000000E+00  0.00000000000E+00  0.11248395200E+04  0.11248395200E+04  0.00000000000E+00 0.  1.
          2   -1    0    0  501    0  0.00000000000E+00 -0.00000000000E+00 -0.84524616097E+03  0.84524616097E+03  0.00000000000E+00 0. -1.
         24    2    1    2    0    0  0.53185298867E+02  0.50790074586E+03 -0.46420302364E+03  0.69412112353E+03  0.74349467466E+02 0.  0.
        254    2    1    2    0    0 -0.53185298867E+02 -0.50790074586E+03  0.74379638273E+03  0.12759645575E+04  0.90225309606E+03 0.  0.
         23    2    4    4    0    0  0.22223966389E+03  0.57770127016E+02 -0.56806651060E+02  0.25352693756E+03  0.91219826162E+02 0.  0.
         23    2    4    4    0    0 -0.27542496275E+03 -0.56567087287E+03  0.80060303379E+03  0.10224376199E+04  0.92579816381E+02 0.  0.
          4    1    3    3  502    0  0.66578436432E+02  0.48462825732E+03 -0.43835107537E+03  0.65684770021E+03  0.00000000000E+00 0. -1.
         -3    1    3    3    0  502 -0.13393137564E+02  0.23272488532E+02 -0.25851948275E+02  0.37273423318E+02  0.00000000000E+00 0.  1.
         11    1    5    5    0    0  0.76510484564E+02  0.16121280165E+02  0.23969252343E+02  0.81781874400E+02  0.00000000000E+00 0. -1.
        -11    1    5    5    0    0  0.14572917932E+03  0.41648846851E+02 -0.80775903403E+02  0.17174506316E+03  0.00000000000E+00 0.  1.
          1    1    6    6  503    0 -0.48093392112E+02 -0.40669036816E+02  0.64469812310E+02  0.90129360475E+02  0.00000000000E+00 0. -1.
         -1    1    6    6    0  503 -0.22733157064E+03 -0.52500183606E+03  0.73613322148E+03  0.93230825945E+03  0.00000000000E+00 0.  1.
<mgrwt>
<rscale>  0 0.19501449E+04</rscale>
<asrwt>0</asrwt>
<pdfrwt beam="1">  1        2 0.13003787E+00 0.19501449E+04</pdfrwt>
<pdfrwt beam="2">  1       -1 0.17305224E+00 0.19501449E+04</pdfrwt>
<totfact> 0.79566580E+00</totfact>
</mgrwt>
</event>
<event>
12    6  0.1538774E-007  0.1035318E+04  0.7818608E-02  0.9270634E-01
          2   -1    0    0  501    0  0.00000000000E+00  0.00000000000E+00  0.67270661106E+03  0.67270661106E+03  0.00000000000E+00 0. -1.
         -1   -1    0    0    0  501 -0.00000000000E+00 -0.00000000000E+00 -0.39834763316E+03  0.39834763316E+03  0.00000000000E+00 0.  1.
         24    2    1    2    0    0 -0.27652694169E+01  0.61166562320E+02 -0.82053933185E+01  0.10038278972E+03  0.79122569038E+02 0.  0.
        254    2    1    2    0    0  0.27652694169E+01 -0.61166562320E+02  0.28256437122E+03  0.97067145450E+03  0.92661289309E+03 0.  0.
         23    2    4    4    0    0  0.89493882096E+02  0.29505925926E+03 -0.18426760588E+03  0.37015064786E+03  0.89374661546E+02 0.  0.
         23    2    4    4    0    0 -0.86728612679E+02 -0.35622582158E+03  0.46683197710E+03  0.60052080664E+03  0.90964037696E+02 0.  0.
          4    1    3    3  502    0 -0.21833161716E+02  0.23090670404E+02  0.29607807541E+02  0.43433722815E+02  0.00000000000E+00 0. -1.
         -3    1    3    3    0  502  0.19067892299E+02  0.38075891916E+02 -0.37813200859E+02  0.56949066903E+02  0.00000000000E+00 0.  1.
         11    1    5    5    0    0  0.11583765858E+02  0.18225463164E+03 -0.12166881135E+03  0.21944073014E+03  0.00000000000E+00 0.  1.
        -11    1    5    5    0    0  0.77910116238E+02  0.11280462761E+03 -0.62598794534E+02  0.15070991772E+03  0.00000000000E+00 0. -1.
          3    1    6    6  503    0 -0.63204269843E+02 -0.88572242318E+02  0.12477457335E+03  0.16555517506E+03  0.00000000000E+00 0. -1.
         -3    1    6    6    0  503 -0.23524342836E+02 -0.26765357926E+03  0.34205740375E+03  0.43496563158E+03  0.00000000000E+00 0.  1.
<mgrwt>
<rscale>  0 0.10353185E+04</rscale>
<asrwt>0</asrwt>
<pdfrwt beam="1">  1        2 0.10349333E+00 0.10353185E+04</pdfrwt>
<pdfrwt beam="2">  1       -1 0.61284251E-01 0.10353185E+04</pdfrwt>
<totfact> 0.13243237E+02</totfact>
</mgrwt>
</event>
<event>
12    6  0.1538774E-007  0.1865299E+04  0.7818608E-02  0.8672325E-01
         -1   -1    0    0    0  501 -0.00000000000E+00  0.00000000000E+00  0.11763307904E+04  0.11763307904E+04  0.00000000000E+00 0.  1.
          2   -1    0    0  501    0  0.00000000000E+00 -0.00000000000E+00 -0.73944796956E+03  0.73944796956E+03  0.00000000000E+00 0. -1.
         24    2    1    2    0    0 -0.34675907173E+03  0.11141793951E+03 -0.44836716847E+03  0.58314382022E+03  0.79798409959E+02 0.  0.
        254    2    1    2    0    0  0.34675907173E+03 -0.11141793951E+03  0.88524998933E+03  0.13326349398E+04  0.92714212933E+03 0.  0.
         23    2    4    4    0    0 -0.14460326132E+03 -0.37802559067E+03  0.26239359325E+03  0.49071510847E+03  0.90207923782E+02 0.  0.
         23    2    4    4    0    0  0.49136233305E+03  0.26660765116E+03  0.62285639608E+03  0.84191983129E+03  0.91445777295E+02 0.  0.
          4    1    3    3  502    0 -0.18631911480E+03  0.93126274433E+02 -0.21497737020E+03  0.29933690923E+03  0.00000000000E+00 0. -1.
         -3    1    3    3    0  502 -0.16043995693E+03  0.18291665072E+02 -0.23338979826E+03  0.28380691099E+03  0.00000000000E+00 0.  1.
         11    1    5    5    0    0 -0.14423423942E+03 -0.29500408462E+03  0.23300754566E+03  0.40264555393E+03  0.00000000000E+00 0. -1.
        -11    1    5    5    0    0 -0.36902189878E+00 -0.83021506047E+02  0.29386047596E+02  0.88069554539E+02  0.00000000000E+00 0.  1.
          3    1    6    6  503    0  0.35676470170E+03  0.17423456589E+03  0.49503539849E+03  0.63458551992E+03  0.00000000000E+00 0. -1.
         -3    1    6    6    0  503  0.13459763135E+03  0.92373085272E+02  0.12782099758E+03  0.20733431137E+03  0.00000000000E+00 0.  1.
<mgrwt>
<rscale>  0 0.18652993E+04</rscale>
<asrwt>0</asrwt>
<pdfrwt beam="1">  1        2 0.11376123E+00 0.18652993E+04</pdfrwt>
<pdfrwt beam="2">  1       -1 0.18097397E+00 0.18652993E+04</pdfrwt>
<totfact> 0.83855771E+00</totfact>
</mgrwt>
</event>
<event>
12    6  0.1538774E-007  0.1496039E+04  0.7818608E-02  0.8887091E-01
         -1   -1    0    0    0  501 -0.00000000000E+00  0.00000000000E+00  0.68866288046E+03  0.68866288046E+03  0.00000000000E+00 0.  1.
          2   -1    0    0  501    0  0.00000000000E+00 -0.00000000000E+00 -0.81249222480E+03  0.81249222480E+03  0.00000000000E+00 0. -1.
         24    2    1    2    0    0 -0.28666897806E+03  0.32606075406E+03  0.17168613661E+03  0.47096028721E+03  0.61909161719E+02 0.  0.
        254    2    1    2    0    0  0.28666897806E+03 -0.32606075406E+03 -0.29551548095E+03  0.10301948180E+04  0.88627154153E+03 0.  0.
         23    2    4    4    0    0  0.42175898264E+03  0.96507432154E+02  0.70707878076E+02  0.44769521641E+03  0.90758354302E+02 0.  0.
         23    2    4    4    0    0 -0.13509000457E+03 -0.42256818622E+03 -0.36622335903E+03  0.58249960164E+03  0.91504403589E+02 0.  0.
          2    1    3    3  502    0 -0.19946613244E+02  0.68352204276E+01  0.40172969197E+00  0.21089073117E+02  0.00000000000E+00 0. -1.
         -1    1    3    3    0  502 -0.26672236482E+03  0.31922553363E+03  0.17128440692E+03  0.44987121410E+03  0.00000000000E+00 0.  1.
         11    1    5    5    0    0  0.24978494071E+03  0.15345233259E+02  0.20962290881E+02  0.25113225685E+03  0.00000000000E+00 0. -1.
        -11    1    5    5    0    0  0.17197404193E+03  0.81162198895E+02  0.49745587195E+02  0.19656295956E+03  0.00000000000E+00 0.  1.
          4    1    6    6  503    0 -0.84055356180E+01 -0.17146255364E+03 -0.13446017412E+03  0.21805870483E+03  0.00000000000E+00 0. -1.
         -4    1    6    6    0  503 -0.12668446896E+03 -0.25110563258E+03 -0.23176318491E+03  0.36444089681E+03  0.00000000000E+00 0.  1.
<mgrwt>
<rscale>  0 0.14960391E+04</rscale>
<asrwt>0</asrwt>
<pdfrwt beam="1">  1        2 0.12499880E+00 0.14960391E+04</pdfrwt>
<pdfrwt beam="2">  1       -1 0.10594814E+00 0.14960391E+04</pdfrwt>
<totfact> 0.31046463E+01</totfact>
</mgrwt>
</event>
<event>
12    6  0.1538774E-007  0.1705473E+04  0.7818608E-02  0.8758249E-01
          2   -1    0    0  501    0  0.00000000000E+00  0.00000000000E+00  0.20821676138E+04  0.20821676138E+04  0.00000000000E+00 0. -1.
         -1   -1    0    0    0  501 -0.00000000000E+00 -0.00000000000E+00 -0.34923209412E+03  0.34923209412E+03  0.00000000000E+00 0.  1.
         24    2    1    2    0    0  0.33787036737E+03  0.14416815360E+03  0.13168818687E+04  0.13694568218E+04  0.79330251959E+02 0.  0.
        254    2    1    2    0    0 -0.33787036737E+03 -0.14416815360E+03  0.41605365095E+03  0.10619428861E+04  0.90536247508E+03 0.  0.
         23    2    4    4    0    0  0.16179820319E+03 -0.17552608792E+03 -0.15359807857E+03  0.29836001540E+03  0.91860018248E+02 0.  0.
         23    2    4    4    0    0 -0.49966857056E+03  0.31357934314E+02  0.56965172952E+03  0.76358287073E+03  0.88902795660E+02 0.  0.
          2    1    3    3  502    0  0.28775459888E+03  0.10266108391E+03  0.11612662437E+04  0.12007836175E+04  0.00000000000E+00 0. -1.
         -1    1    3    3    0  502  0.50115768493E+02  0.41507069696E+02  0.15561562506E+03  0.16867320430E+03  0.00000000000E+00 0.  1.
         11    1    5    5    0    0  0.17112910532E+03 -0.14792422211E+03 -0.13023279035E+03  0.26101211822E+03  0.00000000000E+00 0.  1.
        -11    1    5    5    0    0 -0.93309021233E+01 -0.27601865804E+02 -0.23365288218E+02  0.37347897180E+02  0.00000000000E+00 0. -1.
          3    1    6    6  503    0 -0.10729255789E+03  0.43275915855E+02  0.13955465979E+03  0.18127327696E+03  0.00000000000E+00 0. -1.
         -3    1    6    6    0  503 -0.39237601267E+03 -0.11917981541E+02  0.43009706974E+03  0.58230959377E+03  0.00000000000E+00 0.  1.
<mgrwt>
<rscale>  0 0.17054733E+04</rscale>
<asrwt>0</asrwt>
<pdfrwt beam="1">  1        2 0.32033347E+00 0.17054733E+04</pdfrwt>
<pdfrwt beam="2">  1       -1 0.53728016E-01 0.17054733E+04</pdfrwt>
<totfact> 0.22775159E+01</totfact>
</mgrwt>
</event>
<event>
12    6  0.1538774E-007  0.3108822E+04  0.7818608E-02  0.8213321E-01
         -1   -1    0    0    0  501 -0.00000000000E+00  0.00000000000E+00  0.10670667825E+04  0.10670667825E+04  0.00000000000E+00 0.  1.
          2   -1    0    0  501    0  0.00000000000E+00 -0.00000000000E+00 -0.22643315962E+04  0.22643315962E+04  0.00000000000E+00 0. -1.
         24    2    1    2    0    0  0.26918509456E+03  0.72554262555E+03 -0.18255122035E+04  0.19842521796E+04  0.76741062502E+02 0.  0.
        254    2    1    2    0    0 -0.26918509456E+03 -0.72554262555E+03  0.62824738981E+03  0.13471461990E+04  0.90622038276E+03 0.  0.
         23    2    4    4    0    0  0.12181307697E+03 -0.66437663297E+03  0.11329325319E+03  0.69136789762E+03  0.94442958883E+02 0.  0.
         23    2    4    4    0    0 -0.39099817153E+03 -0.61165992580E+02  0.51495413662E+03  0.65577830141E+03  0.90810621574E+02 0.  0.
          4    1    3    3  502    0  0.88839024586E+02  0.25195307353E+03 -0.72535363525E+03  0.77298811098E+03  0.00000000000E+00 0. -1.
         -3    1    3    3    0  502  0.18034606998E+03  0.47358955202E+03 -0.11001585682E+04  0.12112640687E+04  0.00000000000E+00 0.  1.
         11    1    5    5    0    0  0.55443090073E+02 -0.51999674031E+03  0.93475466801E+02  0.53123272589E+03  0.00000000000E+00 0. -1.
        -11    1    5    5    0    0  0.66369986898E+02 -0.14437989266E+03  0.19817786391E+02  0.16013517172E+03  0.00000000000E+00 0.  1.
          1    1    6    6  503    0 -0.15393355579E+03  0.14411032841E+02  0.16200181291E+03  0.22393705556E+03  0.00000000000E+00 0. -1.
         -1    1    6    6    0  503 -0.23706461574E+03 -0.75577025421E+02  0.35295232371E+03  0.43184124585E+03  0.00000000000E+00 0.  1.
<mgrwt>
<rscale>  0 0.31088217E+04</rscale>
<asrwt>0</asrwt>
<pdfrwt beam="1">  1        2 0.34835871E+00 0.31088217E+04</pdfrwt>
<pdfrwt beam="2">  1       -1 0.16416412E+00 0.31088217E+04</pdfrwt>
<totfact> 0.12454427E+00</totfact>
</mgrwt>
</event>
<event>
12    6  0.1538774E-007  0.2262312E+04  0.7818608E-02  0.8492931E-01
         -1   -1    0    0    0  501 -0.00000000000E+00  0.00000000000E+00  0.73102505114E+03  0.73102505114E+03  0.00000000000E+00 0.  1.
          2   -1    0    0  501    0  0.00000000000E+00 -0.00000000000E+00 -0.17503003644E+04  0.17503003644E+04  0.00000000000E+00 0. -1.
         24    2    1    2    0    0 -0.64339244239E+03  0.58280097014E+03 -0.86666778122E+03  0.12290606284E+04  0.76590988681E+02 0.  0.
        254    2    1    2    0    0  0.64339244239E+03 -0.58280097014E+03 -0.15260753209E+03  0.12522647872E+04  0.88953203014E+03 0.  0.
         23    2    4    4    0    0  0.40387062034E+03 -0.72629310766E+02  0.30544704507E+03  0.51990321503E+03  0.92816813657E+02 0.  0.
         23    2    4    4    0    0  0.23952182206E+03 -0.51017165938E+03 -0.45805457716E+03  0.73236157216E+03  0.94306158008E+02 0.  0.
          2    1    3    3  502    0 -0.63135757376E+03  0.57510189920E+03 -0.83535844107E+03  0.11946456820E+04  0.00000000000E+00 0. -1.
         -1    1    3    3    0  502 -0.12034868634E+02  0.76990709422E+01 -0.31309340146E+02  0.34414946415E+02  0.00000000000E+00 0.  1.
         11    1    5    5    0    0  0.84250300930E+02 -0.37362414203E+02  0.31271420243E+02  0.97324020293E+02  0.00000000000E+00 0. -1.
        -11    1    5    5    0    0  0.31962031941E+03 -0.35266896563E+02  0.27417562483E+03  0.42257919473E+03  0.00000000000E+00 0.  1.
          2    1    6    6  503    0  0.11503590583E+03 -0.28740422044E+03 -0.19501698108E+03  0.36587712209E+03  0.00000000000E+00 0.  1.
         -2    1    6    6    0  503  0.12448591623E+03 -0.22276743893E+03 -0.26303759608E+03  0.36648445007E+03  0.00000000000E+00 0. -1.
<mgrwt>
<rscale>  0 0.22623116E+04</rscale>
<asrwt>0</asrwt>
<pdfrwt beam="1">  1        2 0.26927697E+00 0.22623116E+04</pdfrwt>
<pdfrwt beam="2">  1       -1 0.11246539E+00 0.22623116E+04</pdfrwt>
<totfact> 0.68932156E+00</totfact>
</mgrwt>
</event>
<event>
12    6  0.1538774E-007  0.1989163E+04  0.7818608E-02  0.8611704E-01
         -1   -1    0    0    0  501 -0.00000000000E+00  0.00000000000E+00  0.11154839167E+04  0.11154839167E+04  0.00000000000E+00 0.  1.
          2   -1    0    0  501    0  0.00000000000E+00 -0.00000000000E+00 -0.88678276459E+03  0.88678276459E+03  0.00000000000E+00 0. -1.
         24    2    1    2    0    0 -0.66934070015E+03  0.35360377687E+03  0.35674348221E+03  0.84096178199E+03  0.83055419874E+02 0.  0.
        254    2    1    2    0    0  0.66934070015E+03 -0.35360377687E+03 -0.12804233011E+03  0.11613048993E+04  0.87131029314E+03 0.  0.
         23    2    4    4    0    0  0.38853273171E+02  0.93032923198E+02  0.25951373319E+03  0.29224427389E+03  0.88851765726E+02 0.  0.
         23    2    4    4    0    0  0.63048742698E+03 -0.44663670006E+03 -0.38755606330E+03  0.86906062541E+03  0.89821662242E+02 0.  0.
          2    1    3    3  502    0 -0.40239053298E+02  0.69350947853E+01  0.35488728684E+02  0.54099231173E+02  0.00000000000E+00 0. -1.
         -1    1    3    3    0  502 -0.62910164685E+03  0.34666868208E+03  0.32125475353E+03  0.78686255081E+03  0.00000000000E+00 0.  1.
         11    1    5    5    0    0  0.38885681227E+02  0.41890244558E+02  0.22086398926E+03  0.22813984865E+03  0.00000000000E+00 0.  1.
        -11    1    5    5    0    0 -0.32408055402E-01  0.51142678640E+02  0.38649743933E+02  0.64104425236E+02  0.00000000000E+00 0. -1.
          3    1    6    6  503    0  0.13130025761E+02 -0.24905225857E+02 -0.30264969820E+01  0.28316559386E+02  0.00000000000E+00 0. -1.
         -3    1    6    6    0  503  0.61735740122E+03 -0.42173147421E+03 -0.38452956632E+03  0.84074406602E+03  0.00000000000E+00 0.  1.
<mgrwt>
<rscale>  0 0.19891625E+04</rscale>
<asrwt>0</asrwt>
<pdfrwt beam="1">  1        2 0.13642812E+00 0.19891625E+04</pdfrwt>
<pdfrwt beam="2">  1       -1 0.17161291E+00 0.19891625E+04</pdfrwt>
<totfact> 0.76049358E+00</totfact>
</mgrwt>
</event>
<event>
12    6  0.1538774E-007  0.2113889E+04  0.7818608E-02  0.8555150E-01
         -1   -1    0    0    0  501 -0.00000000000E+00  0.00000000000E+00  0.18289189782E+04  0.18289189782E+04  0.00000000000E+00 0.  1.
          2   -1    0    0  501    0  0.00000000000E+00 -0.00000000000E+00 -0.61081534438E+03  0.61081534438E+03  0.00000000000E+00 0. -1.
         24    2    1    2    0    0 -0.52197151572E+03 -0.67126217021E+03  0.62818739724E+03  0.10607832599E+04  0.87146738174E+02 0.  0.
        254    2    1    2    0    0  0.52197151572E+03  0.67126217021E+03  0.58991623662E+03  0.13789510627E+04  0.91129452036E+03 0.  0.
         23    2    4    4    0    0  0.27067013313E+03  0.48326706106E+03  0.80955545978E+03  0.98516244288E+03  0.91409097552E+02 0.  0.
         23    2    4    4    0    0  0.25130138259E+03  0.18799510915E+03 -0.21963922316E+03  0.39378861987E+03  0.91288240373E+02 0.  0.
          2    1    3    3  502    0 -0.11603404977E+03 -0.99514332757E+02  0.96149503959E+02  0.18058718183E+03  0.00000000000E+00 0. -1.
         -1    1    3    3    0  502 -0.40593746595E+03 -0.57174783746E+03  0.53203789328E+03  0.88019607803E+03  0.00000000000E+00 0.  1.
         11    1    5    5    0    0  0.24263082933E+03  0.45319872124E+03  0.78140366969E+03  0.93533442965E+03  0.00000000000E+00 0. -1.
        -11    1    5    5    0    0  0.28039303797E+02  0.30068339825E+02  0.28151790092E+02  0.49828013232E+02  0.00000000000E+00 0.  1.
          3    1    6    6  503    0  0.22760186337E+03  0.13279129995E+03 -0.19920908910E+03  0.33033376868E+03  0.00000000000E+00 0. -1.
         -3    1    6    6    0  503  0.23699519221E+02  0.55203809199E+02 -0.20430134067E+02  0.63454851189E+02  0.00000000000E+00 0.  1.
<mgrwt>
<rscale>  0 0.21138891E+04</rscale>
<asrwt>0</asrwt>
<pdfrwt beam="1">  1        2 0.93971592E-01 0.21138891E+04</pdfrwt>
<pdfrwt beam="2">  1       -1 0.28137215E+00 0.21138891E+04</pdfrwt>
<totfact> 0.22246131E+00</totfact>
</mgrwt>
</event>
<event>
12    6  0.1538774E-007  0.1186737E+04  0.7818608E-02  0.9124545E-01
         -1   -1    0    0    0  501 -0.00000000000E+00  0.00000000000E+00  0.65006161926E+03  0.65006161926E+03  0.00000000000E+00 0.  1.
          2   -1    0    0  501    0  0.00000000000E+00 -0.00000000000E+00 -0.54161991825E+03  0.54161991825E+03  0.00000000000E+00 0. -1.
         24    2    1    2    0    0 -0.14576716090E+03  0.64359106649E+02 -0.20124564934E+03  0.26833800970E+03  0.78200487627E+02 0.  0.
        254    2    1    2    0    0  0.14576716090E+03 -0.64359106649E+02  0.30968735035E+03  0.92334352781E+03  0.85514142432E+03 0.  0.
         23    2    4    4    0    0  0.19488150788E+03  0.34674230576E+03  0.28495238571E+03  0.49754824362E+03  0.90262749144E+02 0.  0.
         23    2    4    4    0    0 -0.49114346982E+02 -0.41110141241E+03  0.24734964642E+02  0.42579528420E+03  0.96297534772E+02 0.  0.
          4    1    3    3  502    0 -0.11353709742E+03  0.82642395544E+02 -0.15787207586E+03  0.21129134002E+03  0.00000000000E+00 0. -1.
         -3    1    3    3    0  502 -0.32230063482E+02 -0.18283288896E+02 -0.43373573479E+02  0.57046669677E+02  0.00000000000E+00 0.  1.
         11    1    5    5    0    0  0.17751544724E+03  0.23979698625E+03  0.22531548700E+03  0.37387350442E+03  0.00000000000E+00 0. -1.
        -11    1    5    5    0    0  0.17366060640E+02  0.10694531951E+03  0.59636898711E+02  0.12367473920E+03  0.00000000000E+00 0.  1.
          1    1    6    6  503    0 -0.37089785146E+02 -0.10592704656E+03 -0.28462693734E+02  0.11578564803E+03  0.00000000000E+00 0. -1.
         -1    1    6    6    0  503 -0.12024561835E+02 -0.30517436585E+03  0.53197658376E+02  0.31000963617E+03  0.00000000000E+00 0.  1.
<mgrwt>
<rscale>  0 0.11867372E+04</rscale>
<asrwt>0</asrwt>
<pdfrwt beam="1">  1        2 0.83326141E-01 0.11867372E+04</pdfrwt>
<pdfrwt beam="2">  1       -1 0.10000948E+00 0.11867372E+04</pdfrwt>
<totfact> 0.60352517E+01</totfact>
</mgrwt>
</event>
<event>
12    6  0.1538774E-007  0.1669391E+04  0.7818608E-02  0.8779017E-01
         -1   -1    0    0    0  501 -0.00000000000E+00  0.00000000000E+00  0.14384799977E+04  0.14384799977E+04  0.00000000000E+00 0.  1.
          2   -1    0    0  501    0  0.00000000000E+00 -0.00000000000E+00 -0.48434217520E+03  0.48434217520E+03  0.00000000000E+00 0. -1.
         24    2    1    2    0    0 -0.56402792461E+03  0.13884099030E+03  0.32858699758E+03  0.67192068320E+03  0.78125982903E+02 0.  0.
        254    2    1    2    0    0  0.56402792461E+03 -0.13884099030E+03  0.62555082492E+03  0.12509014897E+04  0.91435025131E+03 0.  0.
         23    2    4    4    0    0 -0.33179644456E+02 -0.34480139250E+02 -0.19871215805E+03  0.22372891663E+03  0.90985370083E+02 0.  0.
         23    2    4    4    0    0  0.59720756907E+03 -0.10436085105E+03  0.82426298297E+03  0.10271725731E+04  0.90144118048E+02 0.  0.
          2    1    3    3  502    0 -0.22231599354E+03  0.67609354769E+02  0.17331919928E+03  0.28988785879E+03  0.00000000000E+00 0. -1.
         -1    1    3    3    0  502 -0.34171193107E+03  0.71231635527E+02  0.15526779830E+03  0.38203282441E+03  0.00000000000E+00 0.  1.
         11    1    5    5    0    0 -0.98208096816E+01  0.27645564010E+02 -0.10411797806E+03  0.10817244967E+03  0.00000000000E+00 0.  1.
        -11    1    5    5    0    0 -0.23358834775E+02 -0.62125703260E+02 -0.94594179987E+02  0.11555646695E+03  0.00000000000E+00 0. -1.
          3    1    6    6  503    0  0.88905254170E+02  0.84708828128E+01  0.87777522259E+02  0.12522297508E+03  0.00000000000E+00 0. -1.
         -3    1    6    6    0  503  0.50830231490E+03 -0.11283173386E+03  0.73648546071E+03  0.90194959800E+03  0.00000000000E+00 0.  1.
<mgrwt>
<rscale>  0 0.16693909E+04</rscale>
<asrwt>0</asrwt>
<pdfrwt beam="1">  1        2 0.74514181E-01 0.16693909E+04</pdfrwt>
<pdfrwt beam="2">  1       -1 0.22130461E+00 0.16693909E+04</pdfrwt>
<totfact> 0.75136661E+00</totfact>
</mgrwt>
</event>
<event>
12    6  0.1538774E-007  0.1250620E+04  0.7818608E-02  0.9069667E-01
         -1   -1    0    0    0  501 -0.00000000000E+00  0.00000000000E+00  0.50590170714E+03  0.50590170714E+03  0.00000000000E+00 0.  1.
          2   -1    0    0  501    0  0.00000000000E+00 -0.00000000000E+00 -0.77290217262E+03  0.77290217262E+03  0.00000000000E+00 0. -1.
         24    2    1    2    0    0  0.34371504430E+02 -0.14726705277E+03 -0.31185940537E+03  0.35535954804E+03  0.78454665357E+02 0.  0.
        254    2    1    2    0    0 -0.34371504430E+02  0.14726705277E+03  0.44858939892E+02  0.92344433171E+03  0.90987258676E+03 0.  0.
         23    2    4    4    0    0  0.11830413143E+03  0.16362308110E+03  0.43861879364E+03  0.49144305895E+03  0.91440985716E+02 0.  0.
         23    2    4    4    0    0 -0.15267563586E+03 -0.16356028323E+02 -0.39375985375E+03  0.43200127277E+03  0.89447793698E+02 0.  0.
          2    1    3    3  502    0 -0.16156811497E+02 -0.98296071229E+02 -0.19439222195E+03  0.21842961368E+03  0.00000000000E+00 0. -1.
         -1    1    3    3    0  502  0.50528315927E+02 -0.48970981544E+02 -0.11746718342E+03  0.13692993437E+03  0.00000000000E+00 0.  1.
         11    1    5    5    0    0  0.12405165350E+03  0.11376404231E+03  0.29963122777E+03  0.34367127130E+03  0.00000000000E+00 0.  1.
        -11    1    5    5    0    0 -0.57475220669E+01  0.49859038787E+02  0.13898756587E+03  0.14777178765E+03  0.00000000000E+00 0. -1.
          3    1    6    6  503    0 -0.15505140638E+03 -0.31965926281E+02 -0.32574295216E+03  0.36217568934E+03  0.00000000000E+00 0.  1.
         -3    1    6    6    0  503  0.23757705137E+01  0.15609897958E+02 -0.68016901588E+02  0.69825583430E+02  0.00000000000E+00 0. -1.
<mgrwt>
<rscale>  0 0.12506199E+04</rscale>
<asrwt>0</asrwt>
<pdfrwt beam="1">  1        2 0.11890803E+00 0.12506199E+04</pdfrwt>
<pdfrwt beam="2">  1       -1 0.77831032E-01 0.12506199E+04</pdfrwt>
<totfact> 0.66980123E+01</totfact>
</mgrwt>
</event>
<event>
12    6  0.1538774E-007  0.1995306E+04  0.7818608E-02  0.8608819E-01
          2   -1    0    0  501    0  0.00000000000E+00  0.00000000000E+00  0.14150799534E+04  0.14150799534E+04  0.00000000000E+00 0. -1.
         -1   -1    0    0    0  501 -0.00000000000E+00 -0.00000000000E+00 -0.70336029633E+03  0.70336029633E+03  0.00000000000E+00 0.  1.
         24    2    1    2    0    0 -0.45482832923E+03  0.52148480147E+03  0.69300146274E+03  0.98237609361E+03  0.77437424414E+02 0.  0.
        254    2    1    2    0    0  0.45482832923E+03 -0.52148480147E+03  0.18718194327E+02  0.11360641561E+04  0.90081973157E+03 0.  0.
         23    2    4    4    0    0  0.51179350846E+03 -0.12346034587E+03  0.32236750359E+03  0.62401877539E+03  0.91123939545E+02 0.  0.
         23    2    4    4    0    0 -0.56965179229E+02 -0.39802445560E+03 -0.30364930927E+03  0.51204538074E+03  0.91208936035E+02 0.  0.
          4    1    3    3  502    0 -0.36091753832E+03  0.40685176891E+03  0.58669157317E+03  0.79999802085E+03  0.00000000000E+00 0. -1.
         -3    1    3    3    0  502 -0.93910790908E+02  0.11463303256E+03  0.10630988957E+03  0.18237807276E+03  0.00000000000E+00 0.  1.
         11    1    5    5    0    0  0.13983497827E+03  0.45852845213E+01  0.67978142720E+02  0.15555022941E+03  0.00000000000E+00 0.  1.
        -11    1    5    5    0    0  0.37195853018E+03 -0.12804563039E+03  0.25438936087E+03  0.46846854597E+03  0.00000000000E+00 0. -1.
          3    1    6    6  503    0 -0.39364642211E+01 -0.12697506267E+03 -0.14790186737E+03  0.19496954804E+03  0.00000000000E+00 0. -1.
         -3    1    6    6    0  503 -0.53028715008E+02 -0.27104939293E+03 -0.15574744190E+03  0.31707583270E+03  0.00000000000E+00 0.  1.
<mgrwt>
<rscale>  0 0.19953055E+04</rscale>
<asrwt>0</asrwt>
<pdfrwt beam="1">  1        2 0.21770461E+00 0.19953055E+04</pdfrwt>
<pdfrwt beam="2">  1       -1 0.10820928E+00 0.19953055E+04</pdfrwt>
<totfact> 0.11920438E+01</totfact>
</mgrwt>
</event>
<event>
12    6  0.1538774E-007  0.1928228E+04  0.7818608E-02  0.8640932E-01
          2   -1    0    0  501    0  0.00000000000E+00  0.00000000000E+00  0.15786583940E+04  0.15786583940E+04  0.00000000000E+00 0. -1.
         -1   -1    0    0    0  501 -0.00000000000E+00 -0.00000000000E+00 -0.58880125885E+03  0.58880125885E+03  0.00000000000E+00 0.  1.
         24    2    1    2    0    0 -0.39483166146E+03 -0.33436396887E+03  0.10009833018E+04  0.11296011265E+04  0.79623049694E+02 0.  0.
        254    2    1    2    0    0  0.39483166146E+03  0.33436396887E+03 -0.11126166589E+02  0.10378585264E+04  0.89963060452E+03 0.  0.
         23    2    4    4    0    0  0.44256468252E+03  0.60017439237E+03  0.10927685167E+02  0.75137251645E+03  0.91479203642E+02 0.  0.
         23    2    4    4    0    0 -0.47733021057E+02 -0.26581042350E+03 -0.22053851756E+02  0.28648600992E+03  0.93028162180E+02 0.  0.
          2    1    3    3  502    0 -0.29059471787E+03 -0.28659730511E+03  0.80444142070E+03  0.90205837100E+03  0.00000000000E+00 0. -1.
         -1    1    3    3    0  502 -0.10423694359E+03 -0.47766663759E+02  0.19654188108E+03  0.22754275553E+03  0.00000000000E+00 0.  1.
         11    1    5    5    0    0  0.25722584286E+03  0.29744629113E+03  0.39753851463E+02  0.39524650415E+03  0.00000000000E+00 0.  1.
        -11    1    5    5    0    0  0.18533883966E+03  0.30272810124E+03 -0.28826166296E+02  0.35612601229E+03  0.00000000000E+00 0. -1.
          2    1    6    6  503    0  0.16867455333E+02 -0.15823574570E+03 -0.29642608938E+00  0.15913249239E+03  0.00000000000E+00 0. -1.
         -2    1    6    6    0  503 -0.64600476390E+02 -0.10757467781E+03 -0.21757425667E+02  0.12735351753E+03  0.00000000000E+00 0.  1.
<mgrwt>
<rscale>  0 0.19282283E+04</rscale>
<asrwt>0</asrwt>
<pdfrwt beam="1">  1        2 0.24287052E+00 0.19282283E+04</pdfrwt>
<pdfrwt beam="2">  1       -1 0.90584810E-01 0.19282283E+04</pdfrwt>
<totfact> 0.14531055E+01</totfact>
</mgrwt>
</event>
<event>
12    6  0.1538774E-007  0.1391395E+04  0.7818608E-02  0.8960071E-01
         -1   -1    0    0    0  501 -0.00000000000E+00  0.00000000000E+00  0.55461451487E+03  0.55461451487E+03  0.00000000000E+00 0.  1.
          2   -1    0    0  501    0  0.00000000000E+00 -0.00000000000E+00 -0.87266862516E+03  0.87266862516E+03  0.00000000000E+00 0. -1.
         24    2    1    2    0    0 -0.11675008208E+03  0.40028780840E+03 -0.29319704776E+02  0.42593425181E+03  0.81850049203E+02 0.  0.
        254    2    1    2    0    0  0.11675008208E+03 -0.40028780840E+03 -0.28873440552E+03  0.10013488882E+04  0.86340669896E+03 0.  0.
         23    2    4    4    0    0  0.33013704125E+03 -0.71151965489E+02  0.17171346091E+03  0.38975736096E+03  0.91499833684E+02 0.  0.
         23    2    4    4    0    0 -0.21338695916E+03 -0.32913584291E+03 -0.46044786643E+03  0.61159152727E+03  0.90374560073E+02 0.  0.
          2    1    3    3  502    0 -0.97908453233E+02  0.37812921273E+03 -0.44498216717E+02  0.39312575345E+03  0.00000000000E+00 0. -1.
         -1    1    3    3    0  502 -0.18841628850E+02  0.22158595672E+02  0.15178511941E+02  0.32808498360E+02  0.00000000000E+00 0.  1.
         11    1    5    5    0    0  0.16895447085E+03 -0.41013020301E+02  0.37503587592E+02  0.17786005773E+03  0.00000000000E+00 0. -1.
        -11    1    5    5    0    0  0.16118257040E+03 -0.30138945189E+02  0.13420987332E+03  0.21189730322E+03  0.00000000000E+00 0.  1.
          2    1    6    6  503    0 -0.20643422817E+03 -0.33309279595E+03 -0.45888354267E+03  0.60344014368E+03  0.00000000000E+00 0.  1.
         -2    1    6    6    0  503 -0.69527309950E+01  0.39569530432E+01 -0.15643237609E+01  0.81513835945E+01  0.00000000000E+00 0. -1.
<mgrwt>
<rscale>  0 0.13913945E+04</rscale>
<asrwt>0</asrwt>
<pdfrwt beam="1">  1        2 0.13425671E+00 0.13913945E+04</pdfrwt>
<pdfrwt beam="2">  1       -1 0.85325311E-01 0.13913945E+04</pdfrwt>
<totfact> 0.46216707E+01</totfact>
</mgrwt>
</event>
<event>
12    6  0.1538774E-007  0.1245898E+04  0.7818608E-02  0.9073604E-01
         -1   -1    0    0    0  501 -0.00000000000E+00  0.00000000000E+00  0.10432785506E+03  0.10432785506E+03  0.00000000000E+00 0.  1.
          2   -1    0    0  501    0  0.00000000000E+00 -0.00000000000E+00 -0.37196723060E+04  0.37196723060E+04  0.00000000000E+00 0. -1.
         24    2    1    2    0    0  0.62918222913E+02 -0.18185916458E+03 -0.21019742966E+03  0.29541730078E+03  0.77826497083E+02 0.  0.
        254    2    1    2    0    0 -0.62918222913E+02  0.18185916458E+03 -0.34051470213E+04  0.35285828603E+04  0.90489740122E+03 0.  0.
         23    2    4    4    0    0  0.37082957217E+03 -0.77954612476E+02 -0.18582059109E+04  0.18984848122E+04  0.87885616092E+02 0.  0.
         23    2    4    4    0    0 -0.43374779508E+03  0.25981377706E+03 -0.15469411104E+04  0.16300980481E+04  0.92479721915E+02 0.  0.
          4    1    3    3  502    0 -0.26088574880E+01 -0.52563721731E+02 -0.20044447382E+02  0.56316346210E+02  0.00000000000E+00 0. -1.
         -3    1    3    3    0  502  0.65527080401E+02 -0.12929544285E+03 -0.19015298227E+03  0.23910095457E+03  0.00000000000E+00 0.  1.
         11    1    5    5    0    0  0.22381641198E+03 -0.84117696672E+02 -0.10377372281E+04  0.10649263485E+04  0.00000000000E+00 0.  1.
        -11    1    5    5    0    0  0.14701316019E+03  0.61630841964E+01 -0.82046868286E+03  0.83355846371E+03  0.00000000000E+00 0. -1.
          3    1    6    6  503    0 -0.51734579355E+02  0.25045127179E+02 -0.10076485316E+03  0.11600552025E+03  0.00000000000E+00 0. -1.
         -3    1    6    6    0  503 -0.38201321572E+03  0.23476864988E+03 -0.14461762572E+04  0.15140925279E+04  0.00000000000E+00 0.  1.
<mgrwt>
<rscale>  0 0.12458980E+04</rscale>
<asrwt>0</asrwt>
<pdfrwt beam="1">  1        2 0.57225733E+00 0.12458980E+04</pdfrwt>
<pdfrwt beam="2">  1       -1 0.16050438E-01 0.12458980E+04</pdfrwt>
<totfact> 0.19174221E+01</totfact>
</mgrwt>
</event>
<event>
12    6  0.1538774E-007  0.1927683E+04  0.7818608E-02  0.8641198E-01
          4   -1    0    0  501    0  0.00000000000E+00  0.00000000000E+00  0.49877725949E+03  0.49877725949E+03  0.00000000000E+00 0. -1.
         -3   -1    0    0    0  501 -0.00000000000E+00 -0.00000000000E+00 -0.18625347834E+04  0.18625347834E+04  0.00000000000E+00 0.  1.
         24    2    1    2    0    0  0.57549890404E+03  0.46954625080E+03 -0.70632084499E+03  0.10281288917E+04  0.80543228177E+02 0.  0.
        254    2    1    2    0    0 -0.57549890404E+03 -0.46954625080E+03 -0.65743667897E+03  0.13331831513E+04  0.89077587407E+03 0.  0.
         23    2    4    4    0    0 -0.19478549264E+03 -0.65337001341E+03 -0.56784844347E+03  0.89185307436E+03  0.90090448592E+02 0.  0.
         23    2    4    4    0    0 -0.38071341140E+03  0.18382376261E+03 -0.89588235493E+02  0.44133007692E+03  0.89511493879E+02 0.  0.
          4    1    3    3  502    0  0.54059527332E+03  0.45415010498E+03 -0.68796198902E+03  0.98579270931E+03  0.00000000000E+00 0. -1.
         -3    1    3    3    0  502  0.34903630720E+02  0.15396145816E+02 -0.18358855973E+02  0.42336182351E+02  0.00000000000E+00 0.  1.
         11    1    5    5    0    0 -0.19308679020E+03 -0.56259716037E+03 -0.51514883331E+03  0.78687762318E+03  0.00000000000E+00 0. -1.
        -11    1    5    5    0    0 -0.16987024392E+01 -0.90772853037E+02 -0.52699610168E+02  0.10497545118E+03  0.00000000000E+00 0.  1.
          4    1    6    6  503    0 -0.20082423950E+03  0.88279304552E+02 -0.14123826318E+01  0.21937548999E+03  0.00000000000E+00 0. -1.
         -4    1    6    6    0  503 -0.17988917190E+03  0.95544458061E+02 -0.88175852862E+02  0.22195458693E+03  0.00000000000E+00 0.  1.
<mgrwt>
<rscale>  0 0.19276825E+04</rscale>
<asrwt>0</asrwt>
<pdfrwt beam="1">  1        4 0.76734963E-01 0.19276825E+04</pdfrwt>
<pdfrwt beam="2">  1       -3 0.28654381E+00 0.19276825E+04</pdfrwt>
<totfact> 0.14777619E-01</totfact>
</mgrwt>
</event>
<event>
12    6  0.1538774E-007  0.1075174E+04  0.7818608E-02  0.9229732E-01
          2   -1    0    0  501    0  0.00000000000E+00  0.00000000000E+00  0.56118924571E+03  0.56118924571E+03  0.00000000000E+00 0. -1.
         -1   -1    0    0    0  501 -0.00000000000E+00 -0.00000000000E+00 -0.51497748708E+03  0.51497748708E+03  0.00000000000E+00 0.  1.
         24    2    1    2    0    0 -0.42319015703E+01 -0.73771798801E+02 -0.12001174488E+03  0.16237436228E+03  0.80637629722E+02 0.  0.
        254    2    1    2    0    0  0.42319015703E+01  0.73771798801E+02  0.16622350352E+03  0.91379237051E+03  0.89550324176E+03 0.  0.
         23    2    4    4    0    0 -0.32589929365E+03  0.10857551621E+03 -0.20350632278E+03  0.40918989496E+03  0.89568713299E+02 0.  0.
         23    2    4    4    0    0  0.33013119522E+03 -0.34803717412E+02  0.36972982629E+03  0.50460247555E+03  0.87895444029E+02 0.  0.
          4    1    3    3  502    0 -0.33010079130E+02 -0.45614966158E+01 -0.26797486995E+02  0.42761874196E+02  0.00000000000E+00 0. -1.
         -3    1    3    3    0  502  0.28778177560E+02 -0.69210302185E+02 -0.93214257888E+02  0.11961248808E+03  0.00000000000E+00 0.  1.
         11    1    5    5    0    0 -0.13226616306E+03  0.89521707147E+02 -0.78884088489E+02  0.17813246015E+03  0.00000000000E+00 0.  1.
        -11    1    5    5    0    0 -0.19363313059E+03  0.19053809066E+02 -0.12462223429E+03  0.23105743481E+03  0.00000000000E+00 0. -1.
          2    1    6    6  503    0  0.11468140788E+03 -0.49963806885E+02  0.10800470785E+03  0.16526712991E+03  0.00000000000E+00 0.  1.
         -2    1    6    6    0  503  0.21544978734E+03  0.15160089473E+02  0.26172511844E+03  0.33933534564E+03  0.00000000000E+00 0. -1.
<mgrwt>
<rscale>  0 0.10751741E+04</rscale>
<asrwt>0</asrwt>
<pdfrwt beam="1">  1        2 0.86336807E-01 0.10751741E+04</pdfrwt>
<pdfrwt beam="2">  1       -1 0.79227306E-01 0.10751741E+04</pdfrwt>
<totfact> 0.97335543E+01</totfact>
</mgrwt>
</event>
<event>
12    6  0.1538774E-007  0.3035155E+04  0.7818608E-02  0.8233763E-01
         -1   -1    0    0    0  501 -0.00000000000E+00  0.00000000000E+00  0.10114006275E+04  0.10114006275E+04  0.00000000000E+00 0.  1.
          2   -1    0    0  501    0  0.00000000000E+00 -0.00000000000E+00 -0.22770814144E+04  0.22770814144E+04  0.00000000000E+00 0. -1.
         24    2    1    2    0    0  0.10515096504E+04  0.75536285404E+01 -0.15386773970E+04  0.18651508130E+04  0.74362767352E+02 0.  0.
        254    2    1    2    0    0 -0.10515096504E+04 -0.75536285404E+01  0.27299661005E+03  0.14233312288E+04  0.91957329005E+03 0.  0.
         23    2    4    4    0    0 -0.12071989280E+04 -0.32332338749E+02  0.20910778821E+03  0.12288329452E+04  0.89048908795E+02 0.  0.
         23    2    4    4    0    0  0.15568927761E+03  0.24778710208E+02  0.63888821843E+02  0.19449828369E+03  0.94311532479E+02 0.  0.
          2    1    3    3  502    0  0.10179873913E+04  0.20528638536E+01 -0.15075981704E+04  0.18191082393E+04  0.00000000000E+00 0. -1.
         -1    1    3    3    0  502  0.33522259047E+02  0.55007646868E+01 -0.31079226651E+02  0.46042573701E+02  0.00000000000E+00 0.  1.
         11    1    5    5    0    0 -0.44036401435E+03 -0.35618228127E+02  0.40345998878E+02  0.44364053346E+03  0.00000000000E+00 0. -1.
        -11    1    5    5    0    0 -0.76683491364E+03  0.32858893783E+01  0.16876178933E+03  0.78519241169E+03  0.00000000000E+00 0.  1.
          1    1    6    6  503    0  0.14117069908E+03 -0.50850076787E+01  0.74414834208E+02  0.15966399448E+03  0.00000000000E+00 0. -1.
         -1    1    6    6    0  503  0.14518578529E+02  0.29863717887E+02 -0.10526012365E+02  0.34834289211E+02  0.00000000000E+00 0.  1.
<mgrwt>
<rscale>  0 0.30351551E+04</rscale>
<asrwt>0</asrwt>
<pdfrwt beam="1">  1        2 0.35032021E+00 0.30351551E+04</pdfrwt>
<pdfrwt beam="2">  1       -1 0.15560010E+00 0.30351551E+04</pdfrwt>
<totfact> 0.14312481E+00</totfact>
</mgrwt>
</event>
<event>
12    6  0.1538774E-007  0.1201947E+04  0.7818608E-02  0.9111154E-01
          2   -1    0    0  501    0  0.00000000000E+00  0.00000000000E+00  0.16829070774E+04  0.16829070774E+04  0.00000000000E+00 0. -1.
         -1   -1    0    0    0  501 -0.00000000000E+00 -0.00000000000E+00 -0.21461023487E+03  0.21461023487E+03  0.00000000000E+00 0.  1.
         24    2    1    2    0    0 -0.24827949436E+03 -0.62756723778E+02  0.33902652671E+03  0.43091288245E+03  0.71873588703E+02 0.  0.
        254    2    1    2    0    0  0.24827949436E+03  0.62756723778E+02  0.11292703158E+04  0.14666044298E+04  0.90005332822E+03 0.  0.
         23    2    4    4    0    0  0.15759068247E+03 -0.40395336260E+03  0.62482849117E+03  0.76673242067E+03  0.97235894426E+02 0.  0.
         23    2    4    4    0    0  0.90688811892E+02  0.46671008637E+03  0.50444182462E+03  0.69987200913E+03  0.96522066923E+02 0.  0.
          2    1    3    3  502    0 -0.23892668031E+03 -0.61098228537E+02  0.28867764228E+03  0.37967582652E+03  0.00000000000E+00 0. -1.
         -1    1    3    3    0  502 -0.93528140533E+01 -0.16584952415E+01  0.50348884435E+02  0.51237055936E+02  0.00000000000E+00 0.  1.
         11    1    5    5    0    0  0.11288766765E+03 -0.15710329185E+03  0.27792517364E+03  0.33862585838E+03  0.00000000000E+00 0.  1.
        -11    1    5    5    0    0  0.44703014821E+02 -0.24685007075E+03  0.34690331753E+03  0.42810656229E+03  0.00000000000E+00 0. -1.
          4    1    6    6  503    0  0.91223562464E+02  0.29956028741E+03  0.37441081083E+03  0.48809994818E+03  0.00000000000E+00 0. -1.
         -4    1    6    6    0  503 -0.53475057281E+00  0.16714979896E+03  0.13003101380E+03  0.21177206095E+03  0.00000000000E+00 0.  1.
<mgrwt>
<rscale>  0 0.12019469E+04</rscale>
<asrwt>0</asrwt>
<pdfrwt beam="1">  1        2 0.25890877E+00 0.12019469E+04</pdfrwt>
<pdfrwt beam="2">  1       -1 0.33016960E-01 0.12019469E+04</pdfrwt>
<totfact> 0.97029276E+01</totfact>
</mgrwt>
</event>
<event>
12    6  0.1538774E-007  0.1587166E+04  0.7818608E-02  0.8828472E-01
          2   -1    0    0  501    0  0.00000000000E+00  0.00000000000E+00  0.13994720491E+04  0.13994720491E+04  0.00000000000E+00 0. -1.
         -1   -1    0    0    0  501 -0.00000000000E+00 -0.00000000000E+00 -0.45000807109E+03  0.45000807109E+03  0.00000000000E+00 0.  1.
         24    2    1    2    0    0 -0.15738276373E+03 -0.39216882256E+03  0.47258354492E+03  0.63871863157E+03  0.77849622183E+02 0.  0.
        254    2    1    2    0    0  0.15738276373E+03  0.39216882256E+03  0.47688043306E+03  0.12107614886E+04  0.10295449068E+04 0.  0.
         23    2    4    4    0    0  0.29620442249E+03 -0.25029757523E+03  0.95075249913E+01  0.39836240539E+03  0.90643681142E+02 0.  0.
         23    2    4    4    0    0 -0.13882165876E+03  0.64246639779E+03  0.46737290807E+03  0.81239908320E+03  0.97572075678E+02 0.  0.
          2    1    3    3  502    0 -0.16060336226E+03 -0.36130831171E+03  0.41433961861E+03  0.57272546270E+03  0.00000000000E+00 0. -1.
         -1    1    3    3    0  502  0.32205985278E+01 -0.30860510858E+02  0.58243926308E+02  0.65993168866E+02  0.00000000000E+00 0.  1.
         11    1    5    5    0    0  0.18885102047E+03 -0.10114689925E+03  0.12136230044E+02  0.21457560728E+03  0.00000000000E+00 0.  1.
        -11    1    5    5    0    0  0.10735340202E+03 -0.14915067598E+03 -0.26287050530E+01  0.18378679811E+03  0.00000000000E+00 0. -1.
          1    1    6    6  503    0 -0.61419910228E+01 -0.18802125073E+01  0.26601869603E+01  0.69523986840E+01  0.00000000000E+00 0. -1.
         -1    1    6    6    0  503 -0.13267966774E+03  0.64434661030E+03  0.46471272111E+03  0.80544668452E+03  0.00000000000E+00 0.  1.
<mgrwt>
<rscale>  0 0.15871657E+04</rscale>
<asrwt>0</asrwt>
<pdfrwt beam="1">  1        2 0.21530339E+00 0.15871657E+04</pdfrwt>
<pdfrwt beam="2">  1       -1 0.69232011E-01 0.15871657E+04</pdfrwt>
<totfact> 0.33434696E+01</totfact>
</mgrwt>
</event>
<event>
12    6  0.1538774E-007  0.2264745E+04  0.7818608E-02  0.8491953E-01
         -1   -1    0    0    0  501 -0.00000000000E+00  0.00000000000E+00  0.15182718984E+04  0.15182718984E+04  0.00000000000E+00 0.  1.
          2   -1    0    0  501    0  0.00000000000E+00 -0.00000000000E+00 -0.84455729383E+03  0.84455729383E+03  0.00000000000E+00 0. -1.
         24    2    1    2    0    0  0.72078937532E+03  0.37018441032E+03 -0.21903268922E+03  0.84312677890E+03  0.79458323209E+02 0.  0.
        254    2    1    2    0    0 -0.72078937532E+03 -0.37018441032E+03  0.89274729382E+03  0.15197024134E+04  0.92516153905E+03 0.  0.
         23    2    4    4    0    0 -0.31056044702E+03 -0.28070484309E+03  0.99029277160E+03  0.10791612728E+04  0.93092851421E+02 0.  0.
         23    2    4    4    0    0 -0.41022892830E+03 -0.89479567231E+02 -0.97545477781E+02  0.44054114059E+03  0.90923097998E+02 0.  0.
          4    1    3    3  502    0  0.41949238082E+03  0.20820502220E+03 -0.16651173029E+03  0.49704058703E+03  0.00000000000E+00 0. -1.
         -3    1    3    3    0  502  0.30129699450E+03  0.16197938812E+03 -0.52520958929E+02  0.34608619186E+03  0.00000000000E+00 0.  1.
         11    1    5    5    0    0 -0.28920013621E+03 -0.27835727920E+03  0.88610225982E+03  0.97277783102E+03  0.00000000000E+00 0.  1.
        -11    1    5    5    0    0 -0.21360310810E+02 -0.23475638839E+01  0.10419051178E+03  0.10638344175E+03  0.00000000000E+00 0. -1.
          2    1    6    6  503    0 -0.17788075267E+03 -0.73997563483E+01 -0.75262827193E+01  0.17819361239E+03  0.00000000000E+00 0.  1.
         -2    1    6    6    0  503 -0.23234817563E+03 -0.82079810883E+02 -0.90019195061E+02  0.26234752820E+03  0.00000000000E+00 0. -1.
<mgrwt>
<rscale>  0 0.22647451E+04</rscale>
<asrwt>0</asrwt>
<pdfrwt beam="1">  1        2 0.12993189E+00 0.22647451E+04</pdfrwt>
<pdfrwt beam="2">  1       -1 0.23358029E+00 0.22647451E+04</pdfrwt>
<totfact> 0.29678832E+00</totfact>
</mgrwt>
</event>
<event>
12    6  0.1538774E-007  0.2069875E+04  0.7818608E-02  0.8574631E-01
         -1   -1    0    0    0  501 -0.00000000000E+00  0.00000000000E+00  0.50991089420E+03  0.50991089420E+03  0.00000000000E+00 0.  1.
          2   -1    0    0  501    0  0.00000000000E+00 -0.00000000000E+00 -0.21005537778E+04  0.21005537778E+04  0.00000000000E+00 0. -1.
         24    2    1    2    0    0  0.52279244906E+03  0.25022636514E+03 -0.14106877895E+04  0.15274058536E+04  0.83686459715E+02 0.  0.
        254    2    1    2    0    0 -0.52279244906E+03 -0.25022636514E+03 -0.17995509404E+03  0.10830588184E+04  0.89705484199E+03 0.  0.
         23    2    4    4    0    0 -0.47898421565E+03  0.22624001923E+03  0.58221663129E+02  0.54075665153E+03  0.91747310425E+02 0.  0.
         23    2    4    4    0    0 -0.43808233406E+02 -0.47646638437E+03 -0.23817675717E+03  0.54230216683E+03  0.91782872827E+02 0.  0.
          2    1    3    3  502    0  0.31179740831E+03  0.11185028795E+03 -0.86297392594E+03  0.92436578669E+03  0.00000000000E+00 0. -1.
         -1    1    3    3    0  502  0.21099504075E+03  0.13837607719E+03 -0.54771386357E+03  0.60304006691E+03  0.00000000000E+00 0.  1.
         11    1    5    5    0    0 -0.20389752632E+03  0.59866512202E+02  0.53936833085E+02  0.21924274785E+03  0.00000000000E+00 0. -1.
        -11    1    5    5    0    0 -0.27508668933E+03  0.16637350703E+03  0.42848300442E+01  0.32151390367E+03  0.00000000000E+00 0.  1.
          1    1    6    6  503    0 -0.53091505789E+01 -0.23175829741E+01 -0.16483026398E+02  0.17471360277E+02  0.00000000000E+00 0. -1.
         -1    1    6    6    0  503 -0.38499082827E+02 -0.47414880139E+03 -0.22169373077E+03  0.52483080655E+03  0.00000000000E+00 0.  1.
<mgrwt>
<rscale>  0 0.20698746E+04</rscale>
<asrwt>0</asrwt>
<pdfrwt beam="1">  1        2 0.32316212E+00 0.20698746E+04</pdfrwt>
<pdfrwt beam="2">  1       -1 0.78447830E-01 0.20698746E+04</pdfrwt>
<totfact> 0.10041672E+01</totfact>
</mgrwt>
</event>
<event>
12    6  0.1538774E-007  0.1076155E+04  0.7818608E-02  0.9228749E-01
          2   -1    0    0  501    0  0.00000000000E+00  0.00000000000E+00  0.14412462356E+04  0.14412462356E+04  0.00000000000E+00 0. -1.
         -1   -1    0    0    0  501 -0.00000000000E+00 -0.00000000000E+00 -0.20088695109E+03  0.20088695109E+03  0.00000000000E+00 0.  1.
         24    2    1    2    0    0  0.32311016227E+02  0.71116117020E+02  0.13147201771E+02  0.11240776211E+03  0.79756831677E+02 0.  0.
        254    2    1    2    0    0 -0.32311016227E+02 -0.71116117020E+02  0.12272120828E+04  0.15297254246E+04  0.90989498007E+03 0.  0.
         23    2    4    4    0    0  0.11611086031E+03 -0.57828954434E+02 -0.10198958909E+03  0.18874038299E+03  0.91624974959E+02 0.  0.
         23    2    4    4    0    0 -0.14842187653E+03 -0.13287162587E+02  0.13292016719E+04  0.13409850416E+04  0.96219516090E+02 0.  0.
          4    1    3    3  502    0  0.76421892327E+01  0.19904075311E+02  0.43151354542E+02  0.48131223432E+02  0.00000000000E+00 0. -1.
         -3    1    3    3    0  502  0.24668826994E+02  0.51212041709E+02 -0.30004152771E+02  0.64276538681E+02  0.00000000000E+00 0.  1.
         11    1    5    5    0    0 -0.30989897598E+01  0.11337978377E+01  0.12701093323E+02  0.13122766730E+02  0.00000000000E+00 0.  1.
        -11    1    5    5    0    0  0.11920985007E+03 -0.58962752271E+02 -0.11469068241E+03  0.17561761626E+03  0.00000000000E+00 0. -1.
          4    1    6    6  503    0 -0.13048220359E+03 -0.22478828426E+02  0.12911764526E+04  0.12979474315E+04  0.00000000000E+00 0. -1.
         -4    1    6    6    0  503 -0.17939672940E+02  0.91916658395E+01  0.38025219253E+02  0.43037610126E+02  0.00000000000E+00 0.  1.
<mgrwt>
<rscale>  0 0.10761553E+04</rscale>
<asrwt>0</asrwt>
<pdfrwt beam="1">  1        2 0.22173018E+00 0.10761553E+04</pdfrwt>
<pdfrwt beam="2">  1       -1 0.30905686E-01 0.10761553E+04</pdfrwt>
<totfact> 0.15022189E+02</totfact>
</mgrwt>
</event>
<event>
12    6  0.1538774E-007  0.1893140E+04  0.7818608E-02  0.8658279E-01
          2   -1    0    0  501    0  0.00000000000E+00  0.00000000000E+00  0.20307520293E+04  0.20307520293E+04  0.00000000000E+00 0. -1.
         -1   -1    0    0    0  501 -0.00000000000E+00 -0.00000000000E+00 -0.44121315426E+03  0.44121315426E+03  0.00000000000E+00 0.  1.
         24    2    1    2    0    0  0.60319407974E+03 -0.32710576057E+03  0.94026609303E+03  0.11666175817E+04  0.77813750133E+02 0.  0.
        254    2    1    2    0    0 -0.60319407974E+03  0.32710576057E+03  0.64927278202E+03  0.13053476019E+04  0.90085289582E+03 0.  0.
         23    2    4    4    0    0 -0.53123214208E+03 -0.21228255803E+03  0.29068503610E+03  0.64744979892E+03  0.86150906467E+02 0.  0.
         23    2    4    4    0    0 -0.71961937658E+02  0.53938831860E+03  0.35858774593E+03  0.65789780299E+03  0.90144711110E+02 0.  0.
          4    1    3    3  502    0  0.27474105187E+03 -0.13722516941E+03  0.48420182042E+03  0.57338014929E+03  0.00000000000E+00 0. -1.
         -3    1    3    3    0  502  0.32845302787E+03 -0.18988059116E+03  0.45606427261E+03  0.59323743237E+03  0.00000000000E+00 0.  1.
         11    1    5    5    0    0 -0.35472308661E+02  0.74049561360E+01  0.16496516591E+02  0.39815237244E+02  0.00000000000E+00 0. -1.
        -11    1    5    5    0    0 -0.49575983342E+03 -0.21968751417E+03  0.27418851950E+03  0.60763456168E+03  0.00000000000E+00 0.  1.
          2    1    6    6  503    0 -0.13905618878E+02  0.77918127888E+01  0.17250711519E+02  0.23487563322E+02  0.00000000000E+00 0. -1.
         -2    1    6    6    0  503 -0.58056318780E+02  0.53159650581E+03  0.34133703441E+03  0.63441023967E+03  0.00000000000E+00 0.  1.
<mgrwt>
<rscale>  0 0.18931397E+04</rscale>
<asrwt>0</asrwt>
<pdfrwt beam="1">  1        2 0.31242338E+00 0.18931397E+04</pdfrwt>
<pdfrwt beam="2">  1       -1 0.67878948E-01 0.18931397E+04</pdfrwt>
<totfact> 0.15060492E+01</totfact>
</mgrwt>
</event>
<event>
12    6  0.1538774E-007  0.1451747E+04  0.7818608E-02  0.8917190E-01
          2   -1    0    0  501    0  0.00000000000E+00  0.00000000000E+00  0.27913752465E+04  0.27913752465E+04  0.00000000000E+00 0. -1.
         -1   -1    0    0    0  501 -0.00000000000E+00 -0.00000000000E+00 -0.18875720281E+03  0.18875720281E+03  0.00000000000E+00 0.  1.
         24    2    1    2    0    0  0.37328011573E+03  0.12292493708E+03  0.12204240425E+04  0.12846108724E+04  0.79634570765E+02 0.  0.
        254    2    1    2    0    0 -0.37328011573E+03 -0.12292493708E+03  0.13821940012E+04  0.16955215770E+04  0.89993587333E+03 0.  0.
         23    2    4    4    0    0 -0.46084983722E+03 -0.40590989397E+03  0.11566077620E+04  0.13127307586E+04  0.91515653708E+02 0.  0.
         23    2    4    4    0    0  0.87569721498E+02  0.28298495689E+03  0.22558623912E+03  0.38279081835E+03  0.88829710044E+02 0.  0.
          4    1    3    3  502    0  0.35581805512E+03  0.10032192595E+03  0.10864390820E+04  0.11476152909E+04  0.00000000000E+00 0. -1.
         -3    1    3    3    0  502  0.17462060606E+02  0.22603011132E+02  0.13398496056E+03  0.13699558142E+03  0.00000000000E+00 0.  1.
         11    1    5    5    0    0 -0.17280621280E+03 -0.95672181313E+02  0.36099475594E+03  0.41150014250E+03  0.00000000000E+00 0. -1.
        -11    1    5    5    0    0 -0.28804362442E+03 -0.31023771266E+03  0.79561300611E+03  0.90123061611E+03  0.00000000000E+00 0.  1.
          2    1    6    6  503    0  0.99529954610E+02  0.24748743774E+03  0.17194850095E+03  0.31736813117E+03  0.00000000000E+00 0. -1.
         -2    1    6    6    0  503 -0.11960233112E+02  0.35497519143E+02  0.53637738176E+02  0.65422687181E+02  0.00000000000E+00 0.  1.
<mgrwt>
<rscale>  0 0.14517468E+04</rscale>
<asrwt>0</asrwt>
<pdfrwt beam="1">  1        2 0.42944231E+00 0.14517468E+04</pdfrwt>
<pdfrwt beam="2">  1       -1 0.29039572E-01 0.14517468E+04</pdfrwt>
<totfact> 0.28082585E+01</totfact>
</mgrwt>
</event>
<event>
12    6  0.1538774E-007  0.3146690E+04  0.7818608E-02  0.8203040E-01
          2   -1    0    0  501    0  0.00000000000E+00  0.00000000000E+00  0.21537564887E+04  0.21537564887E+04  0.00000000000E+00 0. -1.
         -1   -1    0    0    0  501 -0.00000000000E+00 -0.00000000000E+00 -0.11493475248E+04  0.11493475248E+04  0.00000000000E+00 0.  1.
         24    2    1    2    0    0  0.79020232796E+03 -0.79836030463E+03  0.14073361443E+04  0.18023199992E+04  0.77223449495E+02 0.  0.
        254    2    1    2    0    0 -0.79020232796E+03  0.79836030463E+03 -0.40292718040E+03  0.15007840143E+04  0.91005683879E+03 0.  0.
         23    2    4    4    0    0 -0.54577055026E+03  0.24017542420E+03 -0.60176115441E+03  0.85336173540E+03  0.10276203859E+03 0.  0.
         23    2    4    4    0    0 -0.24443177770E+03  0.55818488044E+03  0.19883397400E+03  0.64742227892E+03  0.91123012079E+02 0.  0.
          2    1    3    3  502    0  0.75197795484E+03 -0.74881210627E+03  0.13522904401E+04  0.17189763959E+04  0.00000000000E+00 0. -1.
         -1    1    3    3    0  502  0.38224373118E+02 -0.49548198368E+02  0.55045704180E+02  0.83343603296E+02  0.00000000000E+00 0.  1.
         11    1    5    5    0    0 -0.15967350937E+02  0.10278030694E+02  0.42257472518E+00  0.18994019593E+02  0.00000000000E+00 0.  1.
        -11    1    5    5    0    0 -0.52980319932E+03  0.22989739350E+03 -0.60218372913E+03  0.83436771581E+03  0.00000000000E+00 0. -1.
          3    1    6    6  503    0 -0.12508985714E+03  0.25196836442E+03  0.46282291899E+02  0.28509222994E+03  0.00000000000E+00 0. -1.
         -3    1    6    6    0  503 -0.11934192056E+03  0.30621651602E+03  0.15255168210E+03  0.36233004899E+03  0.00000000000E+00 0.  1.
<mgrwt>
<rscale>  0 0.31466901E+04</rscale>
<asrwt>0</asrwt>
<pdfrwt beam="1">  1        2 0.33134715E+00 0.31466901E+04</pdfrwt>
<pdfrwt beam="2">  1       -1 0.17682270E+00 0.31466901E+04</pdfrwt>
<totfact> 0.11567522E+00</totfact>
</mgrwt>
</event>
<event>
12    6  0.1538774E-007  0.1448007E+04  0.7818608E-02  0.8919783E-01
          2   -1    0    0  501    0  0.00000000000E+00  0.00000000000E+00  0.29425635933E+04  0.29425635933E+04  0.00000000000E+00 0. -1.
         -1   -1    0    0    0  501 -0.00000000000E+00 -0.00000000000E+00 -0.17813760390E+03  0.17813760390E+03  0.00000000000E+00 0.  1.
         24    2    1    2    0    0 -0.38582455249E+03 -0.20499756621E+03  0.80943470693E+03  0.92327374085E+03  0.79782631570E+02 0.  0.
        254    2    1    2    0    0  0.38582455249E+03  0.20499756621E+03  0.19549912824E+04  0.21974274563E+04  0.90322307540E+03 0.  0.
         23    2    4    4    0    0  0.50320916931E+03  0.46846657382E+03  0.14649956855E+04  0.16208535671E+04  0.90958938310E+02 0.  0.
         23    2    4    4    0    0 -0.11738461681E+03 -0.26346900761E+03  0.48999559689E+03  0.57657388922E+03  0.95638373687E+02 0.  0.
          2    1    3    3  502    0 -0.16942440467E+03 -0.12574986392E+03  0.43769440662E+03  0.48589510263E+03  0.00000000000E+00 0. -1.
         -1    1    3    3    0  502 -0.21640014782E+03 -0.79247702292E+02  0.37174030032E+03  0.43737863822E+03  0.00000000000E+00 0.  1.
         11    1    5    5    0    0  0.48484891547E+03  0.43719924730E+03  0.14213191124E+04  0.15640874885E+04  0.00000000000E+00 0. -1.
        -11    1    5    5    0    0  0.18360253837E+02  0.31267326526E+02  0.43676573165E+02  0.56766078538E+02  0.00000000000E+00 0.  1.
          2    1    6    6  503    0 -0.11782532733E+03 -0.20828581315E+03  0.33228005859E+03  0.40948238675E+03  0.00000000000E+00 0. -1.
         -2    1    6    6    0  503  0.44071051569E+00 -0.55183194457E+02  0.15771553830E+03  0.16709150247E+03  0.00000000000E+00 0.  1.
<mgrwt>
<rscale>  0 0.14480072E+04</rscale>
<asrwt>0</asrwt>
<pdfrwt beam="1">  1        2 0.45270206E+00 0.14480072E+04</pdfrwt>
<pdfrwt beam="2">  1       -1 0.27405787E-01 0.14480072E+04</pdfrwt>
<totfact> 0.25151036E+01</totfact>
</mgrwt>
</event>
<event>
12    6  0.1538774E-007  0.2046493E+04  0.7818608E-02  0.8585187E-01
          2   -1    0    0  501    0  0.00000000000E+00  0.00000000000E+00  0.72976385600E+03  0.72976385600E+03  0.00000000000E+00 0. -1.
         -1   -1    0    0    0  501 -0.00000000000E+00 -0.00000000000E+00 -0.14347562842E+04  0.14347562842E+04  0.00000000000E+00 0.  1.
         24    2    1    2    0    0  0.74753592643E+03 -0.39432220748E+03 -0.34154818432E+03  0.91672851514E+03  0.97139300239E+02 0.  0.
        254    2    1    2    0    0 -0.74753592643E+03  0.39432220748E+03 -0.36344424386E+03  0.12477916250E+04  0.84296634363E+03 0.  0.
         23    2    4    4    0    0 -0.57117271702E+03  0.61540341575E+03 -0.99665923942E+02  0.85176569954E+03  0.10301394915E+03 0.  0.
         23    2    4    4    0    0 -0.17636320941E+03 -0.22108120828E+03 -0.26377831992E+03  0.39602592550E+03  0.85303278487E+02 0.  0.
          4    1    3    3  502    0  0.18203941206E+03 -0.12635271390E+03 -0.12576689469E+03  0.25479534464E+03  0.00000000000E+00 0. -1.
         -3    1    3    3    0  502  0.56549651436E+03 -0.26796949358E+03 -0.21578128964E+03  0.66193317050E+03  0.00000000000E+00 0.  1.
         11    1    5    5    0    0 -0.43109473436E+03  0.45943197756E+03 -0.29541877808E+02  0.63070843862E+03  0.00000000000E+00 0. -1.
        -11    1    5    5    0    0 -0.14007798266E+03  0.15597143819E+03 -0.70124046134E+02  0.22105726092E+03  0.00000000000E+00 0.  1.
          1    1    6    6  503    0 -0.16804936930E+03 -0.19339136045E+03 -0.19677025072E+03  0.32304696313E+03  0.00000000000E+00 0. -1.
         -1    1    6    6    0  503 -0.83138401029E+01 -0.27689847824E+02 -0.67008069201E+02  0.72978962364E+02  0.00000000000E+00 0.  1.
<mgrwt>
<rscale>  0 0.20464929E+04</rscale>
<asrwt>0</asrwt>
<pdfrwt beam="1">  1        2 0.11227136E+00 0.20464929E+04</pdfrwt>
<pdfrwt beam="2">  1       -1 0.22073173E+00 0.20464929E+04</pdfrwt>
<totfact> 0.44655915E+00</totfact>
</mgrwt>
</event>
<event>
12    6  0.1538774E-007  0.1521345E+04  0.7818608E-02  0.8870381E-01
          2   -1    0    0  501    0  0.00000000000E+00  0.00000000000E+00  0.14984809960E+04  0.14984809960E+04  0.00000000000E+00 0. -1.
         -1   -1    0    0    0  501 -0.00000000000E+00 -0.00000000000E+00 -0.38613964983E+03  0.38613964983E+03  0.00000000000E+00 0.  1.
         24    2    1    2    0    0  0.45952223987E+03  0.90207336986E+02  0.17174136651E+03  0.50517513862E+03  0.80054800786E+02 0.  0.
        254    2    1    2    0    0 -0.45952223987E+03 -0.90207336986E+02  0.94059997968E+03  0.13794455072E+04  0.89378047253E+03 0.  0.
         23    2    4    4    0    0  0.18436670990E+03 -0.38673462570E+01 -0.29594448012E+02  0.20735492309E+03  0.90078813769E+02 0.  0.
         23    2    4    4    0    0 -0.64388894977E+03 -0.86339990729E+02  0.97019442770E+03  0.11720905842E+04  0.10233052474E+03 0.  0.
          2    1    3    3  502    0  0.10080104263E+03  0.39346204965E+02  0.69912843739E+02  0.12882848971E+03  0.00000000000E+00 0. -1.
         -1    1    3    3    0  502  0.35872119724E+03  0.50861132022E+02  0.10182852277E+03  0.37634664891E+03  0.00000000000E+00 0.  1.
         11    1    5    5    0    0  0.63535315388E+02  0.41571676269E+02 -0.64152473757E+01  0.76197742540E+02  0.00000000000E+00 0.  1.
        -11    1    5    5    0    0  0.12083139451E+03 -0.45439022526E+02 -0.23179200636E+02  0.13115718055E+03  0.00000000000E+00 0. -1.
          1    1    6    6  503    0 -0.25345144242E+03 -0.20789327553E+02  0.46777627741E+03  0.53243260185E+03  0.00000000000E+00 0. -1.
         -1    1    6    6    0  503 -0.39043750735E+03 -0.65550663177E+02  0.50241815028E+03  0.63965798230E+03  0.00000000000E+00 0.  1.
<mgrwt>
<rscale>  0 0.15213454E+04</rscale>
<asrwt>0</asrwt>
<pdfrwt beam="1">  1        2 0.23053553E+00 0.15213454E+04</pdfrwt>
<pdfrwt beam="2">  1       -1 0.59406101E-01 0.15213454E+04</pdfrwt>
<totfact> 0.40158938E+01</totfact>
</mgrwt>
</event>
<event>
12    6  0.1538774E-007  0.1368191E+04  0.7818608E-02  0.8977171E-01
          2   -1    0    0  501    0  0.00000000000E+00  0.00000000000E+00  0.17726296452E+04  0.17726296452E+04  0.00000000000E+00 0. -1.
         -1   -1    0    0    0  501 -0.00000000000E+00 -0.00000000000E+00 -0.26400712329E+03  0.26400712329E+03  0.00000000000E+00 0.  1.
         24    2    1    2    0    0  0.16658449218E+03  0.32493172248E+03  0.35338268201E+03  0.51437142350E+03  0.79797393831E+02 0.  0.
        254    2    1    2    0    0 -0.16658449218E+03 -0.32493172248E+03  0.11552398399E+04  0.15222653450E+04  0.92161905121E+03 0.  0.
         23    2    4    4    0    0  0.26512768388E+03  0.82023884429E+02  0.73240631096E+03  0.78840565702E+03  0.90243389288E+02 0.  0.
         23    2    4    4    0    0 -0.43171217606E+03 -0.40695560691E+03  0.42283352896E+03  0.73385968798E+03  0.88167905051E+02 0.  0.
          2    1    3    3  502    0 -0.28941627340E+01  0.34842792928E+02  0.16740704039E+02  0.38763998357E+02  0.00000000000E+00 0. -1.
         -1    1    3    3    0  502  0.16947865492E+03  0.29008892955E+03  0.33664197797E+03  0.47560742514E+03  0.00000000000E+00 0.  1.
         11    1    5    5    0    0  0.14635608511E+03  0.89408937917E+02  0.39490395119E+03  0.43053825904E+03  0.00000000000E+00 0.  1.
        -11    1    5    5    0    0  0.11877159877E+03 -0.73850534882E+01  0.33750235976E+03  0.35786739798E+03  0.00000000000E+00 0. -1.
          4    1    6    6  503    0 -0.36750308256E+03 -0.38082405990E+03  0.35800303820E+03  0.63894573764E+03  0.00000000000E+00 0. -1.
         -4    1    6    6    0  503 -0.64209093498E+02 -0.26131547007E+02  0.64830490764E+02  0.94913950342E+02  0.00000000000E+00 0.  1.
<mgrwt>
<rscale>  0 0.13681913E+04</rscale>
<asrwt>0</asrwt>
<pdfrwt beam="1">  1        2 0.27271225E+00 0.13681913E+04</pdfrwt>
<pdfrwt beam="2">  1       -1 0.40616482E-01 0.13681913E+04</pdfrwt>
<totfact> 0.58817499E+01</totfact>
</mgrwt>
</event>
<event>
12    6  0.1538774E-007  0.1114624E+04  0.7818608E-02  0.9191055E-01
         -1   -1    0    0    0  501 -0.00000000000E+00  0.00000000000E+00  0.19619863708E+03  0.19619863708E+03  0.00000000000E+00 0.  1.
          2   -1    0    0  501    0  0.00000000000E+00 -0.00000000000E+00 -0.15830711905E+04  0.15830711905E+04  0.00000000000E+00 0. -1.
         24    2    1    2    0    0  0.13859891856E+03 -0.31065885633E+02 -0.64055647849E+02  0.17605537708E+03  0.81961090156E+02 0.  0.
        254    2    1    2    0    0 -0.13859891856E+03  0.31065885633E+02 -0.13228169056E+04  0.16032144505E+04  0.89458217014E+03 0.  0.
         23    2    4    4    0    0  0.29658881104E+03 -0.23276426962E+03 -0.61791071700E+03  0.72947378640E+03  0.90411408703E+02 0.  0.
         23    2    4    4    0    0 -0.43518772960E+03  0.26383015526E+03 -0.70490618855E+03  0.87374066407E+03  0.86806120598E+02 0.  0.
          4    1    3    3  502    0  0.53005939505E+02  0.21821276231E+02 -0.10299647878E+01  0.57331130694E+02  0.00000000000E+00 0. -1.
         -3    1    3    3    0  502  0.85592979059E+02 -0.52887161864E+02 -0.63025683061E+02  0.11872424638E+03  0.00000000000E+00 0.  1.
         11    1    5    5    0    0  0.36446439478E+01 -0.32430871066E+02 -0.46094806087E+02  0.56478101737E+02  0.00000000000E+00 0.  1.
        -11    1    5    5    0    0  0.29294416709E+03 -0.20033339856E+03 -0.57181591091E+03  0.67299568467E+03  0.00000000000E+00 0. -1.
          2    1    6    6  503    0 -0.23900342931E+03  0.17035216665E+03 -0.34130464438E+03  0.45014593210E+03  0.00000000000E+00 0. -1.
         -2    1    6    6    0  503 -0.19618430029E+03  0.93477988606E+02 -0.36360154417E+03  0.42359473197E+03  0.00000000000E+00 0.  1.
<mgrwt>
<rscale>  0 0.11146235E+04</rscale>
<asrwt>0</asrwt>
<pdfrwt beam="1">  1        2 0.24354940E+00 0.11146235E+04</pdfrwt>
<pdfrwt beam="2">  1       -1 0.30184408E-01 0.11146235E+04</pdfrwt>
<totfact> 0.12997948E+02</totfact>
</mgrwt>
</event>
<event>
12    6  0.1538774E-007  0.1846859E+04  0.7818608E-02  0.8681770E-01
          2   -1    0    0  501    0  0.00000000000E+00  0.00000000000E+00  0.21574423610E+04  0.21574423610E+04  0.00000000000E+00 0. -1.
         -1   -1    0    0    0  501 -0.00000000000E+00 -0.00000000000E+00 -0.39524670950E+03  0.39524670950E+03  0.00000000000E+00 0.  1.
         24    2    1    2    0    0  0.37055067071E+03  0.54415738810E+03  0.35463121838E+03  0.75187522521E+03  0.78345329420E+02 0.  0.
        254    2    1    2    0    0 -0.37055067071E+03 -0.54415738810E+03  0.14075644331E+04  0.18008138453E+04  0.91009769224E+03 0.  0.
         23    2    4    4    0    0  0.22228914464E+03 -0.43640619722E+02  0.71821889262E+03  0.75893115736E+03  0.93921011408E+02 0.  0.
         23    2    4    4    0    0 -0.59283981535E+03 -0.50051676838E+03  0.68934554052E+03  0.10418826879E+04  0.91357425003E+02 0.  0.
          4    1    3    3  502    0  0.19647729670E+02  0.49662059196E+02  0.50609042138E+02  0.73577364392E+02  0.00000000000E+00 0. -1.
         -3    1    3    3    0  502  0.35090294104E+03  0.49449532891E+03  0.30402217625E+03  0.67829786082E+03  0.00000000000E+00 0.  1.
         11    1    5    5    0    0  0.22862353616E+02  0.72641255727E+01  0.19844738177E+03  0.19989201601E+03  0.00000000000E+00 0. -1.
        -11    1    5    5    0    0  0.19942679103E+03 -0.50904745295E+02  0.51977151084E+03  0.55903914135E+03  0.00000000000E+00 0.  1.
          2    1    6    6  503    0 -0.11320445360E+03 -0.14625570335E+03  0.16227206112E+03  0.24604511963E+03  0.00000000000E+00 0. -1.
         -2    1    6    6    0  503 -0.47963536175E+03 -0.35426106503E+03  0.52707347940E+03  0.79583756831E+03  0.00000000000E+00 0.  1.
<mgrwt>
<rscale>  0 0.18468589E+04</rscale>
<asrwt>0</asrwt>
<pdfrwt beam="1">  1        2 0.33191420E+00 0.18468589E+04</pdfrwt>
<pdfrwt beam="2">  1       -1 0.60807187E-01 0.18468589E+04</pdfrwt>
<totfact> 0.16029714E+01</totfact>
</mgrwt>
</event>
<event>
12    6  0.1538774E-007  0.2221958E+04  0.7818608E-02  0.8509344E-01
          2   -1    0    0  501    0  0.00000000000E+00  0.00000000000E+00  0.28290839511E+04  0.28290839511E+04  0.00000000000E+00 0. -1.
         -1   -1    0    0    0  501 -0.00000000000E+00 -0.00000000000E+00 -0.43628074719E+03  0.43628074719E+03  0.00000000000E+00 0.  1.
         24    2    1    2    0    0  0.74644455722E+03 -0.24001383275E+03  0.28360988692E+03  0.83817756438E+03  0.85562518348E+02 0.  0.
        254    2    1    2    0    0 -0.74644455722E+03  0.24001383275E+03  0.21091933170E+04  0.24271871339E+04  0.90981031962E+03 0.  0.
         23    2    4    4    0    0 -0.32385048015E+03  0.46796547849E+03  0.56362879742E+03  0.80610206120E+03  0.90842111533E+02 0.  0.
         23    2    4    4    0    0 -0.42259407707E+03 -0.22795164574E+03  0.15455645196E+04  0.16210850727E+04  0.92733068853E+02 0.  0.
          2    1    3    3  502    0  0.24079340932E+03 -0.89531040371E+02  0.52500287779E+02  0.26220898799E+03  0.00000000000E+00 0. -1.
         -1    1    3    3    0  502  0.50565114790E+03 -0.15048279237E+03  0.23110959915E+03  0.57596857639E+03  0.00000000000E+00 0.  1.
         11    1    5    5    0    0 -0.21947333851E+02  0.54382695928E+01  0.12514691438E+02  0.25843330689E+02  0.00000000000E+00 0.  1.
        -11    1    5    5    0    0 -0.30190314630E+03  0.46252720890E+03  0.55111410598E+03  0.78025873051E+03  0.00000000000E+00 0. -1.
          1    1    6    6  503    0 -0.31940432361E+03 -0.20248399395E+03  0.11066182005E+04  0.11694540313E+04  0.00000000000E+00 0. -1.
         -1    1    6    6    0  503 -0.10318975346E+03 -0.25467651799E+02  0.43894631910E+03  0.45163104141E+03  0.00000000000E+00 0.  1.
<mgrwt>
<rscale>  0 0.22219585E+04</rscale>
<asrwt>0</asrwt>
<pdfrwt beam="1">  1        2 0.43524367E+00 0.22219585E+04</pdfrwt>
<pdfrwt beam="2">  1       -1 0.67120117E-01 0.22219585E+04</pdfrwt>
<totfact> 0.51861152E+00</totfact>
</mgrwt>
</event>
<event>
12    6  0.1538774E-007  0.2702709E+04  0.7818608E-02  0.8334126E-01
          2   -1    0    0  501    0  0.00000000000E+00  0.00000000000E+00  0.13844540849E+04  0.13844540849E+04  0.00000000000E+00 0. -1.
         -1   -1    0    0    0  501 -0.00000000000E+00 -0.00000000000E+00 -0.13190464859E+04  0.13190464859E+04  0.00000000000E+00 0.  1.
         24    2    1    2    0    0  0.24177161662E+03 -0.11091975604E+04  0.41506907312E+03  0.12118487969E+04  0.86731935036E+02 0.  0.
        254    2    1    2    0    0 -0.24177161662E+03  0.11091975604E+04 -0.34966147418E+03  0.14916517739E+04  0.90221345894E+03 0.  0.
         23    2    4    4    0    0 -0.11839932916E+03  0.12025366641E+04 -0.44134294657E+03  0.12899813738E+04  0.95684475149E+02 0.  0.
         23    2    4    4    0    0 -0.12337228746E+03 -0.93339103688E+02  0.91681472386E+02  0.20167040007E+03  0.91282792972E+02 0.  0.
          2    1    3    3  502    0  0.24406283400E+03 -0.10563714109E+04  0.38221822854E+03  0.11495990601E+04  0.00000000000E+00 0. -1.
         -1    1    3    3    0  502 -0.22912173773E+01 -0.52826149467E+02  0.32850844574E+02  0.62249736818E+02  0.00000000000E+00 0.  1.
         11    1    5    5    0    0 -0.20985488986E+02  0.66133727984E+03 -0.26065378115E+03  0.71115946318E+03  0.00000000000E+00 0. -1.
        -11    1    5    5    0    0 -0.97413840176E+02  0.54119938422E+03 -0.18068916542E+03  0.57882191064E+03  0.00000000000E+00 0.  1.
          4    1    6    6  503    0 -0.10079678622E+03 -0.90510146129E+02  0.10834668850E+03  0.17346781711E+03  0.00000000000E+00 0. -1.
         -4    1    6    6    0  503 -0.22575501238E+02 -0.28289575588E+01 -0.16665216114E+02  0.28202582951E+02  0.00000000000E+00 0.  1.
<mgrwt>
<rscale>  0 0.27027092E+04</rscale>
<asrwt>0</asrwt>
<pdfrwt beam="1">  1        2 0.21299294E+00 0.27027092E+04</pdfrwt>
<pdfrwt beam="2">  1       -1 0.20293023E+00 0.27027092E+04</pdfrwt>
<totfact> 0.21203164E+00</totfact>
</mgrwt>
</event>
<event>
12    6  0.1538774E-007  0.2034336E+04  0.7818608E-02  0.8590734E-01
         -1   -1    0    0    0  501 -0.00000000000E+00  0.00000000000E+00  0.50184521660E+03  0.50184521660E+03  0.00000000000E+00 0.  1.
          2   -1    0    0  501    0  0.00000000000E+00 -0.00000000000E+00 -0.20616536351E+04  0.20616536351E+04  0.00000000000E+00 0. -1.
         24    2    1    2    0    0 -0.54487327489E+03 -0.59560724959E+03 -0.79408015933E+03  0.11352388201E+04  0.81049353407E+02 0.  0.
        254    2    1    2    0    0  0.54487327489E+03  0.59560724959E+03 -0.76572825913E+03  0.14282600316E+04  0.89551776618E+03 0.  0.
         23    2    4    4    0    0  0.43141590553E+03 -0.13125038841E+03 -0.35676020705E+03  0.58170475677E+03  0.88069465267E+02 0.  0.
         23    2    4    4    0    0  0.11345736936E+03  0.72685763800E+03 -0.40896805208E+03  0.84655527481E+03  0.90588989969E+02 0.  0.
          4    1    3    3  502    0 -0.45685259244E+03 -0.47298537617E+03 -0.68068955729E+03  0.94645006772E+03  0.00000000000E+00 0. -1.
         -3    1    3    3    0  502 -0.88020682448E+02 -0.12262187342E+03 -0.11339060204E+03  0.18878875234E+03  0.00000000000E+00 0.  1.
         11    1    5    5    0    0  0.57652195112E+02  0.10280089376E+01 -0.18559525198E+02  0.60574651292E+02  0.00000000000E+00 0. -1.
        -11    1    5    5    0    0  0.37376371042E+03 -0.13227839735E+03 -0.33820068185E+03  0.52113010548E+03  0.00000000000E+00 0.  1.
          2    1    6    6  503    0  0.69741651024E+02  0.35094630563E+03 -0.24770700175E+03  0.43518497910E+03  0.00000000000E+00 0. -1.
         -2    1    6    6    0  503  0.43715718333E+02  0.37591133238E+03 -0.16126105033E+03  0.41137029571E+03  0.00000000000E+00 0.  1.
<mgrwt>
<rscale>  0 0.20343363E+04</rscale>
<asrwt>0</asrwt>
<pdfrwt beam="1">  1        2 0.31717748E+00 0.20343363E+04</pdfrwt>
<pdfrwt beam="2">  1       -1 0.77206956E-01 0.20343363E+04</pdfrwt>
<totfact> 0.10951683E+01</totfact>
</mgrwt>
</event>
<event>
12    6  0.1831633E-007  0.2319516E+04  0.7818608E-02  0.8470266E-01
          2   -1    0    0  501    0  0.00000000000E+00  0.00000000000E+00  0.27196337033E+04  0.27196337033E+04  0.00000000000E+00 0. -1.
         -1   -1    0    0    0  501 -0.00000000000E+00 -0.00000000000E+00 -0.49456595100E+03  0.49456595100E+03  0.00000000000E+00 0.  1.
         24    2    1    2    0    0 -0.10033718775E+03 -0.16706974125E+03 -0.39112242109E+03  0.44371741321E+03  0.76997044250E+02 0.  0.
        254    2    1    2    0    0  0.10033718775E+03  0.16706974125E+03  0.26161901734E+04  0.27704822411E+04  0.89058462546E+03 0.  0.
         23    2    4    4    0    0 -0.23951167956E+03 -0.23582391933E+03  0.71265115188E+03  0.79325064622E+03  0.91630550955E+02 0.  0.
         23    2    4    4    0    0  0.33984886731E+03  0.40289366058E+03  0.19035390215E+04  0.19772315949E+04  0.90351640661E+02 0.  0.
          4    1    3    3  502    0 -0.20752183565E+02 -0.29098723224E+02 -0.22703451697E+02  0.42341888655E+02  0.00000000000E+00 0. -1.
         -3    1    3    3    0  502 -0.79585004185E+02 -0.13797101803E+03 -0.36841896939E+03  0.40137552456E+03  0.00000000000E+00 0.  1.
         11    1    5    5    0    0 -0.86391714530E+02 -0.43408268029E+02  0.14112256602E+03  0.17106543986E+03  0.00000000000E+00 0. -1.
        -11    1    5    5    0    0 -0.15311996503E+03 -0.19241565130E+03  0.57152858586E+03  0.62218520636E+03  0.00000000000E+00 0.  1.
          3    1    6    6  503    0  0.13593395463E+03  0.12615039469E+03  0.80887146605E+03  0.82985842810E+03  0.00000000000E+00 0. -1.
         -3    1    6    6    0  503  0.20391491268E+03  0.27674326589E+03  0.10946675555E+04  0.11473731668E+04  0.00000000000E+00 0.  1.
<mgrwt>
<rscale>  0 0.23195157E+04</rscale>
<asrwt>0</asrwt>
<pdfrwt beam="1">  1        2 0.41840518E+00 0.23195157E+04</pdfrwt>
<pdfrwt beam="2">  1       -1 0.76087070E-01 0.23195157E+04</pdfrwt>
<totfact> 0.46182809E+00</totfact>
</mgrwt>
</event>
<event>
12    6  0.1538774E-007  0.1258144E+04  0.7818608E-02  0.9063432E-01
         -1   -1    0    0    0  501 -0.00000000000E+00  0.00000000000E+00  0.30371769572E+03  0.30371769572E+03  0.00000000000E+00 0.  1.
          2   -1    0    0  501    0  0.00000000000E+00 -0.00000000000E+00 -0.13029586959E+04  0.13029586959E+04  0.00000000000E+00 0. -1.
         24    2    1    2    0    0  0.23362028175E+03 -0.18067714890E+03 -0.36733434050E+03  0.47775590269E+03  0.78060980409E+02 0.  0.
        254    2    1    2    0    0 -0.23362028175E+03  0.18067714890E+03 -0.63190665970E+03  0.11289204890E+04  0.88765577542E+03 0.  0.
         23    2    4    4    0    0 -0.39936355348E+03 -0.23220934180E+03 -0.23547883213E+03  0.52616394851E+03  0.89363270200E+02 0.  0.
         23    2    4    4    0    0  0.16574327173E+03  0.41288649070E+03 -0.39642782756E+03  0.60275654045E+03  0.90632986641E+02 0.  0.
          2    1    3    3  502    0  0.23442774708E+03 -0.16576208952E+03 -0.32927318379E+03  0.43686870852E+03  0.00000000000E+00 0. -1.
         -1    1    3    3    0  502 -0.80746532778E+00 -0.14915059383E+02 -0.38061156717E+02  0.40887194172E+02  0.00000000000E+00 0.  1.
         11    1    5    5    0    0 -0.28202041223E+03 -0.20445604595E+03 -0.15548645842E+03  0.38146274574E+03  0.00000000000E+00 0.  1.
        -11    1    5    5    0    0 -0.11734314125E+03 -0.27753295852E+02 -0.79992373718E+02  0.14470120277E+03  0.00000000000E+00 0. -1.
          3    1    6    6  503    0  0.67205031932E+02  0.14752014120E+03 -0.20357977336E+03  0.26023726193E+03  0.00000000000E+00 0. -1.
         -3    1    6    6    0  503  0.98538239794E+02  0.26536634950E+03 -0.19284805421E+03  0.34251927853E+03  0.00000000000E+00 0.  1.
<mgrwt>
<rscale>  0 0.12581441E+04</rscale>
<asrwt>0</asrwt>
<pdfrwt beam="1">  1        2 0.20045519E+00 0.12581441E+04</pdfrwt>
<pdfrwt beam="2">  1       -1 0.46725799E-01 0.12581441E+04</pdfrwt>
<totfact> 0.84158105E+01</totfact>
</mgrwt>
</event>
<event>
12    6  0.1538774E-007  0.1587939E+04  0.7818608E-02  0.8827992E-01
         -1   -1    0    0    0  501 -0.00000000000E+00  0.00000000000E+00  0.77371886158E+03  0.77371886158E+03  0.00000000000E+00 0.  1.
          2   -1    0    0  501    0  0.00000000000E+00 -0.00000000000E+00 -0.81475049111E+03  0.81475049111E+03  0.00000000000E+00 0. -1.
         24    2    1    2    0    0 -0.53493513391E+03  0.87538258791E+02 -0.74863924191E+02  0.55234337491E+03  0.75233319800E+02 0.  0.
        254    2    1    2    0    0  0.53493513391E+03 -0.87538258791E+02  0.33832294660E+02  0.10361259778E+04  0.88237966514E+03 0.  0.
         23    2    4    4    0    0 -0.10690373656E+03 -0.31032908280E+03 -0.54459039896E+02  0.34490874748E+03  0.90904942313E+02 0.  0.
         23    2    4    4    0    0  0.64183887047E+03  0.22279082401E+03  0.88291334556E+02  0.69121723032E+03  0.91613387753E+02 0.  0.
          2    1    3    3  502    0 -0.28711575625E+01  0.72854550134E+01 -0.60148949420E+01  0.98742271427E+01  0.00000000000E+00 0. -1.
         -1    1    3    3    0  502 -0.53206397635E+03  0.80252803777E+02 -0.68849029249E+02  0.54246914776E+03  0.00000000000E+00 0.  1.
         11    1    5    5    0    0 -0.85118545168E+02 -0.19863424761E+03  0.57156514702E+01  0.21617909179E+03  0.00000000000E+00 0.  1.
        -11    1    5    5    0    0 -0.21785191389E+02 -0.11169483519E+03 -0.60174691366E+02  0.12872965569E+03  0.00000000000E+00 0. -1.
          1    1    6    6  503    0  0.24104984972E+02  0.37976122587E+01  0.21315398417E+02  0.32400900745E+02  0.00000000000E+00 0. -1.
         -1    1    6    6    0  503  0.61773388550E+03  0.21899321175E+03  0.66975936139E+02  0.65881632957E+03  0.00000000000E+00 0.  1.
<mgrwt>
<rscale>  0 0.15879393E+04</rscale>
<asrwt>0</asrwt>
<pdfrwt beam="1">  1        2 0.12534623E+00 0.15879393E+04</pdfrwt>
<pdfrwt beam="2">  1       -1 0.11903367E+00 0.15879393E+04</pdfrwt>
<totfact> 0.23264386E+01</totfact>
</mgrwt>
</event>
<event>
12    6  0.1538774E-007  0.1821124E+04  0.7818608E-02  0.8695146E-01
         -1   -1    0    0    0  501 -0.00000000000E+00  0.00000000000E+00  0.23963022623E+03  0.23963022623E+03  0.00000000000E+00 0.  1.
          2   -1    0    0  501    0  0.00000000000E+00 -0.00000000000E+00 -0.34600108152E+04  0.34600108152E+04  0.00000000000E+00 0. -1.
         24    2    1    2    0    0 -0.34817676292E+03 -0.34406650408E+03 -0.21937538374E+04  0.22491499291E+04  0.80688828552E+02 0.  0.
        254    2    1    2    0    0  0.34817676292E+03  0.34406650408E+03 -0.10266267516E+04  0.14504911124E+04  0.90019617998E+03 0.  0.
         23    2    4    4    0    0 -0.28531208495E+03  0.16743657504E+03 -0.22834141888E+03  0.41219309060E+03  0.91243344299E+02 0.  0.
         23    2    4    4    0    0  0.63348884787E+03  0.17662992904E+03 -0.79828533272E+03  0.10382980218E+04  0.91088184443E+02 0.  0.
          4    1    3    3  502    0 -0.63152365047E+02 -0.62154895808E+02 -0.27350031770E+03  0.28749587138E+03  0.00000000000E+00 0. -1.
         -3    1    3    3    0  502 -0.28502439787E+03 -0.28191160827E+03 -0.19202535197E+04  0.19616540577E+04  0.00000000000E+00 0.  1.
         11    1    5    5    0    0 -0.55302322380E+02  0.72941207798E+02 -0.86387284633E+02  0.12586313838E+03  0.00000000000E+00 0.  1.
        -11    1    5    5    0    0 -0.23000976257E+03  0.94495367238E+02 -0.14195413425E+03  0.28632995222E+03  0.00000000000E+00 0. -1.
          2    1    6    6  503    0  0.29855072174E+03  0.10191288318E+03 -0.44798853486E+03  0.54791650512E+03  0.00000000000E+00 0. -1.
         -2    1    6    6    0  503  0.33493812613E+03  0.74717045866E+02 -0.35029679786E+03  0.49038151664E+03  0.00000000000E+00 0.  1.
<mgrwt>
<rscale>  0 0.18211240E+04</rscale>
<asrwt>0</asrwt>
<pdfrwt beam="1">  1        2 0.53230937E+00 0.18211240E+04</pdfrwt>
<pdfrwt beam="2">  1       -1 0.36866188E-01 0.18211240E+04</pdfrwt>
<totfact> 0.66219140E+00</totfact>
</mgrwt>
</event>
<event>
12    6  0.1538774E-007  0.2335613E+04  0.7818608E-02  0.8464010E-01
         -1   -1    0    0    0  501 -0.00000000000E+00  0.00000000000E+00  0.46396586294E+03  0.46396586294E+03  0.00000000000E+00 0.  1.
          2   -1    0    0  501    0  0.00000000000E+00 -0.00000000000E+00 -0.29393801431E+04  0.29393801431E+04  0.00000000000E+00 0. -1.
         24    2    1    2    0    0 -0.29462758688E+03 -0.94162407497E+03 -0.87644911058E+03  0.13231692860E+04  0.95669234679E+02 0.  0.
        254    2    1    2    0    0  0.29462758688E+03  0.94162407497E+03 -0.15989651695E+04  0.20801767200E+04  0.89273974906E+03 0.  0.
         23    2    4    4    0    0  0.36616910385E+03  0.10695183904E+04 -0.14967582447E+04  0.18778646215E+04  0.90226901237E+02 0.  0.
         23    2    4    4    0    0 -0.71541516980E+02 -0.12789431544E+03 -0.10220692488E+03  0.20231209850E+03  0.94914620231E+02 0.  0.
          2    1    3    3  502    0 -0.24116193774E+03 -0.74199080978E+03 -0.74144207907E+03  0.10763111997E+04  0.00000000000E+00 0. -1.
         -1    1    3    3    0  502 -0.53465649139E+02 -0.19963326519E+03 -0.13500703151E+03  0.24685808629E+03  0.00000000000E+00 0.  1.
         11    1    5    5    0    0  0.35792310167E+02  0.10409024504E+03 -0.19410194817E+03  0.22313994457E+03  0.00000000000E+00 0. -1.
        -11    1    5    5    0    0  0.33037679369E+03  0.96542814536E+03 -0.13026562965E+04  0.16547246769E+04  0.00000000000E+00 0.  1.
          2    1    6    6  503    0 -0.53826590290E+01  0.14190622551E+02  0.39514945202E-01  0.15177231238E+02  0.00000000000E+00 0. -1.
         -2    1    6    6    0  503 -0.66158857951E+02 -0.14208493799E+03 -0.10224643983E+03  0.18713486727E+03  0.00000000000E+00 0.  1.
<mgrwt>
<rscale>  0 0.23356130E+04</rscale>
<asrwt>0</asrwt>
<pdfrwt beam="1">  1        2 0.45221235E+00 0.23356130E+04</pdfrwt>
<pdfrwt beam="2">  1       -1 0.71379361E-01 0.23356130E+04</pdfrwt>
<totfact> 0.38735183E+00</totfact>
</mgrwt>
</event>
<event>
12    6  0.1538774E-007  0.1449641E+04  0.7818608E-02  0.8918650E-01
          2   -1    0    0  501    0  0.00000000000E+00  0.00000000000E+00  0.22587555381E+04  0.22587555381E+04  0.00000000000E+00 0. -1.
         -1   -1    0    0    0  501 -0.00000000000E+00 -0.00000000000E+00 -0.23259021442E+03  0.23259021442E+03  0.00000000000E+00 0.  1.
         24    2    1    2    0    0 -0.41468400486E+03  0.41053188393E+01  0.91998715439E+03  0.10122698375E+04  0.79587575053E+02 0.  0.
        254    2    1    2    0    0  0.41468400486E+03 -0.41053188393E+01  0.11061781693E+04  0.14790759150E+04  0.88997513600E+03 0.  0.
         23    2    4    4    0    0 -0.19747316576E+03  0.19519678046E+03  0.16499737582E+03  0.33510780477E+03  0.89306620631E+02 0.  0.
         23    2    4    4    0    0  0.61215717062E+03 -0.19930209930E+03  0.94118079344E+03  0.11439681102E+04  0.91564310688E+02 0.  0.
          4    1    3    3  502    0 -0.29534869129E+03 -0.29980457800E+02  0.61142268076E+03  0.67968181662E+03  0.00000000000E+00 0. -1.
         -3    1    3    3    0  502 -0.11933531357E+03  0.34085776640E+02  0.30856447363E+03  0.33258802086E+03  0.00000000000E+00 0.  1.
         11    1    5    5    0    0 -0.79337131935E+02  0.24171552663E+02  0.58992792613E+02  0.10177816093E+03  0.00000000000E+00 0.  1.
        -11    1    5    5    0    0 -0.11813603383E+03  0.17102522780E+03  0.10600458321E+03  0.23332964384E+03  0.00000000000E+00 0. -1.
          2    1    6    6  503    0  0.38474317396E+01 -0.10913495809E+02  0.74807478503E+01  0.13779285546E+02  0.00000000000E+00 0. -1.
         -2    1    6    6    0  503  0.60830973888E+03 -0.18838860350E+03  0.93370004559E+03  0.11301888247E+04  0.00000000000E+00 0.  1.
<mgrwt>
<rscale>  0 0.14496406E+04</rscale>
<asrwt>0</asrwt>
<pdfrwt beam="1">  1        2 0.34750084E+00 0.14496406E+04</pdfrwt>
<pdfrwt beam="2">  1       -1 0.35783111E-01 0.14496406E+04</pdfrwt>
<totfact> 0.39471540E+01</totfact>
</mgrwt>
</event>
<event>
12    6  0.1538774E-007  0.2568338E+04  0.7818608E-02  0.8379036E-01
         -1   -1    0    0    0  501 -0.00000000000E+00  0.00000000000E+00  0.13976756670E+04  0.13976756670E+04  0.00000000000E+00 0.  1.
          2   -1    0    0  501    0  0.00000000000E+00 -0.00000000000E+00 -0.11798802851E+04  0.11798802851E+04  0.00000000000E+00 0. -1.
         24    2    1    2    0    0 -0.47514429093E+03  0.97536314161E+03  0.39991848830E+03  0.11590482812E+04  0.79766945779E+02 0.  0.
        254    2    1    2    0    0  0.47514429093E+03 -0.97536314161E+03 -0.18212310637E+03  0.14185076709E+04  0.89548859914E+03 0.  0.
         23    2    4    4    0    0  0.72619359098E+03 -0.80656162181E+03 -0.11126519387E+03  0.10949187167E+04  0.92564957648E+02 0.  0.
         23    2    4    4    0    0 -0.25104930006E+03 -0.16880151980E+03 -0.70857912504E+02  0.32358895419E+03  0.90383977342E+02 0.  0.
          4    1    3    3  502    0 -0.65958874744E+02  0.15470271861E+03  0.33184069406E+02  0.17141962188E+03  0.00000000000E+00 0. -1.
         -3    1    3    3    0  502 -0.40918541618E+03  0.82066042300E+03  0.36673441890E+03  0.98762865932E+03  0.00000000000E+00 0.  1.
         11    1    5    5    0    0  0.31281760050E+02 -0.50697456750E+02  0.12060644843E+02  0.60780258199E+02  0.00000000000E+00 0.  1.
        -11    1    5    5    0    0  0.69491183093E+03 -0.75586416506E+03 -0.12332583871E+03  0.10341384585E+04  0.00000000000E+00 0. -1.
          4    1    6    6  503    0 -0.20387083360E+03 -0.10546488058E+03 -0.21688892173E+02  0.23055707725E+03  0.00000000000E+00 0. -1.
         -4    1    6    6    0  503 -0.47178466459E+02 -0.63336639222E+02 -0.49169020331E+02  0.93031876933E+02  0.00000000000E+00 0.  1.
<mgrwt>
<rscale>  0 0.25683380E+04</rscale>
<asrwt>0</asrwt>
<pdfrwt beam="1">  1        2 0.18152004E+00 0.25683380E+04</pdfrwt>
<pdfrwt beam="2">  1       -1 0.21502703E+00 0.25683380E+04</pdfrwt>
<totfact> 0.23396942E+00</totfact>
</mgrwt>
</event>
<event>
12    6  0.1538774E-007  0.2454299E+04  0.7818608E-02  0.8419450E-01
         -1   -1    0    0    0  501 -0.00000000000E+00  0.00000000000E+00  0.32827088975E+04  0.32827088975E+04  0.00000000000E+00 0.  1.
          2   -1    0    0  501    0  0.00000000000E+00 -0.00000000000E+00 -0.45873592188E+03  0.45873592188E+03  0.00000000000E+00 0. -1.
         24    2    1    2    0    0  0.59765306229E+03  0.82865584288E+03  0.16388031993E+04  0.19328225302E+04  0.79166396421E+02 0.  0.
        254    2    1    2    0    0 -0.59765306229E+03 -0.82865584288E+03  0.11851697763E+04  0.18086222892E+04  0.90698814627E+03 0.  0.
         23    2    4    4    0    0 -0.10161161056E+03 -0.33854634845E+03  0.10238875925E+04  0.10868670351E+04  0.89418121467E+02 0.  0.
         23    2    4    4    0    0 -0.49604145173E+03 -0.49010949442E+03  0.16128218374E+03  0.72175525404E+03  0.93028305316E+02 0.  0.
          2    1    3    3  502    0  0.13181454299E+03  0.13116506447E+03  0.30505640738E+03  0.35726567085E+03  0.00000000000E+00 0. -1.
         -1    1    3    3    0  502  0.46583851930E+03  0.69749077841E+03  0.13337467920E+04  0.15755568594E+04  0.00000000000E+00 0.  1.
         11    1    5    5    0    0 -0.91915342043E+02 -0.33666603067E+03  0.10158765749E+04  0.10741497389E+04  0.00000000000E+00 0. -1.
        -11    1    5    5    0    0 -0.96962685199E+01 -0.18803177838E+01  0.80110176731E+01  0.12717296188E+02  0.00000000000E+00 0.  1.
          1    1    6    6  503    0 -0.45500080568E+03 -0.45228765246E+03  0.12084451009E+03  0.65283477952E+03  0.00000000000E+00 0. -1.
         -1    1    6    6    0  503 -0.41040646055E+02 -0.37821841965E+02  0.40437673655E+02  0.68920474526E+02  0.00000000000E+00 0.  1.
<mgrwt>
<rscale>  0 0.24542995E+04</rscale>
<asrwt>0</asrwt>
<pdfrwt beam="1">  1        2 0.70574759E-01 0.24542995E+04</pdfrwt>
<pdfrwt beam="2">  1       -1 0.50503212E+00 0.24542995E+04</pdfrwt>
<totfact> 0.95729407E-02</totfact>
</mgrwt>
</event>
<event>
12    6  0.1538774E-007  0.1490740E+04  0.7818608E-02  0.8890634E-01
         -1   -1    0    0    0  501 -0.00000000000E+00  0.00000000000E+00  0.39578078139E+03  0.39578078139E+03  0.00000000000E+00 0.  1.
          2   -1    0    0  501    0  0.00000000000E+00 -0.00000000000E+00 -0.14037486138E+04  0.14037486138E+04  0.00000000000E+00 0. -1.
         24    2    1    2    0    0  0.22089729214E+03  0.29130584401E+03 -0.60435536012E+03  0.71065429239E+03  0.78290571368E+02 0.  0.
        254    2    1    2    0    0 -0.22089729214E+03 -0.29130584401E+03 -0.40361247230E+03  0.10888751028E+04  0.94291635540E+03 0.  0.
         23    2    4    4    0    0  0.33337572207E+03 -0.19277989363E+03 -0.92626743158E+01  0.39567563866E+03  0.90387800287E+02 0.  0.
         23    2    4    4    0    0 -0.55427301422E+03 -0.98525950377E+02 -0.39434979798E+03  0.69319946414E+03  0.89932178499E+02 0.  0.
          4    1    3    3  502    0  0.73798894265E+02  0.11860092760E+03 -0.16501303229E+03  0.21619842194E+03  0.00000000000E+00 0. -1.
         -3    1    3    3    0  502  0.14709839788E+03  0.17270491641E+03 -0.43934232782E+03  0.49445587045E+03  0.00000000000E+00 0.  1.
         11    1    5    5    0    0  0.69478914010E+02 -0.76331526764E+02 -0.26978874154E+02  0.10668496202E+03  0.00000000000E+00 0. -1.
        -11    1    5    5    0    0  0.26389680806E+03 -0.11644836687E+03  0.17716199838E+02  0.28899067665E+03  0.00000000000E+00 0.  1.
          3    1    6    6  503    0 -0.37683298394E+03 -0.67379441924E+02 -0.21528608738E+03  0.43919379140E+03  0.00000000000E+00 0. -1.
         -3    1    6    6    0  503 -0.17744003028E+03 -0.31146508453E+02 -0.17906371060E+03  0.25400567274E+03  0.00000000000E+00 0.  1.
<mgrwt>
<rscale>  0 0.14907404E+04</rscale>
<asrwt>0</asrwt>
<pdfrwt beam="1">  1        2 0.21596132E+00 0.14907404E+04</pdfrwt>
<pdfrwt beam="2">  1       -1 0.60889352E-01 0.14907404E+04</pdfrwt>
<totfact> 0.43401066E+01</totfact>
</mgrwt>
</event>
<event>
12    6  0.1930830E-007  0.2157904E+04  0.7818608E-02  0.8536156E-01
         -1   -1    0    0    0  501 -0.00000000000E+00  0.00000000000E+00  0.61355033103E+03  0.61355033103E+03  0.00000000000E+00 0.  1.
          2   -1    0    0  501    0  0.00000000000E+00 -0.00000000000E+00 -0.18973793074E+04  0.18973793074E+04  0.00000000000E+00 0. -1.
         24    2    1    2    0    0  0.46865659448E+03  0.63213953200E+03 -0.10092226324E+04  0.12833323142E+04  0.95771161883E+02 0.  0.
        254    2    1    2    0    0 -0.46865659448E+03 -0.63213953200E+03 -0.27460634394E+03  0.12275973242E+04  0.90130303162E+03 0.  0.
         23    2    4    4    0    0 -0.48912389932E+03 -0.72075527083E+03  0.51483856712E+02  0.87712639120E+03  0.89273564573E+02 0.  0.
         23    2    4    4    0    0  0.20467304839E+02  0.88615738826E+02 -0.32609020065E+03  0.35047093301E+03  0.90682943198E+02 0.  0.
          4    1    3    3  502    0  0.40672766989E+03  0.53082960634E+03 -0.79930238625E+03  0.10421572689E+04  0.00000000000E+00 0. -1.
         -3    1    3    3    0  502  0.61928924594E+02  0.10130992566E+03 -0.20992024618E+03  0.24117504534E+03  0.00000000000E+00 0.  1.
         11    1    5    5    0    0 -0.45263085953E+03 -0.69249410504E+03  0.34743318004E+02  0.82802770404E+03  0.00000000000E+00 0.  1.
        -11    1    5    5    0    0 -0.36493039788E+02 -0.28261165786E+02  0.16740538708E+02  0.49098687159E+02  0.00000000000E+00 0. -1.
          3    1    6    6  503    0  0.23697277362E+02 -0.12664057965E+02 -0.77280825651E+02  0.81818490158E+02  0.00000000000E+00 0. -1.
         -3    1    6    6    0  503 -0.32299725228E+01  0.10127979679E+03 -0.24880937500E+03  0.26865244285E+03  0.00000000000E+00 0.  1.
<mgrwt>
<rscale>  0 0.21579043E+04</rscale>
<asrwt>0</asrwt>
<pdfrwt beam="1">  1        2 0.29190451E+00 0.21579043E+04</pdfrwt>
<pdfrwt beam="2">  1       -1 0.94392358E-01 0.21579043E+04</pdfrwt>
<totfact> 0.86417352E+00</totfact>
</mgrwt>
</event>
<event>
12    6  0.1538774E-007  0.1678619E+04  0.7818608E-02  0.8773654E-01
         -1   -1    0    0    0  501 -0.00000000000E+00  0.00000000000E+00  0.49377831554E+03  0.49377831554E+03  0.00000000000E+00 0.  1.
          2   -1    0    0  501    0  0.00000000000E+00 -0.00000000000E+00 -0.14266329703E+04  0.14266329703E+04  0.00000000000E+00 0. -1.
         24    2    1    2    0    0  0.35774179906E+02  0.59151009385E+03 -0.25410049386E+03  0.64968474665E+03  0.79744755229E+02 0.  0.
        254    2    1    2    0    0 -0.35774179906E+02 -0.59151009385E+03 -0.67875416086E+03  0.12707265391E+04  0.89603278028E+03 0.  0.
         23    2    4    4    0    0 -0.14394736301E+03 -0.72166601463E+03 -0.76045177045E+03  0.10621401645E+04  0.91280632693E+02 0.  0.
         23    2    4    4    0    0  0.10817318311E+03  0.13015592078E+03  0.81697609590E+02  0.20858637463E+03  0.90508425089E+02 0.  0.
          2    1    3    3  502    0 -0.17681531445E+02  0.19565765579E+03 -0.10923394653E+03  0.22478124899E+03  0.00000000000E+00 0. -1.
         -1    1    3    3    0  502  0.53455711351E+02  0.39585243806E+03 -0.14486654732E+03  0.42490349766E+03  0.00000000000E+00 0.  1.
         11    1    5    5    0    0 -0.19868946178E+02 -0.10744222856E+03 -0.16373242995E+03  0.19684236363E+03  0.00000000000E+00 0. -1.
        -11    1    5    5    0    0 -0.12407841684E+03 -0.61422378607E+03 -0.59671934050E+03  0.86529780089E+03  0.00000000000E+00 0.  1.
          4    1    6    6  503    0  0.38126046560E+02  0.69601393533E+01 -0.97013906381E+01  0.39951920435E+02  0.00000000000E+00 0. -1.
         -4    1    6    6    0  503  0.70047136547E+02  0.12319578143E+03  0.91399000229E+02  0.16863445420E+03  0.00000000000E+00 0.  1.
<mgrwt>
<rscale>  0 0.16786190E+04</rscale>
<asrwt>0</asrwt>
<pdfrwt beam="1">  1        2 0.21948199E+00 0.16786190E+04</pdfrwt>
<pdfrwt beam="2">  1       -1 0.75965896E-01 0.16786190E+04</pdfrwt>
<totfact> 0.26416613E+01</totfact>
</mgrwt>
</event>
<event>
12    6  0.1538774E-007  0.1868996E+04  0.7818608E-02  0.8670445E-01
          2   -1    0    0  501    0  0.00000000000E+00  0.00000000000E+00  0.74704780504E+03  0.74704780504E+03  0.00000000000E+00 0. -1.
         -1   -1    0    0    0  501 -0.00000000000E+00 -0.00000000000E+00 -0.11689839303E+04  0.11689839303E+04  0.00000000000E+00 0.  1.
         24    2    1    2    0    0  0.25917009781E+03 -0.64074280176E+03 -0.37159853809E+03  0.78903863418E+03  0.82316554258E+02 0.  0.
        254    2    1    2    0    0 -0.25917009781E+03  0.64074280176E+03 -0.50337587151E+02  0.11269931012E+04  0.88874017562E+03 0.  0.
         23    2    4    4    0    0  0.94317060540E+02  0.39856175011E+02  0.30862237112E+03  0.33785416159E+03  0.91724827374E+02 0.  0.
         23    2    4    4    0    0 -0.35348715835E+03  0.60088662675E+03 -0.35895995827E+03  0.78913893956E+03  0.88713612042E+02 0.  0.
          4    1    3    3  502    0  0.12611030929E+03 -0.40494252129E+03 -0.20426731321E+03  0.47075194201E+03  0.00000000000E+00 0. -1.
         -3    1    3    3    0  502  0.13305978852E+03 -0.23580028047E+03 -0.16733122488E+03  0.31828669217E+03  0.00000000000E+00 0.  1.
         11    1    5    5    0    0  0.96905109863E+02  0.31447127133E+01  0.18496124847E+03  0.20883283499E+03  0.00000000000E+00 0.  1.
        -11    1    5    5    0    0 -0.25880493233E+01  0.36711462298E+02  0.12366112265E+03  0.12902132660E+03  0.00000000000E+00 0. -1.
          1    1    6    6  503    0 -0.30889699953E+03  0.52007087681E+03 -0.34330143178E+03  0.69551919189E+03  0.00000000000E+00 0. -1.
         -1    1    6    6    0  503 -0.44590158818E+02  0.80815749942E+02 -0.15658526492E+02  0.93619747672E+02  0.00000000000E+00 0.  1.
<mgrwt>
<rscale>  0 0.18689964E+04</rscale>
<asrwt>0</asrwt>
<pdfrwt beam="1">  1        2 0.11493043E+00 0.18689964E+04</pdfrwt>
<pdfrwt beam="2">  1       -1 0.17984368E+00 0.18689964E+04</pdfrwt>
<totfact> 0.84287429E+00</totfact>
</mgrwt>
</event>
<event>
12    6  0.1538774E-007  0.1379581E+04  0.7818608E-02  0.8968733E-01
         -1   -1    0    0    0  501 -0.00000000000E+00  0.00000000000E+00  0.19217200197E+04  0.19217200197E+04  0.00000000000E+00 0.  1.
          2   -1    0    0  501    0  0.00000000000E+00 -0.00000000000E+00 -0.24759636542E+03  0.24759636542E+03  0.00000000000E+00 0. -1.
         24    2    1    2    0    0  0.38098695283E+03  0.52889228179E+02  0.39991285547E+03  0.56052979907E+03  0.79467194404E+02 0.  0.
        254    2    1    2    0    0 -0.38098695283E+03 -0.52889228179E+02  0.12742107988E+04  0.16087865861E+04  0.90367737106E+03 0.  0.
         23    2    4    4    0    0  0.12877521719E+03  0.25075189220E+03  0.77073020982E+03  0.82520549447E+03  0.86484008788E+02 0.  0.
         23    2    4    4    0    0 -0.50976217002E+03 -0.30364112038E+03  0.50348058901E+03  0.78358109159E+03  0.91930536944E+02 0.  0.
          2    1    3    3  502    0  0.62711565352E+01  0.11469016445E+02  0.28276806864E+02  0.31151942940E+02  0.00000000000E+00 0. -1.
         -1    1    3    3    0  502  0.37471579630E+03  0.41420211734E+02  0.37163604861E+03  0.52937785613E+03  0.00000000000E+00 0.  1.
         11    1    5    5    0    0  0.10781663489E+03  0.23719064249E+03  0.62152917159E+03  0.67393051480E+03  0.00000000000E+00 0.  1.
        -11    1    5    5    0    0  0.20958582301E+02  0.13561249710E+02  0.14920103823E+03  0.15127497967E+03  0.00000000000E+00 0. -1.
          3    1    6    6  503    0 -0.52843675704E+02 -0.19870700168E+01  0.46538631881E+02  0.70443216611E+02  0.00000000000E+00 0. -1.
         -3    1    6    6    0  503 -0.45691849432E+03 -0.30165405037E+03  0.45694195713E+03  0.71313787498E+03  0.00000000000E+00 0.  1.
<mgrwt>
<rscale>  0 0.13795809E+04</rscale>
<asrwt>0</asrwt>
<pdfrwt beam="1">  1        2 0.38091750E-01 0.13795809E+04</pdfrwt>
<pdfrwt beam="2">  1       -1 0.29564922E+00 0.13795809E+04</pdfrwt>
<totfact> 0.53748643E+00</totfact>
</mgrwt>
</event>
<event>
12    6  0.1538774E-007  0.1749600E+04  0.7818608E-02  0.8733571E-01
          2   -1    0    0  501    0  0.00000000000E+00  0.00000000000E+00  0.76804891441E+03  0.76804891441E+03  0.00000000000E+00 0. -1.
         -1   -1    0    0    0  501 -0.00000000000E+00 -0.00000000000E+00 -0.99638793361E+03  0.99638793361E+03  0.00000000000E+00 0.  1.
         24    2    1    2    0    0  0.27154544258E+02  0.42743164381E+03 -0.57097860177E+03  0.71832503214E+03  0.80864755699E+02 0.  0.
        254    2    1    2    0    0 -0.27154544258E+02 -0.42743164381E+03  0.34263958257E+03  0.10461118159E+04  0.89079339264E+03 0.  0.
         23    2    4    4    0    0 -0.86375436797E+02 -0.69145352399E+03  0.24259991085E+03  0.74337896101E+03  0.90492380974E+02 0.  0.
         23    2    4    4    0    0  0.59220892539E+02  0.26402188018E+03  0.10003967172E+03  0.30273285487E+03  0.91785500882E+02 0.  0.
          2    1    3    3  502    0 -0.18703772608E+02  0.55023894769E+02 -0.10546693454E+03  0.12041899513E+03  0.00000000000E+00 0. -1.
         -1    1    3    3    0  502  0.45858316866E+02  0.37240774904E+03 -0.46551166723E+03  0.59790603701E+03  0.00000000000E+00 0.  1.
         11    1    5    5    0    0 -0.25931907597E+02 -0.24002770770E+03  0.39264781080E+02  0.24459658078E+03  0.00000000000E+00 0.  1.
        -11    1    5    5    0    0 -0.60443529200E+02 -0.45142581629E+03  0.20333512977E+03  0.49878238023E+03  0.00000000000E+00 0. -1.
          4    1    6    6  503    0  0.10169934776E+02  0.35878060607E+02 -0.17786716522E+02  0.41316220675E+02  0.00000000000E+00 0. -1.
         -4    1    6    6    0  503  0.49050957763E+02  0.22814381957E+03  0.11782638824E+03  0.26141663419E+03  0.00000000000E+00 0.  1.
<mgrwt>
<rscale>  0 0.17495996E+04</rscale>
<asrwt>0</asrwt>
<pdfrwt beam="1">  1        2 0.11816137E+00 0.17495996E+04</pdfrwt>
<pdfrwt beam="2">  1       -1 0.15329045E+00 0.17495996E+04</pdfrwt>
<totfact> 0.12941276E+01</totfact>
</mgrwt>
</event>
<event>
12    6  0.1538774E-007  0.1289327E+04  0.7818608E-02  0.9038072E-01
          2   -1    0    0  501    0  0.00000000000E+00  0.00000000000E+00  0.16586143889E+04  0.16586143889E+04  0.00000000000E+00 0. -1.
         -1   -1    0    0    0  501 -0.00000000000E+00 -0.00000000000E+00 -0.25056505400E+03  0.25056505400E+03  0.00000000000E+00 0.  1.
         24    2    1    2    0    0 -0.32582553841E+03 -0.76804126343E+02  0.31055167840E+03  0.46245614851E+03  0.73226969334E+02 0.  0.
        254    2    1    2    0    0  0.32582553841E+03  0.76804126343E+02  0.10974976565E+04  0.14467232944E+04  0.88116174973E+03 0.  0.
         23    2    4    4    0    0  0.55617444271E+03 -0.32510273478E+02  0.10162612770E+04  0.11630406179E+04  0.97414409537E+02 0.  0.
         23    2    4    4    0    0 -0.23034890430E+03  0.10931439982E+03  0.81236379444E+02  0.28368267642E+03  0.94160797768E+02 0.  0.
          2    1    3    3  502    0 -0.21584576950E+03 -0.60534466758E+02  0.25026559416E+03  0.33598613884E+03  0.00000000000E+00 0. -1.
         -1    1    3    3    0  502 -0.10997976891E+03 -0.16269659585E+02  0.60286084243E+02  0.12647000967E+03  0.00000000000E+00 0.  1.
         11    1    5    5    0    0  0.18362974164E+03  0.32848525347E+02  0.30711701798E+03  0.35933239537E+03  0.00000000000E+00 0.  1.
        -11    1    5    5    0    0  0.37254470108E+03 -0.65358798825E+02  0.70914425905E+03  0.80370822257E+03  0.00000000000E+00 0. -1.
          1    1    6    6  503    0 -0.51608591879E+02  0.67827329306E+02  0.62432132997E+01  0.85457422550E+02  0.00000000000E+00 0. -1.
         -1    1    6    6    0  503 -0.17874031242E+03  0.41487070514E+02  0.74993166145E+02  0.19822525387E+03  0.00000000000E+00 0.  1.
<mgrwt>
<rscale>  0 0.12893267E+04</rscale>
<asrwt>0</asrwt>
<pdfrwt beam="1">  1        2 0.25517144E+00 0.12893267E+04</pdfrwt>
<pdfrwt beam="2">  1       -1 0.38548471E-01 0.12893267E+04</pdfrwt>
<totfact> 0.75300073E+01</totfact>
</mgrwt>
</event>
<event>
12    6  0.1538774E-007  0.1397423E+04  0.7818608E-02  0.8955686E-01
         -1   -1    0    0    0  501 -0.00000000000E+00  0.00000000000E+00  0.47472403769E+03  0.47472403769E+03  0.00000000000E+00 0.  1.
          2   -1    0    0  501    0  0.00000000000E+00 -0.00000000000E+00 -0.10283817252E+04  0.10283817252E+04  0.00000000000E+00 0. -1.
         24    2    1    2    0    0 -0.12950776760E+03 -0.35264479785E+03 -0.32318236356E+03  0.50162347875E+03  0.77773125204E+02 0.  0.
        254    2    1    2    0    0  0.12950776760E+03  0.35264479785E+03 -0.23047532396E+03  0.10014822841E+04  0.89928709275E+03 0.  0.
         23    2    4    4    0    0 -0.30181869768E+03  0.66494668300E+02 -0.33391530065E+03  0.46360260212E+03  0.88948735214E+02 0.  0.
         23    2    4    4    0    0  0.43132646528E+03  0.28615012955E+03  0.10343997669E+03  0.53787968203E+03  0.10339394217E+03 0.  0.
          4    1    3    3  502    0 -0.85459326961E+02 -0.13597720951E+03 -0.16109782533E+03  0.22747660846E+03  0.00000000000E+00 0. -1.
         -3    1    3    3    0  502 -0.44048440636E+02 -0.21666758834E+03 -0.16208453823E+03  0.27414687030E+03  0.00000000000E+00 0.  1.
         11    1    5    5    0    0 -0.10403314588E+03  0.48023312172E+02 -0.17517659453E+03  0.20932265340E+03  0.00000000000E+00 0. -1.
        -11    1    5    5    0    0 -0.19778555181E+03  0.18471356129E+02 -0.15873870612E+03  0.25427994872E+03  0.00000000000E+00 0.  1.
          4    1    6    6  503    0  0.25337976189E+03  0.16229767543E+03  0.11157543141E+03  0.32092197818E+03  0.00000000000E+00 0. -1.
         -4    1    6    6    0  503  0.17794670339E+03  0.12385245412E+03 -0.81354547205E+01  0.21695770385E+03  0.00000000000E+00 0.  1.
<mgrwt>
<rscale>  0 0.13974227E+04</rscale>
<asrwt>0</asrwt>
<pdfrwt beam="1">  1        2 0.15821257E+00 0.13974227E+04</pdfrwt>
<pdfrwt beam="2">  1       -1 0.73034469E-01 0.13974227E+04</pdfrwt>
<totfact> 0.50708940E+01</totfact>
</mgrwt>
</event>
<event>
12    6  0.1538774E-007  0.1334859E+04  0.7818608E-02  0.9002369E-01
          2   -1    0    0  501    0  0.00000000000E+00  0.00000000000E+00  0.13771462422E+04  0.13771462422E+04  0.00000000000E+00 0. -1.
         -1   -1    0    0    0  501 -0.00000000000E+00 -0.00000000000E+00 -0.32346771363E+03  0.32346771363E+03  0.00000000000E+00 0.  1.
         24    2    1    2    0    0 -0.21706442106E+03  0.28404136078E+02 -0.72521241040E+02  0.24372440761E+03  0.78857457673E+02 0.  0.
        254    2    1    2    0    0  0.21706442106E+03 -0.28404136078E+02  0.11261997697E+04  0.14568895483E+04  0.89792955005E+03 0.  0.
         23    2    4    4    0    0 -0.30098258592E+03  0.17367495706E+03  0.43569704801E+03  0.56543398002E+03  0.95551872727E+02 0.  0.
         23    2    4    4    0    0  0.51804700697E+03 -0.20207909314E+03  0.69050272164E+03  0.89145556824E+03  0.93222101722E+02 0.  0.
          2    1    3    3  502    0 -0.82803466369E+02 -0.26457463207E+02 -0.17957193715E+02  0.88763011486E+02  0.00000000000E+00 0. -1.
         -1    1    3    3    0  502 -0.13426095469E+03  0.54861599285E+02 -0.54564047325E+02  0.15496139613E+03  0.00000000000E+00 0.  1.
         11    1    5    5    0    0 -0.17826727316E+03  0.12975500958E+03  0.33354562251E+03  0.39983529795E+03  0.00000000000E+00 0.  1.
        -11    1    5    5    0    0 -0.12271531276E+03  0.43919947477E+02  0.10215142551E+03  0.16559868208E+03  0.00000000000E+00 0. -1.
          2    1    6    6  503    0  0.15095880473E+03 -0.76863479810E+02  0.27557932372E+03  0.32348186798E+03  0.00000000000E+00 0. -1.
         -2    1    6    6    0  503  0.36708820224E+03 -0.12521561333E+03  0.41492339792E+03  0.56797370026E+03  0.00000000000E+00 0.  1.
<mgrwt>
<rscale>  0 0.13348593E+04</rscale>
<asrwt>0</asrwt>
<pdfrwt beam="1">  1        2 0.21186865E+00 0.13348593E+04</pdfrwt>
<pdfrwt beam="2">  1       -1 0.49764264E-01 0.13348593E+04</pdfrwt>
<totfact> 0.67303955E+01</totfact>
</mgrwt>
</event>
<event>
12    6  0.1538774E-007  0.1235157E+04  0.7818608E-02  0.9082629E-01
          2   -1    0    0  501    0  0.00000000000E+00  0.00000000000E+00  0.37328301845E+03  0.37328301845E+03  0.00000000000E+00 0. -1.
         -1   -1    0    0    0  501 -0.00000000000E+00 -0.00000000000E+00 -0.10217527357E+04  0.10217527357E+04  0.00000000000E+00 0.  1.
         24    2    1    2    0    0  0.20721383367E+03 -0.64711173039E+02  0.39476759210E+02  0.23505733856E+03  0.81045845734E+02 0.  0.
        254    2    1    2    0    0 -0.20721383367E+03  0.64711173039E+02 -0.68794647641E+03  0.11599784155E+04  0.90838013043E+03 0.  0.
         23    2    4    4    0    0 -0.35921631632E+03  0.32038338750E+03 -0.69480028779E+03  0.85008375451E+03  0.90626005557E+02 0.  0.
         23    2    4    4    0    0  0.15200248265E+03 -0.25567221446E+03  0.68538113769E+01  0.30989466104E+03  0.86687312985E+02 0.  0.
          2    1    3    3  502    0  0.19569366268E+03 -0.47966272225E+02  0.55708862688E+02  0.20904604819E+03  0.00000000000E+00 0. -1.
         -1    1    3    3    0  502  0.11520170992E+02 -0.16744900814E+02 -0.16232103478E+02  0.26011290362E+02  0.00000000000E+00 0.  1.
         11    1    5    5    0    0 -0.29554790496E+03  0.22737765258E+03 -0.57735092459E+03  0.68730142670E+03  0.00000000000E+00 0.  1.
        -11    1    5    5    0    0 -0.63668411360E+02  0.93005734918E+02 -0.11744936319E+03  0.16278232781E+03  0.00000000000E+00 0. -1.
          4    1    6    6  503    0  0.79165379835E+02 -0.20698620213E+03 -0.37824339192E+01  0.22164104323E+03  0.00000000000E+00 0. -1.
         -4    1    6    6    0  503  0.72837102812E+02 -0.48686012326E+02  0.10636245296E+02  0.88253617808E+02  0.00000000000E+00 0.  1.
<mgrwt>
<rscale>  0 0.12351566E+04</rscale>
<asrwt>0</asrwt>
<pdfrwt beam="1">  1        2 0.57428157E-01 0.12351566E+04</pdfrwt>
<pdfrwt beam="2">  1       -1 0.15719273E+00 0.12351566E+04</pdfrwt>
<totfact> 0.29741879E+01</totfact>
</mgrwt>
</event>
<event>
12    6  0.1538774E-007  0.1531859E+04  0.7818608E-02  0.8863539E-01
         -1   -1    0    0    0  501 -0.00000000000E+00  0.00000000000E+00  0.42742577169E+03  0.42742577169E+03  0.00000000000E+00 0.  1.
          2   -1    0    0  501    0  0.00000000000E+00 -0.00000000000E+00 -0.13725142070E+04  0.13725142070E+04  0.00000000000E+00 0. -1.
         24    2    1    2    0    0 -0.45855297020E+03  0.20535071743E+03 -0.34551368157E+03  0.61419289448E+03  0.73576245151E+02 0.  0.
        254    2    1    2    0    0  0.45855297020E+03 -0.20535071743E+03 -0.59957475377E+03  0.11857470842E+04  0.89110410098E+03 0.  0.
         23    2    4    4    0    0  0.21585244982E+03  0.20751833806E+03 -0.62366592595E+03  0.69769688783E+03  0.90363816682E+02 0.  0.
         23    2    4    4    0    0  0.24270052038E+03 -0.41286905549E+03  0.24091172187E+02  0.48805019641E+03  0.90819656800E+02 0.  0.
          2    1    3    3  502    0 -0.28269600042E+03  0.14817517147E+03 -0.25378283402E+03  0.40777277611E+03  0.00000000000E+00 0. -1.
         -1    1    3    3    0  502 -0.17585696978E+03  0.57175545965E+02 -0.91730847550E+02  0.20642011837E+03  0.00000000000E+00 0.  1.
         11    1    5    5    0    0  0.17976454255E+03  0.20436602628E+03 -0.58190995635E+03  0.64241727931E+03  0.00000000000E+00 0.  1.
        -11    1    5    5    0    0  0.36087907264E+02  0.31523117803E+01 -0.41755969600E+02  0.55279608515E+02  0.00000000000E+00 0. -1.
          3    1    6    6  503    0  0.61162759623E+02 -0.44139520880E+02  0.15287281406E+02  0.76960258841E+02  0.00000000000E+00 0. -1.
         -3    1    6    6    0  503  0.18153776076E+03 -0.36872953461E+03  0.88038907815E+01  0.41108993756E+03  0.00000000000E+00 0.  1.
<mgrwt>
<rscale>  0 0.15318589E+04</rscale>
<asrwt>0</asrwt>
<pdfrwt beam="1">  1        2 0.21115603E+00 0.15318589E+04</pdfrwt>
<pdfrwt beam="2">  1       -1 0.65757810E-01 0.15318589E+04</pdfrwt>
<totfact> 0.38644753E+01</totfact>
</mgrwt>
</event>
<event>
12    6  0.1538774E-007  0.3282251E+04  0.7818608E-02  0.8167426E-01
         -1   -1    0    0    0  501 -0.00000000000E+00  0.00000000000E+00  0.11893449793E+04  0.11893449793E+04  0.00000000000E+00 0.  1.
          2   -1    0    0  501    0  0.00000000000E+00 -0.00000000000E+00 -0.22645178498E+04  0.22645178498E+04  0.00000000000E+00 0. -1.
         24    2    1    2    0    0 -0.36774771140E+03 -0.27727503171E+03  0.10253251186E+04  0.11273562573E+04  0.86722025221E+02 0.  0.
        254    2    1    2    0    0  0.36774771140E+03  0.27727503171E+03 -0.21004979890E+04  0.23265065718E+04  0.88793085549E+03 0.  0.
         23    2    4    4    0    0  0.58163765731E+03  0.32511948506E+03 -0.18945015015E+04  0.20102666958E+04  0.89616990531E+02 0.  0.
         23    2    4    4    0    0 -0.21388994591E+03 -0.47844453350E+02 -0.20599648754E+03  0.31623987600E+03  0.97647865406E+02 0.  0.
          2    1    3    3  502    0 -0.25710080555E+03 -0.19917355055E+03  0.62191333919E+03  0.70181701954E+03  0.00000000000E+00 0. -1.
         -1    1    3    3    0  502 -0.11064690585E+03 -0.78101481161E+02  0.40341177937E+03  0.42553923775E+03  0.00000000000E+00 0.  1.
         11    1    5    5    0    0  0.45550735226E+03  0.29228809588E+03 -0.14870875101E+04  0.15825133623E+04  0.00000000000E+00 0. -1.
        -11    1    5    5    0    0  0.12613030505E+03  0.32831389185E+02 -0.40741399138E+03  0.42775333352E+03  0.00000000000E+00 0.  1.
          2    1    6    6  503    0 -0.67875928466E+02 -0.12596108688E+02 -0.13162052622E+03  0.14862626464E+03  0.00000000000E+00 0. -1.
         -2    1    6    6    0  503 -0.14601401745E+03 -0.35248344663E+02 -0.74375961323E+02  0.16761361136E+03  0.00000000000E+00 0.  1.
<mgrwt>
<rscale>  0 0.32822510E+04</rscale>
<asrwt>0</asrwt>
<pdfrwt beam="1">  1        2 0.34838736E+00 0.32822510E+04</pdfrwt>
<pdfrwt beam="2">  1       -1 0.18297615E+00 0.32822510E+04</pdfrwt>
<totfact> 0.89462212E-01</totfact>
</mgrwt>
</event>
<event>
12    6  0.1538774E-007  0.1390507E+04  0.7818608E-02  0.8960719E-01
          2   -1    0    0  501    0  0.00000000000E+00  0.00000000000E+00  0.14512906164E+04  0.14512906164E+04  0.00000000000E+00 0. -1.
         -1   -1    0    0    0  501 -0.00000000000E+00 -0.00000000000E+00 -0.33306706462E+03  0.33306706462E+03  0.00000000000E+00 0.  1.
         24    2    1    2    0    0  0.36845473232E+03  0.10598758123E+03  0.47895841224E+03  0.61912931108E+03  0.83232722192E+02 0.  0.
        254    2    1    2    0    0 -0.36845473232E+03 -0.10598758123E+03  0.63926513956E+03  0.11652283700E+04  0.89560313663E+03 0.  0.
         23    2    4    4    0    0 -0.55023131217E+03  0.29649063823E+02  0.91708001164E+02  0.56563826892E+03  0.88897299823E+02 0.  0.
         23    2    4    4    0    0  0.18177657985E+03 -0.13563664505E+03  0.54755713840E+03  0.59959010103E+03  0.90826455292E+02 0.  0.
          4    1    3    3  502    0  0.41522561433E+02  0.30772562157E+02  0.10312466568E+03  0.11535064093E+03  0.00000000000E+00 0. -1.
         -3    1    3    3    0  502  0.32693217089E+03  0.75215019069E+02  0.37583374655E+03  0.50377867016E+03  0.00000000000E+00 0.  1.
         11    1    5    5    0    0 -0.34902600147E+03  0.77000969065E+01  0.15784098098E+02  0.34946756495E+03  0.00000000000E+00 0. -1.
        -11    1    5    5    0    0 -0.20120531069E+03  0.21948966917E+02  0.75923903066E+02  0.21617070398E+03  0.00000000000E+00 0.  1.
          2    1    6    6  503    0  0.89729933760E+01 -0.25864482572E+02  0.20595548652E+02  0.34258760823E+02  0.00000000000E+00 0.  1.
         -2    1    6    6    0  503  0.17280358647E+03 -0.10977216248E+03  0.52696158975E+03  0.56533134021E+03  0.00000000000E+00 0. -1.
<mgrwt>
<rscale>  0 0.13905065E+04</rscale>
<asrwt>0</asrwt>
<pdfrwt beam="1">  1        2 0.22327548E+00 0.13905065E+04</pdfrwt>
<pdfrwt beam="2">  1       -1 0.51241088E-01 0.13905065E+04</pdfrwt>
<totfact> 0.57497242E+01</totfact>
</mgrwt>
</event>
<event>
12    6  0.1538774E-007  0.1144047E+04  0.7818608E-02  0.9163293E-01
         -1   -1    0    0    0  501 -0.00000000000E+00  0.00000000000E+00  0.76931424495E+02  0.76931424495E+02  0.00000000000E+00 0.  1.
          2   -1    0    0  501    0  0.00000000000E+00 -0.00000000000E+00 -0.42532801787E+04  0.42532801787E+04  0.00000000000E+00 0. -1.
         24    2    1    2    0    0  0.18367212617E+03 -0.32812818538E+02 -0.56314873263E+03  0.59796687516E+03  0.74938359555E+02 0.  0.
        254    2    1    2    0    0 -0.18367212617E+03  0.32812818538E+02 -0.36132000216E+04  0.37322447281E+04  0.91631009111E+03 0.  0.
         23    2    4    4    0    0 -0.14541096168E+03 -0.38863731837E+03 -0.25361355019E+04  0.25714314169E+04  0.89960739816E+02 0.  0.
         23    2    4    4    0    0 -0.38261164485E+02  0.42145013691E+03 -0.10770645197E+04  0.11608133111E+04  0.91298571794E+02 0.  0.
          4    1    3    3  502    0  0.79616898737E+02 -0.86914947029E+01 -0.35603150656E+03  0.36492852219E+03  0.00000000000E+00 0. -1.
         -3    1    3    3    0  502  0.10405522743E+03 -0.24121323835E+02 -0.20711722607E+03  0.23303835297E+03  0.00000000000E+00 0.  1.
         11    1    5    5    0    0 -0.40303017024E+02 -0.10177803146E+03 -0.93713431091E+03  0.94350613010E+03  0.00000000000E+00 0.  1.
        -11    1    5    5    0    0 -0.10510794466E+03 -0.28685928691E+03 -0.15990011910E+04  0.16279252868E+04  0.00000000000E+00 0. -1.
          3    1    6    6  503    0 -0.19929850141E+02  0.32225697432E+03 -0.91087597296E+03  0.96640664036E+03  0.00000000000E+00 0. -1.
         -3    1    6    6    0  503 -0.18331314344E+02  0.99193162586E+02 -0.16618854671E+03  0.19440667078E+03  0.00000000000E+00 0.  1.
<mgrwt>
<rscale>  0 0.11440470E+04</rscale>
<asrwt>0</asrwt>
<pdfrwt beam="1">  1        2 0.65435105E+00 0.11440470E+04</pdfrwt>
<pdfrwt beam="2">  1       -1 0.11835599E-01 0.11440470E+04</pdfrwt>
<totfact> 0.11984333E+01</totfact>
</mgrwt>
</event>
<event>
12    6  0.1538774E-007  0.3168804E+04  0.7818608E-02  0.8197105E-01
          2   -1    0    0  501    0  0.00000000000E+00  0.00000000000E+00  0.21809327422E+04  0.21809327422E+04  0.00000000000E+00 0. -1.
         -1   -1    0    0    0  501 -0.00000000000E+00 -0.00000000000E+00 -0.11510347650E+04  0.11510347650E+04  0.00000000000E+00 0.  1.
         24    2    1    2    0    0 -0.13574883139E+04  0.17606979129E+03 -0.44940747260E+02  0.13718947815E+04  0.79375858040E+02 0.  0.
        254    2    1    2    0    0  0.13574883139E+04 -0.17606979129E+03  0.10748387244E+04  0.19600727257E+04  0.90157180103E+03 0.  0.
         23    2    4    4    0    0  0.96743545209E+02  0.25778670221E+03  0.29009423766E+03  0.41033490421E+03  0.91688437212E+02 0.  0.
         23    2    4    4    0    0  0.12607447687E+04 -0.43385649349E+03  0.78474448678E+03  0.15497378214E+04  0.90302695704E+02 0.  0.
          4    1    3    3  502    0 -0.54433989176E+03  0.10457739754E+03  0.13835570842E+01  0.55429618803E+03  0.00000000000E+00 0. -1.
         -3    1    3    3    0  502 -0.81314842218E+03  0.71492393749E+02 -0.46324304344E+02  0.81759859346E+03  0.00000000000E+00 0.  1.
         11    1    5    5    0    0  0.32336057456E+02  0.53682057064E+02  0.12571396209E+03  0.14046844530E+03  0.00000000000E+00 0.  1.
        -11    1    5    5    0    0  0.64407487753E+02  0.20410464514E+03  0.16438027557E+03  0.26986645891E+03  0.00000000000E+00 0. -1.
          3    1    6    6  503    0  0.38944317405E+03 -0.11975299898E+03  0.28601904669E+03  0.49780886056E+03  0.00000000000E+00 0. -1.
         -3    1    6    6    0  503  0.87130159468E+03 -0.31410349451E+03  0.49872544008E+03  0.10519289609E+04  0.00000000000E+00 0.  1.
<mgrwt>
<rscale>  0 0.31688038E+04</rscale>
<asrwt>0</asrwt>
<pdfrwt beam="1">  1        2 0.33552811E+00 0.31688038E+04</pdfrwt>
<pdfrwt beam="2">  1       -1 0.17708227E+00 0.31688038E+04</pdfrwt>
<totfact> 0.11098856E+00</totfact>
</mgrwt>
</event>
<event>
12    6  0.1538774E-007  0.1250107E+04  0.7818608E-02  0.9070094E-01
         -1   -1    0    0    0  501 -0.00000000000E+00  0.00000000000E+00  0.23717986893E+03  0.23717986893E+03  0.00000000000E+00 0.  1.
          2   -1    0    0  501    0  0.00000000000E+00 -0.00000000000E+00 -0.16472395563E+04  0.16472395563E+04  0.00000000000E+00 0. -1.
         24    2    1    2    0    0  0.23336158424E+03  0.18763828881E+03 -0.28825366819E+03  0.42324661356E+03  0.79885932689E+02 0.  0.
        254    2    1    2    0    0 -0.23336158424E+03 -0.18763828881E+03 -0.11218060192E+04  0.14611728117E+04  0.88708031455E+03 0.  0.
         23    2    4    4    0    0 -0.46827102929E+03 -0.38393685010E+03 -0.80155141647E+03  0.10087582550E+04  0.91778440304E+02 0.  0.
         23    2    4    4    0    0  0.23490944506E+03  0.19629856128E+03 -0.32025460274E+03  0.45241455667E+03  0.91653412190E+02 0.  0.
          4    1    3    3  502    0  0.46581319924E+02  0.25108617480E+02 -0.96594044554E+02  0.11013932759E+03  0.00000000000E+00 0. -1.
         -3    1    3    3    0  502  0.18678026431E+03  0.16252967133E+03 -0.19165962364E+03  0.31310728598E+03  0.00000000000E+00 0.  1.
         11    1    5    5    0    0 -0.27240298582E+03 -0.18054083980E+03 -0.48175028341E+03  0.58213548001E+03  0.00000000000E+00 0. -1.
        -11    1    5    5    0    0 -0.19586804347E+03 -0.20339601030E+03 -0.31980113306E+03  0.42662277502E+03  0.00000000000E+00 0.  1.
          1    1    6    6  503    0  0.14673704530E+03  0.64211661640E+02 -0.17433721251E+03  0.23674535184E+03  0.00000000000E+00 0. -1.
         -1    1    6    6    0  503  0.88172399759E+02  0.13208689964E+03 -0.14591739024E+03  0.21566920483E+03  0.00000000000E+00 0.  1.
<mgrwt>
<rscale>  0 0.12501073E+04</rscale>
<asrwt>0</asrwt>
<pdfrwt beam="1">  1        2 0.25342147E+00 0.12501073E+04</pdfrwt>
<pdfrwt beam="2">  1       -1 0.36489211E-01 0.12501073E+04</pdfrwt>
<totfact> 0.84628823E+01</totfact>
</mgrwt>
</event>
<event>
12    6  0.1538774E-007  0.1399698E+04  0.7818608E-02  0.8954037E-01
          2   -1    0    0  501    0  0.00000000000E+00  0.00000000000E+00  0.78552499232E+03  0.78552499232E+03  0.00000000000E+00 0. -1.
         -1   -1    0    0    0  501 -0.00000000000E+00 -0.00000000000E+00 -0.62351776939E+03  0.62351776939E+03  0.00000000000E+00 0.  1.
         24    2    1    2    0    0 -0.27147231216E+03 -0.13763283318E+03 -0.22686249519E+03  0.38802221571E+03  0.80340743838E+02 0.  0.
        254    2    1    2    0    0  0.27147231216E+03  0.13763283318E+03  0.38886971812E+03  0.10210205460E+04  0.89365725233E+03 0.  0.
         23    2    4    4    0    0 -0.10777979563E+03 -0.26956633985E+03  0.33891883394E+03  0.45530864592E+03  0.90318830391E+02 0.  0.
         23    2    4    4    0    0  0.37925210779E+03  0.40719917303E+03  0.49950884189E+02  0.56571190008E+03  0.88834313630E+02 0.  0.
          2    1    3    3  502    0 -0.69009561941E+02 -0.72146166167E+02 -0.94217299696E+02  0.13727450052E+03  0.00000000000E+00 0. -1.
         -1    1    3    3    0  502 -0.20246275022E+03 -0.65486667014E+02 -0.13264519550E+03  0.25074771519E+03  0.00000000000E+00 0.  1.
         11    1    5    5    0    0 -0.20956922599E+02 -0.10300657760E+03  0.66407853113E+02  0.12433644112E+03  0.00000000000E+00 0.  1.
        -11    1    5    5    0    0 -0.86822873032E+02 -0.16655976225E+03  0.27251098082E+03  0.33097220480E+03  0.00000000000E+00 0. -1.
          3    1    6    6  503    0  0.92465042197E+02  0.14124860955E+03 -0.13976694350E+02  0.16939982796E+03  0.00000000000E+00 0. -1.
         -3    1    6    6    0  503  0.28678706560E+03  0.26595056348E+03  0.63927578539E+02  0.39631207212E+03  0.00000000000E+00 0.  1.
<mgrwt>
<rscale>  0 0.13996982E+04</rscale>
<asrwt>0</asrwt>
<pdfrwt beam="1">  1        2 0.12085000E+00 0.13996982E+04</pdfrwt>
<pdfrwt beam="2">  1       -1 0.95925810E-01 0.13996982E+04</pdfrwt>
<totfact> 0.41106002E+01</totfact>
</mgrwt>
</event>
<event>
12    6  0.1538774E-007  0.2156782E+04  0.7818608E-02  0.8536635E-01
         -1   -1    0    0    0  501 -0.00000000000E+00  0.00000000000E+00  0.12784226357E+04  0.12784226357E+04  0.00000000000E+00 0.  1.
          2   -1    0    0  501    0  0.00000000000E+00 -0.00000000000E+00 -0.90965760084E+03  0.90965760084E+03  0.00000000000E+00 0. -1.
         24    2    1    2    0    0 -0.15282719766E+03  0.86508036361E+03  0.45460490761E+02  0.88484747814E+03  0.95750798931E+02 0.  0.
        254    2    1    2    0    0  0.15282719766E+03 -0.86508036361E+03  0.32330454415E+03  0.13032327585E+04  0.90673568728E+03 0.  0.
         23    2    4    4    0    0  0.22674554755E+03 -0.43342918596E+03 -0.26504746413E+03  0.56370723829E+03  0.90781549217E+02 0.  0.
         23    2    4    4    0    0 -0.73918349895E+02 -0.43165117765E+03  0.58835200828E+03  0.73952552017E+03  0.94621602803E+02 0.  0.
          2    1    3    3  502    0 -0.10525526535E+03  0.36411279385E+03  0.44509763898E+02  0.38162536159E+03  0.00000000000E+00 0. -1.
         -1    1    3    3    0  502 -0.47571932302E+02  0.50096756977E+03  0.95072686335E+00  0.50322211655E+03  0.00000000000E+00 0.  1.
         11    1    5    5    0    0  0.16298462539E+03 -0.37972981717E+03 -0.23304659046E+03  0.47441483481E+03  0.00000000000E+00 0.  1.
        -11    1    5    5    0    0  0.63760922160E+02 -0.53699368794E+02 -0.32000873668E+02  0.89292403479E+02  0.00000000000E+00 0. -1.
          2    1    6    6  503    0 -0.81335173942E+02 -0.19516485748E+03  0.27640763999E+03  0.34800275223E+03  0.00000000000E+00 0. -1.
         -2    1    6    6    0  503  0.74168240469E+01 -0.23648632017E+03  0.31194436829E+03  0.39152276794E+03  0.00000000000E+00 0.  1.
<mgrwt>
<rscale>  0 0.21567817E+04</rscale>
<asrwt>0</asrwt>
<pdfrwt beam="1">  1        2 0.13994732E+00 0.21567817E+04</pdfrwt>
<pdfrwt beam="2">  1       -1 0.19668041E+00 0.21567817E+04</pdfrwt>
<totfact> 0.47958729E+00</totfact>
</mgrwt>
</event>
<event>
12    6  0.1538774E-007  0.2881473E+04  0.7818608E-02  0.8278411E-01
          2   -1    0    0  501    0  0.00000000000E+00  0.00000000000E+00  0.11328128370E+04  0.11328128370E+04  0.00000000000E+00 0. -1.
         -1   -1    0    0    0  501 -0.00000000000E+00 -0.00000000000E+00 -0.18323601916E+04  0.18323601916E+04  0.00000000000E+00 0.  1.
         24    2    1    2    0    0  0.29447797499E+03 -0.12492711001E+04 -0.11227111462E+03  0.12908831797E+04  0.79868774903E+02 0.  0.
        254    2    1    2    0    0 -0.29447797499E+03  0.12492711001E+04 -0.58727623993E+03  0.16742898489E+04  0.90053181888E+03 0.  0.
         23    2    4    4    0    0 -0.13029462674E+03  0.12850491016E+04 -0.30021910653E+03  0.13291251917E+04  0.90079852368E+02 0.  0.
         23    2    4    4    0    0 -0.16418334825E+03 -0.35778001558E+02 -0.28705713340E+03  0.34516465721E+03  0.92198728385E+02 0.  0.
          4    1    3    3  502    0  0.29290725344E+03 -0.11545294418E+04 -0.99168388000E+02  0.11952268656E+04  0.00000000000E+00 0. -1.
         -3    1    3    3    0  502  0.15707215403E+01 -0.94741658253E+02 -0.13102726619E+02  0.95656314060E+02  0.00000000000E+00 0.  1.
         11    1    5    5    0    0 -0.12296742110E+03  0.11671403222E+04 -0.24583186295E+03  0.11990708166E+04  0.00000000000E+00 0. -1.
        -11    1    5    5    0    0 -0.73272056314E+01  0.11790877947E+03 -0.54387243582E+02  0.13005437511E+03  0.00000000000E+00 0.  1.
          1    1    6    6  503    0 -0.11451657953E+03 -0.67156378355E+02 -0.19230534844E+03  0.23367792617E+03  0.00000000000E+00 0. -1.
         -1    1    6    6    0  503 -0.49666768718E+02  0.31378376797E+02 -0.94751784961E+02  0.11148673104E+03  0.00000000000E+00 0.  1.
<mgrwt>
<rscale>  0 0.28814726E+04</rscale>
<asrwt>0</asrwt>
<pdfrwt beam="1">  1        2 0.17427890E+00 0.28814726E+04</pdfrwt>
<pdfrwt beam="2">  1       -1 0.28190157E+00 0.28814726E+04</pdfrwt>
<totfact> 0.88616724E-01</totfact>
</mgrwt>
</event>
<event>
12    6  0.1538774E-007  0.1281219E+04  0.7818608E-02  0.9044593E-01
         -1   -1    0    0    0  501 -0.00000000000E+00  0.00000000000E+00  0.55876065738E+03  0.55876065738E+03  0.00000000000E+00 0.  1.
          2   -1    0    0  501    0  0.00000000000E+00 -0.00000000000E+00 -0.73444779999E+03  0.73444779999E+03  0.00000000000E+00 0. -1.
         24    2    1    2    0    0  0.25733664005E+03 -0.18693876298E+03  0.12665729049E+01  0.32795474821E+03  0.79902848833E+02 0.  0.
        254    2    1    2    0    0 -0.25733664005E+03  0.18693876298E+03 -0.17695371552E+03  0.96525370916E+03  0.89399880212E+03 0.  0.
         23    2    4    4    0    0 -0.38669586508E+03  0.11264142759E+03 -0.46931174765E+03  0.62486240019E+03  0.89318079987E+02 0.  0.
         23    2    4    4    0    0  0.12935922503E+03  0.74297335386E+02  0.29235803213E+03  0.34039130897E+03  0.90217077792E+02 0.  0.
          2    1    3    3  502    0  0.18589976828E+03 -0.12460234862E+03 -0.34860277938E+02  0.22649438868E+03  0.00000000000E+00 0. -1.
         -1    1    3    3    0  502  0.71436871770E+02 -0.62336414362E+02  0.36126850843E+02  0.10146035953E+03  0.00000000000E+00 0.  1.
         11    1    5    5    0    0 -0.38433960910E+03  0.97227651976E+02 -0.44502724480E+03  0.59600285238E+03  0.00000000000E+00 0.  1.
        -11    1    5    5    0    0 -0.23562559733E+01  0.15413775617E+02 -0.24284502853E+02  0.28859547811E+02  0.00000000000E+00 0. -1.
          4    1    6    6  503    0  0.45546785427E+02 -0.16895315731E+02  0.10634473119E+03  0.11691519665E+03  0.00000000000E+00 0. -1.
         -4    1    6    6    0  503  0.83812439600E+02  0.91192651117E+02  0.18601330095E+03  0.22347611232E+03  0.00000000000E+00 0.  1.
<mgrwt>
<rscale>  0 0.12812190E+04</rscale>
<asrwt>0</asrwt>
<pdfrwt beam="1">  1        2 0.11299197E+00 0.12812190E+04</pdfrwt>
<pdfrwt beam="2">  1       -1 0.85963178E-01 0.12812190E+04</pdfrwt>
<totfact> 0.57722487E+01</totfact>
</mgrwt>
</event>
<event>
12    6  0.1538774E-007  0.1441169E+04  0.7818608E-02  0.8924546E-01
          2   -1    0    0  501    0  0.00000000000E+00  0.00000000000E+00  0.23234572418E+04  0.23234572418E+04  0.00000000000E+00 0. -1.
         -1   -1    0    0    0  501 -0.00000000000E+00 -0.00000000000E+00 -0.22347816667E+03  0.22347816667E+03  0.00000000000E+00 0.  1.
         24    2    1    2    0    0  0.76529888751E+02 -0.20401910263E+03  0.13110826777E+04  0.13315534683E+04  0.81340230611E+02 0.  0.
        254    2    1    2    0    0 -0.76529888751E+02  0.20401910263E+03  0.78889639748E+03  0.12153819402E+04  0.89850715995E+03 0.  0.
         23    2    4    4    0    0 -0.33763782706E+03  0.40495876851E+03  0.28441353510E+03  0.60604899619E+03  0.91724698872E+02 0.  0.
         23    2    4    4    0    0  0.26110793831E+03 -0.20093966587E+03  0.50448286238E+03  0.60933294401E+03  0.90716996474E+02 0.  0.
          2    1    3    3  502    0  0.20820093921E+02 -0.15573431584E+03  0.96481921275E+03  0.97752890838E+03  0.00000000000E+00 0. -1.
         -1    1    3    3    0  502  0.55709794830E+02 -0.48284786796E+02  0.34626346492E+03  0.35402455990E+03  0.00000000000E+00 0.  1.
         11    1    5    5    0    0 -0.12454722957E+03  0.22046826852E+03  0.14023716412E+03  0.28945592414E+03  0.00000000000E+00 0.  1.
        -11    1    5    5    0    0 -0.21309059748E+03  0.18449049999E+03  0.14417637098E+03  0.31659307205E+03  0.00000000000E+00 0. -1.
          1    1    6    6  503    0  0.21912098702E+03 -0.19897009554E+03  0.40761976810E+03  0.50374297138E+03  0.00000000000E+00 0. -1.
         -1    1    6    6    0  503  0.41986951289E+02 -0.19695703392E+01  0.96863094285E+02  0.10558997263E+03  0.00000000000E+00 0.  1.
<mgrwt>
<rscale>  0 0.14411689E+04</rscale>
<asrwt>0</asrwt>
<pdfrwt beam="1">  1        2 0.35745494E+00 0.14411689E+04</pdfrwt>
<pdfrwt beam="2">  1       -1 0.34381258E-01 0.14411689E+04</pdfrwt>
<totfact> 0.39011836E+01</totfact>
</mgrwt>
</event>
<event>
12    6  0.1538774E-007  0.2218951E+04  0.7818608E-02  0.8510581E-01
         -1   -1    0    0    0  501 -0.00000000000E+00  0.00000000000E+00  0.84574527774E+03  0.84574527774E+03  0.00000000000E+00 0.  1.
          2   -1    0    0  501    0  0.00000000000E+00 -0.00000000000E+00 -0.14554450873E+04  0.14554450873E+04  0.00000000000E+00 0. -1.
         24    2    1    2    0    0  0.53539726375E+03 -0.22305768751E+03 -0.89327023983E+03  0.10675389443E+04  0.72819738189E+02 0.  0.
        254    2    1    2    0    0 -0.53539726375E+03  0.22305768751E+03  0.28357043024E+03  0.12336514208E+04  0.10512272243E+04 0.  0.
         23    2    4    4    0    0 -0.56807450487E+03 -0.12549811302E+03  0.53312602967E+03  0.79438045796E+03  0.91424991245E+02 0.  0.
         23    2    4    4    0    0  0.32677241114E+02  0.34855580053E+03 -0.24955559943E+03  0.43927096280E+03  0.90122324553E+02 0.  0.
          4    1    3    3  502    0  0.25669161226E+03 -0.14487913889E+03 -0.46887242455E+03  0.55382479106E+03  0.00000000000E+00 0. -1.
         -3    1    3    3    0  502  0.27870565150E+03 -0.78178548620E+02 -0.42439781528E+03  0.51371415326E+03  0.00000000000E+00 0.  1.
         11    1    5    5    0    0 -0.42454732050E+03 -0.52189045252E+02  0.38840181683E+03  0.57777166347E+03  0.00000000000E+00 0. -1.
        -11    1    5    5    0    0 -0.14352718437E+03 -0.73309067769E+02  0.14472421284E+03  0.21660879449E+03  0.00000000000E+00 0.  1.
          2    1    6    6  503    0  0.41061546416E+02  0.34832012289E+03 -0.25024599015E+03  0.43085498046E+03  0.00000000000E+00 0. -1.
         -2    1    6    6    0  503 -0.83843053014E+01  0.23567763580E+00  0.69039071600E+00  0.84159823357E+01  0.00000000000E+00 0.  1.
<mgrwt>
<rscale>  0 0.22189509E+04</rscale>
<asrwt>0</asrwt>
<pdfrwt beam="1">  1        2 0.22391463E+00 0.22189509E+04</pdfrwt>
<pdfrwt beam="2">  1       -1 0.13011466E+00 0.22189509E+04</pdfrwt>
<totfact> 0.70788462E+00</totfact>
</mgrwt>
</event>
<event>
12    6  0.1538774E-007  0.2502620E+04  0.7818608E-02  0.8402053E-01
          2   -1    0    0  501    0  0.00000000000E+00  0.00000000000E+00  0.21478842367E+04  0.21478842367E+04  0.00000000000E+00 0. -1.
         -1   -1    0    0    0  501 -0.00000000000E+00 -0.00000000000E+00 -0.72898541630E+03  0.72898541630E+03  0.00000000000E+00 0.  1.
         24    2    1    2    0    0 -0.81350796567E+03  0.70878504586E+02  0.14489157870E+04  0.16651400976E+04  0.80719354646E+02 0.  0.
        254    2    1    2    0    0  0.81350796567E+03 -0.70878504586E+02 -0.30016966551E+02  0.12117295554E+04  0.89474494947E+03 0.  0.
         23    2    4    4    0    0  0.37674969915E+03  0.38821759518E+03  0.10275286627E+03  0.55798927815E+03  0.90225528461E+02 0.  0.
         23    2    4    4    0    0  0.43675826652E+03 -0.45909609977E+03 -0.13276983283E+03  0.65374027728E+03  0.90672539616E+02 0.  0.
          2    1    3    3  502    0 -0.43327681190E+03  0.35701260865E+02  0.85255184234E+03  0.95699948779E+03  0.00000000000E+00 0. -1.
         -1    1    3    3    0  502 -0.38023115378E+03  0.35177243722E+02  0.59636394461E+03  0.70814060977E+03  0.00000000000E+00 0.  1.
         11    1    5    5    0    0  0.31848925376E+03  0.28379670607E+03  0.58929784195E+02  0.43063754435E+03  0.00000000000E+00 0.  1.
        -11    1    5    5    0    0  0.58260445390E+02  0.10442088911E+03  0.43823082080E+02  0.12735173380E+03  0.00000000000E+00 0. -1.
          3    1    6    6  503    0  0.46002572455E+02 -0.96943617267E+02 -0.19506963194E+02  0.10906339081E+03  0.00000000000E+00 0. -1.
         -3    1    6    6    0  503  0.39075569407E+03 -0.36215248250E+03 -0.11326286963E+03  0.54467688648E+03  0.00000000000E+00 0.  1.
<mgrwt>
<rscale>  0 0.25026197E+04</rscale>
<asrwt>0</asrwt>
<pdfrwt beam="1">  1        2 0.33044373E+00 0.25026197E+04</pdfrwt>
<pdfrwt beam="2">  1       -1 0.11215160E+00 0.25026197E+04</pdfrwt>
<totfact> 0.40838773E+00</totfact>
</mgrwt>
</event>
<event>
12    6  0.1538774E-007  0.1422739E+04  0.7818608E-02  0.8937522E-01
         -1   -1    0    0    0  501 -0.00000000000E+00  0.00000000000E+00  0.30436831171E+03  0.30436831171E+03  0.00000000000E+00 0.  1.
          2   -1    0    0  501    0  0.00000000000E+00 -0.00000000000E+00 -0.16626118332E+04  0.16626118332E+04  0.00000000000E+00 0. -1.
         24    2    1    2    0    0  0.23322638158E+03  0.32831770494E+03 -0.62567570309E+03  0.74824468104E+03  0.78822311667E+02 0.  0.
        254    2    1    2    0    0 -0.23322638158E+03 -0.32831770494E+03 -0.73256781835E+03  0.12187354638E+04  0.88683339016E+03 0.  0.
         23    2    4    4    0    0  0.35391037863E+02 -0.30554107905E+02  0.18676811289E+03  0.21156683655E+03  0.87704727728E+02 0.  0.
         23    2    4    4    0    0 -0.26861741944E+03 -0.29776359703E+03 -0.91933593124E+03  0.10071686273E+04  0.91605739930E+02 0.  0.
          2    1    3    3  502    0  0.21338144476E+03  0.27587380105E+03 -0.49007470739E+03  0.60150745124E+03  0.00000000000E+00 0. -1.
         -1    1    3    3    0  502  0.19844936822E+02  0.52443903884E+02 -0.13560099571E+03  0.14673722980E+03  0.00000000000E+00 0.  1.
         11    1    5    5    0    0 -0.28347390867E+02 -0.16441554413E+02  0.46908411552E+02  0.57221485081E+02  0.00000000000E+00 0.  1.
        -11    1    5    5    0    0  0.63738428730E+02 -0.14112553492E+02  0.13985970133E+03  0.15434535147E+03  0.00000000000E+00 0. -1.
          1    1    6    6  503    0 -0.17485949906E+03 -0.17861522065E+03 -0.46096547047E+03  0.52437429993E+03  0.00000000000E+00 0. -1.
         -1    1    6    6    0  503 -0.93757920384E+02 -0.11914837638E+03 -0.45837046077E+03  0.48279432736E+03  0.00000000000E+00 0.  1.
<mgrwt>
<rscale>  0 0.14227387E+04</rscale>
<asrwt>0</asrwt>
<pdfrwt beam="1">  1        2 0.25578643E+00 0.14227387E+04</pdfrwt>
<pdfrwt beam="2">  1       -1 0.46825896E-01 0.14227387E+04</pdfrwt>
<totfact> 0.51766892E+01</totfact>
</mgrwt>
</event>
<event>
12    6  0.1538774E-007  0.1616660E+04  0.7818608E-02  0.8810378E-01
         -1   -1    0    0    0  501 -0.00000000000E+00  0.00000000000E+00  0.34791688223E+03  0.34791688223E+03  0.00000000000E+00 0.  1.
          2   -1    0    0  501    0  0.00000000000E+00 -0.00000000000E+00 -0.18780262902E+04  0.18780262902E+04  0.00000000000E+00 0. -1.
         24    2    1    2    0    0  0.42984622190E+03  0.30049381961E+02 -0.49245289423E+02  0.44202351134E+03  0.85375325524E+02 0.  0.
        254    2    1    2    0    0 -0.42984622190E+03 -0.30049381961E+02 -0.14808641186E+04  0.17839196611E+04  0.89651552124E+03 0.  0.
         23    2    4    4    0    0 -0.80938183187E+02 -0.21325129966E+03 -0.13304262019E+04  0.13527730250E+04  0.89072285619E+02 0.  0.
         23    2    4    4    0    0 -0.34890803871E+03  0.18320191770E+03 -0.15043791667E+03  0.43114663615E+03  0.89196933625E+02 0.  0.
          2    1    3    3  502    0  0.11927757202E+03 -0.29715067831E+02 -0.99587968547E+01  0.12332599920E+03  0.00000000000E+00 0. -1.
         -1    1    3    3    0  502  0.31056864988E+03  0.59764449792E+02 -0.39286492569E+02  0.31869751214E+03  0.00000000000E+00 0.  1.
         11    1    5    5    0    0  0.22407229914E+01 -0.91738934261E+02 -0.37495368802E+03  0.38601984542E+03  0.00000000000E+00 0.  1.
        -11    1    5    5    0    0 -0.83178906178E+02 -0.12151236540E+03 -0.95547251387E+03  0.96675317953E+03  0.00000000000E+00 0. -1.
          4    1    6    6  503    0 -0.21802134558E+03  0.81656438918E+02 -0.52343180668E+02  0.23862290273E+03  0.00000000000E+00 0. -1.
         -4    1    6    6    0  503 -0.13088669313E+03  0.10154547878E+03 -0.98094735999E+02  0.19252373342E+03  0.00000000000E+00 0.  1.
<mgrwt>
<rscale>  0 0.16166596E+04</rscale>
<asrwt>0</asrwt>
<pdfrwt beam="1">  1        2 0.28892712E+00 0.16166596E+04</pdfrwt>
<pdfrwt beam="2">  1       -1 0.53525675E-01 0.16166596E+04</pdfrwt>
<totfact> 0.30005799E+01</totfact>
</mgrwt>
</event>
<event>
12    6  0.1538774E-007  0.1630339E+04  0.7818608E-02  0.8802123E-01
          2   -1    0    0  501    0  0.00000000000E+00  0.00000000000E+00  0.12203744662E+04  0.12203744662E+04  0.00000000000E+00 0. -1.
         -1   -1    0    0    0  501 -0.00000000000E+00 -0.00000000000E+00 -0.54450625114E+03  0.54450625114E+03  0.00000000000E+00 0.  1.
         24    2    1    2    0    0 -0.30460146432E+02  0.16381320476E+01  0.84383375983E+03  0.84806604003E+03  0.78930919344E+02 0.  0.
        254    2    1    2    0    0  0.30460146432E+02 -0.16381320476E+01 -0.16796554475E+03  0.91681467733E+03  0.90078089697E+03 0.  0.
         23    2    4    4    0    0  0.21658410327E+03 -0.21789374914E+03  0.24738133537E+03  0.40470416218E+03  0.90562542408E+02 0.  0.
         23    2    4    4    0    0 -0.18612395684E+03  0.21625561709E+03 -0.41534688012E+03  0.51211051515E+03  0.91299121956E+02 0.  0.
          4    1    3    3  502    0 -0.30195807349E+02 -0.34795293433E+02  0.56236713607E+03  0.56425109212E+03  0.00000000000E+00 0. -1.
         -3    1    3    3    0  502 -0.26433908329E+00  0.36433425481E+02  0.28146662376E+03  0.28381494792E+03  0.00000000000E+00 0.  1.
         11    1    5    5    0    0  0.17196846551E+02 -0.19621365481E+02  0.63704928156E+02  0.68840739290E+02  0.00000000000E+00 0.  1.
        -11    1    5    5    0    0  0.19938725672E+03 -0.19827238366E+03  0.18367640722E+03  0.33586342289E+03  0.00000000000E+00 0. -1.
          1    1    6    6  503    0 -0.63450084401E+02  0.86653860459E+02 -0.86256374680E+02  0.13774965305E+03  0.00000000000E+00 0. -1.
         -1    1    6    6    0  503 -0.12267387244E+03  0.12960175664E+03 -0.32909050544E+03  0.37436086210E+03  0.00000000000E+00 0.  1.
<mgrwt>
<rscale>  0 0.16303393E+04</rscale>
<asrwt>0</asrwt>
<pdfrwt beam="1">  1        2 0.18774992E+00 0.16303393E+04</pdfrwt>
<pdfrwt beam="2">  1       -1 0.83770193E-01 0.16303393E+04</pdfrwt>
<totfact> 0.28392189E+01</totfact>
</mgrwt>
</event>
<event>
12    6  0.1538774E-007  0.2235038E+04  0.7818608E-02  0.8503985E-01
          2   -1    0    0  501    0  0.00000000000E+00  0.00000000000E+00  0.21395203001E+04  0.21395203001E+04  0.00000000000E+00 0. -1.
         -1   -1    0    0    0  501 -0.00000000000E+00 -0.00000000000E+00 -0.58370491801E+03  0.58370491801E+03  0.00000000000E+00 0.  1.
         24    2    1    2    0    0  0.66826055012E+03 -0.63952158389E+03  0.84455408180E+03  0.12550269644E+04  0.79126893630E+02 0.  0.
        254    2    1    2    0    0 -0.66826055012E+03  0.63952158389E+03  0.71126130029E+03  0.14681982537E+04  0.89115288006E+03 0.  0.
         23    2    4    4    0    0 -0.82840984486E+03  0.60107651675E+03  0.39706592298E+03  0.11014432755E+04  0.89219347491E+02 0.  0.
         23    2    4    4    0    0  0.16014929474E+03  0.38445067142E+02  0.31419537730E+03  0.36675497812E+03  0.93084150441E+02 0.  0.
          4    1    3    3  502    0  0.11534732739E+02 -0.34574506393E+01  0.29836927006E+01  0.12405903692E+02  0.00000000000E+00 0. -1.
         -3    1    3    3    0  502  0.65672581738E+03 -0.63606413325E+03  0.84157038910E+03  0.12426210608E+04  0.00000000000E+00 0.  1.
         11    1    5    5    0    0 -0.12940517010E+03  0.91794873755E+02  0.97267788509E+02  0.18609948838E+03  0.00000000000E+00 0.  1.
        -11    1    5    5    0    0 -0.69900467476E+03  0.50928164299E+03  0.29979813447E+03  0.91534378715E+03  0.00000000000E+00 0. -1.
          4    1    6    6  503    0  0.10330907978E+03  0.20391321523E+02  0.27731386496E+03  0.29663369946E+03  0.00000000000E+00 0. -1.
         -4    1    6    6    0  503  0.56840214961E+02  0.18053745619E+02  0.36881512343E+02  0.70121278656E+02  0.00000000000E+00 0.  1.
<mgrwt>
<rscale>  0 0.22350378E+04</rscale>
<asrwt>0</asrwt>
<pdfrwt beam="1">  1        2 0.32915697E+00 0.22350378E+04</pdfrwt>
<pdfrwt beam="2">  1       -1 0.89800757E-01 0.22350378E+04</pdfrwt>
<totfact> 0.70300661E+00</totfact>
</mgrwt>
</event>
<event>
12    6  0.1538774E-007  0.1152880E+04  0.7818608E-02  0.9155131E-01
          2   -1    0    0  501    0  0.00000000000E+00  0.00000000000E+00  0.47876514916E+03  0.47876514916E+03  0.00000000000E+00 0. -1.
         -1   -1    0    0    0  501 -0.00000000000E+00 -0.00000000000E+00 -0.69404187715E+03  0.69404187715E+03  0.00000000000E+00 0.  1.
         24    2    1    2    0    0  0.29397357799E+02 -0.59129494938E+02 -0.27655490702E+03  0.29659243333E+03  0.84403513532E+02 0.  0.
        254    2    1    2    0    0 -0.29397357799E+02  0.59129494938E+02  0.61278179034E+02  0.87621459298E+03  0.87157127988E+03 0.  0.
         23    2    4    4    0    0  0.24606318168E+03 -0.27049380000E+03  0.18638493470E+03  0.41966546376E+03  0.87554396683E+02 0.  0.
         23    2    4    4    0    0 -0.27546053948E+03  0.32962329493E+03 -0.12510675567E+03  0.45654912922E+03  0.90859131099E+02 0.  0.
          4    1    3    3  502    0 -0.24828721683E+02  0.19357316047E+01 -0.52207001400E+02  0.57842747795E+02  0.00000000000E+00 0. -1.
         -3    1    3    3    0  502  0.54226079482E+02 -0.61065226542E+02 -0.22434790562E+03  0.23874968554E+03  0.00000000000E+00 0.  1.
         11    1    5    5    0    0  0.17838289452E+03 -0.19179196697E+03  0.87101414990E+02  0.27602766554E+03  0.00000000000E+00 0. -1.
        -11    1    5    5    0    0  0.67680287158E+02 -0.78701833029E+02  0.99283519715E+02  0.14363779822E+03  0.00000000000E+00 0.  1.
          4    1    6    6  503    0 -0.60871602605E+02  0.12299966779E+03 -0.68266227912E+02  0.15327931417E+03  0.00000000000E+00 0.  1.
         -4    1    6    6    0  503 -0.21458893687E+03  0.20662362714E+03 -0.56840527759E+02  0.30326981505E+03  0.00000000000E+00 0. -1.
<mgrwt>
<rscale>  0 0.11528800E+04</rscale>
<asrwt>0</asrwt>
<pdfrwt beam="1">  1        2 0.73656177E-01 0.11528800E+04</pdfrwt>
<pdfrwt beam="2">  1       -1 0.10677567E+00 0.11528800E+04</pdfrwt>
<totfact> 0.60044968E+01</totfact>
</mgrwt>
</event>
<event>
12    6  0.1538774E-007  0.1675849E+04  0.7818608E-02  0.8775260E-01
          2   -1    0    0  501    0  0.00000000000E+00  0.00000000000E+00  0.10346510677E+04  0.10346510677E+04  0.00000000000E+00 0. -1.
         -1   -1    0    0    0  501 -0.00000000000E+00 -0.00000000000E+00 -0.67860314436E+03  0.67860314436E+03  0.00000000000E+00 0.  1.
         24    2    1    2    0    0 -0.44415708865E+02 -0.56170860651E+03  0.30907580195E+03  0.64739946346E+03  0.78159453084E+02 0.  0.
        254    2    1    2    0    0  0.44415708865E+02  0.56170860651E+03  0.46972121365E+02  0.10658547486E+04  0.90352125104E+03 0.  0.
         23    2    4    4    0    0  0.17442734504E+03  0.18050735203E+03  0.42801383031E+03  0.50402811033E+03  0.88547694670E+02 0.  0.
         23    2    4    4    0    0 -0.13001163618E+03  0.38120125448E+03 -0.38104170894E+03  0.56182663827E+03  0.90768747673E+02 0.  0.
          4    1    3    3  502    0 -0.38553021425E+02 -0.26805732015E+03  0.18820382826E+03  0.32979045365E+03  0.00000000000E+00 0. -1.
         -3    1    3    3    0  502 -0.58626874394E+01 -0.29365128636E+03  0.12087197370E+03  0.31760900981E+03  0.00000000000E+00 0.  1.
         11    1    5    5    0    0  0.13471009317E+03  0.83830525970E+02  0.29394582164E+03  0.33403369941E+03  0.00000000000E+00 0. -1.
        -11    1    5    5    0    0  0.39717251872E+02  0.96676826061E+02  0.13406800867E+03  0.16999441091E+03  0.00000000000E+00 0.  1.
          4    1    6    6  503    0 -0.13990231457E+03  0.37563198642E+03 -0.36464104308E+03  0.54188110978E+03  0.00000000000E+00 0. -1.
         -4    1    6    6    0  503  0.98906783910E+01  0.55692680637E+01 -0.16400665863E+02  0.19945528485E+02  0.00000000000E+00 0.  1.
<mgrwt>
<rscale>  0 0.16758490E+04</rscale>
<asrwt>0</asrwt>
<pdfrwt beam="1">  1        2 0.15917709E+00 0.16758490E+04</pdfrwt>
<pdfrwt beam="2">  1       -1 0.10440048E+00 0.16758490E+04</pdfrwt>
<totfact> 0.22465654E+01</totfact>
</mgrwt>
</event>
<event>
12    6  0.1538774E-007  0.1277871E+04  0.7818608E-02  0.9047300E-01
          2   -1    0    0  501    0  0.00000000000E+00  0.00000000000E+00  0.15937109505E+04  0.15937109505E+04  0.00000000000E+00 0. -1.
         -1   -1    0    0    0  501 -0.00000000000E+00 -0.00000000000E+00 -0.25615603859E+03  0.25615603859E+03  0.00000000000E+00 0.  1.
         24    2    1    2    0    0  0.22187654608E+03  0.17437047920E+03  0.59216810892E+03  0.66082515633E+03  0.79953438268E+02 0.  0.
        254    2    1    2    0    0 -0.22187654608E+03 -0.17437047920E+03  0.74538680301E+03  0.11890418328E+04  0.88237448304E+03 0.  0.
         23    2    4    4    0    0  0.18507036069E+03 -0.25707445688E+03 -0.10691124022E+01  0.32981486087E+03  0.91860680739E+02 0.  0.
         23    2    4    4    0    0 -0.40694690677E+03  0.82703977676E+02  0.74645591541E+03  0.85922697192E+03  0.92891456918E+02 0.  0.
          4    1    3    3  502    0  0.18240428017E+03  0.16741012658E+03  0.54709562674E+03  0.60050903133E+03  0.00000000000E+00 0. -1.
         -3    1    3    3    0  502  0.39472265915E+02  0.69603526208E+01  0.45072482182E+02  0.60316125001E+02  0.00000000000E+00 0.  1.
         11    1    5    5    0    0  0.11656469183E+03 -0.10265677976E+03  0.29605735052E+02  0.15812097065E+03  0.00000000000E+00 0.  1.
        -11    1    5    5    0    0  0.68505668860E+02 -0.15441767712E+03 -0.30674847454E+02  0.17169389022E+03  0.00000000000E+00 0. -1.
          3    1    6    6  503    0 -0.10300123352E+03 -0.17755576595E+02  0.16057106333E+03  0.19159222580E+03  0.00000000000E+00 0. -1.
         -3    1    6    6    0  503 -0.30394567325E+03  0.10045955427E+03  0.58588485208E+03  0.66763474612E+03  0.00000000000E+00 0.  1.
<mgrwt>
<rscale>  0 0.12778712E+04</rscale>
<asrwt>0</asrwt>
<pdfrwt beam="1">  1        2 0.24518629E+00 0.12778712E+04</pdfrwt>
<pdfrwt beam="2">  1       -1 0.39408622E-01 0.12778712E+04</pdfrwt>
<totfact> 0.78686671E+01</totfact>
</mgrwt>
</event>
<event>
12    6  0.1538774E-007  0.2649819E+04  0.7818608E-02  0.8351473E-01
          2   -1    0    0  501    0  0.00000000000E+00  0.00000000000E+00  0.31107263766E+04  0.31107263766E+04  0.00000000000E+00 0. -1.
         -1   -1    0    0    0  501 -0.00000000000E+00 -0.00000000000E+00 -0.56430092558E+03  0.56430092558E+03  0.00000000000E+00 0.  1.
         24    2    1    2    0    0 -0.60698484716E+03  0.10031974426E+04  0.11012209981E+04  0.16106251728E+04  0.81179104218E+02 0.  0.
        254    2    1    2    0    0  0.60698484716E+03 -0.10031974426E+04  0.14452044529E+04  0.20644021294E+04  0.89347889036E+03 0.  0.
         23    2    4    4    0    0  0.47346317747E+03 -0.15113648996E+03  0.92229373198E+03  0.10516114015E+04  0.90836076178E+02 0.  0.
         23    2    4    4    0    0  0.13352166968E+03 -0.85206095267E+03  0.52291072093E+03  0.10127907279E+04  0.92051795433E+02 0.  0.
          2    1    3    3  502    0 -0.10467419217E+03  0.14099145262E+03  0.19860990708E+03  0.26510596260E+03  0.00000000000E+00 0. -1.
         -1    1    3    3    0  502 -0.50231065499E+03  0.86220599000E+03  0.90261109101E+03  0.13455192102E+04  0.00000000000E+00 0.  1.
         11    1    5    5    0    0  0.30583072235E+03 -0.70766869363E+02  0.65103066560E+03  0.72275950916E+03  0.00000000000E+00 0. -1.
        -11    1    5    5    0    0  0.16763245512E+03 -0.80369620596E+02  0.27126306639E+03  0.32885189236E+03  0.00000000000E+00 0.  1.
          3    1    6    6  503    0  0.11901935781E+03 -0.82799852662E+03  0.48975834131E+03  0.96933503006E+03  0.00000000000E+00 0. -1.
         -3    1    6    6    0  503  0.14502311876E+02 -0.24062426049E+02  0.33152379619E+02  0.43455697802E+02  0.00000000000E+00 0.  1.
<mgrwt>
<rscale>  0 0.26498194E+04</rscale>
<asrwt>0</asrwt>
<pdfrwt beam="1">  1        2 0.47857328E+00 0.26498194E+04</pdfrwt>
<pdfrwt beam="2">  1       -1 0.86815529E-01 0.26498194E+04</pdfrwt>
<totfact> 0.19393785E+00</totfact>
</mgrwt>
</event>
<event>
12    6  0.1538774E-007  0.1597759E+04  0.7818608E-02  0.8821926E-01
          2   -1    0    0  501    0  0.00000000000E+00  0.00000000000E+00  0.18919630418E+04  0.18919630418E+04  0.00000000000E+00 0. -1.
         -1   -1    0    0    0  501 -0.00000000000E+00 -0.00000000000E+00 -0.33732615580E+03  0.33732615580E+03  0.00000000000E+00 0.  1.
         24    2    1    2    0    0  0.34521590700E+03  0.37832130013E+03  0.28974115117E+03  0.59382322391E+03  0.79843960294E+02 0.  0.
        254    2    1    2    0    0 -0.34521590700E+03 -0.37832130013E+03  0.12648957348E+04  0.16354659736E+04  0.90138044270E+03 0.  0.
         23    2    4    4    0    0  0.40067928535E+02 -0.58302309028E+03  0.71562072015E+03  0.92826626894E+03  0.89687726328E+02 0.  0.
         23    2    4    4    0    0 -0.38528383554E+03  0.20470179015E+03  0.54927501463E+03  0.70719970470E+03  0.89899520610E+02 0.  0.
          2    1    3    3  502    0  0.32014042852E+02  0.26254694747E+02  0.50650779644E+02  0.65419488033E+02  0.00000000000E+00 0. -1.
         -1    1    3    3    0  502  0.31320186415E+03  0.35206660538E+03  0.23909037153E+03  0.52840373588E+03  0.00000000000E+00 0.  1.
         11    1    5    5    0    0  0.18943782491E+02 -0.25306706900E+02  0.55086991242E+02  0.63512777559E+02  0.00000000000E+00 0.  1.
        -11    1    5    5    0    0  0.21124146044E+02 -0.55771638338E+03  0.66053372891E+03  0.86475349139E+03  0.00000000000E+00 0. -1.
          3    1    6    6  503    0 -0.35866115453E+03  0.21047482964E+03  0.53071183072E+03  0.67423476990E+03  0.00000000000E+00 0. -1.
         -3    1    6    6    0  503 -0.26622681009E+02 -0.57730394890E+01  0.18563183916E+02  0.32964934797E+02  0.00000000000E+00 0.  1.
<mgrwt>
<rscale>  0 0.15977592E+04</rscale>
<asrwt>0</asrwt>
<pdfrwt beam="1">  1        2 0.29107123E+00 0.15977592E+04</pdfrwt>
<pdfrwt beam="2">  1       -1 0.51896333E-01 0.15977592E+04</pdfrwt>
<totfact> 0.31331127E+01</totfact>
</mgrwt>
</event>
<event>
12    6  0.1538774E-007  0.1753683E+04  0.7818608E-02  0.8731326E-01
          2   -1    0    0  501    0  0.00000000000E+00  0.00000000000E+00  0.16286530385E+04  0.16286530385E+04  0.00000000000E+00 0. -1.
         -1   -1    0    0    0  501 -0.00000000000E+00 -0.00000000000E+00 -0.47207778399E+03  0.47207778399E+03  0.00000000000E+00 0.  1.
         24    2    1    2    0    0 -0.36210892682E+02 -0.47313594467E+03 -0.88717965835E+02  0.48919278651E+03  0.79182409838E+02 0.  0.
        254    2    1    2    0    0  0.36210892682E+02  0.47313594467E+03  0.12452932204E+04  0.16115380360E+04  0.90616267079E+03 0.  0.
         23    2    4    4    0    0  0.30135483769E+03  0.20612531443E+02  0.73190548899E+02  0.32421800862E+03  0.92308428703E+02 0.  0.
         23    2    4    4    0    0 -0.26514394501E+03  0.45252341322E+03  0.11721026715E+04  0.12873200274E+04  0.91046303399E+02 0.  0.
          4    1    3    3  502    0 -0.15302678213E+02 -0.26064793486E+03 -0.89039785376E+01  0.26124853826E+03  0.00000000000E+00 0. -1.
         -3    1    3    3    0  502 -0.20908214469E+02 -0.21248800980E+03 -0.79813987297E+02  0.22794424825E+03  0.00000000000E+00 0.  1.
         11    1    5    5    0    0  0.10357778758E+03 -0.19692391976E+02 -0.99955588527E+01  0.10590589964E+03  0.00000000000E+00 0. -1.
        -11    1    5    5    0    0  0.19777705012E+03  0.40304923419E+02  0.83186107752E+02  0.21831210898E+03  0.00000000000E+00 0.  1.
          2    1    6    6  503    0 -0.15879536485E+03  0.30011627410E+03  0.85224877656E+03  0.91739507467E+03  0.00000000000E+00 0. -1.
         -2    1    6    6    0  503 -0.10634858016E+03  0.15240713912E+03  0.31985389492E+03  0.36992495273E+03  0.00000000000E+00 0.  1.
<mgrwt>
<rscale>  0 0.17536829E+04</rscale>
<asrwt>0</asrwt>
<pdfrwt beam="1">  1        2 0.25056200E+00 0.17536829E+04</pdfrwt>
<pdfrwt beam="2">  1       -1 0.72627352E-01 0.17536829E+04</pdfrwt>
<totfact> 0.22181394E+01</totfact>
</mgrwt>
</event>
<event>
12    6  0.1538774E-007  0.1663014E+04  0.7818608E-02  0.8782744E-01
          2   -1    0    0  501    0  0.00000000000E+00  0.00000000000E+00  0.42052280995E+03  0.42052280995E+03  0.00000000000E+00 0. -1.
         -1   -1    0    0    0  501 -0.00000000000E+00 -0.00000000000E+00 -0.16441536321E+04  0.16441536321E+04  0.00000000000E+00 0.  1.
         24    2    1    2    0    0 -0.37198327119E+03 -0.22467734881E+03 -0.91583273980E+03  0.10171208006E+04  0.83268545158E+02 0.  0.
        254    2    1    2    0    0  0.37198327119E+03  0.22467734881E+03 -0.30779808232E+03  0.10475556414E+04  0.90209849642E+03 0.  0.
         23    2    4    4    0    0  0.16927299852E+03 -0.33129683652E+03 -0.20978981306E+02  0.38342325506E+03  0.90345630484E+02 0.  0.
         23    2    4    4    0    0  0.20271027268E+03  0.55597418534E+03 -0.28681910101E+03  0.66413238635E+03  0.92778663940E+02 0.  0.
          4    1    3    3  502    0 -0.19689784941E+03 -0.11883559867E+03 -0.38817485802E+03  0.45118774697E+03  0.00000000000E+00 0. -1.
         -3    1    3    3    0  502 -0.17508542178E+03 -0.10584175014E+03 -0.52765788178E+03  0.56593305363E+03  0.00000000000E+00 0.  1.
         11    1    5    5    0    0  0.17352924113E+03 -0.32788744245E+03 -0.99372339888E+01  0.37110823362E+03  0.00000000000E+00 0.  1.
        -11    1    5    5    0    0 -0.42562426153E+01 -0.34093940721E+01 -0.11041747317E+02  0.12315021436E+02  0.00000000000E+00 0. -1.
          4    1    6    6  503    0 -0.66630761131E+01  0.10802688283E+02  0.16115798682E+01  0.12794211468E+02  0.00000000000E+00 0. -1.
         -4    1    6    6    0  503  0.20937334879E+03  0.54517149705E+03 -0.28843068088E+03  0.65133817488E+03  0.00000000000E+00 0.  1.
<mgrwt>
<rscale>  0 0.16630143E+04</rscale>
<asrwt>0</asrwt>
<pdfrwt beam="1">  1        2 0.64695817E-01 0.16630143E+04</pdfrwt>
<pdfrwt beam="2">  1       -1 0.25294671E+00 0.16630143E+04</pdfrwt>
<totfact> 0.54706891E+00</totfact>
</mgrwt>
</event>
<event>
12    6  0.1538774E-007  0.1430623E+04  0.7818608E-02  0.8931946E-01
          2   -1    0    0  501    0  0.00000000000E+00  0.00000000000E+00  0.82954862922E+03  0.82954862922E+03  0.00000000000E+00 0. -1.
         -1   -1    0    0    0  501 -0.00000000000E+00 -0.00000000000E+00 -0.61680583560E+03  0.61680583560E+03  0.00000000000E+00 0.  1.
         24    2    1    2    0    0  0.13644280517E+02 -0.27767916513E+03 -0.27287961250E+03  0.39805015228E+03  0.81784813252E+02 0.  0.
        254    2    1    2    0    0 -0.13644280517E+02  0.27767916513E+03  0.48562240612E+03  0.10483043125E+04  0.88646541118E+03 0.  0.
         23    2    4    4    0    0 -0.78768657850E+02  0.58621621550E+03  0.27887631547E+03  0.65993638199E+03  0.88826100719E+02 0.  0.
         23    2    4    4    0    0  0.65124377333E+02 -0.30853705037E+03  0.20674609065E+03  0.38836793055E+03  0.93002190870E+02 0.  0.
          2    1    3    3  502    0  0.21198676050E+02 -0.69738698218E+02 -0.11784807759E+03  0.13856781476E+03  0.00000000000E+00 0. -1.
         -3    1    3    3    0  502 -0.75543955330E+01 -0.20794046691E+03 -0.15503153490E+03  0.25948233752E+03  0.00000000000E+00 0.  1.
         11    1    5    5    0    0 -0.28727913641E+02  0.16405739105E+03  0.36234035122E+02  0.17044948191E+03  0.00000000000E+00 0.  1.
        -11    1    5    5    0    0 -0.50040744209E+02  0.42215882444E+03  0.24264228035E+03  0.48948690008E+03  0.00000000000E+00 0. -1.
          2    1    6    6  503    0  0.22974283653E+02 -0.23811821482E+03  0.11551156017E+03  0.26565207034E+03  0.00000000000E+00 0. -1.
         -2    1    6    6    0  503  0.42150093680E+02 -0.70418835548E+02  0.91234530475E+02  0.12271586021E+03  0.00000000000E+00 0.  1.
<mgrwt>
<rscale>  0 0.14306229E+04</rscale>
<asrwt>0</asrwt>
<pdfrwt beam="1">  1        2 0.12762287E+00 0.14306229E+04</pdfrwt>
<pdfrwt beam="2">  1       -1 0.94893205E-01 0.14306229E+04</pdfrwt>
<totfact> 0.39060398E+01</totfact>
</mgrwt>
</event>
<event>
12    6  0.1538774E-007  0.1579425E+04  0.7818608E-02  0.8833289E-01
          2   -1    0    0  501    0  0.00000000000E+00  0.00000000000E+00  0.56750183997E+03  0.56750183997E+03  0.00000000000E+00 0. -1.
         -1   -1    0    0    0  501 -0.00000000000E+00 -0.00000000000E+00 -0.10989320924E+04  0.10989320924E+04  0.00000000000E+00 0.  1.
         24    2    1    2    0    0 -0.19576628531E+03 -0.47505559354E+03 -0.34148667159E+02  0.52104899994E+03  0.79521528232E+02 0.  0.
        254    2    1    2    0    0  0.19576628531E+03  0.47505559354E+03 -0.49728158524E+03  0.11453849324E+04  0.89477115115E+03 0.  0.
         23    2    4    4    0    0  0.55547882768E+00  0.17337776965E+03 -0.69749223127E+03  0.72436521283E+03  0.90273968130E+02 0.  0.
         23    2    4    4    0    0  0.19521080648E+03  0.30167782390E+03  0.20021064602E+03  0.42101971957E+03  0.89758192315E+02 0.  0.
          4    1    3    3  502    0 -0.18119984205E+03 -0.47062318751E+03 -0.36598233307E+02  0.50562733120E+03  0.00000000000E+00 0. -1.
         -3    1    3    3    0  502 -0.14566443257E+02 -0.44324060385E+01  0.24495661480E+01  0.15421668741E+02  0.00000000000E+00 0.  1.
         11    1    5    5    0    0 -0.18556555483E+02  0.17077829986E+03 -0.66250097417E+03  0.68441004831E+03  0.00000000000E+00 0.  1.
        -11    1    5    5    0    0  0.19112034311E+02  0.25994697815E+01 -0.34991257098E+02  0.39955164522E+02  0.00000000000E+00 0. -1.
          1    1    6    6  503    0  0.24821002853E+02  0.18491911392E+01  0.76476932945E+01  0.26038220047E+02  0.00000000000E+00 0. -1.
         -1    1    6    6    0  503  0.17038980363E+03  0.29982863276E+03  0.19256295273E+03  0.39498149953E+03  0.00000000000E+00 0.  1.
<mgrwt>
<rscale>  0 0.15794252E+04</rscale>
<asrwt>0</asrwt>
<pdfrwt beam="1">  1        2 0.87307977E-01 0.15794252E+04</pdfrwt>
<pdfrwt beam="2">  1       -1 0.16906647E+00 0.15794252E+04</pdfrwt>
<totfact> 0.14550474E+01</totfact>
</mgrwt>
</event>
<event>
12    6  0.1538774E-007  0.1274785E+04  0.7818608E-02  0.9049804E-01
         -1   -1    0    0    0  501 -0.00000000000E+00  0.00000000000E+00  0.39133579661E+03  0.39133579661E+03  0.00000000000E+00 0.  1.
          2   -1    0    0  501    0  0.00000000000E+00 -0.00000000000E+00 -0.10381597039E+04  0.10381597039E+04  0.00000000000E+00 0. -1.
         24    2    1    2    0    0 -0.18832565792E+03 -0.83878366282E+02 -0.42383724315E+03  0.47815051372E+03  0.80546702782E+02 0.  0.
        254    2    1    2    0    0  0.18832565792E+03  0.83878366282E+02 -0.22298666414E+03  0.95134498678E+03  0.90157201472E+03 0.  0.
         23    2    4    4    0    0  0.34180106840E+03 -0.27396798530E+03  0.74372972240E+02  0.45298198990E+03  0.88175488894E+02 0.  0.
         23    2    4    4    0    0 -0.15347541048E+03  0.35784635158E+03 -0.29735963638E+03  0.49836299688E+03  0.91291896390E+02 0.  0.
          4    1    3    3  502    0 -0.83315196793E+02 -0.54893487716E+01 -0.22522071926E+03  0.24019976551E+03  0.00000000000E+00 0. -1.
         -3    1    3    3    0  502 -0.10501046113E+03 -0.78389017510E+02 -0.19861652389E+03  0.23795074821E+03  0.00000000000E+00 0.  1.
         11    1    5    5    0    0  0.22651782873E+03 -0.13774938654E+03  0.71166972707E+02  0.27449946854E+03  0.00000000000E+00 0. -1.
        -11    1    5    5    0    0  0.11528323968E+03 -0.13621859876E+03  0.32059995328E+01  0.17848252136E+03  0.00000000000E+00 0.  1.
          4    1    6    6  503    0 -0.50803046404E+02  0.50146453120E+02 -0.83392915206E+02  0.10977246736E+03  0.00000000000E+00 0. -1.
         -4    1    6    6    0  503 -0.10267236408E+03  0.30769989846E+03 -0.21396672117E+03  0.38859052952E+03  0.00000000000E+00 0.  1.
<mgrwt>
<rscale>  0 0.12747848E+04</rscale>
<asrwt>0</asrwt>
<pdfrwt beam="1">  1        2 0.15971687E+00 0.12747848E+04</pdfrwt>
<pdfrwt beam="2">  1       -1 0.60205509E-01 0.12747848E+04</pdfrwt>
<totfact> 0.74613198E+01</totfact>
</mgrwt>
</event>
<event>
12    6  0.1538774E-007  0.1551289E+04  0.7818608E-02  0.8851045E-01
          2   -1    0    0  501    0  0.00000000000E+00  0.00000000000E+00  0.20886708617E+04  0.20886708617E+04  0.00000000000E+00 0. -1.
         -1   -1    0    0    0  501 -0.00000000000E+00 -0.00000000000E+00 -0.28804157699E+03  0.28804157699E+03  0.00000000000E+00 0.  1.
         24    2    1    2    0    0 -0.25113926457E+03  0.28303044685E+03  0.70030220279E+02  0.39314073554E+03  0.80487527825E+02 0.  0.
        254    2    1    2    0    0  0.25113926457E+03 -0.28303044685E+03  0.17305990645E+04  0.19835717032E+04  0.89241605526E+03 0.  0.
         23    2    4    4    0    0 -0.98669469422E+02 -0.50990573201E+03  0.11199882374E+04  0.12379373010E+04  0.91518246775E+02 0.  0.
         23    2    4    4    0    0  0.34980873400E+03  0.22687528516E+03  0.61061082702E+03  0.74563440217E+03  0.96366665509E+02 0.  0.
          4    1    3    3  502    0 -0.11661940909E+02 -0.46027390807E+01  0.12721670830E+01  0.12601765031E+02  0.00000000000E+00 0. -1.
         -3    1    3    3    0  502 -0.23947732367E+03  0.28763318593E+03  0.68758053196E+02  0.38053897051E+03  0.00000000000E+00 0.  1.
         11    1    5    5    0    0 -0.71611376400E+02 -0.45505898370E+03  0.10382089133E+04  0.11358189184E+04  0.00000000000E+00 0. -1.
        -11    1    5    5    0    0 -0.27058093022E+02 -0.54846748314E+02  0.81779324167E+02  0.10211838258E+03  0.00000000000E+00 0.  1.
          1    1    6    6  503    0  0.23382542022E+03  0.16181684485E+03  0.48772699598E+03  0.56456765850E+03  0.00000000000E+00 0. -1.
         -1    1    6    6    0  503  0.11598331377E+03  0.65058440316E+02  0.12288383104E+03  0.18106674367E+03  0.00000000000E+00 0.  1.
<mgrwt>
<rscale>  0 0.15512886E+04</rscale>
<asrwt>0</asrwt>
<pdfrwt beam="1">  1        2 0.32133397E+00 0.15512886E+04</pdfrwt>
<pdfrwt beam="2">  1       -1 0.44314090E-01 0.15512886E+04</pdfrwt>
<totfact> 0.32959432E+01</totfact>
</mgrwt>
</event>
<event>
12    6  0.1538774E-007  0.1222746E+04  0.7818608E-02  0.9093176E-01
          2   -1    0    0  501    0  0.00000000000E+00  0.00000000000E+00  0.11037384760E+04  0.11037384760E+04  0.00000000000E+00 0. -1.
         -1   -1    0    0    0  501 -0.00000000000E+00 -0.00000000000E+00 -0.33864653622E+03  0.33864653622E+03  0.00000000000E+00 0.  1.
         24    2    1    2    0    0  0.19901157865E+03 -0.36094162241E+02  0.38031731172E+03  0.43820292432E+03  0.80449663184E+02 0.  0.
        254    2    1    2    0    0 -0.19901157865E+03  0.36094162241E+02  0.38477462805E+03  0.10041820879E+04  0.90521917471E+03 0.  0.
         23    2    4    4    0    0 -0.39782932966E+03 -0.17374709134E+03  0.51042262174E+03  0.67618138996E+03  0.90740244962E+02 0.  0.
         23    2    4    4    0    0  0.19881775101E+03  0.20984125358E+03 -0.12564799369E+03  0.32800069793E+03  0.90747945986E+02 0.  0.
          4    1    3    3  502    0  0.12706134693E+03 -0.55932495230E+02  0.20418501564E+03  0.24691000490E+03  0.00000000000E+00 0. -1.
         -3    1    3    3    0  502  0.71950231726E+02  0.19838332989E+02  0.17613229608E+03  0.19129291943E+03  0.00000000000E+00 0.  1.
         11    1    5    5    0    0 -0.25121001330E+02  0.51408954802E+01  0.11141389028E+02  0.27957540372E+02  0.00000000000E+00 0. -1.
        -11    1    5    5    0    0 -0.37270832833E+03 -0.17888798682E+03  0.49928123271E+03  0.64822384959E+03  0.00000000000E+00 0.  1.
          1    1    6    6  503    0  0.31989015420E+02  0.58493081288E+02 -0.68554192011E+02  0.95626434151E+02  0.00000000000E+00 0. -1.
         -1    1    6    6    0  503  0.16682873559E+03  0.15134817229E+03 -0.57093801679E+02  0.23237426378E+03  0.00000000000E+00 0.  1.
<mgrwt>
<rscale>  0 0.12227464E+04</rscale>
<asrwt>0</asrwt>
<pdfrwt beam="1">  1        2 0.16980592E+00 0.12227464E+04</pdfrwt>
<pdfrwt beam="2">  1       -1 0.52099468E-01 0.12227464E+04</pdfrwt>
<totfact> 0.90308957E+01</totfact>
</mgrwt>
</event>
<event>
12    6  0.1538774E-007  0.3435949E+04  0.7818608E-02  0.8129139E-01
          2   -1    0    0  501    0  0.00000000000E+00  0.00000000000E+00  0.39204943391E+04  0.39204943391E+04  0.00000000000E+00 0. -1.
         -1   -1    0    0    0  501 -0.00000000000E+00 -0.00000000000E+00 -0.75282257788E+03  0.75282257788E+03  0.00000000000E+00 0.  1.
         24    2    1    2    0    0 -0.83245518039E+03 -0.41324210304E+03  0.32617294183E+04  0.33925067247E+04  0.80451324785E+02 0.  0.
        254    2    1    2    0    0  0.83245518039E+03  0.41324210304E+03 -0.94057657126E+02  0.12808101923E+04  0.87628605068E+03 0.  0.
         23    2    4    4    0    0  0.23247479436E+03  0.47346606456E+03 -0.32859354008E+03  0.62760830246E+03  0.87771421480E+02 0.  0.
         23    2    4    4    0    0  0.59998038603E+03 -0.60223961517E+02  0.23453588295E+03  0.65320188980E+03  0.89789973130E+02 0.  0.
          2    1    3    3  502    0 -0.66645138242E+03 -0.35599721055E+03  0.27228395857E+04  0.28257294401E+04  0.00000000000E+00 0. -1.
         -1    1    3    3    0  502 -0.16600379797E+03 -0.57244892492E+02  0.53888983264E+03  0.56677728464E+03  0.00000000000E+00 0.  1.
         11    1    5    5    0    0  0.74443899120E+02  0.73799540009E+02 -0.69593470113E+02  0.12582335755E+03  0.00000000000E+00 0. -1.
        -11    1    5    5    0    0  0.15803089524E+03  0.39966652455E+03 -0.25900006996E+03  0.50178494491E+03  0.00000000000E+00 0.  1.
          4    1    6    6  503    0  0.10781793063E+03 -0.50692037127E+01  0.80187962585E+02  0.13446379563E+03  0.00000000000E+00 0. -1.
         -4    1    6    6    0  503  0.49216245540E+03 -0.55154757804E+02  0.15434792037E+03  0.51873809417E+03  0.00000000000E+00 0.  1.
<mgrwt>
<rscale>  0 0.34359492E+04</rscale>
<asrwt>0</asrwt>
<pdfrwt beam="1">  1        2 0.60315296E+00 0.34359492E+04</pdfrwt>
<pdfrwt beam="2">  1       -1 0.11581886E+00 0.34359492E+04</pdfrwt>
<totfact> 0.25000364E-01</totfact>
</mgrwt>
</event>
<event>
12    6  0.1538774E-007  0.2244883E+04  0.7818608E-02  0.8499976E-01
         -1   -1    0    0    0  501 -0.00000000000E+00  0.00000000000E+00  0.52514715821E+03  0.52514715821E+03  0.00000000000E+00 0.  1.
          2   -1    0    0  501    0  0.00000000000E+00 -0.00000000000E+00 -0.23990885532E+04  0.23990885532E+04  0.00000000000E+00 0. -1.
         24    2    1    2    0    0 -0.90845734288E+03  0.15496220174E+03 -0.53815881085E+03  0.10702725788E+04  0.80996663192E+02 0.  0.
        254    2    1    2    0    0  0.90845734288E+03 -0.15496220174E+03 -0.13357825842E+04  0.18539631326E+04  0.89641293897E+03 0.  0.
         23    2    4    4    0    0  0.10616121146E+04 -0.15504942110E+03 -0.97706626679E+03  0.14537529476E+04  0.87627267836E+02 0.  0.
         23    2    4    4    0    0 -0.15315477172E+03  0.87219364454E-01 -0.35871631736E+03  0.40021018502E+03  0.89634837805E+02 0.  0.
          2    1    3    3  502    0 -0.33053931905E+00  0.44389348197E+01 -0.40883653481E+01  0.60438505768E+01  0.00000000000E+00 0. -1.
         -1    1    3    3    0  502 -0.90812680356E+03  0.15052326692E+03 -0.53407044551E+03  0.10642287282E+04  0.00000000000E+00 0.  1.
         11    1    5    5    0    0  0.79894726790E+03 -0.13797809210E+03 -0.69423224680E+03  0.10673861079E+04  0.00000000000E+00 0. -1.
        -11    1    5    5    0    0  0.26266484670E+03 -0.17071328999E+02 -0.28283401999E+03  0.38636683972E+03  0.00000000000E+00 0.  1.
          1    1    6    6  503    0 -0.15764358759E+03 -0.40527213958E+01 -0.36080084074E+03  0.39375775794E+03  0.00000000000E+00 0. -1.
         -1    1    6    6    0  503  0.44888158744E+01  0.41399407603E+01  0.20845233847E+01  0.64524270778E+01  0.00000000000E+00 0.  1.
<mgrwt>
<rscale>  0 0.22448827E+04</rscale>
<asrwt>0</asrwt>
<pdfrwt beam="1">  1        2 0.36909055E+00 0.22448827E+04</pdfrwt>
<pdfrwt beam="2">  1       -1 0.80791869E-01 0.22448827E+04</pdfrwt>
<totfact> 0.62998863E+00</totfact>
</mgrwt>
</event>
<event>
12    6  0.1538774E-007  0.2585710E+04  0.7818608E-02  0.8373071E-01
          2   -1    0    0  501    0  0.00000000000E+00  0.00000000000E+00  0.11831227007E+04  0.11831227007E+04  0.00000000000E+00 0. -1.
         -1   -1    0    0    0  501 -0.00000000000E+00 -0.00000000000E+00 -0.14127651374E+04  0.14127651374E+04  0.00000000000E+00 0.  1.
         24    2    1    2    0    0 -0.82588461577E+03 -0.41259221946E+03 -0.77491946276E+03  0.12079365200E+04  0.79326693783E+02 0.  0.
        254    2    1    2    0    0  0.82588461577E+03  0.41259221946E+03  0.54527702611E+03  0.13879513182E+04  0.88134220843E+03 0.  0.
         23    2    4    4    0    0  0.20789141301E+03  0.18552577008E+03  0.65231015976E+03  0.71486781806E+03  0.88818927047E+02 0.  0.
         23    2    4    4    0    0  0.61799320276E+03  0.22706644938E+03 -0.10703313365E+03  0.67308350013E+03  0.90058510805E+02 0.  0.
          4    1    3    3  502    0 -0.54882550267E+02 -0.37171966374E+02 -0.33259551912E+02  0.74162303101E+02  0.00000000000E+00 0. -1.
         -3    1    3    3    0  502 -0.77100206550E+03 -0.37542025308E+03 -0.74165991085E+03  0.11337742169E+04  0.00000000000E+00 0.  1.
         11    1    5    5    0    0  0.70406199498E+02  0.16079598046E+02  0.20085378864E+03  0.21344280454E+03  0.00000000000E+00 0.  1.
        -11    1    5    5    0    0  0.13748521351E+03  0.16944617204E+03  0.45145637113E+03  0.50142501352E+03  0.00000000000E+00 0. -1.
          4    1    6    6  503    0  0.31221923334E+03  0.86348696801E+02 -0.89273056309E+02  0.33601581166E+03  0.00000000000E+00 0. -1.
         -4    1    6    6    0  503  0.30577396942E+03  0.14071775257E+03 -0.17760077343E+02  0.33706768847E+03  0.00000000000E+00 0.  1.
<mgrwt>
<rscale>  0 0.25857104E+04</rscale>
<asrwt>0</asrwt>
<pdfrwt beam="1">  1        2 0.18201888E+00 0.25857104E+04</pdfrwt>
<pdfrwt beam="2">  1       -1 0.21734848E+00 0.25857104E+04</pdfrwt>
<totfact> 0.22435184E+00</totfact>
</mgrwt>
</event>
<event>
12    6  0.1538774E-007  0.1558520E+04  0.7818608E-02  0.8846444E-01
          2   -1    0    0  501    0  0.00000000000E+00  0.00000000000E+00  0.29101142945E+04  0.29101142945E+04  0.00000000000E+00 0. -1.
         -1   -1    0    0    0  501 -0.00000000000E+00 -0.00000000000E+00 -0.20866740141E+03  0.20866740141E+03  0.00000000000E+00 0.  1.
         24    2    1    2    0    0 -0.46053851016E+03 -0.22537219480E+03  0.78726239532E+03  0.94236731018E+03  0.73387483094E+02 0.  0.
        254    2    1    2    0    0  0.46053851016E+03  0.22537219480E+03  0.19141844978E+04  0.21764143857E+04  0.89988273755E+03 0.  0.
         23    2    4    4    0    0 -0.64633409459E+02  0.15539390038E+03  0.14607621087E+04  0.14731807510E+04  0.90060229456E+02 0.  0.
         23    2    4    4    0    0  0.52517191962E+03  0.69978294418E+02  0.45342238905E+03  0.70323363473E+03  0.90791933952E+02 0.  0.
          2    1    3    3  502    0 -0.44184683849E+02 -0.48291553338E+02  0.95202553612E+02  0.11553305425E+03  0.00000000000E+00 0. -1.
         -1    1    3    3    0  502 -0.41635382632E+03 -0.17708064146E+03  0.69205984171E+03  0.82683425592E+03  0.00000000000E+00 0.  1.
         11    1    5    5    0    0  0.69041677345E+00 -0.53088476333E+01  0.24973020729E+03  0.24978758371E+03  0.00000000000E+00 0. -1.
        -11    1    5    5    0    0 -0.65323826232E+02  0.16070274801E+03  0.12110319014E+04  0.12233931673E+04  0.00000000000E+00 0.  1.
          1    1    6    6  503    0  0.42068061228E+03  0.79478126460E+02  0.39813077870E+03  0.58463413096E+03  0.00000000000E+00 0. -1.
         -1    1    6    6    0  503  0.10449130734E+03 -0.94998320422E+01  0.55291610347E+02  0.11859950377E+03  0.00000000000E+00 0.  1.
<mgrwt>
<rscale>  0 0.15585198E+04</rscale>
<asrwt>0</asrwt>
<pdfrwt beam="1">  1        2 0.44770986E+00 0.15585198E+04</pdfrwt>
<pdfrwt beam="2">  1       -1 0.32102679E-01 0.15585198E+04</pdfrwt>
<totfact> 0.19750582E+01</totfact>
</mgrwt>
</event>
<event>
12    6  0.1538774E-007  0.1477538E+04  0.7818608E-02  0.8899529E-01
          2   -1    0    0  501    0  0.00000000000E+00  0.00000000000E+00  0.31331400698E+04  0.31331400698E+04  0.00000000000E+00 0. -1.
         -1   -1    0    0    0  501 -0.00000000000E+00 -0.00000000000E+00 -0.17419570149E+03  0.17419570149E+03  0.00000000000E+00 0.  1.
         24    2    1    2    0    0  0.32699880822E+03 -0.18358963406E+02  0.16564831580E+04  0.16904136622E+04  0.79351273189E+02 0.  0.
        254    2    1    2    0    0 -0.32699880822E+03  0.18358963406E+02  0.13024612103E+04  0.16169221091E+04  0.90042580502E+03 0.  0.
         23    2    4    4    0    0 -0.48723140886E+03  0.32911858442E+03  0.84528296775E+03  0.10339011804E+04  0.93460509701E+02 0.  0.
         23    2    4    4    0    0  0.16023260064E+03 -0.31075962101E+03  0.45717824255E+03  0.58302092867E+03  0.93034560510E+02 0.  0.
          4    1    3    3  502    0  0.91125414881E+02  0.22096478333E+02  0.59038011602E+03  0.59777987335E+03  0.00000000000E+00 0. -1.
         -3    1    3    3    0  502  0.23587339334E+03 -0.40455441739E+02  0.10661030420E+04  0.10926337889E+04  0.00000000000E+00 0.  1.
         11    1    5    5    0    0 -0.11466392691E+03  0.42125857889E+02  0.21812241801E+03  0.24999958655E+03  0.00000000000E+00 0.  1.
        -11    1    5    5    0    0 -0.37256748196E+03  0.28699272653E+03  0.62716054974E+03  0.78390159385E+03  0.00000000000E+00 0. -1.
          3    1    6    6  503    0  0.16696322245E+03 -0.31103805124E+03  0.45510961034E+03  0.57597408310E+03  0.00000000000E+00 0. -1.
         -3    1    6    6    0  503 -0.67306218143E+01  0.27843022670E+00  0.20686322097E+01  0.70468455792E+01  0.00000000000E+00 0.  1.
<mgrwt>
<rscale>  0 0.14775379E+04</rscale>
<asrwt>0</asrwt>
<pdfrwt beam="1">  1        2 0.48202151E+00 0.14775379E+04</pdfrwt>
<pdfrwt beam="2">  1       -1 0.26799341E-01 0.14775379E+04</pdfrwt>
<totfact> 0.19805945E+01</totfact>
</mgrwt>
</event>
<event>
12    6  0.1538774E-007  0.1938482E+04  0.7818608E-02  0.8635935E-01
         -1   -1    0    0    0  501 -0.00000000000E+00  0.00000000000E+00  0.18757222539E+04  0.18757222539E+04  0.00000000000E+00 0.  1.
          2   -1    0    0  501    0  0.00000000000E+00 -0.00000000000E+00 -0.50083533108E+03  0.50083533108E+03  0.00000000000E+00 0. -1.
         24    2    1    2    0    0 -0.16111004882E+03  0.72418937762E+03  0.74762476106E+03  0.10562596566E+04  0.79592564768E+02 0.  0.
        254    2    1    2    0    0  0.16111004882E+03 -0.72418937762E+03  0.62726216174E+03  0.13202979283E+04  0.89404815170E+03 0.  0.
         23    2    4    4    0    0  0.19312298357E+03 -0.33537212537E+02  0.58232052530E+03  0.62124539372E+03  0.91800945683E+02 0.  0.
         23    2    4    4    0    0 -0.32012934755E+02 -0.69065216508E+03  0.44941636445E+02  0.69905253463E+03  0.92894856477E+02 0.  0.
          2    1    3    3  502    0 -0.47114541965E+02  0.88425234895E+02  0.96099034271E+02  0.13883020787E+03  0.00000000000E+00 0. -1.
         -1    1    3    3    0  502 -0.11399550686E+03  0.63576414272E+03  0.65152572679E+03  0.91742944875E+03  0.00000000000E+00 0.  1.
         11    1    5    5    0    0  0.10425455922E+03 -0.63163960830E+02  0.30134441952E+03  0.32506485236E+03  0.00000000000E+00 0.  1.
        -11    1    5    5    0    0  0.88868424359E+02  0.29626748293E+02  0.28097610578E+03  0.29618054136E+03  0.00000000000E+00 0. -1.
          1    1    6    6  503    0 -0.41327302210E+02 -0.49779287563E+03  0.69860514886E+02  0.50436711281E+03  0.00000000000E+00 0. -1.
         -1    1    6    6    0  503  0.93143674554E+01 -0.19285928945E+03 -0.24918878441E+02  0.19468542182E+03  0.00000000000E+00 0.  1.
<mgrwt>
<rscale>  0 0.19384819E+04</rscale>
<asrwt>0</asrwt>
<pdfrwt beam="1">  1        2 0.77051590E-01 0.19384819E+04</pdfrwt>
<pdfrwt beam="2">  1       -1 0.28857265E+00 0.19384819E+04</pdfrwt>
<totfact> 0.25692525E+00</totfact>
</mgrwt>
</event>
<event>
12    6  0.1538774E-007  0.1548385E+04  0.7818608E-02  0.8852900E-01
          2   -1    0    0  501    0  0.00000000000E+00  0.00000000000E+00  0.14303404906E+04  0.14303404906E+04  0.00000000000E+00 0. -1.
         -3   -1    0    0    0  501 -0.00000000000E+00 -0.00000000000E+00 -0.41904297519E+03  0.41904297519E+03  0.00000000000E+00 0.  1.
         24    2    1    2    0    0  0.38274412054E+03 -0.20588937766E+03  0.65889771365E+03  0.79331651712E+03  0.79507242687E+02 0.  0.
        254    2    1    2    0    0 -0.38274412054E+03  0.20588937766E+03  0.35239980176E+03  0.10560669487E+04  0.89566080753E+03 0.  0.
         23    2    4    4    0    0  0.18036837847E+02 -0.30861338359E+03  0.32110097844E+02  0.32363464175E+03  0.90226242917E+02 0.  0.
         23    2    4    4    0    0 -0.40078095839E+03  0.51450276125E+03  0.32028970392E+03  0.73243230692E+03  0.92374898343E+02 0.  0.
          4    1    3    3  502    0  0.30012923209E+03 -0.19316779691E+03  0.55665607920E+03  0.66125437180E+03  0.00000000000E+00 0. -1.
         -3    1    3    3    0  502  0.82614888456E+02 -0.12721580750E+02  0.10224163446E+03  0.13206214533E+03  0.00000000000E+00 0.  1.
         11    1    5    5    0    0  0.95633780016E+01 -0.25206974508E+03  0.61077662698E+02  0.25954016156E+03  0.00000000000E+00 0. -1.
        -11    1    5    5    0    0  0.84734598450E+01 -0.56543638510E+02 -0.28967564854E+02  0.64094480193E+02  0.00000000000E+00 0.  1.
          1    1    6    6  503    0 -0.33114119066E+03  0.37246438446E+03  0.26770475169E+03  0.56572965268E+03  0.00000000000E+00 0. -1.
         -1    1    6    6    0  503 -0.69639767727E+02  0.14203837679E+03  0.52584952227E+02  0.16670265424E+03  0.00000000000E+00 0.  1.
<mgrwt>
<rscale>  0 0.15483851E+04</rscale>
<asrwt>0</asrwt>
<pdfrwt beam="1">  1        2 0.22005238E+00 0.15483851E+04</pdfrwt>
<pdfrwt beam="2">  1       -3 0.64468150E-01 0.15483851E+04</pdfrwt>
<totfact> 0.19918211E+01</totfact>
</mgrwt>
</event>
<event>
12    6  0.1538774E-007  0.3065635E+04  0.7818608E-02  0.8225233E-01
         -1   -1    0    0    0  501 -0.00000000000E+00  0.00000000000E+00  0.92188198017E+03  0.92188198017E+03  0.00000000000E+00 0.  1.
          2   -1    0    0  501    0  0.00000000000E+00 -0.00000000000E+00 -0.25486229913E+04  0.25486229913E+04  0.00000000000E+00 0. -1.
         24    2    1    2    0    0 -0.38714893675E+03 -0.13131787858E+04 -0.41868731619E+03  0.14345572948E+04  0.91283847265E+02 0.  0.
        254    2    1    2    0    0  0.38714893675E+03  0.13131787858E+04 -0.12080536950E+04  0.20359476767E+04  0.90075878539E+03 0.  0.
         23    2    4    4    0    0 -0.25070688770E+03  0.21631981869E+03 -0.12740698093E+03  0.36680179393E+03  0.93074216284E+02 0.  0.
         23    2    4    4    0    0  0.63785582445E+03  0.10968589671E+04 -0.10806467140E+04  0.16691458827E+04  0.91054987725E+02 0.  0.
          4    1    3    3  502    0 -0.21690889895E+03 -0.81688898030E+03 -0.29787925300E+03  0.89615240107E+03  0.00000000000E+00 0. -1.
         -3    1    3    3    0  502 -0.17024003780E+03 -0.49628980550E+03 -0.12080806318E+03  0.53840489378E+03  0.00000000000E+00 0.  1.
         11    1    5    5    0    0 -0.12001517902E+02 -0.20226449621E+01  0.95823696185E+01  0.15490297999E+02  0.00000000000E+00 0. -1.
        -11    1    5    5    0    0 -0.23870536980E+03  0.21834246366E+03 -0.13698935055E+03  0.35131149593E+03  0.00000000000E+00 0.  1.
          1    1    6    6  503    0  0.33990556443E+03  0.50200669120E+03 -0.53974669653E+03  0.81170992797E+03  0.00000000000E+00 0. -1.
         -1    1    6    6    0  503  0.29795026001E+03  0.59485227590E+03 -0.54090001751E+03  0.85743595477E+03  0.00000000000E+00 0.  1.
<mgrwt>
<rscale>  0 0.30656351E+04</rscale>
<asrwt>0</asrwt>
<pdfrwt beam="1">  1        2 0.39209585E+00 0.30656351E+04</pdfrwt>
<pdfrwt beam="2">  1       -1 0.14182800E+00 0.30656351E+04</pdfrwt>
<totfact> 0.12782180E+00</totfact>
</mgrwt>
</event>
<event>
12    6  0.1538774E-007  0.1501055E+04  0.7818608E-02  0.8883752E-01
         -1   -1    0    0    0  501 -0.00000000000E+00  0.00000000000E+00  0.11033492309E+04  0.11033492309E+04  0.00000000000E+00 0.  1.
          2   -1    0    0  501    0  0.00000000000E+00 -0.00000000000E+00 -0.51052884619E+03  0.51052884619E+03  0.00000000000E+00 0. -1.
         24    2    1    2    0    0  0.19730804535E+03 -0.29866741383E+03 -0.14291365806E+03  0.39355806626E+03  0.79567260942E+02 0.  0.
        254    2    1    2    0    0 -0.19730804535E+03  0.29866741383E+03  0.73573404281E+03  0.12203200109E+04  0.90539696173E+03 0.  0.
         23    2    4    4    0    0 -0.30935898812E+03  0.56305248497E+03  0.37076319087E+03  0.74730552856E+03  0.90934729046E+02 0.  0.
         23    2    4    4    0    0  0.11205094277E+03 -0.26438507114E+03  0.36497085195E+03  0.47301448231E+03  0.89911612653E+02 0.  0.
          2    1    3    3  502    0  0.20159206406E+03 -0.27770198983E+03 -0.12362068795E+03  0.36474625418E+03  0.00000000000E+00 0. -1.
         -1    1    3    3    0  502 -0.42840187045E+01 -0.20965423998E+02 -0.19292970118E+02  0.28811812086E+02  0.00000000000E+00 0.  1.
         11    1    5    5    0    0 -0.28922227134E+03  0.52481224950E+03  0.36965056866E+03  0.70407312289E+03  0.00000000000E+00 0.  1.
        -11    1    5    5    0    0 -0.20136716785E+02  0.38240235469E+02  0.11126222058E+01  0.43232405667E+02  0.00000000000E+00 0. -1.
          3    1    6    6  503    0 -0.87141692793E+00 -0.87992788099E+02  0.76965803170E+02  0.11690690733E+03  0.00000000000E+00 0. -1.
         -3    1    6    6    0  503  0.11292235970E+03 -0.17639228304E+03  0.28800504878E+03  0.35610757498E+03  0.00000000000E+00 0.  1.
<mgrwt>
<rscale>  0 0.15010551E+04</rscale>
<asrwt>0</asrwt>
<pdfrwt beam="1">  1        2 0.78542899E-01 0.15010551E+04</pdfrwt>
<pdfrwt beam="2">  1       -1 0.16974604E+00 0.15010551E+04</pdfrwt>
<totfact> 0.16402483E+01</totfact>
</mgrwt>
</event>
<event>
12    6  0.1538774E-007  0.1370063E+04  0.7818608E-02  0.8975778E-01
         -1   -1    0    0    0  501 -0.00000000000E+00  0.00000000000E+00  0.24661847787E+03  0.24661847787E+03  0.00000000000E+00 0.  1.
          2   -1    0    0  501    0  0.00000000000E+00 -0.00000000000E+00 -0.19028088734E+04  0.19028088734E+04  0.00000000000E+00 0. -1.
         24    2    1    2    0    0 -0.31211944833E+03 -0.39225726668E+02 -0.12920549787E+03  0.34866635889E+03  0.76921788097E+02 0.  0.
        254    2    1    2    0    0  0.31211944833E+03  0.39225726668E+02 -0.15269848977E+04  0.18007609924E+04  0.90116594829E+03 0.  0.
         23    2    4    4    0    0  0.48814787361E+03  0.18688258495E+03 -0.14457198837E+04  0.15400164420E+04  0.91275475567E+02 0.  0.
         23    2    4    4    0    0 -0.17602842528E+03 -0.14765685829E+03 -0.81265014002E+02  0.26074455042E+03  0.92710106089E+02 0.  0.
          4    1    3    3  502    0 -0.74257620466E+02 -0.92053897860E+01 -0.68280898863E+02  0.10129765322E+03  0.00000000000E+00 0. -1.
         -3    1    3    3    0  502 -0.23786182787E+03 -0.30020336882E+02 -0.60924599012E+02  0.24736870567E+03  0.00000000000E+00 0.  1.
         11    1    5    5    0    0  0.24497738338E+03  0.86931446206E+02 -0.58773224188E+03  0.64265090279E+03  0.00000000000E+00 0. -1.
        -11    1    5    5    0    0  0.24317049023E+03  0.99951138749E+02 -0.85798764177E+03  0.89736553917E+03  0.00000000000E+00 0.  1.
          1    1    6    6  503    0 -0.12591512162E+03 -0.82566360896E+02 -0.94163632170E+02  0.17759113555E+03  0.00000000000E+00 0. -1.
         -1    1    6    6    0  503 -0.50113303655E+02 -0.65090497391E+02  0.12898618168E+02  0.83153414869E+02  0.00000000000E+00 0.  1.
<mgrwt>
<rscale>  0 0.13700625E+04</rscale>
<asrwt>0</asrwt>
<pdfrwt beam="1">  1        2 0.29273984E+00 0.13700625E+04</pdfrwt>
<pdfrwt beam="2">  1       -1 0.37941303E-01 0.13700625E+04</pdfrwt>
<totfact> 0.56410331E+01</totfact>
</mgrwt>
</event>
<event>
12    6  0.1538774E-007  0.2196233E+04  0.7818608E-02  0.8519998E-01
         -1   -1    0    0    0  501 -0.00000000000E+00  0.00000000000E+00  0.46591755735E+03  0.46591755735E+03  0.00000000000E+00 0.  1.
          2   -1    0    0  501    0  0.00000000000E+00 -0.00000000000E+00 -0.25881388259E+04  0.25881388259E+04  0.00000000000E+00 0. -1.
         24    2    1    2    0    0 -0.22743310619E+03  0.44119353278E+03 -0.19458103596E+04  0.20098237001E+04  0.82678888140E+02 0.  0.
        254    2    1    2    0    0  0.22743310619E+03 -0.44119353278E+03 -0.17641090893E+03  0.10442326832E+04  0.90162272415E+03 0.  0.
         23    2    4    4    0    0  0.52233249213E+02 -0.69402032772E+03 -0.67564022394E+02  0.70527636605E+03  0.91963730788E+02 0.  0.
         23    2    4    4    0    0  0.17519985697E+03  0.25282679494E+03 -0.10884688654E+03  0.33895631714E+03  0.91800665006E+02 0.  0.
          4    1    3    3  502    0 -0.10777167376E+03  0.29626163211E+03 -0.12170802257E+04  0.12572469782E+04  0.00000000000E+00 0. -1.
         -3    1    3    3    0  502 -0.11966143243E+03  0.14493190067E+03 -0.72873013393E+03  0.75257672190E+03  0.00000000000E+00 0.  1.
         11    1    5    5    0    0  0.89276994577E+01 -0.48438511744E+03 -0.14255953806E+02  0.48467708636E+03  0.00000000000E+00 0. -1.
        -11    1    5    5    0    0  0.43305549755E+02 -0.20963521028E+03 -0.53308068588E+02  0.22059927970E+03  0.00000000000E+00 0.  1.
          2    1    6    6  503    0  0.17637445518E+03  0.24612774686E+03 -0.85498599571E+02  0.31463761178E+03  0.00000000000E+00 0. -1.
         -2    1    6    6    0  503 -0.11745982091E+01  0.66990480788E+01 -0.23348286968E+02  0.24318705362E+02  0.00000000000E+00 0.  1.
<mgrwt>
<rscale>  0 0.21962325E+04</rscale>
<asrwt>0</asrwt>
<pdfrwt beam="1">  1        2 0.39817520E+00 0.21962325E+04</pdfrwt>
<pdfrwt beam="2">  1       -1 0.71679624E-01 0.21962325E+04</pdfrwt>
<totfact> 0.63229881E+00</totfact>
</mgrwt>
</event>
<event>
12    6  0.1538774E-007  0.2342875E+04  0.7818608E-02  0.8461205E-01
          2   -1    0    0  501    0  0.00000000000E+00  0.00000000000E+00  0.16562218599E+04  0.16562218599E+04  0.00000000000E+00 0. -1.
         -1   -1    0    0    0  501 -0.00000000000E+00 -0.00000000000E+00 -0.82855189545E+03  0.82855189545E+03  0.00000000000E+00 0.  1.
         24    2    1    2    0    0  0.10730399122E+03 -0.47342469326E+03  0.12799196670E+04  0.13711491381E+04  0.78806841411E+02 0.  0.
        254    2    1    2    0    0 -0.10730399122E+03  0.47342469326E+03 -0.45224970254E+03  0.11136246172E+04  0.89441875425E+03 0.  0.
         23    2    4    4    0    0  0.27917272496E+03  0.49600014068E+03 -0.41635404434E+03  0.71203675904E+03  0.98448494495E+02 0.  0.
         23    2    4    4    0    0 -0.38647671618E+03 -0.22575447420E+02 -0.35895658202E+02  0.40158785820E+03  0.10055051764E+03 0.  0.
          2    1    3    3  502    0  0.11438022433E+03 -0.40460618672E+03  0.10503340272E+04  0.11313666827E+04  0.00000000000E+00 0. -1.
         -1    1    3    3    0  502 -0.70762331108E+01 -0.68818506546E+02  0.22958563977E+03  0.23978245537E+03  0.00000000000E+00 0.  1.
         11    1    5    5    0    0  0.58862293552E+02  0.16333726089E+03 -0.84612533215E+02  0.19314013351E+03  0.00000000000E+00 0.  1.
        -11    1    5    5    0    0  0.22031043141E+03  0.33266287980E+03 -0.33174151112E+03  0.51889662553E+03  0.00000000000E+00 0. -1.
          2    1    6    6  503    0 -0.29163283945E+03  0.11784192916E+02  0.70376892810E+01  0.29195566328E+03  0.00000000000E+00 0. -1.
         -2    1    6    6    0  503 -0.94843876733E+02 -0.34359640337E+02 -0.42933347483E+02  0.10963219492E+03  0.00000000000E+00 0.  1.
<mgrwt>
<rscale>  0 0.23428750E+04</rscale>
<asrwt>0</asrwt>
<pdfrwt beam="1">  1        2 0.25480336E+00 0.23428750E+04</pdfrwt>
<pdfrwt beam="2">  1       -1 0.12746952E+00 0.23428750E+04</pdfrwt>
<totfact> 0.56872906E+00</totfact>
</mgrwt>
</event>
<event>
12    6  0.1538774E-007  0.3181748E+04  0.7818608E-02  0.8193654E-01
          2   -1    0    0  501    0  0.00000000000E+00  0.00000000000E+00  0.13315985488E+04  0.13315985488E+04  0.00000000000E+00 0. -1.
         -1   -1    0    0    0  501 -0.00000000000E+00 -0.00000000000E+00 -0.19006334198E+04  0.19006334198E+04  0.00000000000E+00 0.  1.
         24    2    1    2    0    0  0.51941412873E+03  0.10842178456E+04 -0.11035885885E+04  0.16339160269E+04  0.80339507709E+02 0.  0.
        254    2    1    2    0    0 -0.51941412873E+03 -0.10842178456E+04  0.53455371749E+03  0.15983159416E+04  0.90749479256E+03 0.  0.
         23    2    4    4    0    0 -0.25865826325E+03 -0.61465593845E+03 -0.18349174092E+03  0.69709849691E+03  0.87011927850E+02 0.  0.
         23    2    4    4    0    0 -0.26075586548E+03 -0.46956190714E+03  0.71804545841E+03  0.90121744471E+03  0.90119899472E+02 0.  0.
          4    1    3    3  502    0  0.25834692742E+01  0.27927655320E+02 -0.36069210303E+02  0.45690438573E+02  0.00000000000E+00 0. -1.
         -3    1    3    3    0  502  0.51683065946E+03  0.10562901903E+04 -0.10675193782E+04  0.15882255884E+04  0.00000000000E+00 0.  1.
         11    1    5    5    0    0 -0.37747706839E+02 -0.19016094754E+03 -0.58561104559E+02  0.20252278466E+03  0.00000000000E+00 0. -1.
        -11    1    5    5    0    0 -0.22091055642E+03 -0.42449499091E+03 -0.12493063636E+03  0.49457571225E+03  0.00000000000E+00 0.  1.
          4    1    6    6  503    0 -0.22947702899E+03 -0.45604302196E+03  0.67465440837E+03  0.84604581167E+03  0.00000000000E+00 0. -1.
         -4    1    6    6    0  503 -0.31278836485E+02 -0.13518885189E+02  0.43391050039E+02  0.55171633038E+02  0.00000000000E+00 0.  1.
<mgrwt>
<rscale>  0 0.31817484E+04</rscale>
<asrwt>0</asrwt>
<pdfrwt beam="1">  1        2 0.20486132E+00 0.31817484E+04</pdfrwt>
<pdfrwt beam="2">  1       -1 0.29240514E+00 0.31817484E+04</pdfrwt>
<totfact> 0.56289566E-01</totfact>
</mgrwt>
</event>
<event>
12    6  0.1538774E-007  0.1322125E+04  0.7818608E-02  0.9012201E-01
         -1   -1    0    0    0  501 -0.00000000000E+00  0.00000000000E+00  0.43135031133E+03  0.43135031133E+03  0.00000000000E+00 0.  1.
          2   -1    0    0  501    0  0.00000000000E+00 -0.00000000000E+00 -0.10131063033E+04  0.10131063033E+04  0.00000000000E+00 0. -1.
         24    2    1    2    0    0  0.26546815553E+03  0.19614165118E+03 -0.31213857866E+03  0.46106506808E+03  0.78775730984E+02 0.  0.
        254    2    1    2    0    0 -0.26546815553E+03 -0.19614165118E+03 -0.26961741328E+03  0.98339154652E+03  0.88623952479E+03 0.  0.
         23    2    4    4    0    0 -0.22774457588E+03 -0.48673413024E+03  0.39691687964E+02  0.54628470568E+03  0.89854572373E+02 0.  0.
         23    2    4    4    0    0 -0.37723579651E+02  0.29059247907E+03 -0.30930910124E+03  0.43710684084E+03  0.97586950191E+02 0.  0.
          4    1    3    3  502    0  0.19492299400E+03  0.17712380900E+03 -0.26773827896E+03  0.37556837371E+03  0.00000000000E+00 0. -1.
         -3    1    3    3    0  502  0.70545161529E+02  0.19017842172E+02 -0.44400299691E+02  0.85496694373E+02  0.00000000000E+00 0.  1.
         11    1    5    5    0    0 -0.26979374637E+02 -0.26473732692E+02 -0.16036864644E+02  0.41060031735E+02  0.00000000000E+00 0.  1.
        -11    1    5    5    0    0 -0.20076520125E+03 -0.46026039755E+03  0.55728552608E+02  0.50522467394E+03  0.00000000000E+00 0. -1.
          4    1    6    6  503    0 -0.27818591918E+02  0.21999143932E+03 -0.16583391171E+03  0.27689527570E+03  0.00000000000E+00 0.  1.
         -4    1    6    6    0  503 -0.99049877337E+01  0.70601039749E+02 -0.14347518953E+03  0.16021156514E+03  0.00000000000E+00 0. -1.
<mgrwt>
<rscale>  0 0.13221251E+04</rscale>
<asrwt>0</asrwt>
<pdfrwt beam="1">  1        2 0.15586251E+00 0.13221251E+04</pdfrwt>
<pdfrwt beam="2">  1       -1 0.66361587E-01 0.13221251E+04</pdfrwt>
<totfact> 0.63476265E+01</totfact>
</mgrwt>
</event>
<event>
12    6  0.1538774E-007  0.2087115E+04  0.7818608E-02  0.8566941E-01
         -1   -1    0    0    0  501 -0.00000000000E+00  0.00000000000E+00  0.88328379382E+03  0.88328379382E+03  0.00000000000E+00 0.  1.
          2   -1    0    0  501    0  0.00000000000E+00 -0.00000000000E+00 -0.12329126214E+04  0.12329126214E+04  0.00000000000E+00 0. -1.
         24    2    1    2    0    0 -0.45219566959E+03  0.19795839394E+03  0.55192533949E+03  0.74465521255E+03  0.78875572144E+02 0.  0.
        254    2    1    2    0    0  0.45219566959E+03 -0.19795839394E+03 -0.90155416711E+03  0.13715412027E+04  0.90810621909E+03 0.  0.
         23    2    4    4    0    0  0.59141117195E+03 -0.11004316564E+03 -0.19375194882E+03  0.63895612060E+03  0.94066113775E+02 0.  0.
         23    2    4    4    0    0 -0.13921550236E+03 -0.87915228304E+02 -0.70780221829E+03  0.73258508211E+03  0.92665413434E+02 0.  0.
          2    1    3    3  502    0 -0.14379954165E+03  0.24331551115E+02  0.16894427338E+03  0.22318714135E+03  0.00000000000E+00 0. -1.
         -1    1    3    3    0  502 -0.30839612794E+03  0.17362684283E+03  0.38298106612E+03  0.52146807120E+03  0.00000000000E+00 0.  1.
         11    1    5    5    0    0  0.10635657556E+02  0.29130292404E+01 -0.19106494370E+02  0.22060396146E+02  0.00000000000E+00 0.  1.
        -11    1    5    5    0    0  0.58077551440E+03 -0.11295619488E+03 -0.17464545445E+03  0.61689572445E+03  0.00000000000E+00 0. -1.
          4    1    6    6  503    0 -0.13558900149E+03 -0.99618963446E+02 -0.69411120144E+03  0.71421192595E+03  0.00000000000E+00 0. -1.
         -4    1    6    6    0  503 -0.36265008756E+01  0.11703735142E+02 -0.13691016845E+02  0.18373156156E+02  0.00000000000E+00 0.  1.
<mgrwt>
<rscale>  0 0.20871145E+04</rscale>
<asrwt>0</asrwt>
<pdfrwt beam="1">  1        2 0.18967886E+00 0.20871145E+04</pdfrwt>
<pdfrwt beam="2">  1       -1 0.13588982E+00 0.20871145E+04</pdfrwt>
<totfact> 0.86243810E+00</totfact>
</mgrwt>
</event>
<event>
12    6  0.1538774E-007  0.1088795E+04  0.7818608E-02  0.9216182E-01
          2   -1    0    0  501    0  0.00000000000E+00  0.00000000000E+00  0.12043253490E+04  0.12043253490E+04  0.00000000000E+00 0. -1.
         -1   -1    0    0    0  501 -0.00000000000E+00 -0.00000000000E+00 -0.24608679144E+03  0.24608679144E+03  0.00000000000E+00 0.  1.
         24    2    1    2    0    0  0.90983079987E+02 -0.77680193083E+02  0.13309172833E+01  0.14249592260E+03  0.77402734943E+02 0.  0.
        254    2    1    2    0    0 -0.90983079987E+02  0.77680193083E+02  0.95690764023E+03  0.13079162178E+04  0.88354992367E+03 0.  0.
         23    2    4    4    0    0  0.24200155967E+03  0.32969607258E+03  0.26884950835E+03  0.49815811385E+03  0.92828837658E+02 0.  0.
         23    2    4    4    0    0 -0.33298463965E+03 -0.25201587950E+03  0.68805813188E+03  0.80975810395E+03  0.88844922758E+02 0.  0.
          4    1    3    3  502    0 -0.35271139577E+01 -0.40224270898E+02  0.54840275706E+01  0.40749319755E+02  0.00000000000E+00 0. -1.
         -3    1    3    3    0  502  0.94510193944E+02 -0.37455922186E+02 -0.41531102873E+01  0.10174660285E+03  0.00000000000E+00 0.  1.
         11    1    5    5    0    0  0.10418520236E+03  0.76937522797E+02  0.61522619108E+02  0.14338400004E+03  0.00000000000E+00 0. -1.
        -11    1    5    5    0    0  0.13781635730E+03  0.25275854978E+03  0.20732688924E+03  0.35477411381E+03  0.00000000000E+00 0.  1.
          1    1    6    6  503    0 -0.74213692676E+02 -0.24036121437E+02  0.17455353947E+03  0.19119190740E+03  0.00000000000E+00 0. -1.
         -1    1    6    6    0  503 -0.25877094698E+03 -0.22797975806E+03  0.51350459242E+03  0.61856619655E+03  0.00000000000E+00 0.  1.
<mgrwt>
<rscale>  0 0.10887949E+04</rscale>
<asrwt>0</asrwt>
<pdfrwt beam="1">  1        2 0.18528082E+00 0.10887949E+04</pdfrwt>
<pdfrwt beam="2">  1       -1 0.37859507E-01 0.10887949E+04</pdfrwt>
<totfact> 0.14344784E+02</totfact>
</mgrwt>
</event>
<event>
12    6  0.1538774E-007  0.1332718E+04  0.7818608E-02  0.9004015E-01
         -1   -1    0    0    0  501 -0.00000000000E+00  0.00000000000E+00  0.20292299247E+03  0.20292299247E+03  0.00000000000E+00 0.  1.
          2   -1    0    0  501    0  0.00000000000E+00 -0.00000000000E+00 -0.21881900668E+04  0.21881900668E+04  0.00000000000E+00 0. -1.
         24    2    1    2    0    0  0.34059647231E+03  0.12337847399E+02 -0.73016501554E+03  0.80941493477E+03  0.76507563545E+02 0.  0.
        254    2    1    2    0    0 -0.34059647231E+03 -0.12337847399E+02 -0.12551020588E+04  0.15816981245E+04  0.90018309228E+03 0.  0.
         23    2    4    4    0    0 -0.51589064172E+03  0.21449477937E+03 -0.45278544416E+03  0.72475253755E+03  0.90002320305E+02 0.  0.
         23    2    4    4    0    0  0.17529416941E+03 -0.22683262676E+03 -0.80231661461E+03  0.85694558692E+03  0.91992947982E+02 0.  0.
          4    1    3    3  502    0  0.24816302135E+03  0.41989097290E+01 -0.60224373323E+03  0.65138316698E+03  0.00000000000E+00 0. -1.
         -3    1    3    3    0  502  0.92433450964E+02  0.81389376698E+01 -0.12792128231E+03  0.15803176779E+03  0.00000000000E+00 0.  1.
         11    1    5    5    0    0 -0.27152992879E+03  0.11451054248E+03 -0.29601999344E+03  0.41769486840E+03  0.00000000000E+00 0. -1.
        -11    1    5    5    0    0 -0.24436071294E+03  0.99984236882E+02 -0.15676545071E+03  0.30705766916E+03  0.00000000000E+00 0.  1.
          1    1    6    6  503    0  0.78003194000E+02 -0.43798984540E+02 -0.17980343131E+03  0.20082859167E+03  0.00000000000E+00 0. -1.
         -1    1    6    6    0  503  0.97290975408E+02 -0.18303364222E+03 -0.62251318330E+03  0.65611699526E+03  0.00000000000E+00 0.  1.
<mgrwt>
<rscale>  0 0.13327176E+04</rscale>
<asrwt>0</asrwt>
<pdfrwt beam="1">  1        2 0.33664459E+00 0.13327176E+04</pdfrwt>
<pdfrwt beam="2">  1       -1 0.31218926E-01 0.13327176E+04</pdfrwt>
<totfact> 0.55660888E+01</totfact>
</mgrwt>
</event>
<event>
12    6  0.1538774E-007  0.1479652E+04  0.7818608E-02  0.8898098E-01
         -1   -1    0    0    0  501 -0.00000000000E+00  0.00000000000E+00  0.18825873901E+03  0.18825873901E+03  0.00000000000E+00 0.  1.
          2   -1    0    0  501    0  0.00000000000E+00 -0.00000000000E+00 -0.29073940834E+04  0.29073940834E+04  0.00000000000E+00 0. -1.
         24    2    1    2    0    0  0.27416339460E+03 -0.29528581451E+03 -0.13388401708E+04  0.14004355624E+04  0.79796505476E+02 0.  0.
        254    2    1    2    0    0 -0.27416339460E+03  0.29528581451E+03 -0.13802951735E+04  0.16952172600E+04  0.89787945360E+03 0.  0.
         23    2    4    4    0    0 -0.30445933619E+03 -0.14858703180E+03 -0.11149693044E+04  0.11689823759E+04  0.92680375511E+02 0.  0.
         23    2    4    4    0    0  0.30295941590E+02  0.44387284631E+03 -0.26532586913E+03  0.52623488405E+03  0.92651975677E+02 0.  0.
          4    1    3    3  502    0  0.12618620199E+03 -0.18741955295E+03 -0.80229870066E+03  0.83350599967E+03  0.00000000000E+00 0. -1.
         -3    1    3    3    0  502  0.14797719261E+03 -0.10786626156E+03 -0.53654147016E+03  0.56692956274E+03  0.00000000000E+00 0.  1.
         11    1    5    5    0    0 -0.18203765763E+03 -0.13368316354E+03 -0.65889527644E+03  0.69652845048E+03  0.00000000000E+00 0. -1.
        -11    1    5    5    0    0 -0.12242167856E+03 -0.14903868262E+02 -0.45607402797E+03  0.47245392543E+03  0.00000000000E+00 0.  1.
          2    1    6    6  503    0 -0.12935846459E+02  0.77401500735E+01 -0.16109887547E+02  0.22062967242E+02  0.00000000000E+00 0. -1.
         -2    1    6    6    0  503  0.43231788049E+02  0.43613269623E+03 -0.24921598158E+03  0.50417191681E+03  0.00000000000E+00 0.  1.
<mgrwt>
<rscale>  0 0.14796518E+04</rscale>
<asrwt>0</asrwt>
<pdfrwt beam="1">  1        2 0.44729133E+00 0.14796518E+04</pdfrwt>
<pdfrwt beam="2">  1       -1 0.28962887E-01 0.14796518E+04</pdfrwt>
<totfact> 0.23935756E+01</totfact>
</mgrwt>
</event>
<event>
12    6  0.1538774E-007  0.1864397E+04  0.7818608E-02  0.8672784E-01
          2   -1    0    0  501    0  0.00000000000E+00  0.00000000000E+00  0.24295099524E+04  0.24295099524E+04  0.00000000000E+00 0. -1.
         -1   -1    0    0    0  501 -0.00000000000E+00 -0.00000000000E+00 -0.35768295593E+03  0.35768295593E+03  0.00000000000E+00 0.  1.
         24    2    1    2    0    0  0.66873298798E+02  0.43800103637E+03  0.16052173053E+04  0.16671853501E+04  0.80420446929E+02 0.  0.
        254    2    1    2    0    0 -0.66873298798E+02 -0.43800103637E+03  0.46660969111E+03  0.11200075582E+04  0.91671990306E+03 0.  0.
         23    2    4    4    0    0 -0.53162164553E+02 -0.44389074411E+03 -0.16238224709E+03  0.48458515677E+03  0.92679941434E+02 0.  0.
         23    2    4    4    0    0 -0.13711134246E+02  0.58897077481E+01  0.62899193821E+03  0.63542240144E+03  0.88927420179E+02 0.  0.
          4    1    3    3  502    0  0.84646572588E+02  0.39117258811E+03  0.14251836799E+04  0.14803140064E+04  0.00000000000E+00 0. -1.
         -3    1    3    3    0  502 -0.17773273790E+02  0.46828448258E+02  0.18003362541E+03  0.18687134372E+03  0.00000000000E+00 0.  1.
         11    1    5    5    0    0 -0.81564356184E+01 -0.28911380832E+01 -0.15216245732E+02  0.17504863769E+02  0.00000000000E+00 0. -1.
        -11    1    5    5    0    0 -0.45005728934E+02 -0.44099960603E+03 -0.14716600136E+03  0.46708029300E+03  0.00000000000E+00 0.  1.
          2    1    6    6  503    0  0.24144730597E+02  0.26639889644E+02  0.14052240666E+03  0.14504895211E+03  0.00000000000E+00 0. -1.
         -2    1    6    6    0  503 -0.37855864843E+02 -0.20750181895E+02  0.48846953155E+03  0.49037344933E+03  0.00000000000E+00 0.  1.
<mgrwt>
<rscale>  0 0.18643973E+04</rscale>
<asrwt>0</asrwt>
<pdfrwt beam="1">  1        2 0.37377075E+00 0.18643973E+04</pdfrwt>
<pdfrwt beam="2">  1       -1 0.55028148E-01 0.18643973E+04</pdfrwt>
<totfact> 0.13656112E+01</totfact>
</mgrwt>
</event>
<event>
12    6  0.1538774E-007  0.1451821E+04  0.7818608E-02  0.8917139E-01
          2   -1    0    0  501    0  0.00000000000E+00  0.00000000000E+00  0.15232399265E+04  0.15232399265E+04  0.00000000000E+00 0. -1.
         -1   -1    0    0    0  501 -0.00000000000E+00 -0.00000000000E+00 -0.34593781392E+03  0.34593781392E+03  0.00000000000E+00 0.  1.
         24    2    1    2    0    0  0.18859565390E+03 -0.47181289685E+02  0.86424778744E+03  0.89149704364E+03  0.10024143829E+03 0.  0.
        254    2    1    2    0    0 -0.18859565390E+03  0.47181289685E+02  0.31305432513E+03  0.97768069678E+03  0.90557282402E+03 0.  0.
         23    2    4    4    0    0 -0.43445030808E+03 -0.65982772329E+02  0.47195885764E+03  0.65105327173E+03  0.89579031495E+02 0.  0.
         23    2    4    4    0    0  0.24585465419E+03  0.11316406201E+03 -0.15890453251E+03  0.32662742505E+03  0.90466614982E+02 0.  0.
          4    1    3    3  502    0  0.10920486866E+03  0.22651988565E+02  0.49501576356E+03  0.50742430183E+03  0.00000000000E+00 0. -1.
         -3    1    3    3    0  502  0.79390785241E+02 -0.69833278250E+02  0.36923202389E+03  0.38407274180E+03  0.00000000000E+00 0.  1.
         11    1    5    5    0    0 -0.21984964219E+03 -0.68194195739E+02  0.20254479251E+03  0.30660839270E+03  0.00000000000E+00 0.  1.
        -11    1    5    5    0    0 -0.21460066590E+03  0.22114234105E+01  0.26941406513E+03  0.34444487903E+03  0.00000000000E+00 0. -1.
          1    1    6    6  503    0  0.11490751078E+03  0.52868187530E+02 -0.12645865609E+03  0.17885908695E+03  0.00000000000E+00 0. -1.
         -1    1    6    6    0  503  0.13094714341E+03  0.60295874484E+02 -0.32445876414E+02  0.14776833809E+03  0.00000000000E+00 0.  1.
<mgrwt>
<rscale>  0 0.14518213E+04</rscale>
<asrwt>0</asrwt>
<pdfrwt beam="1">  1        2 0.23434460E+00 0.14518213E+04</pdfrwt>
<pdfrwt beam="2">  1       -1 0.53221203E-01 0.14518213E+04</pdfrwt>
<totfact> 0.48449616E+01</totfact>
</mgrwt>
</event>
<event>
12    6  0.1538774E-007  0.1928454E+04  0.7818608E-02  0.8640821E-01
          2   -1    0    0  501    0  0.00000000000E+00  0.00000000000E+00  0.21695226653E+04  0.21695226653E+04  0.00000000000E+00 0. -1.
         -1   -1    0    0    0  501 -0.00000000000E+00 -0.00000000000E+00 -0.42854313511E+03  0.42854313511E+03  0.00000000000E+00 0.  1.
         24    2    1    2    0    0  0.31519980072E+03 -0.31517237226E+03 -0.12822172826E+03  0.47102330982E+03  0.82082934819E+02 0.  0.
        254    2    1    2    0    0 -0.31519980072E+03  0.31517237226E+03  0.18692012585E+04  0.21270424906E+04  0.91198238668E+03 0.  0.
         23    2    4    4    0    0 -0.54305128571E+02  0.52574367797E+03  0.57377042135E+03  0.78594895273E+03  0.95644121497E+02 0.  0.
         23    2    4    4    0    0 -0.26089467215E+03 -0.21057130571E+03  0.12954308371E+04  0.13410935379E+04  0.89356134845E+02 0.  0.
          2    1    3    3  502    0  0.56091567256E+02 -0.40281396177E+02  0.78555516152E+01  0.69502262455E+02  0.00000000000E+00 0. -1.
         -3    1    3    3    0  502  0.25910823346E+03 -0.27489097608E+03 -0.13607727988E+03  0.40152104736E+03  0.00000000000E+00 0.  1.
         11    1    5    5    0    0 -0.25044700102E+02  0.37197729879E+03  0.46173742335E+03  0.59346086302E+03  0.00000000000E+00 0. -1.
        -11    1    5    5    0    0 -0.29260428469E+02  0.15376637918E+03  0.11203299800E+03  0.19248808971E+03  0.00000000000E+00 0.  1.
          1    1    6    6  503    0 -0.24968085900E+03 -0.21885125060E+03  0.12192700379E+04  0.12636676092E+04  0.00000000000E+00 0. -1.
         -1    1    6    6    0  503 -0.11213813150E+02  0.82799448868E+01  0.76160799271E+02  0.77425928721E+02  0.00000000000E+00 0.  1.
<mgrwt>
<rscale>  0 0.19284543E+04</rscale>
<asrwt>0</asrwt>
<pdfrwt beam="1">  1        2 0.33377271E+00 0.19284543E+04</pdfrwt>
<pdfrwt beam="2">  1       -1 0.65929714E-01 0.19284543E+04</pdfrwt>
<totfact> 0.13326742E+01</totfact>
</mgrwt>
</event>
<event>
12    6  0.1538774E-007  0.1119788E+04  0.7818608E-02  0.9186117E-01
          2   -1    0    0  501    0  0.00000000000E+00  0.00000000000E+00  0.75625718011E+03  0.75625718011E+03  0.00000000000E+00 0. -1.
         -1   -1    0    0    0  501 -0.00000000000E+00 -0.00000000000E+00 -0.41451673966E+03  0.41451673966E+03  0.00000000000E+00 0.  1.
         24    2    1    2    0    0  0.15414093372E+03  0.89838589395E+02  0.30535923954E+02  0.19964306555E+03  0.84228922445E+02 0.  0.
        254    2    1    2    0    0 -0.15414093372E+03 -0.89838589395E+02  0.31120451649E+03  0.97113085422E+03  0.90245026751E+03 0.  0.
         23    2    4    4    0    0 -0.75755435068E+02 -0.10271236234E+03  0.61813851623E+03  0.63800949440E+03  0.93124510044E+02 0.  0.
         23    2    4    4    0    0 -0.78385498657E+02  0.12873772945E+02 -0.30693399974E+03  0.33312135982E+03  0.10223179417E+03 0.  0.
          2    1    3    3  502    0  0.76764610043E+02  0.31377593552E+02 -0.26592193516E+02  0.87089054928E+02  0.00000000000E+00 0. -1.
         -1    1    3    3    0  502  0.77376323681E+02  0.58460995843E+02  0.57128117470E+02  0.11255401062E+03  0.00000000000E+00 0.  1.
         11    1    5    5    0    0 -0.89502724734E+02 -0.71144472419E+02  0.54891259850E+03  0.56069360125E+03  0.00000000000E+00 0.  1.
        -11    1    5    5    0    0  0.13747289666E+02 -0.31567889921E+02  0.69225917730E+02  0.77315893145E+02  0.00000000000E+00 0. -1.
          1    1    6    6  503    0 -0.53697464847E+02 -0.27744476746E+02 -0.74783973904E+02  0.96155168732E+02  0.00000000000E+00 0. -1.
         -1    1    6    6    0  503 -0.24688033810E+02  0.40618249691E+02 -0.23215002584E+03  0.23696619109E+03  0.00000000000E+00 0.  1.
<mgrwt>
<rscale>  0 0.11197879E+04</rscale>
<asrwt>0</asrwt>
<pdfrwt beam="1">  1        2 0.11634726E+00 0.11197879E+04</pdfrwt>
<pdfrwt beam="2">  1       -1 0.63771806E-01 0.11197879E+04</pdfrwt>
<totfact> 0.10476920E+02</totfact>
</mgrwt>
</event>
<event>
12    6  0.1538774E-007  0.1308800E+04  0.7818608E-02  0.9022616E-01
         -1   -1    0    0    0  501 -0.00000000000E+00  0.00000000000E+00  0.83344058903E+03  0.83344058903E+03  0.00000000000E+00 0.  1.
          2   -1    0    0  501    0  0.00000000000E+00 -0.00000000000E+00 -0.51382111098E+03  0.51382111098E+03  0.00000000000E+00 0. -1.
         24    2    1    2    0    0 -0.30783196076E+03 -0.14095450746E+03  0.22257338476E+02  0.34846578625E+03  0.79399784832E+02 0.  0.
        254    2    1    2    0    0  0.30783196076E+03  0.14095450746E+03  0.29736213957E+03  0.99879591376E+03  0.89136992661E+03 0.  0.
         23    2    4    4    0    0  0.49081411631E+03 -0.20435018924E+02 -0.11181022631E+03  0.51158663699E+03  0.88900358138E+02 0.  0.
         23    2    4    4    0    0 -0.18298215555E+03  0.16138952638E+03  0.40917236588E+03  0.48720927677E+03  0.10208724648E+03 0.  0.
          2    1    3    3  502    0 -0.27098443930E+03 -0.11394443881E+03  0.45068964142E+02  0.29740059349E+03  0.00000000000E+00 0. -1.
         -3    1    3    3    0  502 -0.36847521464E+02 -0.27010068648E+02 -0.22811625666E+02  0.51065192763E+02  0.00000000000E+00 0.  1.
         11    1    5    5    0    0  0.25446613073E+03 -0.50070553657E+02 -0.79180079441E+02  0.27116334009E+03  0.00000000000E+00 0. -1.
        -11    1    5    5    0    0  0.23634798558E+03  0.29635534734E+02 -0.32630146868E+02  0.24042329690E+03  0.00000000000E+00 0.  1.
          1    1    6    6  503    0 -0.27692743407E+02  0.85072320214E+02  0.11215577038E+03  0.14346813072E+03  0.00000000000E+00 0. -1.
         -1    1    6    6    0  503 -0.15528941214E+03  0.76317206168E+02  0.29701659550E+03  0.34374114604E+03  0.00000000000E+00 0.  1.
<mgrwt>
<rscale>  0 0.13088000E+04</rscale>
<asrwt>0</asrwt>
<pdfrwt beam="1">  1        2 0.79049402E-01 0.13088000E+04</pdfrwt>
<pdfrwt beam="2">  1       -1 0.12822163E+00 0.13088000E+04</pdfrwt>
<totfact> 0.35092233E+01</totfact>
</mgrwt>
</event>
<event>
12    6  0.1538774E-007  0.2536150E+04  0.7818608E-02  0.8390219E-01
          2   -1    0    0  501    0  0.00000000000E+00  0.00000000000E+00  0.13681867844E+04  0.13681867844E+04  0.00000000000E+00 0. -1.
         -1   -1    0    0    0  501 -0.00000000000E+00 -0.00000000000E+00 -0.11752883621E+04  0.11752883621E+04  0.00000000000E+00 0.  1.
         24    2    1    2    0    0  0.68816550707E+03  0.79456451428E+02 -0.78116104790E+03  0.10474007878E+04  0.83371067024E+02 0.  0.
        254    2    1    2    0    0 -0.68816550707E+03 -0.79456451428E+02  0.97405947020E+03  0.14960743586E+04  0.89975637942E+03 0.  0.
         23    2    4    4    0    0 -0.25685121953E+03  0.25929665076E+03  0.21050095666E+01  0.37552531569E+03  0.88360226286E+02 0.  0.
         23    2    4    4    0    0 -0.43131428754E+03 -0.33875310219E+03  0.97195446064E+03  0.11205490430E+04  0.10074227131E+03 0.  0.
          4    1    3    3  502    0 -0.61241154191E+00  0.22394254643E+01 -0.11202434605E+02  0.11440481432E+02  0.00000000000E+00 0. -1.
         -3    1    3    3    0  502  0.68877791861E+03  0.77217025964E+02 -0.76995861330E+03  0.10359603064E+04  0.00000000000E+00 0.  1.
         11    1    5    5    0    0 -0.67858539925E+02  0.10370862200E+03  0.34361393084E+02  0.12861168319E+03  0.00000000000E+00 0.  1.
        -11    1    5    5    0    0 -0.18899267961E+03  0.15558802876E+03 -0.32256383517E+02  0.24691363251E+03  0.00000000000E+00 0. -1.
          3    1    6    6  503    0 -0.34794630974E+03 -0.25441237585E+03  0.83265330555E+03  0.93760536405E+03  0.00000000000E+00 0. -1.
         -3    1    6    6    0  503 -0.83367977802E+02 -0.84340726344E+02  0.13930115508E+03  0.18294367890E+03  0.00000000000E+00 0.  1.
<mgrwt>
<rscale>  0 0.25361498E+04</rscale>
<asrwt>0</asrwt>
<pdfrwt beam="1">  1        2 0.21049027E+00 0.25361498E+04</pdfrwt>
<pdfrwt beam="2">  1       -1 0.18081359E+00 0.25361498E+04</pdfrwt>
<totfact> 0.31396175E+00</totfact>
</mgrwt>
</event>
<event>
12    6  0.1538774E-007  0.1242223E+04  0.7818608E-02  0.9076681E-01
         -1   -1    0    0    0  501 -0.00000000000E+00  0.00000000000E+00  0.45000739760E+03  0.45000739760E+03  0.00000000000E+00 0.  1.
          2   -1    0    0  501    0  0.00000000000E+00 -0.00000000000E+00 -0.85727387534E+03  0.85727387534E+03  0.00000000000E+00 0. -1.
         24    2    1    2    0    0 -0.24764189212E+03 -0.89066750694E+02 -0.27068634254E+03  0.38587282421E+03  0.79795661641E+02 0.  0.
        254    2    1    2    0    0  0.24764189212E+03  0.89066750694E+02 -0.13658013520E+03  0.92140844873E+03  0.87239899315E+03 0.  0.
         23    2    4    4    0    0 -0.16420645615E+03  0.36105777936E+03 -0.26333959923E+02  0.40763693117E+03  0.90265773839E+02 0.  0.
         23    2    4    4    0    0  0.41184834827E+03 -0.27199102867E+03 -0.11024617528E+03  0.51377151756E+03  0.90602270632E+02 0.  0.
          2    1    3    3  502    0 -0.80004340268E+02 -0.21918470471E+02 -0.37759458996E+02  0.91142144769E+02  0.00000000000E+00 0. -1.
         -1    1    3    3    0  502 -0.16763755185E+03 -0.67148280223E+02 -0.23292688354E+03  0.29473067944E+03  0.00000000000E+00 0.  1.
         11    1    5    5    0    0 -0.60852941849E+02  0.23934013435E+03 -0.21436033498E+02  0.24788360973E+03  0.00000000000E+00 0.  1.
        -11    1    5    5    0    0 -0.10335351430E+03  0.12171764501E+03 -0.48979264251E+01  0.15975332144E+03  0.00000000000E+00 0. -1.
          1    1    6    6  503    0  0.25350056378E+03 -0.14349105512E+03 -0.23755717352E+02  0.29226110388E+03  0.00000000000E+00 0. -1.
         -1    1    6    6    0  503  0.15834778449E+03 -0.12849997355E+03 -0.86490457925E+02  0.22151041368E+03  0.00000000000E+00 0.  1.
<mgrwt>
<rscale>  0 0.12422231E+04</rscale>
<asrwt>0</asrwt>
<pdfrwt beam="1">  1        2 0.13188829E+00 0.12422231E+04</pdfrwt>
<pdfrwt beam="2">  1       -1 0.69231907E-01 0.12422231E+04</pdfrwt>
<totfact> 0.74379438E+01</totfact>
</mgrwt>
</event>
<event>
12    6  0.1538774E-007  0.3834006E+04  0.7818608E-02  0.8038897E-01
          2   -1    0    0  501    0  0.00000000000E+00  0.00000000000E+00  0.19824553425E+04  0.19824553425E+04  0.00000000000E+00 0. -1.
         -1   -1    0    0    0  501 -0.00000000000E+00 -0.00000000000E+00 -0.18537112352E+04  0.18537112352E+04  0.00000000000E+00 0.  1.
         24    2    1    2    0    0  0.15264628088E+04 -0.60787685573E+03 -0.69883781648E+03  0.17874226577E+04  0.83081195971E+02 0.  0.
        254    2    1    2    0    0 -0.15264628088E+04  0.60787685573E+03  0.82758192377E+03  0.20487439200E+04  0.90158573125E+03 0.  0.
         23    2    4    4    0    0 -0.31506802819E+03  0.38387979594E+03 -0.86049273455E+02  0.51223153797E+03  0.91351578585E+02 0.  0.
         23    2    4    4    0    0 -0.12113947806E+04  0.22399705979E+03  0.91363119723E+03  0.15365123820E+04  0.92175583995E+02 0.  0.
          2    1    3    3  502    0  0.43216768511E+02 -0.15842368840E+02 -0.35394906623E+02  0.58064353487E+02  0.00000000000E+00 0. -1.
         -1    1    3    3    0  502  0.14832460403E+04 -0.59203448689E+03 -0.66344290985E+03  0.17293583042E+04  0.00000000000E+00 0.  1.
         11    1    5    5    0    0 -0.18894386826E+03  0.19439163065E+03 -0.86675200330E+02  0.28460583580E+03  0.00000000000E+00 0. -1.
        -11    1    5    5    0    0 -0.12612415993E+03  0.18948816529E+03  0.62592687454E+00  0.22762570217E+03  0.00000000000E+00 0.  1.
          3    1    6    6  503    0 -0.93033738597E+03  0.21074660199E+03  0.69747416217E+03  0.11816987725E+04  0.00000000000E+00 0. -1.
         -3    1    6    6    0  503 -0.28105739465E+03  0.13250457796E+02  0.21615703506E+03  0.35481360955E+03  0.00000000000E+00 0.  1.
<mgrwt>
<rscale>  0 0.38340056E+04</rscale>
<asrwt>0</asrwt>
<pdfrwt beam="1">  1        2 0.30499313E+00 0.38340056E+04</pdfrwt>
<pdfrwt beam="2">  1       -1 0.28518634E+00 0.38340056E+04</pdfrwt>
<totfact> 0.25605760E-01</totfact>
</mgrwt>
</event>
<event>
12    6  0.1538774E-007  0.3757040E+04  0.7818608E-02  0.8055437E-01
         -1   -1    0    0    0  501 -0.00000000000E+00  0.00000000000E+00  0.19963283005E+04  0.19963283005E+04  0.00000000000E+00 0.  1.
          2   -1    0    0  501    0  0.00000000000E+00 -0.00000000000E+00 -0.17676636217E+04  0.17676636217E+04  0.00000000000E+00 0. -1.
         24    2    1    2    0    0  0.16008012210E+03 -0.44741694459E+03 -0.16018412109E+04  0.16726708443E+04  0.78261871095E+02 0.  0.
        254    2    1    2    0    0 -0.16008012210E+03  0.44741694459E+03  0.18305058898E+04  0.20913210779E+04  0.89278467196E+03 0.  0.
         23    2    4    4    0    0 -0.40090190663E+03 -0.83895175761E+02  0.82512420582E+03  0.92531500398E+03  0.87276355993E+02 0.  0.
         23    2    4    4    0    0  0.24082178453E+03  0.53131212035E+03  0.10053816840E+04  0.11660060739E+04  0.92141916562E+02 0.  0.
          4    1    3    3  502    0  0.12977968451E+03 -0.40233402515E+03 -0.13342046155E+04  0.13995775756E+04  0.00000000000E+00 0. -1.
         -3    1    3    3    0  502  0.30300437584E+02 -0.45082919437E+02 -0.26763659548E+03  0.27309326865E+03  0.00000000000E+00 0.  1.
         11    1    5    5    0    0 -0.29899418560E+03 -0.22873863679E+02  0.60142349617E+03  0.67203493838E+03  0.00000000000E+00 0. -1.
        -11    1    5    5    0    0 -0.10190772103E+03 -0.61021312081E+02  0.22370070965E+03  0.25328006560E+03  0.00000000000E+00 0.  1.
          2    1    6    6  503    0  0.11824386255E+03  0.29550941997E+03  0.63299747196E+03  0.70851480425E+03  0.00000000000E+00 0. -1.
         -2    1    6    6    0  503  0.12257792199E+03  0.23580270038E+03  0.37238421200E+03  0.45749126966E+03  0.00000000000E+00 0.  1.
<mgrwt>
<rscale>  0 0.37570397E+04</rscale>
<asrwt>0</asrwt>
<pdfrwt beam="1">  1        2 0.27194825E+00 0.37570397E+04</pdfrwt>
<pdfrwt beam="2">  1       -1 0.30712743E+00 0.37570397E+04</pdfrwt>
<totfact> 0.24445229E-01</totfact>
</mgrwt>
</event>
<event>
12    6  0.1538774E-007  0.2595471E+04  0.7818608E-02  0.8369741E-01
         -1   -1    0    0    0  501 -0.00000000000E+00  0.00000000000E+00  0.73098331183E+03  0.73098331183E+03  0.00000000000E+00 0.  1.
          2   -1    0    0  501    0  0.00000000000E+00 -0.00000000000E+00 -0.23039072115E+04  0.23039072115E+04  0.00000000000E+00 0. -1.
         24    2    1    2    0    0  0.78861613392E+03  0.81279364408E+03 -0.50069912039E+03  0.12413393857E+04  0.87606774284E+02 0.  0.
        254    2    1    2    0    0 -0.78861613392E+03 -0.81279364408E+03 -0.10722247792E+04  0.17935511376E+04  0.88578258691E+03 0.  0.
         23    2    4    4    0    0 -0.39884441794E+02 -0.23484033514E+03 -0.74634245671E+03  0.78874152901E+03  0.91353079846E+02 0.  0.
         23    2    4    4    0    0 -0.74873169212E+03 -0.57795330894E+03 -0.32588232254E+03  0.10048096085E+04  0.93882304923E+02 0.  0.
          2    1    3    3  502    0  0.78362258619E+03  0.79070370607E+03 -0.49020735837E+03  0.12163798595E+04  0.00000000000E+00 0. -1.
         -3    1    3    3    0  502  0.49935477259E+01  0.22089938011E+02 -0.10491762014E+02  0.24959526245E+02  0.00000000000E+00 0.  1.
         11    1    5    5    0    0  0.14631470756E+02 -0.55640112884E+01 -0.90458913456E+02  0.91803339709E+02  0.00000000000E+00 0. -1.
        -11    1    5    5    0    0 -0.54515912550E+02 -0.22927632385E+03 -0.65588354325E+03  0.69693818930E+03  0.00000000000E+00 0.  1.
          1    1    6    6  503    0 -0.48631106909E+03 -0.35923605610E+03 -0.16209340494E+03  0.62595788345E+03  0.00000000000E+00 0.  1.
         -1    1    6    6    0  503 -0.26242062303E+03 -0.21871725284E+03 -0.16378891760E+03  0.37885172510E+03  0.00000000000E+00 0. -1.
<mgrwt>
<rscale>  0 0.25954712E+04</rscale>
<asrwt>0</asrwt>
<pdfrwt beam="1">  1        2 0.35444726E+00 0.25954712E+04</pdfrwt>
<pdfrwt beam="2">  1       -1 0.11245897E+00 0.25954712E+04</pdfrwt>
<totfact> 0.32865704E+00</totfact>
</mgrwt>
</event>
<event>
12    6  0.1538774E-007  0.1672376E+04  0.7818608E-02  0.8777278E-01
          2   -1    0    0  501    0  0.00000000000E+00  0.00000000000E+00  0.65043501798E+03  0.65043501798E+03  0.00000000000E+00 0. -1.
         -1   -1    0    0    0  501 -0.00000000000E+00 -0.00000000000E+00 -0.10749884607E+04  0.10749884607E+04  0.00000000000E+00 0.  1.
         24    2    1    2    0    0  0.53456087569E+03  0.24460967010E+03 -0.19341523095E+03  0.62394074769E+03  0.79393857129E+02 0.  0.
        254    2    1    2    0    0 -0.53456087569E+03 -0.24460967010E+03 -0.23113821180E+03  0.11014827310E+04  0.90235808481E+03 0.  0.
         23    2    4    4    0    0 -0.53364658383E+03 -0.29367612310E+03 -0.51279067747E+03  0.80140380087E+03  0.90936414284E+02 0.  0.
         23    2    4    4    0    0 -0.91429185907E+00  0.49066453001E+02  0.28165246567E+03  0.30007893013E+03  0.91164138535E+02 0.  0.
          2    1    3    3  502    0  0.13009386723E+03  0.80524328284E+02 -0.20125788411E+02  0.15431665203E+03  0.00000000000E+00 0. -1.
         -1    1    3    3    0  502  0.40446700846E+03  0.16408534182E+03 -0.17328944253E+03  0.46962409566E+03  0.00000000000E+00 0.  1.
         11    1    5    5    0    0 -0.24930072167E+03 -0.12784590495E+03 -0.29421984939E+03  0.40627668529E+03  0.00000000000E+00 0. -1.
        -11    1    5    5    0    0 -0.28434586215E+03 -0.16583021816E+03 -0.21857082808E+03  0.39512711558E+03  0.00000000000E+00 0.  1.
          3    1    6    6  503    0  0.24228379740E+02  0.32393235098E+02  0.25954194568E+03  0.26267538452E+03  0.00000000000E+00 0. -1.
         -3    1    6    6    0  503 -0.25142671600E+02  0.16673217903E+02  0.22110519983E+02  0.37403545611E+02  0.00000000000E+00 0.  1.
<mgrwt>
<rscale>  0 0.16723757E+04</rscale>
<asrwt>0</asrwt>
<pdfrwt beam="1">  1        2 0.10006693E+00 0.16723757E+04</pdfrwt>
<pdfrwt beam="2">  1       -1 0.16538284E+00 0.16723757E+04</pdfrwt>
<totfact> 0.13027060E+01</totfact>
</mgrwt>
</event>
<event>
12    6  0.1538774E-007  0.1033700E+04  0.7818608E-02  0.9272336E-01
          2   -1    0    0  501    0  0.00000000000E+00  0.00000000000E+00  0.28881822270E+04  0.28881822270E+04  0.00000000000E+00 0. -1.
         -1   -1    0    0    0  501 -0.00000000000E+00 -0.00000000000E+00 -0.92492072575E+02  0.92492072575E+02  0.00000000000E+00 0.  1.
         24    2    1    2    0    0  0.19078808643E+02 -0.85269203150E+02  0.76948023776E+03  0.77877651589E+03  0.82208195765E+02 0.  0.
        254    2    1    2    0    0 -0.19078808643E+02  0.85269203150E+02  0.20262099167E+04  0.22018977837E+04  0.85743360411E+03 0.  0.
         23    2    4    4    0    0 -0.37208570783E+02 -0.20610743111E+03  0.94091281313E+02  0.24563980243E+03  0.87298295641E+02 0.  0.
         23    2    4    4    0    0  0.18129762140E+02  0.29137663426E+03  0.19321186353E+04  0.19562579812E+04  0.92918442107E+02 0.  0.
          4    1    3    3  502    0 -0.28936273900E+02 -0.57158538180E+02  0.43758849159E+03  0.44225342781E+03  0.00000000000E+00 0. -1.
         -3    1    3    3    0  502  0.48015082544E+02 -0.28110664970E+02  0.33189174617E+03  0.33652308808E+03  0.00000000000E+00 0.  1.
         11    1    5    5    0    0 -0.29266639388E+01  0.85050533010E+01  0.49178049284E+00  0.90079487963E+01  0.00000000000E+00 0.  1.
        -11    1    5    5    0    0 -0.34281906844E+02 -0.21461248441E+03  0.93599500820E+02  0.23663185364E+03  0.00000000000E+00 0. -1.
          1    1    6    6  503    0  0.12399058897E+02  0.29762759110E+03  0.18803367377E+04  0.19037862713E+04  0.00000000000E+00 0. -1.
         -1    1    6    6    0  503  0.57307032421E+01 -0.62509568456E+01  0.51781897616E+02  0.52471709919E+02  0.00000000000E+00 0.  1.
<mgrwt>
<rscale>  0 0.10337001E+04</rscale>
<asrwt>0</asrwt>
<pdfrwt beam="1">  1        2 0.44433566E+00 0.10337001E+04</pdfrwt>
<pdfrwt beam="2">  1       -1 0.14229552E-01 0.10337001E+04</pdfrwt>
<totfact> 0.84778569E+01</totfact>
</mgrwt>
</event>
<event>
12    6  0.1538774E-007  0.4951234E+04  0.7818608E-02  0.7836074E-01
          2   -1    0    0  501    0  0.00000000000E+00  0.00000000000E+00  0.27246546052E+04  0.27246546052E+04  0.00000000000E+00 0. -1.
         -1   -1    0    0    0  501 -0.00000000000E+00 -0.00000000000E+00 -0.22493419390E+04  0.22493419390E+04  0.00000000000E+00 0.  1.
         24    2    1    2    0    0  0.34616058370E+03  0.23364783369E+04 -0.12530277919E+03  0.23665980323E+04  0.78277018038E+02 0.  0.
        254    2    1    2    0    0 -0.34616058370E+03 -0.23364783369E+04  0.60061544542E+03  0.26073985120E+04  0.92673076923E+03 0.  0.
         23    2    4    4    0    0  0.70227091843E+02 -0.18880723612E+04  0.61507917670E+03  0.19890518214E+04  0.90860713255E+02 0.  0.
         23    2    4    4    0    0 -0.41638767555E+03 -0.44840597572E+03 -0.14463731288E+02  0.61834669059E+03  0.87731492790E+02 0.  0.
          2    1    3    3  502    0  0.13319874708E+03  0.90076575090E+03 -0.10168415585E+02  0.91061750527E+03  0.00000000000E+00 0. -1.
         -1    1    3    3    0  502  0.21296183662E+03  0.14357125860E+04 -0.11513436360E+03  0.14559805270E+04  0.00000000000E+00 0.  1.
         11    1    5    5    0    0  0.73899668017E+02 -0.86922895100E+03  0.26474288404E+03  0.91165175634E+03  0.00000000000E+00 0.  1.
        -11    1    5    5    0    0 -0.36725761735E+01 -0.10188434102E+04  0.35033629266E+03  0.10774000651E+04  0.00000000000E+00 0. -1.
          4    1    6    6  503    0 -0.41497155255E+03 -0.42975777752E+03 -0.50897250682E+01  0.59742701819E+03  0.00000000000E+00 0.  1.
         -4    1    6    6    0  503 -0.14161229981E+01 -0.18648198207E+02 -0.93740062194E+01  0.20919672400E+02  0.00000000000E+00 0. -1.
<mgrwt>
<rscale>  0 0.49512341E+04</rscale>
<asrwt>0</asrwt>
<pdfrwt beam="1">  1        2 0.41917764E+00 0.49512341E+04</pdfrwt>
<pdfrwt beam="2">  1       -1 0.34605260E+00 0.49512341E+04</pdfrwt>
<totfact> 0.35203707E-02</totfact>
</mgrwt>
</event>
<event>
12    6  0.1538774E-007  0.2277356E+04  0.7818608E-02  0.8486903E-01
          2   -1    0    0  501    0  0.00000000000E+00  0.00000000000E+00  0.92573391600E+03  0.92573391600E+03  0.00000000000E+00 0. -1.
         -1   -1    0    0    0  501 -0.00000000000E+00 -0.00000000000E+00 -0.14006051433E+04  0.14006051433E+04  0.00000000000E+00 0.  1.
         24    2    1    2    0    0 -0.56095459082E+03 -0.41241388553E+03 -0.88023491900E+03  0.11251454649E+04  0.79897049800E+02 0.  0.
        254    2    1    2    0    0  0.56095459082E+03  0.41241388553E+03  0.40536369174E+03  0.12011935944E+04  0.89094952869E+03 0.  0.
         23    2    4    4    0    0  0.62979163158E+03  0.24055006563E+03  0.60866741562E+03  0.91283024037E+03  0.91001052856E+02 0.  0.
         23    2    4    4    0    0 -0.68837040756E+02  0.17186381990E+03 -0.20330372388E+03  0.28836335401E+03  0.86863738243E+02 0.  0.
          4    1    3    3  502    0 -0.12217803485E+03 -0.95366697353E+02 -0.25206851173E+03  0.29590676534E+03  0.00000000000E+00 0. -1.
         -3    1    3    3    0  502 -0.43877655597E+03 -0.31704718818E+03 -0.62816640727E+03  0.82923869954E+03  0.00000000000E+00 0.  1.
         11    1    5    5    0    0  0.25326591067E+03  0.10881481596E+03  0.19155622528E+03  0.33567554740E+03  0.00000000000E+00 0. -1.
        -11    1    5    5    0    0  0.37652572091E+03  0.13173524967E+03  0.41711119034E+03  0.57715469297E+03  0.00000000000E+00 0.  1.
          4    1    6    6  503    0 -0.41126070436E+02  0.14598862076E+02 -0.31597507507E+02  0.53878408701E+02  0.00000000000E+00 0. -1.
         -4    1    6    6    0  503 -0.27710970320E+02  0.15726495783E+03 -0.17170621637E+03  0.23448494531E+03  0.00000000000E+00 0.  1.
<mgrwt>
<rscale>  0 0.22773561E+04</rscale>
<asrwt>0</asrwt>
<pdfrwt beam="1">  1        2 0.14242060E+00 0.22773561E+04</pdfrwt>
<pdfrwt beam="2">  1       -1 0.21547771E+00 0.22773561E+04</pdfrwt>
<totfact> 0.34449837E+00</totfact>
</mgrwt>
</event>
<event>
12    6  0.1538774E-007  0.1703472E+04  0.7818608E-02  0.8759387E-01
         -1   -1    0    0    0  501 -0.00000000000E+00  0.00000000000E+00  0.55572045858E+03  0.55572045858E+03  0.00000000000E+00 0.  1.
          2   -1    0    0  501    0  0.00000000000E+00 -0.00000000000E+00 -0.13054293596E+04  0.13054293596E+04  0.00000000000E+00 0. -1.
         24    2    1    2    0    0 -0.10520297192E+03 -0.58034666541E+03 -0.10447990981E+03  0.60413829660E+03  0.78721741075E+02 0.  0.
        254    2    1    2    0    0  0.10520297192E+03  0.58034666541E+03 -0.64522899123E+03  0.12570115216E+04  0.90326496498E+03 0.  0.
         23    2    4    4    0    0 -0.11810598802E+03  0.35166954907E+03  0.13926026461E+03  0.40507031161E+03  0.84071635546E+02 0.  0.
         23    2    4    4    0    0  0.22330895993E+03  0.22867711634E+03 -0.78448925583E+03  0.85194120999E+03  0.90665967329E+02 0.  0.
          2    1    3    3  502    0 -0.63280289435E+01 -0.17224628217E+02  0.10228177791E+02  0.21008269525E+02  0.00000000000E+00 0. -1.
         -1    1    3    3    0  502 -0.98874942973E+02 -0.56312203719E+03 -0.11470808760E+03  0.58313002708E+03  0.00000000000E+00 0.  1.
         11    1    5    5    0    0 -0.63240819683E+02  0.97326591328E+02  0.16028099919E+02  0.11716981967E+03  0.00000000000E+00 0. -1.
        -11    1    5    5    0    0 -0.54865168333E+02  0.25434295774E+03  0.12323216469E+03  0.28790049195E+03  0.00000000000E+00 0.  1.
          2    1    6    6  503    0  0.12065960283E+03  0.13124107619E+03 -0.31929777141E+03  0.36569663200E+03  0.00000000000E+00 0. -1.
         -2    1    6    6    0  503  0.10264935711E+03  0.97436040151E+02 -0.46519148443E+03  0.48624457798E+03  0.00000000000E+00 0.  1.
<mgrwt>
<rscale>  0 0.17034715E+04</rscale>
<asrwt>0</asrwt>
<pdfrwt beam="1">  1        2 0.20083528E+00 0.17034715E+04</pdfrwt>
<pdfrwt beam="2">  1       -1 0.85495457E-01 0.17034715E+04</pdfrwt>
<totfact> 0.24061701E+01</totfact>
</mgrwt>
</event>
<event>
12    6  0.1538774E-007  0.1620979E+04  0.7818608E-02  0.8807762E-01
         -1   -1    0    0    0  501 -0.00000000000E+00  0.00000000000E+00  0.20199045997E+03  0.20199045997E+03  0.00000000000E+00 0.  1.
          2   -1    0    0  501    0  0.00000000000E+00 -0.00000000000E+00 -0.32521013200E+04  0.32521013200E+04  0.00000000000E+00 0. -1.
         24    2    1    2    0    0  0.51189065471E+02  0.35051004528E+03 -0.19671856469E+04  0.19996499546E+04  0.57471377776E+02 0.  0.
        254    2    1    2    0    0 -0.51189065471E+02 -0.35051004528E+03 -0.10829252132E+04  0.14544418254E+04  0.90398915587E+03 0.  0.
         23    2    4    4    0    0 -0.37442037105E+03  0.10957708184E+03 -0.42789608638E+03  0.58609225880E+03  0.90616355946E+02 0.  0.
         23    2    4    4    0    0  0.32323130557E+03 -0.46008712712E+03 -0.65502912680E+03  0.86834956662E+03  0.93857186498E+02 0.  0.
          2    1    3    3  502    0  0.26966780767E+02  0.31291272586E+03 -0.17093285587E+04  0.17379429515E+04  0.00000000000E+00 0. -1.
         -1    1    3    3    0  502  0.24222284704E+02  0.37597319420E+02 -0.25785708820E+03  0.26170700304E+03  0.00000000000E+00 0.  1.
         11    1    5    5    0    0 -0.20692414544E+03  0.74863011797E+02 -0.17684601857E+03  0.28230583909E+03  0.00000000000E+00 0. -1.
        -11    1    5    5    0    0 -0.16749622561E+03  0.34714070045E+02 -0.25105006780E+03  0.30378641970E+03  0.00000000000E+00 0.  1.
          1    1    6    6  503    0  0.13667071796E+03 -0.27040492136E+03 -0.37466447986E+03  0.48184144603E+03  0.00000000000E+00 0. -1.
         -1    1    6    6    0  503  0.18656058761E+03 -0.18968220576E+03 -0.28036464693E+03  0.38650812059E+03  0.00000000000E+00 0.  1.
<mgrwt>
<rscale>  0 0.16209793E+04</rscale>
<asrwt>0</asrwt>
<pdfrwt beam="1">  1        2 0.50032326E+00 0.16209793E+04</pdfrwt>
<pdfrwt beam="2">  1       -1 0.31075457E-01 0.16209793E+04</pdfrwt>
<totfact> 0.12634212E+01</totfact>
</mgrwt>
</event>
<event>
12    6  0.1538774E-007  0.1595218E+04  0.7818608E-02  0.8823491E-01
         -1   -1    0    0    0  501 -0.00000000000E+00  0.00000000000E+00  0.30113175133E+03  0.30113175133E+03  0.00000000000E+00 0.  1.
          2   -1    0    0  501    0  0.00000000000E+00 -0.00000000000E+00 -0.21126293202E+04  0.21126293202E+04  0.00000000000E+00 0. -1.
         24    2    1    2    0    0 -0.15758059075E+03  0.33938249433E+03 -0.30707748777E+02  0.38396700923E+03  0.80470977994E+02 0.  0.
        254    2    1    2    0    0  0.15758059075E+03 -0.33938249433E+03 -0.17807898201E+04  0.20297940623E+04  0.89935500886E+03 0.  0.
         23    2    4    4    0    0  0.30989092570E+03 -0.10649973601E+03 -0.16890116302E+04  0.17229423556E+04  0.91626928621E+02 0.  0.
         23    2    4    4    0    0 -0.15231033496E+03 -0.23288275832E+03 -0.91778189873E+02  0.30685170672E+03  0.91114853467E+02 0.  0.
          4    1    3    3  502    0 -0.43316812163E+02  0.18034348753E+03 -0.31536266990E+02  0.18813467476E+03  0.00000000000E+00 0. -1.
         -3    1    3    3    0  502 -0.11426377858E+03  0.15903900680E+03  0.82851821297E+00  0.19583233447E+03  0.00000000000E+00 0.  1.
         11    1    5    5    0    0  0.31041774227E+03 -0.95227416308E+02 -0.16655950797E+04  0.16969485570E+04  0.00000000000E+00 0. -1.
        -11    1    5    5    0    0 -0.52681656964E+00 -0.11272319706E+02 -0.23416550482E+02  0.25993798563E+02  0.00000000000E+00 0.  1.
          3    1    6    6  503    0 -0.14393604882E+03 -0.21608934767E+03 -0.54762418092E+02  0.26535092757E+03  0.00000000000E+00 0. -1.
         -3    1    6    6    0  503 -0.83742861409E+01 -0.16793410650E+02 -0.37015771781E+02  0.41500779152E+02  0.00000000000E+00 0.  1.
<mgrwt>
<rscale>  0 0.15952176E+04</rscale>
<asrwt>0</asrwt>
<pdfrwt beam="1">  1        2 0.32501990E+00 0.15952176E+04</pdfrwt>
<pdfrwt beam="2">  1       -1 0.46327962E-01 0.15952176E+04</pdfrwt>
<totfact> 0.29306753E+01</totfact>
</mgrwt>
</event>
<event>
12    6  0.1538774E-007  0.3572999E+04  0.7818608E-02  0.8096705E-01
         -1   -1    0    0    0  501 -0.00000000000E+00  0.00000000000E+00  0.13169120778E+04  0.13169120778E+04  0.00000000000E+00 0.  1.
          2   -1    0    0  501    0  0.00000000000E+00 -0.00000000000E+00 -0.24235339009E+04  0.24235339009E+04  0.00000000000E+00 0. -1.
         24    2    1    2    0    0  0.38689479593E+03  0.16225248626E+04 -0.60279221103E+03  0.17753861467E+04  0.79768459533E+02 0.  0.
        254    2    1    2    0    0 -0.38689479593E+03 -0.16225248626E+04 -0.50382961200E+03  0.19650598320E+04  0.90848299508E+03 0.  0.
         23    2    4    4    0    0 -0.35402963082E+03 -0.36307767836E+03 -0.47715096751E+03  0.70168171295E+03  0.86728314142E+02 0.  0.
         23    2    4    4    0    0 -0.32865165111E+02 -0.12594471843E+04 -0.26678644497E+02  0.12633781190E+04  0.90139849757E+02 0.  0.
          2    1    3    3  502    0  0.35022305186E+03  0.14702836794E+04 -0.52085619037E+03  0.15986498851E+04  0.00000000000E+00 0. -1.
         -1    1    3    3    0  502  0.36671744069E+02  0.15224118321E+03 -0.81936020664E+02  0.17673626159E+03  0.00000000000E+00 0.  1.
         11    1    5    5    0    0 -0.27091151456E+03 -0.30227726681E+03 -0.41918220566E+03  0.58350519818E+03  0.00000000000E+00 0.  1.
        -11    1    5    5    0    0 -0.83118116258E+02 -0.60800411548E+02 -0.57968761847E+02  0.11817651478E+03  0.00000000000E+00 0. -1.
          3    1    6    6  503    0  0.88483195518E+01 -0.58591770311E+03 -0.50345450770E+02  0.58814327506E+03  0.00000000000E+00 0. -1.
         -3    1    6    6    0  503 -0.41713484663E+02 -0.67352948117E+03  0.23666806272E+02  0.67523484398E+03  0.00000000000E+00 0.  1.
<mgrwt>
<rscale>  0 0.35729993E+04</rscale>
<asrwt>0</asrwt>
<pdfrwt beam="1">  1        2 0.37285136E+00 0.35729993E+04</pdfrwt>
<pdfrwt beam="2">  1       -1 0.20260186E+00 0.35729993E+04</pdfrwt>
<totfact> 0.51666297E-01</totfact>
</mgrwt>
</event>
<event>
12    6  0.1538774E-007  0.1942103E+04  0.7818608E-02  0.8634178E-01
          2   -1    0    0  501    0  0.00000000000E+00  0.00000000000E+00  0.28047276812E+04  0.28047276812E+04  0.00000000000E+00 0. -1.
         -1   -1    0    0    0  501 -0.00000000000E+00 -0.00000000000E+00 -0.33619715437E+03  0.33619715437E+03  0.00000000000E+00 0.  1.
         24    2    1    2    0    0 -0.17312410108E+03 -0.27215584760E+03 -0.14316552342E+03  0.36005790969E+03  0.71446283817E+02 0.  0.
        254    2    1    2    0    0  0.17312410108E+03  0.27215584760E+03  0.26116960503E+04  0.27808669259E+04  0.89901270334E+03 0.  0.
         23    2    4    4    0    0  0.98216770056E+02  0.34025341370E+03  0.26209239085E+04  0.26463733788E+04  0.92903208294E+02 0.  0.
         23    2    4    4    0    0  0.74907331027E+02 -0.68097566101E+02 -0.92278582733E+01  0.13449354711E+03  0.88062330735E+02 0.  0.
          2    1    3    3  502    0 -0.17208782523E+01  0.64008200614E+00  0.50879519372E+01  0.54091017599E+01  0.00000000000E+00 0. -1.
         -1    1    3    3    0  502 -0.17140322283E+03 -0.27279592961E+03 -0.14825347536E+03  0.35464880793E+03  0.00000000000E+00 0.  1.
         11    1    5    5    0    0  0.26729220508E+02  0.14745107477E+02  0.31772382516E+03  0.31918693347E+03  0.00000000000E+00 0.  1.
        -11    1    5    5    0    0  0.71487549548E+02  0.32550830623E+03  0.23032000834E+04  0.23271864453E+04  0.00000000000E+00 0. -1.
          2    1    6    6  503    0  0.48920001476E+02 -0.25161351066E+02  0.36969901078E+02  0.66279964677E+02  0.00000000000E+00 0. -1.
         -2    1    6    6    0  503  0.25987329551E+02 -0.42936215035E+02 -0.46197759351E+02  0.68213582429E+02  0.00000000000E+00 0.  1.
<mgrwt>
<rscale>  0 0.19421035E+04</rscale>
<asrwt>0</asrwt>
<pdfrwt beam="1">  1        2 0.43149655E+00 0.19421035E+04</pdfrwt>
<pdfrwt beam="2">  1       -1 0.51722641E-01 0.19421035E+04</pdfrwt>
<totfact> 0.91991393E+00</totfact>
</mgrwt>
</event>
<event>
12    6  0.1538774E-007  0.2702440E+04  0.7818608E-02  0.8334214E-01
         -1   -1    0    0    0  501 -0.00000000000E+00  0.00000000000E+00  0.70651263594E+03  0.70651263594E+03  0.00000000000E+00 0.  1.
          2   -1    0    0  501    0  0.00000000000E+00 -0.00000000000E+00 -0.25842358076E+04  0.25842358076E+04  0.00000000000E+00 0. -1.
         24    2    1    2    0    0 -0.93547915686E+01  0.11832437390E+04 -0.78872536650E+03  0.14256372420E+04  0.10099794060E+03 0.  0.
        254    2    1    2    0    0  0.93547915686E+01 -0.11832437390E+04 -0.10889978051E+04  0.18651112015E+04  0.94475939600E+03 0.  0.
         23    2    4    4    0    0  0.36832013418E+03 -0.13625115018E+03 -0.30536354990E+03  0.50580056879E+03  0.91450645803E+02 0.  0.
         23    2    4    4    0    0 -0.35896534261E+03 -0.10469925888E+04 -0.78363425523E+03  0.13593106327E+04  0.92699255409E+02 0.  0.
          2    1    3    3  502    0 -0.34766944229E+02  0.87140582305E+03 -0.62134550678E+03  0.10708067462E+04  0.00000000000E+00 0. -1.
         -1    1    3    3    0  502  0.25412152660E+02  0.31183791597E+03 -0.16737985972E+03  0.35483049584E+03  0.00000000000E+00 0.  1.
         11    1    5    5    0    0  0.49711189529E+02  0.82375551136E+01 -0.60724935423E+02  0.78908665308E+02  0.00000000000E+00 0. -1.
        -11    1    5    5    0    0  0.31860894465E+03 -0.14448870529E+03 -0.24463861448E+03  0.42689190348E+03  0.00000000000E+00 0.  1.
          3    1    6    6  503    0 -0.24889432069E+03 -0.81156456206E+03 -0.56524672096E+03  0.10198476733E+04  0.00000000000E+00 0. -1.
         -3    1    6    6    0  503 -0.11007102192E+03 -0.23542802678E+03 -0.21838753427E+03  0.33946295937E+03  0.00000000000E+00 0.  1.
<mgrwt>
<rscale>  0 0.27024398E+04</rscale>
<asrwt>0</asrwt>
<pdfrwt beam="1">  1        2 0.39757474E+00 0.27024398E+04</pdfrwt>
<pdfrwt beam="2">  1       -1 0.10869425E+00 0.27024398E+04</pdfrwt>
<totfact> 0.24330277E+00</totfact>
</mgrwt>
</event>
<event>
12    6  0.1538774E-007  0.1672441E+04  0.7818608E-02  0.8777240E-01
          2   -1    0    0  501    0  0.00000000000E+00  0.00000000000E+00  0.98689923228E+03  0.98689923228E+03  0.00000000000E+00 0. -1.
         -1   -1    0    0    0  501 -0.00000000000E+00 -0.00000000000E+00 -0.70854711351E+03  0.70854711351E+03  0.00000000000E+00 0.  1.
         24    2    1    2    0    0  0.14740963340E+03 -0.57160436194E+03  0.11254446422E+03  0.60606710915E+03  0.78676157549E+02 0.  0.
        254    2    1    2    0    0 -0.14740963340E+03  0.57160436194E+03  0.16580765456E+03  0.10893792366E+04  0.90044088995E+03 0.  0.
         23    2    4    4    0    0 -0.38565540018E+03  0.44916013238E+03  0.39855645445E+03  0.72016453120E+03  0.96513172217E+02 0.  0.
         23    2    4    4    0    0  0.23824576678E+03  0.12244422956E+03 -0.23274879989E+03  0.36921470543E+03  0.10195028256E+03 0.  0.
          4    1    3    3  502    0  0.99963520906E+02 -0.42574918652E+03  0.11670910061E+03  0.45263239997E+03  0.00000000000E+00 0. -1.
         -3    1    3    3    0  502  0.47446112493E+02 -0.14585517542E+03 -0.41646363945E+01  0.15343470919E+03  0.00000000000E+00 0.  1.
         11    1    5    5    0    0 -0.33816780809E+03  0.36615271973E+03  0.29488679048E+03  0.57912304374E+03  0.00000000000E+00 0.  1.
        -11    1    5    5    0    0 -0.47487592094E+02  0.83007412650E+02  0.10366966397E+03  0.14104148746E+03  0.00000000000E+00 0. -1.
          1    1    6    6  503    0 -0.74998876382E+01  0.17775001447E+02 -0.19408387521E+02  0.27365754095E+02  0.00000000000E+00 0. -1.
         -1    1    6    6    0  503  0.24574565442E+03  0.10466922811E+03 -0.21334041237E+03  0.34184895134E+03  0.00000000000E+00 0.  1.
<mgrwt>
<rscale>  0 0.16724409E+04</rscale>
<asrwt>0</asrwt>
<pdfrwt beam="1">  1        2 0.15183065E+00 0.16724409E+04</pdfrwt>
<pdfrwt beam="2">  1       -1 0.10900725E+00 0.16724409E+04</pdfrwt>
<totfact> 0.21793011E+01</totfact>
</mgrwt>
</event>
<event>
12    6  0.1538774E-007  0.1667178E+04  0.7818608E-02  0.8780309E-01
         -1   -1    0    0    0  501 -0.00000000000E+00  0.00000000000E+00  0.64025066455E+03  0.64025066455E+03  0.00000000000E+00 0.  1.
          2   -1    0    0  501    0  0.00000000000E+00 -0.00000000000E+00 -0.10853103215E+04  0.10853103215E+04  0.00000000000E+00 0. -1.
         24    2    1    2    0    0 -0.21317164830E+03  0.54535456591E+03 -0.56321239029E+02  0.59362097867E+03  0.79749797144E+02 0.  0.
        254    2    1    2    0    0  0.21317164830E+03 -0.54535456591E+03 -0.38873841788E+03  0.11319400073E+04  0.88730877854E+03 0.  0.
         23    2    4    4    0    0  0.24151703984E+03  0.17387019085E+03 -0.87420288993E+01  0.31161237423E+03  0.92002852693E+02 0.  0.
         23    2    4    4    0    0 -0.28345391537E+02 -0.71922475676E+03 -0.37999638898E+03  0.82032763311E+03  0.10223726348E+03 0.  0.
          2    1    3    3  502    0 -0.69325311665E+02  0.98845712488E+02 -0.26228267474E+02  0.12354916321E+03  0.00000000000E+00 0. -1.
         -1    1    3    3    0  502 -0.14384633664E+03  0.44650885343E+03 -0.30092971555E+02  0.47007181546E+03  0.00000000000E+00 0.  1.
         11    1    5    5    0    0  0.22098469767E+03  0.11879155170E+03  0.61830287558E+01  0.25096593236E+03  0.00000000000E+00 0.  1.
        -11    1    5    5    0    0  0.20532342167E+02  0.55078639146E+02 -0.14925057655E+02  0.60646441867E+02  0.00000000000E+00 0. -1.
          3    1    6    6  503    0 -0.15228757324E+02 -0.65280292854E+02 -0.70645801969E+01  0.67404302371E+02  0.00000000000E+00 0. -1.
         -3    1    6    6    0  503 -0.13116634214E+02 -0.65394446391E+03 -0.37293180878E+03  0.75292333074E+03  0.00000000000E+00 0.  1.
<mgrwt>
<rscale>  0 0.16671780E+04</rscale>
<asrwt>0</asrwt>
<pdfrwt beam="1">  1        2 0.16697082E+00 0.16671780E+04</pdfrwt>
<pdfrwt beam="2">  1       -1 0.98500103E-01 0.16671780E+04</pdfrwt>
<totfact> 0.23888023E+01</totfact>
</mgrwt>
</event>
<event>
12    6  0.1538774E-007  0.2029901E+04  0.7818608E-02  0.8592767E-01
         -1   -1    0    0    0  501 -0.00000000000E+00  0.00000000000E+00  0.29450821117E+03  0.29450821117E+03  0.00000000000E+00 0.  1.
          2   -1    0    0  501    0  0.00000000000E+00 -0.00000000000E+00 -0.34977790981E+04  0.34977790981E+04  0.00000000000E+00 0. -1.
         24    2    1    2    0    0 -0.60295449528E+03  0.12250486088E+03 -0.29979342640E+03  0.68919772097E+03  0.80968115673E+02 0.  0.
        254    2    1    2    0    0  0.60295449528E+03 -0.12250486088E+03 -0.29034774606E+04  0.31030895883E+04  0.90577153020E+03 0.  0.
         23    2    4    4    0    0  0.43937864927E+03 -0.45620678117E+03 -0.23087816351E+04  0.23956949635E+04  0.87769554666E+02 0.  0.
         23    2    4    4    0    0  0.16357584601E+03  0.33370192029E+03 -0.59469582542E+03  0.70739462484E+03  0.92897801233E+02 0.  0.
          2    1    3    3  502    0 -0.12270430901E+03  0.55824649932E+02 -0.80913049925E+02  0.15722487284E+03  0.00000000000E+00 0. -1.
         -1    1    3    3    0  502 -0.48025018627E+03  0.66680210944E+02 -0.21888037648E+03  0.53197284813E+03  0.00000000000E+00 0.  1.
         11    1    5    5    0    0  0.10073079467E+03 -0.12022009963E+03 -0.44499138167E+03  0.47182294890E+03  0.00000000000E+00 0.  1.
        -11    1    5    5    0    0  0.33864785460E+03 -0.33598668154E+03 -0.18637902535E+04  0.19238720146E+04  0.00000000000E+00 0. -1.
          3    1    6    6  503    0  0.49093478492E+02  0.81832447908E+02 -0.86640640186E+02  0.12889266734E+03  0.00000000000E+00 0. -1.
         -3    1    6    6    0  503  0.11448236752E+03  0.25186947238E+03 -0.50805518524E+03  0.57850195751E+03  0.00000000000E+00 0.  1.
<mgrwt>
<rscale>  0 0.20299011E+04</rscale>
<asrwt>0</asrwt>
<pdfrwt beam="1">  1        2 0.53811986E+00 0.20299011E+04</pdfrwt>
<pdfrwt beam="2">  1       -1 0.45308955E-01 0.20299011E+04</pdfrwt>
<totfact> 0.41833638E+00</totfact>
</mgrwt>
</event>
<event>
12    6  0.1538774E-007  0.1569987E+04  0.7818608E-02  0.8839201E-01
         -1   -1    0    0    0  501 -0.00000000000E+00  0.00000000000E+00  0.39702950900E+03  0.39702950900E+03  0.00000000000E+00 0.  1.
          2   -1    0    0  501    0  0.00000000000E+00 -0.00000000000E+00 -0.15520628879E+04  0.15520628879E+04  0.00000000000E+00 0. -1.
         24    2    1    2    0    0 -0.36688835823E+03  0.27066165931E+02 -0.85194005728E+03  0.93152138836E+03  0.81182455149E+02 0.  0.
        254    2    1    2    0    0  0.36688835823E+03 -0.27066165931E+02 -0.30309332159E+03  0.10175710085E+04  0.89902477775E+03 0.  0.
         23    2    4    4    0    0 -0.12140171232E+03 -0.34798053859E+03 -0.13158556978E+03  0.40223623306E+03  0.93007494445E+02 0.  0.
         23    2    4    4    0    0  0.48829007055E+03  0.32091437266E+03 -0.17150775181E+03  0.61533477544E+03  0.88367128275E+02 0.  0.
          2    1    3    3  502    0 -0.32094251663E+03  0.50769304421E+02 -0.72731630741E+03  0.79659941770E+03  0.00000000000E+00 0. -1.
         -1    1    3    3    0  502 -0.45945841598E+02 -0.23703138490E+02 -0.12462374987E+03  0.13492197065E+03  0.00000000000E+00 0.  1.
         11    1    5    5    0    0 -0.12740803183E+03 -0.24014090641E+03 -0.10072813848E+03  0.28990794986E+03  0.00000000000E+00 0.  1.
        -11    1    5    5    0    0  0.60063195089E+01 -0.10783963218E+03 -0.30857431301E+02  0.11232828321E+03  0.00000000000E+00 0. -1.
          3    1    6    6  503    0  0.82794526523E+02  0.94959558681E+02 -0.23910633852E+02  0.12823404313E+03  0.00000000000E+00 0. -1.
         -3    1    6    6    0  503  0.40549554403E+03  0.22595481398E+03 -0.14759711796E+03  0.48710073231E+03  0.00000000000E+00 0.  1.
<mgrwt>
<rscale>  0 0.15699870E+04</rscale>
<asrwt>0</asrwt>
<pdfrwt beam="1">  1        2 0.23877890E+00 0.15699870E+04</pdfrwt>
<pdfrwt beam="2">  1       -1 0.61081463E-01 0.15699870E+04</pdfrwt>
<totfact> 0.35317349E+01</totfact>
</mgrwt>
</event>
<event>
12    6  0.1538774E-007  0.1195222E+04  0.7818608E-02  0.9117049E-01
         -1   -1    0    0    0  501 -0.00000000000E+00  0.00000000000E+00  0.74967441438E+03  0.74967441438E+03  0.00000000000E+00 0.  1.
          2   -1    0    0  501    0  0.00000000000E+00 -0.00000000000E+00 -0.47639221361E+03  0.47639221361E+03  0.00000000000E+00 0. -1.
         24    2    1    2    0    0  0.91562938067E+02  0.34244507347E+02 -0.18055582805E+03  0.22027724140E+03  0.79782191777E+02 0.  0.
        254    2    1    2    0    0 -0.91562938067E+02 -0.34244507347E+02  0.45383802882E+03  0.10057893866E+04  0.89223700655E+03 0.  0.
         23    2    4    4    0    0  0.23670707397E+03  0.31756203745E+03  0.19470887371E+03  0.45111549159E+03  0.93368917497E+02 0.  0.
         23    2    4    4    0    0 -0.32827001203E+03 -0.35180654480E+03  0.25912915510E+03  0.55467389500E+03  0.94795384931E+02 0.  0.
          4    1    3    3  502    0  0.48604931306E+02 -0.10308297078E+02 -0.13375203354E+03  0.14268253857E+03  0.00000000000E+00 0. -1.
         -3    1    3    3    0  502  0.42958006761E+02  0.44552804424E+02 -0.46803794506E+02  0.77594702829E+02  0.00000000000E+00 0.  1.
         11    1    5    5    0    0  0.95574672496E+02  0.66697102389E+02  0.33778113513E+02  0.12134241815E+03  0.00000000000E+00 0. -1.
        -11    1    5    5    0    0  0.14113240147E+03  0.25086493506E+03  0.16093076020E+03  0.32977307344E+03  0.00000000000E+00 0.  1.
          2    1    6    6  503    0 -0.17984209437E+03 -0.12858853342E+03  0.13709936254E+03  0.26014308571E+03  0.00000000000E+00 0. -1.
         -2    1    6    6    0  503 -0.14842791766E+03 -0.22321801138E+03  0.12202979256E+03  0.29453080928E+03  0.00000000000E+00 0.  1.
<mgrwt>
<rscale>  0 0.11952222E+04</rscale>
<asrwt>0</asrwt>
<pdfrwt beam="1">  1        2 0.73291110E-01 0.11952222E+04</pdfrwt>
<pdfrwt beam="2">  1       -1 0.11533452E+00 0.11952222E+04</pdfrwt>
<totfact> 0.50146400E+01</totfact>
</mgrwt>
</event>
<event>
12    6  0.1538774E-007  0.1649949E+04  0.7818608E-02  0.8790436E-01
         -1   -1    0    0    0  501 -0.00000000000E+00  0.00000000000E+00  0.37257331210E+03  0.37257331210E+03  0.00000000000E+00 0.  1.
          2   -1    0    0  501    0  0.00000000000E+00 -0.00000000000E+00 -0.18267094985E+04  0.18267094985E+04  0.00000000000E+00 0. -1.
         24    2    1    2    0    0 -0.17285269285E+03 -0.38622189561E+03  0.58365940773E+01  0.43093360815E+03  0.81389819546E+02 0.  0.
        254    2    1    2    0    0  0.17285269285E+03  0.38622189561E+03 -0.14599727805E+04  0.17683492025E+04  0.90360000886E+03 0.  0.
         23    2    4    4    0    0  0.49976232419E+03  0.18842993069E+03 -0.11394338763E+04  0.12612640704E+04  0.84907462950E+02 0.  0.
         23    2    4    4    0    0 -0.32690963134E+03  0.19779196492E+03 -0.32053890418E+03  0.50708513209E+03  0.91643732164E+02 0.  0.
          4    1    3    3  502    0 -0.16965479717E+02 -0.12765017392E+02 -0.14543015484E+02  0.25734655047E+02  0.00000000000E+00 0. -1.
         -3    1    3    3    0  502 -0.15588721314E+03 -0.37345687822E+03  0.20379609561E+02  0.40519895310E+03  0.00000000000E+00 0.  1.
         11    1    5    5    0    0  0.28609906023E+03  0.69835375530E+02 -0.56915683012E+03  0.64083472847E+03  0.00000000000E+00 0. -1.
        -11    1    5    5    0    0  0.21366326396E+03  0.11859455516E+03 -0.57027704622E+03  0.62042934193E+03  0.00000000000E+00 0.  1.
          3    1    6    6  503    0 -0.27975042836E+03  0.18740044713E+03 -0.30993305735E+03  0.45764367121E+03  0.00000000000E+00 0. -1.
         -3    1    6    6    0  503 -0.47159202976E+02  0.10391517783E+02 -0.10605846825E+02  0.49441460881E+02  0.00000000000E+00 0.  1.
<mgrwt>
<rscale>  0 0.16499493E+04</rscale>
<asrwt>0</asrwt>
<pdfrwt beam="1">  1        2 0.28103223E+00 0.16499493E+04</pdfrwt>
<pdfrwt beam="2">  1       -1 0.57318970E-01 0.16499493E+04</pdfrwt>
<totfact> 0.27968733E+01</totfact>
</mgrwt>
</event>
<event>
12    6  0.1538774E-007  0.2249697E+04  0.7818608E-02  0.8498023E-01
         -1   -1    0    0    0  501 -0.00000000000E+00  0.00000000000E+00  0.38322821701E+03  0.38322821701E+03  0.00000000000E+00 0.  1.
          2   -1    0    0  501    0  0.00000000000E+00 -0.00000000000E+00 -0.33016470590E+04  0.33016470590E+04  0.00000000000E+00 0. -1.
         24    2    1    2    0    0  0.69278506963E+03 -0.23189311795E+03 -0.24928684610E+03  0.77525931136E+03  0.71815718092E+02 0.  0.
        254    2    1    2    0    0 -0.69278506963E+03  0.23189311795E+03 -0.26691319959E+04  0.29096159646E+04  0.89881804574E+03 0.  0.
         23    2    4    4    0    0 -0.54076335030E+03  0.53873961646E+03 -0.21327214564E+04  0.22669101633E+04  0.87837933804E+02 0.  0.
         23    2    4    4    0    0 -0.15202171933E+03 -0.30684649851E+03 -0.53641053954E+03  0.64270580136E+03  0.89828188112E+02 0.  0.
          2    1    3    3  502    0  0.12926608660E+03 -0.14459368855E+02 -0.44827779327E+02  0.13758024673E+03  0.00000000000E+00 0. -1.
         -1    1    3    3    0  502  0.56351898303E+03 -0.21743374910E+03 -0.20445906678E+03  0.63767906463E+03  0.00000000000E+00 0.  1.
         11    1    5    5    0    0 -0.26299280208E+03  0.32238704867E+03 -0.11277909035E+04  0.12020860806E+04  0.00000000000E+00 0. -1.
        -11    1    5    5    0    0 -0.27777054822E+03  0.21635256780E+03 -0.10049305528E+04  0.10648240827E+04  0.00000000000E+00 0.  1.
          2    1    6    6  503    0 -0.13777028394E+03 -0.23151163969E+03 -0.46774709327E+03  0.53978295056E+03  0.00000000000E+00 0. -1.
         -2    1    6    6    0  503 -0.14251435389E+02 -0.75334858821E+02 -0.68663446265E+02  0.10292285080E+03  0.00000000000E+00 0.  1.
<mgrwt>
<rscale>  0 0.22496971E+04</rscale>
<asrwt>0</asrwt>
<pdfrwt beam="1">  1        2 0.50794571E+00 0.22496971E+04</pdfrwt>
<pdfrwt beam="2">  1       -1 0.58958187E-01 0.22496971E+04</pdfrwt>
<totfact> 0.33625096E+00</totfact>
</mgrwt>
</event>
<event>
12    6  0.1538774E-007  0.1687069E+04  0.7818608E-02  0.8768774E-01
         -1   -1    0    0    0  501 -0.00000000000E+00  0.00000000000E+00  0.33478234518E+03  0.33478234518E+03  0.00000000000E+00 0.  1.
          2   -1    0    0  501    0  0.00000000000E+00 -0.00000000000E+00 -0.21254124244E+04  0.21254124244E+04  0.00000000000E+00 0. -1.
         24    2    1    2    0    0 -0.33739916697E+03  0.25846394675E+03 -0.46281464723E+01  0.43252118741E+03  0.80070894659E+02 0.  0.
        254    2    1    2    0    0  0.33739916697E+03 -0.25846394675E+03 -0.17860019327E+04  0.20276735822E+04  0.86082253829E+03 0.  0.
         23    2    4    4    0    0  0.52464599576E+03 -0.43554561602E+03 -0.12259038042E+04  0.14057850199E+04  0.91858480242E+02 0.  0.
         23    2    4    4    0    0 -0.18724682878E+03  0.17708166927E+03 -0.56009812851E+03  0.62188856229E+03  0.81339890980E+02 0.  0.
          4    1    3    3  502    0 -0.63930709279E+02  0.81762347750E+02  0.21116178824E+02  0.10591558009E+03  0.00000000000E+00 0. -1.
         -3    1    3    3    0  502 -0.27346845769E+03  0.17670159900E+03 -0.25744325296E+02  0.32660560731E+03  0.00000000000E+00 0.  1.
         11    1    5    5    0    0  0.43748105685E+03 -0.38508409843E+03 -0.98239930411E+03  0.11422730981E+04  0.00000000000E+00 0.  1.
        -11    1    5    5    0    0  0.87164938907E+02 -0.50461517586E+02 -0.24350450010E+03  0.26351192175E+03  0.00000000000E+00 0. -1.
          1    1    6    6  503    0 -0.65505598003E+02  0.83158689183E+02 -0.31734628081E+03  0.33453701275E+03  0.00000000000E+00 0. -1.
         -1    1    6    6    0  503 -0.12174123078E+03  0.93922980083E+02 -0.24275184770E+03  0.28735154954E+03  0.00000000000E+00 0.  1.
<mgrwt>
<rscale>  0 0.16870691E+04</rscale>
<asrwt>0</asrwt>
<pdfrwt beam="1">  1        2 0.32698653E+00 0.16870691E+04</pdfrwt>
<pdfrwt beam="2">  1       -1 0.51504976E-01 0.16870691E+04</pdfrwt>
<totfact> 0.23404077E+01</totfact>
</mgrwt>
</event>
<event>
12    6  0.1538774E-007  0.2499107E+04  0.7818608E-02  0.8403304E-01
         -1   -1    0    0    0  501 -0.00000000000E+00  0.00000000000E+00  0.61016938896E+03  0.61016938896E+03  0.00000000000E+00 0.  1.
          2   -1    0    0  501    0  0.00000000000E+00 -0.00000000000E+00 -0.25589342551E+04  0.25589342551E+04  0.00000000000E+00 0. -1.
         24    2    1    2    0    0 -0.97228113248E+03  0.10108072885E+03 -0.25566640890E+03  0.10136862372E+04  0.81526440172E+02 0.  0.
        254    2    1    2    0    0  0.97228113248E+03 -0.10108072885E+03 -0.16930984572E+04  0.21554174069E+04  0.90757583581E+03 0.  0.
         23    2    4    4    0    0  0.83252407407E+03 -0.42408166443E+01 -0.56282120216E+03  0.10090404091E+04  0.90997379618E+02 0.  0.
         23    2    4    4    0    0  0.13975705841E+03 -0.96839912202E+02 -0.11302772551E+04  0.11463769978E+04  0.87997408173E+02 0.  0.
          2    1    3    3  502    0 -0.46846693705E+03  0.85372399361E+01 -0.11398341875E+03  0.48220988721E+03  0.00000000000E+00 0. -1.
         -1    1    3    3    0  502 -0.50381419543E+03  0.92543488910E+02 -0.14168299015E+03  0.53147634995E+03  0.00000000000E+00 0.  1.
         11    1    5    5    0    0  0.65762923270E+03 -0.39265412112E+02 -0.43126233779E+03  0.78740407942E+03  0.00000000000E+00 0. -1.
        -11    1    5    5    0    0  0.17489484137E+03  0.35024595467E+02 -0.13155886437E+03  0.22163632965E+03  0.00000000000E+00 0.  1.
          3    1    6    6  503    0  0.11616085014E+03 -0.60954586619E+02 -0.10134611800E+04  0.10219160279E+04  0.00000000000E+00 0. -1.
         -3    1    6    6    0  503  0.23596208266E+02 -0.35885325583E+02 -0.11681607503E+03  0.12446096988E+03  0.00000000000E+00 0.  1.
<mgrwt>
<rscale>  0 0.24991065E+04</rscale>
<asrwt>0</asrwt>
<pdfrwt beam="1">  1        2 0.39368220E+00 0.24991065E+04</pdfrwt>
<pdfrwt beam="2">  1       -1 0.93872213E-01 0.24991065E+04</pdfrwt>
<totfact> 0.35883529E+00</totfact>
</mgrwt>
</event>
<event>
12    6  0.1538774E-007  0.2571390E+04  0.7818608E-02  0.8377985E-01
          2   -1    0    0  501    0  0.00000000000E+00  0.00000000000E+00  0.28871257616E+04  0.28871257616E+04  0.00000000000E+00 0. -1.
         -1   -1    0    0    0  501 -0.00000000000E+00 -0.00000000000E+00 -0.57254577716E+03  0.57254577716E+03  0.00000000000E+00 0.  1.
         24    2    1    2    0    0  0.36226560617E+03 -0.31623309129E+03  0.23920168954E+04  0.24408750044E+04  0.69901514418E+02 0.  0.
        254    2    1    2    0    0 -0.36226560617E+03  0.31623309129E+03 -0.77436910989E+02  0.10187965344E+04  0.89482409768E+03 0.  0.
         23    2    4    4    0    0 -0.11691933882E+03  0.59934022682E+03  0.32745252115E+02  0.61812375859E+03  0.90143719238E+02 0.  0.
         23    2    4    4    0    0 -0.24534626734E+03 -0.28310713553E+03 -0.11018216310E+03  0.40067277577E+03  0.89744766358E+02 0.  0.
          2    1    3    3  502    0  0.31563117600E+03 -0.29254823206E+03  0.22090027752E+04  0.22505334408E+04  0.00000000000E+00 0. -1.
         -1    1    3    3    0  502  0.46634430165E+02 -0.23684859237E+02  0.18301412023E+03  0.19034156361E+03  0.00000000000E+00 0.  1.
         11    1    5    5    0    0 -0.12490808142E+03  0.51571600613E+03  0.47818219521E+02  0.53277726106E+03  0.00000000000E+00 0. -1.
        -11    1    5    5    0    0  0.79887425912E+01  0.83624220690E+02 -0.15072967405E+02  0.85346497530E+02  0.00000000000E+00 0.  1.
          4    1    6    6  503    0 -0.19012069290E+03 -0.22637733699E+03 -0.12351196512E+03  0.32038692561E+03  0.00000000000E+00 0. -1.
         -4    1    6    6    0  503 -0.55225574440E+02 -0.56729798533E+02  0.13329802012E+02  0.80285850157E+02  0.00000000000E+00 0.  1.
<mgrwt>
<rscale>  0 0.25713900E+04</rscale>
<asrwt>0</asrwt>
<pdfrwt beam="1">  1        2 0.44417319E+00 0.25713900E+04</pdfrwt>
<pdfrwt beam="2">  1       -1 0.88083967E-01 0.25713900E+04</pdfrwt>
<totfact> 0.26124471E+00</totfact>
</mgrwt>
</event>
<event>
12    6  0.1538774E-007  0.1766443E+04  0.7818608E-02  0.8724351E-01
         -1   -1    0    0    0  501 -0.00000000000E+00  0.00000000000E+00  0.38938212357E+03  0.38938212357E+03  0.00000000000E+00 0.  1.
          2   -1    0    0  501    0  0.00000000000E+00 -0.00000000000E+00 -0.20033795734E+04  0.20033795734E+04  0.00000000000E+00 0. -1.
         24    2    1    2    0    0  0.34183269210E+02 -0.60638935998E+03 -0.87035456194E+03  0.10642643674E+04  0.79151933075E+02 0.  0.
        254    2    1    2    0    0 -0.34183269210E+02  0.60638935998E+03 -0.74364288792E+03  0.13284973296E+04  0.91816330689E+03 0.  0.
         23    2    4    4    0    0 -0.10801070242E+03  0.38564215939E+03  0.12168738633E+03  0.42797377049E+03  0.89261085023E+02 0.  0.
         23    2    4    4    0    0  0.73827433213E+02  0.22074720059E+03 -0.86533027425E+03  0.90052355908E+03  0.89254582346E+02 0.  0.
          4    1    3    3  502    0  0.17060657363E+02 -0.50578249815E+03 -0.76784818615E+03  0.91961831127E+03  0.00000000000E+00 0. -1.
         -3    1    3    3    0  502  0.17122611847E+02 -0.10060686184E+03 -0.10250637580E+03  0.14464605616E+03  0.00000000000E+00 0.  1.
         11    1    5    5    0    0 -0.43350467535E+02  0.84727348730E+02 -0.46103253796E+01  0.95285055273E+02  0.00000000000E+00 0. -1.
        -11    1    5    5    0    0 -0.64660234887E+02  0.30091481066E+03  0.12629771171E+03  0.33268871521E+03  0.00000000000E+00 0.  1.
          3    1    6    6  503    0  0.18936227727E+02  0.89759610888E+01 -0.17769615702E+03  0.17892756305E+03  0.00000000000E+00 0. -1.
         -3    1    6    6    0  503  0.54891205486E+02  0.21177123950E+03 -0.68763411722E+03  0.72159599603E+03  0.00000000000E+00 0.  1.
<mgrwt>
<rscale>  0 0.17664430E+04</rscale>
<asrwt>0</asrwt>
<pdfrwt beam="1">  1        2 0.30821224E+00 0.17664430E+04</pdfrwt>
<pdfrwt beam="2">  1       -1 0.59904942E-01 0.17664430E+04</pdfrwt>
<totfact> 0.20263405E+01</totfact>
</mgrwt>
</event>
<event>
12    6  0.1538774E-007  0.1663668E+04  0.7818608E-02  0.8782361E-01
         -1   -1    0    0    0  501 -0.00000000000E+00  0.00000000000E+00  0.38388759379E+03  0.38388759379E+03  0.00000000000E+00 0.  1.
          2   -1    0    0  501    0  0.00000000000E+00 -0.00000000000E+00 -0.18024758463E+04  0.18024758463E+04  0.00000000000E+00 0. -1.
         24    2    1    2    0    0  0.34625743448E+03 -0.43545484887E+03 -0.27824314961E+03  0.62725144724E+03  0.80684517875E+02 0.  0.
        254    2    1    2    0    0 -0.34625743448E+03  0.43545484887E+03 -0.11403451029E+04  0.15591119928E+04  0.90605083533E+03 0.  0.
         23    2    4    4    0    0 -0.60815541074E+03  0.45694006995E+03 -0.96058492372E+03  0.12288598645E+04  0.93412739386E+02 0.  0.
         23    2    4    4    0    0  0.26189797626E+03 -0.21485221079E+02 -0.17976017916E+03  0.33025212829E+03  0.87752957393E+02 0.  0.
          4    1    3    3  502    0  0.18693829991E+03 -0.28835969774E+03 -0.14688939798E+03  0.37372949909E+03  0.00000000000E+00 0. -1.
         -3    1    3    3    0  502  0.15931913457E+03 -0.14709515113E+03 -0.13135375163E+03  0.25352194815E+03  0.00000000000E+00 0.  1.
         11    1    5    5    0    0 -0.40018373134E+03  0.35053354822E+03 -0.64134070070E+03  0.83326987323E+03  0.00000000000E+00 0. -1.
        -11    1    5    5    0    0 -0.20797167940E+03  0.10640652172E+03 -0.31924422302E+03  0.39558999132E+03  0.00000000000E+00 0.  1.
          4    1    6    6  503    0  0.14300875745E+03 -0.48867629350E+02 -0.12669907810E+03  0.19721107042E+03  0.00000000000E+00 0. -1.
         -4    1    6    6    0  503  0.11888921881E+03  0.27382408271E+02 -0.53061101069E+02  0.13304105787E+03  0.00000000000E+00 0.  1.
<mgrwt>
<rscale>  0 0.16636684E+04</rscale>
<asrwt>0</asrwt>
<pdfrwt beam="1">  1        2 0.27730397E+00 0.16636684E+04</pdfrwt>
<pdfrwt beam="2">  1       -1 0.59059632E-01 0.16636684E+04</pdfrwt>
<totfact> 0.27169311E+01</totfact>
</mgrwt>
</event>
<event>
12    6  0.1538774E-007  0.3413195E+04  0.7818608E-02  0.8134676E-01
         -1   -1    0    0    0  501 -0.00000000000E+00  0.00000000000E+00  0.19058645680E+04  0.19058645680E+04  0.00000000000E+00 0.  1.
          2   -1    0    0  501    0  0.00000000000E+00 -0.00000000000E+00 -0.15281643761E+04  0.15281643761E+04  0.00000000000E+00 0. -1.
         24    2    1    2    0    0 -0.12589200379E+03 -0.73063574776E+03  0.15923044229E+04  0.17582554784E+04  0.79696671855E+02 0.  0.
        254    2    1    2    0    0  0.12589200379E+03  0.73063574776E+03 -0.12146042311E+04  0.16757734657E+04  0.88502874409E+03 0.  0.
         23    2    4    4    0    0 -0.11626797728E+03  0.51360649181E+03 -0.12294660394E+04  0.13405905781E+04  0.91030132393E+02 0.  0.
         23    2    4    4    0    0  0.24215998106E+03  0.21702925595E+03  0.14861808370E+02  0.33518288765E+03  0.79897061629E+02 0.  0.
          2    1    3    3  502    0 -0.10114284795E+02 -0.13127420018E+03  0.35327006855E+03  0.37700789875E+03  0.00000000000E+00 0. -1.
         -1    1    3    3    0  502 -0.11577771899E+03 -0.59936154757E+03  0.12390343544E+04  0.13812475796E+04  0.00000000000E+00 0.  1.
         11    1    5    5    0    0 -0.12418409787E+03  0.47755583723E+03 -0.10929901462E+04  0.11992117109E+04  0.00000000000E+00 0.  1.
        -11    1    5    5    0    0  0.79161205940E+01  0.36050654581E+02 -0.13647589325E+03  0.14137886723E+03  0.00000000000E+00 0. -1.
          2    1    6    6  503    0  0.14715960126E+02  0.49288660050E+02  0.10720136745E+02  0.52543818131E+02  0.00000000000E+00 0. -1.
         -2    1    6    6    0  503  0.22744402094E+03  0.16774059590E+03  0.41416716245E+01  0.28263906952E+03  0.00000000000E+00 0.  1.
<mgrwt>
<rscale>  0 0.34131946E+04</rscale>
<asrwt>0</asrwt>
<pdfrwt beam="1">  1        2 0.23510221E+00 0.34131946E+04</pdfrwt>
<pdfrwt beam="2">  1       -1 0.29320993E+00 0.34131946E+04</pdfrwt>
<totfact> 0.42133169E-01</totfact>
</mgrwt>
</event>
<event>
12    6  0.1538774E-007  0.1122005E+04  0.7818608E-02  0.9184006E-01
         -1   -1    0    0    0  501 -0.00000000000E+00  0.00000000000E+00  0.27211746151E+03  0.27211746151E+03  0.00000000000E+00 0.  1.
          2   -1    0    0  501    0  0.00000000000E+00 -0.00000000000E+00 -0.11565728720E+04  0.11565728720E+04  0.00000000000E+00 0. -1.
         24    2    1    2    0    0  0.54314657259E+02  0.17677337306E+03 -0.12648353554E+03  0.23803603669E+03  0.80400016071E+02 0.  0.
        254    2    1    2    0    0 -0.54314657259E+02 -0.17677337306E+03 -0.75797187491E+03  0.11906542968E+04  0.89940946396E+03 0.  0.
         23    2    4    4    0    0 -0.11648908163E+03 -0.39165312131E+03 -0.25808943251E+02  0.41968295695E+03  0.92226944177E+02 0.  0.
         23    2    4    4    0    0  0.62174424373E+02  0.21487974824E+03 -0.73216293166E+03  0.77097133983E+03  0.91078444673E+02 0.  0.
          4    1    3    3  502    0  0.12350732357E+02  0.89914192121E+01 -0.43701939635E+02  0.46295202095E+02  0.00000000000E+00 0. -1.
         -1    1    3    3    0  502  0.41963924901E+02  0.16778195385E+03 -0.82781595902E+02  0.19174083460E+03  0.00000000000E+00 0.  1.
         11    1    5    5    0    0 -0.33568796463E+02 -0.26052895990E+03 -0.17696348401E+01  0.26268866487E+03  0.00000000000E+00 0.  1.
        -11    1    5    5    0    0 -0.82920285168E+02 -0.13112416141E+03 -0.24039308411E+02  0.15699429208E+03  0.00000000000E+00 0. -1.
          3    1    6    6  503    0  0.93120677829E+00  0.81353055576E+02 -0.15092815123E+03  0.17145988928E+03  0.00000000000E+00 0. -1.
         -3    1    6    6    0  503  0.61243217595E+02  0.13352669267E+03 -0.58123478043E+03  0.59951145054E+03  0.00000000000E+00 0.  1.
<mgrwt>
<rscale>  0 0.11220048E+04</rscale>
<asrwt>0</asrwt>
<pdfrwt beam="1">  1        2 0.17793429E+00 0.11220048E+04</pdfrwt>
<pdfrwt beam="2">  1       -1 0.41864225E-01 0.11220048E+04</pdfrwt>
<totfact> 0.12728038E+02</totfact>
</mgrwt>
</event>
<event>
12    6  0.1538774E-007  0.1583035E+04  0.7818608E-02  0.8831039E-01
         -1   -1    0    0    0  501 -0.00000000000E+00  0.00000000000E+00  0.65193957429E+03  0.65193957429E+03  0.00000000000E+00 0.  1.
          2   -1    0    0  501    0  0.00000000000E+00 -0.00000000000E+00 -0.96097850283E+03  0.96097850283E+03  0.00000000000E+00 0. -1.
         24    2    1    2    0    0 -0.38422104617E+03 -0.11440178335E+03  0.21982079614E+03  0.46297988712E+03  0.72908251284E+02 0.  0.
        254    2    1    2    0    0  0.38422104617E+03  0.11440178335E+03 -0.52885972468E+03  0.11499381900E+04  0.93912280990E+03 0.  0.
         23    2    4    4    0    0  0.24559069589E+03 -0.38498956872E+03 -0.11168957754E+03  0.47853578414E+03  0.89387790252E+02 0.  0.
         23    2    4    4    0    0  0.13863035028E+03  0.49939135207E+03 -0.41717014714E+03  0.67140240586E+03  0.90222848434E+02 0.  0.
          4    1    3    3  502    0 -0.21962513734E+03 -0.33501044197E+02  0.98101028075E+02  0.24286072680E+03  0.00000000000E+00 0. -1.
         -3    1    3    3    0  502 -0.16459590883E+03 -0.80900739157E+02  0.12171976807E+03  0.22011916032E+03  0.00000000000E+00 0.  1.
         11    1    5    5    0    0  0.18256962090E+03 -0.29697745833E+03 -0.12306240795E+03  0.36969126779E+03  0.00000000000E+00 0. -1.
        -11    1    5    5    0    0  0.63021074991E+02 -0.88012110387E+02  0.11372830414E+02  0.10884451635E+03  0.00000000000E+00 0.  1.
          2    1    6    6  503    0  0.39231126187E+02  0.19308125008E+03 -0.10662554714E+03  0.22402780563E+03  0.00000000000E+00 0. -1.
         -2    1    6    6    0  503  0.99399224093E+02  0.30631010199E+03 -0.31054460001E+03  0.44737460023E+03  0.00000000000E+00 0.  1.
<mgrwt>
<rscale>  0 0.15830350E+04</rscale>
<asrwt>0</asrwt>
<pdfrwt beam="1">  1        2 0.14784285E+00 0.15830350E+04</pdfrwt>
<pdfrwt beam="2">  1       -1 0.10029840E+00 0.15830350E+04</pdfrwt>
<totfact> 0.27701042E+01</totfact>
</mgrwt>
</event>
<event>
12    6  0.1538774E-007  0.2858166E+04  0.7818608E-02  0.8285434E-01
          2   -1    0    0  501    0  0.00000000000E+00  0.00000000000E+00  0.24174683788E+04  0.24174683788E+04  0.00000000000E+00 0. -1.
         -1   -1    0    0    0  501 -0.00000000000E+00 -0.00000000000E+00 -0.84480026043E+03  0.84480026043E+03  0.00000000000E+00 0.  1.
         24    2    1    2    0    0  0.56058415915E+03 -0.68923680251E+02 -0.60496577138E+03  0.83150434432E+03  0.80067577149E+02 0.  0.
        254    2    1    2    0    0 -0.56058415915E+03  0.68923680251E+02  0.21776338897E+04  0.24307642949E+04  0.92060883465E+03 0.  0.
         23    2    4    4    0    0  0.12585811781E+03 -0.11997500576E+03  0.76903074520E+02  0.21086754738E+03  0.91196336766E+02 0.  0.
         23    2    4    4    0    0 -0.68644227696E+03  0.18889868601E+03  0.21007308152E+04  0.22198967475E+04  0.89363854407E+02 0.  0.
          2    1    3    3  502    0  0.31346921444E+02 -0.23615471701E+02 -0.43894148805E+02  0.58881374704E+02  0.00000000000E+00 0. -1.
         -1    1    3    3    0  502  0.52923723770E+03 -0.45308208549E+02 -0.56107162257E+03  0.77262296962E+03  0.00000000000E+00 0.  1.
         11    1    5    5    0    0  0.10981275532E+03 -0.81825729933E+02  0.16913177307E+02  0.13798676341E+03  0.00000000000E+00 0. -1.
        -11    1    5    5    0    0  0.16045362491E+02 -0.38149275827E+02  0.59989897213E+02  0.72880783964E+02  0.00000000000E+00 0.  1.
          3    1    6    6  503    0 -0.65721137179E+03  0.17997329753E+03  0.20538289928E+04  0.21639155961E+04  0.00000000000E+00 0. -1.
         -3    1    6    6    0  503 -0.29230905174E+02  0.89253884835E+01  0.46901822375E+02  0.55981151461E+02  0.00000000000E+00 0.  1.
<mgrwt>
<rscale>  0 0.28581658E+04</rscale>
<asrwt>0</asrwt>
<pdfrwt beam="1">  1        2 0.37191821E+00 0.28581658E+04</pdfrwt>
<pdfrwt beam="2">  1       -1 0.12996927E+00 0.28581658E+04</pdfrwt>
<totfact> 0.19404984E+00</totfact>
</mgrwt>
</event>
<event>
12    6  0.1538774E-007  0.1187972E+04  0.7818608E-02  0.9123450E-01
         -1   -1    0    0    0  501 -0.00000000000E+00  0.00000000000E+00  0.16079106264E+03  0.16079106264E+03  0.00000000000E+00 0.  1.
          2   -1    0    0  501    0  0.00000000000E+00 -0.00000000000E+00 -0.21942711719E+04  0.21942711719E+04  0.00000000000E+00 0. -1.
         24    2    1    2    0    0 -0.94203962795E+02  0.87683472824E+01 -0.70757799368E+03  0.71881219303E+03  0.84101612305E+02 0.  0.
        254    2    1    2    0    0  0.94203962795E+02 -0.87683472824E+01 -0.13259021156E+04  0.16362500415E+04  0.95412080354E+03 0.  0.
         23    2    4    4    0    0 -0.64262497955E+02  0.45045339113E+03 -0.66866019044E+03  0.81381638993E+03  0.90292524715E+02 0.  0.
         23    2    4    4    0    0  0.15846646075E+03 -0.45922173841E+03 -0.65724192513E+03  0.82243365158E+03  0.91836479033E+02 0.  0.
          2    1    3    3  502    0 -0.70569156695E+02  0.29268629291E+02 -0.63757224009E+03  0.64213317923E+03  0.00000000000E+00 0. -1.
         -1    1    3    3    0  502 -0.23634806100E+02 -0.20500282008E+02 -0.70005753591E+02  0.76679013802E+02  0.00000000000E+00 0.  1.
         11    1    5    5    0    0 -0.44471229598E+02  0.16325022685E+03 -0.31716775079E+03  0.35947699366E+03  0.00000000000E+00 0. -1.
        -11    1    5    5    0    0 -0.19791268357E+02  0.28720316428E+03 -0.35149243965E+03  0.45433939628E+03  0.00000000000E+00 0.  1.
          3    1    6    6  503    0  0.24185414625E+02 -0.60407191413E+02 -0.43460670074E+02  0.78248277286E+02  0.00000000000E+00 0. -1.
         -3    1    6    6    0  503  0.13428104613E+03 -0.39881454700E+03 -0.61378125506E+03  0.74418537429E+03  0.00000000000E+00 0.  1.
<mgrwt>
<rscale>  0 0.11879717E+04</rscale>
<asrwt>0</asrwt>
<pdfrwt beam="1">  1        2 0.33758016E+00 0.11879717E+04</pdfrwt>
<pdfrwt beam="2">  1       -1 0.24737088E-01 0.11879717E+04</pdfrwt>
<totfact> 0.83726084E+01</totfact>
</mgrwt>
</event>
<event>
12    6  0.1538774E-007  0.1429852E+04  0.7818608E-02  0.8932489E-01
         -1   -1    0    0    0  501 -0.00000000000E+00  0.00000000000E+00  0.74861132062E+03  0.74861132062E+03  0.00000000000E+00 0.  1.
          2   -1    0    0  501    0  0.00000000000E+00 -0.00000000000E+00 -0.68275607048E+03  0.68275607048E+03  0.00000000000E+00 0. -1.
         24    2    1    2    0    0 -0.74618942064E+02 -0.37028275494E+03  0.22459658848E+03  0.44662303589E+03  0.79694438360E+02 0.  0.
        254    2    1    2    0    0  0.74618942064E+02  0.37028275494E+03 -0.15874133834E+03  0.98474435521E+03  0.89545816625E+03 0.  0.
         23    2    4    4    0    0  0.38573879111E+03 -0.21226095616E+02  0.10717392211E+03  0.41099909202E+03  0.90493325491E+02 0.  0.
         23    2    4    4    0    0 -0.31111984905E+03  0.39150885056E+03 -0.26591526045E+03  0.57374526319E+03  0.91640388237E+02 0.  0.
          2    1    3    3  502    0 -0.59367130294E+02 -0.17163323588E+03  0.70758705920E+02  0.19490823041E+03  0.00000000000E+00 0. -1.
         -1    1    3    3    0  502 -0.15251811769E+02 -0.19864951907E+03  0.15383788256E+03  0.25171480548E+03  0.00000000000E+00 0.  1.
         11    1    5    5    0    0  0.31376383164E+03 -0.47416664428E+02  0.10544651666E+03  0.33438757451E+03  0.00000000000E+00 0. -1.
        -11    1    5    5    0    0  0.71974959476E+02  0.26190568812E+02  0.17274054467E+01  0.76611517514E+02  0.00000000000E+00 0.  1.
          2    1    6    6  503    0 -0.31503173943E+03  0.38935994915E+03 -0.26881219130E+03  0.56842427907E+03  0.00000000000E+00 0. -1.
         -2    1    6    6    0  503  0.39118903839E+01  0.21489014144E+01  0.28969308478E+01  0.53209841196E+01  0.00000000000E+00 0.  1.
<mgrwt>
<rscale>  0 0.14298516E+04</rscale>
<asrwt>0</asrwt>
<pdfrwt beam="1">  1        2 0.10503940E+00 0.14298516E+04</pdfrwt>
<pdfrwt beam="2">  1       -1 0.11517097E+00 0.14298516E+04</pdfrwt>
<totfact> 0.32096941E+01</totfact>
</mgrwt>
</event>
<event>
12    6  0.1538774E-007  0.1845798E+04  0.7818608E-02  0.8682317E-01
          2   -1    0    0  501    0  0.00000000000E+00  0.00000000000E+00  0.16957325123E+04  0.16957325123E+04  0.00000000000E+00 0. -1.
         -1   -1    0    0    0  501 -0.00000000000E+00 -0.00000000000E+00 -0.50228612195E+03  0.50228612195E+03  0.00000000000E+00 0.  1.
         24    2    1    2    0    0 -0.64219640525E+03  0.27540022381E+03  0.54950400728E+03  0.89258637884E+03  0.80587117359E+02 0.  0.
        254    2    1    2    0    0  0.64219640525E+03 -0.27540022381E+03  0.64394238310E+03  0.13054322554E+04  0.89511455948E+03 0.  0.
         23    2    4    4    0    0  0.34974513173E+02  0.10255562262E+03  0.56248821482E+03  0.57956326114E+03  0.88089213538E+02 0.  0.
         23    2    4    4    0    0  0.60722189208E+03 -0.37795584643E+03  0.81454168274E+02  0.72586899431E+03  0.93177074937E+02 0.  0.
          2    1    3    3  502    0 -0.35344379280E+02  0.13430259942E+02  0.56547329717E+02  0.68023507164E+02  0.00000000000E+00 0. -1.
         -1    1    3    3    0  502 -0.60685202597E+03  0.26196996387E+03  0.49295667756E+03  0.82456287168E+03  0.00000000000E+00 0.  1.
         11    1    5    5    0    0  0.60523877163E+02  0.45667553434E+02  0.26642973625E+03  0.27700806758E+03  0.00000000000E+00 0. -1.
        -11    1    5    5    0    0 -0.25549363990E+02  0.56888069182E+02  0.29605847857E+03  0.30255519356E+03  0.00000000000E+00 0.  1.
          3    1    6    6  503    0  0.22097018678E+03 -0.14945050291E+03 -0.13678538628E+02  0.26711491663E+03  0.00000000000E+00 0. -1.
         -3    1    6    6    0  503  0.38625170530E+03 -0.22850534351E+03  0.95132706903E+02  0.45875407768E+03  0.00000000000E+00 0.  1.
<mgrwt>
<rscale>  0 0.18457984E+04</rscale>
<asrwt>0</asrwt>
<pdfrwt beam="1">  1        2 0.26088192E+00 0.18457984E+04</pdfrwt>
<pdfrwt beam="2">  1       -1 0.77274789E-01 0.18457984E+04</pdfrwt>
<totfact> 0.17737766E+01</totfact>
</mgrwt>
</event>
<event>
12    6  0.1538774E-007  0.1292597E+04  0.7818608E-02  0.9035457E-01
          2   -1    0    0  501    0  0.00000000000E+00  0.00000000000E+00  0.31212800938E+04  0.31212800938E+04  0.00000000000E+00 0. -1.
         -1   -1    0    0    0  501 -0.00000000000E+00 -0.00000000000E+00 -0.13382379352E+03  0.13382379352E+03  0.00000000000E+00 0.  1.
         24    2    1    2    0    0 -0.26886854642E+02 -0.37761321664E+02  0.15913716630E+04  0.15940369973E+04  0.79632649359E+02 0.  0.
        254    2    1    2    0    0  0.26886854642E+02  0.37761321664E+02  0.13960846373E+04  0.16610668900E+04  0.89885598294E+03 0.  0.
         23    2    4    4    0    0  0.40863955330E+03  0.19859704151E+03  0.59416376220E+03  0.75335868370E+03  0.89953657901E+02 0.  0.
         23    2    4    4    0    0 -0.38175269866E+03 -0.16083571985E+03  0.80192087508E+03  0.90770820625E+03  0.96196913129E+02 0.  0.
          2    1    3    3  502    0 -0.52808462167E+02 -0.20090732392E+02  0.12333444876E+04  0.12346380021E+04  0.00000000000E+00 0. -1.
         -1    1    3    3    0  502  0.25921607525E+02 -0.17670589271E+02  0.35802717534E+03  0.35939899519E+03  0.00000000000E+00 0.  1.
         11    1    5    5    0    0  0.37065585293E+03  0.20002817112E+03  0.56838514300E+03  0.70743105765E+03  0.00000000000E+00 0.  1.
        -11    1    5    5    0    0  0.37983700377E+02 -0.14311296079E+01  0.25778619206E+02  0.45927626049E+02  0.00000000000E+00 0. -1.
          2    1    6    6  503    0 -0.23648977798E+03 -0.14860684658E+03  0.51388600255E+03  0.58488480366E+03  0.00000000000E+00 0.  1.
         -2    1    6    6    0  503 -0.14526292068E+03 -0.12228873270E+02  0.28803487253E+03  0.32282340259E+03  0.00000000000E+00 0. -1.
<mgrwt>
<rscale>  0 0.12925967E+04</rscale>
<asrwt>0</asrwt>
<pdfrwt beam="1">  1        2 0.48019688E+00 0.12925967E+04</pdfrwt>
<pdfrwt beam="2">  1       -1 0.20588278E-01 0.12925967E+04</pdfrwt>
<totfact> 0.32170218E+01</totfact>
</mgrwt>
</event>
<event>
12    6  0.1538774E-007  0.2696512E+04  0.7818608E-02  0.8336137E-01
         -1   -1    0    0    0  501 -0.00000000000E+00  0.00000000000E+00  0.74206052228E+03  0.74206052228E+03  0.00000000000E+00 0.  1.
          2   -1    0    0  501    0  0.00000000000E+00 -0.00000000000E+00 -0.24496582299E+04  0.24496582299E+04  0.00000000000E+00 0. -1.
         24    2    1    2    0    0 -0.54807152464E+03  0.90546799636E+03 -0.12096268642E+04  0.16092159168E+04  0.78256167322E+02 0.  0.
        254    2    1    2    0    0  0.54807152464E+03 -0.90546799636E+03 -0.49797084335E+03  0.15825028353E+04  0.10658731512E+04 0.  0.
         23    2    4    4    0    0  0.32249989106E+03 -0.53355060654E+01  0.22290970398E+03  0.40297060415E+03  0.93069459678E+02 0.  0.
         23    2    4    4    0    0  0.22557163358E+03 -0.90013249030E+03 -0.72088054733E+03  0.11795322312E+04  0.10250101895E+03 0.  0.
          2    1    3    3  502    0 -0.43118555440E+03  0.72718412221E+03 -0.91797559090E+03  0.12479570968E+04  0.00000000000E+00 0. -1.
         -1    1    3    3    0  502 -0.11688597025E+03  0.17828387416E+03 -0.29165127333E+03  0.36125882004E+03  0.00000000000E+00 0.  1.
         11    1    5    5    0    0  0.32414723729E+03 -0.83199363603E+01  0.22832158892E+03  0.39657458410E+03  0.00000000000E+00 0.  1.
        -11    1    5    5    0    0 -0.16473462331E+01  0.29844302949E+01 -0.54118849481E+01  0.63960200506E+01  0.00000000000E+00 0. -1.
          4    1    6    6  503    0  0.11570457736E+03 -0.51648552754E+03 -0.47230208953E+03  0.70937586169E+03  0.00000000000E+00 0. -1.
         -4    1    6    6    0  503  0.10986705623E+03 -0.38364696276E+03 -0.24857845780E+03  0.47015636948E+03  0.00000000000E+00 0.  1.
<mgrwt>
<rscale>  0 0.26965123E+04</rscale>
<asrwt>0</asrwt>
<pdfrwt beam="1">  1        2 0.37687049E+00 0.26965123E+04</pdfrwt>
<pdfrwt beam="2">  1       -1 0.11416316E+00 0.26965123E+04</pdfrwt>
<totfact> 0.25940422E+00</totfact>
</mgrwt>
</event>
<event>
12    6  0.1538774E-007  0.1320069E+04  0.7818608E-02  0.9013800E-01
         -1   -1    0    0    0  501 -0.00000000000E+00  0.00000000000E+00  0.36296914526E+03  0.36296914526E+03  0.00000000000E+00 0.  1.
          2   -1    0    0  501    0  0.00000000000E+00 -0.00000000000E+00 -0.12002267924E+04  0.12002267924E+04  0.00000000000E+00 0. -1.
         24    2    1    2    0    0 -0.28809929531E+03  0.16706209991E+03 -0.11703214654E+03  0.36161230169E+03  0.78460080463E+02 0.  0.
        254    2    1    2    0    0  0.28809929531E+03 -0.16706209991E+03 -0.72022550060E+03  0.12015836360E+04  0.90231231474E+03 0.  0.
         23    2    4    4    0    0  0.53898066723E+03 -0.24204607046E+03 -0.23491005647E+03  0.64240003732E+03  0.91698492055E+02 0.  0.
         23    2    4    4    0    0 -0.25088137192E+03  0.74983970550E+02 -0.48531544413E+03  0.55918359865E+03  0.92688500195E+02 0.  0.
          4    1    3    3  502    0 -0.32434676853E+02  0.45900657922E+02 -0.21171729599E+01  0.56243764824E+02  0.00000000000E+00 0. -1.
         -3    1    3    3    0  502 -0.25566461846E+03  0.12116144199E+03 -0.11491497358E+03  0.30536853687E+03  0.00000000000E+00 0.  1.
         11    1    5    5    0    0  0.14799385293E+03 -0.10763368424E+03 -0.51538696427E+02  0.19011424912E+03  0.00000000000E+00 0. -1.
        -11    1    5    5    0    0  0.39098681430E+03 -0.13441238622E+03 -0.18337136004E+03  0.45228578820E+03  0.00000000000E+00 0.  1.
          3    1    6    6  503    0 -0.21951383869E+03  0.88980117069E+02 -0.37406173073E+03  0.44274819594E+03  0.00000000000E+00 0.  1.
         -3    1    6    6    0  503 -0.31367533228E+02 -0.13996146519E+02 -0.11125371341E+03  0.11643540271E+03  0.00000000000E+00 0. -1.
<mgrwt>
<rscale>  0 0.13200686E+04</rscale>
<asrwt>0</asrwt>
<pdfrwt beam="1">  1        2 0.18465027E+00 0.13200686E+04</pdfrwt>
<pdfrwt beam="2">  1       -1 0.55841407E-01 0.13200686E+04</pdfrwt>
<totfact> 0.68537483E+01</totfact>
</mgrwt>
</event>
<event>
12    6  0.1538774E-007  0.3511570E+04  0.7818608E-02  0.8111053E-01
          2   -1    0    0  501    0  0.00000000000E+00  0.00000000000E+00  0.16870368875E+04  0.16870368875E+04  0.00000000000E+00 0. -1.
         -1   -1    0    0    0  501 -0.00000000000E+00 -0.00000000000E+00 -0.18273348509E+04  0.18273348509E+04  0.00000000000E+00 0.  1.
         24    2    1    2    0    0 -0.55834801261E+02  0.89139941920E+03  0.13198020005E+04  0.15956158685E+04  0.80013933649E+02 0.  0.
        254    2    1    2    0    0  0.55834801261E+02 -0.89139941920E+03 -0.14600999640E+04  0.19187558699E+04  0.86719186690E+03 0.  0.
         23    2    4    4    0    0  0.40951981065E+03 -0.20679287829E+03 -0.51231701069E+03  0.69388590911E+03  0.92407605729E+02 0.  0.
         23    2    4    4    0    0 -0.35368500938E+03 -0.68460654091E+03 -0.94778295330E+03  0.12248699608E+04  0.90745207387E+02 0.  0.
          2    1    3    3  502    0  0.80860694993E+01  0.49810020895E+03  0.74497327256E+03  0.89618880795E+03  0.00000000000E+00 0. -1.
         -1    1    3    3    0  502 -0.63920870761E+02  0.39329921025E+03  0.57482872796E+03  0.69942706053E+03  0.00000000000E+00 0.  1.
         11    1    5    5    0    0  0.32620371858E+03 -0.20368261081E+03 -0.42439320643E+03  0.57271726500E+03  0.00000000000E+00 0.  1.
        -11    1    5    5    0    0  0.83316092070E+02 -0.31102674854E+01 -0.87923804252E+02  0.12116864411E+03  0.00000000000E+00 0. -1.
          3    1    6    6  503    0 -0.41967741885E+02 -0.12297835054E+03 -0.20676316308E+03  0.24420477404E+03  0.00000000000E+00 0. -1.
         -3    1    6    6    0  503 -0.31171726750E+03 -0.56162819037E+03 -0.74101979022E+03  0.98066518679E+03  0.00000000000E+00 0.  1.
<mgrwt>
<rscale>  0 0.35115702E+04</rscale>
<asrwt>0</asrwt>
<pdfrwt beam="1">  1        2 0.25954414E+00 0.35115702E+04</pdfrwt>
<pdfrwt beam="2">  1       -1 0.28112844E+00 0.35115702E+04</pdfrwt>
<totfact> 0.40771982E-01</totfact>
</mgrwt>
</event>
<event>
12    6  0.1538774E-007  0.1258096E+04  0.7818608E-02  0.9063471E-01
          4   -1    0    0  501    0  0.00000000000E+00  0.00000000000E+00  0.13910982526E+04  0.13910982526E+04  0.00000000000E+00 0. -1.
         -3   -1    0    0    0  501 -0.00000000000E+00 -0.00000000000E+00 -0.28445268357E+03  0.28445268357E+03  0.00000000000E+00 0.  1.
         24    2    1    2    0    0 -0.15568294891E+03  0.18307588921E+03  0.50199256100E+02  0.26680066619E+03  0.10444457085E+03 0.  0.
        254    2    1    2    0    0  0.15568294891E+03 -0.18307588921E+03  0.10564463129E+04  0.14087502700E+04  0.90041354348E+03 0.  0.
         23    2    4    4    0    0  0.12658823370E+03 -0.16282804015E+03  0.12077075972E+04  0.12284382206E+04  0.89248359794E+02 0.  0.
         23    2    4    4    0    0  0.29094715208E+02 -0.20247849061E+02 -0.15126128433E+03  0.18031204941E+03  0.91520386701E+02 0.  0.
          2    1    3    3  502    0 -0.10436279735E+03  0.14017143876E+03  0.81643349535E+02  0.19288665645E+03  0.00000000000E+00 0. -1.
         -1    1    3    3    0  502 -0.51320151552E+02  0.42904450449E+02 -0.31444093435E+02  0.73914009738E+02  0.00000000000E+00 0.  1.
         11    1    5    5    0    0  0.65575164012E+01 -0.10330271979E+01  0.23470803965E+03  0.23480189957E+03  0.00000000000E+00 0. -1.
        -11    1    5    5    0    0  0.12003071730E+03 -0.16179501295E+03  0.97299955760E+03  0.99363632099E+03  0.00000000000E+00 0.  1.
          4    1    6    6  503    0 -0.24055074630E+02 -0.13612240747E+02 -0.10263881209E+02  0.29483672958E+02  0.00000000000E+00 0. -1.
         -4    1    6    6    0  503  0.53149789838E+02 -0.66356083131E+01 -0.14099740312E+03  0.15082837645E+03  0.00000000000E+00 0.  1.
<mgrwt>
<rscale>  0 0.12580964E+04</rscale>
<asrwt>0</asrwt>
<pdfrwt beam="1">  1        4 0.21401511E+00 0.12580964E+04</pdfrwt>
<pdfrwt beam="2">  1       -3 0.43761952E-01 0.12580964E+04</pdfrwt>
<totfact> 0.12464393E+00</totfact>
</mgrwt>
</event>
<event>
12    6  0.1538774E-007  0.2793708E+04  0.7818608E-02  0.8305224E-01
         -1   -1    0    0    0  501 -0.00000000000E+00  0.00000000000E+00  0.86757507464E+03  0.86757507464E+03  0.00000000000E+00 0.  1.
          2   -1    0    0  501    0  0.00000000000E+00 -0.00000000000E+00 -0.22490288461E+04  0.22490288461E+04  0.00000000000E+00 0. -1.
         24    2    1    2    0    0  0.12356265231E+04 -0.17497046580E+03 -0.43648344971E+03  0.13244739548E+04  0.79535441530E+02 0.  0.
        254    2    1    2    0    0 -0.12356265231E+04  0.17497046580E+03 -0.94497032177E+03  0.17921299660E+04  0.87256709620E+03 0.  0.
         23    2    4    4    0    0 -0.47159342686E+02 -0.20487866396E+03 -0.84763443919E+01  0.22939495398E+03  0.91383400831E+02 0.  0.
         23    2    4    4    0    0 -0.11884671804E+04  0.37984912977E+03 -0.93649397738E+03  0.15627350120E+04  0.91543146552E+02 0.  0.
          4    1    3    3  502    0  0.71638701914E+03 -0.12768017137E+03 -0.28532802264E+03  0.78161670137E+03  0.00000000000E+00 0. -1.
         -3    1    3    3    0  502  0.51923950399E+03 -0.47290294430E+02 -0.15115542707E+03  0.54285725341E+03  0.00000000000E+00 0.  1.
         11    1    5    5    0    0 -0.15672574466E+02 -0.14837841912E+03  0.32665340012E+02  0.15273771404E+03  0.00000000000E+00 0. -1.
        -11    1    5    5    0    0 -0.31486768219E+02 -0.56500244844E+02 -0.41141684404E+02  0.76657239944E+02  0.00000000000E+00 0.  1.
          3    1    6    6  503    0 -0.55759968581E+02 -0.63611068047E+00 -0.49978299686E+02  0.74882635988E+02  0.00000000000E+00 0. -1.
         -3    1    6    6    0  503 -0.11327072119E+04  0.38048524045E+03 -0.88651567770E+03  0.14878523760E+04  0.00000000000E+00 0.  1.
<mgrwt>
<rscale>  0 0.27937082E+04</rscale>
<asrwt>0</asrwt>
<pdfrwt beam="1">  1        2 0.34600444E+00 0.27937082E+04</pdfrwt>
<pdfrwt beam="2">  1       -1 0.13347309E+00 0.27937082E+04</pdfrwt>
<totfact> 0.22747358E+00</totfact>
</mgrwt>
</event>
<event>
12    6  0.1538774E-007  0.3393740E+04  0.7818608E-02  0.8139444E-01
          2   -1    0    0  501    0  0.00000000000E+00  0.00000000000E+00  0.15578941122E+04  0.15578941122E+04  0.00000000000E+00 0. -1.
         -1   -1    0    0    0  501 -0.00000000000E+00 -0.00000000000E+00 -0.18482434705E+04  0.18482434705E+04  0.00000000000E+00 0.  1.
         24    2    1    2    0    0  0.15530677805E+04 -0.25582717345E+03 -0.24974561576E+03  0.15956372752E+04  0.78856629345E+02 0.  0.
        254    2    1    2    0    0 -0.15530677805E+04  0.25582717345E+03 -0.40603742603E+02  0.18105003075E+04  0.89375367185E+03 0.  0.
         23    2    4    4    0    0 -0.48891611449E+03 -0.31574544587E+03  0.72780283611E+02  0.59339841483E+03  0.89947514914E+02 0.  0.
         23    2    4    4    0    0 -0.10641516660E+04  0.57157261931E+03 -0.11338402621E+03  0.12171018927E+04  0.96783533060E+02 0.  0.
          2    1    3    3  502    0  0.30884339675E+03 -0.77938641587E+02 -0.33327037282E+02  0.32026452658E+03  0.00000000000E+00 0. -1.
         -1    1    3    3    0  502  0.12442243838E+04 -0.17788853186E+03 -0.21641857847E+03  0.12753727487E+04  0.00000000000E+00 0.  1.
         11    1    5    5    0    0 -0.19816757565E+02  0.52527691699E+01  0.29095165228E+01  0.20706538840E+02  0.00000000000E+00 0. -1.
        -11    1    5    5    0    0 -0.46909935693E+03 -0.32099821504E+03  0.69870767088E+02  0.57269187599E+03  0.00000000000E+00 0.  1.
          3    1    6    6  503    0 -0.21453627102E+02 -0.13853591609E+01  0.28642692865E+01  0.21688277349E+02  0.00000000000E+00 0. -1.
         -3    1    6    6    0  503 -0.10426980389E+04  0.57295797848E+03 -0.11624829550E+03  0.11954136153E+04  0.00000000000E+00 0.  1.
<mgrwt>
<rscale>  0 0.33937399E+04</rscale>
<asrwt>0</asrwt>
<pdfrwt beam="1">  1        2 0.23967602E+00 0.33937399E+04</pdfrwt>
<pdfrwt beam="2">  1       -1 0.28434515E+00 0.33937399E+04</pdfrwt>
<totfact> 0.46345821E-01</totfact>
</mgrwt>
</event>
<event>
12    6  0.1538774E-007  0.1354192E+04  0.7818608E-02  0.8987661E-01
          2   -1    0    0  501    0  0.00000000000E+00  0.00000000000E+00  0.17748391161E+04  0.17748391161E+04  0.00000000000E+00 0. -1.
         -1   -1    0    0    0  501 -0.00000000000E+00 -0.00000000000E+00 -0.25831025452E+03  0.25831025452E+03  0.00000000000E+00 0.  1.
         24    2    1    2    0    0  0.11850547753E+03  0.20073393785E+03  0.87056591242E+03  0.90471955634E+03  0.79339811827E+02 0.  0.
        254    2    1    2    0    0 -0.11850547753E+03 -0.20073393785E+03  0.64596294914E+03  0.11284298143E+04  0.89540384857E+03 0.  0.
         23    2    4    4    0    0  0.25905245666E+03  0.17569895897E+02 -0.70504309037E+02  0.28375844790E+03  0.90172737669E+02 0.  0.
         23    2    4    4    0    0 -0.37755793420E+03 -0.21830383375E+03  0.71646725818E+03  0.84467136635E+03  0.99688653302E+02 0.  0.
          2    1    3    3  502    0  0.79970879636E+02  0.16276333097E+03  0.76375333746E+03  0.78498815531E+03  0.00000000000E+00 0. -1.
         -1    1    3    3    0  502  0.38534597897E+02  0.37970606882E+02  0.10681257496E+03  0.11973140103E+03  0.00000000000E+00 0.  1.
         11    1    5    5    0    0  0.11242650783E+03 -0.22987367881E+02 -0.64212429654E+02  0.13149667246E+03  0.00000000000E+00 0.  1.
        -11    1    5    5    0    0  0.14662594883E+03  0.40557263778E+02 -0.62918793838E+01  0.15226177544E+03  0.00000000000E+00 0. -1.
          3    1    6    6  503    0 -0.36444212754E+03 -0.18126777056E+03  0.66849347625E+03  0.78266186618E+03  0.00000000000E+00 0. -1.
         -3    1    6    6    0  503 -0.13115806653E+02 -0.37036063184E+02  0.47973781922E+02  0.62009500177E+02  0.00000000000E+00 0.  1.
<mgrwt>
<rscale>  0 0.13541922E+04</rscale>
<asrwt>0</asrwt>
<pdfrwt beam="1">  1        2 0.27305216E+00 0.13541922E+04</pdfrwt>
<pdfrwt beam="2">  1       -1 0.39740040E-01 0.13541922E+04</pdfrwt>
<totfact> 0.61107673E+01</totfact>
</mgrwt>
</event>
<event>
12    6  0.1538774E-007  0.1473308E+04  0.7818608E-02  0.8902399E-01
          2   -1    0    0  501    0  0.00000000000E+00  0.00000000000E+00  0.21127381802E+04  0.21127381802E+04  0.00000000000E+00 0. -1.
         -1   -1    0    0    0  501 -0.00000000000E+00 -0.00000000000E+00 -0.25685111430E+03  0.25685111430E+03  0.00000000000E+00 0.  1.
         24    2    1    2    0    0 -0.18691784136E+03 -0.10910408278E+03  0.12731945816E+04  0.12938043156E+04  0.77866450232E+02 0.  0.
        254    2    1    2    0    0  0.18691784136E+03  0.10910408278E+03  0.58269248423E+03  0.10757849789E+04  0.87803235092E+03 0.  0.
         23    2    4    4    0    0 -0.32085247607E+03  0.82370647281E+02  0.75369019420E+02  0.35177813216E+03  0.91302410926E+02 0.  0.
         23    2    4    4    0    0  0.50777031743E+03  0.26733435500E+02  0.50732346481E+03  0.72400684670E+03  0.90903488852E+02 0.  0.
          4    1    3    3  502    0 -0.33295835171E+02 -0.44517741646E+02  0.48564609379E+03  0.48881752258E+03  0.00000000000E+00 0. -1.
         -3    1    3    3    0  502 -0.15362200619E+03 -0.64586341135E+02  0.78754848785E+03  0.80498679304E+03  0.00000000000E+00 0.  1.
         11    1    5    5    0    0 -0.31704055527E+03  0.64110123608E+02  0.63394706743E+02  0.32961145381E+03  0.00000000000E+00 0.  1.
        -11    1    5    5    0    0 -0.38119207968E+01  0.18260523673E+02  0.11974312677E+02  0.22166678350E+02  0.00000000000E+00 0. -1.
          1    1    6    6  503    0  0.23360896096E+03  0.44034790372E+02  0.28107899811E+03  0.36812716904E+03  0.00000000000E+00 0. -1.
         -1    1    6    6    0  503  0.27416135647E+03 -0.17301354872E+02  0.22624446670E+03  0.35587967766E+03  0.00000000000E+00 0.  1.
<mgrwt>
<rscale>  0 0.14733081E+04</rscale>
<asrwt>0</asrwt>
<pdfrwt beam="1">  1        2 0.32503663E+00 0.14733081E+04</pdfrwt>
<pdfrwt beam="2">  1       -1 0.39515557E-01 0.14733081E+04</pdfrwt>
<totfact> 0.39732245E+01</totfact>
</mgrwt>
</event>
<event>
12    6  0.1538774E-007  0.1800231E+04  0.7818608E-02  0.8706177E-01
         -1   -1    0    0    0  501 -0.00000000000E+00  0.00000000000E+00  0.85231254776E+03  0.85231254776E+03  0.00000000000E+00 0.  1.
          2   -1    0    0  501    0  0.00000000000E+00 -0.00000000000E+00 -0.95059906553E+03  0.95059906553E+03  0.00000000000E+00 0. -1.
         24    2    1    2    0    0  0.56850433499E+03  0.36035727492E+03  0.64170064435E+00  0.67835567937E+03  0.84329540919E+02 0.  0.
        254    2    1    2    0    0 -0.56850433499E+03 -0.36035727492E+03 -0.98928218416E+02  0.11245559339E+04  0.89542431932E+03 0.  0.
         23    2    4    4    0    0 -0.44597062496E+03 -0.36405870583E+02  0.33257053456E+03  0.56351199139E+03  0.82020840332E+02 0.  0.
         23    2    4    4    0    0 -0.12253371003E+03 -0.32395140433E+03 -0.43149875297E+03  0.56104394252E+03  0.92844542983E+02 0.  0.
          2    1    3    3  502    0  0.56538904554E+03  0.36186305934E+03  0.67805008611E+01  0.67130888697E+03  0.00000000000E+00 0. -1.
         -1    1    3    3    0  502  0.31152894466E+01 -0.15057844229E+01 -0.61388002167E+01  0.70467924026E+01  0.00000000000E+00 0.  1.
         11    1    5    5    0    0 -0.65679256063E+02 -0.21882017591E+01  0.16292060202E+02  0.67705126316E+02  0.00000000000E+00 0. -1.
        -11    1    5    5    0    0 -0.38029136890E+03 -0.34217668824E+02  0.31627847435E+03  0.49580686508E+03  0.00000000000E+00 0.  1.
          1    1    6    6  503    0 -0.48816956611E+02 -0.21567306662E+03 -0.21769888260E+03  0.31030754165E+03  0.00000000000E+00 0. -1.
         -1    1    6    6    0  503 -0.73716753415E+02 -0.10827833771E+03 -0.21379987038E+03  0.25073640088E+03  0.00000000000E+00 0.  1.
<mgrwt>
<rscale>  0 0.18002306E+04</rscale>
<asrwt>0</asrwt>
<pdfrwt beam="1">  1        2 0.14624601E+00 0.18002306E+04</pdfrwt>
<pdfrwt beam="2">  1       -1 0.13112501E+00 0.18002306E+04</pdfrwt>
<totfact> 0.14499827E+01</totfact>
</mgrwt>
</event>
<event>
12    6  0.1538774E-007  0.2144566E+04  0.7818608E-02  0.8541862E-01
          2   -1    0    0  501    0  0.00000000000E+00  0.00000000000E+00  0.17973761435E+04  0.17973761435E+04  0.00000000000E+00 0. -1.
         -1   -1    0    0    0  501 -0.00000000000E+00 -0.00000000000E+00 -0.63970501375E+03  0.63970501375E+03  0.00000000000E+00 0.  1.
         24    2    1    2    0    0 -0.27626494152E+03 -0.82572306814E+03  0.63470041504E+03  0.10804498244E+04  0.79914347980E+02 0.  0.
        254    2    1    2    0    0  0.27626494152E+03  0.82572306814E+03  0.52297071472E+03  0.13566313329E+04  0.89933825766E+03 0.  0.
         23    2    4    4    0    0 -0.12352257934E+03  0.17790318969E+03 -0.19565184108E+03  0.30580300528E+03  0.91260410984E+02 0.  0.
         23    2    4    4    0    0  0.39978752086E+03  0.64781987845E+03  0.71862255580E+03  0.10508283276E+04  0.91220280709E+02 0.  0.
          4    1    3    3  502    0 -0.17979620629E+03 -0.59433355041E+03  0.49005339637E+03  0.79101920093E+03  0.00000000000E+00 0. -1.
         -3    1    3    3    0  502 -0.96468735228E+02 -0.23138951772E+03  0.14464701867E+03  0.28943062346E+03  0.00000000000E+00 0.  1.
         11    1    5    5    0    0 -0.10860987513E+03  0.17364699607E+03 -0.20323732473E+03  0.28853906908E+03  0.00000000000E+00 0.  1.
        -11    1    5    5    0    0 -0.14912704212E+02  0.42561936180E+01  0.75854836523E+01  0.17263936204E+02  0.00000000000E+00 0. -1.
          3    1    6    6  503    0  0.17395011891E+03  0.21674582196E+03  0.29942035210E+03  0.40852165482E+03  0.00000000000E+00 0. -1.
         -3    1    6    6    0  503  0.22583740195E+03  0.43107405648E+03  0.41920220370E+03  0.64230667276E+03  0.00000000000E+00 0.  1.
<mgrwt>
<rscale>  0 0.21445657E+04</rscale>
<asrwt>0</asrwt>
<pdfrwt beam="1">  1        2 0.27651940E+00 0.21445657E+04</pdfrwt>
<pdfrwt beam="2">  1       -1 0.98416157E-01 0.21445657E+04</pdfrwt>
<totfact> 0.89471955E+00</totfact>
</mgrwt>
</event>
<event>
12    6  0.1538774E-007  0.1455263E+04  0.7818608E-02  0.8914760E-01
          2   -1    0    0  501    0  0.00000000000E+00  0.00000000000E+00  0.45507299957E+03  0.45507299957E+03  0.00000000000E+00 0. -1.
         -1   -1    0    0    0  501 -0.00000000000E+00 -0.00000000000E+00 -0.11634347580E+04  0.11634347580E+04  0.00000000000E+00 0.  1.
         24    2    1    2    0    0  0.21523986628E+03  0.32834495021E+03 -0.45220925412E+03  0.60390379101E+03  0.77897194515E+02 0.  0.
        254    2    1    2    0    0 -0.21523986628E+03 -0.32834495021E+03 -0.25615250433E+03  0.10146039666E+04  0.89981581291E+03 0.  0.
         23    2    4    4    0    0  0.71773642498E+02  0.73206913305E+01 -0.49224076203E+03  0.50561666217E+03  0.90234100974E+02 0.  0.
         23    2    4    4    0    0 -0.28701350878E+03 -0.33566564154E+03  0.23608825770E+03  0.50898730441E+03  0.91006777199E+02 0.  0.
          4    1    3    3  502    0  0.57630451715E+02  0.45467968425E+02 -0.56788246076E+02  0.92808997462E+02  0.00000000000E+00 0. -1.
         -3    1    3    3    0  502  0.15760941456E+03  0.28287698178E+03 -0.39542100805E+03  0.51109479354E+03  0.00000000000E+00 0.  1.
         11    1    5    5    0    0  0.46466673836E+02  0.34391438063E+02 -0.42435830814E+03  0.42827782627E+03  0.00000000000E+00 0. -1.
        -11    1    5    5    0    0  0.25306968663E+02 -0.27070746732E+02 -0.67882453896E+02  0.77338835901E+02  0.00000000000E+00 0.  1.
          2    1    6    6  503    0 -0.13403375742E+03 -0.90553122855E+02  0.76939415200E+02  0.17912171783E+03  0.00000000000E+00 0. -1.
         -2    1    6    6    0  503 -0.15297975136E+03 -0.24511251869E+03  0.15914884250E+03  0.32986558658E+03  0.00000000000E+00 0.  1.
<mgrwt>
<rscale>  0 0.14552632E+04</rscale>
<asrwt>0</asrwt>
<pdfrwt beam="1">  1        2 0.70011232E-01 0.14552632E+04</pdfrwt>
<pdfrwt beam="2">  1       -1 0.17898996E+00 0.14552632E+04</pdfrwt>
<totfact> 0.16107246E+01</totfact>
</mgrwt>
</event>
<event>
12    6  0.1538774E-007  0.2123787E+04  0.7818608E-02  0.8550837E-01
          2   -1    0    0  501    0  0.00000000000E+00  0.00000000000E+00  0.56048293140E+03  0.56048293140E+03  0.00000000000E+00 0. -1.
         -1   -1    0    0    0  501 -0.00000000000E+00 -0.00000000000E+00 -0.20118690196E+04  0.20118690196E+04  0.00000000000E+00 0.  1.
         24    2    1    2    0    0  0.19194583637E+03 -0.60204273483E+03 -0.13188055288E+04  0.14646342729E+04  0.81282667836E+02 0.  0.
        254    2    1    2    0    0 -0.19194583637E+03  0.60204273483E+03 -0.13258055940E+03  0.11077176780E+04  0.90009010152E+03 0.  0.
         23    2    4    4    0    0  0.15116494891E+03  0.12742710383E+03  0.30248594352E+03  0.37248755598E+03  0.90336729856E+02 0.  0.
         23    2    4    4    0    0 -0.34311078528E+03  0.47461563100E+03 -0.43506650291E+03  0.73523012206E+03  0.91079428297E+02 0.  0.
          4    1    3    3  502    0  0.73446787457E+02 -0.12378261860E+03 -0.32176622591E+03  0.35249123590E+03  0.00000000000E+00 0. -1.
         -3    1    3    3    0  502  0.11849904891E+03 -0.47826011622E+03 -0.99703930285E+03  0.11121430370E+04  0.00000000000E+00 0.  1.
         11    1    5    5    0    0  0.15645242384E+03  0.13539517426E+03  0.28087386724E+03  0.34885432982E+03  0.00000000000E+00 0.  1.
        -11    1    5    5    0    0 -0.52874749230E+01 -0.79680704303E+01  0.21612076277E+02  0.23633226154E+02  0.00000000000E+00 0. -1.
          2    1    6    6  503    0 -0.61549174656E+02  0.37305925067E+02 -0.64084651912E+02  0.96368436517E+02  0.00000000000E+00 0. -1.
         -2    1    6    6    0  503 -0.28156161063E+03  0.43730970593E+03 -0.37098185100E+03  0.63886168554E+03  0.00000000000E+00 0.  1.
<mgrwt>
<rscale>  0 0.21237874E+04</rscale>
<asrwt>0</asrwt>
<pdfrwt beam="1">  1        2 0.86228143E-01 0.21237874E+04</pdfrwt>
<pdfrwt beam="2">  1       -1 0.30951831E+00 0.21237874E+04</pdfrwt>
<totfact> 0.16202579E+00</totfact>
</mgrwt>
</event>
<event>
12    6  0.2482144E-007  0.2717168E+04  0.7818608E-02  0.8329456E-01
         -1   -1    0    0    0  501 -0.00000000000E+00  0.00000000000E+00  0.11975352456E+04  0.11975352456E+04  0.00000000000E+00 0.  1.
          2   -1    0    0  501    0  0.00000000000E+00 -0.00000000000E+00 -0.15412908863E+04  0.15412908863E+04  0.00000000000E+00 0. -1.
         24    2    1    2    0    0 -0.63119214147E+03 -0.92242262404E+02  0.88319753407E+03  0.10923738659E+04  0.79565220616E+02 0.  0.
        254    2    1    2    0    0  0.63119214147E+03  0.92242262404E+02 -0.12269531748E+04  0.16464522659E+04  0.89357641893E+03 0.  0.
         23    2    4    4    0    0  0.84883217358E+03  0.46796314046E+02 -0.97114248571E+03  0.12938240503E+04  0.90316065731E+02 0.  0.
         23    2    4    4    0    0 -0.21764003210E+03  0.45445948357E+02 -0.25581068904E+03  0.35262821560E+03  0.97339776088E+02 0.  0.
          4    1    3    3  502    0 -0.75284312642E+02 -0.28753595433E+02  0.14753134952E+03  0.16810709703E+03  0.00000000000E+00 0. -1.
         -3    1    3    3    0  502 -0.55590782883E+03 -0.63488666970E+02  0.73566618454E+03  0.92426676889E+03  0.00000000000E+00 0.  1.
         11    1    5    5    0    0  0.27082031908E+02  0.15146532501E+01 -0.11103814722E+02  0.29309133868E+02  0.00000000000E+00 0. -1.
        -11    1    5    5    0    0  0.82175014167E+03  0.45281660796E+02 -0.96003867099E+03  0.12645149165E+04  0.00000000000E+00 0.  1.
          1    1    6    6  503    0 -0.17739217309E+02 -0.12810476593E+02  0.11329521872E+01  0.21910539061E+02  0.00000000000E+00 0. -1.
         -1    1    6    6    0  503 -0.19990081480E+03  0.58256424950E+02 -0.25694364123E+03  0.33071767653E+03  0.00000000000E+00 0.  1.
<mgrwt>
<rscale>  0 0.27171678E+04</rscale>
<asrwt>0</asrwt>
<pdfrwt beam="1">  1        2 0.23712168E+00 0.27171678E+04</pdfrwt>
<pdfrwt beam="2">  1       -1 0.18423619E+00 0.27171678E+04</pdfrwt>
<totfact> 0.23295517E+00</totfact>
</mgrwt>
</event>
<event>
12    6  0.1538774E-007  0.4318688E+04  0.7818608E-02  0.7943171E-01
         -1   -1    0    0    0  501 -0.00000000000E+00  0.00000000000E+00  0.20059186646E+04  0.20059186646E+04  0.00000000000E+00 0.  1.
          2   -1    0    0  501    0  0.00000000000E+00 -0.00000000000E+00 -0.23245047178E+04  0.23245047178E+04  0.00000000000E+00 0. -1.
         24    2    1    2    0    0  0.10704409990E+04  0.17060710327E+04  0.30674454853E+03  0.20388482673E+04  0.79295258840E+02 0.  0.
        254    2    1    2    0    0 -0.10704409990E+04 -0.17060710327E+04 -0.62533060172E+03  0.22915751150E+04  0.89652431386E+03 0.  0.
         23    2    4    4    0    0 -0.14553473212E+03 -0.58594545208E+03  0.16872107957E+03  0.63358636616E+03  0.91937204808E+02 0.  0.
         23    2    4    4    0    0 -0.92490626688E+03 -0.11201255806E+04 -0.79405168129E+03  0.16579887488E+04  0.90970873808E+02 0.  0.
          2    1    3    3  502    0  0.70486048197E+03  0.11610955937E+04  0.23842783800E+03  0.13790645781E+04  0.00000000000E+00 0. -1.
         -1    1    3    3    0  502  0.36558051703E+03  0.54497543899E+03  0.68316710526E+02  0.65978368916E+03  0.00000000000E+00 0.  1.
         11    1    5    5    0    0 -0.26946097235E+02 -0.35623972358E+02  0.29956452179E+02  0.53782418966E+02  0.00000000000E+00 0.  1.
        -11    1    5    5    0    0 -0.11858863489E+03 -0.55032147972E+03  0.13876462739E+03  0.57980394720E+03  0.00000000000E+00 0. -1.
          1    1    6    6  503    0 -0.86312933543E+03 -0.10484665271E+04 -0.76661759655E+03  0.15594796720E+04  0.00000000000E+00 0. -1.
         -1    1    6    6    0  503 -0.61776931447E+02 -0.71659053531E+02 -0.27434084740E+02  0.98509076827E+02  0.00000000000E+00 0.  1.
<mgrwt>
<rscale>  0 0.43186884E+04</rscale>
<asrwt>0</asrwt>
<pdfrwt beam="1">  1        2 0.35761611E+00 0.43186884E+04</pdfrwt>
<pdfrwt beam="2">  1       -1 0.30860287E+00 0.43186884E+04</pdfrwt>
<totfact> 0.11148322E-01</totfact>
</mgrwt>
</event>
<event>
12    6  0.1538774E-007  0.1472121E+04  0.7818608E-02  0.8903207E-01
         -1   -1    0    0    0  501 -0.00000000000E+00  0.00000000000E+00  0.31272187426E+03  0.31272187426E+03  0.00000000000E+00 0.  1.
          2   -1    0    0  501    0  0.00000000000E+00 -0.00000000000E+00 -0.17324824450E+04  0.17324824450E+04  0.00000000000E+00 0. -1.
         24    2    1    2    0    0 -0.22453360964E+03  0.23780550069E+03 -0.41798704038E+01  0.33625734710E+03  0.78004705920E+02 0.  0.
        254    2    1    2    0    0  0.22453360964E+03 -0.23780550069E+03 -0.14155807003E+04  0.17089469722E+04  0.89981344537E+03 0.  0.
         23    2    4    4    0    0  0.24944741105E+03  0.25734837881E+03 -0.96250543594E+03  0.10312534071E+04  0.92815281394E+02 0.  0.
         23    2    4    4    0    0 -0.24913801414E+02 -0.49515387950E+03 -0.45307526440E+03  0.67769356508E+03  0.90516910295E+02 0.  0.
          2    1    3    3  502    0 -0.12054140336E+02 -0.48004048565E+01  0.42373549964E+01  0.13649225743E+02  0.00000000000E+00 0. -1.
         -1    1    3    3    0  502 -0.21247946930E+03  0.24260590555E+03 -0.84172254001E+01  0.32260812136E+03  0.00000000000E+00 0.  1.
         11    1    5    5    0    0  0.19809766218E+03  0.21469733378E+03 -0.86573659852E+03  0.91369441659E+03  0.00000000000E+00 0.  1.
        -11    1    5    5    0    0  0.51349748870E+02  0.42651045025E+02 -0.96768837424E+02  0.11755899050E+03  0.00000000000E+00 0. -1.
          1    1    6    6  503    0 -0.21691853434E+02 -0.55862483294E+02 -0.27072936239E+02  0.65757869656E+02  0.00000000000E+00 0. -1.
         -1    1    6    6    0  503 -0.32219479798E+01 -0.43929139621E+03 -0.42600232816E+03  0.61193569542E+03  0.00000000000E+00 0.  1.
<mgrwt>
<rscale>  0 0.14721211E+04</rscale>
<asrwt>0</asrwt>
<pdfrwt beam="1">  1        2 0.26653576E+00 0.14721211E+04</pdfrwt>
<pdfrwt beam="2">  1       -1 0.48111058E-01 0.14721211E+04</pdfrwt>
<totfact> 0.44809338E+01</totfact>
</mgrwt>
</event>
<event>
12    6  0.1538774E-007  0.1824655E+04  0.7818608E-02  0.8693297E-01
          2   -1    0    0  501    0  0.00000000000E+00  0.00000000000E+00  0.15361473660E+04  0.15361473660E+04  0.00000000000E+00 0. -1.
         -1   -1    0    0    0  501 -0.00000000000E+00 -0.00000000000E+00 -0.54183711145E+03  0.54183711145E+03  0.00000000000E+00 0.  1.
         24    2    1    2    0    0 -0.54036076075E+03 -0.14823873606E+03 -0.84454085913E+02  0.57284837146E+03  0.84013626465E+02 0.  0.
        254    2    1    2    0    0  0.54036076075E+03  0.14823873606E+03  0.10787643405E+04  0.15051361060E+04  0.88754589777E+03 0.  0.
         23    2    4    4    0    0  0.52626078066E+03 -0.66914268397E+02  0.16617397254E+03  0.56359595377E+03  0.92729075149E+02 0.  0.
         23    2    4    4    0    0  0.14099980086E+02  0.21515300446E+03  0.91259036792E+03  0.94154015221E+03  0.84776493430E+02 0.  0.
          4    1    3    3  502    0 -0.17528735847E+03 -0.49734845655E+02 -0.67604773170E+02  0.19434407186E+03  0.00000000000E+00 0. -1.
         -3    1    3    3    0  502 -0.36507340228E+03 -0.98503890403E+02 -0.16849312744E+02  0.37850429960E+03  0.00000000000E+00 0.  1.
         11    1    5    5    0    0  0.10502306101E+03  0.21229528507E+02  0.47270841389E+02  0.11711135159E+03  0.00000000000E+00 0. -1.
        -11    1    5    5    0    0  0.42123771965E+03 -0.88143796905E+02  0.11890313115E+03  0.44648460219E+03  0.00000000000E+00 0.  1.
          2    1    6    6  503    0 -0.15589269398E+02  0.91741823271E+01  0.14918396034E+03  0.15027656159E+03  0.00000000000E+00 0. -1.
         -2    1    6    6    0  503  0.29689249484E+02  0.20597882213E+03  0.76340640758E+03  0.79126359062E+03  0.00000000000E+00 0.  1.
<mgrwt>
<rscale>  0 0.18246552E+04</rscale>
<asrwt>0</asrwt>
<pdfrwt beam="1">  1        2 0.23633036E+00 0.18246552E+04</pdfrwt>
<pdfrwt beam="2">  1       -1 0.83359556E-01 0.18246552E+04</pdfrwt>
<totfact> 0.18568274E+01</totfact>
</mgrwt>
</event>
<event>
12    6  0.1538774E-007  0.2243758E+04  0.7818608E-02  0.8500433E-01
         -1   -1    0    0    0  501 -0.00000000000E+00  0.00000000000E+00  0.16834163309E+04  0.16834163309E+04  0.00000000000E+00 0.  1.
          2   -1    0    0  501    0  0.00000000000E+00 -0.00000000000E+00 -0.74765386299E+03  0.74765386299E+03  0.00000000000E+00 0. -1.
         24    2    1    2    0    0  0.55458817747E+03  0.72371480283E+03  0.17325670345E+03  0.93174426670E+03  0.82451990998E+02 0.  0.
        254    2    1    2    0    0 -0.55458817747E+03 -0.72371480283E+03  0.76250576445E+03  0.14993259272E+04  0.91391029793E+03 0.  0.
         23    2    4    4    0    0  0.16225285077E+03 -0.26541162295E+03  0.51501205418E+03  0.60854898328E+03  0.91242160904E+02 0.  0.
         23    2    4    4    0    0 -0.71684102825E+03 -0.45830317988E+03  0.24749371028E+03  0.89077694390E+03  0.91255480342E+02 0.  0.
          2    1    3    3  502    0  0.47328987749E+03  0.56412464528E+03  0.13690425788E+03  0.74898778319E+03  0.00000000000E+00 0. -1.
         -1    1    3    3    0  502  0.81298299984E+02  0.15959015755E+03  0.36352445562E+02  0.18275648351E+03  0.00000000000E+00 0.  1.
         11    1    5    5    0    0  0.17042787591E+03 -0.22863304399E+03  0.43541283807E+03  0.52048349565E+03  0.00000000000E+00 0. -1.
        -11    1    5    5    0    0 -0.81750251417E+01 -0.36778578963E+02  0.79599216104E+02  0.88065487627E+02  0.00000000000E+00 0.  1.
          4    1    6    6  503    0 -0.20374827097E+03 -0.13236362703E+03  0.11420113438E+03  0.26846859551E+03  0.00000000000E+00 0. -1.
         -4    1    6    6    0  503 -0.51309275728E+03 -0.32593955285E+03  0.13329257590E+03  0.62230834839E+03  0.00000000000E+00 0.  1.
<mgrwt>
<rscale>  0 0.22437582E+04</rscale>
<asrwt>0</asrwt>
<pdfrwt beam="1">  1        2 0.11502367E+00 0.22437582E+04</pdfrwt>
<pdfrwt beam="2">  1       -1 0.25898713E+00 0.22437582E+04</pdfrwt>
<totfact> 0.23837460E+00</totfact>
</mgrwt>
</event>
<event>
12    6  0.1538774E-007  0.1208272E+04  0.7818608E-02  0.9105647E-01
          2   -1    0    0  501    0  0.00000000000E+00  0.00000000000E+00  0.58390397142E+03  0.58390397142E+03  0.00000000000E+00 0. -1.
         -1   -1    0    0    0  501 -0.00000000000E+00 -0.00000000000E+00 -0.62506855510E+03  0.62506855510E+03  0.00000000000E+00 0.  1.
         24    2    1    2    0    0  0.13147276840E+02 -0.17005988289E+03 -0.20561492261E+03  0.27719004416E+03  0.73916233173E+02 0.  0.
        254    2    1    2    0    0 -0.13147276840E+02  0.17005988289E+03  0.16445033893E+03  0.93178248237E+03  0.90115562796E+03 0.  0.
         23    2    4    4    0    0  0.18911872579E+03  0.43298266925E+03  0.29416304591E+03  0.56304673447E+03  0.85146011680E+02 0.  0.
         23    2    4    4    0    0 -0.20226600263E+03 -0.26292278636E+03 -0.12971270698E+03  0.36873574789E+03  0.95397788312E+02 0.  0.
          2    1    3    3  502    0  0.37945525935E+02 -0.57490697038E+02 -0.95726694791E+02  0.11793491120E+03  0.00000000000E+00 0. -1.
         -1    1    3    3    0  502 -0.24798249095E+02 -0.11256918585E+03 -0.10988822782E+03  0.15925513296E+03  0.00000000000E+00 0.  1.
         11    1    5    5    0    0 -0.52496609838E+01  0.53235829860E+02  0.32552454964E+02  0.62620083404E+02  0.00000000000E+00 0.  1.
        -11    1    5    5    0    0  0.19436838678E+03  0.37974683939E+03  0.26161059095E+03  0.50042665107E+03  0.00000000000E+00 0. -1.
          1    1    6    6  503    0 -0.76767773834E+02 -0.92487808124E+02 -0.97236770935E+02  0.15460360724E+03  0.00000000000E+00 0. -1.
         -1    1    6    6    0  503 -0.12549822880E+03 -0.17043497823E+03 -0.32475936049E+02  0.21413214065E+03  0.00000000000E+00 0.  1.
<mgrwt>
<rscale>  0 0.12082715E+04</rscale>
<asrwt>0</asrwt>
<pdfrwt beam="1">  1        2 0.89831380E-01 0.12082715E+04</pdfrwt>
<pdfrwt beam="2">  1       -1 0.96164393E-01 0.12082715E+04</pdfrwt>
<totfact> 0.60217882E+01</totfact>
</mgrwt>
</event>
<event>
12    6  0.1538774E-007  0.2063402E+04  0.7818608E-02  0.8577538E-01
          2   -1    0    0  501    0  0.00000000000E+00  0.00000000000E+00  0.72518699895E+03  0.72518699895E+03  0.00000000000E+00 0. -1.
         -1   -1    0    0    0  501 -0.00000000000E+00 -0.00000000000E+00 -0.14677695850E+04  0.14677695850E+04  0.00000000000E+00 0.  1.
         24    2    1    2    0    0  0.52330986617E+02  0.30208522127E+03  0.51971523462E+03  0.60847613124E+03  0.78391735030E+02 0.  0.
        254    2    1    2    0    0 -0.52330986617E+02 -0.30208522127E+03 -0.12622978206E+04  0.15844804527E+04  0.90729736242E+03 0.  0.
         23    2    4    4    0    0 -0.32193482134E+03 -0.46238539877E+03 -0.50986221006E+03  0.76413885921E+03  0.80662486421E+02 0.  0.
         23    2    4    4    0    0  0.26960383472E+03  0.16030017750E+03 -0.75243561058E+03  0.82034159347E+03  0.91752968910E+02 0.  0.
          4    1    3    3  502    0  0.44554649336E+02  0.26920427988E+03  0.49930927890E+03  0.56900423292E+03  0.00000000000E+00 0. -1.
         -3    1    3    3    0  502  0.77763372809E+01  0.32880941388E+02  0.20405955719E+02  0.39471898318E+02  0.00000000000E+00 0.  1.
         11    1    5    5    0    0 -0.10044925216E+02 -0.55033860352E+02 -0.56006938896E+02  0.79160618444E+02  0.00000000000E+00 0. -1.
        -11    1    5    5    0    0 -0.31188989612E+03 -0.40735153842E+03 -0.45385527116E+03  0.68497824076E+03  0.00000000000E+00 0.  1.
          3    1    6    6  503    0  0.74114827873E+02  0.50514055307E+02 -0.12346953630E+03  0.15260866256E+03  0.00000000000E+00 0. -1.
         -3    1    6    6    0  503  0.19548900685E+03  0.10978612220E+03 -0.62896607429E+03  0.66773293092E+03  0.00000000000E+00 0.  1.
<mgrwt>
<rscale>  0 0.20634025E+04</rscale>
<asrwt>0</asrwt>
<pdfrwt beam="1">  1        2 0.11156723E+00 0.20634025E+04</pdfrwt>
<pdfrwt beam="2">  1       -1 0.22581071E+00 0.20634025E+04</pdfrwt>
<totfact> 0.41579626E+00</totfact>
</mgrwt>
</event>
<event>
12    6  0.1538774E-007  0.1674132E+04  0.7818608E-02  0.8776257E-01
          2   -1    0    0  501    0  0.00000000000E+00  0.00000000000E+00  0.90383631556E+03  0.90383631556E+03  0.00000000000E+00 0. -1.
         -3   -1    0    0    0  501 -0.00000000000E+00 -0.00000000000E+00 -0.77522869364E+03  0.77522869364E+03  0.00000000000E+00 0.  1.
         24    2    1    2    0    0  0.27172296931E+03  0.15063699717E+02 -0.47813525033E+03  0.55601730987E+03  0.80508658958E+02 0.  0.
        254    2    1    2    0    0 -0.27172296931E+03 -0.15063699717E+02  0.60674287225E+03  0.11230476993E+04  0.90500769877E+03 0.  0.
         23    2    4    4    0    0 -0.51504494523E+03  0.19983690985E+03  0.19968605893E+03  0.59430805822E+03  0.90119142217E+02 0.  0.
         23    2    4    4    0    0  0.24332197592E+03 -0.21490060957E+03  0.40705681333E+03  0.52873964111E+03  0.92100504025E+02 0.  0.
          2    1    3    3  502    0  0.10110435729E+03  0.24237797298E+01 -0.10636742917E+03  0.14677191747E+03  0.00000000000E+00 0. -1.
         -1    1    3    3    0  502  0.17061861202E+03  0.12639919987E+02 -0.37176782116E+03  0.40924539240E+03  0.00000000000E+00 0.  1.
         11    1    5    5    0    0 -0.30090313459E+03  0.16348277629E+03  0.12778344953E+03  0.36551049852E+03  0.00000000000E+00 0.  1.
        -11    1    5    5    0    0 -0.21414181063E+03  0.36354133558E+02  0.71902609396E+02  0.22879755970E+03  0.00000000000E+00 0. -1.
          4    1    6    6  503    0  0.55920424988E+02 -0.76959579004E+02  0.65690167278E+02  0.11560739080E+03  0.00000000000E+00 0.  1.
         -4    1    6    6    0  503  0.18740155093E+03 -0.13794103057E+03  0.34136664605E+03  0.41313225030E+03  0.00000000000E+00 0. -1.
<mgrwt>
<rscale>  0 0.16741324E+04</rscale>
<asrwt>0</asrwt>
<pdfrwt beam="1">  1        2 0.13905174E+00 0.16741324E+04</pdfrwt>
<pdfrwt beam="2">  1       -3 0.11926595E+00 0.16741324E+04</pdfrwt>
<totfact> 0.10085969E+01</totfact>
</mgrwt>
</event>
<event>
12    6  0.1538774E-007  0.1916410E+04  0.7818608E-02  0.8646731E-01
         -1   -1    0    0    0  501 -0.00000000000E+00  0.00000000000E+00  0.35630139803E+03  0.35630139803E+03  0.00000000000E+00 0.  1.
          2   -1    0    0  501    0  0.00000000000E+00 -0.00000000000E+00 -0.25769093475E+04  0.25769093475E+04  0.00000000000E+00 0. -1.
         24    2    1    2    0    0  0.15516014827E+03  0.10661076275E+03 -0.19763428740E+04  0.19869271218E+04  0.80670350735E+02 0.  0.
        254    2    1    2    0    0 -0.15516014827E+03 -0.10661076275E+03 -0.24426507544E+03  0.94628362367E+03  0.89462100523E+03 0.  0.
         23    2    4    4    0    0  0.26434740617E+03 -0.91942318812E+02  0.17801257762E+03  0.34317356254E+03  0.88015198097E+02 0.  0.
         23    2    4    4    0    0 -0.41950755445E+03 -0.14668443940E+02 -0.42227765305E+03  0.60311006113E+03  0.96029048142E+02 0.  0.
          4    1    3    3  502    0  0.16052700789E+03  0.92105029913E+02 -0.19025686195E+04  0.19115490077E+04  0.00000000000E+00 0. -1.
         -3    1    3    3    0  502 -0.53668596194E+01  0.14505732839E+02 -0.73774254505E+02  0.75378114165E+02  0.00000000000E+00 0.  1.
         11    1    5    5    0    0  0.26613843427E+03 -0.88640277023E+02  0.18444950236E+03  0.33572069318E+03  0.00000000000E+00 0. -1.
        -11    1    5    5    0    0 -0.17910280952E+01 -0.33020417888E+01 -0.64369247415E+01  0.74528693629E+01  0.00000000000E+00 0.  1.
          3    1    6    6  503    0 -0.38848697627E+03 -0.19255513522E+02 -0.41879212035E+03  0.57155904822E+03  0.00000000000E+00 0. -1.
         -3    1    6    6    0  503 -0.31020578172E+02  0.45870695819E+01 -0.34855327004E+01  0.31551012910E+02  0.00000000000E+00 0.  1.
<mgrwt>
<rscale>  0 0.19164096E+04</rscale>
<asrwt>0</asrwt>
<pdfrwt beam="1">  1        2 0.39644759E+00 0.19164096E+04</pdfrwt>
<pdfrwt beam="2">  1       -1 0.54815600E-01 0.19164096E+04</pdfrwt>
<totfact> 0.11254394E+01</totfact>
</mgrwt>
</event>
<event>
12    6  0.1538774E-007  0.2468996E+04  0.7818608E-02  0.8414115E-01
         -1   -1    0    0    0  501 -0.00000000000E+00  0.00000000000E+00  0.72218548266E+03  0.72218548266E+03  0.00000000000E+00 0.  1.
          2   -1    0    0  501    0  0.00000000000E+00 -0.00000000000E+00 -0.21102412783E+04  0.21102412783E+04  0.00000000000E+00 0. -1.
         24    2    1    2    0    0  0.92034362577E+02 -0.10545866091E+04 -0.77918817192E+03  0.13171416464E+04  0.84289200547E+02 0.  0.
        254    2    1    2    0    0 -0.92034362577E+02  0.10545866091E+04 -0.60886762370E+03  0.15152851146E+04  0.89707633742E+03 0.  0.
         23    2    4    4    0    0 -0.86564876971E+02  0.77896867013E+03 -0.83495991286E+03  0.11487903773E+04  0.90970368981E+02 0.  0.
         23    2    4    4    0    0 -0.54694856065E+01  0.27561793901E+03  0.22609228915E+03  0.36649473722E+03  0.84885249709E+02 0.  0.
          4    1    3    3  502    0  0.45191969231E+02 -0.68544106450E+03 -0.55131037133E+03  0.88080354933E+03  0.00000000000E+00 0. -1.
         -3    1    3    3    0  502  0.46842393346E+02 -0.36914554464E+03 -0.22787780059E+03  0.43633809706E+03  0.00000000000E+00 0.  1.
         11    1    5    5    0    0 -0.50874717794E+02  0.34606617944E+03 -0.30965779482E+03  0.46715948814E+03  0.00000000000E+00 0.  1.
        -11    1    5    5    0    0 -0.35690159177E+02  0.43290249068E+03 -0.52530211804E+03  0.68163088920E+03  0.00000000000E+00 0. -1.
          3    1    6    6  503    0  0.27066188158E+02  0.21331711470E+03  0.14585833094E+03  0.25982960315E+03  0.00000000000E+00 0. -1.
         -3    1    6    6    0  503 -0.32535673765E+02  0.62300824311E+02  0.80233958209E+02  0.10666513407E+03  0.00000000000E+00 0.  1.
<mgrwt>
<rscale>  0 0.24689962E+04</rscale>
<asrwt>0</asrwt>
<pdfrwt beam="1">  1        2 0.32465250E+00 0.24689962E+04</pdfrwt>
<pdfrwt beam="2">  1       -1 0.11110546E+00 0.24689962E+04</pdfrwt>
<totfact> 0.43962829E+00</totfact>
</mgrwt>
</event>
<event>
12    6  0.1538774E-007  0.1247131E+04  0.7818608E-02  0.9072574E-01
         -1   -1    0    0    0  501 -0.00000000000E+00  0.00000000000E+00  0.17734628494E+03  0.17734628494E+03  0.00000000000E+00 0.  1.
          2   -1    0    0  501    0  0.00000000000E+00 -0.00000000000E+00 -0.21925125067E+04  0.21925125067E+04  0.00000000000E+00 0. -1.
         24    2    1    2    0    0 -0.22627047840E+03  0.49437022172E+02 -0.13334245091E+03  0.27915558903E+03  0.80655347696E+02 0.  0.
        254    2    1    2    0    0  0.22627047840E+03 -0.49437022172E+02 -0.18818237709E+04  0.20907032026E+04  0.88098628159E+03 0.  0.
         23    2    4    4    0    0 -0.29174238035E+03  0.55710413165E+02 -0.10969969424E+04  0.11400825686E+04  0.90380888605E+02 0.  0.
         23    2    4    4    0    0  0.51801285876E+03 -0.10514743534E+03 -0.78482682851E+03  0.95062063404E+03  0.91286001840E+02 0.  0.
          4    1    3    3  502    0 -0.64129745142E+02 -0.14043277307E+02 -0.11534627580E+02  0.66654973429E+02  0.00000000000E+00 0. -1.
         -3    1    3    3    0  502 -0.16214073326E+03  0.63480299479E+02 -0.12180782333E+03  0.21250061560E+03  0.00000000000E+00 0.  1.
         11    1    5    5    0    0 -0.84405440789E+02  0.13304256639E+02 -0.48645960541E+03  0.49390710602E+03  0.00000000000E+00 0. -1.
        -11    1    5    5    0    0 -0.20733693956E+03  0.42406156526E+02 -0.61053733694E+03  0.64617546257E+03  0.00000000000E+00 0.  1.
          4    1    6    6  503    0  0.51502770071E+03 -0.92609832923E+02 -0.76988649833E+03  0.93088953907E+03  0.00000000000E+00 0.  1.
         -4    1    6    6    0  503  0.29851580490E+01 -0.12537602414E+02 -0.14940330176E+02  0.19731094968E+02  0.00000000000E+00 0. -1.
<mgrwt>
<rscale>  0 0.12471310E+04</rscale>
<asrwt>0</asrwt>
<pdfrwt beam="1">  1        2 0.33730963E+00 0.12471310E+04</pdfrwt>
<pdfrwt beam="2">  1       -1 0.27284043E-01 0.12471310E+04</pdfrwt>
<totfact> 0.70539757E+01</totfact>
</mgrwt>
</event>
<event>
12    6  0.1538774E-007  0.1528521E+04  0.7818608E-02  0.8865705E-01
         -1   -1    0    0    0  501 -0.00000000000E+00  0.00000000000E+00  0.33529933305E+03  0.33529933305E+03  0.00000000000E+00 0.  1.
          2   -1    0    0  501    0  0.00000000000E+00 -0.00000000000E+00 -0.17420073565E+04  0.17420073565E+04  0.00000000000E+00 0. -1.
         24    2    1    2    0    0 -0.26852952492E+03 -0.21931980327E+03 -0.10261650843E+04  0.10861030937E+04  0.79974171886E+02 0.  0.
        254    2    1    2    0    0  0.26852952492E+03  0.21931980327E+03 -0.38054293919E+03  0.99120359582E+03  0.84703149761E+03 0.  0.
         23    2    4    4    0    0  0.36234277729E+03  0.47981835795E+03 -0.16823770489E+03  0.63090189600E+03  0.90638469496E+02 0.  0.
         23    2    4    4    0    0 -0.93813252368E+02 -0.26049855468E+03 -0.21230523430E+03  0.36030169982E+03  0.89907614090E+02 0.  0.
          2    1    3    3  502    0 -0.23961751623E+03 -0.21144112097E+03 -0.98233596992E+03  0.10330091285E+04  0.00000000000E+00 0. -1.
         -1    1    3    3    0  502 -0.28912008693E+02 -0.78786823013E+01 -0.43829114368E+02  0.53093965266E+02  0.00000000000E+00 0.  1.
         11    1    5    5    0    0  0.36215593786E+03  0.45680929629E+03 -0.17151781279E+03  0.60765945777E+03  0.00000000000E+00 0. -1.
        -11    1    5    5    0    0  0.18683942904E+00  0.23009061656E+02  0.32801079027E+01  0.23242438236E+02  0.00000000000E+00 0.  1.
          3    1    6    6  503    0 -0.72295407716E+02 -0.25625316879E+03 -0.18051593285E+03  0.32168045403E+03  0.00000000000E+00 0. -1.
         -3    1    6    6    0  503 -0.21517844652E+02 -0.42453858907E+01 -0.31789301445E+02  0.38621245788E+02  0.00000000000E+00 0.  1.
<mgrwt>
<rscale>  0 0.15285207E+04</rscale>
<asrwt>0</asrwt>
<pdfrwt beam="1">  1        2 0.26800113E+00 0.15285207E+04</pdfrwt>
<pdfrwt beam="2">  1       -1 0.51584512E-01 0.15285207E+04</pdfrwt>
<totfact> 0.38595587E+01</totfact>
</mgrwt>
</event>
<event>
12    6  0.1538774E-007  0.2798558E+04  0.7818608E-02  0.8303716E-01
         -1   -1    0    0    0  501 -0.00000000000E+00  0.00000000000E+00  0.14998870041E+04  0.14998870041E+04  0.00000000000E+00 0.  1.
          2   -1    0    0  501    0  0.00000000000E+00 -0.00000000000E+00 -0.13054198323E+04  0.13054198323E+04  0.00000000000E+00 0. -1.
         24    2    1    2    0    0 -0.57538259275E+03  0.10752578250E+04  0.38607368558E+03  0.12817741222E+04  0.81532149485E+02 0.  0.
        254    2    1    2    0    0  0.57538259275E+03 -0.10752578250E+04 -0.19160651376E+03  0.15235327142E+04  0.89285741136E+03 0.  0.
         23    2    4    4    0    0  0.17468913813E+03 -0.94336712532E+03  0.14715232272E+03  0.97487719339E+03  0.90961024597E+02 0.  0.
         23    2    4    4    0    0  0.40069345462E+03 -0.13189069965E+03 -0.33875883648E+03  0.54865552084E+03  0.91186238144E+02 0.  0.
          4    1    3    3  502    0 -0.16471881394E+03  0.23629421997E+03  0.98913209198E+02  0.30455060173E+03  0.00000000000E+00 0. -1.
         -3    1    3    3    0  502 -0.41066377881E+03  0.83896360499E+03  0.28716047638E+03  0.97722352045E+03  0.00000000000E+00 0.  1.
         11    1    5    5    0    0  0.73098536483E+02 -0.62652249960E+03  0.86835483598E+02  0.63672147738E+03  0.00000000000E+00 0. -1.
        -11    1    5    5    0    0  0.10159060165E+03 -0.31684462572E+03  0.60316839123E+02  0.33815571601E+03  0.00000000000E+00 0.  1.
          3    1    6    6  503    0  0.33955491392E+03 -0.14391103075E+03 -0.28039031437E+03  0.46327815913E+03  0.00000000000E+00 0. -1.
         -3    1    6    6    0  503  0.61138540701E+02  0.12020331102E+02 -0.58368522102E+02  0.85377361702E+02  0.00000000000E+00 0.  1.
<mgrwt>
<rscale>  0 0.27985584E+04</rscale>
<asrwt>0</asrwt>
<pdfrwt beam="1">  1        2 0.20083382E+00 0.27985584E+04</pdfrwt>
<pdfrwt beam="2">  1       -1 0.23075185E+00 0.27985584E+04</pdfrwt>
<totfact> 0.15182367E+00</totfact>
</mgrwt>
</event>
<event>
12    6  0.1538774E-007  0.1362537E+04  0.7818608E-02  0.8981392E-01
         -1   -1    0    0    0  501 -0.00000000000E+00  0.00000000000E+00  0.81610460392E+03  0.81610460392E+03  0.00000000000E+00 0.  1.
          2   -1    0    0  501    0  0.00000000000E+00 -0.00000000000E+00 -0.56870992640E+03  0.56870992640E+03  0.00000000000E+00 0. -1.
         24    2    1    2    0    0 -0.61336138865E+02  0.34498652877E+03  0.21117647738E+03  0.41906155915E+03  0.90770362948E+02 0.  0.
        254    2    1    2    0    0  0.61336138865E+02 -0.34498652877E+03  0.36218200148E+02  0.96575297118E+03  0.89921588973E+03 0.  0.
         23    2    4    4    0    0 -0.17569176659E+03  0.22726501767E+03 -0.11368569405E+03  0.32200963056E+03  0.90822794715E+02 0.  0.
         23    2    4    4    0    0  0.23702790546E+03 -0.57225154644E+03  0.14990389420E+03  0.64374334061E+03  0.90995882987E+02 0.  0.
          4    1    3    3  502    0 -0.49164253473E+02  0.10465644137E+03  0.34949689658E+02  0.12079559324E+03  0.00000000000E+00 0. -1.
         -3    1    3    3    0  502 -0.12171885392E+02  0.24033008740E+03  0.17622678772E+03  0.29826596590E+03  0.00000000000E+00 0.  1.
         11    1    5    5    0    0 -0.25508361503E+02  0.72419447231E+02  0.28444174998E+01  0.76833219084E+02  0.00000000000E+00 0. -1.
        -11    1    5    5    0    0 -0.15018340509E+03  0.15484557044E+03 -0.11653011155E+03  0.24517641148E+03  0.00000000000E+00 0.  1.
          3    1    6    6  503    0  0.88364412296E+01 -0.40985410033E+00  0.79663246022E+01  0.11904327014E+02  0.00000000000E+00 0. -1.
         -3    1    6    6    0  503  0.22819146423E+03 -0.57184169234E+03  0.14193756960E+03  0.63183901360E+03  0.00000000000E+00 0.  1.
<mgrwt>
<rscale>  0 0.13625370E+04</rscale>
<asrwt>0</asrwt>
<pdfrwt beam="1">  1        2 0.87493835E-01 0.13625370E+04</pdfrwt>
<pdfrwt beam="2">  1       -1 0.12555455E+00 0.13625370E+04</pdfrwt>
<totfact> 0.32670619E+01</totfact>
</mgrwt>
</event>
<event>
12    6  0.1538774E-007  0.2225586E+04  0.7818608E-02  0.8507853E-01
         -1   -1    0    0    0  501 -0.00000000000E+00  0.00000000000E+00  0.89509614029E+03  0.89509614029E+03  0.00000000000E+00 0.  1.
          2   -1    0    0  501    0  0.00000000000E+00 -0.00000000000E+00 -0.13834361339E+04  0.13834361339E+04  0.00000000000E+00 0. -1.
         24    2    1    2    0    0 -0.42490737752E+03  0.23253256983E+03  0.61071888205E+03  0.78420375322E+03  0.85908661754E+02 0.  0.
        254    2    1    2    0    0  0.42490737752E+03 -0.23253256983E+03 -0.10990588757E+04  0.14943285210E+04  0.88908359612E+03 0.  0.
         23    2    4    4    0    0  0.65730225642E+03 -0.30669938869E+03 -0.93063452276E+03  0.11834943598E+04  0.92019092413E+02 0.  0.
         23    2    4    4    0    0 -0.23239487891E+03  0.74166818859E+02 -0.16842435289E+03  0.31083416117E+03  0.93504097988E+02 0.  0.
          4    1    3    3  502    0 -0.41747049760E+02  0.51855861049E+02  0.10716503201E+03  0.12615938560E+03  0.00000000000E+00 0. -1.
         -3    1    3    3    0  502 -0.38316032776E+03  0.18067670878E+03  0.50355385005E+03  0.65804436762E+03  0.00000000000E+00 0.  1.
         11    1    5    5    0    0  0.55236679212E+03 -0.26059807325E+03 -0.72403319169E+03  0.94722990424E+03  0.00000000000E+00 0. -1.
        -11    1    5    5    0    0  0.10493546430E+03 -0.46101315436E+02 -0.20660133107E+03  0.23626445554E+03  0.00000000000E+00 0.  1.
          3    1    6    6  503    0 -0.10134455270E+03  0.53215299989E+02 -0.12883646437E+03  0.17234100227E+03  0.00000000000E+00 0. -1.
         -3    1    6    6    0  503 -0.13105032621E+03  0.20951518870E+02 -0.39587888524E+02  0.13849315889E+03  0.00000000000E+00 0.  1.
<mgrwt>
<rscale>  0 0.22255861E+04</rscale>
<asrwt>0</asrwt>
<pdfrwt beam="1">  1        2 0.21283633E+00 0.22255861E+04</pdfrwt>
<pdfrwt beam="2">  1       -1 0.13770710E+00 0.22255861E+04</pdfrwt>
<totfact> 0.67279290E+00</totfact>
</mgrwt>
</event>
<event>
12    6  0.1538774E-007  0.2372315E+04  0.7818608E-02  0.8449942E-01
         -1   -1    0    0    0  501 -0.00000000000E+00  0.00000000000E+00  0.21591723589E+04  0.21591723589E+04  0.00000000000E+00 0.  1.
          2   -1    0    0  501    0  0.00000000000E+00 -0.00000000000E+00 -0.65162438282E+03  0.65162438282E+03  0.00000000000E+00 0. -1.
         24    2    1    2    0    0 -0.64306481128E+03 -0.92640713589E+02  0.15710991302E+04  0.17020456223E+04  0.80574002996E+02 0.  0.
        254    2    1    2    0    0  0.64306481128E+03  0.92640713589E+02 -0.63551154140E+02  0.11087511195E+04  0.89620067083E+03 0.  0.
         23    2    4    4    0    0  0.61893332226E+02  0.37769302705E+03 -0.19859791513E+03  0.44108919396E+03  0.92928670914E+02 0.  0.
         23    2    4    4    0    0  0.58117147906E+03 -0.28505231346E+03  0.13504676099E+03  0.66766192550E+03  0.92302273168E+02 0.  0.
          2    1    3    3  502    0 -0.39683220648E+02 -0.15653982735E+02  0.15654938902E+03  0.16225756185E+03  0.00000000000E+00 0. -1.
         -1    1    3    3    0  502 -0.60338159064E+03 -0.76986730854E+02  0.14145497412E+04  0.15397880604E+04  0.00000000000E+00 0.  1.
         11    1    5    5    0    0 -0.35222607937E+01 -0.18510911202E+01 -0.12936088962E+02  0.13534225396E+02  0.00000000000E+00 0.  1.
        -11    1    5    5    0    0  0.65415593020E+02  0.37954411817E+03 -0.18566182617E+03  0.42755496857E+03  0.00000000000E+00 0. -1.
          1    1    6    6  503    0  0.49419649379E+03 -0.26369991548E+03  0.89728250557E+02  0.56729091201E+03  0.00000000000E+00 0. -1.
         -1    1    6    6    0  503  0.86974985269E+02 -0.21352397981E+02  0.45318510437E+02  0.10037101350E+03  0.00000000000E+00 0.  1.
<mgrwt>
<rscale>  0 0.23723148E+04</rscale>
<asrwt>0</asrwt>
<pdfrwt beam="1">  1        2 0.10024991E+00 0.23723148E+04</pdfrwt>
<pdfrwt beam="2">  1       -1 0.33218036E+00 0.23723148E+04</pdfrwt>
<totfact> 0.93939489E-01</totfact>
</mgrwt>
</event>
<event>
12    6  0.1538774E-007  0.1309177E+04  0.7818608E-02  0.9022320E-01
          2   -1    0    0  501    0  0.00000000000E+00  0.00000000000E+00  0.22485914003E+04  0.22485914003E+04  0.00000000000E+00 0. -1.
         -1   -1    0    0    0  501 -0.00000000000E+00 -0.00000000000E+00 -0.19055743107E+03  0.19055743107E+03  0.00000000000E+00 0.  1.
         24    2    1    2    0    0 -0.25012192896E+03 -0.20676950287E+03  0.31023311799E+03  0.45609757156E+03  0.80410202222E+02 0.  0.
        254    2    1    2    0    0  0.25012192896E+03  0.20676950287E+03  0.17478008512E+04  0.19830512598E+04  0.87884576393E+03 0.  0.
         23    2    4    4    0    0  0.88173163472E+02 -0.72733456349E+02  0.16162823426E+04  0.16230176690E+04  0.93557899513E+02 0.  0.
         23    2    4    4    0    0  0.16194876549E+03  0.27950295922E+03  0.13151850866E+03  0.36003359080E+03  0.89318315737E+02 0.  0.
          2    1    3    3  502    0 -0.36592689941E+02 -0.55122172337E+02  0.30361071796E+02  0.72796109243E+02  0.00000000000E+00 0. -1.
         -1    1    3    3    0  502 -0.21352923902E+03 -0.15164733054E+03  0.27987204619E+03  0.38330146232E+03  0.00000000000E+00 0.  1.
         11    1    5    5    0    0  0.26470981377E+02  0.20077629216E+02  0.25012783850E+03  0.25232471072E+03  0.00000000000E+00 0. -1.
        -11    1    5    5    0    0  0.61702182095E+02 -0.92811085566E+02  0.13661545041E+04  0.13706929583E+04  0.00000000000E+00 0.  1.
          3    1    6    6  503    0 -0.10288223583E+02  0.14186904882E+02  0.14559102156E+02  0.22783399005E+02  0.00000000000E+00 0. -1.
         -3    1    6    6    0  503  0.17223698907E+03  0.26531605434E+03  0.11695940650E+03  0.33725019179E+03  0.00000000000E+00 0.  1.
<mgrwt>
<rscale>  0 0.13091765E+04</rscale>
<asrwt>0</asrwt>
<pdfrwt beam="1">  1        2 0.34593712E+00 0.13091765E+04</pdfrwt>
<pdfrwt beam="2">  1       -1 0.29316529E-01 0.13091765E+04</pdfrwt>
<totfact> 0.57611066E+01</totfact>
</mgrwt>
</event>
<event>
12    6  0.1538774E-007  0.1660533E+04  0.7818608E-02  0.8784199E-01
          2   -1    0    0  501    0  0.00000000000E+00  0.00000000000E+00  0.19335966763E+04  0.19335966763E+04  0.00000000000E+00 0. -1.
         -1   -1    0    0    0  501 -0.00000000000E+00 -0.00000000000E+00 -0.35650807258E+03  0.35650807258E+03  0.00000000000E+00 0.  1.
         24    2    1    2    0    0 -0.21314783651E+03 -0.17777454511E+03 -0.15214367496E+03  0.32616121270E+03  0.78725153172E+02 0.  0.
        254    2    1    2    0    0  0.21314783651E+03  0.17777454511E+03  0.17292322787E+04  0.19639435362E+04  0.88870363486E+03 0.  0.
         23    2    4    4    0    0  0.49042627940E+03  0.14879667860E+03  0.58476529111E+03  0.78300645964E+03  0.92142731985E+02 0.  0.
         23    2    4    4    0    0 -0.27727844289E+03  0.28977866519E+02  0.11444669876E+04  0.11809370766E+04  0.84170312474E+02 0.  0.
          2    1    3    3  502    0 -0.68525308210E+02 -0.13871614850E+02 -0.37202518914E+02  0.79197013690E+02  0.00000000000E+00 0. -1.
         -1    1    3    3    0  502 -0.14462252830E+03 -0.16390293026E+03 -0.11494115604E+03  0.24696419901E+03  0.00000000000E+00 0.  1.
         11    1    5    5    0    0  0.34307022019E+02 -0.10327214964E+02  0.25410771345E+02  0.43924144034E+02  0.00000000000E+00 0. -1.
        -11    1    5    5    0    0  0.45611925738E+03  0.15912389356E+03  0.55935451976E+03  0.73908231560E+03  0.00000000000E+00 0.  1.
          4    1    6    6  503    0 -0.26661804821E+02 -0.22461634023E+02  0.16162584305E+03  0.16534294657E+03  0.00000000000E+00 0. -1.
         -4    1    6    6    0  503 -0.25061663807E+03  0.51439500542E+02  0.98284114454E+03  0.10155941300E+04  0.00000000000E+00 0.  1.
<mgrwt>
<rscale>  0 0.16605334E+04</rscale>
<asrwt>0</asrwt>
<pdfrwt beam="1">  1        2 0.29747641E+00 0.16605334E+04</pdfrwt>
<pdfrwt beam="2">  1       -1 0.54847397E-01 0.16605334E+04</pdfrwt>
<totfact> 0.26566775E+01</totfact>
</mgrwt>
</event>
<event>
12    6  0.1538774E-007  0.1178782E+04  0.7818608E-02  0.9131634E-01
         -1   -1    0    0    0  501 -0.00000000000E+00  0.00000000000E+00  0.19040787298E+03  0.19040787298E+03  0.00000000000E+00 0.  1.
          2   -1    0    0  501    0  0.00000000000E+00 -0.00000000000E+00 -0.18244070218E+04  0.18244070218E+04  0.00000000000E+00 0. -1.
         24    2    1    2    0    0 -0.77222714153E+02 -0.56631263394E+02  0.24289412822E+02  0.12761236716E+03  0.80774334426E+02 0.  0.
        254    2    1    2    0    0  0.77222714153E+02  0.56631263394E+02 -0.16582885617E+04  0.18872025276E+04  0.89579125862E+03 0.  0.
         23    2    4    4    0    0  0.43099604633E+03  0.11010275739E+03 -0.12838076466E+04  0.13616654417E+04  0.89947164174E+02 0.  0.
         23    2    4    4    0    0 -0.35377333218E+03 -0.53471493997E+02 -0.37448091504E+03  0.52553708598E+03  0.89098270361E+02 0.  0.
          4    1    3    3  502    0 -0.50025015137E+02  0.84356833554E+01 -0.55557501014E+01  0.51034588783E+02  0.00000000000E+00 0. -1.
         -3    1    3    3    0  502 -0.27197699017E+02 -0.65066946749E+02  0.29845162924E+02  0.76577778376E+02  0.00000000000E+00 0.  1.
         11    1    5    5    0    0  0.29479346448E+03  0.69365194054E+02 -0.98974473082E+03  0.10350407475E+04  0.00000000000E+00 0.  1.
        -11    1    5    5    0    0  0.13620258185E+03  0.40737563336E+02 -0.29406291581E+03  0.32662469414E+03  0.00000000000E+00 0. -1.
          2    1    6    6  503    0 -0.29847304737E+03 -0.47533450677E+02 -0.26171187962E+03  0.39979832025E+03  0.00000000000E+00 0.  1.
         -2    1    6    6    0  503 -0.55300284809E+02 -0.59380433195E+01 -0.11276903542E+03  0.12573876573E+03  0.00000000000E+00 0. -1.
<mgrwt>
<rscale>  0 0.11787815E+04</rscale>
<asrwt>0</asrwt>
<pdfrwt beam="1">  1        2 0.28067800E+00 0.11787815E+04</pdfrwt>
<pdfrwt beam="2">  1       -1 0.29293520E-01 0.11787815E+04</pdfrwt>
<totfact> 0.10021050E+02</totfact>
</mgrwt>
</event>
<event>
12    6  0.1538774E-007  0.1931558E+04  0.7818608E-02  0.8639305E-01
         -1   -1    0    0    0  501 -0.00000000000E+00  0.00000000000E+00  0.50012822017E+03  0.50012822017E+03  0.00000000000E+00 0.  1.
          2   -1    0    0  501    0  0.00000000000E+00 -0.00000000000E+00 -0.18649802187E+04  0.18649802187E+04  0.00000000000E+00 0. -1.
         24    2    1    2    0    0  0.15057464277E+03  0.60781111319E+03 -0.90183574052E+03  0.11007759880E+04  0.79328433836E+02 0.  0.
        254    2    1    2    0    0 -0.15057464277E+03 -0.60781111319E+03 -0.46301625804E+03  0.12643324509E+04  0.99601476843E+03 0.  0.
         23    2    4    4    0    0  0.41656029936E+03 -0.27501553066E+03 -0.13218055531E+03  0.52288915328E+03  0.82373189267E+02 0.  0.
         23    2    4    4    0    0 -0.56713494213E+03 -0.33279558252E+03 -0.33083570273E+03  0.74144329766E+03  0.88831070613E+02 0.  0.
          4    1    3    3  502    0  0.24305802285E+02  0.25158499491E+03 -0.38280915304E+03  0.45872500405E+03  0.00000000000E+00 0. -1.
         -3    1    3    3    0  502  0.12626884049E+03  0.35622611827E+03 -0.51902658747E+03  0.64205098390E+03  0.00000000000E+00 0.  1.
         11    1    5    5    0    0  0.25809016140E+03 -0.12842947188E+03 -0.53971703115E+02  0.29328758139E+03  0.00000000000E+00 0. -1.
        -11    1    5    5    0    0  0.15847013795E+03 -0.14658605878E+03 -0.78208852196E+02  0.22960157189E+03  0.00000000000E+00 0.  1.
          2    1    6    6  503    0 -0.88853203077E+02 -0.75595251239E+02 -0.90202707029E+02  0.14746546057E+03  0.00000000000E+00 0. -1.
         -2    1    6    6    0  503 -0.47828173905E+03 -0.25720033129E+03 -0.24063299570E+03  0.59397783708E+03  0.00000000000E+00 0.  1.
<mgrwt>
<rscale>  0 0.19315582E+04</rscale>
<asrwt>0</asrwt>
<pdfrwt beam="1">  1        2 0.28692003E+00 0.19315582E+04</pdfrwt>
<pdfrwt beam="2">  1       -1 0.76942803E-01 0.19315582E+04</pdfrwt>
<totfact> 0.14312870E+01</totfact>
</mgrwt>
</event>
<event>
12    6  0.1538774E-007  0.1826043E+04  0.7818608E-02  0.8692572E-01
          2   -1    0    0  501    0  0.00000000000E+00  0.00000000000E+00  0.16558257630E+04  0.16558257630E+04  0.00000000000E+00 0. -1.
         -1   -1    0    0    0  501 -0.00000000000E+00 -0.00000000000E+00 -0.50343951678E+03  0.50343951678E+03  0.00000000000E+00 0.  1.
         24    2    1    2    0    0  0.35369851479E+03 -0.34692491347E+03 -0.12825375766E+03  0.51798941224E+03  0.80027931895E+02 0.  0.
        254    2    1    2    0    0 -0.35369851479E+03  0.34692491347E+03  0.12806400039E+04  0.16412758675E+04  0.89904845191E+03 0.  0.
         23    2    4    4    0    0 -0.52029653812E+02  0.10153982490E+02 -0.12396981568E+03  0.16288133157E+03  0.91387224152E+02 0.  0.
         23    2    4    4    0    0 -0.30166886098E+03  0.33677093098E+03  0.14046098195E+04  0.14783945360E+04  0.91120234523E+02 0.  0.
          2    1    3    3  502    0  0.22914771661E+03 -0.24249103919E+03 -0.49187643049E+02  0.33723879425E+03  0.00000000000E+00 0. -1.
         -1    1    3    3    0  502  0.12455079818E+03 -0.10443387428E+03 -0.79066114609E+02  0.18075061799E+03  0.00000000000E+00 0.  1.
         11    1    5    5    0    0 -0.62580388807E+02 -0.25434360952E+02 -0.69084127009E+02  0.96622090564E+02  0.00000000000E+00 0.  1.
        -11    1    5    5    0    0  0.10550734995E+02  0.35588343442E+02 -0.54885688676E+02  0.66259241010E+02  0.00000000000E+00 0. -1.
          1    1    6    6  503    0 -0.79796871168E+02  0.51084969074E+02  0.21370878692E+03  0.23377052919E+03  0.00000000000E+00 0. -1.
         -1    1    6    6    0  503 -0.22187198981E+03  0.28568596190E+03  0.11909010326E+04  0.12446240068E+04  0.00000000000E+00 0.  1.
<mgrwt>
<rscale>  0 0.18260428E+04</rscale>
<asrwt>0</asrwt>
<pdfrwt beam="1">  1        2 0.25474242E+00 0.18260428E+04</pdfrwt>
<pdfrwt beam="2">  1       -1 0.77452234E-01 0.18260428E+04</pdfrwt>
<totfact> 0.18610366E+01</totfact>
</mgrwt>
</event>
<event>
12    6  0.1538774E-007  0.2957858E+04  0.7818608E-02  0.8255868E-01
         -1   -1    0    0    0  501 -0.00000000000E+00  0.00000000000E+00  0.11912355650E+04  0.11912355650E+04  0.00000000000E+00 0.  1.
          2   -1    0    0  501    0  0.00000000000E+00 -0.00000000000E+00 -0.18361032151E+04  0.18361032151E+04  0.00000000000E+00 0. -1.
         24    2    1    2    0    0 -0.35500688828E+03 -0.37189785202E+03  0.97361025429E+03  0.11037828070E+04  0.77984964803E+02 0.  0.
        254    2    1    2    0    0  0.35500688828E+03  0.37189785202E+03 -0.16184779045E+04  0.19235559731E+04  0.90347050386E+03 0.  0.
         23    2    4    4    0    0 -0.25592654608E+03  0.12805834682E+03 -0.88293064474E+03  0.93260029322E+03  0.90991462891E+02 0.  0.
         23    2    4    4    0    0  0.61093343436E+03  0.24383950520E+03 -0.73554725972E+03  0.99095567987E+03  0.90917669719E+02 0.  0.
          2    1    3    3  502    0  0.41364008228E+01 -0.29784918612E+01  0.80321824751E+01  0.95130006227E+01  0.00000000000E+00 0. -1.
         -1    1    3    3    0  502 -0.35914328910E+03 -0.36891936015E+03  0.96557807181E+03  0.10942698064E+04  0.00000000000E+00 0.  1.
         11    1    5    5    0    0 -0.15511557760E+03  0.57541024085E+02 -0.62962764339E+03  0.65100136804E+03  0.00000000000E+00 0. -1.
        -11    1    5    5    0    0 -0.10081096849E+03  0.70517322730E+02 -0.25330300134E+03  0.28159892518E+03  0.00000000000E+00 0.  1.
          1    1    6    6  503    0  0.41497706734E+03  0.13073276634E+03 -0.52541636834E+03  0.68217254616E+03  0.00000000000E+00 0. -1.
         -1    1    6    6    0  503  0.19595636703E+03  0.11310673886E+03 -0.21013089138E+03  0.30878313371E+03  0.00000000000E+00 0.  1.
<mgrwt>
<rscale>  0 0.29578583E+04</rscale>
<asrwt>0</asrwt>
<pdfrwt beam="1">  1        2 0.28247742E+00 0.29578583E+04</pdfrwt>
<pdfrwt beam="2">  1       -1 0.18326701E+00 0.29578583E+04</pdfrwt>
<totfact> 0.15882234E+00</totfact>
</mgrwt>
</event>
<event>
12    6  0.1538774E-007  0.1185788E+04  0.7818608E-02  0.9125388E-01
         -1   -1    0    0    0  501 -0.00000000000E+00  0.00000000000E+00  0.30378077246E+03  0.30378077246E+03  0.00000000000E+00 0.  1.
          2   -1    0    0  501    0  0.00000000000E+00 -0.00000000000E+00 -0.11571605186E+04  0.11571605186E+04  0.00000000000E+00 0. -1.
         24    2    1    2    0    0 -0.15809642513E+03  0.17986818859E+03 -0.13752773004E+03  0.28738984211E+03  0.79573864495E+02 0.  0.
        254    2    1    2    0    0  0.15809642513E+03 -0.17986818859E+03 -0.71585201607E+03  0.11735514489E+04  0.89857211701E+03 0.  0.
         23    2    4    4    0    0  0.30251167802E+03 -0.28107431333E+03 -0.83932820761E+03  0.93997715626E+03  0.92569591401E+02 0.  0.
         23    2    4    4    0    0 -0.14441525289E+03  0.10120612474E+03  0.12347619154E+03  0.23357429267E+03  0.90620832970E+02 0.  0.
          4    1    3    3  502    0 -0.81058266993E+02  0.96281715797E+02 -0.11707203291E+03  0.17189087333E+03  0.00000000000E+00 0. -1.
         -3    1    3    3    0  502 -0.77038158135E+02  0.83586472798E+02 -0.20455697130E+02  0.11549896878E+03  0.00000000000E+00 0.  1.
         11    1    5    5    0    0  0.65793545084E+02 -0.10623647707E+03 -0.19467493506E+03  0.23132944036E+03  0.00000000000E+00 0.  1.
        -11    1    5    5    0    0  0.23671813293E+03 -0.17483783626E+03 -0.64465327255E+03  0.70864771590E+03  0.00000000000E+00 0. -1.
          3    1    6    6  503    0 -0.15661304574E+03  0.98125136813E+02  0.12055906369E+03  0.22065963929E+03  0.00000000000E+00 0. -1.
         -3    1    6    6    0  503  0.12197792855E+02  0.30809879235E+01  0.29171278441E+01  0.12914653382E+02  0.00000000000E+00 0.  1.
<mgrwt>
<rscale>  0 0.11857877E+04</rscale>
<asrwt>0</asrwt>
<pdfrwt beam="1">  1        2 0.17802470E+00 0.11857877E+04</pdfrwt>
<pdfrwt beam="2">  1       -1 0.46735503E-01 0.11857877E+04</pdfrwt>
<totfact> 0.10320246E+02</totfact>
</mgrwt>
</event>
<event>
12    6  0.1538774E-007  0.1815559E+04  0.7818608E-02  0.8698069E-01
         -1   -1    0    0    0  501 -0.00000000000E+00  0.00000000000E+00  0.39130979805E+03  0.39130979805E+03  0.00000000000E+00 0.  1.
          2   -1    0    0  501    0  0.00000000000E+00 -0.00000000000E+00 -0.21059104143E+04  0.21059104143E+04  0.00000000000E+00 0. -1.
         24    2    1    2    0    0  0.19429550630E+03 -0.59114561382E+03 -0.25998507209E+03  0.67910305303E+03  0.79905183922E+02 0.  0.
        254    2    1    2    0    0 -0.19429550630E+03  0.59114561382E+03 -0.14546155442E+04  0.18181171593E+04  0.89579001065E+03 0.  0.
         23    2    4    4    0    0  0.39659182457E+02  0.76425474890E+03 -0.89760637265E+03  0.11830173812E+04  0.90414334909E+02 0.  0.
         23    2    4    4    0    0 -0.23395468876E+03 -0.17310913508E+03 -0.55700917154E+03  0.63509977817E+03  0.91602085189E+02 0.  0.
          4    1    3    3  502    0  0.12166238505E+03 -0.33351285685E+03 -0.18894906179E+03  0.40216204393E+03  0.00000000000E+00 0. -1.
         -3    1    3    3    0  502  0.72633121250E+02 -0.25763275697E+03 -0.71036010302E+02  0.27694100911E+03  0.00000000000E+00 0.  1.
         11    1    5    5    0    0  0.36171737714E+02  0.10250530881E+03 -0.11872378742E+03  0.16096916053E+03  0.00000000000E+00 0.  1.
        -11    1    5    5    0    0  0.34874447430E+01  0.66174944010E+03 -0.77888258523E+03  0.10220482206E+04  0.00000000000E+00 0. -1.
          1    1    6    6  503    0 -0.64472912012E+02 -0.70341589337E+02 -0.10694578997E+03  0.14332514632E+03  0.00000000000E+00 0. -1.
         -1    1    6    6    0  503 -0.16948177675E+03 -0.10276754575E+03 -0.45006338156E+03  0.49177463185E+03  0.00000000000E+00 0.  1.
<mgrwt>
<rscale>  0 0.18155587E+04</rscale>
<asrwt>0</asrwt>
<pdfrwt beam="1">  1        2 0.32398621E+00 0.18155587E+04</pdfrwt>
<pdfrwt beam="2">  1       -1 0.60201509E-01 0.18155587E+04</pdfrwt>
<totfact> 0.17520088E+01</totfact>
</mgrwt>
</event>
<event>
12    6  0.1538774E-007  0.1268819E+04  0.7818608E-02  0.9054664E-01
          2   -1    0    0  501    0  0.00000000000E+00  0.00000000000E+00  0.39979862232E+03  0.39979862232E+03  0.00000000000E+00 0. -1.
         -1   -1    0    0    0  501 -0.00000000000E+00 -0.00000000000E+00 -0.10066953792E+04  0.10066953792E+04  0.00000000000E+00 0.  1.
         24    2    1    2    0    0  0.22367305137E+03 -0.40741728684E+02  0.80563683488E+02  0.25462085136E+03  0.81558252081E+02 0.  0.
        254    2    1    2    0    0 -0.22367305137E+03  0.40741728684E+02 -0.68746044032E+03  0.11518731501E+04  0.89583501527E+03 0.  0.
         23    2    4    4    0    0 -0.29898842197E+03 -0.22135958895E+03  0.24792105298E+02  0.38367062289E+03  0.90522672830E+02 0.  0.
         23    2    4    4    0    0  0.75315370591E+02  0.26210131764E+03 -0.71225254562E+03  0.76820252722E+03  0.91988740298E+02 0.  0.
          4    1    3    3  502    0  0.21966135044E+03 -0.49339526479E+02  0.88841592975E+02  0.24202959817E+03  0.00000000000E+00 0. -1.
         -1    1    3    3    0  502  0.40117009357E+01  0.85977977950E+01 -0.82779094868E+01  0.12591253186E+02  0.00000000000E+00 0.  1.
         11    1    5    5    0    0 -0.15218091487E+03 -0.81983966510E+02 -0.26409874443E+02  0.17486532842E+03  0.00000000000E+00 0. -1.
        -11    1    5    5    0    0 -0.14680750709E+03 -0.13937562244E+03  0.51201979741E+02  0.20880529447E+03  0.00000000000E+00 0.  1.
          1    1    6    6  503    0  0.90932428409E+01 -0.40974811505E+01 -0.93539652978E+01  0.13673810147E+02  0.00000000000E+00 0. -1.
         -1    1    6    6    0  503  0.66222127750E+02  0.26619879879E+03 -0.70289858032E+03  0.75452871708E+03  0.00000000000E+00 0.  1.
<mgrwt>
<rscale>  0 0.12688190E+04</rscale>
<asrwt>0</asrwt>
<pdfrwt beam="1">  1        2 0.61507481E-01 0.12688190E+04</pdfrwt>
<pdfrwt beam="2">  1       -1 0.15487621E+00 0.12688190E+04</pdfrwt>
<totfact> 0.28606637E+01</totfact>
</mgrwt>
</event>
<event>
12    6  0.1538774E-007  0.1816318E+04  0.7818608E-02  0.8697669E-01
         -1   -1    0    0    0  501 -0.00000000000E+00  0.00000000000E+00  0.73164136109E+03  0.73164136109E+03  0.00000000000E+00 0.  1.
          2   -1    0    0  501    0  0.00000000000E+00 -0.00000000000E+00 -0.11272640128E+04  0.11272640128E+04  0.00000000000E+00 0. -1.
         24    2    1    2    0    0 -0.29168770798E+03  0.30778669179E+03 -0.70816250847E+03  0.82954464113E+03  0.82678936828E+02 0.  0.
        254    2    1    2    0    0  0.29168770798E+03 -0.30778669179E+03  0.31253985674E+03  0.10293607328E+04  0.88435738788E+03 0.  0.
         23    2    4    4    0    0  0.17020551595E+03  0.95487126493E+02 -0.24530108334E+03  0.32454436612E+03  0.84075651078E+02 0.  0.
         23    2    4    4    0    0  0.12148219203E+03 -0.40327381828E+03  0.55784094008E+03  0.70481636666E+03  0.90509119905E+02 0.  0.
          2    1    3    3  502    0 -0.21171606692E+03  0.22399735805E+03 -0.57991255857E+03  0.65673212575E+03  0.00000000000E+00 0. -1.
         -1    1    3    3    0  502 -0.79971641062E+02  0.83789333742E+02 -0.12824994990E+03  0.17281251538E+03  0.00000000000E+00 0.  1.
         11    1    5    5    0    0  0.14818635110E+03  0.54023630835E+02 -0.22147014487E+03  0.27189478187E+03  0.00000000000E+00 0.  1.
        -11    1    5    5    0    0  0.22019164852E+02  0.41463495658E+02 -0.23830938475E+02  0.52649584249E+02  0.00000000000E+00 0. -1.
          2    1    6    6  503    0  0.42945229466E+02 -0.18876015266E+03  0.18630905149E+03  0.26867406022E+03  0.00000000000E+00 0. -1.
         -2    1    6    6    0  503  0.78536962568E+02 -0.21451366562E+03  0.37153188859E+03  0.43614230644E+03  0.00000000000E+00 0.  1.
<mgrwt>
<rscale>  0 0.18163182E+04</rscale>
<asrwt>0</asrwt>
<pdfrwt beam="1">  1        2 0.17342523E+00 0.18163182E+04</pdfrwt>
<pdfrwt beam="2">  1       -1 0.11256021E+00 0.18163182E+04</pdfrwt>
<totfact> 0.16287808E+01</totfact>
</mgrwt>
</event>
<event>
12    6  0.1538774E-007  0.2885703E+04  0.7818608E-02  0.8277144E-01
         -1   -1    0    0    0  501 -0.00000000000E+00  0.00000000000E+00  0.17294558885E+04  0.17294558885E+04  0.00000000000E+00 0.  1.
          2   -1    0    0  501    0  0.00000000000E+00 -0.00000000000E+00 -0.12037427917E+04  0.12037427917E+04  0.00000000000E+00 0. -1.
         24    2    1    2    0    0 -0.32239757716E+03 -0.10022099827E+03  0.15119616955E+04  0.15512836086E+04  0.80425241249E+02 0.  0.
        254    2    1    2    0    0  0.32239757716E+03  0.10022099827E+03 -0.98624859869E+03  0.13819150716E+04  0.90720368189E+03 0.  0.
         23    2    4    4    0    0  0.29912169878E+03  0.39885665933E+03 -0.21976893842E+03  0.55306960252E+03  0.95011439118E+02 0.  0.
         23    2    4    4    0    0  0.23275878373E+02 -0.29863566106E+03 -0.76647966026E+03  0.82884546907E+03  0.98836822252E+02 0.  0.
          2    1    3    3  502    0  0.37460141280E+01 -0.35512887916E+01  0.50128095001E+02  0.50393156106E+02  0.00000000000E+00 0. -1.
         -1    1    3    3    0  502 -0.32614359128E+03 -0.96669709478E+02  0.14618336005E+04  0.15008904525E+04  0.00000000000E+00 0.  1.
         11    1    5    5    0    0  0.47468223240E+02  0.10401768194E+03 -0.16962451031E+02  0.11558821358E+03  0.00000000000E+00 0. -1.
        -11    1    5    5    0    0  0.25165347554E+03  0.29483897739E+03 -0.20280648739E+03  0.43748138894E+03  0.00000000000E+00 0.  1.
          1    1    6    6  503    0  0.21144359144E+02 -0.17374983940E+02 -0.30646231170E+02  0.41087290924E+02  0.00000000000E+00 0. -1.
         -1    1    6    6    0  503  0.21315192295E+01 -0.28126067712E+03 -0.73583342909E+03  0.78775817815E+03  0.00000000000E+00 0.  1.
<mgrwt>
<rscale>  0 0.28857027E+04</rscale>
<asrwt>0</asrwt>
<pdfrwt beam="1">  1        2 0.18519120E+00 0.28857027E+04</pdfrwt>
<pdfrwt beam="2">  1       -1 0.26607014E+00 0.28857027E+04</pdfrwt>
<totfact> 0.10164341E+00</totfact>
</mgrwt>
</event>
<event>
12    6  0.1538774E-007  0.2722109E+04  0.7818608E-02  0.8327867E-01
          2   -1    0    0  501    0  0.00000000000E+00  0.00000000000E+00  0.42875937552E+04  0.42875937552E+04  0.00000000000E+00 0. -1.
         -1   -1    0    0    0  501 -0.00000000000E+00 -0.00000000000E+00 -0.43205324703E+03  0.43205324703E+03  0.00000000000E+00 0.  1.
         24    2    1    2    0    0 -0.81915843543E+03  0.77113740189E+03  0.25021367888E+04  0.27445778500E+04  0.79659463031E+02 0.  0.
        254    2    1    2    0    0  0.81915843543E+03 -0.77113740189E+03  0.13534037193E+04  0.19750691522E+04  0.89639449652E+03 0.  0.
         23    2    4    4    0    0  0.71074506163E+03 -0.84214804696E+03  0.71374856997E+03  0.13160519684E+04  0.90464837430E+02 0.  0.
         23    2    4    4    0    0  0.10841337380E+03  0.71010645073E+02  0.63965514937E+03  0.65901718375E+03  0.91372682088E+02 0.  0.
          2    1    3    3  502    0 -0.81323025317E+03  0.75497931957E+03  0.24476858916E+04  0.26874715703E+04  0.00000000000E+00 0. -1.
         -1    1    3    3    0  502 -0.59281822629E+01  0.16158082319E+02  0.54450897235E+02  0.57106279679E+02  0.00000000000E+00 0.  1.
         11    1    5    5    0    0 -0.17865023112E+01 -0.54125259267E+01  0.17416546211E+00  0.57023995846E+01  0.00000000000E+00 0. -1.
        -11    1    5    5    0    0  0.71253156394E+03 -0.83673552104E+03  0.71357440451E+03  0.13103495688E+04  0.00000000000E+00 0.  1.
          2    1    6    6  503    0  0.21617980007E+02  0.52560371431E+02  0.13274811584E+03  0.14440218823E+03  0.00000000000E+00 0. -1.
         -2    1    6    6    0  503  0.86795393797E+02  0.18450273642E+02  0.50690703352E+03  0.51461499552E+03  0.00000000000E+00 0.  1.
<mgrwt>
<rscale>  0 0.27221086E+04</rscale>
<asrwt>0</asrwt>
<pdfrwt beam="1">  1        2 0.65962978E+00 0.27221086E+04</pdfrwt>
<pdfrwt beam="2">  1       -1 0.66469733E-01 0.27221086E+04</pdfrwt>
<totfact> 0.44520984E-01</totfact>
</mgrwt>
</event>
<event>
12    6  0.1538774E-007  0.1386261E+04  0.7818608E-02  0.8963824E-01
          2   -1    0    0  501    0  0.00000000000E+00  0.00000000000E+00  0.16673034653E+04  0.16673034653E+04  0.00000000000E+00 0. -1.
         -1   -1    0    0    0  501 -0.00000000000E+00 -0.00000000000E+00 -0.28814778119E+03  0.28814778119E+03  0.00000000000E+00 0.  1.
         24    2    1    2    0    0 -0.37406864378E+03  0.34147667102E+02  0.24423915286E+03  0.45527646440E+03  0.80811396606E+02 0.  0.
        254    2    1    2    0    0  0.37406864378E+03 -0.34147667102E+02  0.11349165312E+04  0.15001747821E+04  0.90630868389E+03 0.  0.
         23    2    4    4    0    0 -0.19364029590E+03  0.22177325643E+03  0.59318872670E+03  0.66989542463E+03  0.10103005983E+03 0.  0.
         23    2    4    4    0    0  0.56770893968E+03 -0.25592092354E+03  0.54172780454E+03  0.83027935745E+03  0.90032427005E+02 0.  0.
          4    1    3    3  502    0 -0.18682893117E+03  0.29700460635E+01  0.16609498672E+03  0.25000283060E+03  0.00000000000E+00 0. -1.
         -3    1    3    3    0  502 -0.18723971261E+03  0.31177621038E+02  0.78144166142E+02  0.20527363380E+03  0.00000000000E+00 0.  1.
         11    1    5    5    0    0 -0.19976685285E+03  0.22753198216E+03  0.57462770714E+03  0.64951874509E+03  0.00000000000E+00 0. -1.
        -11    1    5    5    0    0  0.61265569537E+01 -0.57587257254E+01  0.18561019557E+02  0.20376679540E+02  0.00000000000E+00 0.  1.
          2    1    6    6  503    0  0.38625076530E+03 -0.14751863836E+03  0.31101868509E+03  0.51738189458E+03  0.00000000000E+00 0. -1.
         -2    1    6    6    0  503  0.18145817437E+03 -0.10840228518E+03  0.23070911945E+03  0.31289746288E+03  0.00000000000E+00 0.  1.
<mgrwt>
<rscale>  0 0.13862609E+04</rscale>
<asrwt>0</asrwt>
<pdfrwt beam="1">  1        2 0.25650822E+00 0.13862609E+04</pdfrwt>
<pdfrwt beam="2">  1       -1 0.44330429E-01 0.13862609E+04</pdfrwt>
<totfact> 0.57168222E+01</totfact>
</mgrwt>
</event>
<event>
12    6  0.1579442E-007  0.1695998E+04  0.7818608E-02  0.8763650E-01
          2   -1    0    0  501    0  0.00000000000E+00  0.00000000000E+00  0.21234989173E+04  0.21234989173E+04  0.00000000000E+00 0. -1.
         -1   -1    0    0    0  501 -0.00000000000E+00 -0.00000000000E+00 -0.33864040913E+03  0.33864040913E+03  0.00000000000E+00 0.  1.
         24    2    1    2    0    0 -0.43412002960E+03 -0.55943470093E+02  0.11102594631E+04  0.11963382768E+04  0.83422568941E+02 0.  0.
        254    2    1    2    0    0  0.43412002960E+03  0.55943470093E+02  0.67459904506E+03  0.12658010497E+04  0.97753698337E+03 0.  0.
         23    2    4    4    0    0  0.64284993554E+03  0.17160558443E+03  0.74253043372E+03  0.10011321304E+04  0.90606739559E+02 0.  0.
         23    2    4    4    0    0 -0.20872990594E+03 -0.11566211434E+03 -0.67931388662E+02  0.26466891931E+03  0.92136121878E+02 0.  0.
          4    1    3    3  502    0 -0.39201492127E+03 -0.28991960546E+02  0.93969769529E+03  0.10186009969E+04  0.00000000000E+00 0. -1.
         -3    1    3    3    0  502 -0.42105108330E+02 -0.26951509547E+02  0.17056176784E+03  0.17773727989E+03  0.00000000000E+00 0.  1.
         11    1    5    5    0    0  0.64003291642E+03  0.17808698814E+03  0.73296978544E+03  0.98924305195E+03  0.00000000000E+00 0.  1.
        -11    1    5    5    0    0  0.28170191171E+01 -0.64814037025E+01  0.95606482727E+01  0.11889078436E+02  0.00000000000E+00 0. -1.
          2    1    6    6  503    0 -0.20434529048E+03 -0.12591596198E+03 -0.52616726825E+02  0.24572412817E+03  0.00000000000E+00 0.  1.
         -2    1    6    6    0  503 -0.43846154570E+01  0.10253847637E+02 -0.15314661837E+02  0.18944791138E+02  0.00000000000E+00 0. -1.
<mgrwt>
<rscale>  0 0.16959983E+04</rscale>
<asrwt>0</asrwt>
<pdfrwt beam="1">  1        2 0.32669213E+00 0.16959983E+04</pdfrwt>
<pdfrwt beam="2">  1       -1 0.52098526E-01 0.16959983E+04</pdfrwt>
<totfact> 0.22934750E+01</totfact>
</mgrwt>
</event>
<event>
12    6  0.1538774E-007  0.1487004E+04  0.7818608E-02  0.8893141E-01
         -1   -1    0    0    0  501 -0.00000000000E+00  0.00000000000E+00  0.16941643776E+03  0.16941643776E+03  0.00000000000E+00 0.  1.
          2   -1    0    0  501    0  0.00000000000E+00 -0.00000000000E+00 -0.32629366492E+04  0.32629366492E+04  0.00000000000E+00 0. -1.
         24    2    1    2    0    0  0.64297155047E+02  0.60928444714E+02  0.69722385656E+02  0.13829757612E+03  0.80116221685E+02 0.  0.
        254    2    1    2    0    0 -0.64297155047E+02 -0.60928444714E+02 -0.31632425971E+04  0.32940555108E+04  0.91479592306E+03 0.  0.
         23    2    4    4    0    0 -0.37696843748E+03  0.96139192630E+02 -0.71246503508E+03  0.81685830701E+03  0.91121459015E+02 0.  0.
         23    2    4    4    0    0  0.31267128244E+03 -0.15706763734E+03 -0.24507775620E+04  0.24771972038E+04  0.88100820775E+02 0.  0.
          2    1    3    3  502    0 -0.12768925149E+02  0.29167519002E+02  0.38804559299E+01  0.32075653577E+02  0.00000000000E+00 0. -1.
         -1    1    3    3    0  502  0.77066080196E+02  0.31760925712E+02  0.65841929727E+02  0.10622192254E+03  0.00000000000E+00 0.  1.
         11    1    5    5    0    0 -0.63858923418E+02  0.39058292154E+02 -0.20061621768E+03  0.21412701624E+03  0.00000000000E+00 0. -1.
        -11    1    5    5    0    0 -0.31310951407E+03  0.57080900476E+02 -0.51184881740E+03  0.60273129077E+03  0.00000000000E+00 0.  1.
          1    1    6    6  503    0  0.42705912212E+02  0.70548080788E+01 -0.22718202416E+03  0.23126875569E+03  0.00000000000E+00 0. -1.
         -1    1    6    6    0  503  0.26996537022E+03 -0.16412244542E+03 -0.22235955379E+04  0.22459284481E+04  0.00000000000E+00 0.  1.
<mgrwt>
<rscale>  0 0.14870038E+04</rscale>
<asrwt>0</asrwt>
<pdfrwt beam="1">  1        2 0.50199028E+00 0.14870038E+04</pdfrwt>
<pdfrwt beam="2">  1       -1 0.26064066E-01 0.14870038E+04</pdfrwt>
<totfact> 0.17112271E+01</totfact>
</mgrwt>
</event>
<event>
12    6  0.1538774E-007  0.1516678E+04  0.7818608E-02  0.8873437E-01
          2   -1    0    0  501    0  0.00000000000E+00  0.00000000000E+00  0.59017474348E+03  0.59017474348E+03  0.00000000000E+00 0. -1.
         -1   -1    0    0    0  501 -0.00000000000E+00 -0.00000000000E+00 -0.97442047910E+03  0.97442047910E+03  0.00000000000E+00 0.  1.
         24    2    1    2    0    0 -0.20708806496E+02 -0.36085171410E+02 -0.58864651273E+03  0.59741007115E+03  0.93075678327E+02 0.  0.
        254    2    1    2    0    0  0.20708806496E+02  0.36085171410E+02  0.20440077711E+03  0.96718515143E+03  0.94442386946E+03 0.  0.
         23    2    4    4    0    0  0.80050775363E+02  0.22121085780E+03  0.52421394878E+03  0.58178571131E+03  0.91279677644E+02 0.  0.
         23    2    4    4    0    0 -0.59341968867E+02 -0.18512568639E+03 -0.31981317167E+03  0.38539944012E+03  0.91974315139E+02 0.  0.
          4    1    3    3  502    0 -0.20299981919E+01 -0.11991154338E+02 -0.52982892262E+01  0.13265765856E+02  0.00000000000E+00 0. -1.
         -3    1    3    3    0  502 -0.18678808304E+02 -0.24094017071E+02 -0.58334822351E+03  0.58414430529E+03  0.00000000000E+00 0.  1.
         11    1    5    5    0    0  0.85716350978E+01 -0.67139040856E+01  0.45502073062E+02  0.46786622973E+02  0.00000000000E+00 0.  1.
        -11    1    5    5    0    0  0.71479140265E+02  0.22792476188E+03  0.47871187571E+03  0.53499908834E+03  0.00000000000E+00 0. -1.
          3    1    6    6  503    0 -0.41538192409E+02 -0.15906514878E+03 -0.18746337916E+03  0.24933844772E+03  0.00000000000E+00 0. -1.
         -3    1    6    6    0  503 -0.17803776459E+02 -0.26060537603E+02 -0.13234979251E+03  0.13606099240E+03  0.00000000000E+00 0.  1.
<mgrwt>
<rscale>  0 0.15166784E+04</rscale>
<asrwt>0</asrwt>
<pdfrwt beam="1">  1        2 0.90796115E-01 0.15166784E+04</pdfrwt>
<pdfrwt beam="2">  1       -1 0.14991084E+00 0.15166784E+04</pdfrwt>
<totfact> 0.19498878E+01</totfact>
</mgrwt>
</event>
<event>
12    6  0.1538774E-007  0.2048532E+04  0.7818608E-02  0.8584261E-01
         -1   -1    0    0    0  501 -0.00000000000E+00  0.00000000000E+00  0.23672706866E+03  0.23672706866E+03  0.00000000000E+00 0.  1.
          2   -1    0    0  501    0  0.00000000000E+00 -0.00000000000E+00 -0.44317728132E+04  0.44317728132E+04  0.00000000000E+00 0. -1.
         24    2    1    2    0    0  0.80795650429E+03  0.11933407102E+03 -0.16211332418E+04  0.18171450385E+04  0.83119008858E+02 0.  0.
        254    2    1    2    0    0 -0.80795650429E+03 -0.11933407102E+03 -0.25739125027E+04  0.28513548434E+04  0.91551326484E+03 0.  0.
         23    2    4    4    0    0 -0.55072340677E+03 -0.40600734395E+03 -0.91590918550E+03  0.11467008175E+04  0.88853220015E+02 0.  0.
         23    2    4    4    0    0 -0.25723309752E+03  0.28667327294E+03 -0.16580033172E+04  0.17046540259E+04  0.92303392309E+02 0.  0.
          4    1    3    3  502    0  0.64448214776E+03  0.65786396748E+02 -0.13178534600E+04  0.14684763637E+04  0.00000000000E+00 0. -1.
         -3    1    3    3    0  502  0.16347435653E+03  0.53547674270E+02 -0.30327978183E+03  0.34866867472E+03  0.00000000000E+00 0.  1.
         11    1    5    5    0    0 -0.10573104178E+03 -0.38588599990E+02 -0.16277341989E+03  0.19789724472E+03  0.00000000000E+00 0. -1.
        -11    1    5    5    0    0 -0.44499236499E+03 -0.36741874396E+03 -0.75313576561E+03  0.94880357280E+03  0.00000000000E+00 0.  1.
          3    1    6    6  503    0 -0.21124293674E+02  0.70854080125E+02 -0.24603899771E+03  0.25690800854E+03  0.00000000000E+00 0. -1.
         -3    1    6    6    0  503 -0.23610880385E+03  0.21581919281E+03 -0.14119643195E+04  0.14477460174E+04  0.00000000000E+00 0.  1.
<mgrwt>
<rscale>  0 0.20485318E+04</rscale>
<asrwt>0</asrwt>
<pdfrwt beam="1">  1        2 0.68181118E+00 0.20485318E+04</pdfrwt>
<pdfrwt beam="2">  1       -1 0.36419550E-01 0.20485318E+04</pdfrwt>
<totfact> 0.11056197E+00</totfact>
</mgrwt>
</event>
<event>
12    6  0.1538774E-007  0.1908827E+04  0.7818608E-02  0.8650475E-01
         -1   -1    0    0    0  501 -0.00000000000E+00  0.00000000000E+00  0.46448248898E+03  0.46448248898E+03  0.00000000000E+00 0.  1.
          2   -1    0    0  501    0  0.00000000000E+00 -0.00000000000E+00 -0.19611190370E+04  0.19611190370E+04  0.00000000000E+00 0. -1.
         24    2    1    2    0    0  0.71191829712E+03 -0.26024728156E+02 -0.79768852659E+03  0.10724093088E+04  0.79055626038E+02 0.  0.
        254    2    1    2    0    0 -0.71191829712E+03  0.26024728156E+02 -0.69894802145E+03  0.13531922172E+04  0.91383581218E+03 0.  0.
         23    2    4    4    0    0  0.17702733968E+03 -0.41525865494E+02  0.20229521159E+02  0.20435541134E+03  0.91042979506E+02 0.  0.
         23    2    4    4    0    0 -0.88894563680E+03  0.67550593649E+02 -0.71917754260E+03  0.11488368058E+04  0.88443432227E+02 0.  0.
          4    1    3    3  502    0  0.46215188676E+03 -0.21523406577E+01 -0.46375529499E+03  0.65471976650E+03  0.00000000000E+00 0. -1.
         -3    1    3    3    0  502  0.24976641036E+03 -0.23872387498E+02 -0.33393323159E+03  0.41768954235E+03  0.00000000000E+00 0.  1.
         11    1    5    5    0    0  0.14964820649E+03 -0.35585657798E+02 -0.20227047337E+02  0.15514528092E+03  0.00000000000E+00 0. -1.
        -11    1    5    5    0    0  0.27379133193E+02 -0.59402076957E+01  0.40456568495E+02  0.49210130423E+02  0.00000000000E+00 0.  1.
          1    1    6    6  503    0 -0.74678105766E+03  0.79467427112E+02 -0.63285140878E+03  0.98208855285E+03  0.00000000000E+00 0. -1.
         -1    1    6    6    0  503 -0.14216457915E+03 -0.11916833462E+02 -0.86326133822E+02  0.16674825296E+03  0.00000000000E+00 0.  1.
<mgrwt>
<rscale>  0 0.19088273E+04</rscale>
<asrwt>0</asrwt>
<pdfrwt beam="1">  1        2 0.30171063E+00 0.19088273E+04</pdfrwt>
<pdfrwt beam="2">  1       -1 0.71458842E-01 0.19088273E+04</pdfrwt>
<totfact> 0.14797217E+01</totfact>
</mgrwt>
</event>
<event>
12    6  0.1538774E-007  0.1828222E+04  0.7818608E-02  0.8691434E-01
         -1   -1    0    0    0  501 -0.00000000000E+00  0.00000000000E+00  0.42231348309E+03  0.42231348309E+03  0.00000000000E+00 0.  1.
          2   -1    0    0  501    0  0.00000000000E+00 -0.00000000000E+00 -0.19786224994E+04  0.19786224994E+04  0.00000000000E+00 0. -1.
         24    2    1    2    0    0  0.41621216102E+02 -0.67651265535E+03 -0.81572846034E+03  0.10634560974E+04  0.78257597586E+02 0.  0.
        254    2    1    2    0    0 -0.41621216102E+02  0.67651265535E+03 -0.74058055601E+03  0.13374798852E+04  0.88373705636E+03 0.  0.
         23    2    4    4    0    0  0.12962821260E+03  0.72887226636E+03 -0.21755187396E+03  0.77772687624E+03  0.97324313529E+02 0.  0.
         23    2    4    4    0    0 -0.17124942870E+03 -0.52359611012E+02 -0.52302868206E+03  0.55975300891E+03  0.87729886792E+02 0.  0.
          4    1    3    3  502    0  0.19707290846E+02 -0.34050578110E+03 -0.47140646379E+03  0.58185618358E+03  0.00000000000E+00 0. -1.
         -3    1    3    3    0  502  0.21913925256E+02 -0.33600687425E+03 -0.34432199655E+03  0.48159991380E+03  0.00000000000E+00 0.  1.
         11    1    5    5    0    0  0.10000851465E+03  0.39406850361E+03 -0.15903775853E+03  0.43656007281E+03  0.00000000000E+00 0.  1.
        -11    1    5    5    0    0  0.29619697945E+02  0.33480376275E+03 -0.58514115430E+02  0.34116680343E+03  0.00000000000E+00 0. -1.
          1    1    6    6  503    0 -0.98025315925E+02 -0.35731052639E+02 -0.41683303108E+03  0.42969226952E+03  0.00000000000E+00 0. -1.
         -1    1    6    6    0  503 -0.73224112772E+02 -0.16628558372E+02 -0.10619565097E+03  0.13006073939E+03  0.00000000000E+00 0.  1.
<mgrwt>
<rscale>  0 0.18282220E+04</rscale>
<asrwt>0</asrwt>
<pdfrwt beam="1">  1        2 0.30440346E+00 0.18282220E+04</pdfrwt>
<pdfrwt beam="2">  1       -1 0.64971306E-01 0.18282220E+04</pdfrwt>
<totfact> 0.17691342E+01</totfact>
</mgrwt>
</event>
<event>
12    6  0.1538774E-007  0.1353958E+04  0.7818608E-02  0.8987837E-01
          4   -1    0    0  501    0  0.00000000000E+00  0.00000000000E+00  0.55500061095E+03  0.55500061095E+03  0.00000000000E+00 0. -1.
         -1   -1    0    0    0  501 -0.00000000000E+00 -0.00000000000E+00 -0.82576648401E+03  0.82576648401E+03  0.00000000000E+00 0.  1.
         24    2    1    2    0    0 -0.34483748367E+03 -0.10137227780E+03 -0.15345380400E+03  0.39870203193E+03  0.78905078766E+02 0.  0.
        254    2    1    2    0    0  0.34483748367E+03  0.10137227780E+03 -0.11731206906E+03  0.98206506303E+03  0.90636661325E+03 0.  0.
         23    2    4    4    0    0  0.21368750496E+03 -0.38542273483E+03  0.25413325352E+02  0.45067679455E+03  0.90833373513E+02 0.  0.
         23    2    4    4    0    0  0.13114997871E+03  0.48679501263E+03 -0.14272539441E+03  0.53138826847E+03  0.88505663253E+02 0.  0.
          2    1    3    3  502    0 -0.17017461183E+03 -0.40827808931E+02 -0.33070981161E+02  0.17810109009E+03  0.00000000000E+00 0. -1.
         -1    1    3    3    0  502 -0.17466287183E+03 -0.60544468870E+02 -0.12038282284E+03  0.22060094184E+03  0.00000000000E+00 0.  1.
         11    1    5    5    0    0  0.19843974722E+03 -0.37832076212E+03  0.39099777253E+02  0.42899152079E+03  0.00000000000E+00 0.  1.
        -11    1    5    5    0    0  0.15247757738E+02 -0.71019727031E+01 -0.13686451900E+02  0.21685273758E+02  0.00000000000E+00 0. -1.
          1    1    6    6  503    0  0.10019890638E+02  0.18217237779E+03 -0.31079822407E+02  0.18507600817E+03  0.00000000000E+00 0. -1.
         -1    1    6    6    0  503  0.12113008807E+03  0.30462263484E+03 -0.11164557200E+03  0.34631226031E+03  0.00000000000E+00 0.  1.
<mgrwt>
<rscale>  0 0.13539585E+04</rscale>
<asrwt>0</asrwt>
<pdfrwt beam="1">  1        4 0.85384710E-01 0.13539585E+04</pdfrwt>
<pdfrwt beam="2">  1       -1 0.12704100E+00 0.13539585E+04</pdfrwt>
<totfact> 0.26092035E+00</totfact>
</mgrwt>
</event>
<event>
12    6  0.1538774E-007  0.1225027E+04  0.7818608E-02  0.9091229E-01
          2   -1    0    0  501    0  0.00000000000E+00  0.00000000000E+00  0.98011955134E+03  0.98011955134E+03  0.00000000000E+00 0. -1.
         -1   -1    0    0    0  501 -0.00000000000E+00 -0.00000000000E+00 -0.38278238040E+03  0.38278238040E+03  0.00000000000E+00 0.  1.
         24    2    1    2    0    0  0.25197539924E+03  0.15447386806E+03  0.20280331077E+03  0.36730107944E+03  0.80169335542E+02 0.  0.
        254    2    1    2    0    0 -0.25197539924E+03 -0.15447386806E+03  0.39453386016E+03  0.99560085230E+03  0.86499151010E+03 0.  0.
         23    2    4    4    0    0  0.24921273528E+03  0.16322975172E+03  0.12383387063E+03  0.33721768951E+03  0.98132580372E+02 0.  0.
         23    2    4    4    0    0 -0.50118813452E+03 -0.31770361978E+03  0.27069998954E+03  0.65838316279E+03  0.89804056172E+02 0.  0.
          4    1    3    3  502    0  0.77802972815E+02  0.29658663732E+02  0.98526316971E+02  0.12899757381E+03  0.00000000000E+00 0. -1.
         -3    1    3    3    0  502  0.17417242643E+03  0.12481520433E+03  0.10427699380E+03  0.23830350563E+03  0.00000000000E+00 0.  1.
         11    1    5    5    0    0  0.21378217630E+03  0.14167862538E+03  0.63853478298E+02  0.26429702700E+03  0.00000000000E+00 0.  1.
        -11    1    5    5    0    0  0.35430558983E+02  0.21551126343E+02  0.59980392329E+02  0.72920662506E+02  0.00000000000E+00 0. -1.
          4    1    6    6  503    0 -0.21467627637E+03 -0.15935317323E+03  0.77927422626E+02  0.27848163431E+03  0.00000000000E+00 0. -1.
         -4    1    6    6    0  503 -0.28651185815E+03 -0.15835044655E+03  0.19277256691E+03  0.37990152848E+03  0.00000000000E+00 0.  1.
<mgrwt>
<rscale>  0 0.12250265E+04</rscale>
<asrwt>0</asrwt>
<pdfrwt beam="1">  1        2 0.15078762E+00 0.12250265E+04</pdfrwt>
<pdfrwt beam="2">  1       -1 0.58889598E-01 0.12250265E+04</pdfrwt>
<totfact> 0.85216278E+01</totfact>
</mgrwt>
</event>
<event>
12    6  0.1538774E-007  0.1342326E+04  0.7818608E-02  0.8996658E-01
         -3   -1    0    0    0  501 -0.00000000000E+00  0.00000000000E+00  0.18140109919E+03  0.18140109919E+03  0.00000000000E+00 0.  1.
          2   -1    0    0  501    0  0.00000000000E+00 -0.00000000000E+00 -0.24832245142E+04  0.24832245142E+04  0.00000000000E+00 0. -1.
         24    2    1    2    0    0  0.23823843900E+03  0.27351677958E+03 -0.65098069139E+03  0.74968993389E+03  0.81793360897E+02 0.  0.
        254    2    1    2    0    0 -0.23823843900E+03 -0.27351677958E+03 -0.16508427236E+04  0.19149356795E+04  0.90007109496E+03 0.  0.
         23    2    4    4    0    0  0.28826905784E+03 -0.29798960057E+03 -0.60074268091E+03  0.73656289060E+03  0.98672546241E+02 0.  0.
         23    2    4    4    0    0 -0.52650749684E+03  0.24472820993E+02 -0.10501000427E+04  0.11783727889E+04  0.89684261362E+02 0.  0.
          2    1    3    3  502    0 -0.28103092200E+01  0.68018971599E+01 -0.17417335747E+01  0.75628882532E+01  0.00000000000E+00 0. -1.
         -1    1    3    3    0  502  0.24104874822E+03  0.26671488242E+03 -0.64923895782E+03  0.74212704564E+03  0.00000000000E+00 0.  1.
         11    1    5    5    0    0  0.24133528430E+03 -0.27475158322E+03 -0.56549074333E+03  0.67343220351E+03  0.00000000000E+00 0. -1.
        -11    1    5    5    0    0  0.46933773541E+02 -0.23238017350E+02 -0.35251937579E+02  0.63130687088E+02  0.00000000000E+00 0.  1.
          1    1    6    6  503    0 -0.41414059309E+03  0.39326425053E+02 -0.88756685013E+03  0.98022135867E+03  0.00000000000E+00 0. -1.
         -1    1    6    6    0  503 -0.11236690376E+03 -0.14853604060E+02 -0.16253319259E+03  0.19815143024E+03  0.00000000000E+00 0.  1.
<mgrwt>
<rscale>  0 0.13423258E+04</rscale>
<asrwt>0</asrwt>
<pdfrwt beam="1">  1        2 0.38203453E+00 0.13423258E+04</pdfrwt>
<pdfrwt beam="2">  1       -3 0.27907863E-01 0.13423258E+04</pdfrwt>
<totfact> 0.28188182E+01</totfact>
</mgrwt>
</event>
<event>
12    6  0.1538774E-007  0.1182810E+04  0.7818608E-02  0.9128037E-01
          2   -1    0    0  501    0  0.00000000000E+00  0.00000000000E+00  0.20585689369E+04  0.20585689369E+04  0.00000000000E+00 0. -1.
         -1   -1    0    0    0  501 -0.00000000000E+00 -0.00000000000E+00 -0.16990446529E+03  0.16990446529E+03  0.00000000000E+00 0.  1.
         24    2    1    2    0    0  0.19093070963E+01 -0.13160921948E+03  0.77298050037E+03  0.78813139152E+03  0.79546239704E+02 0.  0.
        254    2    1    2    0    0 -0.19093070963E+01  0.13160921948E+03  0.11156839713E+04  0.14403420107E+04  0.90139322825E+03 0.  0.
         23    2    4    4    0    0 -0.30136782578E+03 -0.24657840169E+03  0.35166005850E+03  0.53232544909E+03  0.89900569597E+02 0.  0.
         23    2    4    4    0    0  0.29945851869E+03  0.37818762116E+03  0.76402391275E+03  0.90801656159E+03  0.89778926566E+02 0.  0.
          2    1    3    3  502    0  0.83391041253E+01 -0.13550826255E+03  0.76577503225E+03  0.77771680572E+03  0.00000000000E+00 0. -1.
         -1    1    3    3    0  502 -0.64297970290E+01  0.38990430717E+01  0.72054681140E+01  0.10414585803E+02  0.00000000000E+00 0.  1.
         11    1    5    5    0    0 -0.63689649964E+01 -0.34177953502E+02  0.44143579463E+02  0.56190317926E+02  0.00000000000E+00 0.  1.
        -11    1    5    5    0    0 -0.29499886079E+03 -0.21240044818E+03  0.30751647904E+03  0.47613513117E+03  0.00000000000E+00 0. -1.
          1    1    6    6  503    0  0.24798579889E+03  0.33025588569E+03  0.70080953922E+03  0.81344939409E+03  0.00000000000E+00 0. -1.
         -1    1    6    6    0  503  0.51472719795E+02  0.47931735474E+02  0.63214373538E+02  0.94567167507E+02  0.00000000000E+00 0.  1.
<mgrwt>
<rscale>  0 0.11828103E+04</rscale>
<asrwt>0</asrwt>
<pdfrwt beam="1">  1        2 0.31670290E+00 0.11828103E+04</pdfrwt>
<pdfrwt beam="2">  1       -1 0.26139150E-01 0.11828103E+04</pdfrwt>
<totfact> 0.90640575E+01</totfact>
</mgrwt>
</event>
<event>
12    6  0.1538774E-007  0.2926542E+04  0.7818608E-02  0.8265024E-01
         -1   -1    0    0    0  501 -0.00000000000E+00  0.00000000000E+00  0.13108529378E+04  0.13108529378E+04  0.00000000000E+00 0.  1.
          2   -1    0    0  501    0  0.00000000000E+00 -0.00000000000E+00 -0.16334111265E+04  0.16334111265E+04  0.00000000000E+00 0. -1.
         24    2    1    2    0    0  0.45869402425E+03 -0.74628851047E+03 -0.11445234742E+04  0.14435322608E+04  0.80651448368E+02 0.  0.
        254    2    1    2    0    0 -0.45869402425E+03  0.74628851047E+03  0.82196528549E+03  0.15007318035E+04  0.89956782219E+03 0.  0.
         23    2    4    4    0    0  0.23410527453E+03  0.32605743580E+03  0.13196184834E+03  0.43252419421E+03  0.92436562857E+02 0.  0.
         23    2    4    4    0    0 -0.69279929878E+03  0.42023107467E+03  0.69000343715E+03  0.10682076093E+04  0.91639122437E+02 0.  0.
          4    1    3    3  502    0  0.22350450132E+03 -0.39074943345E+03 -0.52581917439E+03  0.69218869249E+03  0.00000000000E+00 0. -1.
         -3    1    3    3    0  502  0.23518952293E+03 -0.35553907703E+03 -0.61870429982E+03  0.75134356828E+03  0.00000000000E+00 0.  1.
         11    1    5    5    0    0  0.18136075950E+03  0.19255535016E+03  0.57012134098E+02  0.27059133651E+03  0.00000000000E+00 0.  1.
        -11    1    5    5    0    0  0.52744515034E+02  0.13350208564E+03  0.74949714244E+02  0.16193285769E+03  0.00000000000E+00 0. -1.
          3    1    6    6  503    0 -0.12032421207E+03  0.35508078636E+02  0.96611291104E+02  0.15834292289E+03  0.00000000000E+00 0. -1.
         -3    1    6    6    0  503 -0.57247508670E+03  0.38472299604E+03  0.59339214605E+03  0.90986468641E+03  0.00000000000E+00 0.  1.
<mgrwt>
<rscale>  0 0.29265418E+04</rscale>
<asrwt>0</asrwt>
<pdfrwt beam="1">  1        2 0.25129402E+00 0.29265418E+04</pdfrwt>
<pdfrwt beam="2">  1       -1 0.20166968E+00 0.29265418E+04</pdfrwt>
<totfact> 0.15349937E+00</totfact>
</mgrwt>
</event>
<event>
12    6  0.1538774E-007  0.1754620E+04  0.7818608E-02  0.8730811E-01
         -1   -1    0    0    0  501 -0.00000000000E+00  0.00000000000E+00  0.52836758128E+03  0.52836758128E+03  0.00000000000E+00 0.  1.
          2   -1    0    0  501    0  0.00000000000E+00 -0.00000000000E+00 -0.14566996866E+04  0.14566996866E+04  0.00000000000E+00 0. -1.
         24    2    1    2    0    0 -0.32663345597E+03  0.54559867711E+03 -0.19924246349E+03  0.67089137618E+03  0.77655317624E+02 0.  0.
        254    2    1    2    0    0  0.32663345597E+03 -0.54559867711E+03 -0.72908964182E+03  0.13141758917E+04  0.88944883915E+03 0.  0.
         23    2    4    4    0    0 -0.32738871812E+02 -0.60192279787E+03 -0.71404774337E+03  0.93886072091E+03  0.90622211061E+02 0.  0.
         23    2    4    4    0    0  0.35937232778E+03  0.56324120763E+02 -0.15041898445E+02  0.37531517077E+03  0.91183014602E+02 0.  0.
          2    1    3    3  502    0 -0.21819442923E+03  0.30143838078E+03 -0.13733569897E+03  0.39665476244E+03  0.00000000000E+00 0. -1.
         -1    1    3    3    0  502 -0.10843902674E+03  0.24416029633E+03 -0.61906764522E+02  0.27423661374E+03  0.00000000000E+00 0.  1.
         11    1    5    5    0    0  0.58020578445E+01 -0.29265606541E+02 -0.70496455031E+02  0.76549916873E+02  0.00000000000E+00 0.  1.
        -11    1    5    5    0    0 -0.38540929656E+02 -0.57265719133E+03 -0.64355128834E+03  0.86231080404E+03  0.00000000000E+00 0. -1.
          1    1    6    6  503    0  0.28080829326E+03  0.80975919330E+02 -0.43491944628E+01  0.29228293239E+03  0.00000000000E+00 0. -1.
         -1    1    6    6    0  503  0.78564034519E+02 -0.24651798567E+02 -0.10692703983E+02  0.83032238383E+02  0.00000000000E+00 0.  1.
<mgrwt>
<rscale>  0 0.17546201E+04</rscale>
<asrwt>0</asrwt>
<pdfrwt beam="1">  1        2 0.22410764E+00 0.17546201E+04</pdfrwt>
<pdfrwt beam="2">  1       -1 0.81287322E-01 0.17546201E+04</pdfrwt>
<totfact> 0.21863776E+01</totfact>
</mgrwt>
</event>
<event>
12    6  0.1538774E-007  0.1384410E+04  0.7818608E-02  0.8965181E-01
         -1   -1    0    0    0  501 -0.00000000000E+00  0.00000000000E+00  0.13565452423E+04  0.13565452423E+04  0.00000000000E+00 0.  1.
          2   -1    0    0  501    0  0.00000000000E+00 -0.00000000000E+00 -0.35321192018E+03  0.35321192018E+03  0.00000000000E+00 0. -1.
         24    2    1    2    0    0  0.17017777224E+03  0.14281983520E+03  0.70954352505E+03  0.74766422484E+03  0.78687989341E+02 0.  0.
        254    2    1    2    0    0 -0.17017777224E+03 -0.14281983520E+03  0.29378979705E+03  0.96209293762E+03  0.88879266215E+03 0.  0.
         23    2    4    4    0    0  0.14359299846E+03 -0.73032244188E+02 -0.25770143588E+03  0.31737157336E+03  0.91444122949E+02 0.  0.
         23    2    4    4    0    0 -0.31377077070E+03 -0.69787591015E+02  0.55149123293E+03  0.64472136427E+03  0.90557457682E+02 0.  0.
          2    1    3    3  502    0  0.14690652388E+02  0.31637405327E+02  0.49894990600E+02  0.60878984636E+02  0.00000000000E+00 0. -1.
         -1    1    3    3    0  502  0.15548711985E+03  0.11118242988E+03  0.65964853445E+03  0.68678524020E+03  0.00000000000E+00 0.  1.
         11    1    5    5    0    0 -0.89161332287E+01  0.58411629838E+01 -0.32369051636E+02  0.34078910202E+02  0.00000000000E+00 0. -1.
        -11    1    5    5    0    0  0.15250913169E+03 -0.78873407172E+02 -0.22533238424E+03  0.28329266315E+03  0.00000000000E+00 0.  1.
          3    1    6    6  503    0 -0.15585344947E+03 -0.62568520716E+02  0.35347411467E+03  0.39134264684E+03  0.00000000000E+00 0. -1.
         -3    1    6    6    0  503 -0.15791732123E+03 -0.72190702989E+01  0.19801711826E+03  0.25337871743E+03  0.00000000000E+00 0.  1.
<mgrwt>
<rscale>  0 0.13844103E+04</rscale>
<asrwt>0</asrwt>
<pdfrwt beam="1">  1        2 0.54340296E-01 0.13844103E+04</pdfrwt>
<pdfrwt beam="2">  1       -1 0.20869927E+00 0.13844103E+04</pdfrwt>
<totfact> 0.13386682E+01</totfact>
</mgrwt>
</event>
<event>
12    6  0.1538774E-007  0.1654900E+04  0.7818608E-02  0.8787513E-01
         -1   -1    0    0    0  501 -0.00000000000E+00  0.00000000000E+00  0.46437080843E+03  0.46437080843E+03  0.00000000000E+00 0.  1.
          2   -1    0    0  501    0  0.00000000000E+00 -0.00000000000E+00 -0.14744104938E+04  0.14744104938E+04  0.00000000000E+00 0. -1.
         24    2    1    2    0    0  0.53485875948E+03 -0.26385304268E+03 -0.40499628262E+03  0.72839284754E+03  0.10412411194E+03 0.  0.
        254    2    1    2    0    0 -0.53485875948E+03  0.26385304268E+03 -0.60504340271E+03  0.12103884546E+04  0.86213129584E+03 0.  0.
         23    2    4    4    0    0 -0.42900577249E+03  0.52717174823E+03 -0.60113820268E+03  0.91177424753E+03  0.89493769491E+02 0.  0.
         23    2    4    4    0    0 -0.10585298699E+03 -0.26331870554E+03 -0.39052000277E+01  0.29861420712E+03  0.92809474531E+02 0.  0.
          2    1    3    3  502    0  0.68240864254E+02 -0.60840710028E+02 -0.98318137316E+02  0.13425670812E+03  0.00000000000E+00 0. -1.
         -1    1    3    3    0  502  0.46661789522E+03 -0.20301233265E+03 -0.30667814530E+03  0.59413613941E+03  0.00000000000E+00 0.  1.
         11    1    5    5    0    0 -0.32187883082E+03  0.44452120956E+03 -0.50484041959E+03  0.74570029954E+03  0.00000000000E+00 0. -1.
        -11    1    5    5    0    0 -0.10712694167E+03  0.82650538663E+02 -0.96297783087E+02  0.16607394798E+03  0.00000000000E+00 0.  1.
          4    1    6    6  503    0 -0.68530009688E+02 -0.24477445026E+03 -0.17469439320E+02  0.25478633213E+03  0.00000000000E+00 0. -1.
         -4    1    6    6    0  503 -0.37322977303E+02 -0.18544255281E+02  0.13564239293E+02  0.43827874992E+02  0.00000000000E+00 0.  1.
<mgrwt>
<rscale>  0 0.16548996E+04</rscale>
<asrwt>0</asrwt>
<pdfrwt beam="1">  1        2 0.22683238E+00 0.16548996E+04</pdfrwt>
<pdfrwt beam="2">  1       -1 0.71441664E-01 0.16548996E+04</pdfrwt>
<totfact> 0.28252304E+01</totfact>
</mgrwt>
</event>
<event>
12    6  0.1538774E-007  0.2479920E+04  0.7818608E-02  0.8410174E-01
         -1   -1    0    0    0  501 -0.00000000000E+00  0.00000000000E+00  0.15050205323E+04  0.15050205323E+04  0.00000000000E+00 0.  1.
          2   -1    0    0  501    0  0.00000000000E+00 -0.00000000000E+00 -0.10215810669E+04  0.10215810669E+04  0.00000000000E+00 0. -1.
         24    2    1    2    0    0 -0.32882038418E+03 -0.39818450211E+03  0.11486697599E+04  0.12619197606E+04  0.79533151355E+02 0.  0.
        254    2    1    2    0    0  0.32882038418E+03  0.39818450211E+03 -0.66523029449E+03  0.12646818386E+04  0.94351209074E+03 0.  0.
         23    2    4    4    0    0  0.23476885802E+03 -0.26021907861E+03 -0.73421593375E+02  0.36989278030E+03  0.92733774748E+02 0.  0.
         23    2    4    4    0    0  0.94051526153E+02  0.65840358072E+03 -0.59180870112E+03  0.89478905828E+03  0.89827364577E+02 0.  0.
          2    1    3    3  502    0  0.42465525068E+01 -0.99889170810E+01  0.19958541385E+02  0.22719045906E+02  0.00000000000E+00 0. -1.
         -1    1    3    3    0  502 -0.33306693668E+03 -0.38819558503E+03  0.11287112185E+04  0.12392007147E+04  0.00000000000E+00 0.  1.
         11    1    5    5    0    0  0.43996422969E+02 -0.10597729164E+03 -0.35123521985E+01  0.11480073255E+03  0.00000000000E+00 0. -1.
        -11    1    5    5    0    0  0.19077243505E+03 -0.15424178697E+03 -0.69909241176E+02  0.25509204775E+03  0.00000000000E+00 0.  1.
          2    1    6    6  503    0  0.21432307046E+02  0.12116853631E+03 -0.66321264104E+02  0.13978436268E+03  0.00000000000E+00 0. -1.
         -2    1    6    6    0  503  0.72619219107E+02  0.53723504441E+03 -0.52548743701E+03  0.75500469560E+03  0.00000000000E+00 0.  1.
<mgrwt>
<rscale>  0 0.24799197E+04</rscale>
<asrwt>0</asrwt>
<pdfrwt beam="1">  1        2 0.15716632E+00 0.24799197E+04</pdfrwt>
<pdfrwt beam="2">  1       -1 0.23154162E+00 0.24799197E+04</pdfrwt>
<totfact> 0.22910340E+00</totfact>
</mgrwt>
</event>
<event>
12    6  0.1538774E-007  0.3041432E+04  0.7818608E-02  0.8231998E-01
         -1   -1    0    0    0  501 -0.00000000000E+00  0.00000000000E+00  0.26204184696E+04  0.26204184696E+04  0.00000000000E+00 0.  1.
          2   -1    0    0  501    0  0.00000000000E+00 -0.00000000000E+00 -0.88252201742E+03  0.88252201742E+03  0.00000000000E+00 0. -1.
         24    2    1    2    0    0 -0.13010261638E+04 -0.36949372349E+03  0.10731797469E+04  0.17283547818E+04  0.79377528100E+02 0.  0.
        254    2    1    2    0    0  0.13010261638E+04  0.36949372349E+03  0.66471670535E+03  0.17745857053E+04  0.93707600359E+03 0.  0.
         23    2    4    4    0    0  0.76273819472E+03  0.15660212156E+03  0.85372536657E+03  0.11587941258E+04  0.87538827108E+02 0.  0.
         23    2    4    4    0    0  0.53828796907E+03  0.21289160193E+03 -0.18900866122E+03  0.61579157952E+03  0.91641822189E+02 0.  0.
          4    1    3    3  502    0 -0.93637811512E+03 -0.23942023066E+03  0.73367750879E+03  0.12134284933E+04  0.00000000000E+00 0. -1.
         -3    1    3    3    0  502 -0.36464804867E+03 -0.13007349283E+03  0.33950223807E+03  0.51492628850E+03  0.00000000000E+00 0.  1.
         11    1    5    5    0    0  0.35028908069E+03  0.28239082706E+02  0.37112526087E+03  0.51111040402E+03  0.00000000000E+00 0. -1.
        -11    1    5    5    0    0  0.41244911403E+03  0.12836303885E+03  0.48260010570E+03  0.64768372176E+03  0.00000000000E+00 0.  1.
          3    1    6    6  503    0  0.97041121834E+02  0.31105349417E+02  0.15757396159E+01  0.10191665735E+03  0.00000000000E+00 0. -1.
         -3    1    6    6    0  503  0.44124684724E+03  0.18178625252E+03 -0.19058440083E+03  0.51387492218E+03  0.00000000000E+00 0.  1.
<mgrwt>
<rscale>  0 0.30414319E+04</rscale>
<asrwt>0</asrwt>
<pdfrwt beam="1">  1        2 0.13577262E+00 0.30414319E+04</pdfrwt>
<pdfrwt beam="2">  1       -1 0.40314130E+00 0.30414319E+04</pdfrwt>
<totfact> 0.19936206E-01</totfact>
</mgrwt>
</event>
<event>
12    6  0.1538774E-007  0.1194200E+04  0.7818608E-02  0.9117949E-01
          2   -1    0    0  501    0  0.00000000000E+00  0.00000000000E+00  0.10644193693E+04  0.10644193693E+04  0.00000000000E+00 0. -1.
         -1   -1    0    0    0  501 -0.00000000000E+00 -0.00000000000E+00 -0.33495079410E+03  0.33495079410E+03  0.00000000000E+00 0.  1.
         24    2    1    2    0    0 -0.27371298379E+02 -0.22164294125E+03  0.25143403781E+03  0.34573259053E+03  0.80231959998E+02 0.  0.
        254    2    1    2    0    0  0.27371298379E+02  0.22164294125E+03  0.47803453739E+03  0.10536375729E+04  0.91200895535E+03 0.  0.
         23    2    4    4    0    0  0.66406001460E+02  0.54646520823E+03  0.44322801471E+03  0.71265069313E+03  0.91574868630E+02 0.  0.
         23    2    4    4    0    0 -0.39034703081E+02 -0.32482226698E+03  0.34806522689E+02  0.34098687974E+03  0.89595451703E+02 0.  0.
          2    1    3    3  502    0 -0.44331431748E+02 -0.16574904940E+03  0.14638331231E+03  0.22553513548E+03  0.00000000000E+00 0. -1.
         -1    1    3    3    0  502  0.16960133368E+02 -0.55893891850E+02  0.10505072551E+03  0.12019745505E+03  0.00000000000E+00 0.  1.
         11    1    5    5    0    0  0.49308789308E+01  0.66841815922E+02  0.97115467986E+02  0.11799811882E+03  0.00000000000E+00 0. -1.
        -11    1    5    5    0    0  0.61475122529E+02  0.47962339230E+03  0.34611254672E+03  0.59465257431E+03  0.00000000000E+00 0.  1.
          3    1    6    6  503    0 -0.18525905130E+02 -0.30656246383E+02  0.28938607924E+02  0.46048427028E+02  0.00000000000E+00 0. -1.
         -3    1    6    6    0  503 -0.20508797951E+02 -0.29416602060E+03  0.58679147651E+01  0.29493845272E+03  0.00000000000E+00 0.  1.
<mgrwt>
<rscale>  0 0.11941995E+04</rscale>
<asrwt>0</asrwt>
<pdfrwt beam="1">  1        2 0.16375682E+00 0.11941995E+04</pdfrwt>
<pdfrwt beam="2">  1       -1 0.51530892E-01 0.11941995E+04</pdfrwt>
<totfact> 0.97758781E+01</totfact>
</mgrwt>
</event>
<event>
12    6  0.1538774E-007  0.1540201E+04  0.7818608E-02  0.8858151E-01
          2   -1    0    0  501    0  0.00000000000E+00  0.00000000000E+00  0.54225027037E+03  0.54225027037E+03  0.00000000000E+00 0. -1.
         -1   -1    0    0    0  501 -0.00000000000E+00 -0.00000000000E+00 -0.10936917083E+04  0.10936917083E+04  0.00000000000E+00 0.  1.
         24    2    1    2    0    0  0.13288746947E+03 -0.30314922406E+03  0.22083377521E+03  0.40590217819E+03  0.80190338541E+02 0.  0.
        254    2    1    2    0    0 -0.13288746947E+03  0.30314922406E+03 -0.77227521313E+03  0.12300398005E+04  0.89834869305E+03 0.  0.
         23    2    4    4    0    0  0.31934692297E+03  0.22558404414E+02 -0.55787642827E+03  0.64874133646E+03  0.84545097958E+02 0.  0.
         23    2    4    4    0    0 -0.45223439244E+03  0.28059081964E+03 -0.21439878486E+03  0.58129846400E+03  0.93241147192E+02 0.  0.
          4    1    3    3  502    0  0.79650512504E+02 -0.25083402161E+03  0.19250460001E+03  0.32606737273E+03  0.00000000000E+00 0. -1.
         -3    1    3    3    0  502  0.53236956964E+02 -0.52315202452E+02  0.28329175207E+02  0.79834805457E+02  0.00000000000E+00 0.  1.
         11    1    5    5    0    0  0.10626157563E+03  0.28480779758E+02 -0.12703459833E+03  0.16804900013E+03  0.00000000000E+00 0.  1.
        -11    1    5    5    0    0  0.21308534734E+03 -0.59223753440E+01 -0.43084182994E+03  0.48069233633E+03  0.00000000000E+00 0. -1.
          4    1    6    6  503    0 -0.75067841346E+01  0.67388993394E+01 -0.22888274109E+02  0.25012750030E+02  0.00000000000E+00 0. -1.
         -4    1    6    6    0  503 -0.44472760830E+03  0.27385192030E+03 -0.19151051075E+03  0.55628571397E+03  0.00000000000E+00 0.  1.
<mgrwt>
<rscale>  0 0.15402008E+04</rscale>
<asrwt>0</asrwt>
<pdfrwt beam="1">  1        2 0.83423120E-01 0.15402008E+04</pdfrwt>
<pdfrwt beam="2">  1       -1 0.16826026E+00 0.15402008E+04</pdfrwt>
<totfact> 0.15621021E+01</totfact>
</mgrwt>
</event>
<event>
12    6  0.1538774E-007  0.2559715E+04  0.7818608E-02  0.8382015E-01
         -1   -1    0    0    0  501 -0.00000000000E+00  0.00000000000E+00  0.58951278500E+03  0.58951278500E+03  0.00000000000E+00 0.  1.
          2   -1    0    0  501    0  0.00000000000E+00 -0.00000000000E+00 -0.27786255883E+04  0.27786255883E+04  0.00000000000E+00 0. -1.
         24    2    1    2    0    0 -0.82507400678E+03 -0.67150299620E+03 -0.14233158032E+04  0.17788863606E+04  0.83339172098E+02 0.  0.
        254    2    1    2    0    0  0.82507400678E+03  0.67150299620E+03 -0.76579700008E+03  0.15892520127E+04  0.89867320201E+03 0.  0.
         23    2    4    4    0    0  0.62931355251E+03  0.68792118269E+03 -0.92832537443E+03  0.13191447351E+04  0.95308605453E+02 0.  0.
         23    2    4    4    0    0  0.19576045427E+03 -0.16418186483E+02  0.16252837436E+03  0.27010727765E+03  0.89167015564E+02 0.  0.
          4    1    3    3  502    0 -0.71676762022E+03 -0.56133078868E+03 -0.12546379079E+04  0.15501497849E+04  0.00000000000E+00 0. -1.
         -3    1    3    3    0  502 -0.10830638655E+03 -0.11017220753E+03 -0.16867789527E+03  0.22873657563E+03  0.00000000000E+00 0.  1.
         11    1    5    5    0    0  0.27215611165E+03  0.34298141764E+03 -0.38405180352E+03  0.58240964084E+03  0.00000000000E+00 0. -1.
        -11    1    5    5    0    0  0.35715744085E+03  0.34493976505E+03 -0.54427357091E+03  0.73673509422E+03  0.00000000000E+00 0.  1.
          3    1    6    6  503    0  0.18786941286E+03 -0.25605495524E+02  0.11655627019E+03  0.22256666824E+03  0.00000000000E+00 0. -1.
         -3    1    6    6    0  503  0.78910414097E+01  0.91873090407E+01  0.45972104163E+02  0.47540609410E+02  0.00000000000E+00 0.  1.
<mgrwt>
<rscale>  0 0.25597151E+04</rscale>
<asrwt>0</asrwt>
<pdfrwt beam="1">  1        2 0.42748086E+00 0.25597151E+04</pdfrwt>
<pdfrwt beam="2">  1       -1 0.90694274E-01 0.25597151E+04</pdfrwt>
<totfact> 0.28547284E+00</totfact>
</mgrwt>
</event>
<event>
12    6  0.1538774E-007  0.1290058E+04  0.7818608E-02  0.9037486E-01
         -1   -1    0    0    0  501 -0.00000000000E+00  0.00000000000E+00  0.20055303353E+03  0.20055303353E+03  0.00000000000E+00 0.  1.
          2   -1    0    0  501    0  0.00000000000E+00 -0.00000000000E+00 -0.20745761700E+04  0.20745761700E+04  0.00000000000E+00 0. -1.
         24    2    1    2    0    0  0.55883516633E+02  0.18037656957E+03 -0.23260147964E+02  0.20682445928E+03  0.81096536238E+02 0.  0.
        254    2    1    2    0    0 -0.55883516633E+02 -0.18037656957E+03 -0.18507629885E+04  0.20683047443E+04  0.90382642204E+03 0.  0.
         23    2    4    4    0    0 -0.36034912018E+03 -0.39034159756E+03 -0.11527839219E+04  0.12729048471E+04  0.95697063399E+02 0.  0.
         23    2    4    4    0    0  0.30446560354E+03  0.20996502799E+03 -0.69797906664E+03  0.79539989720E+03  0.93282379222E+02 0.  0.
          2    1    3    3  502    0  0.16339523212E+02 -0.14022621969E+01 -0.12248008424E+02  0.20468514074E+02  0.00000000000E+00 0. -1.
         -1    1    3    3    0  502  0.39543993422E+02  0.18177883177E+03 -0.11012139540E+02  0.18635594520E+03  0.00000000000E+00 0.  1.
         11    1    5    5    0    0  0.14578075935E+01 -0.13327308475E+02 -0.61828111709E+02  0.63264980452E+02  0.00000000000E+00 0. -1.
        -11    1    5    5    0    0 -0.36180692777E+03 -0.37701428908E+03 -0.10909558102E+04  0.12096398666E+04  0.00000000000E+00 0.  1.
          1    1    6    6  503    0  0.50270660730E+02  0.64066834104E+02 -0.96183651999E+02  0.12602774883E+03  0.00000000000E+00 0. -1.
         -1    1    6    6    0  503  0.25419494281E+03  0.14589819388E+03 -0.60179541465E+03  0.66937214837E+03  0.00000000000E+00 0.  1.
<mgrwt>
<rscale>  0 0.12900582E+04</rscale>
<asrwt>0</asrwt>
<pdfrwt beam="1">  1        2 0.31916556E+00 0.12900582E+04</pdfrwt>
<pdfrwt beam="2">  1       -1 0.30854313E-01 0.12900582E+04</pdfrwt>
<totfact> 0.65964350E+01</totfact>
</mgrwt>
</event>
<event>
12    6  0.1538774E-007  0.2038967E+04  0.7818608E-02  0.8588616E-01
          2   -1    0    0  501    0  0.00000000000E+00  0.00000000000E+00  0.33051797004E+04  0.33051797004E+04  0.00000000000E+00 0. -1.
         -1   -1    0    0    0  501 -0.00000000000E+00 -0.00000000000E+00 -0.31445990059E+03  0.31445990059E+03  0.00000000000E+00 0.  1.
         24    2    1    2    0    0 -0.75359543515E+03 -0.11944177581E+03  0.17448484131E+04  0.19061399967E+04  0.81861375248E+02 0.  0.
        254    2    1    2    0    0  0.75359543515E+03  0.11944177581E+03  0.12458713867E+04  0.17134996043E+04  0.89538425491E+03 0.  0.
         23    2    4    4    0    0  0.22592144062E+03  0.70621608544E+02  0.11368082650E+04  0.11648526357E+04  0.92307760190E+02 0.  0.
         23    2    4    4    0    0  0.52767399453E+03  0.48820167265E+02  0.10906312175E+03  0.54864696861E+03  0.91079516920E+02 0.  0.
          2    1    3    3  502    0 -0.58869489247E+02 -0.30387095563E+01  0.19516627073E+03  0.20387428418E+03  0.00000000000E+00 0. -1.
         -1    1    3    3    0  502 -0.69472594590E+03 -0.11640306625E+03  0.15496821423E+04  0.17022657125E+04  0.00000000000E+00 0.  1.
         11    1    5    5    0    0  0.11141073733E+03  0.13386465715E+02  0.72417093694E+03  0.73281313836E+03  0.00000000000E+00 0. -1.
        -11    1    5    5    0    0  0.11451070329E+03  0.57235142829E+02  0.41263732806E+03  0.43203949732E+03  0.00000000000E+00 0.  1.
          4    1    6    6  503    0  0.43213974650E+02 -0.98631360859E+01  0.31834544952E+02  0.54572587540E+02  0.00000000000E+00 0. -1.
         -4    1    6    6    0  503  0.48446001988E+03  0.58683303350E+02  0.77228576797E+02  0.49407438107E+03  0.00000000000E+00 0.  1.
<mgrwt>
<rscale>  0 0.20389669E+04</rscale>
<asrwt>0</asrwt>
<pdfrwt beam="1">  1        2 0.50848916E+00 0.20389669E+04</pdfrwt>
<pdfrwt beam="2">  1       -1 0.48378449E-01 0.20389669E+04</pdfrwt>
<totfact> 0.49966987E+00</totfact>
</mgrwt>
</event>
<event>
12    6  0.1538774E-007  0.2190915E+04  0.7818608E-02  0.8522219E-01
         -1   -1    0    0    0  501 -0.00000000000E+00  0.00000000000E+00  0.79737365045E+03  0.79737365045E+03  0.00000000000E+00 0.  1.
          2   -1    0    0  501    0  0.00000000000E+00 -0.00000000000E+00 -0.15049741366E+04  0.15049741366E+04  0.00000000000E+00 0. -1.
         24    2    1    2    0    0 -0.16631985583E+03  0.88087174178E+03 -0.14458655237E+03  0.91161271055E+03  0.80840231274E+02 0.  0.
        254    2    1    2    0    0  0.16631985583E+03 -0.88087174178E+03 -0.56301393378E+03  0.13907350765E+04  0.90197674221E+03 0.  0.
         23    2    4    4    0    0 -0.11949753095E+03 -0.20808177446E+03  0.20286579541E+03  0.32794810273E+03  0.93902834720E+02 0.  0.
         23    2    4    4    0    0  0.28581738679E+03 -0.67278996732E+03 -0.76587972919E+03  0.10627869738E+04  0.92771080378E+02 0.  0.
          2    1    3    3  502    0 -0.10256726240E+03  0.61571736205E+03 -0.65290061695E+02  0.62760712663E+03  0.00000000000E+00 0. -1.
         -1    1    3    3    0  502 -0.63752593435E+02  0.26515437973E+03 -0.79296490680E+02  0.28400558392E+03  0.00000000000E+00 0.  1.
         11    1    5    5    0    0  0.77838396127E+01 -0.34529945929E+01  0.30497305199E+02  0.31663811444E+02  0.00000000000E+00 0.  1.
        -11    1    5    5    0    0 -0.12728137057E+03 -0.20462877987E+03  0.17236849021E+03  0.29628429128E+03  0.00000000000E+00 0. -1.
          3    1    6    6  503    0  0.26289526466E+03 -0.54023474690E+03 -0.59835794084E+03  0.84793851623E+03  0.00000000000E+00 0. -1.
         -3    1    6    6    0  503  0.22922122125E+02 -0.13255522041E+03 -0.16752178835E+03  0.21484845756E+03  0.00000000000E+00 0.  1.
<mgrwt>
<rscale>  0 0.21909146E+04</rscale>
<asrwt>0</asrwt>
<pdfrwt beam="1">  1        2 0.23153448E+00 0.21909146E+04</pdfrwt>
<pdfrwt beam="2">  1       -1 0.12267287E+00 0.21909146E+04</pdfrwt>
<totfact> 0.77065775E+00</totfact>
</mgrwt>
</event>
<event>
12    6  0.1538774E-007  0.2879693E+04  0.7818608E-02  0.8278945E-01
          2   -1    0    0  501    0  0.00000000000E+00  0.00000000000E+00  0.35397560423E+04  0.35397560423E+04  0.00000000000E+00 0. -1.
         -1   -1    0    0    0  501 -0.00000000000E+00 -0.00000000000E+00 -0.58567811665E+03  0.58567811665E+03  0.00000000000E+00 0.  1.
         24    2    1    2    0    0 -0.10752028302E+04  0.72274302133E+03  0.12905134894E+04  0.18301589633E+04  0.75087707035E+02 0.  0.
        254    2    1    2    0    0  0.10752028302E+04 -0.72274302133E+03  0.16635644362E+04  0.22952751956E+04  0.90687539892E+03 0.  0.
         23    2    4    4    0    0 -0.61245108345E+02 -0.19503997398E+03  0.63148874680E+03  0.66976262150E+03  0.89511882380E+02 0.  0.
         23    2    4    4    0    0  0.11364479385E+04 -0.52770304735E+03  0.10320756894E+04  0.16255125741E+04  0.84418461727E+02 0.  0.
          2    1    3    3  502    0 -0.63775658259E+02  0.23188533483E+02  0.63299071099E+02  0.92799865698E+02  0.00000000000E+00 0. -1.
         -1    1    3    3    0  502 -0.10114271719E+04  0.69955448785E+03  0.12272144183E+04  0.17373590976E+04  0.00000000000E+00 0.  1.
         11    1    5    5    0    0 -0.25906377462E+02 -0.98900857234E+02  0.44900474892E+03  0.46049732302E+03  0.00000000000E+00 0. -1.
        -11    1    5    5    0    0 -0.35338730883E+02 -0.96139116747E+02  0.18248399788E+03  0.20926529849E+03  0.00000000000E+00 0.  1.
          2    1    6    6  503    0  0.10802375214E+04 -0.48033852224E+03  0.97659190069E+03  0.15334177314E+04  0.00000000000E+00 0. -1.
         -2    1    6    6    0  503  0.56210417142E+02 -0.47364525114E+02  0.55483788733E+02  0.92094842671E+02  0.00000000000E+00 0.  1.
<mgrwt>
<rscale>  0 0.28796928E+04</rscale>
<asrwt>0</asrwt>
<pdfrwt beam="1">  1        2 0.54457784E+00 0.28796928E+04</pdfrwt>
<pdfrwt beam="2">  1       -1 0.90104328E-01 0.28796928E+04</pdfrwt>
<totfact> 0.90178097E-01</totfact>
</mgrwt>
</event>
<event>
12    6  0.1538774E-007  0.1261220E+04  0.7818608E-02  0.9060896E-01
          2   -1    0    0  501    0  0.00000000000E+00  0.00000000000E+00  0.27688073365E+04  0.27688073365E+04  0.00000000000E+00 0. -1.
         -1   -1    0    0    0  501 -0.00000000000E+00 -0.00000000000E+00 -0.14362466961E+03  0.14362466961E+03  0.00000000000E+00 0.  1.
         24    2    1    2    0    0 -0.21689248875E+03 -0.41570150261E+02  0.11123980624E+04  0.11370391575E+04  0.81597593343E+02 0.  0.
        254    2    1    2    0    0  0.21689248875E+03  0.41570150261E+02  0.15127846044E+04  0.17753928486E+04  0.90262510406E+03 0.  0.
         23    2    4    4    0    0  0.96553320148E+02 -0.22626880864E+03  0.33073577782E+02  0.26395870394E+03  0.89778719349E+02 0.  0.
         23    2    4    4    0    0  0.12033916860E+03  0.26783895890E+03  0.14797110266E+04  0.15114341447E+04  0.93108688751E+02 0.  0.
          2    1    3    3  502    0 -0.16178736226E+03 -0.50165793941E+02  0.66739752368E+03  0.68855734118E+03  0.00000000000E+00 0. -1.
         -1    1    3    3    0  502 -0.55105126486E+02  0.85956436795E+01  0.44500053875E+03  0.44848181629E+03  0.00000000000E+00 0.  1.
         11    1    5    5    0    0  0.15704573604E+01  0.60711702936E+01 -0.74125519991E+01  0.97093445811E+01  0.00000000000E+00 0.  1.
        -11    1    5    5    0    0  0.94982862787E+02 -0.23233997893E+03  0.40486129781E+02  0.25424935936E+03  0.00000000000E+00 0. -1.
          3    1    6    6  503    0  0.38817291636E+02  0.15927287419E+03  0.97959698117E+03  0.99321945012E+03  0.00000000000E+00 0. -1.
         -3    1    6    6    0  503  0.81521876965E+02  0.10856608471E+03  0.50011404547E+03  0.51821469455E+03  0.00000000000E+00 0.  1.
<mgrwt>
<rscale>  0 0.12612201E+04</rscale>
<asrwt>0</asrwt>
<pdfrwt beam="1">  1        2 0.42597032E+00 0.12612201E+04</pdfrwt>
<pdfrwt beam="2">  1       -1 0.22096105E-01 0.12612201E+04</pdfrwt>
<totfact> 0.47154752E+01</totfact>
</mgrwt>
</event>
<event>
12    6  0.1538774E-007  0.1362200E+04  0.7818608E-02  0.8981644E-01
         -1   -1    0    0    0  501 -0.00000000000E+00  0.00000000000E+00  0.60745514792E+03  0.60745514792E+03  0.00000000000E+00 0.  1.
          2   -1    0    0  501    0  0.00000000000E+00 -0.00000000000E+00 -0.76367346832E+03  0.76367346832E+03  0.00000000000E+00 0. -1.
         24    2    1    2    0    0 -0.25054152474E+03 -0.86294444983E+02 -0.31115350976E+03  0.41642128099E+03  0.79827249541E+02 0.  0.
        254    2    1    2    0    0  0.25054152474E+03  0.86294444983E+02  0.15493518936E+03  0.95470733525E+03  0.90401515265E+03 0.  0.
         23    2    4    4    0    0 -0.14471130366E+03 -0.16409220104E+03 -0.23874174727E+03  0.33631205358E+03  0.90777550344E+02 0.  0.
         23    2    4    4    0    0  0.39525282841E+03  0.25038664602E+03  0.39367693663E+03  0.61839528166E+03  0.92265503189E+02 0.  0.
          2    1    3    3  502    0 -0.99380849522E+02 -0.58946055631E+02 -0.18272267353E+03  0.21619150341E+03  0.00000000000E+00 0. -1.
         -1    1    3    3    0  502 -0.15116067522E+03 -0.27348389353E+02 -0.12843083623E+03  0.20022977758E+03  0.00000000000E+00 0.  1.
         11    1    5    5    0    0 -0.12741696493E+03 -0.12142261217E+03 -0.22971953794E+03  0.28939523114E+03  0.00000000000E+00 0. -1.
        -11    1    5    5    0    0 -0.17294338737E+02 -0.42669588869E+02 -0.90222093294E+01  0.46916822439E+02  0.00000000000E+00 0.  1.
          3    1    6    6  503    0  0.93390292232E+02  0.54458135811E+02  0.44326352950E+02  0.11684288941E+03  0.00000000000E+00 0.  1.
         -3    1    6    6    0  503  0.30186253617E+03  0.19592851021E+03  0.34935058368E+03  0.50155239226E+03  0.00000000000E+00 0. -1.
<mgrwt>
<rscale>  0 0.13622002E+04</rscale>
<asrwt>0</asrwt>
<pdfrwt beam="1">  1        2 0.11748823E+00 0.13622002E+04</pdfrwt>
<pdfrwt beam="2">  1       -1 0.93454638E-01 0.13622002E+04</pdfrwt>
<totfact> 0.45363886E+01</totfact>
</mgrwt>
</event>
<event>
12    6  0.1538774E-007  0.2019868E+04  0.7818608E-02  0.8597388E-01
          2   -1    0    0  501    0  0.00000000000E+00  0.00000000000E+00  0.22982868552E+04  0.22982868552E+04  0.00000000000E+00 0. -1.
         -1   -1    0    0    0  501 -0.00000000000E+00 -0.00000000000E+00 -0.44379412800E+03  0.44379412800E+03  0.00000000000E+00 0.  1.
         24    2    1    2    0    0  0.16644413399E+03 -0.34747108918E+03 -0.21961103327E+03  0.45066491565E+03  0.80187609437E+02 0.  0.
        254    2    1    2    0    0 -0.16644413399E+03  0.34747108918E+03  0.20741037604E+04  0.22914160675E+04  0.89456211515E+03 0.  0.
         23    2    4    4    0    0  0.64682436846E+02 -0.83949585031E+02  0.15928374941E+04  0.15989802010E+04  0.91515299641E+02 0.  0.
         23    2    4    4    0    0 -0.23112657083E+03  0.43142067421E+03  0.48126626636E+03  0.69243586655E+03  0.91142307795E+02 0.  0.
          2    1    3    3  502    0  0.23636669219E+02 -0.12473725289E+03 -0.92827529607E+02  0.15727372522E+03  0.00000000000E+00 0. -1.
         -1    1    3    3    0  502  0.14280746477E+03 -0.22273383629E+03 -0.12678350366E+03  0.29339119043E+03  0.00000000000E+00 0.  1.
         11    1    5    5    0    0 -0.10899457360E+02 -0.29256505083E+02  0.81025495422E+03  0.81085623393E+03  0.00000000000E+00 0.  1.
        -11    1    5    5    0    0  0.75581894206E+02 -0.54693079948E+02  0.78258253985E+03  0.78812396703E+03  0.00000000000E+00 0. -1.
          2    1    6    6  503    0 -0.20810075489E+03  0.31322453150E+03  0.34178809143E+03  0.50816791592E+03  0.00000000000E+00 0. -1.
         -2    1    6    6    0  503 -0.23025815944E+02  0.11819614271E+03  0.13947817492E+03  0.18426795063E+03  0.00000000000E+00 0.  1.
<mgrwt>
<rscale>  0 0.20198675E+04</rscale>
<asrwt>0</asrwt>
<pdfrwt beam="1">  1        2 0.35358259E+00 0.20198675E+04</pdfrwt>
<pdfrwt beam="2">  1       -1 0.68276021E-01 0.20198675E+04</pdfrwt>
<totfact> 0.10419838E+01</totfact>
</mgrwt>
</event>
<event>
12    6  0.1538774E-007  0.1152959E+04  0.7818608E-02  0.9155058E-01
         -1   -1    0    0    0  501 -0.00000000000E+00  0.00000000000E+00  0.45845695430E+03  0.45845695430E+03  0.00000000000E+00 0.  1.
          2   -1    0    0  501    0  0.00000000000E+00 -0.00000000000E+00 -0.72488566081E+03  0.72488566081E+03  0.00000000000E+00 0. -1.
         24    2    1    2    0    0 -0.13893117377E+02 -0.13281634810E+03  0.15814972778E+02  0.15664670608E+03  0.80342243752E+02 0.  0.
        254    2    1    2    0    0  0.13893117377E+02  0.13281634810E+03 -0.28224367929E+03  0.10266959090E+04  0.97806430978E+03 0.  0.
         23    2    4    4    0    0 -0.18784737537E+03  0.18964559790E+03 -0.58342293545E+03  0.64804206643E+03  0.91236555323E+02 0.  0.
         23    2    4    4    0    0  0.20174049274E+03 -0.56829249808E+02  0.30117925616E+03  0.37865384259E+03  0.93493305230E+02 0.  0.
          2    1    3    3  502    0  0.16100214660E+02 -0.18511967170E+02 -0.21603870671E+02  0.32690014814E+02  0.00000000000E+00 0. -1.
         -1    1    3    3    0  502 -0.29993332037E+02 -0.11430438093E+03  0.37418843448E+02  0.12395669127E+03  0.00000000000E+00 0.  1.
         11    1    5    5    0    0 -0.81672434591E+02  0.10144923067E+03 -0.18389711652E+03  0.22534525165E+03  0.00000000000E+00 0. -1.
        -11    1    5    5    0    0 -0.10617494078E+03  0.88196367232E+02 -0.39952581893E+03  0.42269681479E+03  0.00000000000E+00 0.  1.
          4    1    6    6  503    0  0.12127740666E+03 -0.73317423669E+02  0.22903293995E+03  0.26933202848E+03  0.00000000000E+00 0.  1.
         -4    1    6    6    0  503  0.80463086083E+02  0.16488173861E+02  0.72146316203E+02  0.10932181411E+03  0.00000000000E+00 0. -1.
<mgrwt>
<rscale>  0 0.11529594E+04</rscale>
<asrwt>0</asrwt>
<pdfrwt beam="1">  1        2 0.11152087E+00 0.11529594E+04</pdfrwt>
<pdfrwt beam="2">  1       -1 0.70531839E-01 0.11529594E+04</pdfrwt>
<totfact> 0.89999324E+01</totfact>
</mgrwt>
</event>
<event>
12    6  0.1538774E-007  0.2089213E+04  0.7818608E-02  0.8566010E-01
         -1   -1    0    0    0  501 -0.00000000000E+00  0.00000000000E+00  0.15201750274E+04  0.15201750274E+04  0.00000000000E+00 0.  1.
          2   -1    0    0  501    0  0.00000000000E+00 -0.00000000000E+00 -0.71781413119E+03  0.71781413119E+03  0.00000000000E+00 0. -1.
         24    2    1    2    0    0  0.45585927479E+03 -0.54403745433E+03 -0.16431433492E+03  0.73329387165E+03  0.83284280730E+02 0.  0.
        254    2    1    2    0    0 -0.45585927479E+03  0.54403745433E+03  0.96667523118E+03  0.15046952870E+04  0.90876975849E+03 0.  0.
         23    2    4    4    0    0  0.19791778891E+03  0.42704209132E+03  0.34740922183E+03  0.59225419300E+03  0.92387568395E+02 0.  0.
         23    2    4    4    0    0 -0.65377706371E+03  0.11699536301E+03  0.61926600935E+03  0.91244109397E+03  0.89140314330E+02 0.  0.
          4    1    3    3  502    0  0.24293950480E+03 -0.24221320740E+03 -0.10802602362E+03  0.35966159457E+03  0.00000000000E+00 0. -1.
         -3    1    3    3    0  502  0.21291977000E+03 -0.30182424693E+03 -0.56288311305E+02  0.37363227708E+03  0.00000000000E+00 0.  1.
         11    1    5    5    0    0  0.11903896721E+02  0.65153928062E+00  0.47286576063E+00  0.11931088073E+02  0.00000000000E+00 0. -1.
        -11    1    5    5    0    0  0.18601389219E+03  0.42639055204E+03  0.34693635607E+03  0.58032310493E+03  0.00000000000E+00 0.  1.
          3    1    6    6  503    0 -0.11678462130E+02 -0.14148702332E+01  0.32631961837E+02  0.34687652974E+02  0.00000000000E+00 0. -1.
         -3    1    6    6    0  503 -0.64209860158E+03  0.11841023325E+03  0.58663404751E+03  0.87775344100E+03  0.00000000000E+00 0.  1.
<mgrwt>
<rscale>  0 0.20892134E+04</rscale>
<asrwt>0</asrwt>
<pdfrwt beam="1">  1        2 0.11043294E+00 0.20892134E+04</pdfrwt>
<pdfrwt beam="2">  1       -1 0.23387308E+00 0.20892134E+04</pdfrwt>
<totfact> 0.37167480E+00</totfact>
</mgrwt>
</event>
<event>
12    6  0.1538774E-007  0.1647717E+04  0.7818608E-02  0.8791758E-01
          2   -1    0    0  501    0  0.00000000000E+00  0.00000000000E+00  0.13927782777E+04  0.13927782777E+04  0.00000000000E+00 0. -1.
         -1   -1    0    0    0  501 -0.00000000000E+00 -0.00000000000E+00 -0.48733018910E+03  0.48733018910E+03  0.00000000000E+00 0.  1.
         24    2    1    2    0    0 -0.40830103039E+03 -0.17375417869E+03 -0.64343574177E+02  0.45543237930E+03  0.79864325880E+02 0.  0.
        254    2    1    2    0    0  0.40830103039E+03  0.17375417869E+03  0.96979166282E+03  0.14246760875E+04  0.94461941495E+03 0.  0.
         23    2    4    4    0    0 -0.19616017089E+03 -0.21880689780E+03  0.20072462944E+03  0.36671503616E+03  0.88511410086E+02 0.  0.
         23    2    4    4    0    0  0.60446120128E+03  0.39256107649E+03  0.76906703339E+03  0.10579610514E+04  0.91323281659E+02 0.  0.
          2    1    3    3  502    0 -0.40804775661E+03 -0.17712958281E+03 -0.68493673334E+02  0.45007693127E+03  0.00000000000E+00 0. -1.
         -1    1    3    3    0  502 -0.25327378548E+00  0.33754041194E+01  0.41500991573E+01  0.53554480293E+01  0.00000000000E+00 0.  1.
         11    1    5    5    0    0  0.67265566889E+01 -0.29979557121E+01 -0.21785951618E+01  0.76798815238E+01  0.00000000000E+00 0.  1.
        -11    1    5    5    0    0 -0.20288672757E+03 -0.21580894209E+03  0.20290322460E+03  0.35903515463E+03  0.00000000000E+00 0. -1.
          3    1    6    6  503    0  0.14453923068E+03  0.61645308835E+02  0.20680241219E+03  0.25972864878E+03  0.00000000000E+00 0.  1.
         -3    1    6    6    0  503  0.45992197059E+03  0.33091576766E+03  0.56226462120E+03  0.79823240261E+03  0.00000000000E+00 0. -1.
<mgrwt>
<rscale>  0 0.16477171E+04</rscale>
<asrwt>0</asrwt>
<pdfrwt beam="1">  1        2 0.21427358E+00 0.16477171E+04</pdfrwt>
<pdfrwt beam="2">  1       -1 0.74973876E-01 0.16477171E+04</pdfrwt>
<totfact> 0.28464600E+01</totfact>
</mgrwt>
</event>
<event>
12    6  0.1538774E-007  0.2726610E+04  0.7818608E-02  0.8326422E-01
         -1   -1    0    0    0  501 -0.00000000000E+00  0.00000000000E+00  0.11299403699E+04  0.11299403699E+04  0.00000000000E+00 0.  1.
          2   -1    0    0  501    0  0.00000000000E+00 -0.00000000000E+00 -0.16448665268E+04  0.16448665268E+04  0.00000000000E+00 0. -1.
         24    2    1    2    0    0 -0.57824396561E+03  0.87059704415E+03  0.38953065903E+03  0.11183965257E+04  0.82288256899E+02 0.  0.
        254    2    1    2    0    0  0.57824396561E+03 -0.87059704415E+03 -0.90445681594E+03  0.16564103711E+04  0.91287890133E+03 0.  0.
         23    2    4    4    0    0  0.80850430267E+03 -0.60061477464E+03 -0.74838663105E+03  0.12581585031E+04  0.91994316772E+02 0.  0.
         23    2    4    4    0    0 -0.23026033706E+03 -0.26998226951E+03 -0.15607018489E+03  0.39825186803E+03  0.91303883313E+02 0.  0.
          2    1    3    3  502    0 -0.23786104093E+03  0.32046685515E+03  0.11243061595E+03  0.41462938082E+03  0.00000000000E+00 0. -1.
         -1    1    3    3    0  502 -0.34038292468E+03  0.55013018900E+03  0.27710004308E+03  0.70376714483E+03  0.00000000000E+00 0.  1.
         11    1    5    5    0    0  0.62960073854E+03 -0.41800483430E+03 -0.56095925701E+03  0.94116970813E+03  0.00000000000E+00 0.  1.
        -11    1    5    5    0    0  0.17890356413E+03 -0.18260994034E+03 -0.18742737404E+03  0.31698879493E+03  0.00000000000E+00 0. -1.
          2    1    6    6  503    0 -0.62232299592E+01  0.34818927870E-01 -0.21647266793E+02  0.22524075188E+02  0.00000000000E+00 0. -1.
         -2    1    6    6    0  503 -0.22403710710E+03 -0.27001708844E+03 -0.13442291809E+03  0.37572779284E+03  0.00000000000E+00 0.  1.
<mgrwt>
<rscale>  0 0.27266104E+04</rscale>
<asrwt>0</asrwt>
<pdfrwt beam="1">  1        2 0.25305639E+00 0.27266104E+04</pdfrwt>
<pdfrwt beam="2">  1       -1 0.17383698E+00 0.27266104E+04</pdfrwt>
<totfact> 0.24197166E+00</totfact>
</mgrwt>
</event>
<event>
12    6  0.1538774E-007  0.1520551E+04  0.7818608E-02  0.8870900E-01
         -1   -1    0    0    0  501 -0.00000000000E+00  0.00000000000E+00  0.25249727830E+03  0.25249727830E+03  0.00000000000E+00 0.  1.
          2   -1    0    0  501    0  0.00000000000E+00 -0.00000000000E+00 -0.22892088124E+04  0.22892088124E+04  0.00000000000E+00 0. -1.
         24    2    1    2    0    0  0.26396697590E+03 -0.18692690557E+03 -0.13845844221E+04  0.14241119097E+04  0.80002982731E+02 0.  0.
        254    2    1    2    0    0 -0.26396697590E+03  0.18692690557E+03 -0.65212711209E+03  0.11175941810E+04  0.84801341422E+03 0.  0.
         23    2    4    4    0    0 -0.37147081540E+03 -0.94474358245E+02 -0.45340065177E+00  0.39417068254E+03  0.91947541258E+02 0.  0.
         23    2    4    4    0    0  0.10750383949E+03  0.28140126381E+03 -0.65167371144E+03  0.72342349847E+03  0.88989803763E+02 0.  0.
          2    1    3    3  502    0  0.11986137683E+03 -0.77136798941E+02 -0.78197804998E+03  0.79486257055E+03  0.00000000000E+00 0. -1.
         -1    1    3    3    0  502  0.14410559907E+03 -0.10979010663E+03 -0.60260637207E+03  0.62924933918E+03  0.00000000000E+00 0.  1.
         11    1    5    5    0    0 -0.29047587801E+03 -0.80914651753E+02  0.37212562836E+02  0.30382263149E+03  0.00000000000E+00 0.  1.
        -11    1    5    5    0    0 -0.80994937388E+02 -0.13559706492E+02 -0.37665963488E+02  0.90348051047E+02  0.00000000000E+00 0. -1.
          1    1    6    6  503    0 -0.10218510873E+01  0.86765611591E+02 -0.24160768415E+03  0.25671694252E+03  0.00000000000E+00 0. -1.
         -1    1    6    6    0  503  0.10852569058E+03  0.19463565222E+03 -0.41006602728E+03  0.46670655595E+03  0.00000000000E+00 0.  1.
<mgrwt>
<rscale>  0 0.15205512E+04</rscale>
<asrwt>0</asrwt>
<pdfrwt beam="1">  1        2 0.35218599E+00 0.15205512E+04</pdfrwt>
<pdfrwt beam="2">  1       -1 0.38845733E-01 0.15205512E+04</pdfrwt>
<totfact> 0.32509077E+01</totfact>
</mgrwt>
</event>
<event>
12    6  0.1538774E-007  0.1264530E+04  0.7818608E-02  0.9058176E-01
          2   -1    0    0  501    0  0.00000000000E+00  0.00000000000E+00  0.13077151785E+04  0.13077151785E+04  0.00000000000E+00 0. -1.
         -1   -1    0    0    0  501 -0.00000000000E+00 -0.00000000000E+00 -0.30569276887E+03  0.30569276887E+03  0.00000000000E+00 0.  1.
         24    2    1    2    0    0 -0.73749030584E+02 -0.13455202577E+02 -0.12630712078E+03  0.16803910476E+03  0.81631427647E+02 0.  0.
        254    2    1    2    0    0  0.73749030584E+02  0.13455202577E+02  0.11283295304E+04  0.14453688426E+04  0.90019086865E+03 0.  0.
         23    2    4    4    0    0  0.20742900135E+03  0.13417122396E+03  0.12018641021E+04  0.12301283999E+04  0.87805765765E+02 0.  0.
         23    2    4    4    0    0 -0.13367997077E+03 -0.12071602138E+03 -0.73534571669E+02  0.21524044269E+03  0.92078349977E+02 0.  0.
          4    1    3    3  502    0  0.11059933876E+02  0.14521430812E+02 -0.83066992550E+01  0.20054808468E+02  0.00000000000E+00 0. -1.
         -3    1    3    3    0  502 -0.84808964460E+02 -0.27976633389E+02 -0.11800042152E+03  0.14798429629E+03  0.00000000000E+00 0.  1.
         11    1    5    5    0    0  0.61894697367E+02 -0.21114718210E+01  0.32950371110E+03  0.33527318340E+03  0.00000000000E+00 0.  1.
        -11    1    5    5    0    0  0.14553430398E+03  0.13628269578E+03  0.87236039095E+03  0.89485521650E+03  0.00000000000E+00 0. -1.
          2    1    6    6  503    0 -0.36925829631E+02 -0.86209423380E+02 -0.96680695029E+01  0.94281775235E+02  0.00000000000E+00 0. -1.
         -2    1    6    6    0  503 -0.96754141138E+02 -0.34506598003E+02 -0.63866502166E+02  0.12095866745E+03  0.00000000000E+00 0.  1.
<mgrwt>
<rscale>  0 0.12645301E+04</rscale>
<asrwt>0</asrwt>
<pdfrwt beam="1">  1        2 0.20118695E+00 0.12645301E+04</pdfrwt>
<pdfrwt beam="2">  1       -1 0.47029657E-01 0.12645301E+04</pdfrwt>
<totfact> 0.82572283E+01</totfact>
</mgrwt>
</event>
<event>
12    6  0.1538774E-007  0.2099938E+04  0.7818608E-02  0.8561271E-01
         -3   -1    0    0    0  501 -0.00000000000E+00  0.00000000000E+00  0.53553073368E+03  0.53553073368E+03  0.00000000000E+00 0.  1.
          2   -1    0    0  501    0  0.00000000000E+00 -0.00000000000E+00 -0.20585844826E+04  0.20585844826E+04  0.00000000000E+00 0. -1.
         24    2    1    2    0    0 -0.36065209784E+03 -0.13523903272E+03 -0.15431579462E+04  0.15925308667E+04  0.80365308533E+02 0.  0.
        254    2    1    2    0    0  0.36065209784E+03  0.13523903272E+03  0.20104197233E+02  0.10015843496E+04  0.92434165709E+03 0.  0.
         23    2    4    4    0    0  0.32642635316E+03  0.15681211111E+03 -0.41185862072E+03  0.55596465875E+03  0.91241306936E+02 0.  0.
         23    2    4    4    0    0  0.34225744674E+02 -0.21573078390E+02  0.43196281795E+03  0.44561969088E+03  0.10172626750E+03 0.  0.
          2    1    3    3  502    0 -0.17908581238E+03 -0.73121113226E+02 -0.93559144282E+03  0.95537938708E+03  0.00000000000E+00 0. -1.
         -1    1    3    3    0  502 -0.18156628546E+03 -0.62117919493E+02 -0.60756650334E+03  0.63715147957E+03  0.00000000000E+00 0.  1.
         11    1    5    5    0    0  0.12916797797E+03  0.93748871095E+02 -0.23243512517E+03  0.28195621075E+03  0.00000000000E+00 0.  1.
        -11    1    5    5    0    0  0.19725837519E+03  0.63063240015E+02 -0.17942349555E+03  0.27400844801E+03  0.00000000000E+00 0. -1.
          2    1    6    6  503    0  0.10550925465E+02 -0.29293781986E+02  0.41337357008E+03  0.41454451646E+03  0.00000000000E+00 0. -1.
         -2    1    6    6    0  503  0.23674819209E+02  0.77207035952E+01  0.18589247874E+02  0.31075174418E+02  0.00000000000E+00 0.  1.
<mgrwt>
<rscale>  0 0.20999383E+04</rscale>
<asrwt>0</asrwt>
<pdfrwt beam="1">  1        2 0.31670531E+00 0.20999383E+04</pdfrwt>
<pdfrwt beam="2">  1       -3 0.82389343E-01 0.20999383E+04</pdfrwt>
<totfact> 0.49709638E+00</totfact>
</mgrwt>
</event>
<event>
12    6  0.1538774E-007  0.1277862E+04  0.7818608E-02  0.9047307E-01
         -1   -1    0    0    0  501 -0.00000000000E+00  0.00000000000E+00  0.51895440566E+03  0.51895440566E+03  0.00000000000E+00 0.  1.
          2   -1    0    0  501    0  0.00000000000E+00 -0.00000000000E+00 -0.78664497786E+03  0.78664497786E+03  0.00000000000E+00 0. -1.
         24    2    1    2    0    0 -0.12050298441E+03 -0.26888091362E+03 -0.11373395562E+03  0.32566087746E+03  0.79383118392E+02 0.  0.
        254    2    1    2    0    0  0.12050298441E+03  0.26888091362E+03 -0.15395661658E+03  0.97993850606E+03  0.92182369296E+03 0.  0.
         23    2    4    4    0    0 -0.37487284166E+03  0.90418829788E+02 -0.19966800201E+03  0.44362029467E+03  0.90699738817E+02 0.  0.
         23    2    4    4    0    0  0.49537582607E+03  0.17846208384E+03  0.45711385436E+02  0.53631821139E+03  0.91114042238E+02 0.  0.
          4    1    3    3  502    0 -0.46256250962E+02 -0.98426177284E+02 -0.83908304177E+02  0.13736068083E+03  0.00000000000E+00 0. -1.
         -3    1    3    3    0  502 -0.74246733450E+02 -0.17045473634E+03 -0.29825651445E+02  0.18830019664E+03  0.00000000000E+00 0.  1.
         11    1    5    5    0    0 -0.13020799889E+03  0.61163385056E+02 -0.37595290574E+02  0.14868923471E+03  0.00000000000E+00 0. -1.
        -11    1    5    5    0    0 -0.24466484277E+03  0.29255444732E+02 -0.16207271144E+03  0.29493105996E+03  0.00000000000E+00 0.  1.
          3    1    6    6  503    0  0.32904187375E+03  0.10536587009E+03 -0.11932578010E+02  0.34570638941E+03  0.00000000000E+00 0. -1.
         -3    1    6    6    0  503  0.16633395232E+03  0.73096213745E+02  0.57643963446E+02  0.19061182198E+03  0.00000000000E+00 0.  1.
<mgrwt>
<rscale>  0 0.12778621E+04</rscale>
<asrwt>0</asrwt>
<pdfrwt beam="1">  1        2 0.12102230E+00 0.12778621E+04</pdfrwt>
<pdfrwt beam="2">  1       -1 0.79839139E-01 0.12778621E+04</pdfrwt>
<totfact> 0.61876844E+01</totfact>
</mgrwt>
</event>
<event>
12    6  0.1538774E-007  0.1293767E+04  0.7818608E-02  0.9034522E-01
         -1   -1    0    0    0  501 -0.00000000000E+00  0.00000000000E+00  0.23327026896E+03  0.23327026896E+03  0.00000000000E+00 0.  1.
          2   -1    0    0  501    0  0.00000000000E+00 -0.00000000000E+00 -0.17938785701E+04  0.17938785701E+04  0.00000000000E+00 0. -1.
         24    2    1    2    0    0  0.30378187040E+03  0.42308857971E+02 -0.23756027664E+03  0.39615513613E+03  0.80190664053E+02 0.  0.
        254    2    1    2    0    0 -0.30378187040E+03 -0.42308857971E+02 -0.13230480245E+04  0.16309937029E+04  0.90311179795E+03 0.  0.
         23    2    4    4    0    0 -0.58935572879E+03 -0.99873819130E+02 -0.10926129258E+04  0.12485613768E+04  0.88247102289E+02 0.  0.
         23    2    4    4    0    0  0.28557385839E+03  0.57564961159E+02 -0.23043509868E+03  0.38243232617E+03  0.91038431670E+02 0.  0.
          2    1    3    3  502    0  0.26732544847E+03  0.39501039860E+02 -0.23723669229E+03  0.35958931536E+03  0.00000000000E+00 0. -1.
         -1    1    3    3    0  502  0.36456421924E+02  0.28078181113E+01 -0.32358435218E+00  0.36565820774E+02  0.00000000000E+00 0.  1.
         11    1    5    5    0    0 -0.53378602613E+03 -0.11100991595E+03 -0.95387207510E+03  0.10986913392E+04  0.00000000000E+00 0. -1.
        -11    1    5    5    0    0 -0.55569702654E+02  0.11136096816E+02 -0.13874085072E+03  0.14987003758E+03  0.00000000000E+00 0.  1.
          3    1    6    6  503    0  0.29000582088E+03  0.47076922065E+02 -0.22091900790E+03  0.36759328174E+03  0.00000000000E+00 0. -1.
         -3    1    6    6    0  503 -0.44319624838E+01  0.10488039094E+02 -0.95160907856E+01  0.14839044421E+02  0.00000000000E+00 0.  1.
<mgrwt>
<rscale>  0 0.12937674E+04</rscale>
<asrwt>0</asrwt>
<pdfrwt beam="1">  1        2 0.27598132E+00 0.12937674E+04</pdfrwt>
<pdfrwt beam="2">  1       -1 0.35887734E-01 0.12937674E+04</pdfrwt>
<totfact> 0.72074500E+01</totfact>
</mgrwt>
</event>
<event>
12    6  0.1538774E-007  0.1591063E+04  0.7818608E-02  0.8826057E-01
          4   -1    0    0  501    0  0.00000000000E+00  0.00000000000E+00  0.20951415402E+04  0.20951415402E+04  0.00000000000E+00 0. -1.
         -1   -1    0    0    0  501 -0.00000000000E+00 -0.00000000000E+00 -0.30206586528E+03  0.30206586528E+03  0.00000000000E+00 0.  1.
         24    2    1    2    0    0 -0.94496349496E+01  0.10315045487E+03 -0.17373963514E+03  0.21778148918E+03  0.80709381550E+02 0.  0.
        254    2    1    2    0    0  0.94496349496E+01 -0.10315045487E+03  0.19668153100E+04  0.21794259163E+04  0.93316962487E+03 0.  0.
         23    2    4    4    0    0  0.26971596348E+03  0.92999844871E+02  0.17521155338E+04  0.17775204272E+04  0.90963472457E+02 0.  0.
         23    2    4    4    0    0 -0.26026632853E+03 -0.19615029975E+03  0.21469977623E+03  0.40190548904E+03  0.96013157175E+02 0.  0.
          2    1    3    3  502    0 -0.39127981128E+02  0.38951115621E+02 -0.46402641037E+02  0.72120686426E+02  0.00000000000E+00 0. -1.
         -1    1    3    3    0  502  0.29678346178E+02  0.64199339253E+02 -0.12733699410E+03  0.14566080276E+03  0.00000000000E+00 0.  1.
         11    1    5    5    0    0  0.77942847005E+02  0.51813120652E+02  0.37484391153E+03  0.38635171138E+03  0.00000000000E+00 0.  1.
        -11    1    5    5    0    0  0.19177311647E+03  0.41186724219E+02  0.13772716223E+04  0.13911687158E+04  0.00000000000E+00 0. -1.
          4    1    6    6  503    0 -0.63864867289E+02 -0.56898646218E+02  0.10432033528E+02  0.86168466035E+02  0.00000000000E+00 0. -1.
         -4    1    6    6    0  503 -0.19640146124E+03 -0.13925165353E+03  0.20426774270E+03  0.31573702300E+03  0.00000000000E+00 0.  1.
<mgrwt>
<rscale>  0 0.15910635E+04</rscale>
<asrwt>0</asrwt>
<pdfrwt beam="1">  1        4 0.32232946E+00 0.15910635E+04</pdfrwt>
<pdfrwt beam="2">  1       -1 0.46471673E-01 0.15910635E+04</pdfrwt>
<totfact> 0.40249055E-01</totfact>
</mgrwt>
</event>
<event>
12    6  0.1538774E-007  0.2428153E+04  0.7818608E-02  0.8429038E-01
          2   -1    0    0  501    0  0.00000000000E+00  0.00000000000E+00  0.24274089856E+04  0.24274089856E+04  0.00000000000E+00 0. -1.
         -1   -1    0    0    0  501 -0.00000000000E+00 -0.00000000000E+00 -0.60722431804E+03  0.60722431804E+03  0.00000000000E+00 0.  1.
         24    2    1    2    0    0  0.96542042954E+03  0.19421224720E+03  0.12309538631E+04  0.15783515865E+04  0.78684909093E+02 0.  0.
        254    2    1    2    0    0 -0.96542042954E+03 -0.19421224720E+03  0.58923080444E+03  0.14562817171E+04  0.89655367705E+03 0.  0.
         23    2    4    4    0    0  0.76642020652E+02  0.15586464127E+03  0.21470565816E+03  0.29122995531E+03  0.92458539318E+02 0.  0.
         23    2    4    4    0    0 -0.10420624502E+04 -0.35007688847E+03  0.37452514628E+03  0.11650517618E+04  0.92889958776E+02 0.  0.
          4    1    3    3  502    0  0.81894077272E+03  0.13938752349E+03  0.10581423759E+04  0.13452725221E+04  0.00000000000E+00 0. -1.
         -3    1    3    3    0  502  0.14647965682E+03  0.54824723704E+02  0.17281148718E+03  0.23307906446E+03  0.00000000000E+00 0.  1.
         11    1    5    5    0    0  0.52295722508E+01 -0.12679311524E+02  0.14772300836E+02  0.20157733966E+02  0.00000000000E+00 0. -1.
        -11    1    5    5    0    0  0.71412448401E+02  0.16854395280E+03  0.19993335733E+03  0.27107222134E+03  0.00000000000E+00 0.  1.
          4    1    6    6  503    0 -0.42754243654E+03 -0.18275353573E+03  0.18663148636E+03  0.50102165778E+03  0.00000000000E+00 0.  1.
         -4    1    6    6    0  503 -0.61452001365E+03 -0.16732335274E+03  0.18789365991E+03  0.66403010397E+03  0.00000000000E+00 0. -1.
<mgrwt>
<rscale>  0 0.24281530E+04</rscale>
<asrwt>0</asrwt>
<pdfrwt beam="1">  1        2 0.37344753E+00 0.24281530E+04</pdfrwt>
<pdfrwt beam="2">  1       -1 0.93419127E-01 0.24281530E+04</pdfrwt>
<totfact> 0.43497310E+00</totfact>
</mgrwt>
</event>
<event>
12    6  0.1538774E-007  0.1781925E+04  0.7818608E-02  0.8715971E-01
          2   -1    0    0  501    0  0.00000000000E+00  0.00000000000E+00  0.11607690861E+04  0.11607690861E+04  0.00000000000E+00 0. -1.
         -1   -1    0    0    0  501 -0.00000000000E+00 -0.00000000000E+00 -0.68386882185E+03  0.68386882185E+03  0.00000000000E+00 0.  1.
         24    2    1    2    0    0  0.52024089615E+03 -0.31491993639E+03  0.48658258617E+03  0.78293222622E+03  0.79969377451E+02 0.  0.
        254    2    1    2    0    0 -0.52024089615E+03  0.31491993639E+03 -0.96823219418E+01  0.10617056817E+04  0.87022988391E+03 0.  0.
         23    2    4    4    0    0 -0.28479193556E+03  0.58877718726E+03  0.11163322478E+03  0.66999351218E+03  0.93082257637E+02 0.  0.
         23    2    4    4    0    0 -0.23544896059E+03 -0.27385725087E+03 -0.12131554673E+03  0.39171216953E+03  0.91032713814E+02 0.  0.
          2    1    3    3  502    0  0.51487727858E+03 -0.30544261686E+03  0.46251066603E+03  0.75651167895E+03  0.00000000000E+00 0. -1.
         -1    1    3    3    0  502  0.53636175670E+01 -0.94773195274E+01  0.24071920144E+02  0.26420547274E+02  0.00000000000E+00 0.  1.
         11    1    5    5    0    0 -0.27323846011E+03  0.57826401986E+03  0.12219448657E+03  0.65113748570E+03  0.00000000000E+00 0. -1.
        -11    1    5    5    0    0 -0.11553475457E+02  0.10513167404E+02 -0.10561261782E+02  0.18856026475E+02  0.00000000000E+00 0.  1.
          1    1    6    6  503    0 -0.21020513077E+03 -0.19439369339E+03 -0.11342918948E+03  0.30796312451E+03  0.00000000000E+00 0. -1.
         -1    1    6    6    0  503 -0.25243829820E+02 -0.79463557477E+02 -0.78863572423E+01  0.83749045018E+02  0.00000000000E+00 0.  1.
<mgrwt>
<rscale>  0 0.17819246E+04</rscale>
<asrwt>0</asrwt>
<pdfrwt beam="1">  1        2 0.17857986E+00 0.17819246E+04</pdfrwt>
<pdfrwt beam="2">  1       -1 0.10521059E+00 0.17819246E+04</pdfrwt>
<totfact> 0.18273772E+01</totfact>
</mgrwt>
</event>
<event>
12    6  0.1538774E-007  0.1255744E+04  0.7818608E-02  0.9065416E-01
         -1   -1    0    0    0  501 -0.00000000000E+00  0.00000000000E+00  0.57597103545E+03  0.57597103545E+03  0.00000000000E+00 0.  1.
          2   -1    0    0  501    0  0.00000000000E+00 -0.00000000000E+00 -0.68444976687E+03  0.68444976687E+03  0.00000000000E+00 0. -1.
         24    2    1    2    0    0  0.10702070937E+03 -0.26389336956E+03 -0.10537354232E+03  0.31405293006E+03  0.80202972047E+02 0.  0.
        254    2    1    2    0    0 -0.10702070937E+03  0.26389336956E+03 -0.31051890942E+01  0.94636787225E+03  0.90250172560E+03 0.  0.
         23    2    4    4    0    0 -0.41206025504E+03  0.28415342338E+03 -0.22545558529E+03  0.55655344857E+03  0.91567998608E+02 0.  0.
         23    2    4    4    0    0  0.30503954567E+03 -0.20260053823E+02  0.22235039620E+03  0.38981442369E+03  0.95162976097E+02 0.  0.
          2    1    3    3  502    0  0.11987852680E+03 -0.24744932355E+03 -0.98743109014E+02  0.29215104055E+03  0.00000000000E+00 0. -1.
         -1    1    3    3    0  502 -0.12857817435E+02 -0.16444046008E+02 -0.66304333111E+01  0.21901889512E+02  0.00000000000E+00 0.  1.
         11    1    5    5    0    0 -0.44876891470E+01  0.22488016167E+02 -0.20042793729E+02  0.30455932189E+02  0.00000000000E+00 0. -1.
        -11    1    5    5    0    0 -0.40757256590E+03  0.26166540721E+03 -0.20541279156E+03  0.52609751638E+03  0.00000000000E+00 0.  1.
          1    1    6    6  503    0  0.91312591379E+02 -0.50341638375E+02  0.68444334626E+02  0.12472728988E+03  0.00000000000E+00 0. -1.
         -1    1    6    6    0  503  0.21372695430E+03  0.30081584552E+02  0.15390606157E+03  0.26508713381E+03  0.00000000000E+00 0.  1.
<mgrwt>
<rscale>  0 0.12557440E+04</rscale>
<asrwt>0</asrwt>
<pdfrwt beam="1">  1        2 0.10529996E+00 0.12557440E+04</pdfrwt>
<pdfrwt beam="2">  1       -1 0.88610929E-01 0.12557440E+04</pdfrwt>
<totfact> 0.59208768E+01</totfact>
</mgrwt>
</event>
<event>
12    6  0.1538774E-007  0.3210644E+04  0.7818608E-02  0.8186012E-01
         -1   -1    0    0    0  501 -0.00000000000E+00  0.00000000000E+00  0.16310146341E+04  0.16310146341E+04  0.00000000000E+00 0.  1.
          2   -1    0    0  501    0  0.00000000000E+00 -0.00000000000E+00 -0.15800336311E+04  0.15800336311E+04  0.00000000000E+00 0. -1.
         24    2    1    2    0    0  0.10364914361E+04  0.88398050010E+03  0.59502434967E+03  0.14886806724E+04  0.79875816667E+02 0.  0.
        254    2    1    2    0    0 -0.10364914361E+04 -0.88398050010E+03 -0.54404334661E+03  0.17223675928E+04  0.90267986577E+03 0.  0.
         23    2    4    4    0    0 -0.25241674164E+03 -0.54383464703E+03  0.14327778744E+03  0.62203133634E+03  0.83211322786E+02 0.  0.
         23    2    4    4    0    0 -0.78407469444E+03 -0.34014585307E+03 -0.68732113404E+03  0.11003362565E+04  0.88640894285E+02 0.  0.
          4    1    3    3  502    0  0.23620716616E+03  0.18993858549E+03  0.97919594488E+02  0.31852588370E+03  0.00000000000E+00 0. -1.
         -3    1    3    3    0  502  0.80028426993E+03  0.69404191461E+03  0.49710475519E+03  0.11701547887E+04  0.00000000000E+00 0.  1.
         11    1    5    5    0    0 -0.65505753740E+01 -0.61499065162E+02  0.30773966042E+02  0.69080257958E+02  0.00000000000E+00 0.  1.
        -11    1    5    5    0    0 -0.24586616627E+03 -0.48233558187E+03  0.11250382140E+03  0.55295107838E+03  0.00000000000E+00 0. -1.
          2    1    6    6  503    0 -0.53805537442E+03 -0.22868995534E+03 -0.52132297889E+03  0.78331368553E+03  0.00000000000E+00 0. -1.
         -2    1    6    6    0  503 -0.24601932002E+03 -0.11145589773E+03 -0.16599815516E+03  0.31702257093E+03  0.00000000000E+00 0.  1.
<mgrwt>
<rscale>  0 0.32106435E+04</rscale>
<asrwt>0</asrwt>
<pdfrwt beam="1">  1        2 0.24308210E+00 0.32106435E+04</pdfrwt>
<pdfrwt beam="2">  1       -1 0.25092533E+00 0.32106435E+04</pdfrwt>
<totfact> 0.75350739E-01</totfact>
</mgrwt>
</event>
<event>
12    6  0.1538774E-007  0.2060520E+04  0.7818608E-02  0.8578837E-01
         -1   -1    0    0    0  501 -0.00000000000E+00  0.00000000000E+00  0.10412257814E+04  0.10412257814E+04  0.00000000000E+00 0.  1.
          2   -1    0    0  501    0  0.00000000000E+00 -0.00000000000E+00 -0.10194096409E+04  0.10194096409E+04  0.00000000000E+00 0. -1.
         24    2    1    2    0    0  0.47799892752E+03  0.45844637845E+02 -0.66597374193E+03  0.82468250855E+03  0.77430675089E+02 0.  0.
        254    2    1    2    0    0 -0.47799892752E+03 -0.45844637845E+02  0.68778988239E+03  0.12359529137E+04  0.90771139527E+03 0.  0.
         23    2    4    4    0    0 -0.36006044703E+03 -0.43869598409E+03  0.24488122551E+03  0.62570528548E+03  0.97173029656E+02 0.  0.
         23    2    4    4    0    0 -0.11793848049E+03  0.39285134625E+03  0.44290865688E+03  0.61024762825E+03  0.89400358056E+02 0.  0.
          4    1    3    3  502    0  0.13950612539E+03  0.48732695293E+02 -0.21076505056E+03  0.25740773328E+03  0.00000000000E+00 0. -1.
         -1    1    3    3    0  502  0.33849280212E+03 -0.28880574479E+01 -0.45520869136E+03  0.56727477527E+03  0.00000000000E+00 0.  1.
         11    1    5    5    0    0 -0.22208164919E+03 -0.32727597101E+03  0.13940230868E+03  0.41936001690E+03  0.00000000000E+00 0. -1.
        -11    1    5    5    0    0 -0.13797879784E+03 -0.11142001308E+03  0.10547891683E+03  0.20634526858E+03  0.00000000000E+00 0.  1.
          3    1    6    6  503    0 -0.13118481862E+03  0.33017519514E+03  0.36462510736E+03  0.50909388628E+03  0.00000000000E+00 0. -1.
         -3    1    6    6    0  503  0.13246338128E+02  0.62676151101E+02  0.78283549518E+02  0.10115374198E+03  0.00000000000E+00 0.  1.
<mgrwt>
<rscale>  0 0.20605199E+04</rscale>
<asrwt>0</asrwt>
<pdfrwt beam="1">  1        2 0.15683225E+00 0.20605199E+04</pdfrwt>
<pdfrwt beam="2">  1       -1 0.16018858E+00 0.20605199E+04</pdfrwt>
<totfact> 0.75184985E+00</totfact>
</mgrwt>
</event>
<event>
12    6  0.1538774E-007  0.1789072E+04  0.7818608E-02  0.8712133E-01
         -1   -1    0    0    0  501 -0.00000000000E+00  0.00000000000E+00  0.61758796633E+03  0.61758796633E+03  0.00000000000E+00 0.  1.
          2   -1    0    0  501    0  0.00000000000E+00 -0.00000000000E+00 -0.12956771622E+04  0.12956771622E+04  0.00000000000E+00 0. -1.
         24    2    1    2    0    0 -0.12976782817E+02 -0.61753477397E+03 -0.52397451338E+03  0.81337101565E+03  0.74199221566E+02 0.  0.
        254    2    1    2    0    0  0.12976782817E+02  0.61753477397E+03 -0.15411468252E+03  0.10998941129E+04  0.89693819757E+03 0.  0.
         23    2    4    4    0    0  0.18961251352E+03 -0.98727753034E+02  0.17059286845E+03  0.28874459057E+03  0.92582057202E+02 0.  0.
         23    2    4    4    0    0 -0.17663573071E+03  0.71626252701E+03 -0.32470755096E+03  0.81114952232E+03  0.91084383738E+02 0.  0.
          4    1    3    3  502    0 -0.23289947517E+02 -0.15612846120E+03 -0.16790976218E+03  0.23046085630E+03  0.00000000000E+00 0. -1.
         -3    1    3    3    0  502  0.10313164700E+02 -0.46140631277E+03 -0.35606475120E+03  0.58291015936E+03  0.00000000000E+00 0.  1.
         11    1    5    5    0    0  0.70680032386E+01 -0.40814564882E+02  0.28592980106E+02  0.50332334415E+02  0.00000000000E+00 0.  1.
        -11    1    5    5    0    0  0.18254451029E+03 -0.57913188152E+02  0.14199988834E+03  0.23841225616E+03  0.00000000000E+00 0. -1.
          4    1    6    6  503    0 -0.10337991733E+03  0.52864085099E+03 -0.20191568802E+03  0.57525516226E+03  0.00000000000E+00 0. -1.
         -4    1    6    6    0  503 -0.73255813372E+02  0.18762167602E+03 -0.12279186294E+03  0.23589436006E+03  0.00000000000E+00 0.  1.
<mgrwt>
<rscale>  0 0.17890720E+04</rscale>
<asrwt>0</asrwt>
<pdfrwt beam="1">  1        2 0.19933495E+00 0.17890720E+04</pdfrwt>
<pdfrwt beam="2">  1       -1 0.95013534E-01 0.17890720E+04</pdfrwt>
<totfact> 0.19173501E+01</totfact>
</mgrwt>
</event>
<event>
12    6  0.1538774E-007  0.1517217E+04  0.7818608E-02  0.8873084E-01
          2   -1    0    0  501    0  0.00000000000E+00  0.00000000000E+00  0.12160716137E+04  0.12160716137E+04  0.00000000000E+00 0. -1.
         -1   -1    0    0    0  501 -0.00000000000E+00 -0.00000000000E+00 -0.47323424253E+03  0.47323424253E+03  0.00000000000E+00 0.  1.
         24    2    1    2    0    0 -0.38623323664E+02  0.20435757851E+03 -0.25203550979E+03  0.33588455668E+03  0.77735167042E+02 0.  0.
        254    2    1    2    0    0  0.38623323664E+02 -0.20435757851E+03  0.99487288097E+03  0.13534212996E+04  0.89371325591E+03 0.  0.
         23    2    4    4    0    0 -0.28660218279E+03 -0.36370303748E+03  0.80846765060E+03  0.93603209686E+03  0.90085701581E+02 0.  0.
         23    2    4    4    0    0  0.32522550645E+03  0.15934545897E+03  0.18640523037E+03  0.41738920271E+03  0.91127555025E+02 0.  0.
          2    1    3    3  502    0 -0.13749636737E+02  0.51289751512E+02 -0.19882608415E+02  0.56701051471E+02  0.00000000000E+00 0. -1.
         -1    1    3    3    0  502 -0.24873686927E+02  0.15306782700E+03 -0.23215290137E+03  0.27918350521E+03  0.00000000000E+00 0.  1.
         11    1    5    5    0    0 -0.12376829151E+03 -0.91491725866E+02  0.28713416685E+03  0.32578421640E+03  0.00000000000E+00 0. -1.
        -11    1    5    5    0    0 -0.16283389128E+03 -0.27221131162E+03  0.52133348375E+03  0.61024788045E+03  0.00000000000E+00 0.  1.
          3    1    6    6  503    0  0.15558808128E+03  0.12648285152E+03  0.10597941993E+03  0.22679770769E+03  0.00000000000E+00 0. -1.
         -3    1    6    6    0  503  0.16963742517E+03  0.32862607452E+02  0.80425810436E+02  0.19059149501E+03  0.00000000000E+00 0.  1.
<mgrwt>
<rscale>  0 0.15172168E+04</rscale>
<asrwt>0</asrwt>
<pdfrwt beam="1">  1        2 0.18708794E+00 0.15172168E+04</pdfrwt>
<pdfrwt beam="2">  1       -1 0.72805269E-01 0.15172168E+04</pdfrwt>
<totfact> 0.38777776E+01</totfact>
</mgrwt>
</event>
<event>
12    6  0.1538774E-007  0.1294004E+04  0.7818608E-02  0.9034334E-01
          2   -1    0    0  501    0  0.00000000000E+00  0.00000000000E+00  0.72465846946E+03  0.72465846946E+03  0.00000000000E+00 0. -1.
         -1   -1    0    0    0  501 -0.00000000000E+00 -0.00000000000E+00 -0.57766710895E+03  0.57766710895E+03  0.00000000000E+00 0.  1.
         24    2    1    2    0    0  0.14934308399E+03  0.91016328266E+02 -0.23361429306E+03  0.30359898900E+03  0.83722036841E+02 0.  0.
        254    2    1    2    0    0 -0.14934308399E+03 -0.91016328266E+02  0.38060565358E+03  0.99872658941E+03  0.90664591110E+03 0.  0.
         23    2    4    4    0    0 -0.36663267248E+03 -0.17466662153E+03 -0.12456185023E+03  0.43448843150E+03  0.91304969030E+02 0.  0.
         23    2    4    4    0    0  0.21728958849E+03  0.83650293265E+02  0.50516750381E+03  0.56423815791E+03  0.94648587437E+02 0.  0.
          2    1    3    3  502    0  0.57150916802E+02  0.27076967228E+02 -0.27570369221E+02  0.68989236150E+02  0.00000000000E+00 0. -1.
         -1    1    3    3    0  502  0.92192167187E+02  0.63939361038E+02 -0.20604392384E+03  0.23460975285E+03  0.00000000000E+00 0.  1.
         11    1    5    5    0    0 -0.13004770810E+02 -0.13526323940E+02  0.12351123018E+02  0.22464098980E+02  0.00000000000E+00 0.  1.
        -11    1    5    5    0    0 -0.35362790167E+03 -0.16114029759E+03 -0.13691297325E+03  0.41202433252E+03  0.00000000000E+00 0. -1.
          1    1    6    6  503    0  0.20130028554E+03  0.47407139054E+02  0.45878072859E+03  0.50323851077E+03  0.00000000000E+00 0. -1.
         -1    1    6    6    0  503  0.15989302946E+02  0.36243154212E+02  0.46386775217E+02  0.60999647138E+02  0.00000000000E+00 0.  1.
<mgrwt>
<rscale>  0 0.12940037E+04</rscale>
<asrwt>0</asrwt>
<pdfrwt beam="1">  1        2 0.11148592E+00 0.12940037E+04</pdfrwt>
<pdfrwt beam="2">  1       -1 0.88871863E-01 0.12940037E+04</pdfrwt>
<totfact> 0.54555184E+01</totfact>
</mgrwt>
</event>
<event>
12    6  0.1538774E-007  0.1248906E+04  0.7818608E-02  0.9071095E-01
         -1   -1    0    0    0  501 -0.00000000000E+00  0.00000000000E+00  0.25953603188E+03  0.25953603188E+03  0.00000000000E+00 0.  1.
          2   -1    0    0  501    0  0.00000000000E+00 -0.00000000000E+00 -0.15024552311E+04  0.15024552311E+04  0.00000000000E+00 0. -1.
         24    2    1    2    0    0 -0.24763524168E+03  0.13279639033E+03 -0.41800733726E+03  0.50997145140E+03  0.79891507912E+02 0.  0.
        254    2    1    2    0    0  0.24763524168E+03 -0.13279639033E+03 -0.82491186193E+03  0.12520198115E+04  0.89895268749E+03 0.  0.
         23    2    4    4    0    0 -0.21895001318E+03 -0.10299853901E+03 -0.71908103312E+03  0.76422209780E+03  0.91706462500E+02 0.  0.
         23    2    4    4    0    0  0.46658525485E+03 -0.29797851325E+02 -0.10583082881E+03  0.48779771375E+03  0.90314634581E+02 0.  0.
          2    1    3    3  502    0 -0.15311300789E+03  0.70653839791E+02 -0.31345409432E+03  0.35593402128E+03  0.00000000000E+00 0. -1.
         -1    1    3    3    0  502 -0.94522233789E+02  0.62142550541E+02 -0.10455324294E+03  0.15403743012E+03  0.00000000000E+00 0.  1.
         11    1    5    5    0    0 -0.14617883414E+03 -0.51996641935E+02 -0.32348499642E+03  0.35876795458E+03  0.00000000000E+00 0.  1.
        -11    1    5    5    0    0 -0.72771179039E+02 -0.51001897071E+02 -0.39559603670E+03  0.40545414322E+03  0.00000000000E+00 0. -1.
          3    1    6    6  503    0  0.24464397399E+03  0.22660610240E+02 -0.30267414666E+02  0.24754856828E+03  0.00000000000E+00 0. -1.
         -3    1    6    6    0  503  0.22194128087E+03 -0.52458461565E+02 -0.75563414147E+02  0.24024914547E+03  0.00000000000E+00 0.  1.
<mgrwt>
<rscale>  0 0.12489056E+04</rscale>
<asrwt>0</asrwt>
<pdfrwt beam="1">  1        2 0.23114695E+00 0.12489056E+04</pdfrwt>
<pdfrwt beam="2">  1       -1 0.39928621E-01 0.12489056E+04</pdfrwt>
<totfact> 0.86624135E+01</totfact>
</mgrwt>
</event>
<event>
12    6  0.1538774E-007  0.1470171E+04  0.7818608E-02  0.8904535E-01
         -1   -1    0    0    0  501 -0.00000000000E+00  0.00000000000E+00  0.27480387197E+03  0.27480387197E+03  0.00000000000E+00 0.  1.
          2   -1    0    0  501    0  0.00000000000E+00 -0.00000000000E+00 -0.19663129569E+04  0.19663129569E+04  0.00000000000E+00 0. -1.
         24    2    1    2    0    0  0.36587767409E+03  0.44140340484E+02 -0.94524898412E+03  0.10175484456E+04  0.78066350353E+02 0.  0.
        254    2    1    2    0    0 -0.36587767409E+03 -0.44140340484E+02 -0.74626010078E+03  0.12235683833E+04  0.89688383220E+03 0.  0.
         23    2    4    4    0    0 -0.20256946272E+03 -0.45777087132E+03 -0.47000797575E+03  0.69224723606E+03  0.87807634709E+02 0.  0.
         23    2    4    4    0    0 -0.16330821137E+03  0.41363053083E+03 -0.27625212503E+03  0.53132114721E+03  0.90703566370E+02 0.  0.
          2    1    3    3  502    0  0.22422678643E+03 -0.92913872196E+01 -0.59842851210E+03  0.63912492184E+03  0.00000000000E+00 0. -1.
         -1    1    3    3    0  502  0.14165088766E+03  0.53431727704E+02 -0.34682047202E+03  0.37842352373E+03  0.00000000000E+00 0.  1.
         11    1    5    5    0    0 -0.30587782536E+02 -0.99216786446E+02 -0.55095414296E+02  0.11753760177E+03  0.00000000000E+00 0. -1.
        -11    1    5    5    0    0 -0.17198168018E+03 -0.35855408487E+03 -0.41491256145E+03  0.57470963429E+03  0.00000000000E+00 0.  1.
          1    1    6    6  503    0 -0.62136631488E+02  0.70900810960E+02 -0.37014283273E+02  0.10128150440E+03  0.00000000000E+00 0. -1.
         -1    1    6    6    0  503 -0.10117157988E+03  0.34272971987E+03 -0.23923784176E+03  0.43003964281E+03  0.00000000000E+00 0.  1.
<mgrwt>
<rscale>  0 0.14701706E+04</rscale>
<asrwt>0</asrwt>
<pdfrwt beam="1">  1        2 0.30250967E+00 0.14701706E+04</pdfrwt>
<pdfrwt beam="2">  1       -1 0.42277521E-01 0.14701706E+04</pdfrwt>
<totfact> 0.42337950E+01</totfact>
</mgrwt>
</event>
<event>
12    6  0.1538774E-007  0.4534824E+04  0.7818608E-02  0.7904568E-01
         -1   -1    0    0    0  501 -0.00000000000E+00  0.00000000000E+00  0.15396515314E+04  0.15396515314E+04  0.00000000000E+00 0.  1.
          2   -1    0    0  501    0  0.00000000000E+00 -0.00000000000E+00 -0.33391686111E+04  0.33391686111E+04  0.00000000000E+00 0. -1.
         24    2    1    2    0    0  0.11941373828E+04 -0.17041139475E+04 -0.15815087408E+04  0.26150068742E+04  0.84395614331E+02 0.  0.
        254    2    1    2    0    0 -0.11941373828E+04  0.17041139475E+04 -0.21800833887E+03  0.22638132684E+04  0.86449664146E+03 0.  0.
         23    2    4    4    0    0 -0.34724440202E+03  0.57588259409E+03  0.32115493891E+03  0.75084443923E+03  0.91692094656E+02 0.  0.
         23    2    4    4    0    0 -0.84689298075E+03  0.11282313534E+04 -0.53916327778E+03  0.15129688291E+04  0.90796090786E+02 0.  0.
          2    1    3    3  502    0  0.56632694786E+03 -0.84519804787E+03 -0.72733648465E+03  0.12506415609E+04  0.00000000000E+00 0. -1.
         -1    1    3    3    0  502  0.62781043492E+03 -0.85891589964E+03 -0.85417225611E+03  0.13643653132E+04  0.00000000000E+00 0.  1.
         11    1    5    5    0    0 -0.93582252786E+02  0.23813082856E+03  0.13425803012E+03  0.28894488782E+03  0.00000000000E+00 0. -1.
        -11    1    5    5    0    0 -0.25366214924E+03  0.33775176553E+03  0.18689690879E+03  0.46189955141E+03  0.00000000000E+00 0.  1.
          4    1    6    6  503    0 -0.53731878112E+03  0.78623248164E+03 -0.35792979271E+03  0.10173429728E+04  0.00000000000E+00 0.  1.
         -4    1    6    6    0  503 -0.30957419963E+03  0.34199887178E+03 -0.18123348507E+03  0.49562585636E+03  0.00000000000E+00 0. -1.
<mgrwt>
<rscale>  0 0.45348235E+04</rscale>
<asrwt>0</asrwt>
<pdfrwt beam="1">  1        2 0.51371825E+00 0.45348235E+04</pdfrwt>
<pdfrwt beam="2">  1       -1 0.23686947E+00 0.45348235E+04</pdfrwt>
<totfact> 0.76367416E-02</totfact>
</mgrwt>
</event>
<event>
12    6  0.1538774E-007  0.1232411E+04  0.7818608E-02  0.9084951E-01
          2   -1    0    0  501    0  0.00000000000E+00  0.00000000000E+00  0.31124541153E+04  0.31124541153E+04  0.00000000000E+00 0. -1.
         -1   -1    0    0    0  501 -0.00000000000E+00 -0.00000000000E+00 -0.12199668341E+03  0.12199668341E+03  0.00000000000E+00 0.  1.
         24    2    1    2    0    0 -0.81305616163E+02 -0.26707288211E+03  0.55616037555E+03  0.62742391125E+03  0.80049194224E+02 0.  0.
        254    2    1    2    0    0  0.81305616163E+02  0.26707288211E+03  0.24342970563E+04  0.26070268875E+04  0.89042040962E+03 0.  0.
         23    2    4    4    0    0  0.45706840250E+03  0.28304129405E+03  0.13689090665E+04  0.14735856438E+04  0.92296905219E+02 0.  0.
         23    2    4    4    0    0 -0.37576278634E+03 -0.15968411932E+02  0.10653879898E+04  0.11334412436E+04  0.90470006357E+02 0.  0.
          4    1    3    3  502    0 -0.57501507089E+02 -0.25360401251E+03  0.47149544696E+03  0.53845090304E+03  0.00000000000E+00 0. -1.
         -3    1    3    3    0  502 -0.23804109075E+02 -0.13468869606E+02  0.84664928586E+02  0.88973008209E+02  0.00000000000E+00 0.  1.
         11    1    5    5    0    0  0.33226909293E+03  0.23845049553E+03  0.95229924356E+03  0.10364049586E+04  0.00000000000E+00 0.  1.
        -11    1    5    5    0    0  0.12479930957E+03  0.44590798518E+02  0.41660982293E+03  0.43718068523E+03  0.00000000000E+00 0. -1.
          4    1    6    6  503    0 -0.21965053175E+03  0.31538975079E+02  0.56003435705E+03  0.60239484072E+03  0.00000000000E+00 0. -1.
         -4    1    6    6    0  503 -0.15611225459E+03 -0.47507387011E+02  0.50535363279E+03  0.53104640290E+03  0.00000000000E+00 0.  1.
<mgrwt>
<rscale>  0 0.12324108E+04</rscale>
<asrwt>0</asrwt>
<pdfrwt beam="1">  1        2 0.47883903E+00 0.12324108E+04</pdfrwt>
<pdfrwt beam="2">  1       -1 0.18768723E-01 0.12324108E+04</pdfrwt>
<totfact> 0.38278461E+01</totfact>
</mgrwt>
</event>
<event>
12    6  0.1538774E-007  0.1354155E+04  0.7818608E-02  0.8987689E-01
          2   -1    0    0  501    0  0.00000000000E+00  0.00000000000E+00  0.84198023417E+03  0.84198023417E+03  0.00000000000E+00 0. -1.
         -1   -1    0    0    0  501 -0.00000000000E+00 -0.00000000000E+00 -0.54447087922E+03  0.54447087922E+03  0.00000000000E+00 0.  1.
         24    2    1    2    0    0  0.16141514741E+03  0.20818082837E+03 -0.19576902476E+03  0.33765519275E+03  0.79318415405E+02 0.  0.
        254    2    1    2    0    0 -0.16141514741E+03 -0.20818082837E+03  0.49327837972E+03  0.10487959206E+04  0.88727403667E+03 0.  0.
         23    2    4    4    0    0  0.35404057262E+03 -0.14218015077E+03  0.15159834052E+03  0.42006046354E+03  0.88931512083E+02 0.  0.
         23    2    4    4    0    0 -0.51545572003E+03 -0.66000677595E+02  0.34168003920E+03  0.62873545711E+03  0.92262327547E+02 0.  0.
          2    1    3    3  502    0  0.12262870739E+02 -0.33676995763E+01 -0.23523550481E+02  0.26740920448E+02  0.00000000000E+00 0. -1.
         -1    1    3    3    0  502  0.14915227667E+03  0.21154852794E+03 -0.17224547428E+03  0.31091427230E+03  0.00000000000E+00 0.  1.
         11    1    5    5    0    0  0.14157178745E+02 -0.18345052876E+01 -0.10974392725E+02  0.18006343753E+02  0.00000000000E+00 0.  1.
        -11    1    5    5    0    0  0.33988339388E+03 -0.14034564548E+03  0.16257273325E+03  0.40205411978E+03  0.00000000000E+00 0. -1.
          3    1    6    6  503    0 -0.45986310527E+03 -0.30507934072E+02  0.28586366946E+03  0.54233093877E+03  0.00000000000E+00 0. -1.
         -3    1    6    6    0  503 -0.55592614759E+02 -0.35492743524E+02  0.55816369733E+02  0.86404518335E+02  0.00000000000E+00 0.  1.
<mgrwt>
<rscale>  0 0.13541547E+04</rscale>
<asrwt>0</asrwt>
<pdfrwt beam="1">  1        2 0.12953542E+00 0.13541547E+04</pdfrwt>
<pdfrwt beam="2">  1       -1 0.83764751E-01 0.13541547E+04</pdfrwt>
<totfact> 0.50668544E+01</totfact>
</mgrwt>
</event>
<event>
12    6  0.1538774E-007  0.1838163E+04  0.7818608E-02  0.8686264E-01
          2   -1    0    0  501    0  0.00000000000E+00  0.00000000000E+00  0.74187101287E+03  0.74187101287E+03  0.00000000000E+00 0. -1.
         -1   -1    0    0    0  501 -0.00000000000E+00 -0.00000000000E+00 -0.11386220363E+04  0.11386220363E+04  0.00000000000E+00 0.  1.
         24    2    1    2    0    0  0.52212083138E+03  0.30965888207E+03  0.20884024546E+03  0.64682465543E+03  0.79177654268E+02 0.  0.
        254    2    1    2    0    0 -0.52212083138E+03 -0.30965888207E+03 -0.60559126887E+03  0.12336683937E+04  0.88696005262E+03 0.  0.
         23    2    4    4    0    0  0.63842697044E+02 -0.24063517993E+03  0.12270912975E+03  0.29192785079E+03  0.90460818889E+02 0.  0.
         23    2    4    4    0    0 -0.58596352843E+03 -0.69023702139E+02 -0.72830039862E+03  0.94174054294E+03  0.91303074861E+02 0.  0.
          4    1    3    3  502    0  0.18909340116E+03  0.12636539724E+03  0.11695763530E+03  0.25574130765E+03  0.00000000000E+00 0. -1.
         -3    1    3    3    0  502  0.33302743022E+03  0.18329348484E+03  0.91882610161E+02  0.39108334778E+03  0.00000000000E+00 0.  1.
         11    1    5    5    0    0 -0.57414318374E+01 -0.13662687375E+03  0.85895694638E+02  0.16148664659E+03  0.00000000000E+00 0. -1.
        -11    1    5    5    0    0  0.69584128881E+02 -0.10400830618E+03  0.36813435116E+02  0.13044120420E+03  0.00000000000E+00 0.  1.
          4    1    6    6  503    0 -0.57502341058E+03 -0.53198270092E+02 -0.70991833377E+03  0.91513169504E+03  0.00000000000E+00 0. -1.
         -4    1    6    6    0  503 -0.10940117847E+02 -0.15825432047E+02 -0.18382064857E+02  0.26608847897E+02  0.00000000000E+00 0.  1.
<mgrwt>
<rscale>  0 0.18381629E+04</rscale>
<asrwt>0</asrwt>
<pdfrwt beam="1">  1        2 0.11413400E+00 0.18381629E+04</pdfrwt>
<pdfrwt beam="2">  1       -1 0.17517262E+00 0.18381629E+04</pdfrwt>
<totfact> 0.92164827E+00</totfact>
</mgrwt>
</event>
<event>
12    6  0.1538774E-007  0.1343518E+04  0.7818608E-02  0.8995750E-01
          2   -1    0    0  501    0  0.00000000000E+00  0.00000000000E+00  0.11934059869E+04  0.11934059869E+04  0.00000000000E+00 0. -1.
         -1   -1    0    0    0  501 -0.00000000000E+00 -0.00000000000E+00 -0.37812782452E+03  0.37812782452E+03  0.00000000000E+00 0.  1.
         24    2    1    2    0    0  0.27865858936E+03  0.33874402426E+02 -0.25785548374E+02  0.29514579253E+03  0.87453186239E+02 0.  0.
        254    2    1    2    0    0 -0.27865858936E+03 -0.33874402426E+02  0.84106371071E+03  0.12763880189E+04  0.91813949083E+03 0.  0.
         23    2    4    4    0    0 -0.62093335669E+02 -0.19026310017E+03  0.94927563404E+03  0.97446923733E+03  0.91708426625E+02 0.  0.
         23    2    4    4    0    0 -0.21656525369E+03  0.15638869775E+03 -0.10821192332E+03  0.30191878152E+03  0.89928840724E+02 0.  0.
          4    1    3    3  502    0  0.92376640134E+02  0.31591493387E+02 -0.45686008135E+02  0.10778996909E+03  0.00000000000E+00 0. -1.
         -3    1    3    3    0  502  0.18628194922E+03  0.22829090386E+01  0.19900459761E+02  0.18735582345E+03  0.00000000000E+00 0.  1.
         11    1    5    5    0    0 -0.37458152413E+02 -0.14515904315E+03  0.49249068675E+03  0.51480223147E+03  0.00000000000E+00 0. -1.
        -11    1    5    5    0    0 -0.24635183256E+02 -0.45104057026E+02  0.45678494728E+03  0.45966700586E+03  0.00000000000E+00 0.  1.
          1    1    6    6  503    0 -0.81559678388E+01  0.36458635255E+02  0.19953892183E+01  0.37413012097E+02  0.00000000000E+00 0. -1.
         -1    1    6    6    0  503 -0.20840928585E+03  0.11993006249E+03 -0.11020731254E+03  0.26450576942E+03  0.00000000000E+00 0.  1.
<mgrwt>
<rscale>  0 0.13435178E+04</rscale>
<asrwt>0</asrwt>
<pdfrwt beam="1">  1        2 0.18360092E+00 0.13435178E+04</pdfrwt>
<pdfrwt beam="2">  1       -1 0.58173512E-01 0.13435178E+04</pdfrwt>
<totfact> 0.63757386E+01</totfact>
</mgrwt>
</event>
<event>
12    6  0.1725453E-007  0.2046228E+04  0.7818608E-02  0.8585308E-01
          2   -1    0    0  501    0  0.00000000000E+00  0.00000000000E+00  0.23682334775E+04  0.23682334775E+04  0.00000000000E+00 0. -1.
         -1   -1    0    0    0  501 -0.00000000000E+00 -0.00000000000E+00 -0.44200112685E+03  0.44200112685E+03  0.00000000000E+00 0.  1.
         24    2    1    2    0    0  0.75741381902E+03  0.21371997959E+03  0.11403023453E+04  0.13893817332E+04  0.10363512413E+03 0.  0.
        254    2    1    2    0    0 -0.75741381902E+03 -0.21371997959E+03  0.78593000527E+03  0.14208528711E+04  0.88418605797E+03 0.  0.
         23    2    4    4    0    0 -0.13423074710E+03 -0.40544351987E+03  0.58999160530E+03  0.73384783498E+03  0.89667214239E+02 0.  0.
         23    2    4    4    0    0 -0.62318307193E+03  0.19172354028E+03  0.19593839997E+03  0.68700503609E+03  0.92027202461E+02 0.  0.
          2    1    3    3  502    0  0.25536381862E+03  0.50664954197E+02  0.30194990437E+03  0.39868704794E+03  0.00000000000E+00 0. -1.
         -1    1    3    3    0  502  0.50205000041E+03  0.16305502539E+03  0.83835244096E+03  0.99069468530E+03  0.00000000000E+00 0.  1.
         11    1    5    5    0    0 -0.75391301260E+02 -0.25196768394E+03  0.43260525132E+03  0.50627943423E+03  0.00000000000E+00 0. -1.
        -11    1    5    5    0    0 -0.58839445836E+02 -0.15347583593E+03  0.15738635398E+03  0.22756840075E+03  0.00000000000E+00 0.  1.
          4    1    6    6  503    0 -0.58163947054E+03  0.16208341029E+03  0.16016642567E+03  0.62468295118E+03  0.00000000000E+00 0. -1.
         -4    1    6    6    0  503 -0.41543601386E+02  0.29640129989E+02  0.35771974301E+02  0.62322084907E+02  0.00000000000E+00 0.  1.
<mgrwt>
<rscale>  0 0.20462276E+04</rscale>
<asrwt>0</asrwt>
<pdfrwt beam="1">  1        2 0.36434360E+00 0.20462276E+04</pdfrwt>
<pdfrwt beam="2">  1       -1 0.68000175E-01 0.20462276E+04</pdfrwt>
<totfact> 0.95650175E+00</totfact>
</mgrwt>
</event>
<event>
12    6  0.1538774E-007  0.2378229E+04  0.7818608E-02  0.8447700E-01
          2   -1    0    0  501    0  0.00000000000E+00  0.00000000000E+00  0.31019956646E+04  0.31019956646E+04  0.00000000000E+00 0. -1.
         -1   -1    0    0    0  501 -0.00000000000E+00 -0.00000000000E+00 -0.45583344423E+03  0.45583344423E+03  0.00000000000E+00 0.  1.
         24    2    1    2    0    0 -0.62389367847E+03  0.53207026453E+03  0.23203986047E+03  0.85621399097E+03  0.83173391535E+02 0.  0.
        254    2    1    2    0    0  0.62389367847E+03 -0.53207026453E+03  0.24141223599E+04  0.27016151178E+04  0.89352973541E+03 0.  0.
         23    2    4    4    0    0  0.84372144561E+03 -0.39070579904E+03  0.17991250466E+04  0.20272828582E+04  0.92238575910E+02 0.  0.
         23    2    4    4    0    0 -0.21982776714E+03 -0.14136446549E+03  0.61499731328E+03  0.67433225959E+03  0.90521498391E+02 0.  0.
          2    1    3    3  502    0 -0.13648302751E+03  0.12190273899E+03  0.88218218518E+02  0.20315104885E+03  0.00000000000E+00 0. -1.
         -1    1    3    3    0  502 -0.48741065096E+03  0.41016752555E+03  0.14382164195E+03  0.65306294212E+03  0.00000000000E+00 0.  1.
         11    1    5    5    0    0  0.62172359505E+03 -0.26614696610E+03  0.12257560859E+04  0.13999472913E+04  0.00000000000E+00 0. -1.
        -11    1    5    5    0    0  0.22199785056E+03 -0.12455883294E+03  0.57336896064E+03  0.62733556693E+03  0.00000000000E+00 0.  1.
          3    1    6    6  503    0 -0.16057936699E+03 -0.12856446795E+03  0.54030820955E+03  0.57814143324E+03  0.00000000000E+00 0. -1.
         -3    1    6    6    0  503 -0.59248400149E+02 -0.12799997532E+02  0.74689103727E+02  0.96190826344E+02  0.00000000000E+00 0.  1.
<mgrwt>
<rscale>  0 0.23782291E+04</rscale>
<asrwt>0</asrwt>
<pdfrwt beam="1">  1        2 0.47723009E+00 0.23782291E+04</pdfrwt>
<pdfrwt beam="2">  1       -1 0.70128224E-01 0.23782291E+04</pdfrwt>
<totfact> 0.31627287E+00</totfact>
</mgrwt>
</event>
<event>
12    6  0.1538774E-007  0.1786747E+04  0.7818608E-02  0.8713379E-01
         -1   -1    0    0    0  501 -0.00000000000E+00  0.00000000000E+00  0.43365033820E+03  0.43365033820E+03  0.00000000000E+00 0.  1.
          2   -1    0    0  501    0  0.00000000000E+00 -0.00000000000E+00 -0.18404606651E+04  0.18404606651E+04  0.00000000000E+00 0. -1.
         24    2    1    2    0    0 -0.60476315389E+02 -0.53391398630E+03 -0.33403991088E+02  0.54414290405E+03  0.79083145618E+02 0.  0.
        254    2    1    2    0    0  0.60476315389E+02  0.53391398630E+03 -0.13734063358E+04  0.17299680993E+04  0.90433574059E+03 0.  0.
         23    2    4    4    0    0  0.41285832087E+03  0.52387830442E+03 -0.10218472545E+04  0.12241416658E+04  0.97213865402E+02 0.  0.
         23    2    4    4    0    0 -0.35238200548E+03  0.10035681875E+02 -0.35155908138E+03  0.50582643345E+03  0.89402462913E+02 0.  0.
          2    1    3    3  502    0 -0.68437315316E+02 -0.41011303318E+03 -0.50786981135E+02  0.41887430521E+03  0.00000000000E+00 0. -1.
         -1    1    3    3    0  502  0.79609999275E+01 -0.12380095311E+03  0.17382990047E+02  0.12526859884E+03  0.00000000000E+00 0.  1.
         11    1    5    5    0    0  0.20499958961E+03  0.31663299074E+03 -0.51373765956E+03  0.63734422835E+03  0.00000000000E+00 0. -1.
        -11    1    5    5    0    0  0.20785873126E+03  0.20724531368E+03 -0.50810959490E+03  0.58679743748E+03  0.00000000000E+00 0.  1.
          4    1    6    6  503    0 -0.24980371806E+03 -0.28408099136E+02 -0.27229089377E+03  0.37060929357E+03  0.00000000000E+00 0. -1.
         -4    1    6    6    0  503 -0.10257828742E+03  0.38443781011E+02 -0.79268187616E+02  0.13521713988E+03  0.00000000000E+00 0.  1.
<mgrwt>
<rscale>  0 0.17867472E+04</rscale>
<asrwt>0</asrwt>
<pdfrwt beam="1">  1        2 0.28314780E+00 0.17867472E+04</pdfrwt>
<pdfrwt beam="2">  1       -1 0.66715436E-01 0.17867472E+04</pdfrwt>
<totfact> 0.20075612E+01</totfact>
</mgrwt>
</event>
<event>
12    6  0.1538774E-007  0.1209719E+04  0.7818608E-02  0.9104392E-01
          2   -1    0    0  501    0  0.00000000000E+00  0.00000000000E+00  0.12484873405E+04  0.12484873405E+04  0.00000000000E+00 0. -1.
         -1   -1    0    0    0  501 -0.00000000000E+00 -0.00000000000E+00 -0.29303840809E+03  0.29303840809E+03  0.00000000000E+00 0.  1.
         24    2    1    2    0    0  0.12664086890E+03 -0.18399300985E+03  0.38843818742E+03  0.45479126633E+03  0.77843003143E+02 0.  0.
        254    2    1    2    0    0 -0.12664086890E+03  0.18399300985E+03  0.56701074499E+03  0.10867344823E+04  0.89977736838E+03 0.  0.
         23    2    4    4    0    0 -0.43182112694E+03 -0.14600356115E+03  0.32441823865E+03  0.56699515708E+03  0.91922734106E+02 0.  0.
         23    2    4    4    0    0  0.30518025803E+03  0.32999657100E+03  0.24259250634E+03  0.51973932518E+03  0.96151522338E+02 0.  0.
          2    1    3    3  502    0  0.12927399040E+03 -0.18913241483E+03  0.38518505248E+03  0.44816331798E+03  0.00000000000E+00 0. -1.
         -1    1    3    3    0  502 -0.26331214979E+01  0.51394049819E+01  0.32531349426E+01  0.66279483511E+01  0.00000000000E+00 0.  1.
         11    1    5    5    0    0 -0.36299631407E+02 -0.42535898164E+02  0.45367441668E+02  0.72008128961E+02  0.00000000000E+00 0. -1.
        -11    1    5    5    0    0 -0.39552149553E+03 -0.10346766298E+03  0.27905079699E+03  0.49498702812E+03  0.00000000000E+00 0.  1.
          1    1    6    6  503    0  0.17383428376E+02  0.49853715393E+02  0.55724363802E+02  0.76764452982E+02  0.00000000000E+00 0. -1.
         -1    1    6    6    0  503  0.28779682966E+03  0.28014285560E+03  0.18686814254E+03  0.44297487220E+03  0.00000000000E+00 0.  1.
<mgrwt>
<rscale>  0 0.12097186E+04</rscale>
<asrwt>0</asrwt>
<pdfrwt beam="1">  1        2 0.19207497E+00 0.12097186E+04</pdfrwt>
<pdfrwt beam="2">  1       -1 0.45082833E-01 0.12097186E+04</pdfrwt>
<totfact> 0.97193502E+01</totfact>
</mgrwt>
</event>
<event>
12    6  0.1538774E-007  0.1181693E+04  0.7818608E-02  0.9129033E-01
          2   -1    0    0  501    0  0.00000000000E+00  0.00000000000E+00  0.20523435599E+04  0.20523435599E+04  0.00000000000E+00 0. -1.
         -1   -1    0    0    0  501 -0.00000000000E+00 -0.00000000000E+00 -0.17009812498E+03  0.17009812498E+03  0.00000000000E+00 0.  1.
         24    2    1    2    0    0 -0.19754400999E+01  0.24187672530E+03  0.37753266896E+03  0.45547758086E+03  0.80129008007E+02 0.  0.
        254    2    1    2    0    0  0.19754400999E+01 -0.24187672530E+03  0.15047127660E+04  0.17669641040E+04  0.89414393937E+03 0.  0.
         23    2    4    4    0    0 -0.97476656073E+02  0.20647273460E+03  0.11596215127E+04  0.11854213131E+04  0.91481955328E+02 0.  0.
         23    2    4    4    0    0  0.99452096173E+02 -0.44834945989E+03  0.34509125323E+03  0.58154279094E+03  0.90532242962E+02 0.  0.
          4    1    3    3  502    0 -0.15514007407E+02  0.22145079896E+02  0.86064800790E+02  0.90212188336E+02  0.00000000000E+00 0. -1.
         -3    1    3    3    0  502  0.13538567307E+02  0.21973164540E+03  0.29146786817E+03  0.36526539252E+03  0.00000000000E+00 0.  1.
         11    1    5    5    0    0 -0.68279361975E+02  0.15972336076E+03  0.10303494247E+04  0.10448892574E+04  0.00000000000E+00 0.  1.
        -11    1    5    5    0    0 -0.29197294098E+02  0.46749373833E+02  0.12927208806E+03  0.14053205573E+03  0.00000000000E+00 0. -1.
          3    1    6    6  503    0  0.11215256513E+03 -0.43496390899E+03  0.32622127014E+03  0.55515053551E+03  0.00000000000E+00 0. -1.
         -3    1    6    6    0  503 -0.12700468954E+02 -0.13385550904E+02  0.18869983084E+02  0.26392255422E+02  0.00000000000E+00 0.  1.
<mgrwt>
<rscale>  0 0.11816933E+04</rscale>
<asrwt>0</asrwt>
<pdfrwt beam="1">  1        2 0.31574514E+00 0.11816933E+04</pdfrwt>
<pdfrwt beam="2">  1       -1 0.26168944E-01 0.11816933E+04</pdfrwt>
<totfact> 0.91191778E+01</totfact>
</mgrwt>
</event>
<event>
12    6  0.1538774E-007  0.2369198E+04  0.7818608E-02  0.8451126E-01
         -1   -1    0    0    0  501 -0.00000000000E+00  0.00000000000E+00  0.84800489214E+03  0.84800489214E+03  0.00000000000E+00 0.  1.
          2   -1    0    0  501    0  0.00000000000E+00 -0.00000000000E+00 -0.16547956999E+04  0.16547956999E+04  0.00000000000E+00 0. -1.
         24    2    1    2    0    0 -0.15421389349E+03 -0.15470891234E+03  0.69875321558E+03  0.73637711824E+03  0.79236553981E+02 0.  0.
        254    2    1    2    0    0  0.15421389349E+03  0.15470891234E+03 -0.15055440234E+04  0.17664234738E+04  0.89770391005E+03 0.  0.
         23    2    4    4    0    0  0.65593599634E+02  0.23284596735E+03 -0.73157166717E+01  0.26080853124E+03  0.97199822196E+02 0.  0.
         23    2    4    4    0    0  0.88620293853E+02 -0.78137055007E+02 -0.14982283067E+04  0.15056149426E+04  0.90715712678E+02 0.  0.
          4    1    3    3  502    0 -0.51289332627E+02 -0.37839913867E+02  0.32983320644E+03  0.33593511098E+03  0.00000000000E+00 0. -1.
         -3    1    3    3    0  502 -0.10292456086E+03 -0.11686899847E+03  0.36892000914E+03  0.40044200726E+03  0.00000000000E+00 0.  1.
         11    1    5    5    0    0  0.31061821806E+02  0.22060899236E+03  0.27969255485E+01  0.22280257422E+03  0.00000000000E+00 0.  1.
        -11    1    5    5    0    0  0.34531777828E+02  0.12236974986E+02 -0.10112642220E+02  0.38005957026E+02  0.00000000000E+00 0. -1.
          3    1    6    6  503    0  0.14508268706E+02  0.71009301311E+01 -0.61258908996E+03  0.61280201224E+03  0.00000000000E+00 0. -1.
         -3    1    6    6    0  503  0.74112025146E+02 -0.85237985138E+02 -0.88563921674E+03  0.89281293036E+03  0.00000000000E+00 0.  1.
<mgrwt>
<rscale>  0 0.23691980E+04</rscale>
<asrwt>0</asrwt>
<pdfrwt beam="1">  1        2 0.25458395E+00 0.23691980E+04</pdfrwt>
<pdfrwt beam="2">  1       -1 0.13046229E+00 0.23691980E+04</pdfrwt>
<totfact> 0.53622097E+00</totfact>
</mgrwt>
</event>
<event>
12    6  0.1538774E-007  0.1489907E+04  0.7818608E-02  0.8891193E-01
         -3   -1    0    0    0  501 -0.00000000000E+00  0.00000000000E+00  0.57776899663E+03  0.57776899663E+03  0.00000000000E+00 0.  1.
          2   -1    0    0  501    0  0.00000000000E+00 -0.00000000000E+00 -0.96051432680E+03  0.96051432680E+03  0.00000000000E+00 0. -1.
         24    2    1    2    0    0  0.43853078389E+03  0.72275851041E+01 -0.30329557882E+03  0.53920376775E+03  0.79943784134E+02 0.  0.
        254    2    1    2    0    0 -0.43853078389E+03 -0.72275851041E+01 -0.79449751358E+02  0.99907955568E+03  0.89413992707E+03 0.  0.
         23    2    4    4    0    0 -0.15626593193E+03  0.29020989146E+03 -0.35773040467E+03  0.49470874930E+03  0.90138125255E+02 0.  0.
         23    2    4    4    0    0 -0.28226485196E+03 -0.29743747656E+03  0.27828065331E+03  0.50437080638E+03  0.93847158763E+02 0.  0.
          4    1    3    3  502    0  0.30429780255E+03  0.15294418250E+02 -0.16577131353E+03  0.34685904955E+03  0.00000000000E+00 0. -1.
         -3    1    3    3    0  502  0.13423298134E+03 -0.80668331460E+01 -0.13752426529E+03  0.19234471820E+03  0.00000000000E+00 0.  1.
         11    1    5    5    0    0 -0.91126257709E+02  0.13151900123E+03 -0.23285860180E+03  0.28253207068E+03  0.00000000000E+00 0.  1.
        -11    1    5    5    0    0 -0.65139674222E+02  0.15869089023E+03 -0.12487180287E+03  0.21217667862E+03  0.00000000000E+00 0. -1.
          4    1    6    6  503    0 -0.27983279316E+03 -0.30353407806E+03  0.27815702153E+03  0.49780584297E+03  0.00000000000E+00 0. -1.
         -4    1    6    6    0  503 -0.24320587955E+01  0.60966014926E+01  0.12363177871E+00  0.65649634089E+01  0.00000000000E+00 0.  1.
<mgrwt>
<rscale>  0 0.14899066E+04</rscale>
<asrwt>0</asrwt>
<pdfrwt beam="1">  1        2 0.14777143E+00 0.14899066E+04</pdfrwt>
<pdfrwt beam="2">  1       -3 0.88887539E-01 0.14899066E+04</pdfrwt>
<totfact> 0.18795277E+01</totfact>
</mgrwt>
</event>
<event>
12    6  0.1538774E-007  0.1945021E+04  0.7818608E-02  0.8632766E-01
         -1   -1    0    0    0  501 -0.00000000000E+00  0.00000000000E+00  0.98475863334E+03  0.98475863334E+03  0.00000000000E+00 0.  1.
          2   -1    0    0  501    0  0.00000000000E+00 -0.00000000000E+00 -0.96041459945E+03  0.96041459945E+03  0.00000000000E+00 0. -1.
         24    2    1    2    0    0 -0.24829245908E+03 -0.92418559696E+02  0.72258020257E+03  0.77368461078E+03  0.79217374282E+02 0.  0.
        254    2    1    2    0    0  0.24829245908E+03  0.92418559696E+02 -0.69823616869E+03  0.11714886220E+04  0.90258601187E+03 0.  0.
         23    2    4    4    0    0  0.39193624303E+02  0.36650556163E+03 -0.72052635322E+03  0.81477261539E+03  0.93987883322E+02 0.  0.
         23    2    4    4    0    0  0.20909883478E+03 -0.27408700194E+03  0.22290184526E+02  0.35671600662E+03  0.88901348227E+02 0.  0.
          4    1    3    3  502    0 -0.63064296785E+01  0.30976488057E+01  0.81880447744E+02  0.82181349504E+02  0.00000000000E+00 0. -1.
         -3    1    3    3    0  502 -0.24198602941E+03 -0.95516208502E+02  0.64069975483E+03  0.69150326127E+03  0.00000000000E+00 0.  1.
         11    1    5    5    0    0  0.15764596218E+02  0.12342847425E+03 -0.15495233626E+03  0.19872930650E+03  0.00000000000E+00 0. -1.
        -11    1    5    5    0    0  0.23429028085E+02  0.24307708738E+03 -0.56557401696E+03  0.61604330889E+03  0.00000000000E+00 0.  1.
          2    1    6    6  503    0  0.19759381726E+03 -0.26976870682E+03  0.36779655711E+01  0.33441291725E+03  0.00000000000E+00 0. -1.
         -2    1    6    6    0  503  0.11505017525E+02 -0.43182951219E+01  0.18612218955E+02  0.22303089369E+02  0.00000000000E+00 0.  1.
<mgrwt>
<rscale>  0 0.19450209E+04</rscale>
<asrwt>0</asrwt>
<pdfrwt beam="1">  1        2 0.14775609E+00 0.19450209E+04</pdfrwt>
<pdfrwt beam="2">  1       -1 0.15150133E+00 0.19450209E+04</pdfrwt>
<totfact> 0.96636888E+00</totfact>
</mgrwt>
</event>
<event>
12    6  0.1538774E-007  0.1686519E+04  0.7818608E-02  0.8769090E-01
          2   -1    0    0  501    0  0.00000000000E+00  0.00000000000E+00  0.19926431098E+04  0.19926431098E+04  0.00000000000E+00 0. -1.
         -1   -1    0    0    0  501 -0.00000000000E+00 -0.00000000000E+00 -0.35685614071E+03  0.35685614071E+03  0.00000000000E+00 0.  1.
         24    2    1    2    0    0 -0.29307676132E+03 -0.10081000625E+02  0.13466556777E+04  0.13804831999E+04  0.79099535519E+02 0.  0.
        254    2    1    2    0    0  0.29307676132E+03  0.10081000625E+02  0.28913129147E+03  0.96901605062E+03  0.87715425557E+03 0.  0.
         23    2    4    4    0    0 -0.13210198516E+03  0.34050138463E+03  0.15131913908E+03  0.40576217801E+03  0.91396585473E+02 0.  0.
         23    2    4    4    0    0  0.42517874648E+03 -0.33042038400E+03  0.13781215239E+03  0.56325387261E+03  0.91148993651E+02 0.  0.
          4    1    3    3  502    0 -0.24763862096E+03  0.18815929564E+02  0.10492015046E+04  0.10781941954E+04  0.00000000000E+00 0. -1.
         -3    1    3    3    0  502 -0.45438140355E+02 -0.28896930189E+02  0.29745417304E+03  0.30228900448E+03  0.00000000000E+00 0.  1.
         11    1    5    5    0    0 -0.10901321040E+03  0.23497328982E+03  0.63895210136E+02  0.26679378712E+03  0.00000000000E+00 0.  1.
        -11    1    5    5    0    0 -0.23088774764E+02  0.10552809481E+03  0.87423928943E+02  0.13896839089E+03  0.00000000000E+00 0. -1.
          3    1    6    6  503    0  0.55829707232E+01 -0.24757358718E+02  0.16089716694E+02  0.30049548351E+02  0.00000000000E+00 0. -1.
         -3    1    6    6    0  503  0.41959577576E+03 -0.30566302528E+03  0.12172243570E+03  0.53320432426E+03  0.00000000000E+00 0.  1.
<mgrwt>
<rscale>  0 0.16865194E+04</rscale>
<asrwt>0</asrwt>
<pdfrwt beam="1">  1        2 0.30656047E+00 0.16865194E+04</pdfrwt>
<pdfrwt beam="2">  1       -1 0.54900946E-01 0.16865194E+04</pdfrwt>
<totfact> 0.24536285E+01</totfact>
</mgrwt>
</event>
<event>
12    6  0.1538774E-007  0.1747359E+04  0.7818608E-02  0.8734805E-01
          2   -1    0    0  501    0  0.00000000000E+00  0.00000000000E+00  0.59508162229E+03  0.59508162229E+03  0.00000000000E+00 0. -1.
         -1   -1    0    0    0  501 -0.00000000000E+00 -0.00000000000E+00 -0.12827084373E+04  0.12827084373E+04  0.00000000000E+00 0.  1.
         24    2    1    2    0    0 -0.95255970149E+02 -0.40744521260E+03 -0.77302937405E+03  0.88260071543E+03  0.79525521711E+02 0.  0.
        254    2    1    2    0    0  0.95255970149E+02  0.40744521260E+03  0.85402559009E+02  0.99518934420E+03  0.89890095817E+03 0.  0.
         23    2    4    4    0    0  0.45525086739E+03  0.37048329746E+02  0.11981505468E+02  0.46553936094E+03  0.89204311047E+02 0.  0.
         23    2    4    4    0    0 -0.35999489724E+03  0.37039688285E+03  0.73421053541E+02  0.52964998326E+03  0.91368904986E+02 0.  0.
          2    1    3    3  502    0 -0.24847508787E+02 -0.22745434393E+03 -0.35953333469E+03  0.42616557348E+03  0.00000000000E+00 0. -1.
         -1    1    3    3    0  502 -0.70408461362E+02 -0.17999086867E+03 -0.41349603936E+03  0.45643514195E+03  0.00000000000E+00 0.  1.
         11    1    5    5    0    0  0.20551371942E+02 -0.15330773523E+01 -0.19003005554E+02  0.28032542428E+02  0.00000000000E+00 0. -1.
        -11    1    5    5    0    0  0.43469949545E+03  0.38581407098E+02  0.30984511022E+02  0.43750681851E+03  0.00000000000E+00 0.  1.
          3    1    6    6  503    0 -0.48377472221E+02  0.57349509738E+02 -0.21109475278E+02  0.77942004287E+02  0.00000000000E+00 0. -1.
         -3    1    6    6    0  503 -0.31161742502E+03  0.31304737311E+03  0.94530528819E+02  0.45170797898E+03  0.00000000000E+00 0.  1.
<mgrwt>
<rscale>  0 0.17473594E+04</rscale>
<asrwt>0</asrwt>
<pdfrwt beam="1">  1        2 0.91551019E-01 0.17473594E+04</pdfrwt>
<pdfrwt beam="2">  1       -1 0.19733976E+00 0.17473594E+04</pdfrwt>
<totfact> 0.85170293E+00</totfact>
</mgrwt>
</event>
<event>
12    6  0.1538774E-007  0.1499566E+04  0.7818608E-02  0.8884741E-01
         -1   -1    0    0    0  501 -0.00000000000E+00  0.00000000000E+00  0.48245282429E+03  0.48245282429E+03  0.00000000000E+00 0.  1.
          2   -1    0    0  501    0  0.00000000000E+00 -0.00000000000E+00 -0.11652427725E+04  0.11652427725E+04  0.00000000000E+00 0. -1.
         24    2    1    2    0    0  0.27991521383E+01  0.56768731586E+02  0.29956128590E+03  0.31535134278E+03  0.80492119147E+02 0.  0.
        254    2    1    2    0    0 -0.27991521383E+01 -0.56768731586E+02 -0.98235123412E+03  0.13323442540E+04  0.89827431215E+03 0.  0.
         23    2    4    4    0    0  0.14430668064E+03  0.21031074132E+03  0.28526963282E+02  0.27248120674E+03  0.91527014592E+02 0.  0.
         23    2    4    4    0    0 -0.14710583278E+03 -0.26707947291E+03 -0.10108781974E+04  0.10598630473E+04  0.91996619941E+02 0.  0.
          4    1    3    3  502    0  0.60083156479E+01  0.55251765989E+02  0.90116884793E+02  0.10587686445E+03  0.00000000000E+00 0. -1.
         -3    1    3    3    0  502 -0.32091635097E+01  0.15169655975E+01  0.20944440111E+03  0.20947447833E+03  0.00000000000E+00 0.  1.
         11    1    5    5    0    0  0.35379146500E+02  0.44112676517E+02  0.46148099840E+02  0.72988076803E+02  0.00000000000E+00 0. -1.
        -11    1    5    5    0    0  0.10892753414E+03  0.16619806481E+03 -0.17621136557E+02  0.19949312994E+03  0.00000000000E+00 0.  1.
          4    1    6    6  503    0 -0.13359389946E+03 -0.17308598784E+03 -0.78390169854E+03  0.81382305333E+03  0.00000000000E+00 0. -1.
         -4    1    6    6    0  503 -0.13511933326E+02 -0.93993485074E+02 -0.22697649886E+03  0.24603999393E+03  0.00000000000E+00 0.  1.
<mgrwt>
<rscale>  0 0.14995662E+04</rscale>
<asrwt>0</asrwt>
<pdfrwt beam="1">  1        2 0.17926812E+00 0.14995662E+04</pdfrwt>
<pdfrwt beam="2">  1       -1 0.74223512E-01 0.14995662E+04</pdfrwt>
<totfact> 0.40019968E+01</totfact>
</mgrwt>
</event>
<event>
12    6  0.1538774E-007  0.2659328E+04  0.7818608E-02  0.8348324E-01
          2   -1    0    0  501    0  0.00000000000E+00  0.00000000000E+00  0.26553872115E+04  0.26553872115E+04  0.00000000000E+00 0. -1.
         -1   -1    0    0    0  501 -0.00000000000E+00 -0.00000000000E+00 -0.66581847387E+03  0.66581847387E+03  0.00000000000E+00 0.  1.
         24    2    1    2    0    0  0.13996791552E+03  0.49993134643E+03  0.21966133726E+04  0.22593589125E+04  0.10034948078E+03 0.  0.
        254    2    1    2    0    0 -0.13996791552E+03 -0.49993134643E+03 -0.20704463497E+03  0.10618467729E+04  0.90284479268E+03 0.  0.
         23    2    4    4    0    0  0.21043506290E+03 -0.21374903284E+03  0.25894850987E+03  0.40575543747E+03  0.87244366775E+02 0.  0.
         23    2    4    4    0    0 -0.35040297843E+03 -0.28618231359E+03 -0.46599314484E+03  0.65609133540E+03  0.92863692831E+02 0.  0.
          2    1    3    3  502    0  0.20474211392E+02  0.23033288757E+03  0.85502557458E+03  0.88574328426E+03  0.00000000000E+00 0. -1.
         -1    1    3    3    0  502  0.11949370413E+03  0.26959845886E+03  0.13415877980E+04  0.13736156282E+04  0.00000000000E+00 0.  1.
         11    1    5    5    0    0  0.65093234080E+02 -0.25189668740E+02  0.31788095054E+02  0.76695055391E+02  0.00000000000E+00 0.  1.
        -11    1    5    5    0    0  0.14534182882E+03 -0.18855936410E+03  0.22716041481E+03  0.32906038208E+03  0.00000000000E+00 0. -1.
          4    1    6    6  503    0  0.45714564611E+01 -0.12909574155E+02 -0.10899338874E+02  0.17502882818E+02  0.00000000000E+00 0. -1.
         -4    1    6    6    0  503 -0.35497443489E+03 -0.27327273944E+03 -0.45509380597E+03  0.63858845258E+03  0.00000000000E+00 0.  1.
<mgrwt>
<rscale>  0 0.26593276E+04</rscale>
<asrwt>0</asrwt>
<pdfrwt beam="1">  1        2 0.40852110E+00 0.26593276E+04</pdfrwt>
<pdfrwt beam="2">  1       -1 0.10243361E+00 0.26593276E+04</pdfrwt>
<totfact> 0.25466618E+00</totfact>
</mgrwt>
</event>
<event>
12    6  0.1538774E-007  0.1207758E+04  0.7818608E-02  0.9106093E-01
          2   -1    0    0  501    0  0.00000000000E+00  0.00000000000E+00  0.66443949547E+03  0.66443949547E+03  0.00000000000E+00 0. -1.
         -1   -1    0    0    0  501 -0.00000000000E+00 -0.00000000000E+00 -0.54883841366E+03  0.54883841366E+03  0.00000000000E+00 0.  1.
         24    2    1    2    0    0 -0.24940137631E+02 -0.25026195091E+03  0.34238513221E+01  0.26365158285E+03  0.79040368434E+02 0.  0.
        254    2    1    2    0    0  0.24940137631E+02  0.25026195091E+03  0.11217723049E+03  0.94962632628E+03  0.90881976980E+03 0.  0.
         23    2    4    4    0    0  0.93179438633E+02  0.26203293224E+03  0.48186991922E+03  0.56383540244E+03  0.91477191844E+02 0.  0.
         23    2    4    4    0    0 -0.68239301002E+02 -0.11770981327E+02 -0.36969268873E+03  0.38579092384E+03  0.85830033267E+02 0.  0.
          4    1    3    3  502    0  0.37793981759E+01 -0.84228685750E+02  0.36605105435E+02  0.91916750909E+02  0.00000000000E+00 0. -1.
         -3    1    3    3    0  502 -0.28719535807E+02 -0.16603326516E+03 -0.33181254113E+02  0.17173483194E+03  0.00000000000E+00 0.  1.
         11    1    5    5    0    0  0.99139759351E+02  0.18811649239E+03  0.40247451767E+03  0.45519473192E+03  0.00000000000E+00 0. -1.
        -11    1    5    5    0    0 -0.59603207181E+01  0.73916439848E+02  0.79395401558E+02  0.10864067052E+03  0.00000000000E+00 0.  1.
          3    1    6    6  503    0 -0.66109744486E+02  0.16430261588E+02 -0.15586444804E+03  0.17010049375E+03  0.00000000000E+00 0. -1.
         -3    1    6    6    0  503 -0.21295565155E+01 -0.28201242915E+02 -0.21382824069E+03  0.21569043008E+03  0.00000000000E+00 0.  1.
<mgrwt>
<rscale>  0 0.12077581E+04</rscale>
<asrwt>0</asrwt>
<pdfrwt beam="1">  1        2 0.10222146E+00 0.12077581E+04</pdfrwt>
<pdfrwt beam="2">  1       -1 0.84436679E-01 0.12077581E+04</pdfrwt>
<totfact> 0.68504391E+01</totfact>
</mgrwt>
</event>
<event>
12    6  0.1538774E-007  0.1766124E+04  0.7818608E-02  0.8724525E-01
         -1   -1    0    0    0  501 -0.00000000000E+00  0.00000000000E+00  0.10495813077E+04  0.10495813077E+04  0.00000000000E+00 0.  1.
          2   -1    0    0  501    0  0.00000000000E+00 -0.00000000000E+00 -0.74296114959E+03  0.74296114959E+03  0.00000000000E+00 0. -1.
         24    2    1    2    0    0  0.62819105041E+03  0.13246308644E+03  0.27282181831E+03  0.70172233895E+03  0.76236679776E+02 0.  0.
        254    2    1    2    0    0 -0.62819105041E+03 -0.13246308644E+03  0.33798339818E+02  0.10908201184E+04  0.88123534755E+03 0.  0.
         23    2    4    4    0    0 -0.75591065841E+03  0.42484594728E+02 -0.16715436026E+03  0.78059847784E+03  0.90485021783E+02 0.  0.
         23    2    4    4    0    0  0.12771960800E+03 -0.17494768117E+03  0.20095270008E+03  0.31022164052E+03  0.94533005704E+02 0.  0.
          4    1    3    3  502    0  0.87363586892E+02  0.39710269395E+02  0.22335161420E+02  0.98530001754E+02  0.00000000000E+00 0. -1.
         -1    1    3    3    0  502  0.54082746352E+03  0.92752817048E+02  0.25048665689E+03  0.60319233719E+03  0.00000000000E+00 0.  1.
         11    1    5    5    0    0 -0.24030649757E+03 -0.24876635003E+02 -0.35302031011E+02  0.24415628834E+03  0.00000000000E+00 0.  1.
        -11    1    5    5    0    0 -0.51560416084E+03  0.67361229731E+02 -0.13185232925E+03  0.53644218950E+03  0.00000000000E+00 0. -1.
          4    1    6    6  503    0  0.51307839751E+02 -0.14483711832E+03  0.12072630483E+03  0.19541014799E+03  0.00000000000E+00 0. -1.
         -4    1    6    6    0  503  0.76411768246E+02 -0.30110562853E+02  0.80226395252E+02  0.11481149253E+03  0.00000000000E+00 0.  1.
<mgrwt>
<rscale>  0 0.17661236E+04</rscale>
<asrwt>0</asrwt>
<pdfrwt beam="1">  1        2 0.11430172E+00 0.17661236E+04</pdfrwt>
<pdfrwt beam="2">  1       -1 0.16147405E+00 0.17661236E+04</pdfrwt>
<totfact> 0.11686037E+01</totfact>
</mgrwt>
</event>
<event>
12    6  0.1538774E-007  0.1394557E+04  0.7818608E-02  0.8957768E-01
         -1   -1    0    0    0  501 -0.00000000000E+00  0.00000000000E+00  0.57391814786E+03  0.57391814786E+03  0.00000000000E+00 0.  1.
          2   -1    0    0  501    0  0.00000000000E+00 -0.00000000000E+00 -0.84715417045E+03  0.84715417045E+03  0.00000000000E+00 0. -1.
         24    2    1    2    0    0  0.19790426694E+03 -0.56663708299E+02 -0.42616341774E+03  0.48007460801E+03  0.80495316210E+02 0.  0.
        254    2    1    2    0    0 -0.19790426694E+03  0.56663708299E+02  0.15292739515E+03  0.94099771029E+03  0.90538004610E+03 0.  0.
         23    2    4    4    0    0  0.16286303094E+03  0.38489080260E+03  0.23004376346E+02  0.42804950830E+03  0.89620775771E+02 0.  0.
         23    2    4    4    0    0 -0.36076729788E+03 -0.32822709430E+03  0.12992301880E+03  0.51294820199E+03  0.91377231648E+02 0.  0.
          2    1    3    3  502    0  0.20329500160E+03 -0.53270436744E+02 -0.42420687042E+03  0.47341109622E+03  0.00000000000E+00 0. -1.
         -1    1    3    3    0  502 -0.53907346637E+01 -0.33932715555E+01 -0.19565473125E+01  0.66635117955E+01  0.00000000000E+00 0.  1.
         11    1    5    5    0    0  0.11091582716E+03  0.15213645337E+03 -0.17795478303E+01  0.18828432741E+03  0.00000000000E+00 0. -1.
        -11    1    5    5    0    0  0.51947203773E+02  0.23275434924E+03  0.24783924177E+02  0.23976518089E+03  0.00000000000E+00 0.  1.
          3    1    6    6  503    0 -0.27043779137E+03 -0.19629595787E+03  0.65287632094E+02  0.34048667666E+03  0.00000000000E+00 0. -1.
         -3    1    6    6    0  503 -0.90329506502E+02 -0.13193113644E+03  0.64635386707E+02  0.17246152533E+03  0.00000000000E+00 0.  1.
<mgrwt>
<rscale>  0 0.13945568E+04</rscale>
<asrwt>0</asrwt>
<pdfrwt beam="1">  1        2 0.13033141E+00 0.13945568E+04</pdfrwt>
<pdfrwt beam="2">  1       -1 0.88295100E-01 0.13945568E+04</pdfrwt>
<totfact> 0.44668000E+01</totfact>
</mgrwt>
</event>
<event>
12    6  0.1538774E-007  0.1136662E+04  0.7818608E-02  0.9170177E-01
         -1   -1    0    0    0  501 -0.00000000000E+00  0.00000000000E+00  0.22455825861E+03  0.22455825861E+03  0.00000000000E+00 0.  1.
          2   -1    0    0  501    0  0.00000000000E+00 -0.00000000000E+00 -0.14383810004E+04  0.14383810004E+04  0.00000000000E+00 0. -1.
         24    2    1    2    0    0 -0.74497660124E+02  0.12951519536E+03  0.21004543439E+02  0.16897185023E+03  0.76067129114E+02 0.  0.
        254    2    1    2    0    0  0.74497660124E+02 -0.12951519536E+03 -0.12348272852E+04  0.14939674088E+04  0.82753616657E+03 0.  0.
         23    2    4    4    0    0 -0.24542654140E+03 -0.35295585555E+03 -0.67356663684E+03  0.80436450969E+03  0.92185828656E+02 0.  0.
         23    2    4    4    0    0  0.31992420152E+03  0.22344066019E+03 -0.56126064841E+03  0.68960289911E+03  0.90892352042E+02 0.  0.
          4    1    3    3  502    0 -0.48135449029E+02  0.54749676168E+02 -0.25295409125E+02  0.77164799077E+02  0.00000000000E+00 0. -1.
         -3    1    3    3    0  502 -0.26362211095E+02  0.74765519188E+02  0.46299952564E+02  0.91807051149E+02  0.00000000000E+00 0.  1.
         11    1    5    5    0    0 -0.23003711198E+03 -0.28360198909E+03 -0.59775011439E+03  0.70046581670E+03  0.00000000000E+00 0.  1.
        -11    1    5    5    0    0 -0.15389429417E+02 -0.69353866461E+02 -0.75816522444E+02  0.10389869300E+03  0.00000000000E+00 0. -1.
          1    1    6    6  503    0  0.81073718536E+02  0.93027442733E+02 -0.22891211995E+03  0.26005347834E+03  0.00000000000E+00 0. -1.
         -1    1    6    6    0  503  0.23885048299E+03  0.13041321746E+03 -0.33234852846E+03  0.42954942077E+03  0.00000000000E+00 0.  1.
<mgrwt>
<rscale>  0 0.11366624E+04</rscale>
<asrwt>0</asrwt>
<pdfrwt beam="1">  1        2 0.22128938E+00 0.11366624E+04</pdfrwt>
<pdfrwt beam="2">  1       -1 0.34547426E-01 0.11366624E+04</pdfrwt>
<totfact> 0.12327459E+02</totfact>
</mgrwt>
</event>
<event>
12    6  0.1538774E-007  0.4106983E+04  0.7818608E-02  0.7983306E-01
         -1   -1    0    0    0  501 -0.00000000000E+00  0.00000000000E+00  0.14378155428E+04  0.14378155428E+04  0.00000000000E+00 0.  1.
          2   -1    0    0  501    0  0.00000000000E+00 -0.00000000000E+00 -0.29328016120E+04  0.29328016120E+04  0.00000000000E+00 0. -1.
         24    2    1    2    0    0  0.92442117847E+03 -0.43513639151E+03 -0.24857086168E+04  0.26886966679E+04  0.80276088059E+02 0.  0.
        254    2    1    2    0    0 -0.92442117847E+03  0.43513639151E+03  0.99072254755E+03  0.16819204868E+04  0.89634098610E+03 0.  0.
         23    2    4    4    0    0 -0.79409567666E+03  0.69004674177E+03  0.76647070921E+03  0.13045978903E+04  0.88010555041E+02 0.  0.
         23    2    4    4    0    0 -0.13032550181E+03 -0.25491035026E+03  0.22425183835E+03  0.37732259652E+03  0.10059538634E+03 0.  0.
          4    1    3    3  502    0  0.77862840779E+03 -0.33516030040E+03 -0.20839848427E+04  0.22497972018E+04  0.00000000000E+00 0. -1.
         -3    1    3    3    0  502  0.14579277068E+03 -0.99976091108E+02 -0.40172377402E+03  0.43889946615E+03  0.00000000000E+00 0.  1.
         11    1    5    5    0    0 -0.17208817623E+03  0.18332986171E+03  0.21764705102E+03  0.33255738965E+03  0.00000000000E+00 0.  1.
        -11    1    5    5    0    0 -0.62200750043E+03  0.50671688007E+03  0.54882365819E+03  0.97204050066E+03  0.00000000000E+00 0. -1.
          4    1    6    6  503    0 -0.75435789869E+02 -0.20164077170E+03  0.20752681720E+03  0.29902665277E+03  0.00000000000E+00 0. -1.
         -4    1    6    6    0  503 -0.54889711939E+02 -0.53269578556E+02  0.16725021145E+02  0.78295943756E+02  0.00000000000E+00 0.  1.
<mgrwt>
<rscale>  0 0.41069832E+04</rscale>
<asrwt>0</asrwt>
<pdfrwt beam="1">  1        2 0.45120025E+00 0.41069832E+04</pdfrwt>
<pdfrwt beam="2">  1       -1 0.22120239E+00 0.41069832E+04</pdfrwt>
<totfact> 0.18392854E-01</totfact>
</mgrwt>
</event>
<event>
12    6  0.1538774E-007  0.1359167E+04  0.7818608E-02  0.8983918E-01
         -1   -1    0    0    0  501 -0.00000000000E+00  0.00000000000E+00  0.91910580381E+03  0.91910580381E+03  0.00000000000E+00 0.  1.
          2   -1    0    0  501    0  0.00000000000E+00 -0.00000000000E+00 -0.50248173264E+03  0.50248173264E+03  0.00000000000E+00 0. -1.
         24    2    1    2    0    0  0.78705422865E+02 -0.21471028162E+03  0.44946637062E+03  0.51065125098E+03  0.80309608315E+02 0.  0.
        254    2    1    2    0    0 -0.78705422865E+02  0.21471028162E+03 -0.32842299443E+02  0.91093628547E+03  0.88115336402E+03 0.  0.
         23    2    4    4    0    0 -0.32373761243E+03 -0.20315792268E+03 -0.11864705188E+03  0.41059390216E+03  0.91820729261E+02 0.  0.
         23    2    4    4    0    0  0.24503218957E+03  0.41786820431E+03  0.85804752435E+02  0.50034238331E+03  0.91243821147E+02 0.  0.
          4    1    3    3  502    0  0.63757537939E+00 -0.71400824577E+02  0.20172942663E+03  0.21399356491E+03  0.00000000000E+00 0. -1.
         -3    1    3    3    0  502  0.78067847485E+02 -0.14330945705E+03  0.24773694398E+03  0.29665768607E+03  0.00000000000E+00 0.  1.
         11    1    5    5    0    0 -0.17796948940E+03 -0.79150115448E+02 -0.98181993399E+02  0.21812286391E+03  0.00000000000E+00 0. -1.
        -11    1    5    5    0    0 -0.14576812303E+03 -0.12400780723E+03 -0.20465058479E+02  0.19247103825E+03  0.00000000000E+00 0.  1.
          3    1    6    6  503    0  0.36117287460E+02  0.60149624194E+02  0.46620747523E+02  0.84237342335E+02  0.00000000000E+00 0. -1.
         -3    1    6    6    0  503  0.20891490211E+03  0.35771858011E+03  0.39184004912E+02  0.41610504097E+03  0.00000000000E+00 0.  1.
<mgrwt>
<rscale>  0 0.13591672E+04</rscale>
<asrwt>0</asrwt>
<pdfrwt beam="1">  1        2 0.77304882E-01 0.13591672E+04</pdfrwt>
<pdfrwt beam="2">  1       -1 0.14140089E+00 0.13591672E+04</pdfrwt>
<totfact> 0.27910357E+01</totfact>
</mgrwt>
</event>
<event>
12    6  0.1538774E-007  0.2246133E+04  0.7818608E-02  0.8499468E-01
          2   -1    0    0  501    0  0.00000000000E+00  0.00000000000E+00  0.11129047822E+04  0.11129047822E+04  0.00000000000E+00 0. -1.
         -1   -1    0    0    0  501 -0.00000000000E+00 -0.00000000000E+00 -0.11333206803E+04  0.11333206803E+04  0.00000000000E+00 0.  1.
         24    2    1    2    0    0 -0.11137259437E+03  0.27778676163E+03  0.88301221499E+03  0.93575859736E+03  0.79776193165E+02 0.  0.
        254    2    1    2    0    0  0.11137259437E+03 -0.27778676163E+03 -0.90342811310E+03  0.13104668651E+04  0.90087274861E+03 0.  0.
         23    2    4    4    0    0  0.46214122327E+03 -0.17864573533E+03 -0.26651591609E+03  0.57000197255E+03  0.91557119764E+02 0.  0.
         23    2    4    4    0    0 -0.35076862890E+03 -0.99141026301E+02 -0.63691219700E+03  0.74046489252E+03  0.98810607917E+02 0.  0.
          2    1    3    3  502    0 -0.59927359639E+02  0.23240550365E+03  0.65179414211E+03  0.69457844068E+03  0.00000000000E+00 0. -1.
         -1    1    3    3    0  502 -0.51445234728E+02  0.45381257980E+02  0.23121807287E+03  0.24118015668E+03  0.00000000000E+00 0.  1.
         11    1    5    5    0    0  0.25440771970E+03 -0.11986136521E+03 -0.10425183476E+03  0.29993079162E+03  0.00000000000E+00 0.  1.
        -11    1    5    5    0    0  0.20773350358E+03 -0.58784370123E+02 -0.16226408133E+03  0.27007118093E+03  0.00000000000E+00 0. -1.
          4    1    6    6  503    0 -0.18268259408E+03 -0.78858504191E+02 -0.26108965975E+03  0.32826727570E+03  0.00000000000E+00 0. -1.
         -4    1    6    6    0  503 -0.16808603482E+03 -0.20282522111E+02 -0.37582253725E+03  0.41219761682E+03  0.00000000000E+00 0.  1.
<mgrwt>
<rscale>  0 0.22461327E+04</rscale>
<asrwt>0</asrwt>
<pdfrwt beam="1">  1        2 0.17121612E+00 0.22461327E+04</pdfrwt>
<pdfrwt beam="2">  1       -1 0.17435703E+00 0.22461327E+04</pdfrwt>
<totfact> 0.50778322E+00</totfact>
</mgrwt>
</event>
<event>
12    6  0.1538774E-007  0.1633382E+04  0.7818608E-02  0.8800299E-01
         -1   -1    0    0    0  501 -0.00000000000E+00  0.00000000000E+00  0.83974300930E+03  0.83974300930E+03  0.00000000000E+00 0.  1.
          2   -1    0    0  501    0  0.00000000000E+00 -0.00000000000E+00 -0.79427194679E+03  0.79427194679E+03  0.00000000000E+00 0. -1.
         24    2    1    2    0    0 -0.10835727594E+03  0.51307300762E+00  0.52582468375E+03  0.54300053209E+03  0.81341362869E+02 0.  0.
        254    2    1    2    0    0  0.10835727594E+03 -0.51307300762E+00 -0.48035362124E+03  0.10910144240E+04  0.97356628406E+03 0.  0.
         23    2    4    4    0    0  0.41414479643E+03 -0.22491441869E+03 -0.10473850952E+02  0.48030455674E+03  0.92088856690E+02 0.  0.
         23    2    4    4    0    0 -0.30578752048E+03  0.22440134568E+03 -0.46987977029E+03  0.61070986727E+03  0.91200722717E+02 0.  0.
          4    1    3    3  502    0  0.14252461393E+01 -0.17984236225E+02  0.14858101963E+03  0.14967225352E+03  0.00000000000E+00 0. -1.
         -3    1    3    3    0  502 -0.10978252208E+03  0.18497309232E+02  0.37724366412E+03  0.39332827857E+03  0.00000000000E+00 0.  1.
         11    1    5    5    0    0  0.13043664334E+02 -0.61047790079E+01 -0.18359644746E+02  0.23334139393E+02  0.00000000000E+00 0.  1.
        -11    1    5    5    0    0  0.40110113209E+03 -0.21880963968E+03  0.78857937949E+01  0.45697041734E+03  0.00000000000E+00 0. -1.
          1    1    6    6  503    0 -0.14981594108E+03  0.16038085213E+03 -0.23454782398E+03  0.32121568403E+03  0.00000000000E+00 0. -1.
         -1    1    6    6    0  503 -0.15597157940E+03  0.64020493551E+02 -0.23533194631E+03  0.28949418324E+03  0.00000000000E+00 0.  1.
<mgrwt>
<rscale>  0 0.16333822E+04</rscale>
<asrwt>0</asrwt>
<pdfrwt beam="1">  1        2 0.12219568E+00 0.16333822E+04</pdfrwt>
<pdfrwt beam="2">  1       -1 0.12919123E+00 0.16333822E+04</pdfrwt>
<totfact> 0.19569330E+01</totfact>
</mgrwt>
</event>
<event>
12    6  0.1538774E-007  0.1597234E+04  0.7818608E-02  0.8822249E-01
          2   -1    0    0  501    0  0.00000000000E+00  0.00000000000E+00  0.12718690391E+04  0.12718690391E+04  0.00000000000E+00 0. -1.
         -1   -1    0    0    0  501 -0.00000000000E+00 -0.00000000000E+00 -0.50145805197E+03  0.50145805197E+03  0.00000000000E+00 0.  1.
         24    2    1    2    0    0 -0.49081667512E+03 -0.22036924277E+03  0.16993870072E+03  0.56988023545E+03  0.80129326844E+02 0.  0.
        254    2    1    2    0    0  0.49081667512E+03  0.22036924277E+03  0.60047228644E+03  0.12034468557E+04  0.89345047757E+03 0.  0.
         23    2    4    4    0    0  0.98665086052E+02 -0.81819081046E+02 -0.20157316432E+03  0.25640521874E+03  0.93181191210E+02 0.  0.
         23    2    4    4    0    0  0.39215158907E+03  0.30218832381E+03  0.80204545076E+03  0.94704163692E+03  0.92251314999E+02 0.  0.
          2    1    3    3  502    0 -0.18314733974E+03 -0.91309582191E+02  0.10487102168E+03  0.22995286265E+03  0.00000000000E+00 0. -1.
         -1    1    3    3    0  502 -0.30766933538E+03 -0.12905966057E+03  0.65067679037E+02  0.33992737280E+03  0.00000000000E+00 0.  1.
         11    1    5    5    0    0  0.13870103793E+02  0.20974255420E+02 -0.34796807820E+02  0.42931538572E+02  0.00000000000E+00 0. -1.
        -11    1    5    5    0    0  0.84794982259E+02 -0.10279333647E+03 -0.16677635650E+03  0.21347368017E+03  0.00000000000E+00 0.  1.
          2    1    6    6  503    0  0.17505167593E+03  0.85609027041E+02  0.35424889637E+03  0.40430715470E+03  0.00000000000E+00 0. -1.
         -2    1    6    6    0  503  0.21709991313E+03  0.21657929677E+03  0.44779655438E+03  0.54273448222E+03  0.00000000000E+00 0.  1.
<mgrwt>
<rscale>  0 0.15972338E+04</rscale>
<asrwt>0</asrwt>
<pdfrwt beam="1">  1        2 0.19567216E+00 0.15972338E+04</pdfrwt>
<pdfrwt beam="2">  1       -1 0.77147393E-01 0.15972338E+04</pdfrwt>
<totfact> 0.31636412E+01</totfact>
</mgrwt>
</event>
<event>
12    6  0.1538774E-007  0.2658017E+04  0.7818608E-02  0.8348757E-01
         -1   -1    0    0    0  501 -0.00000000000E+00  0.00000000000E+00  0.20455154587E+04  0.20455154587E+04  0.00000000000E+00 0.  1.
          2   -1    0    0  501    0  0.00000000000E+00 -0.00000000000E+00 -0.86348093447E+03  0.86348093447E+03  0.00000000000E+00 0. -1.
         24    2    1    2    0    0  0.60207983375E+03 -0.58282217208E+03 -0.37789862204E+03  0.92295786781E+03  0.82837471836E+02 0.  0.
        254    2    1    2    0    0 -0.60207983375E+03  0.58282217208E+03  0.15599331463E+04  0.19860385254E+04  0.89931962780E+03 0.  0.
         23    2    4    4    0    0  0.22229900681E+03  0.13039392512E+03  0.24443945141E+03  0.36639106036E+03  0.89846199529E+02 0.  0.
         23    2    4    4    0    0 -0.82437884057E+03  0.45242824696E+03  0.13154936949E+04  0.16196474650E+04  0.91882850809E+02 0.  0.
          2    1    3    3  502    0  0.60044563281E+03 -0.58117480462E+03 -0.38155190918E+03  0.91862994230E+03  0.00000000000E+00 0. -1.
         -1    1    3    3    0  502  0.16342009420E+01 -0.16473674603E+01  0.36532871476E+01  0.43279255135E+01  0.00000000000E+00 0.  1.
         11    1    5    5    0    0  0.76624675640E+02  0.36054810118E+02  0.28497421271E+02  0.89349836422E+02  0.00000000000E+00 0.  1.
        -11    1    5    5    0    0  0.14567433117E+03  0.94339115004E+02  0.21594203014E+03  0.27704122394E+03  0.00000000000E+00 0. -1.
          4    1    6    6  503    0 -0.80318869627E+03  0.42439065012E+03  0.12809651727E+04  0.15703793425E+04  0.00000000000E+00 0. -1.
         -4    1    6    6    0  503 -0.21190144292E+02  0.28037596834E+02  0.34528522170E+02  0.49268122499E+02  0.00000000000E+00 0.  1.
<mgrwt>
<rscale>  0 0.26580170E+04</rscale>
<asrwt>0</asrwt>
<pdfrwt beam="1">  1        2 0.13284322E+00 0.26580170E+04</pdfrwt>
<pdfrwt beam="2">  1       -1 0.31469468E+00 0.26580170E+04</pdfrwt>
<totfact> 0.82635852E-01</totfact>
</mgrwt>
</event>
<event>
12    6  0.1538774E-007  0.1467401E+04  0.7818608E-02  0.8906425E-01
          2   -1    0    0  501    0  0.00000000000E+00  0.00000000000E+00  0.13875853025E+04  0.13875853025E+04  0.00000000000E+00 0. -1.
         -1   -1    0    0    0  501 -0.00000000000E+00 -0.00000000000E+00 -0.38795204532E+03  0.38795204532E+03  0.00000000000E+00 0.  1.
         24    2    1    2    0    0 -0.14046606786E+03 -0.14565907150E+03 -0.18089708163E+03  0.28229566643E+03  0.77587420475E+02 0.  0.
        254    2    1    2    0    0  0.14046606786E+03  0.14565907150E+03  0.11805303388E+04  0.14932416814E+04  0.89172392412E+03 0.  0.
         23    2    4    4    0    0  0.28335153220E+03  0.41250391655E+03  0.38688590973E+03  0.63899389223E+03  0.90470521125E+02 0.  0.
         23    2    4    4    0    0 -0.14288546434E+03 -0.26684484505E+03  0.79364442910E+03  0.85424778917E+03  0.90804064964E+02 0.  0.
          2    1    3    3  502    0  0.79743219346E+01 -0.40871928959E+01 -0.18891949620E+02  0.20909345196E+02  0.00000000000E+00 0. -1.
         -1    1    3    3    0  502 -0.14844038979E+03 -0.14157187860E+03 -0.16200513201E+03  0.26138632124E+03  0.00000000000E+00 0.  1.
         11    1    5    5    0    0  0.25610554933E+03  0.32675861705E+03  0.34476650886E+03  0.53965284382E+03  0.00000000000E+00 0. -1.
        -11    1    5    5    0    0  0.27245982865E+02  0.85745299502E+02  0.42119400864E+02  0.99341048404E+02  0.00000000000E+00 0.  1.
          2    1    6    6  503    0 -0.11838426685E+03 -0.13495308634E+03  0.40190402140E+03  0.44017497949E+03  0.00000000000E+00 0. -1.
         -2    1    6    6    0  503 -0.24501197490E+02 -0.13189175871E+03  0.39174040770E+03  0.41407280968E+03  0.00000000000E+00 0.  1.
<mgrwt>
<rscale>  0 0.14674012E+04</rscale>
<asrwt>0</asrwt>
<pdfrwt beam="1">  1        2 0.21347466E+00 0.14674012E+04</pdfrwt>
<pdfrwt beam="2">  1       -1 0.59684930E-01 0.14674012E+04</pdfrwt>
<totfact> 0.46211569E+01</totfact>
</mgrwt>
</event>
<event>
12    6  0.1538774E-007  0.2528350E+04  0.7818608E-02  0.8392955E-01
          2   -1    0    0  501    0  0.00000000000E+00  0.00000000000E+00  0.13790987527E+04  0.13790987527E+04  0.00000000000E+00 0. -1.
         -1   -1    0    0    0  501 -0.00000000000E+00 -0.00000000000E+00 -0.11588284352E+04  0.11588284352E+04  0.00000000000E+00 0.  1.
         24    2    1    2    0    0  0.51521568097E+03 -0.68849606587E+03  0.78791937097E+03  0.11690150012E+04  0.79404706044E+02 0.  0.
        254    2    1    2    0    0 -0.51521568097E+03  0.68849606587E+03 -0.56764905348E+03  0.13689121866E+04  0.90123309751E+03 0.  0.
         23    2    4    4    0    0 -0.43677398100E+03  0.76191801993E+02 -0.59154408479E+03  0.74477762822E+03  0.90513038201E+02 0.  0.
         23    2    4    4    0    0 -0.78441699971E+02  0.61230426387E+03  0.23895031305E+02  0.62413455837E+03  0.88900858147E+02 0.  0.
          2    1    3    3  502    0  0.48761626407E+03 -0.66126519665E+03  0.77099760970E+03  0.11267114073E+04  0.00000000000E+00 0. -1.
         -1    1    3    3    0  502  0.27599416900E+02 -0.27230869218E+02  0.16921761266E+02  0.42303593889E+02  0.00000000000E+00 0.  1.
         11    1    5    5    0    0 -0.15761751365E+03  0.71712212407E+02 -0.21694084856E+03  0.27757747349E+03  0.00000000000E+00 0.  1.
        -11    1    5    5    0    0 -0.27915646735E+03  0.44795895858E+01 -0.37460323623E+03  0.46720015473E+03  0.00000000000E+00 0. -1.
          1    1    6    6  503    0 -0.68459539163E+02  0.44737383805E+03  0.55289533993E+02  0.45594626004E+03  0.00000000000E+00 0. -1.
         -1    1    6    6    0  503 -0.99821608076E+01  0.16493042582E+03 -0.31394502688E+02  0.16818829833E+03  0.00000000000E+00 0.  1.
<mgrwt>
<rscale>  0 0.25283503E+04</rscale>
<asrwt>0</asrwt>
<pdfrwt beam="1">  1        2 0.21216904E+00 0.25283503E+04</pdfrwt>
<pdfrwt beam="2">  1       -1 0.17828130E+00 0.25283503E+04</pdfrwt>
<totfact> 0.32292140E+00</totfact>
</mgrwt>
</event>
<event>
12    6  0.1538774E-007  0.2817567E+04  0.7818608E-02  0.8297835E-01
         -1   -1    0    0    0  501 -0.00000000000E+00  0.00000000000E+00  0.99946026894E+03  0.99946026894E+03  0.00000000000E+00 0.  1.
          2   -1    0    0  501    0  0.00000000000E+00 -0.00000000000E+00 -0.19857428488E+04  0.19857428488E+04  0.00000000000E+00 0. -1.
         24    2    1    2    0    0 -0.41696449732E+03  0.25306892253E+03 -0.16828984982E+04  0.17540169854E+04  0.80777213638E+02 0.  0.
        254    2    1    2    0    0  0.41696449732E+03 -0.25306892253E+03  0.69661591832E+03  0.12311861324E+04  0.89030460140E+03 0.  0.
         23    2    4    4    0    0  0.53324845684E+03 -0.48620822624E+03  0.58635009451E+03  0.93443077872E+03  0.92747457729E+02 0.  0.
         23    2    4    4    0    0 -0.11628395952E+03  0.23313930371E+03  0.11026582381E+03  0.29675535363E+03  0.89606326963E+02 0.  0.
          2    1    3    3  502    0 -0.39266715730E+03  0.21425498264E+03 -0.15599633157E+04  0.16228303178E+04  0.00000000000E+00 0. -1.
         -3    1    3    3    0  502 -0.24297340027E+02  0.38813939884E+02 -0.12293518247E+03  0.13118666758E+03  0.00000000000E+00 0.  1.
         11    1    5    5    0    0  0.41470365550E+03 -0.32304207848E+03  0.41368023876E+03  0.66892947782E+03  0.00000000000E+00 0. -1.
        -11    1    5    5    0    0  0.11854480134E+03 -0.16316614776E+03  0.17266985575E+03  0.26550130091E+03  0.00000000000E+00 0.  1.
          2    1    6    6  503    0 -0.10567576663E+03  0.11796696277E+03  0.48507690803E+02  0.16563987450E+03  0.00000000000E+00 0. -1.
         -2    1    6    6    0  503 -0.10608192885E+02  0.11517234094E+03  0.61758133010E+02  0.13111547913E+03  0.00000000000E+00 0.  1.
<mgrwt>
<rscale>  0 0.28175671E+04</rscale>
<asrwt>0</asrwt>
<pdfrwt beam="1">  1        2 0.30549890E+00 0.28175671E+04</pdfrwt>
<pdfrwt beam="2">  1       -1 0.15376312E+00 0.28175671E+04</pdfrwt>
<totfact> 0.21940789E+00</totfact>
</mgrwt>
</event>
<event>
12    6  0.1538774E-007  0.1853953E+04  0.7818608E-02  0.8678122E-01
          2   -1    0    0  501    0  0.00000000000E+00  0.00000000000E+00  0.33018996723E+04  0.33018996723E+04  0.00000000000E+00 0. -1.
         -1   -1    0    0    0  501 -0.00000000000E+00 -0.00000000000E+00 -0.26023978864E+03  0.26023978864E+03  0.00000000000E+00 0.  1.
         24    2    1    2    0    0  0.69783748978E+03  0.12680341218E+03  0.10918708930E+04  0.13046051899E+04  0.82197244595E+02 0.  0.
        254    2    1    2    0    0 -0.69783748978E+03 -0.12680341218E+03  0.19497889906E+04  0.22575342710E+04  0.88979076719E+03 0.  0.
         23    2    4    4    0    0 -0.70588713363E+03 -0.28549721837E+03  0.85899810981E+03  0.11514216927E+04  0.90049179545E+02 0.  0.
         23    2    4    4    0    0  0.80496438549E+01  0.15869380618E+03  0.10907908808E+04  0.11061125782E+04  0.91715698061E+02 0.  0.
          2    1    3    3  502    0  0.35052027469E+03  0.59638887108E+02  0.62204572301E+03  0.71649294577E+03  0.00000000000E+00 0. -1.
         -1    1    3    3    0  502  0.34731721509E+03  0.67164525075E+02  0.46982517003E+03  0.58811224415E+03  0.00000000000E+00 0.  1.
         11    1    5    5    0    0 -0.62254669136E+03 -0.26499050025E+03  0.71966655704E+03  0.98777745544E+03  0.00000000000E+00 0.  1.
        -11    1    5    5    0    0 -0.83340442269E+02 -0.20506718119E+02  0.13933155277E+03  0.16364423730E+03  0.00000000000E+00 0. -1.
          2    1    6    6  503    0  0.83958656406E+01  0.22626968850E+02  0.46841861056E+03  0.46903993966E+03  0.00000000000E+00 0.  1.
         -2    1    6    6    0  503 -0.34622178571E+00  0.13606683733E+03  0.62237227021E+03  0.63707263857E+03  0.00000000000E+00 0. -1.
<mgrwt>
<rscale>  0 0.18539533E+04</rscale>
<asrwt>0</asrwt>
<pdfrwt beam="1">  1        2 0.50798454E+00 0.18539533E+04</pdfrwt>
<pdfrwt beam="2">  1       -1 0.40036893E-01 0.18539533E+04</pdfrwt>
<totfact> 0.72673265E+00</totfact>
</mgrwt>
</event>
<event>
12    6  0.1538774E-007  0.1176911E+04  0.7818608E-02  0.9133310E-01
          2   -1    0    0  501    0  0.00000000000E+00  0.00000000000E+00  0.74748632769E+03  0.74748632769E+03  0.00000000000E+00 0. -1.
         -1   -1    0    0    0  501 -0.00000000000E+00 -0.00000000000E+00 -0.46325931847E+03  0.46325931847E+03  0.00000000000E+00 0.  1.
         24    2    1    2    0    0 -0.37522665947E+02 -0.17912572623E+02  0.30213772622E+03  0.31649492650E+03  0.84575541230E+02 0.  0.
        254    2    1    2    0    0  0.37522665947E+02  0.17912572623E+02 -0.17910717004E+02  0.89425071966E+03  0.89310399456E+03 0.  0.
         23    2    4    4    0    0  0.17786549431E+03 -0.30061992672E+03 -0.27334602324E+03  0.45321546939E+03  0.93154381861E+02 0.  0.
         23    2    4    4    0    0 -0.14034282836E+03  0.31853249935E+03  0.25543530624E+03  0.44103525027E+03  0.90032403575E+02 0.  0.
          4    1    3    3  502    0 -0.64965958737E+02 -0.14369289195E+02  0.21734443449E+03  0.22730080394E+03  0.00000000000E+00 0. -1.
         -3    1    3    3    0  502  0.27443292790E+02 -0.35432834275E+01  0.84793291729E+02  0.89194122558E+02  0.00000000000E+00 0.  1.
         11    1    5    5    0    0  0.11716782487E+03 -0.11701042357E+03 -0.99533067801E+02  0.19320085402E+03  0.00000000000E+00 0. -1.
        -11    1    5    5    0    0  0.60697669437E+02 -0.18360950316E+03 -0.17381295544E+03  0.26001461537E+03  0.00000000000E+00 0.  1.
          4    1    6    6  503    0 -0.10390099050E+03  0.14290790595E+03  0.96158646069E+02  0.20115807372E+03  0.00000000000E+00 0. -1.
         -4    1    6    6    0  503 -0.36441837859E+02  0.17562459340E+03  0.15927666017E+03  0.23987717654E+03  0.00000000000E+00 0.  1.
<mgrwt>
<rscale>  0 0.11769112E+04</rscale>
<asrwt>0</asrwt>
<pdfrwt beam="1">  1        2 0.11499790E+00 0.11769112E+04</pdfrwt>
<pdfrwt beam="2">  1       -1 0.71270665E-01 0.11769112E+04</pdfrwt>
<totfact> 0.84525897E+01</totfact>
</mgrwt>
</event>
<event>
12    6  0.1538774E-007  0.1290299E+04  0.7818608E-02  0.9037294E-01
          2   -1    0    0  501    0  0.00000000000E+00  0.00000000000E+00  0.35298226711E+03  0.35298226711E+03  0.00000000000E+00 0. -1.
         -1   -1    0    0    0  501 -0.00000000000E+00 -0.00000000000E+00 -0.11791469850E+04  0.11791469850E+04  0.00000000000E+00 0.  1.
         24    2    1    2    0    0  0.19683603454E+03  0.10523241825E+03 -0.49895644394E+03  0.55241593236E+03  0.79922105984E+02 0.  0.
        254    2    1    2    0    0 -0.19683603454E+03 -0.10523241825E+03 -0.32720827396E+03  0.97971331977E+03  0.89607736721E+03 0.  0.
         23    2    4    4    0    0  0.22070722337E+03 -0.26823241910E+02  0.18819349354E+03  0.30571927487E+03  0.92824130819E+02 0.  0.
         23    2    4    4    0    0 -0.41754325791E+03 -0.78409176344E+02 -0.51540176751E+03  0.67399404490E+03  0.90214297325E+02 0.  0.
          2    1    3    3  502    0  0.16616778312E+03  0.11582775662E+03 -0.40149910589E+03  0.44969915875E+03  0.00000000000E+00 0. -1.
         -1    1    3    3    0  502  0.30668251426E+02 -0.10595338361E+02 -0.97457338048E+02  0.10271677361E+03  0.00000000000E+00 0.  1.
         11    1    5    5    0    0  0.30260831276E+02 -0.39728776793E+02  0.42759194836E+02  0.65745283923E+02  0.00000000000E+00 0. -1.
        -11    1    5    5    0    0  0.19044639209E+03  0.12905534883E+02  0.14543429871E+03  0.23997399095E+03  0.00000000000E+00 0.  1.
          3    1    6    6  503    0 -0.26667841422E+03 -0.71745048127E+01 -0.29825775123E+03  0.40015813911E+03  0.00000000000E+00 0. -1.
         -3    1    6    6    0  503 -0.15086484370E+03 -0.71234671532E+02 -0.21714401628E+03  0.27383590578E+03  0.00000000000E+00 0.  1.
<mgrwt>
<rscale>  0 0.12902992E+04</rscale>
<asrwt>0</asrwt>
<pdfrwt beam="1">  1        2 0.54304966E-01 0.12902992E+04</pdfrwt>
<pdfrwt beam="2">  1       -1 0.18140722E+00 0.12902992E+04</pdfrwt>
<totfact> 0.20898832E+01</totfact>
</mgrwt>
</event>
<event>
12    6  0.1538774E-007  0.2061730E+04  0.7818608E-02  0.8578292E-01
         -1   -1    0    0    0  501 -0.00000000000E+00  0.00000000000E+00  0.17515298653E+04  0.17515298653E+04  0.00000000000E+00 0.  1.
          2   -1    0    0  501    0  0.00000000000E+00 -0.00000000000E+00 -0.60671671272E+03  0.60671671272E+03  0.00000000000E+00 0. -1.
         24    2    1    2    0    0 -0.33331406439E+03 -0.42140215913E+03 -0.26621694593E+03  0.60429564526E+03  0.74991461820E+02 0.  0.
        254    2    1    2    0    0  0.33331406439E+03  0.42140215913E+03  0.14110300985E+04  0.17539509328E+04  0.89255805996E+03 0.  0.
         23    2    4    4    0    0  0.36970673861E+03 -0.50669796999E+02  0.16513865192E+03  0.41814173507E+03  0.91220805447E+02 0.  0.
         23    2    4    4    0    0 -0.36392674228E+02  0.47207195613E+03  0.12458914466E+04  0.13358091977E+04  0.89243248714E+02 0.  0.
          4    1    3    3  502    0 -0.31075218577E+03 -0.35377680463E+03 -0.22397303679E+03  0.52142964019E+03  0.00000000000E+00 0. -1.
         -3    1    3    3    0  502 -0.22561878616E+02 -0.67625354498E+02 -0.42243909146E+02  0.82866005078E+02  0.00000000000E+00 0.  1.
         11    1    5    5    0    0  0.47879536137E+02  0.21533789276E+02  0.37325463213E+02  0.64415403945E+02  0.00000000000E+00 0. -1.
        -11    1    5    5    0    0  0.32182720248E+03 -0.72203586275E+02  0.12781318870E+03  0.35372633113E+03  0.00000000000E+00 0.  1.
          2    1    6    6  503    0 -0.36702916089E+02  0.24016653536E+03  0.75002526648E+03  0.78839391747E+03  0.00000000000E+00 0. -1.
         -2    1    6    6    0  503  0.31024186068E+00  0.23190542077E+03  0.49586618013E+03  0.54741528023E+03  0.00000000000E+00 0.  1.
<mgrwt>
<rscale>  0 0.20617298E+04</rscale>
<asrwt>0</asrwt>
<pdfrwt beam="1">  1        2 0.93341034E-01 0.20617298E+04</pdfrwt>
<pdfrwt beam="2">  1       -1 0.26946613E+00 0.20617298E+04</pdfrwt>
<totfact> 0.26903442E+00</totfact>
</mgrwt>
</event>
<event>
12    6  0.1538774E-007  0.1578869E+04  0.7818608E-02  0.8833636E-01
          2   -1    0    0  501    0  0.00000000000E+00  0.00000000000E+00  0.52149301649E+03  0.52149301649E+03  0.00000000000E+00 0. -1.
         -1   -1    0    0    0  501 -0.00000000000E+00 -0.00000000000E+00 -0.11950435241E+04  0.11950435241E+04  0.00000000000E+00 0.  1.
         24    2    1    2    0    0  0.18166021999E+03  0.18471509208E+03  0.28946592122E+03  0.39659700675E+03  0.79865921669E+02 0.  0.
        254    2    1    2    0    0 -0.18166021999E+03 -0.18471509208E+03 -0.96301642880E+03  0.13199395338E+04  0.86470782927E+03 0.  0.
         23    2    4    4    0    0  0.27429663569E+03 -0.20043599922E+03 -0.70308020406E+03  0.78688217272E+03  0.97203633047E+02 0.  0.
         23    2    4    4    0    0 -0.45595685568E+03  0.15720907144E+02 -0.25993622474E+03  0.53305736109E+03  0.91866795472E+02 0.  0.
          2    1    3    3  502    0  0.11767716555E+03  0.64297400383E+02  0.12982156702E+03  0.18664327004E+03  0.00000000000E+00 0. -1.
         -1    1    3    3    0  502  0.63983054442E+02  0.12041769169E+03  0.15964435421E+03  0.20995373671E+03  0.00000000000E+00 0.  1.
         11    1    5    5    0    0  0.14963750348E+03 -0.83963468216E+02 -0.25434630279E+03  0.30681148640E+03  0.00000000000E+00 0. -1.
        -11    1    5    5    0    0  0.12465913221E+03 -0.11647253101E+03 -0.44873390127E+03  0.48007068633E+03  0.00000000000E+00 0.  1.
          1    1    6    6  503    0 -0.38548552743E+03  0.11618679399E+02 -0.25490329411E+03  0.46228754571E+03  0.00000000000E+00 0. -1.
         -1    1    6    6    0  503 -0.70471328253E+02  0.41022277450E+01 -0.50329306359E+01  0.70769815381E+02  0.00000000000E+00 0.  1.
<mgrwt>
<rscale>  0 0.15788690E+04</rscale>
<asrwt>0</asrwt>
<pdfrwt beam="1">  1        2 0.80229696E-01 0.15788690E+04</pdfrwt>
<pdfrwt beam="2">  1       -1 0.18385285E+00 0.15788690E+04</pdfrwt>
<totfact> 0.12567667E+01</totfact>
</mgrwt>
</event>
<event>
12    6  0.1538774E-007  0.2393907E+04  0.7818608E-02  0.8441788E-01
          2   -1    0    0  501    0  0.00000000000E+00  0.00000000000E+00  0.17190029776E+04  0.17190029776E+04  0.00000000000E+00 0. -1.
         -1   -1    0    0    0  501 -0.00000000000E+00 -0.00000000000E+00 -0.83344722407E+03  0.83344722407E+03  0.00000000000E+00 0.  1.
         24    2    1    2    0    0  0.24692728634E+03 -0.83163183312E+03  0.96554633926E+03  0.13004958054E+04  0.80156197595E+02 0.  0.
        254    2    1    2    0    0 -0.24692728634E+03  0.83163183312E+03 -0.79990585698E+02  0.12519543963E+04  0.89911441207E+03 0.  0.
         23    2    4    4    0    0 -0.15716730752E+02  0.40544090556E+03  0.39004376559E+03  0.57059728244E+03  0.93903014521E+02 0.  0.
         23    2    4    4    0    0 -0.23121055559E+03  0.42619092757E+03 -0.47003435128E+03  0.68135711384E+03  0.90654274285E+02 0.  0.
          4    1    3    3  502    0  0.18152753688E+03 -0.71301642462E+03  0.81516059002E+03  0.10981035725E+04  0.00000000000E+00 0. -1.
         -3    1    3    3    0  502  0.65399749462E+02 -0.11861540850E+03  0.15038574924E+03  0.20239223290E+03  0.00000000000E+00 0.  1.
         11    1    5    5    0    0  0.19706950462E+02  0.69170963062E+02  0.33921036748E+02  0.79521209508E+02  0.00000000000E+00 0. -1.
        -11    1    5    5    0    0 -0.35423681214E+02  0.33626994249E+03  0.35612272884E+03  0.49107607294E+03  0.00000000000E+00 0.  1.
          3    1    6    6  503    0  0.58679970638E+01  0.16654582740E+01 -0.11484369389E+02  0.13003764111E+02  0.00000000000E+00 0. -1.
         -3    1    6    6    0  503 -0.23707855265E+03  0.42452546929E+03 -0.45854998189E+03  0.66835334973E+03  0.00000000000E+00 0.  1.
<mgrwt>
<rscale>  0 0.23939075E+04</rscale>
<asrwt>0</asrwt>
<pdfrwt beam="1">  1        2 0.26446200E+00 0.23939075E+04</pdfrwt>
<pdfrwt beam="2">  1       -1 0.12822265E+00 0.23939075E+04</pdfrwt>
<totfact> 0.51477238E+00</totfact>
</mgrwt>
</event>
<event>
12    6  0.1538774E-007  0.1978455E+04  0.7818608E-02  0.8616760E-01
         -1   -1    0    0    0  501 -0.00000000000E+00  0.00000000000E+00  0.27437951074E+03  0.27437951074E+03  0.00000000000E+00 0.  1.
          2   -1    0    0  501    0  0.00000000000E+00 -0.00000000000E+00 -0.35664868520E+04  0.35664868520E+04  0.00000000000E+00 0. -1.
         24    2    1    2    0    0 -0.62938406831E+03 -0.22426465828E+03 -0.21266240320E+04  0.22305756238E+04  0.80739689018E+02 0.  0.
        254    2    1    2    0    0  0.62938406831E+03  0.22426465828E+03 -0.11654833092E+04  0.16102907390E+04  0.88784344198E+03 0.  0.
         23    2    4    4    0    0  0.63393929533E+03  0.26442144973E+02 -0.12260303894E+04  0.13835659062E+04  0.92335713104E+02 0.  0.
         23    2    4    4    0    0 -0.45552270224E+01  0.19782251331E+03  0.60547080200E+02  0.22672483271E+03  0.92648281051E+02 0.  0.
          2    1    3    3  502    0 -0.41045264077E+03 -0.10493272630E+03 -0.13450957588E+04  0.14102357419E+04  0.00000000000E+00 0. -1.
         -3    1    3    3    0  502 -0.21893142754E+03 -0.11933193198E+03 -0.78152827320E+03  0.82033988186E+03  0.00000000000E+00 0.  1.
         11    1    5    5    0    0  0.29588240841E+03  0.25223542270E+01 -0.47518542816E+03  0.55978027208E+03  0.00000000000E+00 0. -1.
        -11    1    5    5    0    0  0.33805688693E+03  0.23919790746E+02 -0.75084496127E+03  0.82378563416E+03  0.00000000000E+00 0.  1.
          2    1    6    6  503    0  0.39055333805E+02  0.71208138962E+02  0.42306569345E+02  0.91573817016E+02  0.00000000000E+00 0.  1.
         -2    1    6    6    0  503 -0.43610560828E+02  0.12661437435E+03  0.18240510855E+02  0.13515101569E+03  0.00000000000E+00 0. -1.
<mgrwt>
<rscale>  0 0.19784549E+04</rscale>
<asrwt>0</asrwt>
<pdfrwt beam="1">  1        2 0.54869021E+00 0.19784549E+04</pdfrwt>
<pdfrwt beam="2">  1       -1 0.42212238E-01 0.19784549E+04</pdfrwt>
<totfact> 0.42909399E+00</totfact>
</mgrwt>
</event>
<event>
12    6  0.1538774E-007  0.1443044E+04  0.7818608E-02  0.8923237E-01
          2   -1    0    0  501    0  0.00000000000E+00  0.00000000000E+00  0.17914249618E+04  0.17914249618E+04  0.00000000000E+00 0. -1.
         -1   -1    0    0    0  501 -0.00000000000E+00 -0.00000000000E+00 -0.29060334614E+03  0.29060334614E+03  0.00000000000E+00 0.  1.
         24    2    1    2    0    0 -0.40695423104E+03  0.33594691813E+02  0.21521169801E+03  0.46852638532E+03  0.80377542244E+02 0.  0.
        254    2    1    2    0    0  0.40695423104E+03 -0.33594691813E+02  0.12856099177E+04  0.16135019227E+04  0.88535599873E+03 0.  0.
         23    2    4    4    0    0  0.47246571085E+03 -0.36056710375E+03  0.99313697032E+03  0.11610307843E+04  0.91863791225E+02 0.  0.
         23    2    4    4    0    0 -0.65511479809E+02  0.32697241194E+03  0.29247294738E+03  0.45247113832E+03  0.89369983285E+02 0.  0.
          4    1    3    3  502    0 -0.96035700274E+02  0.12188343488E+02  0.91533086390E+02  0.13322806517E+03  0.00000000000E+00 0. -1.
         -3    1    3    3    0  502 -0.31091853076E+03  0.21406348326E+02  0.12367861162E+03  0.33529832015E+03  0.00000000000E+00 0.  1.
         11    1    5    5    0    0  0.84955564579E+02 -0.10723095524E+03  0.19228030433E+03  0.23598228990E+03  0.00000000000E+00 0. -1.
        -11    1    5    5    0    0  0.38751014627E+03 -0.25333614851E+03  0.80085666598E+03  0.92504849444E+03  0.00000000000E+00 0.  1.
          4    1    6    6  503    0  0.19433955430E+01  0.19507140547E+03  0.14185664764E+03  0.24120517925E+03  0.00000000000E+00 0. -1.
         -4    1    6    6    0  503 -0.67454875352E+02  0.13190100647E+03  0.15061629974E+03  0.21126595907E+03  0.00000000000E+00 0.  1.
<mgrwt>
<rscale>  0 0.14430441E+04</rscale>
<asrwt>0</asrwt>
<pdfrwt beam="1">  1        2 0.27560383E+00 0.14430441E+04</pdfrwt>
<pdfrwt beam="2">  1       -1 0.44708208E-01 0.14430441E+04</pdfrwt>
<totfact> 0.47805441E+01</totfact>
</mgrwt>
</event>
<event>
12    6  0.1538774E-007  0.1989697E+04  0.7818608E-02  0.8611453E-01
         -1   -1    0    0    0  501 -0.00000000000E+00  0.00000000000E+00  0.13765757683E+04  0.13765757683E+04  0.00000000000E+00 0.  1.
          2   -1    0    0  501    0  0.00000000000E+00 -0.00000000000E+00 -0.71897476717E+03  0.71897476717E+03  0.00000000000E+00 0. -1.
         24    2    1    2    0    0  0.36522598623E+03  0.52849234837E+02 -0.46612128775E+03  0.59991883549E+03  0.80314952775E+02 0.  0.
        254    2    1    2    0    0 -0.36522598623E+03 -0.52849234837E+02  0.11237222889E+04  0.14956317000E+04  0.91541211310E+03 0.  0.
         23    2    4    4    0    0  0.21608563682E+03  0.11043772970E+03  0.71547632961E+03  0.76131092844E+03  0.93800090329E+02 0.  0.
         23    2    4    4    0    0 -0.58131162305E+03 -0.16328696454E+03  0.40824595932E+03  0.73432077158E+03  0.89310673440E+02 0.  0.
          4    1    3    3  502    0  0.25934463906E+03  0.61455514404E+02 -0.37435299281E+03  0.45953953615E+03  0.00000000000E+00 0. -1.
         -3    1    3    3    0  502  0.10588134717E+03 -0.86062795673E+01 -0.91768294944E+02  0.14037929934E+03  0.00000000000E+00 0.  1.
         11    1    5    5    0    0  0.14156799639E+03  0.81314743670E+02  0.33690259617E+03  0.37437540577E+03  0.00000000000E+00 0.  1.
        -11    1    5    5    0    0  0.74517640428E+02  0.29122986030E+02  0.37857373344E+03  0.38693552267E+03  0.00000000000E+00 0. -1.
          3    1    6    6  503    0 -0.45364052162E+03 -0.13279467255E+03  0.27300301716E+03  0.54585235668E+03  0.00000000000E+00 0. -1.
         -3    1    6    6    0  503 -0.12767110143E+03 -0.30492291987E+02  0.13524294216E+03  0.18846841490E+03  0.00000000000E+00 0.  1.
<mgrwt>
<rscale>  0 0.19896967E+04</rscale>
<asrwt>0</asrwt>
<pdfrwt beam="1">  1        2 0.11061150E+00 0.19896967E+04</pdfrwt>
<pdfrwt beam="2">  1       -1 0.21178089E+00 0.19896967E+04</pdfrwt>
<totfact> 0.52546384E+00</totfact>
</mgrwt>
</event>
<event>
12    6  0.1538774E-007  0.2316457E+04  0.7818608E-02  0.8471461E-01
         -1   -1    0    0    0  501 -0.00000000000E+00  0.00000000000E+00  0.73601796742E+03  0.73601796742E+03  0.00000000000E+00 0.  1.
          2   -1    0    0  501    0  0.00000000000E+00 -0.00000000000E+00 -0.18226358664E+04  0.18226358664E+04  0.00000000000E+00 0. -1.
         24    2    1    2    0    0  0.67783037141E+03  0.70242730883E+03 -0.43502517526E+03  0.10716049044E+04  0.78943216753E+02 0.  0.
        254    2    1    2    0    0 -0.67783037141E+03 -0.70242730883E+03 -0.65159272368E+03  0.14870489294E+04  0.91317211093E+03 0.  0.
         23    2    4    4    0    0 -0.55057762924E+03  0.44637003648E+02 -0.38218554279E+03  0.67776731762E+03  0.90413272299E+02 0.  0.
         23    2    4    4    0    0 -0.12725274217E+03 -0.74706431248E+03 -0.26940718089E+03  0.80928161175E+03  0.89767202370E+02 0.  0.
          4    1    3    3  502    0  0.11822724115E+03  0.16875607704E+03 -0.90432824668E+02  0.22502086540E+03  0.00000000000E+00 0. -1.
         -3    1    3    3    0  502  0.55960313026E+03  0.53367123179E+03 -0.34459235059E+03  0.84658403902E+03  0.00000000000E+00 0.  1.
         11    1    5    5    0    0 -0.38134578444E+02 -0.15598444230E+02 -0.46902972427E+02  0.62429531137E+02  0.00000000000E+00 0.  1.
        -11    1    5    5    0    0 -0.51244305079E+03  0.60235447878E+02 -0.33528257036E+03  0.61533778648E+03  0.00000000000E+00 0. -1.
          2    1    6    6  503    0 -0.89438713499E+02 -0.57895703887E+03 -0.24604833897E+03  0.63539776632E+03  0.00000000000E+00 0. -1.
         -2    1    6    6    0  503 -0.37814028671E+02 -0.16810727361E+03 -0.23358841919E+02  0.17388384543E+03  0.00000000000E+00 0.  1.
<mgrwt>
<rscale>  0 0.23164566E+04</rscale>
<asrwt>0</asrwt>
<pdfrwt beam="1">  1        2 0.28040551E+00 0.23164566E+04</pdfrwt>
<pdfrwt beam="2">  1       -1 0.11323353E+00 0.23164566E+04</pdfrwt>
<totfact> 0.61545347E+00</totfact>
</mgrwt>
</event>
<event>
12    6  0.1538774E-007  0.2030206E+04  0.7818608E-02  0.8592627E-01
          2   -1    0    0  501    0  0.00000000000E+00  0.00000000000E+00  0.94928040412E+03  0.94928040412E+03  0.00000000000E+00 0. -1.
         -1   -1    0    0    0  501 -0.00000000000E+00 -0.00000000000E+00 -0.10854901401E+04  0.10854901401E+04  0.00000000000E+00 0.  1.
         24    2    1    2    0    0 -0.18888872843E+03  0.70995242412E+02 -0.84438388052E+03  0.87190885999E+03  0.80756710386E+02 0.  0.
        254    2    1    2    0    0  0.18888872843E+03 -0.70995242412E+02  0.70817414452E+03  0.11628616842E+04  0.90000966747E+03 0.  0.
         23    2    4    4    0    0  0.56475088133E+02 -0.42388567052E+03  0.62720694773E+03  0.76421815641E+03  0.88160864619E+02 0.  0.
         23    2    4    4    0    0  0.13241364030E+03  0.35289042811E+03  0.80967196789E+02  0.39864352784E+03  0.10146895557E+03 0.  0.
          2    1    3    3  502    0 -0.90832742168E+02  0.58282963299E+02 -0.30485697659E+03  0.32339645489E+03  0.00000000000E+00 0. -1.
         -1    1    3    3    0  502 -0.98055986265E+02  0.12712279113E+02 -0.53952690392E+03  0.54851240509E+03  0.00000000000E+00 0.  1.
         11    1    5    5    0    0  0.19557857844E+02 -0.20113388639E+02  0.21563532573E+02  0.35384235798E+02  0.00000000000E+00 0.  1.
        -11    1    5    5    0    0  0.36917230289E+02 -0.40377228188E+03  0.60564341516E+03  0.72883392061E+03  0.00000000000E+00 0. -1.
          3    1    6    6  503    0  0.87845380234E+02  0.30983630608E+03  0.40387451459E+02  0.32457124584E+03  0.00000000000E+00 0. -1.
         -3    1    6    6    0  503  0.44568260066E+02  0.43054122026E+02  0.40579745330E+02  0.74072281994E+02  0.00000000000E+00 0.  1.
<mgrwt>
<rscale>  0 0.20302064E+04</rscale>
<asrwt>0</asrwt>
<pdfrwt beam="1">  1        2 0.14604314E+00 0.20302064E+04</pdfrwt>
<pdfrwt beam="2">  1       -1 0.16699848E+00 0.20302064E+04</pdfrwt>
<totfact> 0.74417238E+00</totfact>
</mgrwt>
</event>
<event>
12    6  0.1538774E-007  0.1592743E+04  0.7818608E-02  0.8825019E-01
          2   -1    0    0  501    0  0.00000000000E+00  0.00000000000E+00  0.28556157737E+04  0.28556157737E+04  0.00000000000E+00 0. -1.
         -1   -1    0    0    0  501 -0.00000000000E+00 -0.00000000000E+00 -0.22209128051E+03  0.22209128051E+03  0.00000000000E+00 0.  1.
         24    2    1    2    0    0  0.68109052045E+02  0.37902491020E+03  0.16186022540E+04  0.16656748799E+04  0.79377725006E+02 0.  0.
        254    2    1    2    0    0 -0.68109052045E+02 -0.37902491020E+03  0.10149222391E+04  0.14120321743E+04  0.90303321325E+03 0.  0.
         23    2    4    4    0    0  0.16681005404E+03 -0.29851034726E+03 -0.88298271820E+01  0.35532014040E+03  0.96127076166E+02 0.  0.
         23    2    4    4    0    0 -0.23491910609E+03 -0.80514562934E+02  0.10237520663E+04  0.10567120339E+04  0.83080972821E+02 0.  0.
          4    1    3    3  502    0  0.37907160689E+01  0.74499899733E+02  0.45933796767E+03  0.46535574900E+03  0.00000000000E+00 0. -1.
         -3    1    3    3    0  502  0.64318335976E+02  0.30452501046E+03  0.11592642864E+04  0.12003191309E+04  0.00000000000E+00 0.  1.
         11    1    5    5    0    0  0.17853357948E+03 -0.29061541572E+03 -0.82312432485E+01  0.34117343422E+03  0.00000000000E+00 0.  1.
        -11    1    5    5    0    0 -0.11723525440E+02 -0.78949315452E+01 -0.59858393349E+00  0.14146706174E+02  0.00000000000E+00 0. -1.
          1    1    6    6  503    0 -0.17074189000E+03 -0.74110325465E+02  0.87502428448E+03  0.89460194041E+03  0.00000000000E+00 0. -1.
         -1    1    6    6    0  503 -0.64177216091E+02 -0.64042374696E+01  0.14872778182E+03  0.16211009348E+03  0.00000000000E+00 0.  1.
<mgrwt>
<rscale>  0 0.15927427E+04</rscale>
<asrwt>0</asrwt>
<pdfrwt beam="1">  1        2 0.43932548E+00 0.15927427E+04</pdfrwt>
<pdfrwt beam="2">  1       -1 0.34167891E-01 0.15927427E+04</pdfrwt>
<totfact> 0.19024252E+01</totfact>
</mgrwt>
</event>
<event>
12    6  0.1538774E-007  0.1763310E+04  0.7818608E-02  0.8726058E-01
          2   -1    0    0  501    0  0.00000000000E+00  0.00000000000E+00  0.91336935638E+03  0.91336935638E+03  0.00000000000E+00 0. -1.
         -1   -1    0    0    0  501 -0.00000000000E+00 -0.00000000000E+00 -0.85104178449E+03  0.85104178449E+03  0.00000000000E+00 0.  1.
         24    2    1    2    0    0  0.44256921920E+03 -0.47764161506E+02 -0.45041829928E+03  0.63831924256E+03  0.80161600479E+02 0.  0.
        254    2    1    2    0    0 -0.44256921920E+03  0.47764161506E+02  0.51274587117E+03  0.11260918983E+04  0.89834609486E+03 0.  0.
         23    2    4    4    0    0 -0.51716337992E+03 -0.28715140598E+03  0.14693378553E+03  0.61628488076E+03  0.91124230760E+02 0.  0.
         23    2    4    4    0    0  0.74594160725E+02  0.33491556749E+03  0.36581208563E+03  0.50980701756E+03  0.91389206131E+02 0.  0.
          2    1    3    3  502    0  0.11298395753E+03  0.19146104506E+02 -0.93312878497E+02  0.14778105856E+03  0.00000000000E+00 0. -1.
         -1    1    3    3    0  502  0.32958526167E+03 -0.66910266012E+02 -0.35710542078E+03  0.49053818399E+03  0.00000000000E+00 0.  1.
         11    1    5    5    0    0 -0.56543063398E+02 -0.67871358107E+02  0.23599233609E+02  0.91436114838E+02  0.00000000000E+00 0. -1.
        -11    1    5    5    0    0 -0.46062031653E+03 -0.21928004787E+03  0.12333455192E+03  0.52484876592E+03  0.00000000000E+00 0.  1.
          4    1    6    6  503    0  0.54628328760E+02  0.67290700081E+02  0.92693665756E+02  0.12690314532E+03  0.00000000000E+00 0. -1.
         -4    1    6    6    0  503  0.19965831966E+02  0.26762486741E+03  0.27311841988E+03  0.38290387224E+03  0.00000000000E+00 0.  1.
<mgrwt>
<rscale>  0 0.17633099E+04</rscale>
<asrwt>0</asrwt>
<pdfrwt beam="1">  1        2 0.14051836E+00 0.17633099E+04</pdfrwt>
<pdfrwt beam="2">  1       -1 0.13092951E+00 0.17633099E+04</pdfrwt>
<totfact> 0.15457108E+01</totfact>
</mgrwt>
</event>
<event>
12    6  0.1538774E-007  0.1615822E+04  0.7818608E-02  0.8810886E-01
          2   -1    0    0  501    0  0.00000000000E+00  0.00000000000E+00  0.12205954458E+04  0.12205954458E+04  0.00000000000E+00 0. -1.
         -1   -1    0    0    0  501 -0.00000000000E+00 -0.00000000000E+00 -0.53475586820E+03  0.53475586820E+03  0.00000000000E+00 0.  1.
         24    2    1    2    0    0  0.52013042631E+03  0.18899293229E+03  0.19650557725E+03  0.59268770715E+03  0.80064271022E+02 0.  0.
        254    2    1    2    0    0 -0.52013042631E+03 -0.18899293229E+03  0.48933400031E+03  0.11626636068E+04  0.89782231534E+03 0.  0.
         23    2    4    4    0    0  0.13666322574E+03  0.21758429365E+03  0.89171607642E+02  0.28783747938E+03  0.94228853404E+02 0.  0.
         23    2    4    4    0    0 -0.65679365205E+03 -0.40657722593E+03  0.40016239267E+03  0.87482612743E+03  0.92238119586E+02 0.  0.
          2    1    3    3  502    0  0.89379334745E+02  0.54288942289E+02  0.62773725291E+02  0.12196923924E+03  0.00000000000E+00 0. -1.
         -1    1    3    3    0  502  0.43075109156E+03  0.13470399000E+03  0.13373185196E+03  0.47071846791E+03  0.00000000000E+00 0.  1.
         11    1    5    5    0    0  0.14624282942E+03  0.20096701217E+03  0.64856704830E+02  0.25686785961E+03  0.00000000000E+00 0.  1.
        -11    1    5    5    0    0 -0.95796036735E+01  0.16617281474E+02  0.24314902812E+02  0.30969619773E+02  0.00000000000E+00 0. -1.
          2    1    6    6  503    0 -0.17222419880E+03 -0.11925510556E+03  0.15423742465E+03  0.26013868996E+03  0.00000000000E+00 0. -1.
         -2    1    6    6    0  503 -0.48456945326E+03 -0.28732212037E+03  0.24592496802E+03  0.61468743747E+03  0.00000000000E+00 0.  1.
<mgrwt>
<rscale>  0 0.16158225E+04</rscale>
<asrwt>0</asrwt>
<pdfrwt beam="1">  1        2 0.18778391E+00 0.16158225E+04</pdfrwt>
<pdfrwt beam="2">  1       -1 0.82270134E-01 0.16158225E+04</pdfrwt>
<totfact> 0.29544161E+01</totfact>
</mgrwt>
</event>
<event>
12    6  0.1538774E-007  0.1116293E+04  0.7818608E-02  0.9189456E-01
          2   -1    0    0  501    0  0.00000000000E+00  0.00000000000E+00  0.13776800656E+04  0.13776800656E+04  0.00000000000E+00 0. -1.
         -1   -1    0    0    0  501 -0.00000000000E+00 -0.00000000000E+00 -0.22612472015E+03  0.22612472015E+03  0.00000000000E+00 0.  1.
         24    2    1    2    0    0  0.16573144808E+03  0.46464123913E+02  0.28540762161E+03  0.34296994683E+03  0.80901460187E+02 0.  0.
        254    2    1    2    0    0 -0.16573144808E+03 -0.46464123913E+02  0.86614772380E+03  0.12608348389E+04  0.89992598796E+03 0.  0.
         23    2    4    4    0    0  0.16993537012E+03  0.15894462615E+03  0.81771506127E+03  0.85429073650E+03  0.83745548224E+02 0.  0.
         23    2    4    4    0    0 -0.33566681820E+03 -0.20540875006E+03  0.48432662530E+02  0.40654410238E+03  0.89818800604E+02 0.  0.
          2    1    3    3  502    0  0.11948492402E+03  0.26503375141E+02  0.25816013484E+03  0.28570217217E+03  0.00000000000E+00 0. -1.
         -1    1    3    3    0  502  0.46246524058E+02  0.19960748771E+02  0.27247486772E+02  0.57267774658E+02  0.00000000000E+00 0.  1.
         11    1    5    5    0    0  0.10549710701E+03  0.13956456815E+03  0.50587145541E+03  0.53526987368E+03  0.00000000000E+00 0.  1.
        -11    1    5    5    0    0  0.64438263110E+02  0.19380057999E+02  0.31184360586E+03  0.31902086282E+03  0.00000000000E+00 0. -1.
          2    1    6    6  503    0 -0.27484592408E+02  0.58727174282E+01 -0.65763535516E+01  0.28864165601E+02  0.00000000000E+00 0. -1.
         -2    1    6    6    0  503 -0.30818222579E+03 -0.21128146749E+03  0.55009016082E+02  0.37767993678E+03  0.00000000000E+00 0.  1.
<mgrwt>
<rscale>  0 0.11162930E+04</rscale>
<asrwt>0</asrwt>
<pdfrwt beam="1">  1        2 0.21195077E+00 0.11162930E+04</pdfrwt>
<pdfrwt beam="2">  1       -1 0.34788419E-01 0.11162930E+04</pdfrwt>
<totfact> 0.13204359E+02</totfact>
</mgrwt>
</event>
<event>
12    6  0.1538774E-007  0.2427967E+04  0.7818608E-02  0.8429107E-01
          2   -1    0    0  501    0  0.00000000000E+00  0.00000000000E+00  0.90186096333E+03  0.90186096333E+03  0.00000000000E+00 0. -1.
         -1   -1    0    0    0  501 -0.00000000000E+00 -0.00000000000E+00 -0.16341272468E+04  0.16341272468E+04  0.00000000000E+00 0.  1.
         24    2    1    2    0    0  0.40893781909E+03  0.67627840517E+03 -0.10254486501E+04  0.12972379047E+04  0.81845136202E+02 0.  0.
        254    2    1    2    0    0 -0.40893781909E+03 -0.67627840517E+03  0.29318236663E+03  0.12387503054E+04  0.90772451647E+03 0.  0.
         23    2    4    4    0    0 -0.66266505913E+02 -0.54632563706E+03  0.54879515082E+03  0.78211943044E+03  0.87588437543E+02 0.  0.
         23    2    4    4    0    0 -0.34267131318E+03 -0.12995276810E+03 -0.25561278419E+03  0.45663087494E+03  0.94140903427E+02 0.  0.
          4    1    3    3  502    0  0.31868847471E+03  0.46302261966E+03 -0.75337260780E+03  0.93995881634E+03  0.00000000000E+00 0. -1.
         -3    1    3    3    0  502  0.90249344380E+02  0.21325578550E+03 -0.27207604226E+03  0.35727908836E+03  0.00000000000E+00 0.  1.
         11    1    5    5    0    0 -0.31839202016E+02 -0.67449926674E+02  0.49961771056E+02  0.89774194290E+02  0.00000000000E+00 0. -1.
        -11    1    5    5    0    0 -0.34427303897E+02 -0.47887571039E+03  0.49883337976E+03  0.69234523615E+03  0.00000000000E+00 0.  1.
          1    1    6    6  503    0 -0.10943777717E+03 -0.47977982533E+02 -0.13895888798E+03  0.18327052798E+03  0.00000000000E+00 0. -1.
         -1    1    6    6    0  503 -0.23323353601E+03 -0.81974785569E+02 -0.11665389621E+03  0.27336034696E+03  0.00000000000E+00 0.  1.
<mgrwt>
<rscale>  0 0.24279667E+04</rscale>
<asrwt>0</asrwt>
<pdfrwt beam="1">  1        2 0.13874784E+00 0.24279667E+04</pdfrwt>
<pdfrwt beam="2">  1       -1 0.25140419E+00 0.24279667E+04</pdfrwt>
<totfact> 0.20418328E+00</totfact>
</mgrwt>
</event>
<event>
12    6  0.1538774E-007  0.1759525E+04  0.7818608E-02  0.8728125E-01
         -1   -1    0    0    0  501 -0.00000000000E+00  0.00000000000E+00  0.55239631614E+03  0.55239631614E+03  0.00000000000E+00 0.  1.
          2   -1    0    0  501    0  0.00000000000E+00 -0.00000000000E+00 -0.14011353007E+04  0.14011353007E+04  0.00000000000E+00 0. -1.
         24    2    1    2    0    0 -0.22311818558E+03 -0.56520154419E+03 -0.63582001599E+02  0.61588213489E+03  0.77676398354E+02 0.  0.
        254    2    1    2    0    0  0.22311818558E+03  0.56520154419E+03 -0.78515698299E+03  0.13376494820E+04  0.89643747045E+03 0.  0.
         23    2    4    4    0    0  0.55084033794E+03  0.34094074979E+03 -0.35126777865E+03  0.74285210369E+03  0.93672423202E+02 0.  0.
         23    2    4    4    0    0 -0.32772215236E+03  0.22426079440E+03 -0.43388920434E+03  0.59479737830E+03  0.88483707765E+02 0.  0.
          4    1    3    3  502    0 -0.44739949679E+01 -0.17232738952E+02  0.11424708043E+02  0.21154381972E+02  0.00000000000E+00 0. -1.
         -3    1    3    3    0  502 -0.21864419061E+03 -0.54796880524E+03 -0.75006709642E+02  0.59472775292E+03  0.00000000000E+00 0.  1.
         11    1    5    5    0    0  0.11771241001E+03  0.62080059565E+02 -0.11598578730E+03  0.17653002046E+03  0.00000000000E+00 0.  1.
        -11    1    5    5    0    0  0.43312792793E+03  0.27886069023E+03 -0.23528199135E+03  0.56632208323E+03  0.00000000000E+00 0. -1.
          1    1    6    6  503    0 -0.88410032923E+02  0.34751838843E+02 -0.15228348858E+03  0.17948338396E+03  0.00000000000E+00 0. -1.
         -1    1    6    6    0  503 -0.23931211943E+03  0.18950895555E+03 -0.28160571576E+03  0.41531399433E+03  0.00000000000E+00 0.  1.
<mgrwt>
<rscale>  0 0.17595249E+04</rscale>
<asrwt>0</asrwt>
<pdfrwt beam="1">  1        2 0.21555927E+00 0.17595249E+04</pdfrwt>
<pdfrwt beam="2">  1       -1 0.84984050E-01 0.17595249E+04</pdfrwt>
<totfact> 0.21362645E+01</totfact>
</mgrwt>
</event>
<event>
12    6  0.1538774E-007  0.1566662E+04  0.7818608E-02  0.8841295E-01
         -1   -1    0    0    0  501 -0.00000000000E+00  0.00000000000E+00  0.32898400927E+03  0.32898400927E+03  0.00000000000E+00 0.  1.
          2   -1    0    0  501    0  0.00000000000E+00 -0.00000000000E+00 -0.18651594062E+04  0.18651594062E+04  0.00000000000E+00 0. -1.
         24    2    1    2    0    0 -0.14213094533E+03 -0.11918340082E+03 -0.11491726909E+04  0.11668526171E+04  0.80878105123E+02 0.  0.
        254    2    1    2    0    0  0.14213094533E+03  0.11918340082E+03 -0.38700270602E+03  0.10272907984E+04  0.93335384570E+03 0.  0.
         23    2    4    4    0    0  0.35243027011E+02  0.31976802398E+03  0.20107658687E+03  0.39041253200E+03  0.92176413677E+02 0.  0.
         23    2    4    4    0    0  0.10688791832E+03 -0.20058462316E+03 -0.58807929289E+03  0.63687826637E+03  0.90096910652E+02 0.  0.
          4    1    3    3  502    0 -0.11685398419E+03 -0.77594941822E+02 -0.63118041035E+03  0.64657910500E+03  0.00000000000E+00 0. -1.
         -3    1    3    3    0  502 -0.25276961133E+02 -0.41588459002E+02 -0.51799228059E+03  0.52027351214E+03  0.00000000000E+00 0.  1.
         11    1    5    5    0    0  0.14076081049E+02  0.45499842524E+02 -0.32615931706E+01  0.47738974826E+02  0.00000000000E+00 0. -1.
        -11    1    5    5    0    0  0.21166945962E+02  0.27426818146E+03  0.20433818004E+03  0.34267355717E+03  0.00000000000E+00 0.  1.
          3    1    6    6  503    0  0.22244783813E+02 -0.12352969399E+00 -0.26401560844E+02  0.34523732149E+02  0.00000000000E+00 0. -1.
         -3    1    6    6    0  503  0.84643134503E+02 -0.20046109346E+03 -0.56167773205E+03  0.60235453422E+03  0.00000000000E+00 0.  1.
<mgrwt>
<rscale>  0 0.15666622E+04</rscale>
<asrwt>0</asrwt>
<pdfrwt beam="1">  1        2 0.28694760E+00 0.15666622E+04</pdfrwt>
<pdfrwt beam="2">  1       -1 0.50612924E-01 0.15666622E+04</pdfrwt>
<totfact> 0.34097726E+01</totfact>
</mgrwt>
</event>
<event>
12    6  0.1538774E-007  0.1627586E+04  0.7818608E-02  0.8803778E-01
          2   -1    0    0  501    0  0.00000000000E+00  0.00000000000E+00  0.31215264074E+04  0.31215264074E+04  0.00000000000E+00 0. -1.
         -3   -1    0    0    0  501 -0.00000000000E+00 -0.00000000000E+00 -0.21215876700E+03  0.21215876700E+03  0.00000000000E+00 0.  1.
         24    2    1    2    0    0  0.23308272358E+03  0.44008632745E+03  0.48017164627E+03  0.69605884646E+03  0.77003741523E+02 0.  0.
        254    2    1    2    0    0 -0.23308272358E+03 -0.44008632745E+03  0.24291959941E+04  0.26376263279E+04  0.89893044020E+03 0.  0.
         23    2    4    4    0    0 -0.23494549481E+03 -0.57868911691E+03  0.23822799676E+04  0.24646002944E+04  0.94426094595E+02 0.  0.
         23    2    4    4    0    0  0.18627712250E+01  0.13860278946E+03  0.46916026483E+02  0.17302603354E+03  0.92318424918E+02 0.  0.
          2    1    3    3  502    0  0.21952209386E+03  0.40185897746E+03  0.46537833702E+03  0.65288405098E+03  0.00000000000E+00 0. -1.
         -1    1    3    3    0  502  0.13560629718E+02  0.38227349996E+02  0.14793309251E+02  0.43174795479E+02  0.00000000000E+00 0.  1.
         11    1    5    5    0    0 -0.88987771952E+02 -0.17262283331E+03  0.59149823457E+03  0.62256536013E+03  0.00000000000E+00 0.  1.
        -11    1    5    5    0    0 -0.14595772285E+03 -0.40606628360E+03  0.17907817331E+04  0.18420349343E+04  0.00000000000E+00 0. -1.
          1    1    6    6  503    0  0.35537279584E+02  0.73004980202E+02 -0.72717616836E+01  0.81519960087E+02  0.00000000000E+00 0. -1.
         -1    1    6    6    0  503 -0.33674508359E+02  0.65597809259E+02  0.54187788167E+02  0.91506073455E+02  0.00000000000E+00 0.  1.
<mgrwt>
<rscale>  0 0.16275862E+04</rscale>
<asrwt>0</asrwt>
<pdfrwt beam="1">  1        2 0.48023480E+00 0.16275862E+04</pdfrwt>
<pdfrwt beam="2">  1       -3 0.32639813E-01 0.16275862E+04</pdfrwt>
<totfact> 0.84214239E+00</totfact>
</mgrwt>
</event>
<event>
12    6  0.1538774E-007  0.3513942E+04  0.7818608E-02  0.8110494E-01
          2   -1    0    0  501    0  0.00000000000E+00  0.00000000000E+00  0.23528852981E+04  0.23528852981E+04  0.00000000000E+00 0. -1.
         -1   -1    0    0    0  501 -0.00000000000E+00 -0.00000000000E+00 -0.13119833264E+04  0.13119833264E+04  0.00000000000E+00 0.  1.
         24    2    1    2    0    0  0.58131419499E+02 -0.15522287456E+04  0.10308673162E+04  0.18659399051E+04  0.79063044452E+02 0.  0.
        254    2    1    2    0    0 -0.58131419499E+02  0.15522287456E+04  0.10034655469E+02  0.17989287195E+04  0.90733152859E+03 0.  0.
         23    2    4    4    0    0  0.99879577917E+02  0.11467704133E+04 -0.37135179779E+03  0.12130513474E+04  0.92374795758E+02 0.  0.
         23    2    4    4    0    0 -0.15801099742E+03  0.40545833233E+03  0.38138645325E+03  0.58587737205E+03  0.91829917753E+02 0.  0.
          2    1    3    3  502    0  0.74957546697E+02 -0.13406199997E+04  0.87663611139E+03  0.16035496529E+04  0.00000000000E+00 0. -1.
         -1    1    3    3    0  502 -0.16826127198E+02 -0.21160874588E+03  0.15423120484E+03  0.26239025218E+03  0.00000000000E+00 0.  1.
         11    1    5    5    0    0  0.24553108102E+02  0.33523009687E+03 -0.65040361587E+02  0.34236285079E+03  0.00000000000E+00 0. -1.
        -11    1    5    5    0    0  0.75326469815E+02  0.81154031641E+03 -0.30631143620E+03  0.87068849663E+03  0.00000000000E+00 0.  1.
          3    1    6    6  503    0 -0.17055788500E+02  0.61372416535E+01  0.38063463463E+01  0.18521715066E+02  0.00000000000E+00 0. -1.
         -3    1    6    6    0  503 -0.14095520892E+03  0.39932109067E+03  0.37758010691E+03  0.56735565698E+03  0.00000000000E+00 0.  1.
<mgrwt>
<rscale>  0 0.35139415E+04</rscale>
<asrwt>0</asrwt>
<pdfrwt beam="1">  1        2 0.36198235E+00 0.35139415E+04</pdfrwt>
<pdfrwt beam="2">  1       -1 0.20184359E+00 0.35139415E+04</pdfrwt>
<totfact> 0.57681835E-01</totfact>
</mgrwt>
</event>
<event>
12    6  0.1538774E-007  0.2266012E+04  0.7818608E-02  0.8491444E-01
          2   -1    0    0  501    0  0.00000000000E+00  0.00000000000E+00  0.77140218036E+03  0.77140218036E+03  0.00000000000E+00 0. -1.
         -1   -1    0    0    0  501 -0.00000000000E+00 -0.00000000000E+00 -0.16641153395E+04  0.16641153395E+04  0.00000000000E+00 0.  1.
         24    2    1    2    0    0  0.35266156392E+03  0.39888313772E+03  0.47783710080E+03  0.71994708355E+03  0.80731480768E+02 0.  0.
        254    2    1    2    0    0 -0.35266156392E+03 -0.39888313772E+03 -0.13705502599E+04  0.17155704363E+04  0.88390948103E+03 0.  0.
         23    2    4    4    0    0 -0.36611215943E+03  0.39337988061E+02 -0.13743366017E+03  0.40369844590E+03  0.92189119161E+02 0.  0.
         23    2    4    4    0    0  0.13450595508E+02 -0.43822112579E+03 -0.12331165997E+04  0.13118719904E+04  0.90625034995E+02 0.  0.
          4    1    3    3  502    0  0.27730896694E+03  0.28350694376E+03  0.31383438934E+03  0.50573557739E+03  0.00000000000E+00 0. -1.
         -3    1    3    3    0  502  0.75352596973E+02  0.11537619397E+03  0.16400271146E+03  0.21421150616E+03  0.00000000000E+00 0.  1.
         11    1    5    5    0    0 -0.33933785589E+03  0.54767007594E+02 -0.14301963831E+03  0.37229588032E+03  0.00000000000E+00 0. -1.
        -11    1    5    5    0    0 -0.26774303532E+02 -0.15429019533E+02  0.55859781322E+01  0.31402565581E+02  0.00000000000E+00 0.  1.
          4    1    6    6  503    0  0.30906247189E+02 -0.35882506424E+03 -0.90979488360E+03  0.97848727792E+03  0.00000000000E+00 0. -1.
         -4    1    6    6    0  503 -0.17455651681E+02 -0.79396061545E+02 -0.32332171614E+03  0.33338471245E+03  0.00000000000E+00 0.  1.
<mgrwt>
<rscale>  0 0.22660117E+04</rscale>
<asrwt>0</asrwt>
<pdfrwt beam="1">  1        2 0.11867726E+00 0.22660117E+04</pdfrwt>
<pdfrwt beam="2">  1       -1 0.25601775E+00 0.22660117E+04</pdfrwt>
<totfact> 0.23879598E+00</totfact>
</mgrwt>
</event>
<event>
12    6  0.1538774E-007  0.2310520E+04  0.7818608E-02  0.8473785E-01
          2   -1    0    0  501    0  0.00000000000E+00  0.00000000000E+00  0.16733818819E+04  0.16733818819E+04  0.00000000000E+00 0. -1.
         -1   -1    0    0    0  501 -0.00000000000E+00 -0.00000000000E+00 -0.79756192052E+03  0.79756192052E+03  0.00000000000E+00 0.  1.
         24    2    1    2    0    0 -0.96514861483E+01  0.75075650018E+03 -0.29729508843E+03  0.81118278927E+03  0.76841878342E+02 0.  0.
        254    2    1    2    0    0  0.96514861483E+01 -0.75075650018E+03  0.11731150498E+04  0.16597610131E+04  0.90270661174E+03 0.  0.
         23    2    4    4    0    0  0.39283532177E+03 -0.21492190492E+03  0.24803182179E+03  0.52047390776E+03  0.94139730192E+02 0.  0.
         23    2    4    4    0    0 -0.38318383562E+03 -0.53583459526E+03  0.92508322799E+03  0.11392871053E+04  0.90816101779E+02 0.  0.
          4    1    3    3  502    0 -0.37577408440E+01  0.79869076169E+02 -0.73392127731E+01  0.80293548860E+02  0.00000000000E+00 0. -1.
         -3    1    3    3    0  502 -0.58937453043E+01  0.67088742401E+03 -0.28995587566E+03  0.73088924041E+03  0.00000000000E+00 0.  1.
         11    1    5    5    0    0  0.16613647964E+03 -0.14411445902E+03  0.12571532105E+03  0.25332715826E+03  0.00000000000E+00 0. -1.
        -11    1    5    5    0    0  0.22669884213E+03 -0.70807445897E+02  0.12231650074E+03  0.26714674950E+03  0.00000000000E+00 0.  1.
          3    1    6    6  503    0 -0.33560476658E+02 -0.36749870869E+02  0.11744909721E+03  0.12755841421E+03  0.00000000000E+00 0. -1.
         -3    1    6    6    0  503 -0.34962335896E+03 -0.49908472439E+03  0.80763413078E+03  0.10117286911E+04  0.00000000000E+00 0.  1.
<mgrwt>
<rscale>  0 0.23105200E+04</rscale>
<asrwt>0</asrwt>
<pdfrwt beam="1">  1        2 0.25744337E+00 0.23105200E+04</pdfrwt>
<pdfrwt beam="2">  1       -1 0.12270183E+00 0.23105200E+04</pdfrwt>
<totfact> 0.61340329E+00</totfact>
</mgrwt>
</event>
<event>
12    6  0.1538774E-007  0.2133856E+04  0.7818608E-02  0.8546474E-01
          2   -1    0    0  501    0  0.00000000000E+00  0.00000000000E+00  0.16001979641E+04  0.16001979641E+04  0.00000000000E+00 0. -1.
         -3   -1    0    0    0  501 -0.00000000000E+00 -0.00000000000E+00 -0.71137151066E+03  0.71137151066E+03  0.00000000000E+00 0.  1.
         24    2    1    2    0    0  0.42349673311E+03  0.75890423455E+03  0.26026167164E+03  0.91083405531E+03  0.81224493984E+02 0.  0.
        254    2    1    2    0    0 -0.42349673311E+03 -0.75890423455E+03  0.62856478183E+03  0.14007354195E+04  0.90093335507E+03 0.  0.
         23    2    4    4    0    0 -0.48577569047E+03 -0.80274903876E+03  0.77033028504E+03  0.12174272930E+04  0.91304024849E+02 0.  0.
         23    2    4    4    0    0  0.62278957362E+02  0.43844804209E+02 -0.14176550322E+03  0.18330812651E+03  0.87768878055E+02 0.  0.
          2    1    3    3  502    0  0.52250713559E+02  0.15906186647E+03  0.50806553264E+02  0.17496319695E+03  0.00000000000E+00 0. -1.
         -1    1    3    3    0  502  0.37124601955E+03  0.59984236808E+03  0.20945511838E+03  0.73587085836E+03  0.00000000000E+00 0.  1.
         11    1    5    5    0    0 -0.39362363979E+03 -0.57517389333E+03  0.55784638032E+03  0.89272457197E+03  0.00000000000E+00 0.  1.
        -11    1    5    5    0    0 -0.92152050684E+02 -0.22757514543E+03  0.21248390473E+03  0.32470272101E+03  0.00000000000E+00 0. -1.
          2    1    6    6  503    0 -0.59124540313E+01  0.15474976515E+02 -0.93778609413E+02  0.95230560191E+02  0.00000000000E+00 0. -1.
         -2    1    6    6    0  503  0.68191411393E+02  0.28369827694E+02 -0.47986893802E+02  0.88077566315E+02  0.00000000000E+00 0.  1.
<mgrwt>
<rscale>  0 0.21338559E+04</rscale>
<asrwt>0</asrwt>
<pdfrwt beam="1">  1        2 0.24618430E+00 0.21338559E+04</pdfrwt>
<pdfrwt beam="2">  1       -3 0.10944177E+00 0.21338559E+04</pdfrwt>
<totfact> 0.45998633E+00</totfact>
</mgrwt>
</event>
<event>
12    6  0.1538774E-007  0.2599753E+04  0.7818608E-02  0.8368285E-01
         -1   -1    0    0    0  501 -0.00000000000E+00  0.00000000000E+00  0.65591584329E+03  0.65591584329E+03  0.00000000000E+00 0.  1.
          2   -1    0    0  501    0  0.00000000000E+00 -0.00000000000E+00 -0.25760615131E+04  0.25760615131E+04  0.00000000000E+00 0. -1.
         24    2    1    2    0    0 -0.50576687744E+03  0.85250886192E+03 -0.14292016064E+03  0.10046731781E+04  0.79815590931E+02 0.  0.
        254    2    1    2    0    0  0.50576687744E+03 -0.85250886192E+03 -0.17772255092E+04  0.22273041783E+04  0.90541807922E+03 0.  0.
         23    2    4    4    0    0  0.28576632910E+03 -0.73706981239E+03 -0.17946220148E+04  0.19630708068E+04  0.89691211429E+02 0.  0.
         23    2    4    4    0    0  0.22000054834E+03 -0.11543904953E+03  0.17396505556E+02  0.26423337152E+03  0.88262227446E+02 0.  0.
          2    1    3    3  502    0 -0.26437914271E+03  0.39628526436E+03 -0.37368681577E+02  0.47784386594E+03  0.00000000000E+00 0. -1.
         -1    1    3    3    0  502 -0.24138773473E+03  0.45622359755E+03 -0.10555147906E+03  0.52682931218E+03  0.00000000000E+00 0.  1.
         11    1    5    5    0    0  0.73782337186E+02 -0.21337060999E+03 -0.61501995341E+03  0.65514913842E+03  0.00000000000E+00 0. -1.
        -11    1    5    5    0    0  0.21198399191E+03 -0.52369920240E+03 -0.11796020614E+04  0.13079216684E+04  0.00000000000E+00 0.  1.
          2    1    6    6  503    0  0.48046657411E+02  0.86255620676E+01  0.18470989980E+02  0.52192519389E+02  0.00000000000E+00 0.  1.
         -2    1    6    6    0  503  0.17195389093E+03 -0.12406461159E+03 -0.10744844242E+01  0.21204085213E+03  0.00000000000E+00 0. -1.
<mgrwt>
<rscale>  0 0.25997535E+04</rscale>
<asrwt>0</asrwt>
<pdfrwt beam="1">  1        2 0.39631716E+00 0.25997535E+04</pdfrwt>
<pdfrwt beam="2">  1       -1 0.10091013E+00 0.25997535E+04</pdfrwt>
<totfact> 0.29507653E+00</totfact>
</mgrwt>
</event>
<event>
12    6  0.1538774E-007  0.4818118E+04  0.7818608E-02  0.7857194E-01
         -1   -1    0    0    0  501 -0.00000000000E+00  0.00000000000E+00  0.16477336676E+04  0.16477336676E+04  0.00000000000E+00 0.  1.
          2   -1    0    0  501    0  0.00000000000E+00 -0.00000000000E+00 -0.35221494562E+04  0.35221494562E+04  0.00000000000E+00 0. -1.
         24    2    1    2    0    0 -0.14247121388E+04  0.15294033469E+04  0.16745815528E+03  0.20985293393E+04  0.83089577597E+02 0.  0.
        254    2    1    2    0    0  0.14247121388E+04 -0.15294033469E+04 -0.20418739439E+04  0.30713537845E+04  0.94608963137E+03 0.  0.
         23    2    4    4    0    0  0.14916876446E+04 -0.11603840318E+04 -0.15515346730E+04  0.24468431244E+04  0.90323327600E+02 0.  0.
         23    2    4    4    0    0 -0.66975505790E+02 -0.36901931512E+03 -0.49033927089E+03  0.62451066008E+03  0.94445702234E+02 0.  0.
          2    1    3    3  502    0 -0.52634800641E+03  0.55494871890E+03  0.10086866915E+03  0.77148220515E+03  0.00000000000E+00 0. -1.
         -1    1    3    3    0  502 -0.89836413243E+03  0.97445462804E+03  0.66589486134E+02  0.13270471341E+04  0.00000000000E+00 0.  1.
         11    1    5    5    0    0  0.80639197905E+03 -0.68322346475E+03 -0.87695788127E+03  0.13733599136E+04  0.00000000000E+00 0. -1.
        -11    1    5    5    0    0  0.68529566557E+03 -0.47716056706E+03 -0.67457679172E+03  0.10734832108E+04  0.00000000000E+00 0.  1.
          4    1    6    6  503    0 -0.63144529189E+02 -0.26385046112E+03 -0.41205000239E+03  0.49334521572E+03  0.00000000000E+00 0. -1.
         -4    1    6    6    0  503 -0.38309766010E+01 -0.10516885400E+03 -0.78289268496E+02  0.13116544436E+03  0.00000000000E+00 0.  1.
<mgrwt>
<rscale>  0 0.48181176E+04</rscale>
<asrwt>0</asrwt>
<pdfrwt beam="1">  1        2 0.54186914E+00 0.48181176E+04</pdfrwt>
<pdfrwt beam="2">  1       -1 0.25349749E+00 0.48181176E+04</pdfrwt>
<totfact> 0.43422167E-02</totfact>
</mgrwt>
</event>
<event>
12    6  0.1538774E-007  0.2771736E+04  0.7818608E-02  0.8312097E-01
         -1   -1    0    0    0  501 -0.00000000000E+00  0.00000000000E+00  0.22091241690E+04  0.22091241690E+04  0.00000000000E+00 0.  1.
          2   -1    0    0  501    0  0.00000000000E+00 -0.00000000000E+00 -0.86940768810E+03  0.86940768810E+03  0.00000000000E+00 0. -1.
         24    2    1    2    0    0  0.28669854848E+03 -0.96524558402E+03 -0.15645716863E+03  0.10224624135E+04  0.83996703206E+02 0.  0.
        254    2    1    2    0    0 -0.28669854848E+03  0.96524558402E+03  0.14961736496E+04  0.20560694437E+04  0.98741626096E+03 0.  0.
         23    2    4    4    0    0 -0.64105571846E+03  0.66189157914E+03  0.87831137372E+03  0.12760590194E+04  0.88559895510E+02 0.  0.
         23    2    4    4    0    0  0.35435716998E+03  0.30335400488E+03  0.61786227583E+03  0.78001042426E+03  0.95235570395E+02 0.  0.
          2    1    3    3  502    0  0.23973213636E+03 -0.87441333344E+03 -0.15717677897E+03  0.92020362679E+03  0.00000000000E+00 0. -1.
         -1    1    3    3    0  502  0.46966412120E+02 -0.90832250576E+02  0.71961033985E+00  0.10225878667E+03  0.00000000000E+00 0.  1.
         11    1    5    5    0    0 -0.34480559334E+03  0.41301596789E+03  0.48554433179E+03  0.72472504101E+03  0.00000000000E+00 0. -1.
        -11    1    5    5    0    0 -0.29625012512E+03  0.24887561125E+03  0.39276704193E+03  0.55133397840E+03  0.00000000000E+00 0.  1.
          3    1    6    6  503    0  0.29731660981E+02 -0.10984483027E+01  0.26172160202E+02  0.39625247293E+02  0.00000000000E+00 0. -1.
         -3    1    6    6    0  503  0.32462550900E+03  0.30445245318E+03  0.59169011563E+03  0.74038517697E+03  0.00000000000E+00 0.  1.
<mgrwt>
<rscale>  0 0.27717356E+04</rscale>
<asrwt>0</asrwt>
<pdfrwt beam="1">  1        2 0.13375503E+00 0.27717356E+04</pdfrwt>
<pdfrwt beam="2">  1       -1 0.33986526E+00 0.27717356E+04</pdfrwt>
<totfact> 0.55467423E-01</totfact>
</mgrwt>
</event>
<event>
12    6  0.1538774E-007  0.1912639E+04  0.7818608E-02  0.8648591E-01
          2   -1    0    0  501    0  0.00000000000E+00  0.00000000000E+00  0.21344413480E+04  0.21344413480E+04  0.00000000000E+00 0. -1.
         -1   -1    0    0    0  501 -0.00000000000E+00 -0.00000000000E+00 -0.42847139591E+03  0.42847139591E+03  0.00000000000E+00 0.  1.
         24    2    1    2    0    0  0.68432937973E+03  0.27188760273E+03  0.66822406222E+03  0.99780891394E+03  0.82883429787E+02 0.  0.
        254    2    1    2    0    0 -0.68432937973E+03 -0.27188760273E+03  0.10377458898E+04  0.15651038299E+04  0.91126499883E+03 0.  0.
         23    2    4    4    0    0 -0.15185235681E+03 -0.50221835678E+03  0.72724824743E+03  0.90148142502E+03  0.92175539599E+02 0.  0.
         23    2    4    4    0    0 -0.53247702291E+03  0.23033075404E+03  0.31049764239E+03  0.66362240490E+03  0.86034145349E+02 0.  0.
          2    1    3    3  502    0  0.38623731631E+03  0.15024757807E+03  0.43076947485E+03  0.59775909838E+03  0.00000000000E+00 0. -1.
         -1    1    3    3    0  502  0.29809206342E+03  0.12164002466E+03  0.23745458737E+03  0.40004981557E+03  0.00000000000E+00 0.  1.
         11    1    5    5    0    0 -0.98510033171E+02 -0.28589593151E+03  0.49178260653E+03  0.57731346976E+03  0.00000000000E+00 0. -1.
        -11    1    5    5    0    0 -0.53342323643E+02 -0.21632242526E+03  0.23546564091E+03  0.32416795525E+03  0.00000000000E+00 0.  1.
          1    1    6    6  503    0 -0.36904191960E+03  0.13584037346E+03  0.17063467179E+03  0.42867322835E+03  0.00000000000E+00 0. -1.
         -1    1    6    6    0  503 -0.16343510331E+03  0.94490380580E+02  0.13986297060E+03  0.23494917655E+03  0.00000000000E+00 0.  1.
<mgrwt>
<rscale>  0 0.19126391E+04</rscale>
<asrwt>0</asrwt>
<pdfrwt beam="1">  1        2 0.32837559E+00 0.19126391E+04</pdfrwt>
<pdfrwt beam="2">  1       -1 0.65918677E-01 0.19126391E+04</pdfrwt>
<totfact> 0.13967217E+01</totfact>
</mgrwt>
</event>
<event>
12    6  0.1538774E-007  0.1384793E+04  0.7818608E-02  0.8964900E-01
         -1   -1    0    0    0  501 -0.00000000000E+00  0.00000000000E+00  0.90869075734E+03  0.90869075734E+03  0.00000000000E+00 0.  1.
          2   -1    0    0  501    0  0.00000000000E+00 -0.00000000000E+00 -0.52758637055E+03  0.52758637055E+03  0.00000000000E+00 0. -1.
         24    2    1    2    0    0  0.24027038648E+03 -0.25233267896E+03 -0.67220106722E+02  0.35958746168E+03  0.58163221698E+02 0.  0.
        254    2    1    2    0    0 -0.24027038648E+03  0.25233267896E+03  0.44832449352E+03  0.10766896662E+04  0.91480279095E+03 0.  0.
         23    2    4    4    0    0 -0.28023746590E+03  0.53355736454E+03  0.48422227816E+03  0.77799783746E+03  0.87137373622E+02 0.  0.
         23    2    4    4    0    0  0.39967079413E+02 -0.28122468558E+03 -0.35897784646E+02  0.29869182874E+03  0.85108556543E+02 0.  0.
          2    1    3    3  502    0  0.13254931995E+03 -0.15694837845E+03 -0.65753803877E+02  0.21569811877E+03  0.00000000000E+00 0. -1.
         -1    1    3    3    0  502  0.10772106653E+03 -0.95384300513E+02 -0.14663028455E+01  0.14388934291E+03  0.00000000000E+00 0.  1.
         11    1    5    5    0    0 -0.18001718252E+02  0.39575460177E+02  0.97093396918E+01  0.44548290489E+02  0.00000000000E+00 0.  1.
        -11    1    5    5    0    0 -0.26223574764E+03  0.49398190436E+03  0.47451293847E+03  0.73344954698E+03  0.00000000000E+00 0. -1.
          4    1    6    6  503    0 -0.44755147138E+01  0.37322375546E+01  0.46476777718E+01  0.74539075516E+01  0.00000000000E+00 0.  1.
         -4    1    6    6    0  503  0.44442594127E+02 -0.28495692313E+03 -0.40545462418E+02  0.29123792119E+03  0.00000000000E+00 0. -1.
<mgrwt>
<rscale>  0 0.13847929E+04</rscale>
<asrwt>0</asrwt>
<pdfrwt beam="1">  1        2 0.81167134E-01 0.13847929E+04</pdfrwt>
<pdfrwt beam="2">  1       -1 0.13979858E+00 0.13847929E+04</pdfrwt>
<totfact> 0.27107347E+01</totfact>
</mgrwt>
</event>
<event>
12    6  0.1538774E-007  0.1640465E+04  0.7818608E-02  0.8796068E-01
         -1   -1    0    0    0  501 -0.00000000000E+00  0.00000000000E+00  0.37369147793E+03  0.37369147793E+03  0.00000000000E+00 0.  1.
          2   -1    0    0  501    0  0.00000000000E+00 -0.00000000000E+00 -0.18003649206E+04  0.18003649206E+04  0.00000000000E+00 0. -1.
         24    2    1    2    0    0  0.46948266310E+03 -0.25805976513E+03 -0.77125864803E+03  0.94217080369E+03  0.76400967501E+02 0.  0.
        254    2    1    2    0    0 -0.46948266310E+03  0.25805976513E+03 -0.65541479461E+03  0.12318855948E+04  0.89496634148E+03 0.  0.
         23    2    4    4    0    0 -0.49329626057E+03 -0.22522266175E+03 -0.33534025696E+03  0.64445576693E+03  0.93828031696E+02 0.  0.
         23    2    4    4    0    0  0.23813597466E+02  0.48328242688E+03 -0.32007453765E+03  0.58742982788E+03  0.92179723826E+02 0.  0.
          4    1    3    3  502    0  0.41597867060E+03 -0.24345994398E+03 -0.65362247274E+03  0.81211657759E+03  0.00000000000E+00 0. -1.
         -3    1    3    3    0  502  0.53503992503E+02 -0.14599821144E+02 -0.11763617528E+03  0.13005422610E+03  0.00000000000E+00 0.  1.
         11    1    5    5    0    0 -0.38965857564E+03 -0.14808211636E+03 -0.28887149035E+03  0.50715762510E+03  0.00000000000E+00 0. -1.
        -11    1    5    5    0    0 -0.10363768493E+03 -0.77140545390E+02 -0.46468766610E+02  0.13729814183E+03  0.00000000000E+00 0.  1.
          4    1    6    6  503    0  0.33892639904E+02  0.47186379782E+03 -0.29328960691E+03  0.55661741641E+03  0.00000000000E+00 0. -1.
         -4    1    6    6    0  503 -0.10079042439E+02  0.11418629060E+02 -0.26784930742E+02  0.30812411476E+02  0.00000000000E+00 0.  1.
<mgrwt>
<rscale>  0 0.16404646E+04</rscale>
<asrwt>0</asrwt>
<pdfrwt beam="1">  1        2 0.27697923E+00 0.16404646E+04</pdfrwt>
<pdfrwt beam="2">  1       -1 0.57490995E-01 0.16404646E+04</pdfrwt>
<totfact> 0.28778367E+01</totfact>
</mgrwt>
</event>
<event>
12    6  0.1538774E-007  0.1609197E+04  0.7818608E-02  0.8814918E-01
          2   -1    0    0  501    0  0.00000000000E+00  0.00000000000E+00  0.10675389481E+04  0.10675389481E+04  0.00000000000E+00 0. -1.
         -1   -1    0    0    0  501 -0.00000000000E+00 -0.00000000000E+00 -0.60642131432E+03  0.60642131432E+03  0.00000000000E+00 0.  1.
         24    2    1    2    0    0 -0.27489709186E+03  0.64452414798E+02 -0.32719376019E+03  0.43947911742E+03  0.79772257452E+02 0.  0.
        254    2    1    2    0    0  0.27489709186E+03 -0.64452414798E+02  0.78831139401E+03  0.12344811450E+04  0.90707569620E+03 0.  0.
         23    2    4    4    0    0  0.26419429068E+03 -0.43151426340E+03  0.65634284549E+03  0.83382169472E+03  0.92029913652E+02 0.  0.
         23    2    4    4    0    0  0.10702801180E+02  0.36706184861E+03  0.13196854852E+03  0.40065945032E+03  0.90902951966E+02 0.  0.
          4    1    3    3  502    0 -0.22875652186E+02  0.30741417060E+02 -0.32414331333E+02  0.50189830260E+02  0.00000000000E+00 0. -1.
         -3    1    3    3    0  502 -0.25202143967E+03  0.33710997738E+02 -0.29477942886E+03  0.38928928716E+03  0.00000000000E+00 0.  1.
         11    1    5    5    0    0  0.18996043932E+03 -0.31614549462E+03  0.54003739910E+03  0.65396738046E+03  0.00000000000E+00 0. -1.
        -11    1    5    5    0    0  0.74233851360E+02 -0.11536876878E+03  0.11630544639E+03  0.17985431426E+03  0.00000000000E+00 0.  1.
          1    1    6    6  503    0 -0.19648014393E+02  0.30488977051E+03  0.85301709016E+02  0.31720686971E+03  0.00000000000E+00 0. -1.
         -1    1    6    6    0  503  0.30350815573E+02  0.62172078099E+02  0.46666839506E+02  0.83452580610E+02  0.00000000000E+00 0.  1.
<mgrwt>
<rscale>  0 0.16091965E+04</rscale>
<asrwt>0</asrwt>
<pdfrwt beam="1">  1        2 0.16423676E+00 0.16091965E+04</pdfrwt>
<pdfrwt beam="2">  1       -1 0.93295587E-01 0.16091965E+04</pdfrwt>
<totfact> 0.27824163E+01</totfact>
</mgrwt>
</event>
<event>
12    6  0.1538774E-007  0.2344030E+04  0.7818608E-02  0.8460760E-01
         -3   -1    0    0    0  501 -0.00000000000E+00  0.00000000000E+00  0.15109750048E+04  0.15109750048E+04  0.00000000000E+00 0.  1.
          2   -1    0    0  501    0  0.00000000000E+00 -0.00000000000E+00 -0.90909428355E+03  0.90909428355E+03  0.00000000000E+00 0. -1.
         24    2    1    2    0    0 -0.10769935677E+03 -0.47929488871E+03 -0.64040056801E+03  0.81153747474E+03  0.84601676215E+02 0.  0.
        254    2    1    2    0    0  0.10769935677E+03  0.47929488871E+03  0.12422812893E+04  0.16085318136E+04  0.89598496190E+03 0.  0.
         23    2    4    4    0    0  0.37783819646E+03  0.56691961658E+03  0.65191522274E+03  0.94707562546E+03  0.88313239864E+02 0.  0.
         23    2    4    4    0    0 -0.27013883969E+03 -0.87624727874E+02  0.59036606651E+03  0.66145618814E+03  0.91318731353E+02 0.  0.
          4    1    3    3  502    0 -0.10786941497E+03 -0.45870875594E+03 -0.57751423718E+03  0.74536717636E+03  0.00000000000E+00 0. -1.
         -3    1    3    3    0  502  0.17005819626E+00 -0.20586132770E+02 -0.62886330831E+02  0.66170298379E+02  0.00000000000E+00 0.  1.
         11    1    5    5    0    0  0.22640356442E+03  0.39746320384E+03  0.47133752733E+03  0.65680639237E+03  0.00000000000E+00 0.  1.
        -11    1    5    5    0    0  0.15143463204E+03  0.16945641274E+03  0.18057769541E+03  0.29026923309E+03  0.00000000000E+00 0. -1.
          4    1    6    6  503    0 -0.10353187198E+03 -0.13082178856E+01  0.28294888644E+03  0.30129824475E+03  0.00000000000E+00 0. -1.
         -4    1    6    6    0  503 -0.16660696771E+03 -0.86316509989E+02  0.30741718007E+03  0.36015794339E+03  0.00000000000E+00 0.  1.
<mgrwt>
<rscale>  0 0.23440296E+04</rscale>
<asrwt>0</asrwt>
<pdfrwt beam="1">  1        2 0.13986066E+00 0.23440296E+04</pdfrwt>
<pdfrwt beam="2">  1       -3 0.23245769E+00 0.23440296E+04</pdfrwt>
<totfact> 0.15193823E+00</totfact>
</mgrwt>
</event>
<event>
12    6  0.1538774E-007  0.2010941E+04  0.7818608E-02  0.8601523E-01
         -1   -1    0    0    0  501 -0.00000000000E+00  0.00000000000E+00  0.26417649357E+03  0.26417649357E+03  0.00000000000E+00 0.  1.
          2   -1    0    0  501    0  0.00000000000E+00 -0.00000000000E+00 -0.38268761366E+04  0.38268761366E+04  0.00000000000E+00 0. -1.
         24    2    1    2    0    0 -0.61812084650E+03 -0.35536195930E+03 -0.67301943472E+03  0.98367023310E+03  0.79350267727E+02 0.  0.
        254    2    1    2    0    0  0.61812084650E+03  0.35536195930E+03 -0.28896802084E+04  0.31073823971E+04  0.89287073663E+03 0.  0.
         23    2    4    4    0    0  0.55058645942E+03 -0.18753268225E+03 -0.15415189454E+04  0.16501204890E+04  0.91120870083E+02 0.  0.
         23    2    4    4    0    0  0.67534387080E+02  0.54289464155E+03 -0.13481612630E+04  0.14572619081E+04  0.82328565235E+02 0.  0.
          4    1    3    3  502    0 -0.24257738996E+01 -0.38183219815E+01  0.18037975212E+01  0.48700767205E+01  0.00000000000E+00 0. -1.
         -3    1    3    3    0  502 -0.61569507260E+03 -0.35154363731E+03 -0.67482323224E+03  0.97880015638E+03  0.00000000000E+00 0.  1.
         11    1    5    5    0    0  0.26163203100E+03 -0.52866815188E+02 -0.61994999775E+03  0.67496979155E+03  0.00000000000E+00 0. -1.
        -11    1    5    5    0    0  0.28895442841E+03 -0.13466586707E+03 -0.92156894765E+03  0.97515069745E+03  0.00000000000E+00 0.  1.
          4    1    6    6  503    0  0.15016652541E+02  0.17500684271E+03 -0.53773116231E+03  0.56569222884E+03  0.00000000000E+00 0. -1.
         -4    1    6    6    0  503  0.52517734539E+02  0.36788779884E+03 -0.81043010064E+03  0.89156967928E+03  0.00000000000E+00 0.  1.
<mgrwt>
<rscale>  0 0.20109408E+04</rscale>
<asrwt>0</asrwt>
<pdfrwt beam="1">  1        2 0.58875019E+00 0.20109408E+04</pdfrwt>
<pdfrwt beam="2">  1       -1 0.40642536E-01 0.20109408E+04</pdfrwt>
<totfact> 0.29524468E+00</totfact>
</mgrwt>
</event>
<event>
12    6  0.1538774E-007  0.1774458E+04  0.7818608E-02  0.8720001E-01
         -1   -1    0    0    0  501 -0.00000000000E+00  0.00000000000E+00  0.47299524261E+03  0.47299524261E+03  0.00000000000E+00 0.  1.
          2   -1    0    0  501    0  0.00000000000E+00 -0.00000000000E+00 -0.16642354479E+04  0.16642354479E+04  0.00000000000E+00 0. -1.
         24    2    1    2    0    0  0.31266591552E+03  0.57119493042E+03 -0.58394601787E+03  0.87830607067E+03  0.80031110978E+02 0.  0.
        254    2    1    2    0    0 -0.31266591552E+03 -0.57119493042E+03 -0.60729418746E+03  0.12589246199E+04  0.88997828352E+03 0.  0.
         23    2    4    4    0    0 -0.49672609344E+03 -0.28423443811E+02 -0.17373661276E+03  0.53482804905E+03  0.91169772287E+02 0.  0.
         23    2    4    4    0    0  0.18406017792E+03 -0.54277148661E+03 -0.43355757470E+03  0.72409657082E+03  0.88682791578E+02 0.  0.
          2    1    3    3  502    0  0.10323804715E+03  0.17981945179E+03 -0.23712862434E+03  0.31499700650E+03  0.00000000000E+00 0. -1.
         -1    1    3    3    0  502  0.20942786837E+03  0.39137547863E+03 -0.34681739353E+03  0.56330906417E+03  0.00000000000E+00 0.  1.
         11    1    5    5    0    0 -0.23101916639E+03 -0.40641773649E+02 -0.11994832732E+03  0.26345627764E+03  0.00000000000E+00 0.  1.
        -11    1    5    5    0    0 -0.26570692705E+03  0.12218329837E+02 -0.53788285447E+02  0.27137177141E+03  0.00000000000E+00 0. -1.
          1    1    6    6  503    0  0.18310430374E+03 -0.54490466058E+03 -0.42411275800E+03  0.71436678721E+03  0.00000000000E+00 0. -1.
         -1    1    6    6    0  503  0.95587417990E+00  0.21331739713E+01 -0.94448166952E+01  0.97297836073E+01  0.00000000000E+00 0.  1.
<mgrwt>
<rscale>  0 0.17744582E+04</rscale>
<asrwt>0</asrwt>
<pdfrwt beam="1">  1        2 0.25603622E+00 0.17744582E+04</pdfrwt>
<pdfrwt beam="2">  1       -1 0.72768500E-01 0.17744582E+04</pdfrwt>
<totfact> 0.21068403E+01</totfact>
</mgrwt>
</event>
<event>
12    6  0.1538774E-007  0.1116365E+04  0.7818608E-02  0.9189387E-01
          2   -1    0    0  501    0  0.00000000000E+00  0.00000000000E+00  0.82209090004E+02  0.82209090004E+02  0.00000000000E+00 0. -1.
         -1   -1    0    0    0  501 -0.00000000000E+00 -0.00000000000E+00 -0.37899424776E+04  0.37899424776E+04  0.00000000000E+00 0.  1.
         24    2    1    2    0    0  0.10304450432E+03  0.12159590782E+03 -0.37239313283E+03  0.41413066067E+03  0.86161615953E+02 0.  0.
        254    2    1    2    0    0 -0.10304450432E+03 -0.12159590782E+03 -0.33353402547E+04  0.34580209069E+04  0.89889389975E+03 0.  0.
         23    2    4    4    0    0 -0.21672314307E+03  0.34142102857E+03 -0.18284481398E+04  0.18748143376E+04  0.90382304391E+02 0.  0.
         23    2    4    4    0    0  0.11367863875E+03 -0.46301693639E+03 -0.15068921149E+04  0.15832065693E+04  0.92258760013E+02 0.  0.
          2    1    3    3  502    0  0.97657889453E+02  0.10291266455E+03 -0.22872545086E+03  0.26915313813E+03  0.00000000000E+00 0. -1.
         -1    1    3    3    0  502  0.53866148624E+01  0.18683243270E+02 -0.14366768197E+03  0.14497752254E+03  0.00000000000E+00 0.  1.
         11    1    5    5    0    0 -0.21384695698E+03  0.33322979273E+03 -0.16766240188E+04  0.17227422083E+04  0.00000000000E+00 0. -1.
        -11    1    5    5    0    0 -0.28761860851E+01  0.81912358409E+01 -0.15182412097E+03  0.15207212927E+03  0.00000000000E+00 0.  1.
          3    1    6    6  503    0  0.91751614957E+02 -0.37214572294E+03 -0.13155769262E+04  0.13702749530E+04  0.00000000000E+00 0. -1.
         -3    1    6    6    0  503  0.21927023793E+02 -0.90871213453E+02 -0.19131518870E+03  0.21293161633E+03  0.00000000000E+00 0.  1.
<mgrwt>
<rscale>  0 0.11163650E+04</rscale>
<asrwt>0</asrwt>
<pdfrwt beam="1">  1        2 0.12647554E-01 0.11163650E+04</pdfrwt>
<pdfrwt beam="2">  1       -1 0.58306800E+00 0.11163650E+04</pdfrwt>
<totfact> 0.28997466E-01</totfact>
</mgrwt>
</event>
<event>
12    6  0.1538774E-007  0.1665112E+04  0.7818608E-02  0.8781516E-01
         -1   -1    0    0    0  501 -0.00000000000E+00  0.00000000000E+00  0.29408067975E+03  0.29408067975E+03  0.00000000000E+00 0.  1.
          2   -1    0    0  501    0  0.00000000000E+00 -0.00000000000E+00 -0.23570054019E+04  0.23570054019E+04  0.00000000000E+00 0. -1.
         24    2    1    2    0    0 -0.11513678674E+03  0.56281555849E+03 -0.51160177655E+03  0.77094767437E+03  0.51050037374E+02 0.  0.
        254    2    1    2    0    0  0.11513678674E+03 -0.56281555849E+03 -0.15513229456E+04  0.18801384073E+04  0.89347619800E+03 0.  0.
         23    2    4    4    0    0 -0.18299710292E+03 -0.38313762688E+03 -0.19315067131E+03  0.47497756877E+03  0.89521663282E+02 0.  0.
         23    2    4    4    0    0  0.29813388966E+03 -0.17967793161E+03 -0.13581722743E+04  0.14051608385E+04  0.93150846176E+02 0.  0.
          4    1    3    3  502    0 -0.36461719410E+02  0.85083092996E+02 -0.81466691375E+02  0.12331022464E+03  0.00000000000E+00 0. -1.
         -3    1    3    3    0  502 -0.78675067329E+02  0.47773246549E+03 -0.43013508517E+03  0.64763744974E+03  0.00000000000E+00 0.  1.
         11    1    5    5    0    0 -0.49024822025E+02 -0.34733120882E+02 -0.35419993280E+02  0.69745242023E+02  0.00000000000E+00 0. -1.
        -11    1    5    5    0    0 -0.13397228089E+03 -0.34840450600E+03 -0.15773067803E+03  0.40523232675E+03  0.00000000000E+00 0.  1.
          3    1    6    6  503    0  0.14738274828E+01  0.54583805457E+01 -0.74395529052E+02  0.74610058494E+02  0.00000000000E+00 0.  1.
         -3    1    6    6    0  503  0.29666006218E+03 -0.18513631215E+03 -0.12837767452E+04  0.13305507800E+04  0.00000000000E+00 0. -1.
<mgrwt>
<rscale>  0 0.16651123E+04</rscale>
<asrwt>0</asrwt>
<pdfrwt beam="1">  1        2 0.36261622E+00 0.16651123E+04</pdfrwt>
<pdfrwt beam="2">  1       -1 0.45243181E-01 0.16651123E+04</pdfrwt>
<totfact> 0.22188959E+01</totfact>
</mgrwt>
</event>
<event>
12    6  0.1538774E-007  0.1670196E+04  0.7818608E-02  0.8778547E-01
         -1   -1    0    0    0  501 -0.00000000000E+00  0.00000000000E+00  0.31256673650E+03  0.31256673650E+03  0.00000000000E+00 0.  1.
          2   -1    0    0  501    0  0.00000000000E+00 -0.00000000000E+00 -0.22311683549E+04  0.22311683549E+04  0.00000000000E+00 0. -1.
         24    2    1    2    0    0 -0.20240738714E+03 -0.46908301308E+03 -0.23010337064E+03  0.56563100452E+03  0.77351461251E+02 0.  0.
        254    2    1    2    0    0  0.20240738714E+03  0.46908301308E+03 -0.16884982477E+04  0.19781040869E+04  0.89490883463E+03 0.  0.
         23    2    4    4    0    0  0.90562728639E+02 -0.12464298747E+03  0.37624337737E+01  0.17917781296E+03  0.91395025064E+02 0.  0.
         23    2    4    4    0    0  0.11184465850E+03  0.59372600055E+03 -0.16922606815E+04  0.17989262739E+04  0.85847151108E+02 0.  0.
          2    1    3    3  502    0 -0.19198709650E+03 -0.46138091822E+03 -0.23440798937E+03  0.55197690386E+03  0.00000000000E+00 0. -1.
         -1    1    3    3    0  502 -0.10420290641E+02 -0.77020948639E+01  0.43046187229E+01  0.13654100655E+02  0.00000000000E+00 0.  1.
         11    1    5    5    0    0 -0.13534262695E+01 -0.31362991287E+02 -0.30546299818E+02  0.43801203382E+02  0.00000000000E+00 0.  1.
        -11    1    5    5    0    0  0.91916154908E+02 -0.93279996184E+02  0.34308733592E+02  0.13537660958E+03  0.00000000000E+00 0. -1.
          3    1    6    6  503    0  0.42423521843E+02  0.41263254060E+03 -0.12101054082E+04  0.12792265115E+04  0.00000000000E+00 0. -1.
         -3    1    6    6    0  503  0.69421136657E+02  0.18109345995E+03 -0.48215527331E+03  0.51969976240E+03  0.00000000000E+00 0.  1.
<mgrwt>
<rscale>  0 0.16701964E+04</rscale>
<asrwt>0</asrwt>
<pdfrwt beam="1">  1        2 0.34325667E+00 0.16701964E+04</pdfrwt>
<pdfrwt beam="2">  1       -1 0.48087190E-01 0.16701964E+04</pdfrwt>
<totfact> 0.23299885E+01</totfact>
</mgrwt>
</event>
<event>
12    6  0.1538774E-007  0.1643692E+04  0.7818608E-02  0.8794147E-01
         -1   -1    0    0    0  501 -0.00000000000E+00  0.00000000000E+00  0.55070845973E+03  0.55070845973E+03  0.00000000000E+00 0.  1.
          2   -1    0    0  501    0  0.00000000000E+00 -0.00000000000E+00 -0.12264762776E+04  0.12264762776E+04  0.00000000000E+00 0. -1.
         24    2    1    2    0    0  0.50561726424E+03  0.42443253567E+02  0.37309234483E+02  0.51508488439E+03  0.80437624767E+02 0.  0.
        254    2    1    2    0    0 -0.50561726424E+03 -0.42443253567E+02 -0.71307705237E+03  0.12620998530E+04  0.90937720916E+03 0.  0.
         23    2    4    4    0    0 -0.45790582032E+03 -0.28675103200E+03 -0.81190631404E+03  0.97970793369E+03  0.93444517898E+02 0.  0.
         23    2    4    4    0    0 -0.47711443924E+02  0.24430777843E+03  0.98829261665E+02  0.28239191927E+03  0.89528211332E+02 0.  0.
          2    1    3    3  502    0  0.92930294321E+02 -0.22783509926E+02  0.83614550740E+00  0.95686086065E+02  0.00000000000E+00 0. -1.
         -1    1    3    3    0  502  0.41268696992E+03  0.65226763493E+02  0.36473088975E+02  0.41939879832E+03  0.00000000000E+00 0.  1.
         11    1    5    5    0    0 -0.16072434176E+03 -0.90947695714E+02 -0.35891045149E+03  0.40363412836E+03  0.00000000000E+00 0. -1.
        -11    1    5    5    0    0 -0.29718147856E+03 -0.19580333628E+03 -0.45299586255E+03  0.57607380532E+03  0.00000000000E+00 0.  1.
          2    1    6    6  503    0 -0.28770484959E+02  0.14933003265E+03  0.10585371275E+03  0.18528952469E+03  0.00000000000E+00 0. -1.
         -2    1    6    6    0  503 -0.18940958965E+02  0.94977745784E+02 -0.70244510872E+01  0.97102394583E+02  0.00000000000E+00 0.  1.
<mgrwt>
<rscale>  0 0.16436920E+04</rscale>
<asrwt>0</asrwt>
<pdfrwt beam="1">  1        2 0.18868866E+00 0.16436920E+04</pdfrwt>
<pdfrwt beam="2">  1       -1 0.84724378E-01 0.16436920E+04</pdfrwt>
<totfact> 0.27444856E+01</totfact>
</mgrwt>
</event>
<event>
12    6  0.1538774E-007  0.2610019E+04  0.7818608E-02  0.8364806E-01
          2   -1    0    0  501    0  0.00000000000E+00  0.00000000000E+00  0.24218104315E+04  0.24218104315E+04  0.00000000000E+00 0. -1.
         -1   -1    0    0    0  501 -0.00000000000E+00 -0.00000000000E+00 -0.70321344708E+03  0.70321344708E+03  0.00000000000E+00 0.  1.
         24    2    1    2    0    0 -0.72445934911E+03  0.88279298183E+03  0.91367110559E+03  0.14647461658E+04  0.80756694858E+02 0.  0.
        254    2    1    2    0    0  0.72445934911E+03 -0.88279298183E+03  0.80492587885E+03  0.16602777128E+04  0.89691226768E+03 0.  0.
         23    2    4    4    0    0 -0.16219799494E+03 -0.22897140767E+03  0.36826648965E+03  0.47180293672E+03  0.90783856554E+02 0.  0.
         23    2    4    4    0    0  0.88665734405E+03 -0.65382157417E+03  0.43665938920E+03  0.11884747761E+04  0.90315970960E+02 0.  0.
          4    1    3    3  502    0 -0.55221994302E+03  0.68965180646E+03  0.74665656455E+03  0.11567465172E+04  0.00000000000E+00 0. -1.
         -3    1    3    3    0  502 -0.17223940609E+03  0.19314117537E+03  0.16701454105E+03  0.30799964863E+03  0.00000000000E+00 0.  1.
         11    1    5    5    0    0  0.83496563659E+01 -0.24045690258E+01  0.26191975548E+01  0.90751809601E+01  0.00000000000E+00 0. -1.
        -11    1    5    5    0    0 -0.17054765130E+03 -0.22656683864E+03  0.36564729209E+03  0.46272775576E+03  0.00000000000E+00 0.  1.
          2    1    6    6  503    0  0.59096741776E+03 -0.40752051550E+03  0.32325720219E+03  0.78728055874E+03  0.00000000000E+00 0. -1.
         -2    1    6    6    0  503  0.29568992629E+03 -0.24630105866E+03  0.11340218701E+03  0.40119421734E+03  0.00000000000E+00 0.  1.
<mgrwt>
<rscale>  0 0.26100189E+04</rscale>
<asrwt>0</asrwt>
<pdfrwt beam="1">  1        2 0.37258621E+00 0.26100189E+04</pdfrwt>
<pdfrwt beam="2">  1       -1 0.10818669E+00 0.26100189E+04</pdfrwt>
<totfact> 0.30808024E+00</totfact>
</mgrwt>
</event>
<event>
12    6  0.1538774E-007  0.1190216E+04  0.7818608E-02  0.9121464E-01
         -1   -1    0    0    0  501 -0.00000000000E+00  0.00000000000E+00  0.17245818112E+03  0.17245818112E+03  0.00000000000E+00 0.  1.
          2   -1    0    0  501    0  0.00000000000E+00 -0.00000000000E+00 -0.20535616257E+04  0.20535616257E+04  0.00000000000E+00 0. -1.
         24    2    1    2    0    0  0.66900927675E+02  0.15854008640E+02 -0.92671338679E+03  0.93265948020E+03  0.79554516087E+02 0.  0.
        254    2    1    2    0    0 -0.66900927675E+02 -0.15854008640E+02 -0.95439005782E+03  0.12933603266E+04  0.87016864363E+03 0.  0.
         23    2    4    4    0    0  0.74463588477E+02 -0.34620969856E+03 -0.82333170268E+03  0.90125626981E+03  0.94772305248E+02 0.  0.
         23    2    4    4    0    0 -0.14136451615E+03  0.33035568992E+03 -0.13105835514E+03  0.39210405684E+03  0.86316224709E+02 0.  0.
          4    1    3    3  502    0  0.79952851801E+02  0.16857470821E+02 -0.88883448013E+03  0.89258241407E+03  0.00000000000E+00 0. -1.
         -3    1    3    3    0  502 -0.13051924126E+02 -0.10034621811E+01 -0.37878906660E+02  0.40077066129E+02  0.00000000000E+00 0.  1.
         11    1    5    5    0    0  0.86789815426E+02 -0.24807040220E+03 -0.52783357515E+03  0.58964368865E+03  0.00000000000E+00 0.  1.
        -11    1    5    5    0    0 -0.12326226949E+02 -0.98139296355E+02 -0.29549812754E+03  0.31161258116E+03  0.00000000000E+00 0. -1.
          3    1    6    6  503    0 -0.40297389437E+02  0.51493816058E+02  0.53971659320E+01  0.65609618866E+02  0.00000000000E+00 0. -1.
         -3    1    6    6    0  503 -0.10106712671E+03  0.27886187386E+03 -0.13645552107E+03  0.32649443797E+03  0.00000000000E+00 0.  1.
<mgrwt>
<rscale>  0 0.11902160E+04</rscale>
<asrwt>0</asrwt>
<pdfrwt beam="1">  1        2 0.31593257E+00 0.11902160E+04</pdfrwt>
<pdfrwt beam="2">  1       -1 0.26532027E-01 0.11902160E+04</pdfrwt>
<totfact> 0.88852159E+01</totfact>
</mgrwt>
</event>
<event>
12    6  0.1538774E-007  0.1781908E+04  0.7818608E-02  0.8715980E-01
          2   -1    0    0  501    0  0.00000000000E+00  0.00000000000E+00  0.12133656919E+04  0.12133656919E+04  0.00000000000E+00 0. -1.
         -1   -1    0    0    0  501 -0.00000000000E+00 -0.00000000000E+00 -0.65421256406E+03  0.65421256406E+03  0.00000000000E+00 0.  1.
         24    2    1    2    0    0  0.64451442807E+03  0.12863531166E+03  0.13702145693E+03  0.67567735358E+03  0.76283124529E+02 0.  0.
        254    2    1    2    0    0 -0.64451442807E+03 -0.12863531166E+03  0.42213167088E+03  0.11919009023E+04  0.90027036054E+03 0.  0.
         23    2    4    4    0    0 -0.16450848018E+03  0.37004916955E+03  0.12622991468E+03  0.43364494771E+03  0.90080638236E+02 0.  0.
         23    2    4    4    0    0 -0.48000594789E+03 -0.49868448121E+03  0.29590175620E+03  0.75825595463E+03  0.91117076353E+02 0.  0.
          4    1    3    3  502    0  0.28967483443E+03  0.67314812342E+02  0.99648518311E+02  0.31364409905E+03  0.00000000000E+00 0. -1.
         -3    1    3    3    0  502  0.35483959363E+03  0.61320499320E+02  0.37372938615E+02  0.36203325453E+03  0.00000000000E+00 0.  1.
         11    1    5    5    0    0 -0.11750528730E+03  0.28496658569E+03  0.54936076597E+02  0.31309969660E+03  0.00000000000E+00 0.  1.
        -11    1    5    5    0    0 -0.47003192875E+02  0.85082583861E+02  0.71293838078E+02  0.12054525111E+03  0.00000000000E+00 0. -1.
          1    1    6    6  503    0 -0.91100679782E+01 -0.35353113369E+02  0.67511098041E+01  0.37126990816E+02  0.00000000000E+00 0. -1.
         -1    1    6    6    0  503 -0.47089587991E+03 -0.46333136784E+03  0.28915064640E+03  0.72112896382E+03  0.00000000000E+00 0.  1.
<mgrwt>
<rscale>  0 0.17819081E+04</rscale>
<asrwt>0</asrwt>
<pdfrwt beam="1">  1        2 0.18667164E+00 0.17819081E+04</pdfrwt>
<pdfrwt beam="2">  1       -1 0.10064809E+00 0.17819081E+04</pdfrwt>
<totfact> 0.18827055E+01</totfact>
</mgrwt>
</event>
<event>
12    6  0.1538774E-007  0.1202388E+04  0.7818608E-02  0.9110769E-01
          2   -1    0    0  501    0  0.00000000000E+00  0.00000000000E+00  0.11826130286E+04  0.11826130286E+04  0.00000000000E+00 0. -1.
         -1   -1    0    0    0  501 -0.00000000000E+00 -0.00000000000E+00 -0.30562327981E+03  0.30562327981E+03  0.00000000000E+00 0.  1.
         24    2    1    2    0    0 -0.20641176882E+03 -0.14383625895E+02  0.35856095635E+01  0.22232663958E+03  0.81262359477E+02 0.  0.
        254    2    1    2    0    0  0.20641176882E+03  0.14383625895E+02  0.87340413921E+03  0.12659096688E+04  0.89268123773E+03 0.  0.
         23    2    4    4    0    0  0.26532408264E+03 -0.82515957794E+01 -0.90616140806E+02  0.29548720430E+03  0.92932476934E+02 0.  0.
         23    2    4    4    0    0 -0.58912313820E+02  0.22635221674E+02  0.96402028002E+03  0.97042246451E+03  0.91660489630E+02 0.  0.
          2    1    3    3  502    0 -0.20435809517E+02  0.28172075454E+01  0.27126272169E+02  0.34079225501E+02  0.00000000000E+00 0. -1.
         -1    1    3    3    0  502 -0.18597595930E+03 -0.17200833440E+02 -0.23540662606E+02  0.18824741408E+03  0.00000000000E+00 0.  1.
         11    1    5    5    0    0  0.23377422267E+03  0.13467435217E+02 -0.49580747069E+02  0.23935331515E+03  0.00000000000E+00 0. -1.
        -11    1    5    5    0    0  0.31549859975E+02 -0.21719030997E+02 -0.41035393737E+02  0.56133889150E+02  0.00000000000E+00 0.  1.
          3    1    6    6  503    0 -0.19945484101E+02  0.21975459345E+02  0.83773177454E+03  0.83825728104E+03  0.00000000000E+00 0. -1.
         -3    1    6    6    0  503 -0.38966829720E+02  0.65976232969E+00  0.12628850548E+03  0.13216518347E+03  0.00000000000E+00 0.  1.
<mgrwt>
<rscale>  0 0.12023877E+04</rscale>
<asrwt>0</asrwt>
<pdfrwt beam="1">  1        2 0.18194046E+00 0.12023877E+04</pdfrwt>
<pdfrwt beam="2">  1       -1 0.47018967E-01 0.12023877E+04</pdfrwt>
<totfact> 0.98378542E+01</totfact>
</mgrwt>
</event>
<event>
12    6  0.1538774E-007  0.1743542E+04  0.7818608E-02  0.8736913E-01
         -1   -1    0    0    0  501 -0.00000000000E+00  0.00000000000E+00  0.76572119404E+03  0.76572119404E+03  0.00000000000E+00 0.  1.
          2   -1    0    0  501    0  0.00000000000E+00 -0.00000000000E+00 -0.99250791015E+03  0.99250791015E+03  0.00000000000E+00 0. -1.
         24    2    1    2    0    0  0.44862673119E+02 -0.62066053363E+03  0.85973329574E+02  0.63326932653E+03  0.80040421566E+02 0.  0.
        254    2    1    2    0    0 -0.44862673119E+02  0.62066053363E+03 -0.31276004569E+03  0.11249597777E+04  0.88344977091E+03 0.  0.
         23    2    4    4    0    0  0.62779236029E+02  0.46151601104E+03 -0.60191919347E+03  0.76585664561E+03  0.85389842731E+02 0.  0.
         23    2    4    4    0    0 -0.10764190915E+03  0.15914452259E+03  0.28915914778E+03  0.35910313204E+03  0.91805702560E+02 0.  0.
          4    1    3    3  502    0  0.53846631491E+02 -0.38335926802E+03  0.82277275664E+02  0.39576929920E+03  0.00000000000E+00 0. -1.
         -3    1    3    3    0  502 -0.89839583717E+01 -0.23730126561E+03  0.36960539104E+01  0.23750002733E+03  0.00000000000E+00 0.  1.
         11    1    5    5    0    0  0.32572139832E+02  0.11394012130E+03 -0.10274064068E+03  0.15684047558E+03  0.00000000000E+00 0.  1.
        -11    1    5    5    0    0  0.30207096197E+02  0.34757588974E+03 -0.49917855279E+03  0.60901617003E+03  0.00000000000E+00 0. -1.
          4    1    6    6  503    0 -0.16001633771E+02  0.36376124878E+02  0.10493373984E+02  0.41102136709E+02  0.00000000000E+00 0.  1.
         -4    1    6    6    0  503 -0.91640275377E+02  0.12276839771E+03  0.27866577380E+03  0.31800099533E+03  0.00000000000E+00 0. -1.
<mgrwt>
<rscale>  0 0.17435416E+04</rscale>
<asrwt>0</asrwt>
<pdfrwt beam="1">  1        2 0.15269352E+00 0.17435416E+04</pdfrwt>
<pdfrwt beam="2">  1       -1 0.11780326E+00 0.17435416E+04</pdfrwt>
<totfact> 0.17850222E+01</totfact>
</mgrwt>
</event>
<event>
12    6  0.1538774E-007  0.2710899E+04  0.7818608E-02  0.8331477E-01
          2   -1    0    0  501    0  0.00000000000E+00  0.00000000000E+00  0.20432993662E+04  0.20432993662E+04  0.00000000000E+00 0. -1.
         -1   -1    0    0    0  501 -0.00000000000E+00 -0.00000000000E+00 -0.89915514379E+03  0.89915514379E+03  0.00000000000E+00 0.  1.
         24    2    1    2    0    0  0.73159518227E+02  0.34264762879E+03  0.17932975126E+04  0.18289079464E+04  0.78921448106E+02 0.  0.
        254    2    1    2    0    0 -0.73159518227E+02 -0.34264762879E+03 -0.64915329016E+03  0.11135465637E+04  0.83416200026E+03 0.  0.
         23    2    4    4    0    0 -0.19218945731E+03 -0.45557318851E+03 -0.74502347742E+03  0.89875741055E+03  0.90670742301E+02 0.  0.
         23    2    4    4    0    0  0.11902993909E+03  0.11292555972E+03  0.95870187263E+02  0.21478915311E+03  0.10011482932E+03 0.  0.
          2    1    3    3  502    0  0.27784777102E+02  0.25723323018E+03  0.14138228254E+04  0.14373016072E+04  0.00000000000E+00 0. -1.
         -1    1    3    3    0  502  0.45374741125E+02  0.85414398608E+02  0.37947468722E+03  0.39160633915E+03  0.00000000000E+00 0.  1.
         11    1    5    5    0    0 -0.17249970454E+03 -0.38911277890E+03 -0.68792085134E+03  0.80894993694E+03  0.00000000000E+00 0.  1.
        -11    1    5    5    0    0 -0.19689752769E+02 -0.66460409609E+02 -0.57102626083E+02  0.89807473603E+02  0.00000000000E+00 0. -1.
          1    1    6    6  503    0  0.82326128105E+02  0.12707410401E+03  0.64945758509E+02  0.16475245318E+03  0.00000000000E+00 0. -1.
         -1    1    6    6    0  503  0.36703810982E+02 -0.14148544295E+02  0.30924428754E+02  0.50036699932E+02  0.00000000000E+00 0.  1.
<mgrwt>
<rscale>  0 0.27108988E+04</rscale>
<asrwt>0</asrwt>
<pdfrwt beam="1">  1        2 0.31435375E+00 0.27108988E+04</pdfrwt>
<pdfrwt beam="2">  1       -1 0.13833156E+00 0.27108988E+04</pdfrwt>
<totfact> 0.27255251E+00</totfact>
</mgrwt>
</event>
<event>
12    6  0.1538774E-007  0.1363928E+04  0.7818608E-02  0.8980351E-01
         -1   -1    0    0    0  501 -0.00000000000E+00  0.00000000000E+00  0.55025532309E+03  0.55025532309E+03  0.00000000000E+00 0.  1.
          2   -1    0    0  501    0  0.00000000000E+00 -0.00000000000E+00 -0.84519824297E+03  0.84519824297E+03  0.00000000000E+00 0. -1.
         24    2    1    2    0    0  0.32971058733E+03  0.35655073269E+02  0.96338848536E+02  0.35481994285E+03  0.81459575616E+02 0.  0.
        254    2    1    2    0    0 -0.32971058733E+03 -0.35655073269E+02 -0.39128176842E+03  0.10406336232E+04  0.90544826457E+03 0.  0.
         23    2    4    4    0    0 -0.10379005281E+03 -0.44791294383E+03 -0.95510304575E+02  0.47838353735E+03  0.91269985288E+02 0.  0.
         23    2    4    4    0    0 -0.22592053452E+03  0.41225787056E+03 -0.29577146385E+03  0.56225008586E+03  0.87451474888E+02 0.  0.
          2    1    3    3  502    0  0.22519622672E+02 -0.11704658368E+02 -0.85463874114E+01  0.26780089070E+02  0.00000000000E+00 0. -1.
         -1    1    3    3    0  502  0.30719096466E+03  0.47359731638E+02  0.10488523595E+03  0.32803985378E+03  0.00000000000E+00 0.  1.
         11    1    5    5    0    0 -0.84832750334E+02 -0.26335965114E+03 -0.17850345811E+02  0.27726077296E+03  0.00000000000E+00 0. -1.
        -11    1    5    5    0    0 -0.18957302478E+02 -0.18455329270E+03 -0.77659958765E+02  0.20112276439E+03  0.00000000000E+00 0.  1.
          4    1    6    6  503    0 -0.92606474340E+01  0.73909947700E+02 -0.28778318121E+02  0.79853813646E+02  0.00000000000E+00 0.  1.
         -4    1    6    6    0  503 -0.21665988708E+03  0.33834792286E+03 -0.26699314573E+03  0.48239627221E+03  0.00000000000E+00 0. -1.
<mgrwt>
<rscale>  0 0.13639279E+04</rscale>
<asrwt>0</asrwt>
<pdfrwt beam="1">  1        2 0.13003050E+00 0.13639279E+04</pdfrwt>
<pdfrwt beam="2">  1       -1 0.84654665E-01 0.13639279E+04</pdfrwt>
<totfact> 0.49230588E+01</totfact>
</mgrwt>
</event>
<event>
12    6  0.1538774E-007  0.1606778E+04  0.7818608E-02  0.8816395E-01
         -1   -1    0    0    0  501 -0.00000000000E+00  0.00000000000E+00  0.29379192625E+03  0.29379192625E+03  0.00000000000E+00 0.  1.
          2   -1    0    0  501    0  0.00000000000E+00 -0.00000000000E+00 -0.21969090980E+04  0.21969090980E+04  0.00000000000E+00 0. -1.
         24    2    1    2    0    0  0.28830576362E+03  0.21375237252E+03 -0.83776754560E+01  0.36790083726E+03  0.80439732196E+02 0.  0.
        254    2    1    2    0    0 -0.28830576362E+03 -0.21375237252E+03 -0.18947394963E+04  0.21228001870E+04  0.88737398259E+03 0.  0.
         23    2    4    4    0    0 -0.18916850103E+03  0.33287279465E+03 -0.72306815661E+03  0.82303935596E+03  0.89315189915E+02 0.  0.
         23    2    4    4    0    0 -0.99137262592E+02 -0.54662516717E+03 -0.11716713397E+04  0.12997608310E+04  0.89091073802E+02 0.  0.
          2    1    3    3  502    0  0.10101929153E+03  0.10764962966E+03  0.26065727919E+02  0.14990917984E+03  0.00000000000E+00 0. -1.
         -1    1    3    3    0  502  0.18728647209E+03  0.10610274286E+03 -0.34443403375E+02  0.21799165742E+03  0.00000000000E+00 0.  1.
         11    1    5    5    0    0 -0.58291812324E+02  0.19288121654E+03 -0.36755281300E+03  0.41916126900E+03  0.00000000000E+00 0. -1.
        -11    1    5    5    0    0 -0.13087668871E+03  0.13999157811E+03 -0.35551534361E+03  0.40387808696E+03  0.00000000000E+00 0.  1.
          1    1    6    6  503    0 -0.74849154873E+02 -0.22743510050E+03 -0.43494922743E+03  0.49649768516E+03  0.00000000000E+00 0. -1.
         -1    1    6    6    0  503 -0.24288107719E+02 -0.31919006668E+03 -0.73672211226E+03  0.80326314588E+03  0.00000000000E+00 0.  1.
<mgrwt>
<rscale>  0 0.16067783E+04</rscale>
<asrwt>0</asrwt>
<pdfrwt beam="1">  1        2 0.33798603E+00 0.16067783E+04</pdfrwt>
<pdfrwt beam="2">  1       -1 0.45198756E-01 0.16067783E+04</pdfrwt>
<totfact> 0.27508874E+01</totfact>
</mgrwt>
</event>
<event>
12    6  0.1538774E-007  0.1887809E+04  0.7818608E-02  0.8660948E-01
          2   -1    0    0  501    0  0.00000000000E+00  0.00000000000E+00  0.81786083768E+03  0.81786083768E+03  0.00000000000E+00 0. -1.
         -1   -1    0    0    0  501 -0.00000000000E+00 -0.00000000000E+00 -0.10893737409E+04  0.10893737409E+04  0.00000000000E+00 0.  1.
         24    2    1    2    0    0  0.18038189190E+03  0.59719503439E+03  0.25673088376E+03  0.67928326741E+03  0.79595695126E+02 0.  0.
        254    2    1    2    0    0 -0.18038189190E+03 -0.59719503439E+03 -0.52824378702E+03  0.12279513112E+04  0.91632057063E+03 0.  0.
         23    2    4    4    0    0 -0.42781434471E+03 -0.58317108818E+03 -0.11595992847E+03  0.73815357813E+03  0.91161221326E+02 0.  0.
         23    2    4    4    0    0  0.24743245282E+03 -0.14023946212E+02 -0.41228385854E+03  0.48979773307E+03  0.92219030223E+02 0.  0.
          4    1    3    3  502    0  0.10149548214E+03  0.38988339744E+03  0.12750825192E+03  0.42257395897E+03  0.00000000000E+00 0. -1.
         -3    1    3    3    0  502  0.78886409757E+02  0.20731163695E+03  0.12922263183E+03  0.25670930844E+03  0.00000000000E+00 0.  1.
         11    1    5    5    0    0 -0.41189607140E+03 -0.55792067843E+03 -0.91384077101E+02  0.69948903251E+03  0.00000000000E+00 0. -1.
        -11    1    5    5    0    0 -0.15918273308E+02 -0.25250409748E+02 -0.24575851371E+02  0.38664545622E+02  0.00000000000E+00 0.  1.
          2    1    6    6  503    0  0.13893457753E+03  0.19553067937E+02 -0.29429054522E+03  0.32602463757E+03  0.00000000000E+00 0. -1.
         -2    1    6    6    0  503  0.10849787529E+03 -0.33577014149E+02 -0.11799331332E+03  0.16377309550E+03  0.00000000000E+00 0.  1.
<mgrwt>
<rscale>  0 0.18878094E+04</rscale>
<asrwt>0</asrwt>
<pdfrwt beam="1">  1        2 0.12582474E+00 0.18878094E+04</pdfrwt>
<pdfrwt beam="2">  1       -1 0.16759596E+00 0.18878094E+04</pdfrwt>
<totfact> 0.91720878E+00</totfact>
</mgrwt>
</event>
<event>
12    6  0.1538774E-007  0.1257820E+04  0.7818608E-02  0.9063700E-01
          2   -1    0    0  501    0  0.00000000000E+00  0.00000000000E+00  0.44475518716E+03  0.44475518716E+03  0.00000000000E+00 0. -1.
         -3   -1    0    0    0  501 -0.00000000000E+00 -0.00000000000E+00 -0.88931536488E+03  0.88931536488E+03  0.00000000000E+00 0.  1.
         24    2    1    2    0    0 -0.14574274676E+03 -0.25873987846E+03 -0.67175289902E+02  0.31175321844E+03  0.67009526854E+02 0.  0.
        254    2    1    2    0    0  0.14574274676E+03  0.25873987846E+03 -0.37738488783E+03  0.10223173336E+04  0.90251099943E+03 0.  0.
         23    2    4    4    0    0  0.66257511676E+02  0.58707047571E+03 -0.27177447940E+03  0.65665206334E+03  0.91042645628E+02 0.  0.
         23    2    4    4    0    0  0.79485235087E+02 -0.32833059725E+03 -0.10561040842E+03  0.36566527027E+03  0.91862113126E+02 0.  0.
          2    1    3    3  502    0 -0.54610426270E+02 -0.50272272455E+02  0.10276053026E+01  0.74233792897E+02  0.00000000000E+00 0. -1.
         -1    1    3    3    0  502 -0.91132320494E+02 -0.20846760601E+03 -0.68202895205E+02  0.23751942554E+03  0.00000000000E+00 0.  1.
         11    1    5    5    0    0  0.33476692355E+02  0.53355155808E+03 -0.25054111761E+03  0.59039715927E+03  0.00000000000E+00 0. -1.
        -11    1    5    5    0    0  0.32780819321E+02  0.53518917630E+02 -0.21233361796E+02  0.66254904066E+02  0.00000000000E+00 0.  1.
          1    1    6    6  503    0  0.74964809661E+02 -0.31516902649E+03 -0.75718646490E+02  0.33269287845E+03  0.00000000000E+00 0. -1.
         -1    1    6    6    0  503  0.45204254268E+01 -0.13161570762E+02 -0.29891761934E+02  0.32972391822E+02  0.00000000000E+00 0.  1.
<mgrwt>
<rscale>  0 0.12578197E+04</rscale>
<asrwt>0</asrwt>
<pdfrwt beam="1">  1        2 0.68423876E-01 0.12578197E+04</pdfrwt>
<pdfrwt beam="2">  1       -3 0.13681775E+00 0.12578197E+04</pdfrwt>
<totfact> 0.17744904E+01</totfact>
</mgrwt>
</event>
<event>
12    6  0.1538774E-007  0.1165546E+04  0.7818608E-02  0.9143561E-01
         -1   -1    0    0    0  501 -0.00000000000E+00  0.00000000000E+00  0.19668113493E+03  0.19668113493E+03  0.00000000000E+00 0.  1.
          2   -1    0    0  501    0  0.00000000000E+00 -0.00000000000E+00 -0.17267753205E+04  0.17267753205E+04  0.00000000000E+00 0. -1.
         24    2    1    2    0    0 -0.94898884407E+01 -0.21777188358E+03 -0.36001504953E+03  0.42827648213E+03  0.79342661874E+02 0.  0.
        254    2    1    2    0    0  0.94898884407E+01  0.21777188358E+03 -0.11700791360E+04  0.14951799733E+04  0.90496592018E+03 0.  0.
         23    2    4    4    0    0  0.21771866849E+03 -0.19115269432E+03 -0.87931062770E+02  0.31628665139E+03  0.91458202983E+02 0.  0.
         23    2    4    4    0    0 -0.20822878005E+03  0.40892457791E+03 -0.10821480733E+04  0.11788933219E+04  0.90368560315E+02 0.  0.
          2    1    3    3  502    0  0.21751099348E+02 -0.13676515046E+03 -0.26862231425E+03  0.30221807427E+03  0.00000000000E+00 0. -1.
         -1    1    3    3    0  502 -0.31240987788E+02 -0.81006733124E+02 -0.91392735283E+02  0.12605840786E+03  0.00000000000E+00 0.  1.
         11    1    5    5    0    0  0.19517515165E+03 -0.16296198037E+03 -0.41743441919E+02  0.25766734719E+03  0.00000000000E+00 0. -1.
        -11    1    5    5    0    0  0.22543516845E+02 -0.28190713951E+02 -0.46187620851E+02  0.58619304198E+02  0.00000000000E+00 0.  1.
          3    1    6    6  503    0 -0.81101452840E+02  0.19473806158E+03 -0.60370986308E+03  0.63950446211E+03  0.00000000000E+00 0. -1.
         -3    1    6    6    0  503 -0.12712732721E+03  0.21418651632E+03 -0.47843821018E+03  0.53938885979E+03  0.00000000000E+00 0.  1.
<mgrwt>
<rscale>  0 0.11655456E+04</rscale>
<asrwt>0</asrwt>
<pdfrwt beam="1">  1        2 0.26565774E+00 0.11655456E+04</pdfrwt>
<pdfrwt beam="2">  1       -1 0.30258636E-01 0.11655456E+04</pdfrwt>
<totfact> 0.10730598E+02</totfact>
</mgrwt>
</event>
<event>
12    6  0.1538774E-007  0.2163499E+04  0.7818608E-02  0.8533776E-01
          2   -1    0    0  501    0  0.00000000000E+00  0.00000000000E+00  0.24287094253E+04  0.24287094253E+04  0.00000000000E+00 0. -1.
         -1   -1    0    0    0  501 -0.00000000000E+00 -0.00000000000E+00 -0.48181215685E+03  0.48181215685E+03  0.00000000000E+00 0.  1.
         24    2    1    2    0    0  0.28594078510E+03  0.21132763746E+03 -0.29455901509E+03  0.46873144199E+03  0.80762914733E+02 0.  0.
        254    2    1    2    0    0 -0.28594078510E+03 -0.21132763746E+03  0.22414562836E+04  0.24417901402E+04  0.90099462520E+03 0.  0.
         23    2    4    4    0    0 -0.23368113007E+03  0.10611880646E+03  0.20260774014E+04  0.20442982194E+04  0.91090624531E+02 0.  0.
         23    2    4    4    0    0 -0.52259655037E+02 -0.31744644392E+03  0.21537888223E+03  0.39749192081E+03  0.90046920537E+02 0.  0.
          4    1    3    3  502    0  0.44025763568E+01 -0.70493115204E+01 -0.66235779565E+01  0.10627664675E+02  0.00000000000E+00 0. -1.
         -3    1    3    3    0  502  0.28153820875E+03  0.21837694898E+03 -0.28793543714E+03  0.45810377731E+03  0.00000000000E+00 0.  1.
         11    1    5    5    0    0 -0.11579842638E+03  0.61540566731E+01  0.75394013849E+03  0.76280592577E+03  0.00000000000E+00 0.  1.
        -11    1    5    5    0    0 -0.11788270368E+03  0.99964749787E+02  0.12721372629E+04  0.12814922936E+04  0.00000000000E+00 0. -1.
          2    1    6    6  503    0 -0.57355918237E+02 -0.32162142419E+03  0.21456051116E+03  0.39085323947E+03  0.00000000000E+00 0. -1.
         -2    1    6    6    0  503  0.50962631996E+01  0.41749802639E+01  0.81837106646E+00  0.66386813454E+01  0.00000000000E+00 0.  1.
<mgrwt>
<rscale>  0 0.21634988E+04</rscale>
<asrwt>0</asrwt>
<pdfrwt beam="1">  1        2 0.37364760E+00 0.21634988E+04</pdfrwt>
<pdfrwt beam="2">  1       -1 0.74124949E-01 0.21634988E+04</pdfrwt>
<totfact> 0.73176628E+00</totfact>
</mgrwt>
</event>
<event>
12    6  0.1538774E-007  0.1202293E+04  0.7818608E-02  0.9110851E-01
         -1   -1    0    0    0  501 -0.00000000000E+00  0.00000000000E+00  0.51370902989E+03  0.51370902989E+03  0.00000000000E+00 0.  1.
          2   -1    0    0  501    0  0.00000000000E+00 -0.00000000000E+00 -0.70346706176E+03  0.70346706176E+03  0.00000000000E+00 0. -1.
         24    2    1    2    0    0 -0.72564454054E+02 -0.19732274225E+03  0.11567250542E+03  0.25239642366E+03  0.78242964934E+02 0.  0.
        254    2    1    2    0    0  0.72564454054E+02  0.19732274225E+03 -0.30543053729E+03  0.96477966799E+03  0.89067958889E+03 0.  0.
         23    2    4    4    0    0  0.25849236097E+03  0.18990385008E+03 -0.54994365229E+03  0.64310386195E+03  0.90899854849E+02 0.  0.
         23    2    4    4    0    0 -0.18592790691E+03  0.74188921758E+01  0.24451311500E+03  0.32167580604E+03  0.95207322480E+02 0.  0.
          4    1    3    3  502    0 -0.39772968923E+02 -0.18007931175E+03  0.80197297422E+02  0.20110209868E+03  0.00000000000E+00 0. -1.
         -3    1    3    3    0  502 -0.32791485131E+02 -0.17243430499E+02  0.35475207997E+02  0.51294324977E+02  0.00000000000E+00 0.  1.
         11    1    5    5    0    0  0.37376792749E+02  0.59179782508E+02 -0.17626719102E+03  0.18965598837E+03  0.00000000000E+00 0. -1.
        -11    1    5    5    0    0  0.22111556822E+03  0.13072406757E+03 -0.37367646127E+03  0.45344787358E+03  0.00000000000E+00 0.  1.
          4    1    6    6  503    0 -0.38484119636E+02  0.92925968239E+01  0.43107440611E+01  0.39824142606E+02  0.00000000000E+00 0.  1.
         -4    1    6    6    0  503 -0.14744378728E+03 -0.18737046482E+01  0.24020237094E+03  0.28185166344E+03  0.00000000000E+00 0. -1.
<mgrwt>
<rscale>  0 0.12022934E+04</rscale>
<asrwt>0</asrwt>
<pdfrwt beam="1">  1        2 0.10822570E+00 0.12022934E+04</pdfrwt>
<pdfrwt beam="2">  1       -1 0.79032158E-01 0.12022934E+04</pdfrwt>
<totfact> 0.73485696E+01</totfact>
</mgrwt>
</event>
<event>
12    6  0.1538774E-007  0.2242116E+04  0.7818608E-02  0.8501100E-01
          2   -1    0    0  501    0  0.00000000000E+00  0.00000000000E+00  0.34678224248E+04  0.34678224248E+04  0.00000000000E+00 0. -1.
         -1   -1    0    0    0  501 -0.00000000000E+00 -0.00000000000E+00 -0.36240912870E+03  0.36240912870E+03  0.00000000000E+00 0.  1.
         24    2    1    2    0    0  0.91947624347E+03  0.13913670053E+03  0.14988522513E+04  0.17657299756E+04  0.80303746417E+02 0.  0.
        254    2    1    2    0    0 -0.91947624347E+03 -0.13913670053E+03  0.16065610448E+04  0.20645015779E+04  0.90351136730E+03 0.  0.
         23    2    4    4    0    0 -0.75129141234E+03  0.86689064634E+02  0.48222231657E+03  0.90184128833E+03  0.93944486540E+02 0.  0.
         23    2    4    4    0    0 -0.16818483113E+03 -0.22582576517E+03  0.11243387282E+04  0.11626602896E+04  0.91421876939E+02 0.  0.
          2    1    3    3  502    0  0.63135173773E+03  0.12641440201E+03  0.99458600485E+03  0.11848151496E+04  0.00000000000E+00 0. -1.
         -1    1    3    3    0  502  0.28812450574E+03  0.12722298529E+02  0.50426624648E+03  0.58091482597E+03  0.00000000000E+00 0.  1.
         11    1    5    5    0    0 -0.71237878481E+03  0.10296055921E+03  0.45163938990E+03  0.84974263651E+03  0.00000000000E+00 0.  1.
        -11    1    5    5    0    0 -0.38912627533E+02 -0.16271494578E+02  0.30582926674E+02  0.52098651818E+02  0.00000000000E+00 0. -1.
          2    1    6    6  503    0 -0.39030507194E+02 -0.57478053226E+01  0.19335049549E+03  0.19733431497E+03  0.00000000000E+00 0. -1.
         -2    1    6    6    0  503 -0.12915432393E+03 -0.22007795985E+03  0.93098823270E+03  0.96532597459E+03  0.00000000000E+00 0.  1.
<mgrwt>
<rscale>  0 0.22421155E+04</rscale>
<asrwt>0</asrwt>
<pdfrwt beam="1">  1        2 0.53351112E+00 0.22421155E+04</pdfrwt>
<pdfrwt beam="2">  1       -1 0.55755253E-01 0.22421155E+04</pdfrwt>
<totfact> 0.28953763E+00</totfact>
</mgrwt>
</event>
<event>
12    6  0.1538774E-007  0.1339166E+04  0.7818608E-02  0.8999070E-01
         -1   -1    0    0    0  501 -0.00000000000E+00  0.00000000000E+00  0.30290472677E+03  0.30290472677E+03  0.00000000000E+00 0.  1.
          2   -1    0    0  501    0  0.00000000000E+00 -0.00000000000E+00 -0.14801399325E+04  0.14801399325E+04  0.00000000000E+00 0. -1.
         24    2    1    2    0    0 -0.17855786199E+03 -0.14854473646E+03 -0.67975896464E+03  0.72306230117E+03  0.82452365321E+02 0.  0.
        254    2    1    2    0    0  0.17855786199E+03  0.14854473646E+03 -0.49747624106E+03  0.10599823581E+04  0.90671469615E+03 0.  0.
         23    2    4    4    0    0 -0.16453808754E+03 -0.30166630996E+03 -0.13389487832E+03  0.38089546036E+03  0.95279423132E+02 0.  0.
         23    2    4    4    0    0  0.34309594953E+03  0.45021104642E+03 -0.36358136274E+03  0.67908689772E+03  0.92535346876E+02 0.  0.
          2    1    3    3  502    0 -0.41290855939E+02 -0.55958981330E+02 -0.31344181274E+03  0.32106403154E+03  0.00000000000E+00 0. -1.
         -1    1    3    3    0  502 -0.13726700605E+03 -0.92585755134E+02 -0.36631715190E+03  0.40199826963E+03  0.00000000000E+00 0.  1.
         11    1    5    5    0    0 -0.80465280460E+00 -0.19253862262E+02  0.12666504444E+02  0.23060767831E+02  0.00000000000E+00 0. -1.
        -11    1    5    5    0    0 -0.16373343473E+03 -0.28241244770E+03 -0.14656138276E+03  0.35783469253E+03  0.00000000000E+00 0.  1.
          1    1    6    6  503    0  0.21677736681E+01 -0.19744211204E+01 -0.12372255567E+02  0.12714963203E+02  0.00000000000E+00 0. -1.
         -1    1    6    6    0  503  0.34092817586E+03  0.45218546754E+03 -0.35120910718E+03  0.66637193452E+03  0.00000000000E+00 0.  1.
<mgrwt>
<rscale>  0 0.13391660E+04</rscale>
<asrwt>0</asrwt>
<pdfrwt beam="1">  1        2 0.22771384E+00 0.13391660E+04</pdfrwt>
<pdfrwt beam="2">  1       -1 0.46600727E-01 0.13391660E+04</pdfrwt>
<totfact> 0.66537550E+01</totfact>
</mgrwt>
</event>
<event>
12    6  0.1538774E-007  0.2104898E+04  0.7818608E-02  0.8559089E-01
          2   -1    0    0  501    0  0.00000000000E+00  0.00000000000E+00  0.25128230926E+04  0.25128230926E+04  0.00000000000E+00 0. -1.
         -1   -1    0    0    0  501 -0.00000000000E+00 -0.00000000000E+00 -0.44079863050E+03  0.44079863050E+03  0.00000000000E+00 0.  1.
         24    2    1    2    0    0 -0.56908964808E+03  0.47017376635E+03  0.14842079016E+04  0.16595764648E+04  0.79965924820E+02 0.  0.
        254    2    1    2    0    0  0.56908964808E+03 -0.47017376635E+03  0.58781656047E+03  0.12940452583E+04  0.88549332221E+03 0.  0.
         23    2    4    4    0    0 -0.18921951903E+03 -0.50569494582E+02  0.30873245976E+03  0.37851471296E+03  0.97960992510E+02 0.  0.
         23    2    4    4    0    0  0.75830916711E+03 -0.41960427176E+03  0.27908410071E+03  0.91553054535E+03  0.95956794376E+02 0.  0.
          2    1    3    3  502    0 -0.47680821574E+03  0.36129353246E+03  0.11540352942E+04  0.12998755908E+04  0.00000000000E+00 0. -1.
         -3    1    3    3    0  502 -0.92281432344E+02  0.10888023389E+03  0.33017260741E+03  0.35970087402E+03  0.00000000000E+00 0.  1.
         11    1    5    5    0    0 -0.18823381513E+03 -0.54084781663E+02  0.31519846298E+03  0.37108921277E+03  0.00000000000E+00 0. -1.
        -11    1    5    5    0    0 -0.98570390281E+00  0.35152870812E+01 -0.64660032227E+01  0.74255001935E+01  0.00000000000E+00 0.  1.
          4    1    6    6  503    0  0.27549708160E+03 -0.16108479450E+03  0.55223445295E+02  0.32387741801E+03  0.00000000000E+00 0. -1.
         -4    1    6    6    0  503  0.48281208551E+03 -0.25851947727E+03  0.22386065541E+03  0.59165312734E+03  0.00000000000E+00 0.  1.
<mgrwt>
<rscale>  0 0.21048981E+04</rscale>
<asrwt>0</asrwt>
<pdfrwt beam="1">  1        2 0.38658816E+00 0.21048981E+04</pdfrwt>
<pdfrwt beam="2">  1       -1 0.67815175E-01 0.21048981E+04</pdfrwt>
<totfact> 0.79017438E+00</totfact>
</mgrwt>
</event>
<event>
12    6  0.1538774E-007  0.1802198E+04  0.7818608E-02  0.8705132E-01
         -1   -1    0    0    0  501 -0.00000000000E+00  0.00000000000E+00  0.12209743718E+04  0.12209743718E+04  0.00000000000E+00 0.  1.
          2   -1    0    0  501    0  0.00000000000E+00 -0.00000000000E+00 -0.66502540921E+03  0.66502540921E+03  0.00000000000E+00 0. -1.
         24    2    1    2    0    0  0.69723813464E+02  0.27216308092E+03  0.82523282849E+03  0.87548531729E+03  0.80815634537E+02 0.  0.
        254    2    1    2    0    0 -0.69723813464E+02 -0.27216308092E+03 -0.26928386588E+03  0.10105144637E+04  0.93257253242E+03 0.  0.
         23    2    4    4    0    0 -0.90805577000E+02 -0.21352484380E+03 -0.60625735361E+03  0.65571217092E+03  0.92584882965E+02 0.  0.
         23    2    4    4    0    0  0.21081763537E+02 -0.58638237123E+02  0.33697348772E+03  0.35480229282E+03  0.91927427670E+02 0.  0.
          4    1    3    3  502    0 -0.11416611617E+02  0.21954581242E+02  0.12616963866E+03  0.12857340463E+03  0.00000000000E+00 0. -1.
         -3    1    3    3    0  502  0.81140425081E+02  0.25020849968E+03  0.69906318983E+03  0.74691191266E+03  0.00000000000E+00 0.  1.
         11    1    5    5    0    0 -0.82945147733E+02 -0.13767075717E+03 -0.30273182536E+03  0.34275310793E+03  0.00000000000E+00 0. -1.
        -11    1    5    5    0    0 -0.78604292673E+01 -0.75854086627E+02 -0.30352552825E+03  0.31295906298E+03  0.00000000000E+00 0.  1.
          2    1    6    6  503    0  0.43499010620E+02 -0.54870169623E+02  0.31668430134E+03  0.32433292487E+03  0.00000000000E+00 0. -1.
         -2    1    6    6    0  503 -0.22417247084E+02 -0.37680674996E+01  0.20289186387E+02  0.30469367958E+02  0.00000000000E+00 0.  1.
<mgrwt>
<rscale>  0 0.18021975E+04</rscale>
<asrwt>0</asrwt>
<pdfrwt beam="1">  1        2 0.10231160E+00 0.18021975E+04</pdfrwt>
<pdfrwt beam="2">  1       -1 0.18784221E+00 0.18021975E+04</pdfrwt>
<totfact> 0.86191635E+00</totfact>
</mgrwt>
</event>
<event>
12    6  0.1538774E-007  0.2047827E+04  0.7818608E-02  0.8584581E-01
          2   -1    0    0  501    0  0.00000000000E+00  0.00000000000E+00  0.14937099989E+04  0.14937099989E+04  0.00000000000E+00 0. -1.
         -1   -1    0    0    0  501 -0.00000000000E+00 -0.00000000000E+00 -0.70187561006E+03  0.70187561006E+03  0.00000000000E+00 0.  1.
         24    2    1    2    0    0  0.78990675595E+03 -0.21760296171E+03  0.23881070060E+03  0.85721243547E+03  0.80491470204E+02 0.  0.
        254    2    1    2    0    0 -0.78990675595E+03  0.21760296171E+03  0.55302368822E+03  0.13383731735E+04  0.90227701937E+03 0.  0.
         23    2    4    4    0    0 -0.42562685759E+03  0.28562320032E+03 -0.14712736448E+03  0.54112542154E+03  0.91822796704E+02 0.  0.
         23    2    4    4    0    0 -0.36427989836E+03 -0.68020238612E+02  0.70015105269E+03  0.79724775192E+03  0.89810267493E+02 0.  0.
          4    1    3    3  502    0  0.47736581620E+02 -0.31034272501E+02  0.56379550178E+01  0.57216202523E+02  0.00000000000E+00 0. -1.
         -3    1    3    3    0  502  0.74217017433E+03 -0.18656868921E+03  0.23317274558E+03  0.79999623295E+03  0.00000000000E+00 0.  1.
         11    1    5    5    0    0 -0.41255693686E+03  0.29076569687E+03 -0.15049022337E+03  0.52668322923E+03  0.00000000000E+00 0.  1.
        -11    1    5    5    0    0 -0.13069920732E+02 -0.51424965493E+01  0.33628588899E+01  0.14442192307E+02  0.00000000000E+00 0. -1.
          4    1    6    6  503    0 -0.45253709195E+02  0.17050503922E+02  0.12553220198E+03  0.13452491076E+03  0.00000000000E+00 0. -1.
         -4    1    6    6    0  503 -0.31902618916E+03 -0.85070742534E+02  0.57461885071E+03  0.66272284116E+03  0.00000000000E+00 0.  1.
<mgrwt>
<rscale>  0 0.20478268E+04</rscale>
<asrwt>0</asrwt>
<pdfrwt beam="1">  1        2 0.22980154E+00 0.20478268E+04</pdfrwt>
<pdfrwt beam="2">  1       -1 0.10798086E+00 0.20478268E+04</pdfrwt>
<totfact> 0.10759776E+01</totfact>
</mgrwt>
</event>
<event>
12    6  0.1538774E-007  0.1186388E+04  0.7818608E-02  0.9124855E-01
         -1   -1    0    0    0  501 -0.00000000000E+00  0.00000000000E+00  0.18579997440E+03  0.18579997440E+03  0.00000000000E+00 0.  1.
          2   -1    0    0  501    0  0.00000000000E+00 -0.00000000000E+00 -0.18938592586E+04  0.18938592586E+04  0.00000000000E+00 0. -1.
         24    2    1    2    0    0  0.66782795226E+02 -0.17109531907E+03 -0.11069255104E+03  0.22914657342E+03  0.80757422622E+02 0.  0.
        254    2    1    2    0    0 -0.66782795226E+02  0.17109531907E+03 -0.15973667331E+04  0.18505126596E+04  0.91601477779E+03 0.  0.
         23    2    4    4    0    0 -0.44259991478E+03  0.15651817526E+03 -0.12153048166E+04  0.13060717268E+04  0.92005078804E+02 0.  0.
         23    2    4    4    0    0  0.37581711955E+03  0.14577143802E+02 -0.38206191648E+03  0.54444093272E+03  0.94834702117E+02 0.  0.
          4    1    3    3  502    0  0.77132401227E+00 -0.11538261128E+02 -0.41576335328E+02  0.43154583417E+02  0.00000000000E+00 0. -1.
         -3    1    3    3    0  502  0.66011471214E+02 -0.15955705794E+03 -0.69116215710E+02  0.18599199000E+03  0.00000000000E+00 0.  1.
         11    1    5    5    0    0 -0.36198324987E+03  0.10735618315E+03 -0.87668689642E+03  0.95453503739E+03  0.00000000000E+00 0.  1.
        -11    1    5    5    0    0 -0.80616664909E+02  0.49161992112E+02 -0.33861792022E+03  0.35153668944E+03  0.00000000000E+00 0. -1.
          1    1    6    6  503    0  0.93273776684E+02  0.45126267282E+02 -0.97688838561E+02  0.14240606235E+03  0.00000000000E+00 0. -1.
         -1    1    6    6    0  503  0.28254334287E+03 -0.30549123480E+02 -0.28437307792E+03  0.40203487037E+03  0.00000000000E+00 0.  1.
<mgrwt>
<rscale>  0 0.11863878E+04</rscale>
<asrwt>0</asrwt>
<pdfrwt beam="1">  1        2 0.29136295E+00 0.11863878E+04</pdfrwt>
<pdfrwt beam="2">  1       -1 0.28584613E-01 0.11863878E+04</pdfrwt>
<totfact> 0.95699017E+01</totfact>
</mgrwt>
</event>
<event>
12    6  0.1538774E-007  0.2838814E+04  0.7818608E-02  0.8291319E-01
         -1   -1    0    0    0  501 -0.00000000000E+00  0.00000000000E+00  0.77225891720E+03  0.77225891720E+03  0.00000000000E+00 0.  1.
          2   -1    0    0  501    0  0.00000000000E+00 -0.00000000000E+00 -0.26088608076E+04  0.26088608076E+04  0.00000000000E+00 0. -1.
         24    2    1    2    0    0 -0.12726556488E+04  0.77796913575E+02 -0.75466952023E+03  0.14838330388E+04  0.80806199972E+02 0.  0.
        254    2    1    2    0    0  0.12726556488E+04 -0.77796913575E+02 -0.10819323702E+04  0.18972866861E+04  0.89633384138E+03 0.  0.
         23    2    4    4    0    0  0.25764502118E+03 -0.37742580019E+03 -0.51029353121E+03  0.69084684771E+03  0.89658727439E+02 0.  0.
         23    2    4    4    0    0  0.10150106276E+04  0.29962888661E+03 -0.57163883898E+03  0.12064398383E+04  0.93284925970E+02 0.  0.
          4    1    3    3  502    0 -0.17181384623E+03 -0.14941791401E+02 -0.11453527231E+03  0.20703039267E+03  0.00000000000E+00 0. -1.
         -3    1    3    3    0  502 -0.11008418026E+04  0.92738704976E+02 -0.64013424791E+03  0.12768026461E+04  0.00000000000E+00 0.  1.
         11    1    5    5    0    0  0.10908035520E+03 -0.22734705624E+03 -0.24291879761E+03  0.35013533112E+03  0.00000000000E+00 0. -1.
        -11    1    5    5    0    0  0.14856466598E+03 -0.15007874395E+03 -0.26737473361E+03  0.34071151659E+03  0.00000000000E+00 0.  1.
          4    1    6    6  503    0  0.81763381002E+03  0.21355238924E+03 -0.48488569418E+03  0.97429143825E+03  0.00000000000E+00 0. -1.
         -4    1    6    6    0  503  0.19737681762E+03  0.86076497376E+02 -0.86753144804E+02  0.23214840010E+03  0.00000000000E+00 0.  1.
<mgrwt>
<rscale>  0 0.28388139E+04</rscale>
<asrwt>0</asrwt>
<pdfrwt beam="1">  1        2 0.40136320E+00 0.28388139E+04</pdfrwt>
<pdfrwt beam="2">  1       -1 0.11880906E+00 0.28388139E+04</pdfrwt>
<totfact> 0.18802720E+00</totfact>
</mgrwt>
</event>
<event>
12    6  0.1538774E-007  0.2058198E+04  0.7818608E-02  0.8579884E-01
         -1   -1    0    0    0  501 -0.00000000000E+00  0.00000000000E+00  0.26224817648E+03  0.26224817648E+03  0.00000000000E+00 0.  1.
          2   -1    0    0  501    0  0.00000000000E+00 -0.00000000000E+00 -0.40383318021E+04  0.40383318021E+04  0.00000000000E+00 0. -1.
         24    2    1    2    0    0  0.71784867116E+03  0.40065904186E+03 -0.17962512200E+04  0.19770499942E+04  0.79836406417E+02 0.  0.
        254    2    1    2    0    0 -0.71784867116E+03 -0.40065904186E+03 -0.19798324056E+04  0.23235299843E+04  0.89622589303E+03 0.  0.
         23    2    4    4    0    0 -0.32402726354E+03 -0.14952897731E+03 -0.95772516465E+02  0.38016196810E+03  0.89432457787E+02 0.  0.
         23    2    4    4    0    0 -0.39382140762E+03 -0.25113006455E+03 -0.18840598891E+04  0.19433680162E+04  0.93999841831E+02 0.  0.
          2    1    3    3  502    0  0.40961422621E+03  0.25559834410E+03 -0.97687890313E+03  0.10896819349E+04  0.00000000000E+00 0. -1.
         -1    1    3    3    0  502  0.30823444495E+03  0.14506069776E+03 -0.81937231688E+03  0.88736805935E+03  0.00000000000E+00 0.  1.
         11    1    5    5    0    0 -0.86985652511E+02 -0.51264189838E+02 -0.68725847279E+02  0.12213829451E+03  0.00000000000E+00 0.  1.
        -11    1    5    5    0    0 -0.23704161103E+03 -0.98264787471E+02 -0.27046669186E+02  0.25802367358E+03  0.00000000000E+00 0. -1.
          2    1    6    6  503    0 -0.39472581483E+03 -0.23976841219E+03 -0.17900120629E+04  0.18486320741E+04  0.00000000000E+00 0. -1.
         -2    1    6    6    0  503  0.90440720934E+00 -0.11361652361E+02 -0.94047826285E+02  0.94735942101E+02  0.00000000000E+00 0.  1.
<mgrwt>
<rscale>  0 0.20581984E+04</rscale>
<asrwt>0</asrwt>
<pdfrwt beam="1">  1        2 0.62128181E+00 0.20581984E+04</pdfrwt>
<pdfrwt beam="2">  1       -1 0.40345874E-01 0.20581984E+04</pdfrwt>
<totfact> 0.20287611E+00</totfact>
</mgrwt>
</event>
<event>
12    6  0.1538774E-007  0.1580850E+04  0.7818608E-02  0.8832400E-01
         -1   -1    0    0    0  501 -0.00000000000E+00  0.00000000000E+00  0.26880322671E+03  0.26880322671E+03  0.00000000000E+00 0.  1.
          2   -1    0    0  501    0  0.00000000000E+00 -0.00000000000E+00 -0.23242712444E+04  0.23242712444E+04  0.00000000000E+00 0. -1.
         24    2    1    2    0    0 -0.12291947670E+03 -0.27269810551E+03 -0.30701850363E+02  0.31200988427E+03  0.83271302157E+02 0.  0.
        254    2    1    2    0    0  0.12291947670E+03  0.27269810551E+03 -0.20247661674E+04  0.22810645869E+04  0.10070273892E+04 0.  0.
         23    2    4    4    0    0  0.29839504095E+03  0.40860232312E+03 -0.19687810274E+04  0.20348115688E+04  0.91454513715E+02 0.  0.
         23    2    4    4    0    0 -0.17547556425E+03 -0.13590421761E+03 -0.55985139992E+02  0.24625301804E+03  0.90799686000E+02 0.  0.
          2    1    3    3  502    0 -0.78074350861E+02 -0.15565274521E+03 -0.58354324804E+02  0.18365350140E+03  0.00000000000E+00 0. -1.
         -1    1    3    3    0  502 -0.44845125836E+02 -0.11704536030E+03  0.27652474440E+02  0.12835638286E+03  0.00000000000E+00 0.  1.
         11    1    5    5    0    0  0.33644221153E+02  0.54980984030E+02 -0.15211759492E+03  0.16521078931E+03  0.00000000000E+00 0.  1.
        -11    1    5    5    0    0  0.26475081980E+03  0.35362133909E+03 -0.18166634324E+04  0.18696007795E+04  0.00000000000E+00 0. -1.
          1    1    6    6  503    0 -0.33697472302E+02 -0.42060920295E+02  0.23223582997E+02  0.58685393948E+02  0.00000000000E+00 0. -1.
         -1    1    6    6    0  503 -0.14177809195E+03 -0.93843297313E+02 -0.79208722989E+02  0.18756762409E+03  0.00000000000E+00 0.  1.
<mgrwt>
<rscale>  0 0.15808499E+04</rscale>
<asrwt>0</asrwt>
<pdfrwt beam="1">  1        2 0.35758019E+00 0.15808499E+04</pdfrwt>
<pdfrwt beam="2">  1       -1 0.41354342E-01 0.15808499E+04</pdfrwt>
<totfact> 0.27556170E+01</totfact>
</mgrwt>
</event>
<event>
12    6  0.1538774E-007  0.1439036E+04  0.7818608E-02  0.8926037E-01
         -1   -1    0    0    0  501 -0.00000000000E+00  0.00000000000E+00  0.11428148406E+04  0.11428148406E+04  0.00000000000E+00 0.  1.
          2   -1    0    0  501    0  0.00000000000E+00 -0.00000000000E+00 -0.45300974448E+03  0.45300974448E+03  0.00000000000E+00 0. -1.
         24    2    1    2    0    0  0.37710784773E+03 -0.20854034716E+03  0.10527960339E+03  0.45049326093E+03  0.78491897953E+02 0.  0.
        254    2    1    2    0    0 -0.37710784773E+03  0.20854034716E+03  0.58452549277E+03  0.11453313242E+04  0.88567171415E+03 0.  0.
         23    2    4    4    0    0 -0.10927252806E+03  0.44390002060E+03  0.62046148985E+03  0.77640908707E+03  0.94079202891E+02 0.  0.
         23    2    4    4    0    0 -0.26783531967E+03 -0.23535967344E+03 -0.35935997085E+02  0.36892223712E+03  0.87648655462E+02 0.  0.
          2    1    3    3  502    0  0.20262023262E+03 -0.94431226225E+02  0.17331987962E+02  0.22421555022E+03  0.00000000000E+00 0. -1.
         -1    1    3    3    0  502  0.17448761512E+03 -0.11410912093E+03  0.87947615429E+02  0.22627771072E+03  0.00000000000E+00 0.  1.
         11    1    5    5    0    0 -0.68919560477E+02  0.18123411882E+03  0.19660162680E+03  0.27613024336E+03  0.00000000000E+00 0. -1.
        -11    1    5    5    0    0 -0.40352967582E+02  0.26266590178E+03  0.42385986305E+03  0.50027884371E+03  0.00000000000E+00 0.  1.
          2    1    6    6  503    0 -0.13314559273E+03 -0.15918491228E+03 -0.50247014057E+02  0.21352364642E+03  0.00000000000E+00 0. -1.
         -2    1    6    6    0  503 -0.13468972694E+03 -0.76174761167E+02  0.14311016972E+02  0.15539859069E+03  0.00000000000E+00 0.  1.
<mgrwt>
<rscale>  0 0.14390361E+04</rscale>
<asrwt>0</asrwt>
<pdfrwt beam="1">  1        2 0.69693807E-01 0.14390361E+04</pdfrwt>
<pdfrwt beam="2">  1       -1 0.17581767E+00 0.14390361E+04</pdfrwt>
<totfact> 0.17091555E+01</totfact>
</mgrwt>
</event>
<event>
12    6  0.1538774E-007  0.1816364E+04  0.7818608E-02  0.8697646E-01
         -1   -1    0    0    0  501 -0.00000000000E+00  0.00000000000E+00  0.32585719106E+03  0.32585719106E+03  0.00000000000E+00 0.  1.
          2   -1    0    0  501    0  0.00000000000E+00 -0.00000000000E+00 -0.25311524892E+04  0.25311524892E+04  0.00000000000E+00 0. -1.
         24    2    1    2    0    0 -0.29133107704E+03 -0.47174953748E+02 -0.17954506580E+04  0.18208008179E+04  0.67626032699E+02 0.  0.
        254    2    1    2    0    0  0.29133107704E+03  0.47174953748E+02 -0.40984464019E+03  0.10362088624E+04  0.90479660963E+03 0.  0.
         23    2    4    4    0    0 -0.24690831461E+03  0.19498770665E+03  0.15818051985E+02  0.32818642353E+03  0.92044534085E+02 0.  0.
         23    2    4    4    0    0  0.53823939165E+03 -0.14781275290E+03 -0.42566269217E+03  0.70802243891E+03  0.92502939708E+02 0.  0.
          4    1    3    3  502    0 -0.28805581556E+03 -0.40291216631E+02 -0.17795962630E+04  0.18032089159E+04  0.00000000000E+00 0. -1.
         -3    1    3    3    0  502 -0.32752614774E+01 -0.68837371172E+01 -0.15854394961E+02  0.17591901945E+02  0.00000000000E+00 0.  1.
         11    1    5    5    0    0 -0.12394347032E+03  0.76091638307E+02 -0.35311396199E+02  0.14966233981E+03  0.00000000000E+00 0.  1.
        -11    1    5    5    0    0 -0.12296484429E+03  0.11889606834E+03  0.51129448184E+02  0.17852408372E+03  0.00000000000E+00 0. -1.
          4    1    6    6  503    0  0.40439178170E+03 -0.14733478370E+03 -0.30188030894E+03  0.52571092106E+03  0.00000000000E+00 0. -1.
         -4    1    6    6    0  503  0.13384760995E+03 -0.47796919788E+00 -0.12378238323E+03  0.18231151785E+03  0.00000000000E+00 0.  1.
<mgrwt>
<rscale>  0 0.18163637E+04</rscale>
<asrwt>0</asrwt>
<pdfrwt beam="1">  1        2 0.38940808E+00 0.18163637E+04</pdfrwt>
<pdfrwt beam="2">  1       -1 0.50131875E-01 0.18163637E+04</pdfrwt>
<totfact> 0.14332572E+01</totfact>
</mgrwt>
</event>
<event>
12    6  0.1538774E-007  0.1292141E+04  0.7818608E-02  0.9035820E-01
         -1   -1    0    0    0  501 -0.00000000000E+00  0.00000000000E+00  0.18583594145E+03  0.18583594145E+03  0.00000000000E+00 0.  1.
          2   -1    0    0  501    0  0.00000000000E+00 -0.00000000000E+00 -0.22461064993E+04  0.22461064993E+04  0.00000000000E+00 0. -1.
         24    2    1    2    0    0 -0.24172267207E+03  0.12451061725E+03 -0.31797321303E+03  0.42609994024E+03  0.80755500570E+02 0.  0.
        254    2    1    2    0    0  0.24172267207E+03 -0.12451061725E+03 -0.17422973448E+04  0.20058425005E+04  0.95596618928E+03 0.  0.
         23    2    4    4    0    0 -0.17057866009E+03  0.31379956104E+03 -0.48807233487E+03  0.61165937482E+03  0.91352848661E+02 0.  0.
         23    2    4    4    0    0  0.41230133216E+03 -0.43831017829E+03 -0.12542250100E+04  0.13941831257E+04  0.92509520858E+02 0.  0.
          4    1    3    3  502    0 -0.16729459176E+03  0.10812351644E+03 -0.27185595270E+03  0.33702200856E+03  0.00000000000E+00 0. -1.
         -3    1    3    3    0  502 -0.74428080316E+02  0.16387100808E+02 -0.46117260329E+02  0.89077931682E+02  0.00000000000E+00 0.  1.
         11    1    5    5    0    0 -0.99086761079E+02  0.25541018293E+03 -0.33318020415E+03  0.43134857854E+03  0.00000000000E+00 0. -1.
        -11    1    5    5    0    0 -0.71491899008E+02  0.58389378108E+02 -0.15489213072E+03  0.18031079629E+03  0.00000000000E+00 0.  1.
          1    1    6    6  503    0  0.40383736557E+03 -0.40267021712E+03 -0.12016012822E+04  0.13300652476E+04  0.00000000000E+00 0. -1.
         -1    1    6    6    0  503  0.84639665905E+01 -0.35639961168E+02 -0.52623727776E+02  0.64117878065E+02  0.00000000000E+00 0.  1.
<mgrwt>
<rscale>  0 0.12921413E+04</rscale>
<asrwt>0</asrwt>
<pdfrwt beam="1">  1        2 0.34555487E+00 0.12921413E+04</pdfrwt>
<pdfrwt beam="2">  1       -1 0.28590143E-01 0.12921413E+04</pdfrwt>
<totfact> 0.60469184E+01</totfact>
</mgrwt>
</event>
<event>
12    6  0.1538774E-007  0.3996790E+04  0.7818608E-02  0.8005194E-01
          2   -1    0    0  501    0  0.00000000000E+00  0.00000000000E+00  0.36362388897E+04  0.36362388897E+04  0.00000000000E+00 0. -1.
         -1   -1    0    0    0  501 -0.00000000000E+00 -0.00000000000E+00 -0.10982727924E+04  0.10982727924E+04  0.00000000000E+00 0.  1.
         24    2    1    2    0    0  0.34210270030E+03 -0.24898647453E+03  0.33970664356E+04  0.34239417097E+04  0.65482375887E+02 0.  0.
        254    2    1    2    0    0 -0.34210270030E+03  0.24898647453E+03 -0.85910033828E+03  0.13105699724E+04  0.89471321618E+03 0.  0.
         23    2    4    4    0    0 -0.52253988535E+03  0.36660667046E+03 -0.31371929779E+03  0.71729570267E+03  0.92978194511E+02 0.  0.
         23    2    4    4    0    0  0.18043718505E+03 -0.11762019593E+03 -0.54538104048E+03  0.59327426970E+03  0.90231876480E+02 0.  0.
          2    1    3    3  502    0  0.32461876133E+03 -0.21337769313E+03  0.30733036015E+04  0.30977576417E+04  0.00000000000E+00 0. -1.
         -1    1    3    3    0  502  0.17483938975E+02 -0.35608781400E+02  0.32376283415E+03  0.32618406799E+03  0.00000000000E+00 0.  1.
         11    1    5    5    0    0 -0.34116657099E+03  0.28297667784E+03 -0.18925369099E+03  0.48196202020E+03  0.00000000000E+00 0. -1.
        -11    1    5    5    0    0 -0.18137331436E+03  0.83629992616E+02 -0.12446560681E+03  0.23533368247E+03  0.00000000000E+00 0.  1.
          1    1    6    6  503    0  0.94190946568E+02 -0.10830204085E+03 -0.29027265617E+03  0.32382013741E+03  0.00000000000E+00 0. -1.
         -1    1    6    6    0  503  0.86246238478E+02 -0.93181550796E+01 -0.25510838431E+03  0.26945413229E+03  0.00000000000E+00 0.  1.
<mgrwt>
<rscale>  0 0.39967898E+04</rscale>
<asrwt>0</asrwt>
<pdfrwt beam="1">  1        2 0.55942136E+00 0.39967898E+04</pdfrwt>
<pdfrwt beam="2">  1       -1 0.16896505E+00 0.39967898E+04</pdfrwt>
<totfact> 0.14541692E-01</totfact>
</mgrwt>
</event>
<event>
12    6  0.1538774E-007  0.1615421E+04  0.7818608E-02  0.8811130E-01
         -1   -1    0    0    0  501 -0.00000000000E+00  0.00000000000E+00  0.22627537772E+03  0.22627537772E+03  0.00000000000E+00 0.  1.
          2   -1    0    0  501    0  0.00000000000E+00 -0.00000000000E+00 -0.28831963573E+04  0.28831963573E+04  0.00000000000E+00 0. -1.
         24    2    1    2    0    0  0.42637036791E+03  0.71634382584E+02 -0.25058832231E+03  0.50637983976E+03  0.81870992663E+02 0.  0.
        254    2    1    2    0    0 -0.42637036791E+03 -0.71634382584E+02 -0.24063326572E+04  0.26030918952E+04  0.89371549289E+03 0.  0.
         23    2    4    4    0    0 -0.12627281268E+03  0.28940376883E+03 -0.30632229784E+03  0.44920273192E+03  0.90831600067E+02 0.  0.
         23    2    4    4    0    0 -0.30009755523E+03 -0.36103815142E+03 -0.21000103594E+04  0.21538891633E+04  0.93743953177E+02 0.  0.
          2    1    3    3  502    0  0.13280680171E+03  0.13172912305E+02 -0.12121634878E+03  0.18029025323E+03  0.00000000000E+00 0. -1.
         -1    1    3    3    0  502  0.29356356621E+03  0.58461470279E+02 -0.12937197352E+03  0.32608958653E+03  0.00000000000E+00 0.  1.
         11    1    5    5    0    0 -0.10883280390E+02 -0.52497099258E+01 -0.12474880729E+02  0.17367437795E+02  0.00000000000E+00 0. -1.
        -11    1    5    5    0    0 -0.11538953229E+03  0.29465347876E+03 -0.29384741711E+03  0.43183529412E+03  0.00000000000E+00 0.  1.
          1    1    6    6  503    0  0.47736132011E+01 -0.13648382988E+02 -0.36721663830E+02  0.39465761561E+02  0.00000000000E+00 0. -1.
         -1    1    6    6    0  503 -0.30487116844E+03 -0.34738976843E+03 -0.20632886956E+04  0.21144234017E+04  0.00000000000E+00 0.  1.
<mgrwt>
<rscale>  0 0.16154211E+04</rscale>
<asrwt>0</asrwt>
<pdfrwt beam="1">  1        2 0.44356868E+00 0.16154211E+04</pdfrwt>
<pdfrwt beam="2">  1       -1 0.34811596E-01 0.16154211E+04</pdfrwt>
<totfact> 0.17665561E+01</totfact>
</mgrwt>
</event>
<event>
12    6  0.1538774E-007  0.2619273E+04  0.7818608E-02  0.8361684E-01
          2   -1    0    0  501    0  0.00000000000E+00  0.00000000000E+00  0.22680593265E+04  0.22680593265E+04  0.00000000000E+00 0. -1.
         -1   -1    0    0    0  501 -0.00000000000E+00 -0.00000000000E+00 -0.75621814029E+03  0.75621814029E+03  0.00000000000E+00 0.  1.
         24    2    1    2    0    0  0.11233510740E+04  0.24418282900E+03  0.72863711319E+03  0.13633393538E+04  0.78988995645E+02 0.  0.
        254    2    1    2    0    0 -0.11233510740E+04 -0.24418282900E+03  0.78320407301E+03  0.16609381130E+04  0.90761440360E+03 0.  0.
         23    2    4    4    0    0 -0.78548638189E+03 -0.14823065592E+03  0.77551746861E+01  0.80486843043E+03  0.93764940607E+02 0.  0.
         23    2    4    4    0    0 -0.33786469215E+03 -0.95952173077E+02  0.77544889832E+03  0.85606968253E+03  0.90415362255E+02 0.  0.
          4    1    3    3  502    0  0.98092560504E+02  0.41925460912E+02  0.80560173493E+02  0.13367810685E+03  0.00000000000E+00 0. -1.
         -3    1    3    3    0  502  0.10252585135E+04  0.20225736809E+03  0.64807693970E+03  0.12296612470E+04  0.00000000000E+00 0.  1.
         11    1    5    5    0    0 -0.56869794696E+03 -0.93593975600E+02 -0.34349160606E+02  0.57737080977E+03  0.00000000000E+00 0. -1.
        -11    1    5    5    0    0 -0.21678843493E+03 -0.54636680320E+02  0.42104335292E+02  0.22749762066E+03  0.00000000000E+00 0.  1.
          1    1    6    6  503    0 -0.29161292104E+03 -0.10680707661E+03  0.61852711737E+03  0.69211389399E+03  0.00000000000E+00 0. -1.
         -1    1    6    6    0  503 -0.46251771110E+02  0.10854903531E+02  0.15692178094E+03  0.16395578854E+03  0.00000000000E+00 0.  1.
<mgrwt>
<rscale>  0 0.26192729E+04</rscale>
<asrwt>0</asrwt>
<pdfrwt beam="1">  1        2 0.34893220E+00 0.26192729E+04</pdfrwt>
<pdfrwt beam="2">  1       -1 0.11634125E+00 0.26192729E+04</pdfrwt>
<totfact> 0.31686392E+00</totfact>
</mgrwt>
</event>
<event>
12    6  0.1538774E-007  0.2069766E+04  0.7818608E-02  0.8574680E-01
         -1   -1    0    0    0  501 -0.00000000000E+00  0.00000000000E+00  0.39181648051E+03  0.39181648051E+03  0.00000000000E+00 0.  1.
          2   -1    0    0  501    0  0.00000000000E+00 -0.00000000000E+00 -0.27333776167E+04  0.27333776167E+04  0.00000000000E+00 0. -1.
         24    2    1    2    0    0 -0.47243968922E+03  0.11450795509E+03  0.77270418832E+02  0.49867763645E+03  0.79983346627E+02 0.  0.
        254    2    1    2    0    0  0.47243968922E+03 -0.11450795509E+03 -0.24188315550E+04  0.26265164608E+04  0.90085031796E+03 0.  0.
         23    2    4    4    0    0 -0.10383659264E+02 -0.41763760591E+03 -0.12778094178E+04  0.13474574941E+04  0.91191008996E+02 0.  0.
         23    2    4    4    0    0  0.48282334849E+03  0.30312965082E+03 -0.11410221372E+04  0.12790589666E+04  0.95154355395E+02 0.  0.
          4    1    3    3  502    0 -0.59496137778E+02  0.11173799487E+02  0.37355082414E+02  0.71134003034E+02  0.00000000000E+00 0. -1.
         -3    1    3    3    0  502 -0.41294355145E+03  0.10333415560E+03  0.39915336418E+02  0.42754363342E+03  0.00000000000E+00 0.  1.
         11    1    5    5    0    0  0.10278611852E+02 -0.39843608131E+03 -0.12121557706E+04  0.12760010083E+04  0.00000000000E+00 0.  1.
        -11    1    5    5    0    0 -0.20662271116E+02 -0.19201524599E+02 -0.65653647122E+02  0.71456485885E+02  0.00000000000E+00 0. -1.
          3    1    6    6  503    0  0.31256441009E+03  0.18990415389E+03 -0.82795316345E+03  0.90513343711E+03  0.00000000000E+00 0. -1.
         -3    1    6    6    0  503  0.17025893840E+03  0.11322549694E+03 -0.31306897380E+03  0.37392552951E+03  0.00000000000E+00 0.  1.
<mgrwt>
<rscale>  0 0.20697656E+04</rscale>
<asrwt>0</asrwt>
<pdfrwt beam="1">  1        2 0.42051964E+00 0.20697656E+04</pdfrwt>
<pdfrwt beam="2">  1       -1 0.60279458E-01 0.20697656E+04</pdfrwt>
<totfact> 0.74493230E+00</totfact>
</mgrwt>
</event>
<event>
12    6  0.1538774E-007  0.1749468E+04  0.7818608E-02  0.8733643E-01
          2   -1    0    0  501    0  0.00000000000E+00  0.00000000000E+00  0.59971511567E+03  0.59971511567E+03  0.00000000000E+00 0. -1.
         -1   -1    0    0    0  501 -0.00000000000E+00 -0.00000000000E+00 -0.12758716548E+04  0.12758716548E+04  0.00000000000E+00 0.  1.
         24    2    1    2    0    0  0.17072210056E+03  0.61171561376E+03 -0.31251691589E+03  0.71230921424E+03  0.79847142986E+02 0.  0.
        254    2    1    2    0    0 -0.17072210056E+03 -0.61171561376E+03 -0.36363962321E+03  0.11632775562E+04  0.90423385772E+03 0.  0.
         23    2    4    4    0    0 -0.43317224548E+03 -0.26223815026E+03  0.95059419238E+02  0.52324777156E+03  0.91350399863E+02 0.  0.
         23    2    4    4    0    0  0.26245014492E+03 -0.34947746350E+03 -0.45869904245E+03  0.64002978463E+03  0.90657253497E+02 0.  0.
          2    1    3    3  502    0  0.97903749871E+02  0.25029465559E+03 -0.10000622867E+03  0.28676437127E+03  0.00000000000E+00 0. -1.
         -1    1    3    3    0  502  0.72818350687E+02  0.36142095817E+03 -0.21251068722E+03  0.42554484297E+03  0.00000000000E+00 0.  1.
         11    1    5    5    0    0 -0.41365702350E+03 -0.26336270812E+03  0.10473077602E+03  0.50143851524E+03  0.00000000000E+00 0. -1.
        -11    1    5    5    0    0 -0.19515221978E+02  0.11245578630E+01 -0.96713567848E+01  0.21809256322E+02  0.00000000000E+00 0.  1.
          1    1    6    6  503    0  0.23453591792E+03 -0.25370101934E+03 -0.33662679796E+03  0.48237838376E+03  0.00000000000E+00 0. -1.
         -1    1    6    6    0  503  0.27914227002E+02 -0.95776444158E+02 -0.12207224448E+03  0.15765140088E+03  0.00000000000E+00 0.  1.
<mgrwt>
<rscale>  0 0.17494679E+04</rscale>
<asrwt>0</asrwt>
<pdfrwt beam="1">  1        2 0.92263865E-01 0.17494679E+04</pdfrwt>
<pdfrwt beam="2">  1       -1 0.19628795E+00 0.17494679E+04</pdfrwt>
<totfact> 0.85789626E+00</totfact>
</mgrwt>
</event>
<event>
12    6  0.1538774E-007  0.1750357E+04  0.7818608E-02  0.8733154E-01
         -1   -1    0    0    0  501 -0.00000000000E+00  0.00000000000E+00  0.67670736730E+03  0.67670736730E+03  0.00000000000E+00 0.  1.
          2   -1    0    0  501    0  0.00000000000E+00 -0.00000000000E+00 -0.11318587618E+04  0.11318587618E+04  0.00000000000E+00 0. -1.
         24    2    1    2    0    0  0.59382442886E+02 -0.12270733521E+03 -0.83517508858E+03  0.84996290089E+03  0.79599872241E+02 0.  0.
        254    2    1    2    0    0 -0.59382442886E+02  0.12270733521E+03  0.38002369407E+03  0.95860322823E+03  0.86943589555E+03 0.  0.
         23    2    4    4    0    0 -0.19866018165E+03 -0.14719511255E+03  0.54160354391E+03  0.60286502516E+03  0.94760597617E+02 0.  0.
         23    2    4    4    0    0  0.13927773877E+03  0.26990244775E+03 -0.16157984983E+03  0.35573820307E+03  0.90531770280E+02 0.  0.
          2    1    3    3  502    0  0.58591731011E+02 -0.11743264234E+03 -0.83429873881E+03  0.84455775528E+03  0.00000000000E+00 0. -1.
         -1    1    3    3    0  502  0.79071187420E+00 -0.52746928688E+01 -0.87634977732E+00  0.54051456095E+01  0.00000000000E+00 0.  1.
         11    1    5    5    0    0 -0.57338295516E+02  0.37016096453E+01  0.13505012727E+03  0.14676484225E+03  0.00000000000E+00 0. -1.
        -11    1    5    5    0    0 -0.14132188614E+03 -0.15089672219E+03  0.40655341664E+03  0.45610018291E+03  0.00000000000E+00 0.  1.
          4    1    6    6  503    0  0.95623432131E+02  0.20857568341E+03 -0.16127716977E+03  0.28046030374E+03  0.00000000000E+00 0.  1.
         -4    1    6    6    0  503  0.43654306635E+02  0.61326764341E+02 -0.30268006438E+00  0.75277899330E+02  0.00000000000E+00 0. -1.
<mgrwt>
<rscale>  0 0.17503567E+04</rscale>
<asrwt>0</asrwt>
<pdfrwt beam="1">  1        2 0.17413212E+00 0.17503567E+04</pdfrwt>
<pdfrwt beam="2">  1       -1 0.10410883E+00 0.17503567E+04</pdfrwt>
<totfact> 0.19552294E+01</totfact>
</mgrwt>
</event>
<event>
12    6  0.1538774E-007  0.1620798E+04  0.7818608E-02  0.8807872E-01
          2   -1    0    0  501    0  0.00000000000E+00  0.00000000000E+00  0.82579465185E+03  0.82579465185E+03  0.00000000000E+00 0. -1.
         -3   -1    0    0    0  501 -0.00000000000E+00 -0.00000000000E+00 -0.79529081706E+03  0.79529081706E+03  0.00000000000E+00 0.  1.
         24    2    1    2    0    0 -0.93236771477E+02 -0.11970714619E+03 -0.51955425582E+03  0.54727205362E+03  0.80914643474E+02 0.  0.
        254    2    1    2    0    0  0.93236771477E+02  0.11970714619E+03  0.55005809061E+03  0.10738134153E+04  0.90966392224E+03 0.  0.
         23    2    4    4    0    0  0.41342338132E+03 -0.92959932678E+02  0.48593307368E+02  0.43554906133E+03  0.88211303128E+02 0.  0.
         23    2    4    4    0    0 -0.32018660984E+03  0.21266707886E+03  0.50146478324E+03  0.63826435397E+03  0.90375357041E+02 0.  0.
          4    1    3    3  502    0 -0.38378574942E+02 -0.45269455849E+02 -0.89502582021E+02  0.10739157712E+03  0.00000000000E+00 0. -1.
         -3    1    3    3    0  502 -0.54858196535E+02 -0.74437690337E+02 -0.43005167380E+03  0.43988047650E+03  0.00000000000E+00 0.  1.
         11    1    5    5    0    0  0.18102755171E+03 -0.55280543350E+02  0.63498518011E+02  0.19964712555E+03  0.00000000000E+00 0.  1.
        -11    1    5    5    0    0  0.23239582961E+03 -0.37679389328E+02 -0.14905210643E+02  0.23590193578E+03  0.00000000000E+00 0. -1.
          3    1    6    6  503    0 -0.22115788690E+03  0.16762157526E+03  0.41530839401E+03  0.49948860404E+03  0.00000000000E+00 0. -1.
         -3    1    6    6    0  503 -0.99028722941E+02  0.45045503604E+02  0.86156389225E+02  0.13877574992E+03  0.00000000000E+00 0.  1.
<mgrwt>
<rscale>  0 0.16207984E+04</rscale>
<asrwt>0</asrwt>
<pdfrwt beam="1">  1        2 0.12704533E+00 0.16207984E+04</pdfrwt>
<pdfrwt beam="2">  1       -3 0.12235243E+00 0.16207984E+04</pdfrwt>
<totfact> 0.10761934E+01</totfact>
</mgrwt>
</event>
<event>
12    6  0.1538774E-007  0.1271621E+04  0.7818608E-02  0.9052378E-01
         -3   -1    0    0    0  501 -0.00000000000E+00  0.00000000000E+00  0.12798122672E+04  0.12798122672E+04  0.00000000000E+00 0.  1.
          2   -1    0    0  501    0  0.00000000000E+00 -0.00000000000E+00 -0.31587034791E+03  0.31587034791E+03  0.00000000000E+00 0. -1.
         24    2    1    2    0    0  0.70275236413E+01 -0.16008432625E+03  0.57469353457E+03  0.60209035714E+03  0.81017046896E+02 0.  0.
        254    2    1    2    0    0 -0.70275236413E+01  0.16008432625E+03  0.38924838475E+03  0.99359225801E+03  0.90001938454E+03 0.  0.
         23    2    4    4    0    0  0.33644192538E+03  0.13841900907E+03  0.49581172472E+03  0.62199699322E+03  0.93263079364E+02 0.  0.
         23    2    4    4    0    0 -0.34346944902E+03  0.21665317174E+02 -0.10656333997E+03  0.37159526480E+03  0.91031022279E+02 0.  0.
          4    1    3    3  502    0  0.18919756650E+02 -0.57731089303E+02  0.10574180873E+03  0.12195149026E+03  0.00000000000E+00 0. -1.
         -3    1    3    3    0  502 -0.11892233009E+02 -0.10235323694E+03  0.46895172584E+03  0.48013886688E+03  0.00000000000E+00 0.  1.
         11    1    5    5    0    0  0.22257207094E+02 -0.64631731065E+01  0.92222258296E+01  0.24944043848E+02  0.00000000000E+00 0.  1.
        -11    1    5    5    0    0  0.31418471828E+03  0.14488218218E+03  0.48658949890E+03  0.59705294937E+03  0.00000000000E+00 0. -1.
          1    1    6    6  503    0 -0.26161693389E+03  0.52961822408E+02 -0.65625100597E+02  0.27487274976E+03  0.00000000000E+00 0. -1.
         -1    1    6    6    0  503 -0.81852515127E+02 -0.31296505234E+02 -0.40938239373E+02  0.96722515039E+02  0.00000000000E+00 0.  1.
<mgrwt>
<rscale>  0 0.12716206E+04</rscale>
<asrwt>0</asrwt>
<pdfrwt beam="1">  1        2 0.48595439E-01 0.12716206E+04</pdfrwt>
<pdfrwt beam="2">  1       -3 0.19689419E+00 0.12716206E+04</pdfrwt>
<totfact> 0.97290433E+00</totfact>
</mgrwt>
</event>
<event>
12    6  0.1538774E-007  0.1394799E+04  0.7818608E-02  0.8957592E-01
          2   -1    0    0  501    0  0.00000000000E+00  0.00000000000E+00  0.23228147315E+03  0.23228147315E+03  0.00000000000E+00 0. -1.
         -1   -1    0    0    0  501 -0.00000000000E+00 -0.00000000000E+00 -0.20938637479E+04  0.20938637479E+04  0.00000000000E+00 0.  1.
         24    2    1    2    0    0 -0.22237275546E+03 -0.24312857913E+03 -0.80495950693E+03  0.87290322450E+03  0.73750140236E+02 0.  0.
        254    2    1    2    0    0  0.22237275546E+03  0.24312857913E+03 -0.10566227678E+04  0.14532419965E+04  0.94175340651E+03 0.  0.
         23    2    4    4    0    0  0.25815439400E+03 -0.24745934571E+03 -0.82327539520E+03  0.90175083592E+03  0.86558505202E+02 0.  0.
         23    2    4    4    0    0 -0.35781638534E+02  0.49058792484E+03 -0.23334737261E+03  0.55149116061E+03  0.87946951516E+02 0.  0.
          4    1    3    3  502    0 -0.41481658688E+02 -0.11524777873E+02 -0.85151814352E+02  0.95416874817E+02  0.00000000000E+00 0. -1.
         -3    1    3    3    0  502 -0.18089109678E+03 -0.23160380126E+03 -0.71980769257E+03  0.77748634968E+03  0.00000000000E+00 0.  1.
         11    1    5    5    0    0  0.26120793794E+03 -0.24607461346E+03 -0.78281020893E+03  0.86114698248E+03  0.00000000000E+00 0. -1.
        -11    1    5    5    0    0 -0.30535439461E+01 -0.13847322465E+01 -0.40465186277E+02  0.40603853444E+02  0.00000000000E+00 0.  1.
          1    1    6    6  503    0 -0.49219352233E+02  0.48012622607E+03 -0.22451323221E+03  0.53230623614E+03  0.00000000000E+00 0. -1.
         -1    1    6    6    0  503  0.13437713699E+02  0.10461698764E+02 -0.88341403968E+01  0.19184924473E+02  0.00000000000E+00 0.  1.
<mgrwt>
<rscale>  0 0.13947986E+04</rscale>
<asrwt>0</asrwt>
<pdfrwt beam="1">  1        2 0.35735612E-01 0.13947986E+04</pdfrwt>
<pdfrwt beam="2">  1       -1 0.32213288E+00 0.13947986E+04</pdfrwt>
<totfact> 0.38857367E+00</totfact>
</mgrwt>
</event>
<event>
12    6  0.1538774E-007  0.1508020E+04  0.7818608E-02  0.8879137E-01
         -1   -1    0    0    0  501 -0.00000000000E+00  0.00000000000E+00  0.48986493711E+03  0.48986493711E+03  0.00000000000E+00 0.  1.
          2   -1    0    0  501    0  0.00000000000E+00 -0.00000000000E+00 -0.11605873912E+04  0.11605873912E+04  0.00000000000E+00 0. -1.
         24    2    1    2    0    0  0.18938646523E+03  0.26051176356E+03  0.17447537627E+03  0.37458203265E+03  0.78335369350E+02 0.  0.
        254    2    1    2    0    0 -0.18938646523E+03 -0.26051176356E+03 -0.84519783041E+03  0.12758702957E+04  0.89986222654E+03 0.  0.
         23    2    4    4    0    0  0.26433812063E+03  0.16028598576E+03 -0.36899658764E+03  0.48988443542E+03  0.90895759676E+02 0.  0.
         23    2    4    4    0    0 -0.45372458586E+03 -0.42079774933E+03 -0.47620124277E+03  0.78598586028E+03  0.89829857502E+02 0.  0.
          2    1    3    3  502    0  0.51322253184E+02  0.22278198473E+02  0.34002408022E+02  0.65471028328E+02  0.00000000000E+00 0. -1.
         -1    1    3    3    0  502  0.13806421205E+03  0.23823356509E+03  0.14047296825E+03  0.30911100432E+03  0.00000000000E+00 0.  1.
         11    1    5    5    0    0  0.18351568694E+03  0.68067568191E+02 -0.18900424823E+03  0.27209154166E+03  0.00000000000E+00 0.  1.
        -11    1    5    5    0    0  0.80822433686E+02  0.92218417573E+02 -0.17999233941E+03  0.21779289376E+03  0.00000000000E+00 0. -1.
          2    1    6    6  503    0 -0.36281151197E+03 -0.37906808007E+03 -0.38748037026E+03  0.65227742555E+03  0.00000000000E+00 0. -1.
         -2    1    6    6    0  503 -0.90913073885E+02 -0.41729669260E+02 -0.88720872510E+02  0.13370843473E+03  0.00000000000E+00 0.  1.
<mgrwt>
<rscale>  0 0.15080200E+04</rscale>
<asrwt>0</asrwt>
<pdfrwt beam="1">  1        2 0.17855191E+00 0.15080200E+04</pdfrwt>
<pdfrwt beam="2">  1       -1 0.75363837E-01 0.15080200E+04</pdfrwt>
<totfact> 0.38991186E+01</totfact>
</mgrwt>
</event>
<event>
12    6  0.1538774E-007  0.1421903E+04  0.7818608E-02  0.8938115E-01
          2   -1    0    0  501    0  0.00000000000E+00  0.00000000000E+00  0.30616795210E+03  0.30616795210E+03  0.00000000000E+00 0. -1.
         -1   -1    0    0    0  501 -0.00000000000E+00 -0.00000000000E+00 -0.16508978089E+04  0.16508978089E+04  0.00000000000E+00 0.  1.
         24    2    1    2    0    0  0.37956188947E+02  0.42051647619E+03 -0.36762810712E+03  0.56575258645E+03  0.81552344558E+02 0.  0.
        254    2    1    2    0    0 -0.37956188947E+02 -0.42051647619E+03 -0.97710174966E+03  0.13913131745E+04  0.89596302456E+03 0.  0.
         23    2    4    4    0    0 -0.43716206509E+02 -0.65714456325E+03 -0.91601143771E+03  0.11319648496E+04  0.92289668912E+02 0.  0.
         23    2    4    4    0    0  0.57600175628E+01  0.23662808705E+03 -0.61090311950E+02  0.25934832492E+03  0.86622733982E+02 0.  0.
          4    1    3    3  502    0 -0.24238636142E+02  0.11129678216E+03 -0.83452446674E+02  0.14120480182E+03  0.00000000000E+00 0. -1.
         -3    1    3    3    0  502  0.62194825088E+02  0.30921969403E+03 -0.28417566044E+03  0.42454778463E+03  0.00000000000E+00 0.  1.
         11    1    5    5    0    0 -0.64418665608E+02 -0.28111087507E+03 -0.40270752446E+03  0.49532457926E+03  0.00000000000E+00 0. -1.
        -11    1    5    5    0    0  0.20702459099E+02 -0.37603368817E+03 -0.51330391325E+03  0.63664027034E+03  0.00000000000E+00 0.  1.
          4    1    6    6  503    0  0.31227921914E+02  0.31468947481E+02 -0.19691445007E+02  0.48510109968E+02  0.00000000000E+00 0. -1.
         -4    1    6    6    0  503 -0.25467904352E+02  0.20515913957E+03 -0.41398866942E+02  0.21083821496E+03  0.00000000000E+00 0.  1.
<mgrwt>
<rscale>  0 0.14219030E+04</rscale>
<asrwt>0</asrwt>
<pdfrwt beam="1">  1        2 0.47102762E-01 0.14219030E+04</pdfrwt>
<pdfrwt beam="2">  1       -1 0.25398428E+00 0.14219030E+04</pdfrwt>
<totfact> 0.78513484E+00</totfact>
</mgrwt>
</event>
<event>
12    6  0.1538774E-007  0.1579387E+04  0.7818608E-02  0.8833312E-01
         -1   -1    0    0    0  501 -0.00000000000E+00  0.00000000000E+00  0.60924184261E+03  0.60924184261E+03  0.00000000000E+00 0.  1.
          2   -1    0    0  501    0  0.00000000000E+00 -0.00000000000E+00 -0.10235930826E+04  0.10235930826E+04  0.00000000000E+00 0. -1.
         24    2    1    2    0    0  0.39994581118E+03 -0.31150808952E+03  0.44642612437E+02  0.51520729175E+03  0.80322157011E+02 0.  0.
        254    2    1    2    0    0 -0.39994581118E+03  0.31150808952E+03 -0.45899385241E+03  0.11176276334E+04  0.88398089841E+03 0.  0.
         23    2    4    4    0    0 -0.32002224088E+03  0.43049218891E+03  0.81370769823E+02  0.55001969260E+03  0.90347665714E+02 0.  0.
         23    2    4    4    0    0 -0.79923570306E+02 -0.11898409939E+03 -0.54036462223E+03  0.56760794084E+03  0.98182771115E+02 0.  0.
          2    1    3    3  502    0  0.22857821419E+03 -0.13970207475E+03 -0.30387416519E+01  0.26790652034E+03  0.00000000000E+00 0. -1.
         -1    1    3    3    0  502  0.17136759699E+03 -0.17180601477E+03  0.47681354089E+02  0.24730077141E+03  0.00000000000E+00 0.  1.
         11    1    5    5    0    0 -0.39129502842E+02  0.10397000803E+03 -0.29388770144E+01  0.11112838324E+03  0.00000000000E+00 0. -1.
        -11    1    5    5    0    0 -0.28089273803E+03  0.32652218087E+03  0.84309646837E+02  0.43889130936E+03  0.00000000000E+00 0.  1.
          3    1    6    6  503    0 -0.18537033731E+02 -0.64501042656E+02 -0.10529643241E+03  0.12486530664E+03  0.00000000000E+00 0. -1.
         -3    1    6    6    0  503 -0.61386536575E+02 -0.54483056733E+02 -0.43506818982E+03  0.44274263420E+03  0.00000000000E+00 0.  1.
<mgrwt>
<rscale>  0 0.15793869E+04</rscale>
<asrwt>0</asrwt>
<pdfrwt beam="1">  1        2 0.15747586E+00 0.15793869E+04</pdfrwt>
<pdfrwt beam="2">  1       -1 0.93729515E-01 0.15793869E+04</pdfrwt>
<totfact> 0.29424051E+01</totfact>
</mgrwt>
</event>
<event>
12    6  0.1571554E-007  0.1625911E+04  0.7818608E-02  0.8804786E-01
         -3   -1    0    0    0  501 -0.00000000000E+00  0.00000000000E+00  0.10727637270E+04  0.10727637270E+04  0.00000000000E+00 0.  1.
          2   -1    0    0  501    0  0.00000000000E+00 -0.00000000000E+00 -0.61606911661E+03  0.61606911661E+03  0.00000000000E+00 0. -1.
         24    2    1    2    0    0  0.42297909769E+03 -0.59009112479E+02 -0.22407275262E+03  0.49008612870E+03  0.87077107426E+02 0.  0.
        254    2    1    2    0    0 -0.42297909769E+03  0.59009112479E+02  0.68076736303E+03  0.11987467149E+04  0.88946955628E+03 0.  0.
         23    2    4    4    0    0  0.26038294868E+03  0.93131088718E+01  0.30193247554E+03  0.41058486841E+03  0.97625306263E+02 0.  0.
         23    2    4    4    0    0 -0.68336204637E+03  0.49696003607E+02  0.37883488748E+03  0.78816184651E+03  0.90718493910E+02 0.  0.
          2    1    3    3  502    0  0.38631901850E+03 -0.56638268177E+02 -0.17271904824E+03  0.42694513360E+03  0.00000000000E+00 0. -1.
         -1    1    3    3    0  502  0.36660079184E+02 -0.23708443022E+01 -0.51353704375E+02  0.63140995094E+02  0.00000000000E+00 0.  1.
         11    1    5    5    0    0  0.24568165469E+03 -0.82047534921E+00  0.23025110745E+03  0.33671311396E+03  0.00000000000E+00 0.  1.
        -11    1    5    5    0    0  0.14701293988E+02  0.10133584221E+02  0.71681368094E+02  0.73871754453E+02  0.00000000000E+00 0. -1.
          4    1    6    6  503    0 -0.61794630669E+03  0.66119360455E+02  0.35966410425E+03  0.71804434102E+03  0.00000000000E+00 0.  1.
         -4    1    6    6    0  503 -0.65415739673E+02 -0.16423356848E+02  0.19170783234E+02  0.70117505496E+02  0.00000000000E+00 0. -1.
<mgrwt>
<rscale>  0 0.16259109E+04</rscale>
<asrwt>0</asrwt>
<pdfrwt beam="1">  1        2 0.94779864E-01 0.16259109E+04</pdfrwt>
<pdfrwt beam="2">  1       -3 0.16504057E+00 0.16259109E+04</pdfrwt>
<totfact> 0.72323882E+00</totfact>
</mgrwt>
</event>
<event>
12    6  0.1538774E-007  0.1905492E+04  0.7818608E-02  0.8652128E-01
         -1   -1    0    0    0  501 -0.00000000000E+00  0.00000000000E+00  0.19575845239E+04  0.19575845239E+04  0.00000000000E+00 0.  1.
          2   -1    0    0  501    0  0.00000000000E+00 -0.00000000000E+00 -0.46369624331E+03  0.46369624331E+03  0.00000000000E+00 0. -1.
         24    2    1    2    0    0 -0.25176655560E+03  0.60595952201E+03  0.15801881813E+03  0.67950208261E+03  0.78611656599E+02 0.  0.
        254    2    1    2    0    0  0.25176655560E+03 -0.60595952201E+03  0.13358694624E+04  0.17417786846E+04  0.90480518597E+03 0.  0.
         23    2    4    4    0    0  0.21747158739E+03 -0.44650324094E+03  0.14419692558E+04  0.15279084243E+04  0.92573122400E+02 0.  0.
         23    2    4    4    0    0  0.34294968207E+02 -0.15945628107E+03 -0.10609979332E+03  0.21387026028E+03  0.88774273718E+02 0.  0.
          4    1    3    3  502    0 -0.24772420157E+03  0.53254509839E+03  0.13964181586E+03  0.60371466654E+03  0.00000000000E+00 0. -1.
         -3    1    3    3    0  502 -0.40423540314E+01  0.73414423620E+02  0.18377002264E+02  0.75787416065E+02  0.00000000000E+00 0.  1.
         11    1    5    5    0    0  0.92141613571E+02 -0.24924538665E+03  0.88101437318E+03  0.92021718386E+03  0.00000000000E+00 0.  1.
        -11    1    5    5    0    0  0.12532997382E+03 -0.19725785429E+03  0.56095488258E+03  0.60769124044E+03  0.00000000000E+00 0. -1.
          2    1    6    6  503    0 -0.12891126205E+02 -0.27987879209E+02  0.98347172749E+01  0.32345388873E+02  0.00000000000E+00 0. -1.
         -2    1    6    6    0  503  0.47186094412E+02 -0.13146840186E+03 -0.11593451060E+03  0.18152487141E+03  0.00000000000E+00 0.  1.
<mgrwt>
<rscale>  0 0.19054916E+04</rscale>
<asrwt>0</asrwt>
<pdfrwt beam="1">  1        2 0.71337885E-01 0.19054916E+04</pdfrwt>
<pdfrwt beam="2">  1       -1 0.30116685E+00 0.19054916E+04</pdfrwt>
<totfact> 0.23350861E+00</totfact>
</mgrwt>
</event>
<event>
12    6  0.1538774E-007  0.1551678E+04  0.7818608E-02  0.8850797E-01
          2   -1    0    0  501    0  0.00000000000E+00  0.00000000000E+00  0.10750756803E+04  0.10750756803E+04  0.00000000000E+00 0. -1.
         -1   -1    0    0    0  501 -0.00000000000E+00 -0.00000000000E+00 -0.55989167586E+03  0.55989167586E+03  0.00000000000E+00 0.  1.
         24    2    1    2    0    0 -0.11462275467E+03  0.27826777034E+03 -0.26168336546E+03  0.40566925169E+03  0.74283444417E+02 0.  0.
        254    2    1    2    0    0  0.11462275467E+03 -0.27826777034E+03  0.77686736992E+03  0.12292981045E+04  0.90392454960E+03 0.  0.
         23    2    4    4    0    0  0.28648137538E+02  0.31092202490E+03  0.41100486350E+03  0.52440149492E+03  0.92621318815E+02 0.  0.
         23    2    4    4    0    0  0.85974617128E+02 -0.58918979523E+03  0.36586250642E+03  0.70489660957E+03  0.92128209511E+02 0.  0.
          4    1    3    3  502    0  0.56644902016E-02  0.40587234645E+02 -0.64696152330E+02  0.76373527970E+02  0.00000000000E+00 0. -1.
         -3    1    3    3    0  502 -0.11462841916E+03  0.23768053569E+03 -0.19698721313E+03  0.32929572372E+03  0.00000000000E+00 0.  1.
         11    1    5    5    0    0 -0.18800861245E+02  0.11235046031E+03  0.20403866169E+03  0.23368327663E+03  0.00000000000E+00 0.  1.
        -11    1    5    5    0    0  0.47448998783E+02  0.19857156459E+03  0.20696620182E+03  0.29071821828E+03  0.00000000000E+00 0. -1.
          1    1    6    6  503    0  0.56224553811E+01 -0.31781187535E+03  0.16762158750E+03  0.35935079896E+03  0.00000000000E+00 0. -1.
         -1    1    6    6    0  503  0.80352161747E+02 -0.27137791988E+03  0.19824091892E+03  0.34554581061E+03  0.00000000000E+00 0.  1.
<mgrwt>
<rscale>  0 0.15516777E+04</rscale>
<asrwt>0</asrwt>
<pdfrwt beam="1">  1        2 0.16539626E+00 0.15516777E+04</pdfrwt>
<pdfrwt beam="2">  1       -1 0.86137181E-01 0.15516777E+04</pdfrwt>
<totfact> 0.32972123E+01</totfact>
</mgrwt>
</event>
<event>
12    6  0.1538774E-007  0.1502571E+04  0.7818608E-02  0.8882745E-01
          2   -1    0    0  501    0  0.00000000000E+00  0.00000000000E+00  0.62052534599E+03  0.62052534599E+03  0.00000000000E+00 0. -1.
         -1   -1    0    0    0  501 -0.00000000000E+00 -0.00000000000E+00 -0.90960018053E+03  0.90960018053E+03  0.00000000000E+00 0.  1.
         24    2    1    2    0    0  0.26006310360E+03  0.35381479364E+03 -0.28841259646E+03  0.53147707366E+03  0.80425916008E+02 0.  0.
        254    2    1    2    0    0 -0.26006310360E+03 -0.35381479364E+03 -0.66223807549E+00  0.99864845287E+03  0.89692840729E+03 0.  0.
         23    2    4    4    0    0  0.19075453135E+02  0.22304951121E+03 -0.20808080046E+03  0.31882794256E+03  0.90767175095E+02 0.  0.
         23    2    4    4    0    0 -0.27913855674E+03 -0.57686430486E+03  0.20741856239E+03  0.67982051030E+03  0.91884199574E+02 0.  0.
          4    1    3    3  502    0  0.16168297938E+03  0.24555113890E+03 -0.14986301450E+03  0.32999344047E+03  0.00000000000E+00 0. -1.
         -1    1    3    3    0  502  0.98380124224E+02  0.10826365474E+03 -0.13854958196E+03  0.20148363319E+03  0.00000000000E+00 0.  1.
         11    1    5    5    0    0  0.21916879267E+02  0.57401601027E+02 -0.11082642276E+03  0.12671933309E+03  0.00000000000E+00 0. -1.
        -11    1    5    5    0    0 -0.28414261315E+01  0.16564791019E+03 -0.97254377698E+02  0.19210860947E+03  0.00000000000E+00 0.  1.
          2    1    6    6  503    0 -0.24181109778E+03 -0.54833376477E+03  0.20253868215E+03  0.63258552178E+03  0.00000000000E+00 0. -1.
         -2    1    6    6    0  503 -0.37327458956E+02 -0.28530540084E+02  0.48798802369E+01  0.47234988523E+02  0.00000000000E+00 0.  1.
<mgrwt>
<rscale>  0 0.15025711E+04</rscale>
<asrwt>0</asrwt>
<pdfrwt beam="1">  1        2 0.95465439E-01 0.15025711E+04</pdfrwt>
<pdfrwt beam="2">  1       -1 0.13993849E+00 0.15025711E+04</pdfrwt>
<totfact> 0.22053138E+01</totfact>
</mgrwt>
</event>
<event>
12    6  0.1538774E-007  0.1536328E+04  0.7818608E-02  0.8860648E-01
          2   -1    0    0  501    0  0.00000000000E+00  0.00000000000E+00  0.70381604938E+03  0.70381604938E+03  0.00000000000E+00 0. -1.
         -1   -1    0    0    0  501 -0.00000000000E+00 -0.00000000000E+00 -0.83839551182E+03  0.83839551182E+03  0.00000000000E+00 0.  1.
         24    2    1    2    0    0 -0.13032960722E+02  0.45872667917E+03  0.14757791373E+03  0.48854738436E+03  0.79368015563E+02 0.  0.
        254    2    1    2    0    0  0.13032960722E+02 -0.45872667917E+03 -0.28215737616E+03  0.10536641768E+04  0.90553596748E+03 0.  0.
         23    2    4    4    0    0  0.25165375536E+03 -0.44919290467E+03 -0.49559563151E+03  0.72041074645E+03  0.90954578970E+02 0.  0.
         23    2    4    4    0    0 -0.23862079464E+03 -0.95337744956E+01  0.21343825534E+03  0.33325343039E+03  0.92039032663E+02 0.  0.
          2    1    3    3  502    0 -0.22804161162E+02  0.23701871264E+03  0.11436081352E+03  0.26415203119E+03  0.00000000000E+00 0. -1.
         -1    1    3    3    0  502  0.97712004402E+01  0.22170796652E+03  0.33217100205E+02  0.22439535317E+03  0.00000000000E+00 0.  1.
         11    1    5    5    0    0  0.22109466480E+03 -0.43632603023E+03 -0.45558496048E+03  0.66844664086E+03  0.00000000000E+00 0. -1.
        -11    1    5    5    0    0  0.30559090561E+02 -0.12866874443E+02 -0.40010671028E+02  0.51964105592E+02  0.00000000000E+00 0.  1.
          2    1    6    6  503    0 -0.11103571118E+03 -0.45775833813E+02  0.12779188053E+03  0.17537137979E+03  0.00000000000E+00 0. -1.
         -2    1    6    6    0  503 -0.12758508346E+03  0.36242059318E+02  0.85646374809E+02  0.15788205060E+03  0.00000000000E+00 0.  1.
<mgrwt>
<rscale>  0 0.15363284E+04</rscale>
<asrwt>0</asrwt>
<pdfrwt beam="1">  1        2 0.10827939E+00 0.15363284E+04</pdfrwt>
<pdfrwt beam="2">  1       -1 0.12898392E+00 0.15363284E+04</pdfrwt>
<totfact> 0.23170339E+01</totfact>
</mgrwt>
</event>
<event>
12    6  0.1538774E-007  0.1148805E+04  0.7818608E-02  0.9158887E-01
          2   -1    0    0  501    0  0.00000000000E+00  0.00000000000E+00  0.84685180663E+03  0.84685180663E+03  0.00000000000E+00 0. -1.
         -1   -1    0    0    0  501 -0.00000000000E+00 -0.00000000000E+00 -0.38960547620E+03  0.38960547620E+03  0.00000000000E+00 0.  1.
         24    2    1    2    0    0  0.29432990447E+02 -0.45239759054E+02  0.30940179204E+03  0.32404903197E+03  0.79783265666E+02 0.  0.
        254    2    1    2    0    0 -0.29432990447E+02  0.45239759054E+02  0.14784453838E+03  0.91240825085E+03  0.89873125681E+03 0.  0.
         23    2    4    4    0    0  0.19201953723E+03 -0.22784357773E+03  0.37223112052E+03  0.48519059210E+03  0.89831536733E+02 0.  0.
         23    2    4    4    0    0 -0.22145252768E+03  0.27308333679E+03 -0.22438658213E+03  0.42721765875E+03  0.92465446861E+02 0.  0.
          4    1    3    3  502    0  0.28743932328E+02 -0.52550400077E+02  0.31084681350E+03  0.31656515863E+03  0.00000000000E+00 0. -1.
         -3    1    3    3    0  502  0.68905811958E+00  0.73106410234E+01 -0.14450214593E+01  0.74838733476E+01  0.00000000000E+00 0.  1.
         11    1    5    5    0    0 -0.70566397655E+01 -0.29401277675E+01  0.10609813314E+01  0.77179140611E+01  0.00000000000E+00 0.  1.
        -11    1    5    5    0    0  0.19907617699E+03 -0.22490344996E+03  0.37117013919E+03  0.47747267804E+03  0.00000000000E+00 0. -1.
          3    1    6    6  503    0 -0.22087161031E+03  0.27951564808E+03 -0.21594182986E+03  0.41658629316E+03  0.00000000000E+00 0. -1.
         -3    1    6    6    0  503 -0.58091736676E+00 -0.64323112908E+01 -0.84447522701E+01  0.10631365596E+02  0.00000000000E+00 0.  1.
<mgrwt>
<rscale>  0 0.11488048E+04</rscale>
<asrwt>0</asrwt>
<pdfrwt beam="1">  1        2 0.13028489E+00 0.11488048E+04</pdfrwt>
<pdfrwt beam="2">  1       -1 0.59939304E-01 0.11488048E+04</pdfrwt>
<totfact> 0.10172324E+02</totfact>
</mgrwt>
</event>
<event>
12    6  0.1538774E-007  0.2407030E+04  0.7818608E-02  0.8436876E-01
          2   -1    0    0  501    0  0.00000000000E+00  0.00000000000E+00  0.58752104148E+03  0.58752104148E+03  0.00000000000E+00 0. -1.
         -1   -1    0    0    0  501 -0.00000000000E+00 -0.00000000000E+00 -0.24653554033E+04  0.24653554033E+04  0.00000000000E+00 0.  1.
         24    2    1    2    0    0 -0.65040800558E+03  0.74286242537E+03 -0.40719628594E+03  0.10709526857E+04  0.79092875076E+02 0.  0.
        254    2    1    2    0    0  0.65040800558E+03 -0.74286242537E+03 -0.14706380759E+04  0.19819237592E+04  0.88902771615E+03 0.  0.
         23    2    4    4    0    0 -0.83416194310E+02 -0.51723682086E+03 -0.42145675261E+03  0.67871879875E+03  0.92418737991E+02 0.  0.
         23    2    4    4    0    0  0.73382419989E+03 -0.22562560451E+03 -0.10491813233E+04  0.13032049604E+04  0.90315280714E+02 0.  0.
          4    1    3    3  502    0 -0.52865642548E+03  0.59575002461E+03 -0.36102277450E+03  0.87449022392E+03  0.00000000000E+00 0. -1.
         -3    1    3    3    0  502 -0.12175158009E+03  0.14711240076E+03 -0.46173511446E+02  0.19646246174E+03  0.00000000000E+00 0.  1.
         11    1    5    5    0    0 -0.52045014126E+02 -0.11617860900E+03 -0.12999530822E+03  0.18194761016E+03  0.00000000000E+00 0. -1.
        -11    1    5    5    0    0 -0.31371180185E+02 -0.40105821186E+03 -0.29146144439E+03  0.49677118859E+03  0.00000000000E+00 0.  1.
          2    1    6    6  503    0  0.47058077941E+03 -0.17312180428E+03 -0.62577654595E+03  0.80188135938E+03  0.00000000000E+00 0.  1.
         -2    1    6    6    0  503  0.26324342047E+03 -0.52503800228E+02 -0.42340477737E+03  0.50132360104E+03  0.00000000000E+00 0. -1.
<mgrwt>
<rscale>  0 0.24070298E+04</rscale>
<asrwt>0</asrwt>
<pdfrwt beam="1">  1        2 0.90387855E-01 0.24070298E+04</pdfrwt>
<pdfrwt beam="2">  1       -1 0.37928544E+00 0.24070298E+04</pdfrwt>
<totfact> 0.51644278E-01</totfact>
</mgrwt>
</event>
<event>
12    6  0.1538774E-007  0.1304350E+04  0.7818608E-02  0.9026122E-01
          2   -1    0    0  501    0  0.00000000000E+00  0.00000000000E+00  0.38785327660E+03  0.38785327660E+03  0.00000000000E+00 0. -1.
         -1   -1    0    0    0  501 -0.00000000000E+00 -0.00000000000E+00 -0.10966321618E+04  0.10966321618E+04  0.00000000000E+00 0.  1.
         24    2    1    2    0    0  0.21340835796E+03 -0.67707731980E+02  0.93481286053E+02  0.25594852535E+03  0.81507254701E+02 0.  0.
        254    2    1    2    0    0 -0.21340835796E+03  0.67707731980E+02 -0.80226017123E+03  0.12285369130E+04  0.90308033979E+03 0.  0.
         23    2    4    4    0    0 -0.14400600159E+03  0.16619366551E+03 -0.97218315919E+03  0.10010668701E+04  0.92933957107E+02 0.  0.
         23    2    4    4    0    0 -0.69402356376E+02 -0.98485933533E+02  0.16992298797E+03  0.22747004296E+03  0.91392737286E+02 0.  0.
          4    1    3    3  502    0  0.18043438765E+03 -0.76799668608E+02  0.10150988439E+03  0.22081443335E+03  0.00000000000E+00 0. -1.
         -3    1    3    3    0  502  0.32973970310E+02  0.90919366279E+01 -0.80285983360E+01  0.35134092003E+02  0.00000000000E+00 0.  1.
         11    1    5    5    0    0 -0.52497297524E+02  0.67576052108E+01 -0.16804222322E+03  0.17618121427E+03  0.00000000000E+00 0.  1.
        -11    1    5    5    0    0 -0.91508704064E+02  0.15943606030E+03 -0.80414093597E+03  0.82488565580E+03  0.00000000000E+00 0. -1.
          4    1    6    6  503    0 -0.39278333123E+02  0.81675916525E+01  0.51421215661E+02  0.65219923539E+02  0.00000000000E+00 0.  1.
         -4    1    6    6    0  503 -0.30124023252E+02 -0.10665352519E+03  0.11850177231E+03  0.16225011942E+03  0.00000000000E+00 0. -1.
<mgrwt>
<rscale>  0 0.13043502E+04</rscale>
<asrwt>0</asrwt>
<pdfrwt beam="1">  1        2 0.59669734E-01 0.13043502E+04</pdfrwt>
<pdfrwt beam="2">  1       -1 0.16871264E+00 0.13043502E+04</pdfrwt>
<totfact> 0.23222156E+01</totfact>
</mgrwt>
</event>
<event>
12    6  0.1538774E-007  0.1494374E+04  0.7818608E-02  0.8888203E-01
          2   -1    0    0  501    0  0.00000000000E+00  0.00000000000E+00  0.26935573535E+04  0.26935573535E+04  0.00000000000E+00 0. -1.
         -1   -1    0    0    0  501 -0.00000000000E+00 -0.00000000000E+00 -0.20726806172E+03  0.20726806172E+03  0.00000000000E+00 0.  1.
         24    2    1    2    0    0 -0.53524572619E+02 -0.16017457675E+02 -0.11397723107E+03  0.14818860506E+03  0.76469697548E+02 0.  0.
        254    2    1    2    0    0  0.53524572619E+02  0.16017457675E+02  0.26002665229E+04  0.27526368102E+04  0.90138891711E+03 0.  0.
         23    2    4    4    0    0  0.66825510398E+02 -0.21821261183E+03  0.14650555521E+03  0.28610861205E+03  0.91169443245E+02 0.  0.
         23    2    4    4    0    0 -0.13300937779E+02  0.23423006950E+03  0.24537609677E+04  0.24665281981E+04  0.88191979677E+02 0.  0.
          2    1    3    3  502    0 -0.43495731536E+02  0.26193206687E+02 -0.53489855849E+02  0.73750440115E+02  0.00000000000E+00 0. -1.
         -1    1    3    3    0  502 -0.10028841083E+02 -0.42210664362E+02 -0.60487375224E+02  0.74438164948E+02  0.00000000000E+00 0.  1.
         11    1    5    5    0    0  0.25998144972E+01 -0.15684272198E+03  0.90599626470E+02  0.18114825638E+03  0.00000000000E+00 0. -1.
        -11    1    5    5    0    0  0.64225695901E+02 -0.61369889845E+02  0.55905928740E+02  0.10496035567E+03  0.00000000000E+00 0.  1.
          2    1    6    6  503    0  0.35364626134E+02  0.11964218838E+03  0.13575446022E+04  0.13632652922E+04  0.00000000000E+00 0. -1.
         -2    1    6    6    0  503 -0.48665563913E+02  0.11458788113E+03  0.10962163655E+04  0.11032629059E+04  0.00000000000E+00 0.  1.
<mgrwt>
<rscale>  0 0.14943740E+04</rscale>
<asrwt>0</asrwt>
<pdfrwt beam="1">  1        2 0.41439342E+00 0.14943740E+04</pdfrwt>
<pdfrwt beam="2">  1       -1 0.31887396E-01 0.14943740E+04</pdfrwt>
<totfact> 0.27137776E+01</totfact>
</mgrwt>
</event>
<event>
12    6  0.1538774E-007  0.2895678E+04  0.7818608E-02  0.8274164E-01
          2   -1    0    0  501    0  0.00000000000E+00  0.00000000000E+00  0.19376797295E+04  0.19376797295E+04  0.00000000000E+00 0. -1.
         -1   -1    0    0    0  501 -0.00000000000E+00 -0.00000000000E+00 -0.10818291021E+04  0.10818291021E+04  0.00000000000E+00 0.  1.
         24    2    1    2    0    0 -0.85206126383E+03 -0.25763197405E+03 -0.61238271793E+03  0.10833880691E+04  0.79589469327E+02 0.  0.
        254    2    1    2    0    0  0.85206126383E+03  0.25763197405E+03  0.14682333454E+04  0.19361207625E+04  0.89469090700E+03 0.  0.
         23    2    4    4    0    0 -0.35228676080E+02  0.19383109683E+03  0.14477047222E+01  0.21815980530E+03  0.93701926784E+02 0.  0.
         23    2    4    4    0    0  0.88728993991E+03  0.63800877212E+02  0.14667856407E+04  0.17179609572E+04  0.92605320377E+02 0.  0.
          4    1    3    3  502    0 -0.69123401217E+02 -0.21438483272E+02 -0.25215313916E+02  0.76638536107E+02  0.00000000000E+00 0. -1.
         -3    1    3    3    0  502 -0.78293786261E+03 -0.23619349078E+03 -0.58716740401E+03  0.10067495330E+04  0.00000000000E+00 0.  1.
         11    1    5    5    0    0  0.18555974565E+02  0.35611563438E+02  0.27997259406E+02  0.48952570687E+02  0.00000000000E+00 0. -1.
        -11    1    5    5    0    0 -0.53784650644E+02  0.15821953340E+03 -0.26549554684E+02  0.16920723462E+03  0.00000000000E+00 0.  1.
          2    1    6    6  503    0  0.40920783841E+03  0.39054380817E+02  0.76494529024E+03  0.86839944538E+03  0.00000000000E+00 0. -1.
         -2    1    6    6    0  503  0.47808210150E+03  0.24746496396E+02  0.70184035042E+03  0.84956151181E+03  0.00000000000E+00 0.  1.
<mgrwt>
<rscale>  0 0.28956784E+04</rscale>
<asrwt>0</asrwt>
<pdfrwt beam="1">  1        2 0.29810457E+00 0.28956784E+04</pdfrwt>
<pdfrwt beam="2">  1       -1 0.16643525E+00 0.28956784E+04</pdfrwt>
<totfact> 0.18585011E+00</totfact>
</mgrwt>
</event>
<event>
12    6  0.1538774E-007  0.4372339E+04  0.7818608E-02  0.7933376E-01
         -1   -1    0    0    0  501 -0.00000000000E+00  0.00000000000E+00  0.33311101078E+04  0.33311101078E+04  0.00000000000E+00 0.  1.
          2   -1    0    0  501    0  0.00000000000E+00 -0.00000000000E+00 -0.14347579256E+04  0.14347579256E+04  0.00000000000E+00 0. -1.
         24    2    1    2    0    0 -0.98090348843E+03 -0.92529627402E+03 -0.83384946735E+03  0.15879983030E+04  0.89937910847E+02 0.  0.
        254    2    1    2    0    0  0.98090348843E+03  0.92529627402E+03  0.27302016496E+04  0.31778697304E+04  0.90912602417E+03 0.  0.
         23    2    4    4    0    0  0.23009790290E+03  0.34898300748E+03  0.19566339346E+03  0.47064462045E+03  0.92130401026E+02 0.  0.
         23    2    4    4    0    0  0.75080558552E+03  0.57631326654E+03  0.25345382561E+04  0.27072251100E+04  0.96631339853E+02 0.  0.
          2    1    3    3  502    0 -0.72806086369E+03 -0.67864613840E+03 -0.56860765370E+03  0.11462756502E+04  0.00000000000E+00 0. -1.
         -1    1    3    3    0  502 -0.25284262473E+03 -0.24665013562E+03 -0.26524181365E+03  0.44172265279E+03  0.00000000000E+00 0.  1.
         11    1    5    5    0    0  0.10354285267E+03  0.23288558196E+03  0.97861546133E+02  0.27300860579E+03  0.00000000000E+00 0. -1.
        -11    1    5    5    0    0  0.12655505024E+03  0.11609742552E+03  0.97801847326E+02  0.19763601466E+03  0.00000000000E+00 0.  1.
          2    1    6    6  503    0  0.64319825568E+03  0.47423168108E+03  0.22205466392E+04  0.23599633600E+04  0.00000000000E+00 0. -1.
         -2    1    6    6    0  503  0.10760732984E+03  0.10208158546E+03  0.31399161691E+03  0.34726175000E+03  0.00000000000E+00 0.  1.
<mgrwt>
<rscale>  0 0.43723388E+04</rscale>
<asrwt>0</asrwt>
<pdfrwt beam="1">  1        2 0.22073199E+00 0.43723388E+04</pdfrwt>
<pdfrwt beam="2">  1       -1 0.51247848E+00 0.43723388E+04</pdfrwt>
<totfact> 0.15019334E-02</totfact>
</mgrwt>
</event>
<event>
12    6  0.1538774E-007  0.2188476E+04  0.7818608E-02  0.8523240E-01
          2   -1    0    0  501    0  0.00000000000E+00  0.00000000000E+00  0.27860773380E+04  0.27860773380E+04  0.00000000000E+00 0. -1.
         -1   -1    0    0    0  501 -0.00000000000E+00 -0.00000000000E+00 -0.42976455582E+03  0.42976455582E+03  0.00000000000E+00 0.  1.
         24    2    1    2    0    0 -0.68621499240E+03 -0.59276113380E+03  0.88993638494E+03  0.12730211550E+04  0.79619810297E+02 0.  0.
        254    2    1    2    0    0  0.68621499240E+03  0.59276113380E+03  0.14663763972E+04  0.19428207389E+04  0.89556457467E+03 0.  0.
         23    2    4    4    0    0  0.69831466452E+03  0.53878797506E+02  0.64779115668E+03  0.95858944392E+03  0.93349042946E+02 0.  0.
         23    2    4    4    0    0 -0.12099672124E+02  0.53888233630E+03  0.81858524056E+03  0.98423129493E+03  0.89938153320E+02 0.  0.
          4    1    3    3  502    0 -0.62431777806E+03 -0.56438304862E+03  0.81093240637E+03  0.11687224997E+04  0.00000000000E+00 0. -1.
         -3    1    3    3    0  502 -0.61897214342E+02 -0.28378085179E+02  0.79003978571E+02  0.10429865527E+03  0.00000000000E+00 0.  1.
         11    1    5    5    0    0  0.28445944872E+01  0.61154040267E+01 -0.30996132597E+00  0.67517375712E+01  0.00000000000E+00 0. -1.
        -11    1    5    5    0    0  0.69547007004E+03  0.47763393480E+02  0.64810111801E+03  0.95183770635E+03  0.00000000000E+00 0.  1.
          1    1    6    6  503    0 -0.13896426053E+02  0.23598315239E+03  0.28124534434E+03  0.36739638346E+03  0.00000000000E+00 0. -1.
         -1    1    6    6    0  503  0.17967539294E+01  0.30289918390E+03  0.53733989622E+03  0.61683491147E+03  0.00000000000E+00 0.  1.
<mgrwt>
<rscale>  0 0.21884764E+04</rscale>
<asrwt>0</asrwt>
<pdfrwt beam="1">  1        2 0.42862727E+00 0.21884764E+04</pdfrwt>
<pdfrwt beam="2">  1       -1 0.66117626E-01 0.21884764E+04</pdfrwt>
<totfact> 0.56941862E+00</totfact>
</mgrwt>
</event>
<event>
12    6  0.1538774E-007  0.2465200E+04  0.7818608E-02  0.8415489E-01
          2   -1    0    0  501    0  0.00000000000E+00  0.00000000000E+00  0.82701617995E+03  0.82701617995E+03  0.00000000000E+00 0. -1.
         -1   -1    0    0    0  501 -0.00000000000E+00 -0.00000000000E+00 -0.18370899464E+04  0.18370899464E+04  0.00000000000E+00 0.  1.
         24    2    1    2    0    0 -0.30702298926E+03  0.49579987222E+03  0.53052576599E+03  0.79228855786E+03  0.78631681325E+02 0.  0.
        254    2    1    2    0    0  0.30702298926E+03 -0.49579987222E+03 -0.15405995324E+04  0.18718175685E+04  0.88891701591E+03 0.  0.
         23    2    4    4    0    0  0.58698185870E+03 -0.24851664340E+03 -0.72205415261E+03  0.96737672920E+03  0.90262464046E+02 0.  0.
         23    2    4    4    0    0 -0.27995886944E+03 -0.24728322882E+03 -0.81854537984E+03  0.90444083931E+03  0.92036564016E+02 0.  0.
          2    1    3    3  502    0 -0.31071982742E+03  0.48700760013E+03  0.51422251410E+03  0.77340028946E+03  0.00000000000E+00 0. -1.
         -1    1    3    3    0  502  0.36968381533E+01  0.87922720861E+01  0.16303251891E+02  0.18888268396E+02  0.00000000000E+00 0.  1.
         11    1    5    5    0    0  0.31437307455E+03 -0.18028877118E+03 -0.39050443296E+03  0.53275527513E+03  0.00000000000E+00 0.  1.
        -11    1    5    5    0    0  0.27260878415E+03 -0.68227872219E+02 -0.33154971964E+03  0.43462145407E+03  0.00000000000E+00 0. -1.
          3    1    6    6  503    0 -0.14382872654E+03 -0.11200625807E+03 -0.50417987934E+03  0.53612447729E+03  0.00000000000E+00 0. -1.
         -3    1    6    6    0  503 -0.13613014290E+03 -0.13527697074E+03 -0.31436550050E+03  0.36831636201E+03  0.00000000000E+00 0.  1.
<mgrwt>
<rscale>  0 0.24652003E+04</rscale>
<asrwt>0</asrwt>
<pdfrwt beam="1">  1        2 0.12723326E+00 0.24652003E+04</pdfrwt>
<pdfrwt beam="2">  1       -1 0.28262922E+00 0.24652003E+04</pdfrwt>
<totfact> 0.14383397E+00</totfact>
</mgrwt>
</event>
<event>
12    6  0.1538774E-007  0.1457225E+04  0.7818608E-02  0.8913407E-01
          2   -1    0    0  501    0  0.00000000000E+00  0.00000000000E+00  0.19136652563E+04  0.19136652563E+04  0.00000000000E+00 0. -1.
         -1   -1    0    0    0  501 -0.00000000000E+00 -0.00000000000E+00 -0.27741320200E+03  0.27741320200E+03  0.00000000000E+00 0.  1.
         24    2    1    2    0    0  0.20811300502E+03  0.21582756942E+03  0.13174491929E+02  0.31059209143E+03  0.80008233582E+02 0.  0.
        254    2    1    2    0    0 -0.20811300502E+03 -0.21582756942E+03  0.16230775624E+04  0.18804863669E+04  0.90108581166E+03 0.  0.
         23    2    4    4    0    0  0.19570112003E+03  0.24684554503E+03  0.55909400491E+03  0.64765110069E+03  0.87373854283E+02 0.  0.
         23    2    4    4    0    0 -0.40381412505E+03 -0.46267311445E+03  0.10639835575E+04  0.12328352662E+04  0.10339015722E+03 0.  0.
          4    1    3    3  502    0  0.15243854023E+03  0.17652884897E+03 -0.21323206708E+02  0.23421063642E+03  0.00000000000E+00 0. -1.
         -1    1    3    3    0  502  0.55674464786E+02  0.39298720446E+02  0.34497698637E+02  0.76381455008E+02  0.00000000000E+00 0.  1.
         11    1    5    5    0    0  0.42148154836E+02  0.52584943721E+02  0.58828019743E+02  0.89456018071E+02  0.00000000000E+00 0.  1.
        -11    1    5    5    0    0  0.15355296519E+03  0.19426060130E+03  0.50026598517E+03  0.55819508262E+03  0.00000000000E+00 0. -1.
          4    1    6    6  503    0 -0.16284385136E+03 -0.11366124829E+03  0.33221024641E+03  0.38704088557E+03  0.00000000000E+00 0. -1.
         -4    1    6    6    0  503 -0.24097027369E+03 -0.34901186616E+03  0.73177331109E+03  0.84579438065E+03  0.00000000000E+00 0.  1.
<mgrwt>
<rscale>  0 0.14572248E+04</rscale>
<asrwt>0</asrwt>
<pdfrwt beam="1">  1        2 0.29441003E+00 0.14572248E+04</pdfrwt>
<pdfrwt beam="2">  1       -1 0.42678955E-01 0.14572248E+04</pdfrwt>
<totfact> 0.44541510E+01</totfact>
</mgrwt>
</event>
<event>
12    6  0.1538774E-007  0.1274989E+04  0.7818608E-02  0.9049638E-01
          2   -1    0    0  501    0  0.00000000000E+00  0.00000000000E+00  0.71061510986E+03  0.71061510986E+03  0.00000000000E+00 0. -1.
         -1   -1    0    0    0  501 -0.00000000000E+00 -0.00000000000E+00 -0.57189738720E+03  0.57189738720E+03  0.00000000000E+00 0.  1.
         24    2    1    2    0    0 -0.90629156066E+02 -0.21134437387E+03 -0.17732385181E+03  0.30138663237E+03  0.80684976664E+02 0.  0.
        254    2    1    2    0    0  0.90629156066E+02  0.21134437387E+03  0.31604157447E+03  0.98112586468E+03  0.89991421661E+03 0.  0.
         23    2    4    4    0    0 -0.12220517778E+03  0.38483103687E+03 -0.14329741776E+03  0.43832287319E+03  0.92540579244E+02 0.  0.
         23    2    4    4    0    0  0.21283433385E+03 -0.17348666300E+03  0.45933899223E+03  0.54280299150E+03  0.90811353297E+02 0.  0.
          4    1    3    3  502    0 -0.50247963601E+02 -0.32222778571E+02 -0.36294594738E+02  0.69860309991E+02  0.00000000000E+00 0. -1.
         -3    1    3    3    0  502 -0.40381192465E+02 -0.17912159530E+03 -0.14102925707E+03  0.23152632238E+03  0.00000000000E+00 0.  1.
         11    1    5    5    0    0 -0.29407461087E+02  0.20689981391E+03 -0.40567935745E+02  0.21288045747E+03  0.00000000000E+00 0.  1.
        -11    1    5    5    0    0 -0.92797716692E+02  0.17793122297E+03 -0.10272948202E+03  0.22544241572E+03  0.00000000000E+00 0. -1.
          2    1    6    6  503    0  0.21071052367E+03 -0.17026483405E+03  0.46366567951E+03  0.53700549425E+03  0.00000000000E+00 0. -1.
         -2    1    6    6    0  503  0.21238101772E+01 -0.32218289574E+01 -0.43266872793E+01  0.57974972456E+01  0.00000000000E+00 0.  1.
<mgrwt>
<rscale>  0 0.12749885E+04</rscale>
<asrwt>0</asrwt>
<pdfrwt beam="1">  1        2 0.10932540E+00 0.12749885E+04</pdfrwt>
<pdfrwt beam="2">  1       -1 0.87984213E-01 0.12749885E+04</pdfrwt>
<totfact> 0.57264611E+01</totfact>
</mgrwt>
</event>
<event>
12    6  0.1538774E-007  0.1409098E+04  0.7818608E-02  0.8947259E-01
          4   -1    0    0  501    0  0.00000000000E+00  0.00000000000E+00  0.12252465860E+04  0.12252465860E+04  0.00000000000E+00 0. -1.
         -1   -1    0    0    0  501 -0.00000000000E+00 -0.00000000000E+00 -0.40513447399E+03  0.40513447399E+03  0.00000000000E+00 0.  1.
         24    2    1    2    0    0  0.10812331813E+03  0.39192941239E+03  0.19977216033E+03  0.46015184924E+03  0.80817647205E+02 0.  0.
        254    2    1    2    0    0 -0.10812331813E+03 -0.39192941239E+03  0.62033995171E+03  0.11702292108E+04  0.90516044647E+03 0.  0.
         23    2    4    4    0    0  0.17575526589E+03 -0.36578971800E+03  0.73979440713E+03  0.84853843553E+03  0.89608484368E+02 0.  0.
         23    2    4    4    0    0 -0.28387858403E+03 -0.26139694388E+02 -0.11945445542E+03  0.32169077524E+03  0.89136153525E+02 0.  0.
          2    1    3    3  502    0  0.46586239593E+02  0.77499232901E+02  0.70505713668E+02  0.11466239348E+03  0.00000000000E+00 0. -1.
         -1    1    3    3    0  502  0.61537078540E+02  0.31443017949E+03  0.12926644666E+03  0.34548945576E+03  0.00000000000E+00 0.  1.
         11    1    5    5    0    0  0.10148902358E+03 -0.11657875480E+03  0.30456110143E+03  0.34153783463E+03  0.00000000000E+00 0. -1.
        -11    1    5    5    0    0  0.74266242314E+02 -0.24921096320E+03  0.43523330570E+03  0.50700060090E+03  0.00000000000E+00 0.  1.
          4    1    6    6  503    0 -0.11664664954E+03 -0.29381234296E+02 -0.93654049140E+02  0.15244926598E+03  0.00000000000E+00 0. -1.
         -4    1    6    6    0  503 -0.16723193449E+03  0.32415399089E+01 -0.25800406279E+02  0.16924150926E+03  0.00000000000E+00 0.  1.
<mgrwt>
<rscale>  0 0.14090985E+04</rscale>
<asrwt>0</asrwt>
<pdfrwt beam="1">  1        4 0.18849947E+00 0.14090985E+04</pdfrwt>
<pdfrwt beam="2">  1       -1 0.62328381E-01 0.14090985E+04</pdfrwt>
<totfact> 0.16310211E+00</totfact>
</mgrwt>
</event>
<event>
12    6  0.1538774E-007  0.1612974E+04  0.7818608E-02  0.8812617E-01
         -1   -1    0    0    0  501 -0.00000000000E+00  0.00000000000E+00  0.46017874881E+03  0.46017874881E+03  0.00000000000E+00 0.  1.
          2   -1    0    0  501    0  0.00000000000E+00 -0.00000000000E+00 -0.14134109103E+04  0.14134109103E+04  0.00000000000E+00 0. -1.
         24    2    1    2    0    0 -0.22188501362E+03  0.14219630725E+03 -0.90273948090E+03  0.94382117523E+03  0.80044308776E+02 0.  0.
        254    2    1    2    0    0  0.22188501362E+03 -0.14219630725E+03 -0.50492680598E+02  0.92976848388E+03  0.89020625349E+03 0.  0.
         23    2    4    4    0    0  0.17119033729E+03 -0.34500502144E+03  0.31009279264E+03  0.50284091380E+03  0.91415798119E+02 0.  0.
         23    2    4    4    0    0  0.50694676329E+02  0.20280871418E+03 -0.36058547324E+03  0.42692757008E+03  0.92433445357E+02 0.  0.
          4    1    3    3  502    0 -0.19904148044E+03  0.15111850696E+03 -0.79637483738E+03  0.83466591862E+03  0.00000000000E+00 0. -1.
         -3    1    3    3    0  502 -0.22843533182E+02 -0.89221997045E+01 -0.10636464351E+03  0.10915525661E+03  0.00000000000E+00 0.  1.
         11    1    5    5    0    0  0.36015690582E+02 -0.40608332160E+02  0.84993974449E+02  0.10084712342E+03  0.00000000000E+00 0. -1.
        -11    1    5    5    0    0  0.13517464671E+03 -0.30439668928E+03  0.22509881819E+03  0.40199379039E+03  0.00000000000E+00 0.  1.
          1    1    6    6  503    0  0.14301562068E+02  0.10653001640E+03 -0.26696821034E+03  0.28779368375E+03  0.00000000000E+00 0. -1.
         -1    1    6    6    0  503  0.36393114261E+02  0.96278697778E+02 -0.93617262902E+02  0.13913388633E+03  0.00000000000E+00 0.  1.
<mgrwt>
<rscale>  0 0.16129745E+04</rscale>
<asrwt>0</asrwt>
<pdfrwt beam="1">  1        2 0.21744783E+00 0.16129745E+04</pdfrwt>
<pdfrwt beam="2">  1       -1 0.70796731E-01 0.16129745E+04</pdfrwt>
<totfact> 0.31288209E+01</totfact>
</mgrwt>
</event>
<event>
12    6  0.1538774E-007  0.3020470E+04  0.7818608E-02  0.8237909E-01
         -1   -1    0    0    0  501 -0.00000000000E+00  0.00000000000E+00  0.12211633329E+04  0.12211633329E+04  0.00000000000E+00 0.  1.
          2   -1    0    0  501    0  0.00000000000E+00 -0.00000000000E+00 -0.18677357723E+04  0.18677357723E+04  0.00000000000E+00 0. -1.
         24    2    1    2    0    0 -0.10400564589E+04 -0.88840606392E+03 -0.41448123512E+03  0.14315100020E+04  0.80270912088E+02 0.  0.
        254    2    1    2    0    0  0.10400564589E+04  0.88840606392E+03 -0.23209120421E+03  0.16573891033E+04  0.90669153545E+03 0.  0.
         23    2    4    4    0    0  0.10685438805E+04  0.45331601211E+03 -0.20942348884E+02  0.11647482118E+04  0.94437193579E+02 0.  0.
         23    2    4    4    0    0 -0.28487421607E+02  0.43509005181E+03 -0.21114885533E+03  0.49264089147E+03  0.89422158692E+02 0.  0.
          2    1    3    3  502    0 -0.70374400899E+03 -0.58229108410E+03 -0.23994096708E+03  0.94439938823E+03  0.00000000000E+00 0. -1.
         -1    1    3    3    0  502 -0.33631244990E+03 -0.30611497982E+03 -0.17454026804E+03  0.48711061372E+03  0.00000000000E+00 0.  1.
         11    1    5    5    0    0  0.91117240761E+03  0.36075306209E+03  0.72104756285E+01  0.98001526476E+03  0.00000000000E+00 0. -1.
        -11    1    5    5    0    0  0.15737147288E+03  0.92562950022E+02 -0.28152824512E+02  0.18473294704E+03  0.00000000000E+00 0.  1.
          3    1    6    6  503    0 -0.37584384324E+02  0.42960315319E+03 -0.19493320546E+03  0.47325512122E+03  0.00000000000E+00 0. -1.
         -3    1    6    6    0  503  0.90969627174E+01  0.54868986205E+01 -0.16215649871E+02  0.19385770243E+02  0.00000000000E+00 0.  1.
<mgrwt>
<rscale>  0 0.30204705E+04</rscale>
<asrwt>0</asrwt>
<pdfrwt beam="1">  1        2 0.28734396E+00 0.30204705E+04</pdfrwt>
<pdfrwt beam="2">  1       -1 0.18787128E+00 0.30204705E+04</pdfrwt>
<totfact> 0.14073885E+00</totfact>
</mgrwt>
</event>
<event>
12    6  0.1538774E-007  0.1318198E+04  0.7818608E-02  0.9015257E-01
         -1   -1    0    0    0  501 -0.00000000000E+00  0.00000000000E+00  0.67999155823E+03  0.67999155823E+03  0.00000000000E+00 0.  1.
          2   -1    0    0  501    0  0.00000000000E+00 -0.00000000000E+00 -0.63884813448E+03  0.63884813448E+03  0.00000000000E+00 0. -1.
         24    2    1    2    0    0 -0.19895956930E+03  0.26769452348E+03  0.71900267610E+02  0.35032303614E+03  0.79443772887E+02 0.  0.
        254    2    1    2    0    0  0.19895956930E+03 -0.26769452348E+03 -0.30756843861E+02  0.96851665657E+03  0.90875368638E+03 0.  0.
         23    2    4    4    0    0 -0.10172741309E+03 -0.10280128363E+03  0.38542220053E+03  0.42138043937E+03  0.89970170234E+02 0.  0.
         23    2    4    4    0    0  0.30068698239E+03 -0.16489323985E+03 -0.41617904440E+03  0.54713621720E+03  0.92469461174E+02 0.  0.
          2    1    3    3  502    0 -0.32187103762E+02  0.10233771985E+02 -0.48246999707E+01  0.34117700207E+02  0.00000000000E+00 0. -1.
         -1    1    3    3    0  502 -0.16677246554E+03  0.25746075149E+03  0.76724967580E+02  0.31620533593E+03  0.00000000000E+00 0.  1.
         11    1    5    5    0    0  0.44893809581E+01  0.12661901369E+02  0.31263816509E+02  0.34027995979E+02  0.00000000000E+00 0.  1.
        -11    1    5    5    0    0 -0.10621679405E+03 -0.11546318500E+03  0.35415838403E+03  0.38735244340E+03  0.00000000000E+00 0. -1.
          4    1    6    6  503    0  0.28455157414E+03 -0.12499483732E+03 -0.38001037903E+03  0.49091872635E+03  0.00000000000E+00 0. -1.
         -4    1    6    6    0  503  0.16135408248E+02 -0.39898402530E+02 -0.36168665362E+02  0.56217490854E+02  0.00000000000E+00 0.  1.
<mgrwt>
<rscale>  0 0.13181978E+04</rscale>
<asrwt>0</asrwt>
<pdfrwt beam="1">  1        2 0.98284328E-01 0.13181978E+04</pdfrwt>
<pdfrwt beam="2">  1       -1 0.10461409E+00 0.13181978E+04</pdfrwt>
<totfact> 0.44140870E+01</totfact>
</mgrwt>
</event>
<event>
12    6  0.1538774E-007  0.2643746E+04  0.7818608E-02  0.8353492E-01
         -1   -1    0    0    0  501 -0.00000000000E+00  0.00000000000E+00  0.19592966546E+04  0.19592966546E+04  0.00000000000E+00 0.  1.
          2   -1    0    0  501    0  0.00000000000E+00 -0.00000000000E+00 -0.89182454061E+03  0.89182454061E+03  0.00000000000E+00 0. -1.
         24    2    1    2    0    0  0.28574664059E+03 -0.10904182103E+03  0.16855163108E+04  0.17149543997E+04  0.81006776562E+02 0.  0.
        254    2    1    2    0    0 -0.28574664059E+03  0.10904182103E+03 -0.61804419682E+03  0.11361667955E+04  0.90297015263E+03 0.  0.
         23    2    4    4    0    0 -0.24232404245E+03  0.21327096731E+03  0.14146915068E+03  0.36305147652E+03  0.87105722897E+02 0.  0.
         23    2    4    4    0    0 -0.43422598137E+02 -0.10422914628E+03 -0.75951334750E+03  0.77311531894E+03  0.89986301060E+02 0.  0.
          4    1    3    3  502    0  0.47298513602E+01 -0.20900680716E+02  0.93377285506E+02  0.95804631395E+02  0.00000000000E+00 0. -1.
         -3    1    3    3    0  502  0.28101678923E+03 -0.88141140311E+02  0.15921390253E+04  0.16191497683E+04  0.00000000000E+00 0.  1.
         11    1    5    5    0    0 -0.40163745184E+02 -0.26976651181E+00  0.20395213680E+02  0.45046242266E+02  0.00000000000E+00 0.  1.
        -11    1    5    5    0    0 -0.20216029727E+03  0.21354073382E+03  0.12107393700E+03  0.31800523425E+03  0.00000000000E+00 0. -1.
          3    1    6    6  503    0 -0.62501210638E+02 -0.10363118828E+03 -0.57378050125E+03  0.58640420200E+03  0.00000000000E+00 0. -1.
         -3    1    6    6    0  503  0.19078612501E+02 -0.59795799907E+00 -0.18573284626E+03  0.18671111694E+03  0.00000000000E+00 0.  1.
<mgrwt>
<rscale>  0 0.26437465E+04</rscale>
<asrwt>0</asrwt>
<pdfrwt beam="1">  1        2 0.13720378E+00 0.26437465E+04</pdfrwt>
<pdfrwt beam="2">  1       -1 0.30143025E+00 0.26437465E+04</pdfrwt>
<totfact> 0.96480963E-01</totfact>
</mgrwt>
</event>
<event>
12    6  0.1538774E-007  0.1557109E+04  0.7818608E-02  0.8847340E-01
         -1   -1    0    0    0  501 -0.00000000000E+00  0.00000000000E+00  0.37325186959E+03  0.37325186959E+03  0.00000000000E+00 0.  1.
          2   -1    0    0  501    0  0.00000000000E+00 -0.00000000000E+00 -0.16239627081E+04  0.16239627081E+04  0.00000000000E+00 0. -1.
         24    2    1    2    0    0  0.30533478051E+03 -0.23795283340E+03 -0.83770211734E+03  0.92634020415E+03  0.80687404949E+02 0.  0.
        254    2    1    2    0    0 -0.30533478051E+03  0.23795283340E+03 -0.41300872118E+03  0.10708743736E+04  0.90903511541E+03 0.  0.
         23    2    4    4    0    0  0.15650423571E+02  0.52239171295E+03 -0.12024925013E+03  0.54402807257E+03  0.91480184030E+02 0.  0.
         23    2    4    4    0    0 -0.32098520408E+03 -0.28443887955E+03 -0.29275947105E+03  0.52684630099E+03  0.89005278141E+02 0.  0.
          4    1    3    3  502    0  0.22571481813E+03 -0.20713120297E+03 -0.59832017181E+03  0.67218862112E+03  0.00000000000E+00 0. -1.
         -3    1    3    3    0  502  0.79619962376E+02 -0.30821630433E+02 -0.23938194553E+03  0.25415158303E+03  0.00000000000E+00 0.  1.
         11    1    5    5    0    0 -0.10331576717E+02  0.63063964881E+02  0.12672260662E+02  0.65148993348E+02  0.00000000000E+00 0.  1.
        -11    1    5    5    0    0  0.25982000287E+02  0.45932774807E+03 -0.13292151079E+03  0.47887907922E+03  0.00000000000E+00 0. -1.
          3    1    6    6  503    0 -0.22901482128E+03 -0.24032556491E+03 -0.19212650495E+03  0.38355802614E+03  0.00000000000E+00 0. -1.
         -3    1    6    6    0  503 -0.91970382796E+02 -0.44113314636E+02 -0.10063296611E+03  0.14328827484E+03  0.00000000000E+00 0.  1.
<mgrwt>
<rscale>  0 0.15571090E+04</rscale>
<asrwt>0</asrwt>
<pdfrwt beam="1">  1        2 0.24984042E+00 0.15571090E+04</pdfrwt>
<pdfrwt beam="2">  1       -1 0.57423364E-01 0.15571090E+04</pdfrwt>
<totfact> 0.36398807E+01</totfact>
</mgrwt>
</event>
<event>
12    6  0.1538774E-007  0.1405680E+04  0.7818608E-02  0.8949717E-01
          2   -1    0    0  501    0  0.00000000000E+00  0.00000000000E+00  0.53878780796E+03  0.53878780796E+03  0.00000000000E+00 0. -1.
         -1   -1    0    0    0  501 -0.00000000000E+00 -0.00000000000E+00 -0.91684317627E+03  0.91684317627E+03  0.00000000000E+00 0.  1.
         24    2    1    2    0    0  0.35946875471E+03  0.11969238892E+03 -0.71713491156E+02  0.39336293429E+03  0.77765800245E+02 0.  0.
        254    2    1    2    0    0 -0.35946875471E+03 -0.11969238892E+03 -0.30634187716E+03  0.10622680499E+04  0.94394068174E+03 0.  0.
         23    2    4    4    0    0 -0.19123300474E+03 -0.38749550200E+03  0.17841510623E+03  0.47658838946E+03  0.92637555410E+02 0.  0.
         23    2    4    4    0    0 -0.16823574996E+03  0.26780311307E+03 -0.48475698339E+03  0.58567966047E+03  0.89496127361E+02 0.  0.
          2    1    3    3  502    0  0.26065103706E+03  0.49534408699E+02 -0.55956042348E+02  0.27115253906E+03  0.00000000000E+00 0. -1.
         -3    1    3    3    0  502  0.98817717649E+02  0.70157980223E+02 -0.15757448808E+02  0.12221039523E+03  0.00000000000E+00 0.  1.
         11    1    5    5    0    0 -0.57463794317E+02 -0.44444441052E+02  0.42055006183E+02  0.83940571494E+02  0.00000000000E+00 0.  1.
        -11    1    5    5    0    0 -0.13376921043E+03 -0.34305106094E+03  0.13636010005E+03  0.39264781797E+03  0.00000000000E+00 0. -1.
          1    1    6    6  503    0 -0.12499756032E+03  0.24253416962E+03 -0.36368001458E+03  0.45465411746E+03  0.00000000000E+00 0. -1.
         -1    1    6    6    0  503 -0.43238189639E+02  0.25268943458E+02 -0.12107696880E+03  0.13102554301E+03  0.00000000000E+00 0.  1.
<mgrwt>
<rscale>  0 0.14056798E+04</rscale>
<asrwt>0</asrwt>
<pdfrwt beam="1">  1        2 0.82890432E-01 0.14056798E+04</pdfrwt>
<pdfrwt beam="2">  1       -1 0.14105280E+00 0.14056798E+04</pdfrwt>
<totfact> 0.25790328E+01</totfact>
</mgrwt>
</event>
<event>
12    6  0.1538774E-007  0.1524015E+04  0.7818608E-02  0.8868638E-01
         -1   -1    0    0    0  501 -0.00000000000E+00  0.00000000000E+00  0.81630961585E+03  0.81630961585E+03  0.00000000000E+00 0.  1.
          2   -1    0    0  501    0  0.00000000000E+00 -0.00000000000E+00 -0.71131807145E+03  0.71131807145E+03  0.00000000000E+00 0. -1.
         24    2    1    2    0    0 -0.23632121615E+03  0.83081709899E+02  0.42633508518E+03  0.50111581567E+03  0.81272185529E+02 0.  0.
        254    2    1    2    0    0  0.23632121615E+03 -0.83081709899E+02 -0.32134354078E+03  0.10265118716E+04  0.94218610883E+03 0.  0.
         23    2    4    4    0    0  0.46655028346E+03 -0.14650306240E+03 -0.50734937170E+03  0.71038309253E+03  0.90046870534E+02 0.  0.
         23    2    4    4    0    0 -0.23022906731E+03  0.63421352506E+02  0.18600583093E+03  0.31612877910E+03  0.91167672146E+02 0.  0.
          2    1    3    3  502    0 -0.10631961660E+02  0.28399068394E+02  0.37634967729E+02  0.48331526878E+02  0.00000000000E+00 0. -1.
         -1    1    3    3    0  502 -0.22568925449E+03  0.54682641505E+02  0.38870011745E+03  0.45278428879E+03  0.00000000000E+00 0.  1.
         11    1    5    5    0    0  0.17147506660E+03 -0.99890786621E+02 -0.20746533819E+03  0.28709534003E+03  0.00000000000E+00 0.  1.
        -11    1    5    5    0    0  0.29507521686E+03 -0.46612275784E+02 -0.29988403351E+03  0.42328775250E+03  0.00000000000E+00 0. -1.
          2    1    6    6  503    0 -0.21685940412E+01  0.14458203189E+02 -0.41342140154E+01  0.15193227606E+02  0.00000000000E+00 0. -1.
         -2    1    6    6    0  503 -0.22806047327E+03  0.48963149317E+02  0.19014004494E+03  0.30093555149E+03  0.00000000000E+00 0.  1.
<mgrwt>
<rscale>  0 0.15240155E+04</rscale>
<asrwt>0</asrwt>
<pdfrwt beam="1">  1        2 0.10943355E+00 0.15240155E+04</pdfrwt>
<pdfrwt beam="2">  1       -1 0.12558610E+00 0.15240155E+04</pdfrwt>
<totfact> 0.24466144E+01</totfact>
</mgrwt>
</event>
<event>
12    6  0.1538774E-007  0.1526813E+04  0.7818608E-02  0.8866816E-01
          2   -1    0    0  501    0  0.00000000000E+00  0.00000000000E+00  0.58010865729E+03  0.58010865729E+03  0.00000000000E+00 0. -1.
         -1   -1    0    0    0  501 -0.00000000000E+00 -0.00000000000E+00 -0.10046205950E+04  0.10046205950E+04  0.00000000000E+00 0.  1.
         24    2    1    2    0    0  0.26921141680E+03 -0.30841593003E+03 -0.43617352551E+03  0.60340575814E+03  0.79094827707E+02 0.  0.
        254    2    1    2    0    0 -0.26921141680E+03  0.30841593003E+03  0.11661587814E+02  0.98132349414E+03  0.89177611242E+03 0.  0.
         23    2    4    4    0    0 -0.56414696366E+03  0.15298468771E+03  0.14735856542E+03  0.60891214217E+03  0.85984526533E+02 0.  0.
         23    2    4    4    0    0  0.29493554686E+03  0.15543124232E+03 -0.13569697760E+03  0.37241135197E+03  0.95554683051E+02 0.  0.
          4    1    3    3  502    0  0.19389663706E+02 -0.65669053404E+02 -0.77722108594E+02  0.10358141628E+03  0.00000000000E+00 0. -1.
         -3    1    3    3    0  502  0.24982175309E+03 -0.24274687662E+03 -0.35845141692E+03  0.49982434186E+03  0.00000000000E+00 0.  1.
         11    1    5    5    0    0 -0.59132472791E+02  0.43999180972E+02  0.10484888000E+02  0.74448036515E+02  0.00000000000E+00 0. -1.
        -11    1    5    5    0    0 -0.50501449087E+03  0.10898550674E+03  0.13687367742E+03  0.53446410566E+03  0.00000000000E+00 0.  1.
          3    1    6    6  503    0  0.36980461605E+02 -0.79260379500E+01  0.11021028143E+01  0.37836374677E+02  0.00000000000E+00 0. -1.
         -3    1    6    6    0  503  0.25795508526E+03  0.16335728027E+03 -0.13679908042E+03  0.33457497729E+03  0.00000000000E+00 0.  1.
<mgrwt>
<rscale>  0 0.15268125E+04</rscale>
<asrwt>0</asrwt>
<pdfrwt beam="1">  1        2 0.89247487E-01 0.15268125E+04</pdfrwt>
<pdfrwt beam="2">  1       -1 0.15455701E+00 0.15268125E+04</pdfrwt>
<totfact> 0.18308129E+01</totfact>
</mgrwt>
</event>
<event>
12    6  0.1538774E-007  0.1346427E+04  0.7818608E-02  0.8993537E-01
          2   -1    0    0  501    0  0.00000000000E+00  0.00000000000E+00  0.58799196685E+03  0.58799196685E+03  0.00000000000E+00 0. -1.
         -1   -1    0    0    0  501 -0.00000000000E+00 -0.00000000000E+00 -0.77078682073E+03  0.77078682073E+03  0.00000000000E+00 0.  1.
         24    2    1    2    0    0  0.10201389479E+03  0.35090545571E+03 -0.24586373821E+02  0.37474917039E+03  0.79315681615E+02 0.  0.
        254    2    1    2    0    0 -0.10201389479E+03 -0.35090545571E+03 -0.15820848006E+03  0.98402961720E+03  0.89985715021E+03 0.  0.
         23    2    4    4    0    0 -0.44128157606E+03 -0.40279755050E+03 -0.17401451001E+03  0.62881081124E+03  0.90259019361E+02 0.  0.
         23    2    4    4    0    0  0.33926768127E+03  0.51892094792E+02  0.15806029948E+02  0.35521880596E+03  0.90195457044E+02 0.  0.
          2    1    3    3  502    0 -0.63968875466E+01  0.84548213983E+02 -0.20099926671E+02  0.87139702262E+02  0.00000000000E+00 0. -1.
         -1    1    3    3    0  502  0.10841078233E+03  0.26635724173E+03 -0.44864471504E+01  0.28760946812E+03  0.00000000000E+00 0.  1.
         11    1    5    5    0    0 -0.15274007399E+03 -0.15930791939E+03 -0.10734245397E+03  0.24541993767E+03  0.00000000000E+00 0. -1.
        -11    1    5    5    0    0 -0.28854150207E+03 -0.24348963112E+03 -0.66672056035E+02  0.38339087357E+03  0.00000000000E+00 0.  1.
          3    1    6    6  503    0  0.10034371704E+03  0.50759020023E+02  0.28326418342E+02  0.11596432917E+03  0.00000000000E+00 0. -1.
         -3    1    6    6    0  503  0.23892396423E+03  0.11330747688E+01 -0.12520388394E+02  0.23925447680E+03  0.00000000000E+00 0.  1.
<mgrwt>
<rscale>  0 0.13464271E+04</rscale>
<asrwt>0</asrwt>
<pdfrwt beam="1">  1        2 0.90460302E-01 0.13464271E+04</pdfrwt>
<pdfrwt beam="2">  1       -1 0.11858259E+00 0.13464271E+04</pdfrwt>
<totfact> 0.36184317E+01</totfact>
</mgrwt>
</event>
<event>
12    6  0.1538774E-007  0.2389001E+04  0.7818608E-02  0.8443633E-01
         -1   -1    0    0    0  501 -0.00000000000E+00  0.00000000000E+00  0.20291696554E+04  0.20291696554E+04  0.00000000000E+00 0.  1.
          2   -1    0    0  501    0  0.00000000000E+00 -0.00000000000E+00 -0.70316010090E+03  0.70316010090E+03  0.00000000000E+00 0. -1.
         24    2    1    2    0    0 -0.79796904899E+03  0.18914748611E+03  0.12750345569E+04  0.15181331060E+04  0.80521000865E+02 0.  0.
        254    2    1    2    0    0  0.79796904899E+03 -0.18914748611E+03  0.50974997584E+02  0.12141966503E+04  0.89394836569E+03 0.  0.
         23    2    4    4    0    0  0.82936357826E+03  0.13037959081E+03  0.16508726221E+03  0.86020957137E+03  0.88678745390E+02 0.  0.
         23    2    4    4    0    0 -0.31394529271E+02 -0.31952707691E+03 -0.11411226463E+03  0.35398707891E+03  0.95927440009E+02 0.  0.
          2    1    3    3  502    0 -0.58712657836E+02  0.16527782071E+01  0.12612241412E+03  0.13912861391E+03  0.00000000000E+00 0. -1.
         -1    1    3    3    0  502 -0.73925639116E+03  0.18749470790E+03  0.11489121428E+04  0.13790044921E+04  0.00000000000E+00 0.  1.
         11    1    5    5    0    0  0.76020110098E+03  0.11197260002E+03  0.12601166413E+03  0.77866714108E+03  0.00000000000E+00 0. -1.
        -11    1    5    5    0    0  0.69162477281E+02  0.18406990784E+02  0.39075598080E+02  0.81542430297E+02  0.00000000000E+00 0.  1.
          1    1    6    6  503    0 -0.65090636722E+02 -0.18439867015E+03 -0.59578231248E+02  0.20442413307E+03  0.00000000000E+00 0. -1.
         -1    1    6    6    0  503  0.33696107451E+02 -0.13512840676E+03 -0.54534033382E+02  0.14956294584E+03  0.00000000000E+00 0.  1.
<mgrwt>
<rscale>  0 0.23890007E+04</rscale>
<asrwt>0</asrwt>
<pdfrwt beam="1">  1        2 0.10817848E+00 0.23890007E+04</pdfrwt>
<pdfrwt beam="2">  1       -1 0.31217994E+00 0.23890007E+04</pdfrwt>
<totfact> 0.11517333E+00</totfact>
</mgrwt>
</event>
<event>
12    6  0.1538774E-007  0.1829094E+04  0.7818608E-02  0.8690979E-01
         -1   -1    0    0    0  501 -0.00000000000E+00  0.00000000000E+00  0.71634169179E+03  0.71634169179E+03  0.00000000000E+00 0.  1.
          2   -1    0    0  501    0  0.00000000000E+00 -0.00000000000E+00 -0.11675936115E+04  0.11675936115E+04  0.00000000000E+00 0. -1.
         24    2    1    2    0    0 -0.27944294483E+03 -0.43416898593E+03  0.30605968312E+03  0.60567216096E+03  0.81087416832E+02 0.  0.
        254    2    1    2    0    0  0.27944294483E+03  0.43416898593E+03 -0.75731160281E+03  0.12782631423E+04  0.89097964593E+03 0.  0.
         23    2    4    4    0    0 -0.11843469081E+02  0.62543219850E+03 -0.31392920495E+03  0.70633275389E+03  0.95124711882E+02 0.  0.
         23    2    4    4    0    0  0.29128641391E+03 -0.19126321257E+03 -0.44338239785E+03  0.57193038842E+03  0.95325899188E+02 0.  0.
          2    1    3    3  502    0 -0.16934831491E+02 -0.61075015492E+01  0.79260984347E+00  0.18019942374E+02  0.00000000000E+00 0. -1.
         -3    1    3    3    0  502 -0.26250811334E+03 -0.42806148438E+03  0.30526707327E+03  0.58765221858E+03  0.00000000000E+00 0.  1.
         11    1    5    5    0    0 -0.46997987422E+02  0.30996953688E+03 -0.18267793799E+03  0.36285142090E+03  0.00000000000E+00 0.  1.
        -11    1    5    5    0    0  0.35154518341E+02  0.31546266162E+03 -0.13125126696E+03  0.34348133299E+03  0.00000000000E+00 0. -1.
          3    1    6    6  503    0  0.39648308733E+02 -0.70506664164E+02 -0.12049296759E+03  0.14512661133E+03  0.00000000000E+00 0. -1.
         -3    1    6    6    0  503  0.25163810518E+03 -0.12075654840E+03 -0.32288943026E+03  0.42680377709E+03  0.00000000000E+00 0.  1.
<mgrwt>
<rscale>  0 0.18290937E+04</rscale>
<asrwt>0</asrwt>
<pdfrwt beam="1">  1        2 0.17962978E+00 0.18290937E+04</pdfrwt>
<pdfrwt beam="2">  1       -1 0.11020642E+00 0.18290937E+04</pdfrwt>
<totfact> 0.16168265E+01</totfact>
</mgrwt>
</event>
<event>
12    6  0.1538774E-007  0.1359418E+04  0.7818608E-02  0.8983729E-01
         -1   -1    0    0    0  501 -0.00000000000E+00  0.00000000000E+00  0.57283495031E+03  0.57283495031E+03  0.00000000000E+00 0.  1.
          2   -1    0    0  501    0  0.00000000000E+00 -0.00000000000E+00 -0.80652304508E+03  0.80652304508E+03  0.00000000000E+00 0. -1.
         24    2    1    2    0    0  0.53157389670E+02  0.34309860980E+02  0.20363427292E+03  0.23339016300E+03  0.94874529995E+02 0.  0.
        254    2    1    2    0    0 -0.53157389670E+02 -0.34309860980E+02 -0.43732236768E+03  0.11459678324E+04  0.10573497742E+04 0.  0.
         23    2    4    4    0    0  0.29132611522E+03 -0.42924930567E+03 -0.21558020832E+03  0.56970065611E+03  0.94647448570E+02 0.  0.
         23    2    4    4    0    0 -0.34448350490E+03  0.39493944468E+03 -0.22174215936E+03  0.57626717629E+03  0.90929770232E+02 0.  0.
          2    1    3    3  502    0  0.61954941222E+02 -0.11152408384E+02  0.82985604596E+02  0.10416046047E+03  0.00000000000E+00 0. -1.
         -1    1    3    3    0  502 -0.87975515516E+01  0.45462269365E+02  0.12064866832E+03  0.12922970253E+03  0.00000000000E+00 0.  1.
         11    1    5    5    0    0  0.94928537687E+02 -0.17560183857E+03 -0.12812378170E+03  0.23719851689E+03  0.00000000000E+00 0. -1.
        -11    1    5    5    0    0  0.19639757754E+03 -0.25364746709E+03 -0.87456426619E+02  0.33250213921E+03  0.00000000000E+00 0.  1.
          3    1    6    6  503    0 -0.34132184980E+03  0.39942653079E+03 -0.21528911168E+03  0.56779535068E+03  0.00000000000E+00 0.  1.
         -3    1    6    6    0  503 -0.31616550945E+01 -0.44870861061E+01 -0.64530476809E+01  0.84718256020E+01  0.00000000000E+00 0. -1.
<mgrwt>
<rscale>  0 0.13594184E+04</rscale>
<asrwt>0</asrwt>
<pdfrwt beam="1">  1        2 0.12408047E+00 0.13594184E+04</pdfrwt>
<pdfrwt beam="2">  1       -1 0.88128454E-01 0.13594184E+04</pdfrwt>
<totfact> 0.48063979E+01</totfact>
</mgrwt>
</event>
<event>
12    6  0.1538774E-007  0.1426637E+04  0.7818608E-02  0.8934760E-01
         -1   -1    0    0    0  501 -0.00000000000E+00  0.00000000000E+00  0.22558072851E+03  0.22558072851E+03  0.00000000000E+00 0.  1.
          2   -1    0    0  501    0  0.00000000000E+00 -0.00000000000E+00 -0.22556155255E+04  0.22556155255E+04  0.00000000000E+00 0. -1.
         24    2    1    2    0    0  0.34254910420E+03  0.19694798336E+03 -0.88167144808E+03  0.96931229933E+03  0.78060196760E+02 0.  0.
        254    2    1    2    0    0 -0.34254910420E+03 -0.19694798336E+03 -0.11483633490E+04  0.15118839547E+04  0.90051447207E+03 0.  0.
         23    2    4    4    0    0 -0.22340586321E+03 -0.21239939778E+02 -0.12400056420E+04  0.12634070182E+04  0.90675170610E+02 0.  0.
         23    2    4    4    0    0 -0.11914324100E+03 -0.17570804358E+03  0.91642293065E+02  0.24847693656E+03  0.90961803354E+02 0.  0.
          4    1    3    3  502    0  0.29624906772E+03  0.15859322038E+03 -0.80159175805E+03  0.86917470410E+03  0.00000000000E+00 0. -1.
         -1    1    3    3    0  502  0.46300036481E+02  0.38354762979E+02 -0.80079690035E+02  0.10013759522E+03  0.00000000000E+00 0.  1.
         11    1    5    5    0    0 -0.16412260456E+03 -0.29358288233E+01 -0.10682571196E+04  0.10807951341E+04  0.00000000000E+00 0.  1.
        -11    1    5    5    0    0 -0.59283258646E+02 -0.18304110954E+02 -0.17174852242E+03  0.18261188402E+03  0.00000000000E+00 0. -1.
          1    1    6    6  503    0  0.14600664602E+02 -0.17819879244E+02  0.16492317810E+02  0.28332385177E+02  0.00000000000E+00 0. -1.
         -1    1    6    6    0  503 -0.13374390560E+03 -0.15788816434E+03  0.75149975256E+02  0.22014455138E+03  0.00000000000E+00 0.  1.
<mgrwt>
<rscale>  0 0.14266372E+04</rscale>
<asrwt>0</asrwt>
<pdfrwt beam="1">  1        2 0.34701777E+00 0.14266372E+04</pdfrwt>
<pdfrwt beam="2">  1       -1 0.34704728E-01 0.14266372E+04</pdfrwt>
<totfact> 0.41949080E+01</totfact>
</mgrwt>
</event>
<event>
12    6  0.1538774E-007  0.1526314E+04  0.7818608E-02  0.8867141E-01
         -1   -1    0    0    0  501 -0.00000000000E+00  0.00000000000E+00  0.45319747674E+03  0.45319747674E+03  0.00000000000E+00 0.  1.
          2   -1    0    0  501    0  0.00000000000E+00 -0.00000000000E+00 -0.12851094376E+04  0.12851094376E+04  0.00000000000E+00 0. -1.
         24    2    1    2    0    0  0.15175108251E+03 -0.76329566965E+00 -0.87071147181E+03  0.88736716026E+03  0.79076142419E+02 0.  0.
        254    2    1    2    0    0 -0.15175108251E+03  0.76329566965E+00  0.38799510947E+02  0.85093975408E+03  0.83639947954E+03 0.  0.
         23    2    4    4    0    0  0.32906088297E+03  0.14531539513E+02  0.10291874907E+03  0.35734310365E+03  0.92787900476E+02 0.  0.
         23    2    4    4    0    0 -0.48081196548E+03 -0.13768243843E+02 -0.64119238119E+02  0.49359665044E+03  0.90314262076E+02 0.  0.
          2    1    3    3  502    0  0.13927493030E+03 -0.26166775404E+02 -0.75974319029E+03  0.77284663519E+03  0.00000000000E+00 0. -1.
         -1    1    3    3    0  502  0.12476152213E+02  0.25403479734E+02 -0.11096828152E+03  0.11452052506E+03  0.00000000000E+00 0.  1.
         11    1    5    5    0    0  0.33023781689E+03  0.44339024661E+01  0.10575934085E+03  0.34678770649E+03  0.00000000000E+00 0. -1.
        -11    1    5    5    0    0 -0.11769339239E+01  0.10097637047E+02 -0.28405917878E+01  0.10555397155E+02  0.00000000000E+00 0.  1.
          3    1    6    6  503    0 -0.34923315796E+03 -0.13873025644E+02 -0.86682168640E+02  0.36009728938E+03  0.00000000000E+00 0. -1.
         -3    1    6    6    0  503 -0.13157880752E+03  0.10478180065E+00  0.22562930521E+02  0.13349936106E+03  0.00000000000E+00 0.  1.
<mgrwt>
<rscale>  0 0.15263137E+04</rscale>
<asrwt>0</asrwt>
<pdfrwt beam="1">  1        2 0.19770914E+00 0.15263137E+04</pdfrwt>
<pdfrwt beam="2">  1       -1 0.69722691E-01 0.15263137E+04</pdfrwt>
<totfact> 0.38569414E+01</totfact>
</mgrwt>
</event>
<event>
12    6  0.1538774E-007  0.1544360E+04  0.7818608E-02  0.8855478E-01
         -1   -1    0    0    0  501 -0.00000000000E+00  0.00000000000E+00  0.74849794100E+03  0.74849794100E+03  0.00000000000E+00 0.  1.
          2   -1    0    0  501    0  0.00000000000E+00 -0.00000000000E+00 -0.79661180257E+03  0.79661180257E+03  0.00000000000E+00 0. -1.
         24    2    1    2    0    0 -0.14889315404E+03 -0.30441995563E+03 -0.38539150518E+03  0.51931014787E+03  0.79471609449E+02 0.  0.
        254    2    1    2    0    0  0.14889315404E+03  0.30441995563E+03  0.33727764362E+03  0.10257995957E+04  0.90756152460E+03 0.  0.
         23    2    4    4    0    0  0.19343436825E+03  0.54347281812E+03  0.45647940904E+03  0.74121852154E+03  0.90839897367E+02 0.  0.
         23    2    4    4    0    0 -0.44541214212E+02 -0.23905286249E+03 -0.11920176541E+03  0.28458107416E+03  0.87447904850E+02 0.  0.
          4    1    3    3  502    0 -0.12412811876E+03 -0.25051641655E+03 -0.26556788683E+03  0.38560675220E+03  0.00000000000E+00 0. -1.
         -3    1    3    3    0  502 -0.24765035284E+02 -0.53903539075E+02 -0.11982361836E+03  0.13370339567E+03  0.00000000000E+00 0.  1.
         11    1    5    5    0    0  0.74321957189E+02  0.34103982050E+03  0.26771723399E+03  0.43989138417E+03  0.00000000000E+00 0.  1.
        -11    1    5    5    0    0  0.11911241106E+03  0.20243299762E+03  0.18876217504E+03  0.30132713738E+03  0.00000000000E+00 0. -1.
          3    1    6    6  503    0 -0.30583029797E+02 -0.43415236183E+02 -0.59077208768E+02  0.79437529167E+02  0.00000000000E+00 0. -1.
         -3    1    6    6    0  503 -0.13958184414E+02 -0.19563762630E+03 -0.60124556646E+02  0.20514354499E+03  0.00000000000E+00 0.  1.
<mgrwt>
<rscale>  0 0.15443604E+04</rscale>
<asrwt>0</asrwt>
<pdfrwt beam="1">  1        2 0.12255566E+00 0.15443604E+04</pdfrwt>
<pdfrwt beam="2">  1       -1 0.11515353E+00 0.15443604E+04</pdfrwt>
<totfact> 0.26066584E+01</totfact>
</mgrwt>
</event>
<event>
12    6  0.1538774E-007  0.1491577E+04  0.7818608E-02  0.8890074E-01
          2   -1    0    0  501    0  0.00000000000E+00  0.00000000000E+00  0.73053486467E+03  0.73053486467E+03  0.00000000000E+00 0. -1.
         -1   -1    0    0    0  501 -0.00000000000E+00 -0.00000000000E+00 -0.76136046571E+03  0.76136046571E+03  0.00000000000E+00 0.  1.
         24    2    1    2    0    0 -0.21699903292E+03  0.28817513600E+03  0.28108056273E+03  0.46428522205E+03  0.80131113650E+02 0.  0.
        254    2    1    2    0    0  0.21699903292E+03 -0.28817513600E+03 -0.31190616377E+03  0.10276101083E+04  0.91025468438E+03 0.  0.
         23    2    4    4    0    0  0.10582936328E+03  0.25718315868E+03 -0.35780370532E+03  0.46182010598E+03  0.88945418643E+02 0.  0.
         23    2    4    4    0    0  0.11116966964E+03 -0.54535829468E+03  0.45897541550E+02  0.56579000235E+03  0.90759998975E+02 0.  0.
          2    1    3    3  502    0 -0.21450950192E+03  0.25775433410E+03  0.27377083718E+03  0.43289963554E+03  0.00000000000E+00 0. -1.
         -1    1    3    3    0  502 -0.24895310022E+01  0.30420801904E+02  0.73097255431E+01  0.31385586510E+02  0.00000000000E+00 0.  1.
         11    1    5    5    0    0  0.14620382249E+02  0.14561190640E+03 -0.20387922257E+03  0.25096477892E+03  0.00000000000E+00 0. -1.
        -11    1    5    5    0    0  0.91208981032E+02  0.11157125228E+03 -0.15392448275E+03  0.21085532705E+03  0.00000000000E+00 0.  1.
          2    1    6    6  503    0  0.11547535259E+03 -0.51281661514E+03  0.23753019642E+02  0.52619354211E+03  0.00000000000E+00 0. -1.
         -2    1    6    6    0  503 -0.43056829437E+01 -0.32541679549E+02  0.22144521909E+02  0.39596460247E+02  0.00000000000E+00 0.  1.
<mgrwt>
<rscale>  0 0.14915768E+04</rscale>
<asrwt>0</asrwt>
<pdfrwt beam="1">  1        2 0.11238998E+00 0.14915768E+04</pdfrwt>
<pdfrwt beam="2">  1       -1 0.11713238E+00 0.14915768E+04</pdfrwt>
<totfact> 0.28138467E+01</totfact>
</mgrwt>
</event>
<event>
12    6  0.1538774E-007  0.2455861E+04  0.7818608E-02  0.8418881E-01
         -1   -1    0    0    0  501 -0.00000000000E+00  0.00000000000E+00  0.49476916703E+03  0.49476916703E+03  0.00000000000E+00 0.  1.
          2   -1    0    0  501    0  0.00000000000E+00 -0.00000000000E+00 -0.30475081449E+04  0.30475081449E+04  0.00000000000E+00 0. -1.
         24    2    1    2    0    0 -0.42193654795E+03  0.95061303963E+03 -0.77336522171E+03  0.12985307205E+04  0.79954138234E+02 0.  0.
        254    2    1    2    0    0  0.42193654795E+03 -0.95061303963E+03 -0.17793737562E+04  0.22437465915E+04  0.88686650690E+03 0.  0.
         23    2    4    4    0    0  0.20827846575E+03 -0.72451093983E+02 -0.10554481531E+04  0.10821131356E+04  0.91481986854E+02 0.  0.
         23    2    4    4    0    0  0.21365808220E+03 -0.87816194565E+03 -0.72392560309E+03  0.11616334560E+04  0.92227047681E+02 0.  0.
          4    1    3    3  502    0 -0.32679414186E+03  0.76495007236E+03 -0.65429171747E+03  0.10583197418E+04  0.00000000000E+00 0. -1.
         -3    1    3    3    0  502 -0.95142406085E+02  0.18566296727E+03 -0.11907350424E+03  0.24021097865E+03  0.00000000000E+00 0.  1.
         11    1    5    5    0    0  0.51231930687E+02 -0.62050107349E+02 -0.31425587216E+03  0.32439432753E+03  0.00000000000E+00 0. -1.
        -11    1    5    5    0    0  0.15704653506E+03 -0.10400986634E+02 -0.74119228095E+03  0.75771880803E+03  0.00000000000E+00 0.  1.
          2    1    6    6  503    0  0.19670127766E+03 -0.85831525625E+03 -0.68930571552E+03  0.11182749399E+04  0.00000000000E+00 0.  1.
         -2    1    6    6    0  503  0.16956804540E+02 -0.19846689399E+02 -0.34619887568E+02  0.43358516067E+02  0.00000000000E+00 0. -1.
<mgrwt>
<rscale>  0 0.24558608E+04</rscale>
<asrwt>0</asrwt>
<pdfrwt beam="1">  1        2 0.46884741E+00 0.24558608E+04</pdfrwt>
<pdfrwt beam="2">  1       -1 0.76118332E-01 0.24558608E+04</pdfrwt>
<totfact> 0.28686528E+00</totfact>
</mgrwt>
</event>
<event>
12    6  0.1538774E-007  0.2589040E+04  0.7818608E-02  0.8371934E-01
          2   -1    0    0  501    0  0.00000000000E+00  0.00000000000E+00  0.13779540248E+04  0.13779540248E+04  0.00000000000E+00 0. -1.
         -1   -1    0    0    0  501 -0.00000000000E+00 -0.00000000000E+00 -0.12161374998E+04  0.12161374998E+04  0.00000000000E+00 0.  1.
         24    2    1    2    0    0  0.13225718835E+03  0.88638175363E+03 -0.63328925494E+03  0.11002926110E+04  0.80149686628E+02 0.  0.
        254    2    1    2    0    0 -0.13225718835E+03 -0.88638175363E+03  0.79510577996E+03  0.14937989137E+04  0.89223170544E+03 0.  0.
         23    2    4    4    0    0  0.26400913770E+03 -0.71467042740E+03  0.28304039630E+03  0.81816415282E+03  0.93947168318E+02 0.  0.
         23    2    4    4    0    0 -0.39626632606E+03 -0.17171132622E+03  0.51206538367E+03  0.67563476087E+03  0.88088547635E+02 0.  0.
          4    1    3    3  502    0  0.11088365023E+03  0.77963599710E+03 -0.58604243701E+03  0.98161764952E+03  0.00000000000E+00 0. -1.
         -3    1    3    3    0  502  0.21373538122E+02  0.10674575652E+03 -0.47246817928E+02  0.11867496144E+03  0.00000000000E+00 0.  1.
         11    1    5    5    0    0  0.11400733377E+03 -0.43128616481E+03  0.18427230267E+03  0.48266107119E+03  0.00000000000E+00 0. -1.
        -11    1    5    5    0    0  0.15000180393E+03 -0.28338426259E+03  0.98768093629E+02  0.33550308163E+03  0.00000000000E+00 0.  1.
          2    1    6    6  503    0 -0.29734138399E+03 -0.86895016446E+02  0.34303360769E+03  0.46220633761E+03  0.00000000000E+00 0. -1.
         -2    1    6    6    0  503 -0.98924942062E+02 -0.84816309778E+02  0.16903177598E+03  0.21342842326E+03  0.00000000000E+00 0.  1.
<mgrwt>
<rscale>  0 0.25890396E+04</rscale>
<asrwt>0</asrwt>
<pdfrwt beam="1">  1        2 0.21199293E+00 0.25890396E+04</pdfrwt>
<pdfrwt beam="2">  1       -1 0.18709808E+00 0.25890396E+04</pdfrwt>
<totfact> 0.27833736E+00</totfact>
</mgrwt>
</event>
<event>
12    6  0.1538774E-007  0.2523483E+04  0.7818608E-02  0.8394667E-01
          2   -1    0    0  501    0  0.00000000000E+00  0.00000000000E+00  0.42876850986E+04  0.42876850986E+04  0.00000000000E+00 0. -1.
         -1   -1    0    0    0  501 -0.00000000000E+00 -0.00000000000E+00 -0.37129393461E+03  0.37129393461E+03  0.00000000000E+00 0.  1.
         24    2    1    2    0    0  0.24592408233E+02  0.34034719135E+03  0.36376796688E+04  0.36545313899E+04  0.80282686476E+02 0.  0.
        254    2    1    2    0    0 -0.24592408233E+02 -0.34034719135E+03  0.27871149516E+03  0.10044476433E+04  0.90265938945E+03 0.  0.
         23    2    4    4    0    0 -0.25311174867E+03  0.89626250481E+02  0.40355783560E+03  0.49286169258E+03  0.89192484244E+02 0.  0.
         23    2    4    4    0    0  0.22851934044E+03 -0.42997344183E+03 -0.12484634045E+03  0.51158595071E+03  0.95054334997E+02 0.  0.
          2    1    3    3  502    0 -0.12360417691E+02  0.26216575542E+03  0.28794569979E+04  0.28913934817E+04  0.00000000000E+00 0. -1.
         -1    1    3    3    0  502  0.36952825925E+02  0.78181435927E+02  0.75822267083E+03  0.76313790814E+03  0.00000000000E+00 0.  1.
         11    1    5    5    0    0 -0.61547549464E+02  0.96785654072E+01  0.16645346903E+03  0.17773163147E+03  0.00000000000E+00 0.  1.
        -11    1    5    5    0    0 -0.19156419921E+03  0.79947685074E+02  0.23710436657E+03  0.31513006111E+03  0.00000000000E+00 0. -1.
          2    1    6    6  503    0  0.19087669104E+03 -0.40220944204E+03 -0.92485502762E+02  0.45470860413E+03  0.00000000000E+00 0. -1.
         -2    1    6    6    0  503  0.37642649393E+02 -0.27763999795E+02 -0.32360837685E+02  0.56877346577E+02  0.00000000000E+00 0.  1.
<mgrwt>
<rscale>  0 0.25234829E+04</rscale>
<asrwt>0</asrwt>
<pdfrwt beam="1">  1        2 0.65964383E+00 0.25234829E+04</pdfrwt>
<pdfrwt beam="2">  1       -1 0.57122147E-01 0.25234829E+04</pdfrwt>
<totfact> 0.61401706E-01</totfact>
</mgrwt>
</event>
<event>
12    6  0.1538774E-007  0.2570080E+04  0.7818608E-02  0.8378436E-01
         -1   -1    0    0    0  501 -0.00000000000E+00  0.00000000000E+00  0.97495392045E+03  0.97495392045E+03  0.00000000000E+00 0.  1.
          2   -1    0    0  501    0  0.00000000000E+00 -0.00000000000E+00 -0.16937500704E+04  0.16937500704E+04  0.00000000000E+00 0. -1.
         24    2    1    2    0    0 -0.88166117608E+03 -0.18643763779E+03 -0.10218555200E+04  0.13646427067E+04  0.77301947336E+02 0.  0.
        254    2    1    2    0    0  0.88166117608E+03  0.18643763779E+03  0.30305937007E+03  0.13040612841E+04  0.89254995869E+03 0.  0.
         23    2    4    4    0    0  0.11757745393E+03 -0.26524851029E+03  0.27859148130E+03  0.41143111682E+03  0.86493471136E+02 0.  0.
         23    2    4    4    0    0  0.76408372215E+03  0.45168614808E+03  0.24467888773E+02  0.89263016730E+03  0.91354404197E+02 0.  0.
          4    1    3    3  502    0 -0.85056260724E+03 -0.18901427849E+03 -0.96788022925E+03  0.13022961585E+04  0.00000000000E+00 0. -1.
         -3    1    3    3    0  502 -0.31098568837E+02  0.25766407012E+01 -0.53975290786E+02  0.62346548232E+02  0.00000000000E+00 0.  1.
         11    1    5    5    0    0  0.16560967730E+02 -0.11845010522E+03  0.76399575962E+02  0.14192106358E+03  0.00000000000E+00 0. -1.
        -11    1    5    5    0    0  0.10101648620E+03 -0.14679840507E+03  0.20219190534E+03  0.26951005324E+03  0.00000000000E+00 0.  1.
          1    1    6    6  503    0  0.23068508644E+03  0.12503931750E+03 -0.33301119240E+02  0.26449840183E+03  0.00000000000E+00 0.  1.
         -1    1    6    6    0  503  0.53339863570E+03  0.32664683058E+03  0.57769008012E+02  0.62813176547E+03  0.00000000000E+00 0. -1.
<mgrwt>
<rscale>  0 0.25700804E+04</rscale>
<asrwt>0</asrwt>
<pdfrwt beam="1">  1        2 0.26057693E+00 0.25700804E+04</pdfrwt>
<pdfrwt beam="2">  1       -1 0.14999291E+00 0.25700804E+04</pdfrwt>
<totfact> 0.34826118E+00</totfact>
</mgrwt>
</event>
<event>
12    6  0.1538774E-007  0.1877967E+04  0.7818608E-02  0.8665902E-01
         -1   -1    0    0    0  501 -0.00000000000E+00  0.00000000000E+00  0.43801437801E+03  0.43801437801E+03  0.00000000000E+00 0.  1.
          2   -1    0    0  501    0  0.00000000000E+00 -0.00000000000E+00 -0.20129242154E+04  0.20129242154E+04  0.00000000000E+00 0. -1.
         24    2    1    2    0    0 -0.22457247068E+03  0.38076751228E+03 -0.13754529516E+04  0.14470591188E+04  0.81808179919E+02 0.  0.
        254    2    1    2    0    0  0.22457247068E+03 -0.38076751228E+03 -0.19945688588E+03  0.10038794747E+04  0.87896203408E+03 0.  0.
         23    2    4    4    0    0  0.18706142685E+03 -0.16285393359E+03  0.33017878825E+03  0.42261731177E+03  0.89855321992E+02 0.  0.
         23    2    4    4    0    0  0.37511043825E+02 -0.21791357869E+03 -0.52963567413E+03  0.58126216291E+03  0.91969280376E+02 0.  0.
          4    1    3    3  502    0 -0.13801175619E+03  0.26355892234E+03 -0.80259211577E+03  0.85595832532E+03  0.00000000000E+00 0. -1.
         -3    1    3    3    0  502 -0.86560714487E+02  0.11720858995E+03 -0.57286083579E+03  0.59110079346E+03  0.00000000000E+00 0.  1.
         11    1    5    5    0    0  0.34644420070E+02 -0.59203979016E+02  0.41685082392E+02  0.80268256910E+02  0.00000000000E+00 0.  1.
        -11    1    5    5    0    0  0.15241700678E+03 -0.10364995458E+03  0.28849370586E+03  0.34234905486E+03  0.00000000000E+00 0. -1.
          2    1    6    6  503    0  0.37787846155E+02 -0.20427293216E+03 -0.52815179050E+03  0.56753825064E+03  0.00000000000E+00 0.  1.
         -2    1    6    6    0  503 -0.27680232995E+00 -0.13640646527E+02 -0.14838836239E+01  0.13723912264E+02  0.00000000000E+00 0. -1.
<mgrwt>
<rscale>  0 0.18779667E+04</rscale>
<asrwt>0</asrwt>
<pdfrwt beam="1">  1        2 0.30968065E+00 0.18779667E+04</pdfrwt>
<pdfrwt beam="2">  1       -1 0.67386828E-01 0.18779667E+04</pdfrwt>
<totfact> 0.15658588E+01</totfact>
</mgrwt>
</event>
<event>
12    6  0.1538774E-007  0.1746188E+04  0.7818608E-02  0.8735451E-01
          2   -1    0    0  501    0  0.00000000000E+00  0.00000000000E+00  0.13102980303E+04  0.13102980303E+04  0.00000000000E+00 0. -1.
         -1   -1    0    0    0  501 -0.00000000000E+00 -0.00000000000E+00 -0.58177094319E+03  0.58177094319E+03  0.00000000000E+00 0.  1.
         24    2    1    2    0    0  0.10499173891E+03  0.50143505028E+03  0.67752128210E+03  0.85318410111E+03  0.80172612480E+02 0.  0.
        254    2    1    2    0    0 -0.10499173891E+03 -0.50143505028E+03  0.51005805026E+02  0.10388848724E+04  0.90234129410E+03 0.  0.
         23    2    4    4    0    0 -0.29387391171E+03 -0.18402130440E+03 -0.33919929218E+03  0.49385418470E+03  0.92790513913E+02 0.  0.
         23    2    4    4    0    0  0.18888217280E+03 -0.31741374589E+03  0.39020509721E+03  0.54503068770E+03  0.91490280168E+02 0.  0.
          2    1    3    3  502    0  0.61334180064E+02  0.38426073503E+03  0.55742196998E+03  0.67980691872E+03  0.00000000000E+00 0. -1.
         -1    1    3    3    0  502  0.43657558843E+02  0.11717431525E+03  0.12009931213E+03  0.17337718239E+03  0.00000000000E+00 0.  1.
         11    1    5    5    0    0 -0.15632343305E+03 -0.13884213827E+03 -0.24026887921E+03  0.31850163170E+03  0.00000000000E+00 0.  1.
        -11    1    5    5    0    0 -0.13755047866E+03 -0.45179166122E+02 -0.98930412969E+02  0.17535255299E+03  0.00000000000E+00 0. -1.
          3    1    6    6  503    0  0.17195328886E+03 -0.22727353775E+03  0.32636123606E+03  0.43328149154E+03  0.00000000000E+00 0. -1.
         -3    1    6    6    0  503  0.16928883936E+02 -0.90140208140E+02  0.63843861146E+02  0.11174919615E+03  0.00000000000E+00 0.  1.
<mgrwt>
<rscale>  0 0.17461882E+04</rscale>
<asrwt>0</asrwt>
<pdfrwt beam="1">  1        2 0.20158431E+00 0.17461882E+04</pdfrwt>
<pdfrwt beam="2">  1       -1 0.89503222E-01 0.17461882E+04</pdfrwt>
<totfact> 0.21549282E+01</totfact>
</mgrwt>
</event>
<event>
12    6  0.1538774E-007  0.2584205E+04  0.7818608E-02  0.8373586E-01
         -1   -1    0    0    0  501 -0.00000000000E+00  0.00000000000E+00  0.10792528611E+04  0.10792528611E+04  0.00000000000E+00 0.  1.
          2   -1    0    0  501    0  0.00000000000E+00 -0.00000000000E+00 -0.15469296820E+04  0.15469296820E+04  0.00000000000E+00 0. -1.
         24    2    1    2    0    0 -0.14748760216E+03  0.71782090388E+03  0.67598992494E+03  0.10001363502E+04  0.79315178791E+02 0.  0.
        254    2    1    2    0    0  0.14748760216E+03 -0.71782090388E+03 -0.11436667458E+04  0.16260461929E+04  0.89388654377E+03 0.  0.
         23    2    4    4    0    0  0.12369178472E+03  0.16348447047E+03 -0.44107484651E+03  0.49491951477E+03  0.91495771418E+02 0.  0.
         23    2    4    4    0    0  0.23795817440E+02 -0.88130537435E+03 -0.70259189926E+03  0.11311266781E+04  0.92448803173E+02 0.  0.
          4    1    3    3  502    0 -0.56401456569E+02  0.23189409944E+03  0.17226681268E+03  0.29433289386E+03  0.00000000000E+00 0. -1.
         -3    1    3    3    0  502 -0.91086145591E+02  0.48592680445E+03  0.50372311226E+03  0.70580345637E+03  0.00000000000E+00 0.  1.
         11    1    5    5    0    0  0.45745323987E+02  0.84709677171E+02 -0.30268427932E+03  0.31762578142E+03  0.00000000000E+00 0.  1.
        -11    1    5    5    0    0  0.77946460733E+02  0.78774793298E+02 -0.13839056718E+03  0.17729373335E+03  0.00000000000E+00 0. -1.
          1    1    6    6  503    0 -0.24178163741E+01 -0.29218081438E+03 -0.28798095461E+03  0.41025419479E+03  0.00000000000E+00 0. -1.
         -1    1    6    6    0  503  0.26213633814E+02 -0.58912455997E+03 -0.41461094465E+03  0.72087248330E+03  0.00000000000E+00 0.  1.
<mgrwt>
<rscale>  0 0.25842045E+04</rscale>
<asrwt>0</asrwt>
<pdfrwt beam="1">  1        2 0.23798918E+00 0.25842045E+04</pdfrwt>
<pdfrwt beam="2">  1       -1 0.16603890E+00 0.25842045E+04</pdfrwt>
<totfact> 0.31714941E+00</totfact>
</mgrwt>
</event>
<event>
12    6  0.1538774E-007  0.1552376E+04  0.7818608E-02  0.8850351E-01
          2   -1    0    0  501    0  0.00000000000E+00  0.00000000000E+00  0.84431882878E+03  0.84431882878E+03  0.00000000000E+00 0. -1.
         -1   -1    0    0    0  501 -0.00000000000E+00 -0.00000000000E+00 -0.71355501472E+03  0.71355501472E+03  0.00000000000E+00 0.  1.
         24    2    1    2    0    0  0.32158658687E+03  0.24958549803E+03  0.38466891201E+03  0.56554024818E+03  0.78452194083E+02 0.  0.
        254    2    1    2    0    0 -0.32158658687E+03 -0.24958549803E+03 -0.25390509795E+03  0.99233359532E+03  0.86864682810E+03 0.  0.
         23    2    4    4    0    0  0.34579903092E+02 -0.48845596542E+03 -0.24060732501E+03  0.55357755752E+03  0.93654831673E+02 0.  0.
         23    2    4    4    0    0 -0.35616648997E+03  0.23887046738E+03 -0.13297772941E+02  0.43875603780E+03  0.91740728037E+02 0.  0.
          4    1    3    3  502    0  0.25816896334E+03  0.19718308543E+03  0.25960736489E+03  0.41584656632E+03  0.00000000000E+00 0. -1.
         -3    1    3    3    0  502  0.63417623538E+02  0.52402412599E+02  0.12506154712E+03  0.14969368186E+03  0.00000000000E+00 0.  1.
         11    1    5    5    0    0  0.18773575780E+02 -0.20056046768E+03 -0.15065389899E+03  0.25154233366E+03  0.00000000000E+00 0.  1.
        -11    1    5    5    0    0  0.15806327313E+02 -0.28789549774E+03 -0.89953426023E+02  0.30203522386E+03  0.00000000000E+00 0. -1.
          3    1    6    6  503    0 -0.27391241125E+03  0.15960810568E+03 -0.45024312055E+02  0.32020297486E+03  0.00000000000E+00 0. -1.
         -3    1    6    6    0  503 -0.82254078716E+02  0.79262361701E+02  0.31726539114E+02  0.11855306294E+03  0.00000000000E+00 0.  1.
<mgrwt>
<rscale>  0 0.15523762E+04</rscale>
<asrwt>0</asrwt>
<pdfrwt beam="1">  1        2 0.12989520E+00 0.15523762E+04</pdfrwt>
<pdfrwt beam="2">  1       -1 0.10977770E+00 0.15523762E+04</pdfrwt>
<totfact> 0.26992335E+01</totfact>
</mgrwt>
</event>
<event>
12    6  0.1538774E-007  0.1451211E+04  0.7818608E-02  0.8917562E-01
         -1   -1    0    0    0  501 -0.00000000000E+00  0.00000000000E+00  0.20922213488E+03  0.20922213488E+03  0.00000000000E+00 0.  1.
          2   -1    0    0  501    0  0.00000000000E+00 -0.00000000000E+00 -0.25164788834E+04  0.25164788834E+04  0.00000000000E+00 0. -1.
         24    2    1    2    0    0 -0.22344304200E+03 -0.21138669886E+03 -0.13088308538E+04  0.13469413242E+04  0.81250215121E+02 0.  0.
        254    2    1    2    0    0  0.22344304200E+03  0.21138669886E+03 -0.99842589472E+03  0.13787596941E+04  0.89972934672E+03 0.  0.
         23    2    4    4    0    0  0.35040450336E+03 -0.23911976721E+03 -0.67533451018E+03  0.80242645895E+03  0.88599900306E+02 0.  0.
         23    2    4    4    0    0 -0.12696146136E+03  0.45050646607E+03 -0.32309138454E+03  0.57633323514E+03  0.93255919536E+02 0.  0.
          4    1    3    3  502    0 -0.22325954535E+03 -0.21432455500E+03 -0.13076429863E+04  0.13437671000E+04  0.00000000000E+00 0. -1.
         -3    1    3    3    0  502 -0.18349665218E+00  0.29378561459E+01 -0.11878674737E+01  0.31742241399E+01  0.00000000000E+00 0.  1.
         11    1    5    5    0    0  0.33822274872E+03 -0.21090926814E+03 -0.65054403952E+03  0.76294488300E+03  0.00000000000E+00 0.  1.
        -11    1    5    5    0    0  0.12181754643E+02 -0.28210499068E+02 -0.24790470655E+02  0.39481575946E+02  0.00000000000E+00 0. -1.
          4    1    6    6  503    0 -0.71271147891E+02  0.32763841940E+03 -0.27317624475E+03  0.43249482203E+03  0.00000000000E+00 0.  1.
         -4    1    6    6    0  503 -0.55690313474E+02  0.12286804667E+03 -0.49915139790E+02  0.14383841312E+03  0.00000000000E+00 0. -1.
<mgrwt>
<rscale>  0 0.14512106E+04</rscale>
<asrwt>0</asrwt>
<pdfrwt beam="1">  1        2 0.38715060E+00 0.14512106E+04</pdfrwt>
<pdfrwt beam="2">  1       -1 0.32188021E-01 0.14512106E+04</pdfrwt>
<totfact> 0.33999804E+01</totfact>
</mgrwt>
</event>
<event>
12    6  0.1538774E-007  0.1987486E+04  0.7818608E-02  0.8612494E-01
         -1   -1    0    0    0  501 -0.00000000000E+00  0.00000000000E+00  0.23102871709E+04  0.23102871709E+04  0.00000000000E+00 0.  1.
          2   -1    0    0  501    0  0.00000000000E+00 -0.00000000000E+00 -0.42744698531E+03  0.42744698531E+03  0.00000000000E+00 0. -1.
         24    2    1    2    0    0 -0.33231142435E+03 -0.49693012805E+03  0.27406902081E+02  0.60353193482E+03  0.78289355301E+02 0.  0.
        254    2    1    2    0    0  0.33231142435E+03  0.49693012805E+03  0.18554332835E+04  0.21342022214E+04  0.86880148325E+03 0.  0.
         23    2    4    4    0    0 -0.14408598809E+03  0.17921995823E+03  0.70710430397E+02  0.25759456048E+03  0.92056652268E+02 0.  0.
         23    2    4    4    0    0  0.47639741244E+03  0.31771016982E+03  0.17847228531E+04  0.18766076609E+04  0.92338529172E+02 0.  0.
          4    1    3    3  502    0 -0.12982128140E+03 -0.23964683421E+03 -0.17222096330E+02  0.27309480195E+03  0.00000000000E+00 0. -1.
         -3    1    3    3    0  502 -0.20249014295E+03 -0.25728329384E+03  0.44628998411E+02  0.33043713287E+03  0.00000000000E+00 0.  1.
         11    1    5    5    0    0 -0.69832428703E+02  0.14245479824E+03  0.18657238702E+02  0.15974363898E+03  0.00000000000E+00 0.  1.
        -11    1    5    5    0    0 -0.74253559390E+02  0.36765159993E+02  0.52053191695E+02  0.97850921493E+02  0.00000000000E+00 0. -1.
          4    1    6    6  503    0  0.15892563306E+01 -0.35055811512E+01  0.38606937497E+02  0.38798330606E+02  0.00000000000E+00 0. -1.
         -4    1    6    6    0  503  0.47480815611E+03  0.32121575097E+03  0.17461159156E+04  0.18378093303E+04  0.00000000000E+00 0.  1.
<mgrwt>
<rscale>  0 0.19874861E+04</rscale>
<asrwt>0</asrwt>
<pdfrwt beam="1">  1        2 0.65761076E-01 0.19874861E+04</pdfrwt>
<pdfrwt beam="2">  1       -1 0.35542879E+00 0.19874861E+04</pdfrwt>
<totfact> 0.11227763E+00</totfact>
</mgrwt>
</event>
<event>
12    6  0.1538774E-007  0.1411967E+04  0.7818608E-02  0.8945201E-01
          2   -1    0    0  501    0  0.00000000000E+00  0.00000000000E+00  0.88053581021E+03  0.88053581021E+03  0.00000000000E+00 0. -1.
         -1   -1    0    0    0  501 -0.00000000000E+00 -0.00000000000E+00 -0.56603345155E+03  0.56603345155E+03  0.00000000000E+00 0.  1.
         24    2    1    2    0    0 -0.35068144180E+02  0.30764004720E+03 -0.19477286848E+03  0.37480376645E+03  0.81665290474E+02 0.  0.
        254    2    1    2    0    0  0.35068144180E+02 -0.30764004720E+03  0.50927522715E+03  0.10717654953E+04  0.89075689532E+03 0.  0.
         23    2    4    4    0    0 -0.24759321899E+02 -0.55509137717E+03  0.56216280380E+03  0.79575646499E+03  0.91988437201E+02 0.  0.
         23    2    4    4    0    0  0.59827466079E+02  0.24745132997E+03 -0.52887576652E+02  0.27600903031E+03  0.92587270457E+02 0.  0.
          4    1    3    3  502    0 -0.31249332374E+02  0.11156846984E+03 -0.32694696766E+02  0.12038682417E+03  0.00000000000E+00 0. -1.
         -1    1    3    3    0  502 -0.38188118061E+01  0.19607157736E+03 -0.16207817172E+03  0.25441694228E+03  0.00000000000E+00 0.  1.
         11    1    5    5    0    0 -0.19603013150E+02 -0.44865157414E+03  0.39814293842E+03  0.60015857281E+03  0.00000000000E+00 0. -1.
        -11    1    5    5    0    0 -0.51563087490E+01 -0.10643980303E+03  0.16401986538E+03  0.19559789218E+03  0.00000000000E+00 0.  1.
          2    1    6    6  503    0 -0.24990700879E+02  0.60101214483E+02 -0.16645118092E+02  0.67184455561E+02  0.00000000000E+00 0.  1.
         -2    1    6    6    0  503  0.84818166958E+02  0.18735011548E+03 -0.36242458560E+02  0.20882457475E+03  0.00000000000E+00 0. -1.
<mgrwt>
<rscale>  0 0.14119670E+04</rscale>
<asrwt>0</asrwt>
<pdfrwt beam="1">  1        2 0.13546705E+00 0.14119670E+04</pdfrwt>
<pdfrwt beam="2">  1       -1 0.87082070E-01 0.14119670E+04</pdfrwt>
<totfact> 0.43594457E+01</totfact>
</mgrwt>
</event>
<event>
12    6  0.1538774E-007  0.1754399E+04  0.7818608E-02  0.8730932E-01
          2   -1    0    0  501    0  0.00000000000E+00  0.00000000000E+00  0.23751780157E+04  0.23751780157E+04  0.00000000000E+00 0. -1.
         -1   -1    0    0    0  501 -0.00000000000E+00 -0.00000000000E+00 -0.32396703529E+03  0.32396703529E+03  0.00000000000E+00 0.  1.
         24    2    1    2    0    0  0.54429793751E+03  0.32391060614E+03  0.95282624305E+03  0.11469010293E+04  0.79534873122E+02 0.  0.
        254    2    1    2    0    0 -0.54429793751E+03 -0.32391060614E+03  0.10983847374E+04  0.15522440217E+04  0.89545192283E+03 0.  0.
         23    2    4    4    0    0 -0.23012053779E+03  0.15889877079E+02  0.10484492374E+04  0.10776924950E+04  0.94696147110E+02 0.  0.
         23    2    4    4    0    0 -0.31417739972E+03 -0.33980048321E+03  0.49935499986E+02  0.47455152671E+03  0.92378517305E+02 0.  0.
          4    1    3    3  502    0  0.21466546994E+03  0.16050409738E+03  0.45135954011E+03  0.52494596266E+03  0.00000000000E+00 0. -1.
         -3    1    3    3    0  502  0.32963246756E+03  0.16340650875E+03  0.50146670294E+03  0.62195506665E+03  0.00000000000E+00 0.  1.
         11    1    5    5    0    0 -0.44107846170E+02 -0.10630125256E+02  0.87684469545E+02  0.98727239686E+02  0.00000000000E+00 0.  1.
        -11    1    5    5    0    0 -0.18601269162E+03  0.26520002335E+02  0.96076476787E+03  0.97896525533E+03  0.00000000000E+00 0. -1.
          4    1    6    6  503    0 -0.20838636184E+03 -0.21128877117E+03 -0.11853958577E+02  0.29699888377E+03  0.00000000000E+00 0. -1.
         -4    1    6    6    0  503 -0.10579103787E+03 -0.12851171204E+03  0.61789458563E+02  0.17755264294E+03  0.00000000000E+00 0.  1.
<mgrwt>
<rscale>  0 0.17543995E+04</rscale>
<asrwt>0</asrwt>
<pdfrwt beam="1">  1        2 0.36541199E+00 0.17543995E+04</pdfrwt>
<pdfrwt beam="2">  1       -1 0.49841084E-01 0.17543995E+04</pdfrwt>
<totfact> 0.17913547E+01</totfact>
</mgrwt>
</event>
<event>
12    6  0.1538774E-007  0.3146880E+04  0.7818608E-02  0.8202989E-01
         -1   -1    0    0    0  501 -0.00000000000E+00  0.00000000000E+00  0.12381494981E+04  0.12381494981E+04  0.00000000000E+00 0.  1.
          2   -1    0    0  501    0  0.00000000000E+00 -0.00000000000E+00 -0.19995272392E+04  0.19995272392E+04  0.00000000000E+00 0. -1.
         24    2    1    2    0    0  0.14063469124E+04 -0.31810275057E+03 -0.20730777414E+03  0.14588550085E+04  0.79249129922E+02 0.  0.
        254    2    1    2    0    0 -0.14063469124E+04  0.31810275057E+03 -0.55406996696E+03  0.17788217288E+04  0.88216337291E+03 0.  0.
         23    2    4    4    0    0 -0.79118572919E+03  0.47222570966E+03 -0.64924127910E+03  0.11311084346E+04  0.94446139808E+02 0.  0.
         23    2    4    4    0    0 -0.61516118324E+03 -0.15412295909E+03  0.95171312135E+02  0.64771329423E+03  0.91092068686E+02 0.  0.
          2    1    3    3  502    0  0.47183961304E+03 -0.10758357400E+03 -0.31879500301E+02  0.48499809109E+03  0.00000000000E+00 0. -1.
         -1    1    3    3    0  502  0.93450729939E+03 -0.21051917657E+03 -0.17542827384E+03  0.97385691741E+03  0.00000000000E+00 0.  1.
         11    1    5    5    0    0 -0.34431522767E+03  0.16902784454E+03 -0.22790694324E+03  0.44616696764E+03  0.00000000000E+00 0.  1.
        -11    1    5    5    0    0 -0.44687050151E+03  0.30319786512E+03 -0.42133433586E+03  0.68494146692E+03  0.00000000000E+00 0. -1.
          4    1    6    6  503    0 -0.21679804198E+03 -0.15257785278E+02  0.11608077379E+02  0.21764406373E+03  0.00000000000E+00 0. -1.
         -4    1    6    6    0  503 -0.39836314127E+03 -0.13886517381E+03  0.83563234756E+02  0.43006923050E+03  0.00000000000E+00 0.  1.
<mgrwt>
<rscale>  0 0.31468801E+04</rscale>
<asrwt>0</asrwt>
<pdfrwt beam="1">  1        2 0.30761957E+00 0.31468801E+04</pdfrwt>
<pdfrwt beam="2">  1       -1 0.19048454E+00 0.31468801E+04</pdfrwt>
<totfact> 0.11275647E+00</totfact>
</mgrwt>
</event>
<event>
12    6  0.1538774E-007  0.1431523E+04  0.7818608E-02  0.8931311E-01
         -1   -1    0    0    0  501 -0.00000000000E+00  0.00000000000E+00  0.19275844738E+04  0.19275844738E+04  0.00000000000E+00 0.  1.
          2   -1    0    0  501    0  0.00000000000E+00 -0.00000000000E+00 -0.26578072633E+03  0.26578072633E+03  0.00000000000E+00 0. -1.
         24    2    1    2    0    0  0.21125290462E+03 -0.33057370775E+03  0.71215745810E+03  0.81709862170E+03  0.81087276998E+02 0.  0.
        254    2    1    2    0    0 -0.21125290462E+03  0.33057370775E+03  0.94964628941E+03  0.13762665785E+04  0.91562811996E+03 0.  0.
         23    2    4    4    0    0 -0.11990979073E+03  0.41964921088E+03  0.10820094922E+04  0.11702466704E+04  0.90823511476E+02 0.  0.
         23    2    4    4    0    0 -0.91343113883E+02 -0.89075503125E+02 -0.13236320280E+03  0.20601990807E+03  0.92984812503E+02 0.  0.
          2    1    3    3  502    0  0.55789935972E+02 -0.13936757248E+03  0.21508261357E+03  0.26229061720E+03  0.00000000000E+00 0. -1.
         -1    1    3    3    0  502  0.15546296865E+03 -0.19120613528E+03  0.49707484453E+03  0.55480800450E+03  0.00000000000E+00 0.  1.
         11    1    5    5    0    0 -0.37528796618E+02  0.21679950896E+03  0.44026122464E+03  0.49217921897E+03  0.00000000000E+00 0. -1.
        -11    1    5    5    0    0 -0.82380994117E+02  0.20284970192E+03  0.64174826757E+03  0.67806745143E+03  0.00000000000E+00 0.  1.
          3    1    6    6  503    0 -0.51949886003E+02 -0.94967989026E+02 -0.60893927133E+02  0.12420056343E+03  0.00000000000E+00 0. -1.
         -3    1    6    6    0  503 -0.39393227880E+02  0.58924859017E+01 -0.71469275668E+02  0.81819344641E+02  0.00000000000E+00 0.  1.
<mgrwt>
<rscale>  0 0.14315234E+04</rscale>
<asrwt>0</asrwt>
<pdfrwt beam="1">  1        2 0.40889344E-01 0.14315234E+04</pdfrwt>
<pdfrwt beam="2">  1       -1 0.29655145E+00 0.14315234E+04</pdfrwt>
<totfact> 0.48764720E+00</totfact>
</mgrwt>
</event>
<event>
12    6  0.1538774E-007  0.1390510E+04  0.7818608E-02  0.8960717E-01
          2   -1    0    0  501    0  0.00000000000E+00  0.00000000000E+00  0.80823228830E+03  0.80823228830E+03  0.00000000000E+00 0. -1.
         -1   -1    0    0    0  501 -0.00000000000E+00 -0.00000000000E+00 -0.59806984843E+03  0.59806984843E+03  0.00000000000E+00 0.  1.
         24    2    1    2    0    0  0.39591921282E+03 -0.85077348031E+02  0.94142496773E+02  0.42367860532E+03  0.81551043402E+02 0.  0.
        254    2    1    2    0    0 -0.39591921282E+03  0.85077348031E+02  0.11601994310E+03  0.98262353141E+03  0.88774895046E+03 0.  0.
         23    2    4    4    0    0 -0.15915433804E+03  0.26162041633E+03  0.43411464064E+03  0.53917270541E+03  0.92067037958E+02 0.  0.
         23    2    4    4    0    0 -0.23676487478E+03 -0.17654306830E+03 -0.31809469754E+03  0.44345082600E+03  0.90770796959E+02 0.  0.
          4    1    3    3  502    0  0.22975231372E+03 -0.27820067248E+02  0.17970934558E+02  0.23212719851E+03  0.00000000000E+00 0. -1.
         -3    1    3    3    0  502  0.16616689910E+03 -0.57257280783E+02  0.76171562215E+02  0.19155140681E+03  0.00000000000E+00 0.  1.
         11    1    5    5    0    0  0.70504785952E+01  0.49454840087E+02  0.59694717402E+02  0.77839255791E+02  0.00000000000E+00 0.  1.
        -11    1    5    5    0    0 -0.16620481663E+03  0.21216557625E+03  0.37441992324E+03  0.46133344962E+03  0.00000000000E+00 0. -1.
          1    1    6    6  503    0 -0.14449231016E+03 -0.10247695651E+03 -0.25166156162E+03  0.30775492832E+03  0.00000000000E+00 0. -1.
         -1    1    6    6    0  503 -0.92272564622E+02 -0.74066111795E+02 -0.66433135925E+02  0.13569589768E+03  0.00000000000E+00 0.  1.
<mgrwt>
<rscale>  0 0.13905098E+04</rscale>
<asrwt>0</asrwt>
<pdfrwt beam="1">  1        2 0.12434343E+00 0.13905098E+04</pdfrwt>
<pdfrwt beam="2">  1       -1 0.92010745E-01 0.13905098E+04</pdfrwt>
<totfact> 0.43474267E+01</totfact>
</mgrwt>
</event>
<event>
12    6  0.1538774E-007  0.1492748E+04  0.7818608E-02  0.8889290E-01
          2   -1    0    0  501    0  0.00000000000E+00  0.00000000000E+00  0.48189239922E+03  0.48189239922E+03  0.00000000000E+00 0. -1.
         -1   -1    0    0    0  501 -0.00000000000E+00 -0.00000000000E+00 -0.11560133329E+04  0.11560133329E+04  0.00000000000E+00 0.  1.
         24    2    1    2    0    0  0.57751163498E+02 -0.16011572744E+01 -0.72064033807E+03  0.72733467758E+03  0.79721237878E+02 0.  0.
        254    2    1    2    0    0 -0.57751163498E+02  0.16011572744E+01  0.46519404389E+02  0.91057105454E+03  0.90754494643E+03 0.  0.
         23    2    4    4    0    0 -0.16522974358E+03 -0.39399108315E+03 -0.12825818026E+03  0.45545843728E+03  0.91991225230E+02 0.  0.
         23    2    4    4    0    0  0.10747858008E+03  0.39559224043E+03  0.17477758465E+03  0.45511261726E+03  0.92387360798E+02 0.  0.
          4    1    3    3  502    0  0.15518524358E+02  0.34529864671E+02 -0.18601517150E+03  0.18982829131E+03  0.00000000000E+00 0. -1.
         -3    1    3    3    0  502  0.42232639140E+02 -0.36131021945E+02 -0.53462516657E+03  0.53750638628E+03  0.00000000000E+00 0.  1.
         11    1    5    5    0    0 -0.14939048342E+03 -0.26608926631E+03 -0.65483695702E+02  0.31210435528E+03  0.00000000000E+00 0. -1.
        -11    1    5    5    0    0 -0.15839260153E+02 -0.12790181685E+03 -0.62774484559E+02  0.14335408200E+03  0.00000000000E+00 0.  1.
          1    1    6    6  503    0  0.11151408510E+03  0.39582959635E+03  0.16248773001E+03  0.44217499129E+03  0.00000000000E+00 0. -1.
         -1    1    6    6    0  503 -0.40355050251E+01 -0.23735592352E+00  0.12289854639E+02  0.12937625968E+02  0.00000000000E+00 0.  1.
<mgrwt>
<rscale>  0 0.14927479E+04</rscale>
<asrwt>0</asrwt>
<pdfrwt beam="1">  1        2 0.74137292E-01 0.14927479E+04</pdfrwt>
<pdfrwt beam="2">  1       -1 0.17784820E+00 0.14927479E+04</pdfrwt>
<totfact> 0.15321327E+01</totfact>
</mgrwt>
</event>
<event>
12    6  0.1538774E-007  0.1238894E+04  0.7818608E-02  0.9079478E-01
          2   -1    0    0  501    0  0.00000000000E+00  0.00000000000E+00  0.10236501425E+04  0.10236501425E+04  0.00000000000E+00 0. -1.
         -1   -1    0    0    0  501 -0.00000000000E+00 -0.00000000000E+00 -0.37484925136E+03  0.37484925136E+03  0.00000000000E+00 0.  1.
         24    2    1    2    0    0  0.14969821069E+03 -0.22724361586E+03  0.24977696952E+03  0.37790780825E+03  0.79853376858E+02 0.  0.
        254    2    1    2    0    0 -0.14969821069E+03  0.22724361586E+03  0.39902392165E+03  0.10205915857E+04  0.89907612548E+03 0.  0.
         23    2    4    4    0    0 -0.19305285783E+03  0.53577422172E+03  0.38961313110E+03  0.69599635359E+03  0.91044547926E+02 0.  0.
         23    2    4    4    0    0  0.43354647138E+02 -0.30853060586E+03  0.94107905515E+01  0.32459523206E+03  0.90568987628E+02 0.  0.
          2    1    3    3  502    0  0.15173724196E+03 -0.19141997945E+03  0.23546254245E+03  0.33927630042E+03  0.00000000000E+00 0. -1.
         -1    1    3    3    0  502 -0.20390312765E+01 -0.35823636409E+02  0.14314427074E+02  0.38631507821E+02  0.00000000000E+00 0.  1.
         11    1    5    5    0    0 -0.13076257545E+03  0.35316012425E+03  0.30798901642E+03  0.48649579519E+03  0.00000000000E+00 0. -1.
        -11    1    5    5    0    0 -0.62290282380E+02  0.18261409747E+03  0.81624114681E+02  0.20950055840E+03  0.00000000000E+00 0.  1.
          2    1    6    6  503    0  0.35169648110E+02 -0.28012167482E+03 -0.19825543274E+02  0.28301609322E+03  0.00000000000E+00 0. -1.
         -2    1    6    6    0  503  0.81849990274E+01 -0.28408931035E+02  0.29236333826E+02  0.41579138846E+02  0.00000000000E+00 0.  1.
<mgrwt>
<rscale>  0 0.12388938E+04</rscale>
<asrwt>0</asrwt>
<pdfrwt beam="1">  1        2 0.15748464E+00 0.12388938E+04</pdfrwt>
<pdfrwt beam="2">  1       -1 0.57669116E-01 0.12388938E+04</pdfrwt>
<totfact> 0.83169674E+01</totfact>
</mgrwt>
</event>
<event>
12    6  0.1538774E-007  0.1186775E+04  0.7818608E-02  0.9124512E-01
         -1   -1    0    0    0  501 -0.00000000000E+00  0.00000000000E+00  0.76134968847E+03  0.76134968847E+03  0.00000000000E+00 0.  1.
          2   -1    0    0  501    0  0.00000000000E+00 -0.00000000000E+00 -0.46247970201E+03  0.46247970201E+03  0.00000000000E+00 0. -1.
         24    2    1    2    0    0  0.22233880203E+03 -0.99909227129E+02  0.16519782475E+03  0.30408581662E+03  0.75904321433E+02 0.  0.
        254    2    1    2    0    0 -0.22233880203E+03  0.99909227129E+02  0.13367216171E+03  0.91974357386E+03  0.87672321646E+03 0.  0.
         23    2    4    4    0    0 -0.15005785457E+03  0.19480602259E+03 -0.33622321646E+03  0.42676526640E+03  0.92821307682E+02 0.  0.
         23    2    4    4    0    0 -0.72280947457E+02 -0.94896795461E+02  0.46989537817E+03  0.49297830746E+03  0.89420400585E+02 0.  0.
          2    1    3    3  502    0  0.13672770519E+03 -0.62197625887E+02  0.56032637526E+02  0.16032051179E+03  0.00000000000E+00 0. -1.
         -1    1    3    3    0  502  0.85611096840E+02 -0.37711601242E+02  0.10916518723E+03  0.14376530483E+03  0.00000000000E+00 0.  1.
         11    1    5    5    0    0 -0.14970272345E+03  0.18066082917E+03 -0.26410218644E+03  0.35326931014E+03  0.00000000000E+00 0.  1.
        -11    1    5    5    0    0 -0.35513112534E+00  0.14145193418E+02 -0.72121030019E+02  0.73495956256E+02  0.00000000000E+00 0. -1.
          4    1    6    6  503    0 -0.84304377839E+02 -0.75481317947E+02  0.28443989773E+03  0.30612205556E+03  0.00000000000E+00 0. -1.
         -4    1    6    6    0  503  0.12023430382E+02 -0.19415477514E+02  0.18545548044E+03  0.18685625189E+03  0.00000000000E+00 0.  1.
<mgrwt>
<rscale>  0 0.11867751E+04</rscale>
<asrwt>0</asrwt>
<pdfrwt beam="1">  1        2 0.71150723E-01 0.11867751E+04</pdfrwt>
<pdfrwt beam="2">  1       -1 0.11713072E+00 0.11867751E+04</pdfrwt>
<totfact> 0.50022875E+01</totfact>
</mgrwt>
</event>
<event>
12    6  0.1538774E-007  0.1568985E+04  0.7818608E-02  0.8839832E-01
         -1   -1    0    0    0  501 -0.00000000000E+00  0.00000000000E+00  0.12253407938E+04  0.12253407938E+04  0.00000000000E+00 0.  1.
          2   -1    0    0  501    0  0.00000000000E+00 -0.00000000000E+00 -0.50225061355E+03  0.50225061355E+03  0.00000000000E+00 0. -1.
         24    2    1    2    0    0 -0.17996603037E+03  0.48076900793E+03  0.30670568706E+03  0.60503960828E+03  0.92075719014E+02 0.  0.
        254    2    1    2    0    0  0.17996603037E+03 -0.48076900793E+03  0.41638449320E+03  0.11225517991E+04  0.90731465567E+03 0.  0.
         23    2    4    4    0    0  0.37490022389E+03 -0.37981652020E+03 -0.10408488924E+03  0.55059249198E+03  0.86646760862E+02 0.  0.
         23    2    4    4    0    0 -0.19493419352E+03 -0.10095248774E+03  0.52046938245E+03  0.57195930711E+03  0.89768181136E+02 0.  0.
          4    1    3    3  502    0 -0.13201577487E+03  0.39842125098E+03  0.28490843620E+03  0.50728736932E+03  0.00000000000E+00 0. -1.
         -3    1    3    3    0  502 -0.47950255494E+02  0.82347756948E+02  0.21797250864E+02  0.97752238960E+02  0.00000000000E+00 0.  1.
         11    1    5    5    0    0  0.10302087097E+03 -0.93455073332E+02 -0.65798645724E+02  0.15387206493E+03  0.00000000000E+00 0. -1.
        -11    1    5    5    0    0  0.27187935293E+03 -0.28636144687E+03 -0.38286243519E+02  0.39672042705E+03  0.00000000000E+00 0.  1.
          4    1    6    6  503    0  0.59130223147E+01  0.19055458619E+01  0.20226511332E+01  0.65334566297E+01  0.00000000000E+00 0. -1.
         -4    1    6    6    0  503 -0.20084721584E+03 -0.10285803360E+03  0.51844673131E+03  0.56542585048E+03  0.00000000000E+00 0.  1.
<mgrwt>
<rscale>  0 0.15689846E+04</rscale>
<asrwt>0</asrwt>
<pdfrwt beam="1">  1        2 0.77269326E-01 0.15689846E+04</pdfrwt>
<pdfrwt beam="2">  1       -1 0.18851397E+00 0.15689846E+04</pdfrwt>
<totfact> 0.12181517E+01</totfact>
</mgrwt>
</event>
<event>
12    6  0.1538774E-007  0.3475243E+04  0.7818608E-02  0.8119682E-01
         -1   -1    0    0    0  501 -0.00000000000E+00  0.00000000000E+00  0.10656530125E+04  0.10656530125E+04  0.00000000000E+00 0.  1.
          2   -1    0    0  501    0  0.00000000000E+00 -0.00000000000E+00 -0.28333125451E+04  0.28333125451E+04  0.00000000000E+00 0. -1.
         24    2    1    2    0    0  0.19247626447E+01 -0.16164135930E+04 -0.77414875130E+03  0.17940216649E+04  0.80067700859E+02 0.  0.
        254    2    1    2    0    0 -0.19247626447E+01  0.16164135930E+04 -0.99351078124E+03  0.21049438926E+04  0.91155280168E+03 0.  0.
         23    2    4    4    0    0  0.42325612020E+03  0.80721390858E+03 -0.33572460431E+03  0.97559251611E+03  0.91267245267E+02 0.  0.
         23    2    4    4    0    0 -0.42518088284E+03  0.80919968445E+03 -0.65778617692E+03  0.11293513765E+04  0.84669738694E+02 0.  0.
          4    1    3    3  502    0 -0.98486761311E+01 -0.85279572923E+03 -0.36572801052E+03  0.92796256923E+03  0.00000000000E+00 0. -1.
         -1    1    3    3    0  502  0.11773438776E+02 -0.76361786379E+03 -0.40842074078E+03  0.86605909571E+03  0.00000000000E+00 0.  1.
         11    1    5    5    0    0  0.72100058839E+01  0.58050646265E+02 -0.13170806158E+02  0.59961086143E+02  0.00000000000E+00 0. -1.
        -11    1    5    5    0    0  0.41604611431E+03  0.74916326231E+03 -0.32255379816E+03  0.91563142996E+03  0.00000000000E+00 0.  1.
          1    1    6    6  503    0 -0.59790801131E+02  0.16371712033E+03 -0.15529548878E+03  0.23344147923E+03  0.00000000000E+00 0. -1.
         -1    1    6    6    0  503 -0.36539008171E+03  0.64548256412E+03 -0.50249068814E+03  0.89590989729E+03  0.00000000000E+00 0.  1.
<mgrwt>
<rscale>  0 0.34752428E+04</rscale>
<asrwt>0</asrwt>
<pdfrwt beam="1">  1        2 0.43589423E+00 0.34752428E+04</pdfrwt>
<pdfrwt beam="2">  1       -1 0.16394662E+00 0.34752428E+04</pdfrwt>
<totfact> 0.56304178E-01</totfact>
</mgrwt>
</event>
<event>
12    6  0.1538774E-007  0.2394324E+04  0.7818608E-02  0.8441631E-01
         -1   -1    0    0    0  501 -0.00000000000E+00  0.00000000000E+00  0.86804021851E+03  0.86804021851E+03  0.00000000000E+00 0.  1.
          2   -1    0    0  501    0  0.00000000000E+00 -0.00000000000E+00 -0.16510725326E+04  0.16510725326E+04  0.00000000000E+00 0. -1.
         24    2    1    2    0    0 -0.50234114556E+03 -0.53948628921E+03  0.41431972777E+03  0.84932848459E+03  0.79410044391E+02 0.  0.
        254    2    1    2    0    0  0.50234114556E+03  0.53948628921E+03 -0.11973520419E+04  0.16697842666E+04  0.90063061345E+03 0.  0.
         23    2    4    4    0    0 -0.20243859017E+03  0.22337673411E+02 -0.57901787332E+02  0.23076514877E+03  0.91758282816E+02 0.  0.
         23    2    4    4    0    0  0.70477973574E+03  0.51714861579E+03 -0.11394502546E+04  0.14390191178E+04  0.90950382311E+02 0.  0.
          4    1    3    3  502    0 -0.76690490301E+02 -0.12889789351E+03  0.81137079694E+02  0.17052660776E+03  0.00000000000E+00 0. -1.
         -3    1    3    3    0  502 -0.42565065526E+03 -0.41058839570E+03  0.33318264807E+03  0.67880187683E+03  0.00000000000E+00 0.  1.
         11    1    5    5    0    0 -0.19626128490E+03 -0.27516431327E+01 -0.42993340270E+02  0.20093404589E+03  0.00000000000E+00 0.  1.
        -11    1    5    5    0    0 -0.61773052726E+01  0.25089316544E+02 -0.14908447062E+02  0.29831102877E+02  0.00000000000E+00 0. -1.
          4    1    6    6  503    0  0.12935304737E+03  0.56118987614E+02 -0.20194896536E+03  0.24630252992E+03  0.00000000000E+00 0. -1.
         -4    1    6    6    0  503  0.57542668837E+03  0.46102962818E+03 -0.93750128920E+03  0.11927165879E+04  0.00000000000E+00 0.  1.
<mgrwt>
<rscale>  0 0.23943244E+04</rscale>
<asrwt>0</asrwt>
<pdfrwt beam="1">  1        2 0.25401116E+00 0.23943244E+04</pdfrwt>
<pdfrwt beam="2">  1       -1 0.13354465E+00 0.23943244E+04</pdfrwt>
<totfact> 0.50666339E+00</totfact>
</mgrwt>
</event>
<event>
12    6  0.1538774E-007  0.1670465E+04  0.7818608E-02  0.8778391E-01
         -1   -1    0    0    0  501 -0.00000000000E+00  0.00000000000E+00  0.25309287459E+03  0.25309287459E+03  0.00000000000E+00 0.  1.
          2   -1    0    0  501    0  0.00000000000E+00 -0.00000000000E+00 -0.27563539248E+04  0.27563539248E+04  0.00000000000E+00 0. -1.
         24    2    1    2    0    0 -0.41761042037E+02  0.40399671382E+03 -0.16573687016E+04  0.17083265596E+04  0.80940049205E+02 0.  0.
        254    2    1    2    0    0  0.41761042037E+02 -0.40399671382E+03 -0.84589234862E+03  0.13011202399E+04  0.90134493050E+03 0.  0.
         23    2    4    4    0    0  0.18639005908E+03 -0.65287428799E+03 -0.55695431752E+03  0.88285872983E+03  0.90858874048E+02 0.  0.
         23    2    4    4    0    0 -0.14462901705E+03  0.24887757417E+03 -0.28893803110E+03  0.41826151004E+03  0.92735675294E+02 0.  0.
          2    1    3    3  502    0 -0.47144432904E+02  0.39346960191E+03 -0.16407674928E+04  0.16879451681E+04  0.00000000000E+00 0. -1.
         -1    1    3    3    0  502  0.53833908663E+01  0.10527111914E+02 -0.16601208854E+02  0.20381391461E+02  0.00000000000E+00 0.  1.
         11    1    5    5    0    0  0.25904909812E+02 -0.95589782234E+02 -0.43042984877E+02  0.10798689442E+03  0.00000000000E+00 0. -1.
        -11    1    5    5    0    0  0.16048514927E+03 -0.55728450575E+03 -0.51391133264E+03  0.77487183540E+03  0.00000000000E+00 0.  1.
          4    1    6    6  503    0 -0.28561528314E+02  0.37132098678E+01 -0.13947735663E+02  0.32001377428E+02  0.00000000000E+00 0. -1.
         -4    1    6    6    0  503 -0.11606748873E+03  0.24516436430E+03 -0.27499029544E+03  0.38626013262E+03  0.00000000000E+00 0.  1.
<mgrwt>
<rscale>  0 0.16704653E+04</rscale>
<asrwt>0</asrwt>
<pdfrwt beam="1">  1        2 0.42405443E+00 0.16704653E+04</pdfrwt>
<pdfrwt beam="2">  1       -1 0.38937367E-01 0.16704653E+04</pdfrwt>
<totfact> 0.17128974E+01</totfact>
</mgrwt>
</event>
<event>
12    6  0.1538774E-007  0.2073814E+04  0.7818608E-02  0.8572867E-01
          2   -1    0    0  501    0  0.00000000000E+00  0.00000000000E+00  0.23247746569E+04  0.23247746569E+04  0.00000000000E+00 0. -1.
         -1   -1    0    0    0  501 -0.00000000000E+00 -0.00000000000E+00 -0.46248635271E+03  0.46248635271E+03  0.00000000000E+00 0.  1.
         24    2    1    2    0    0 -0.62437899957E+03 -0.28267053830E+03  0.10623979551E+03  0.69799049366E+03  0.78435111768E+02 0.  0.
        254    2    1    2    0    0  0.62437899957E+03  0.28267053830E+03  0.17560485087E+04  0.20892705159E+04  0.90088465169E+03 0.  0.
         23    2    4    4    0    0  0.81004378250E+03  0.14980328543E+03  0.15896100371E+04  0.17926341453E+04  0.89806207977E+02 0.  0.
         23    2    4    4    0    0 -0.18566478293E+03  0.13286725287E+03  0.16643847156E+03  0.29663637062E+03  0.90367322925E+02 0.  0.
          2    1    3    3  502    0 -0.18885101161E+03 -0.62567864870E+02  0.60115645626E+02  0.20783005834E+03  0.00000000000E+00 0. -1.
         -1    1    3    3    0  502 -0.43552798796E+03 -0.22010267343E+03  0.46124149884E+02  0.49016043532E+03  0.00000000000E+00 0.  1.
         11    1    5    5    0    0  0.25358824788E+03  0.67705203415E+02  0.42937179464E+03  0.50324063038E+03  0.00000000000E+00 0.  1.
        -11    1    5    5    0    0  0.55645553463E+03  0.82098082012E+02  0.11602382425E+04  0.12893935150E+04  0.00000000000E+00 0. -1.
          4    1    6    6  503    0 -0.57665913328E+02  0.94264701332E+02  0.59966327079E+02  0.12572649625E+03  0.00000000000E+00 0. -1.
         -4    1    6    6    0  503 -0.12799886960E+03  0.38602551539E+02  0.10647214448E+03  0.17090987436E+03  0.00000000000E+00 0.  1.
<mgrwt>
<rscale>  0 0.20738144E+04</rscale>
<asrwt>0</asrwt>
<pdfrwt beam="1">  1        2 0.35765763E+00 0.20738144E+04</pdfrwt>
<pdfrwt beam="2">  1       -1 0.71151748E-01 0.20738144E+04</pdfrwt>
<totfact> 0.92050109E+00</totfact>
</mgrwt>
</event>
<event>
12    6  0.1538774E-007  0.1375163E+04  0.7818608E-02  0.8971996E-01
         -3   -1    0    0    0  501 -0.00000000000E+00  0.00000000000E+00  0.51035757308E+03  0.51035757308E+03  0.00000000000E+00 0.  1.
          4   -1    0    0  501    0  0.00000000000E+00 -0.00000000000E+00 -0.92634728683E+03  0.92634728683E+03  0.00000000000E+00 0. -1.
         24    2    1    2    0    0 -0.29765719536E+03 -0.21809206002E+03 -0.59309401835E+02  0.38196560670E+03  0.78842672243E+02 0.  0.
        254    2    1    2    0    0  0.29765719536E+03  0.21809206002E+03 -0.35668031191E+03  0.10547392532E+04  0.92146084819E+03 0.  0.
         23    2    4    4    0    0  0.38663967270E+03 -0.36508488294E+02  0.18717346607E+03  0.44078554720E+03  0.91841635453E+02 0.  0.
         23    2    4    4    0    0 -0.88982477339E+02  0.25460054831E+03 -0.54385377798E+03  0.61395370600E+03  0.91776363024E+02 0.  0.
          2    1    3    3  502    0 -0.68036911873E+02 -0.54953432368E+02 -0.48677618302E+02  0.10009201581E+03  0.00000000000E+00 0. -1.
         -3    1    3    3    0  502 -0.22962028349E+03 -0.16313862765E+03 -0.10631783533E+02  0.28187359089E+03  0.00000000000E+00 0.  1.
         11    1    5    5    0    0  0.11275615846E+03 -0.52608596260E+02  0.66236145480E+02  0.14095688220E+03  0.00000000000E+00 0. -1.
        -11    1    5    5    0    0  0.27388351424E+03  0.16100107966E+02  0.12093732059E+03  0.29982866501E+03  0.00000000000E+00 0.  1.
          2    1    6    6  503    0 -0.65000560363E+02  0.24293016906E+03 -0.52220803226E+03  0.57960449347E+03  0.00000000000E+00 0. -1.
         -2    1    6    6    0  503 -0.23981916976E+02  0.11670379245E+02 -0.21645745716E+02  0.34349212526E+02  0.00000000000E+00 0.  1.
<mgrwt>
<rscale>  0 0.13751630E+04</rscale>
<asrwt>0</asrwt>
<pdfrwt beam="1">  1        4 0.14251497E+00 0.13751630E+04</pdfrwt>
<pdfrwt beam="2">  1       -3 0.78516550E-01 0.13751630E+04</pdfrwt>
<totfact> 0.11525513E+00</totfact>
</mgrwt>
</event>
<event>
12    6  0.1538774E-007  0.1916578E+04  0.7818608E-02  0.8646648E-01
          4   -1    0    0  501    0  0.00000000000E+00  0.00000000000E+00  0.87756828194E+03  0.87756828194E+03  0.00000000000E+00 0. -1.
         -3   -1    0    0    0  501 -0.00000000000E+00 -0.00000000000E+00 -0.10464349415E+04  0.10464349415E+04  0.00000000000E+00 0.  1.
         24    2    1    2    0    0 -0.26172146631E+03  0.67697310735E+03 -0.25673263396E+03  0.77397966543E+03  0.79637699371E+02 0.  0.
        254    2    1    2    0    0  0.26172146631E+03 -0.67697310735E+03  0.87865974371E+02  0.11500235580E+04  0.88771788344E+03 0.  0.
         23    2    4    4    0    0  0.57016856271E+03 -0.29834006972E+03  0.48429887985E+02  0.65181865251E+03  0.91777527781E+02 0.  0.
         23    2    4    4    0    0 -0.30844709640E+03 -0.37863303763E+03  0.39436086387E+02  0.49820490552E+03  0.90279203150E+02 0.  0.
          4    1    3    3  502    0 -0.43529807269E+02  0.12451959147E+03 -0.79966056681E+02  0.15425479896E+03  0.00000000000E+00 0. -1.
         -1    1    3    3    0  502 -0.21819165904E+03  0.55245351588E+03 -0.17676657728E+03  0.61972486647E+03  0.00000000000E+00 0.  1.
         11    1    5    5    0    0  0.16685043959E+03 -0.12368462040E+03  0.43904886714E+02  0.21228422832E+03  0.00000000000E+00 0. -1.
        -11    1    5    5    0    0  0.40331812311E+03 -0.17465544932E+03  0.45250012708E+01  0.43953442419E+03  0.00000000000E+00 0.  1.
          1    1    6    6  503    0 -0.23270212916E+01 -0.13313309951E+02  0.16088602970E+02  0.21011958392E+02  0.00000000000E+00 0. -1.
         -1    1    6    6    0  503 -0.30612007510E+03 -0.36531972768E+03  0.23347483417E+02  0.47719294713E+03  0.00000000000E+00 0.  1.
<mgrwt>
<rscale>  0 0.19165783E+04</rscale>
<asrwt>0</asrwt>
<pdfrwt beam="1">  1        4 0.13501051E+00 0.19165783E+04</pdfrwt>
<pdfrwt beam="2">  1       -3 0.16098999E+00 0.19165783E+04</pdfrwt>
<totfact> 0.22489178E-01</totfact>
</mgrwt>
</event>
<event>
12    6  0.1538774E-007  0.1998652E+04  0.7818608E-02  0.8607251E-01
          2   -1    0    0  501    0  0.00000000000E+00  0.00000000000E+00  0.11935133803E+04  0.11935133803E+04  0.00000000000E+00 0. -1.
         -1   -1    0    0    0  501 -0.00000000000E+00 -0.00000000000E+00 -0.83673342569E+03  0.83673342569E+03  0.00000000000E+00 0.  1.
         24    2    1    2    0    0  0.58878185864E+03 -0.31028572101E+03  0.54299224167E+03  0.86252570777E+03  0.78541176017E+02 0.  0.
        254    2    1    2    0    0 -0.58878185864E+03  0.31028572101E+03 -0.18621228709E+03  0.11677210982E+04  0.94125248556E+03 0.  0.
         23    2    4    4    0    0 -0.31382703564E+03 -0.31202090315E+03  0.12447922964E+02  0.45203661052E+03  0.91310975031E+02 0.  0.
         23    2    4    4    0    0 -0.27495482300E+03  0.62230662417E+03 -0.19866021006E+03  0.71568448767E+03  0.99361550224E+02 0.  0.
          2    1    3    3  502    0  0.57790358921E+03 -0.29848128762E+03  0.51255968194E+03  0.82811899207E+03  0.00000000000E+00 0. -1.
         -1    1    3    3    0  502  0.10878269426E+02 -0.11804433392E+02  0.30432559733E+02  0.34406715701E+02  0.00000000000E+00 0.  1.
         11    1    5    5    0    0 -0.25358912586E+02 -0.62979911521E+02  0.20282999000E+02  0.70858618045E+02  0.00000000000E+00 0.  1.
        -11    1    5    5    0    0 -0.28846812305E+03 -0.24904099163E+03 -0.78350760356E+01  0.38117799247E+03  0.00000000000E+00 0. -1.
          4    1    6    6  503    0 -0.15751402672E+02  0.54651871959E+01  0.28397776076E+01  0.16912696240E+02  0.00000000000E+00 0.  1.
         -4    1    6    6    0  503 -0.25920342033E+03  0.61684143697E+03 -0.20149998767E+03  0.69877179143E+03  0.00000000000E+00 0. -1.
<mgrwt>
<rscale>  0 0.19986521E+04</rscale>
<asrwt>0</asrwt>
<pdfrwt beam="1">  1        2 0.18361744E+00 0.19986521E+04</pdfrwt>
<pdfrwt beam="2">  1       -1 0.12872822E+00 0.19986521E+04</pdfrwt>
<totfact> 0.10526842E+01</totfact>
</mgrwt>
</event>
<event>
12    6  0.1538774E-007  0.1818593E+04  0.7818608E-02  0.8696474E-01
          2   -1    0    0  501    0  0.00000000000E+00  0.00000000000E+00  0.14536203997E+04  0.14536203997E+04  0.00000000000E+00 0. -1.
         -1   -1    0    0    0  501 -0.00000000000E+00 -0.00000000000E+00 -0.56880037925E+03  0.56880037925E+03  0.00000000000E+00 0.  1.
         24    2    1    2    0    0  0.42745304101E+03  0.52212576823E+03  0.19807369440E+03  0.70765438631E+03  0.78804326795E+02 0.  0.
        254    2    1    2    0    0 -0.42745304101E+03 -0.52212576823E+03  0.68674632602E+03  0.13147663926E+04  0.89535396950E+03 0.  0.
         23    2    4    4    0    0  0.12232026296E+03 -0.29276036552E+03  0.62722681498E+03  0.70900844239E+03  0.92782625561E+02 0.  0.
         23    2    4    4    0    0 -0.54977330397E+03 -0.22936540272E+03  0.59519511042E+02  0.60575795021E+03  0.92417251266E+02 0.  0.
          4    1    3    3  502    0  0.30033214626E+03  0.37891564136E+03  0.10514205845E+03  0.49480431870E+03  0.00000000000E+00 0. -1.
         -3    1    3    3    0  502  0.12712089475E+03  0.14321012687E+03  0.92931635949E+02  0.21285006761E+03  0.00000000000E+00 0.  1.
         11    1    5    5    0    0  0.10187396926E+02 -0.10911851526E+02  0.33526688300E+01  0.15300063664E+02  0.00000000000E+00 0. -1.
        -11    1    5    5    0    0  0.11213286604E+03 -0.28184851399E+03  0.62387414615E+03  0.69370837873E+03  0.00000000000E+00 0.  1.
          1    1    6    6  503    0 -0.25030678381E+02 -0.23936192240E+00  0.19583114826E+02  0.31781921600E+02  0.00000000000E+00 0. -1.
         -1    1    6    6    0  503 -0.52474262559E+03 -0.22912604079E+03  0.39936396216E+02  0.57397602861E+03  0.00000000000E+00 0.  1.
<mgrwt>
<rscale>  0 0.18185927E+04</rscale>
<asrwt>0</asrwt>
<pdfrwt beam="1">  1        2 0.22363391E+00 0.18185927E+04</pdfrwt>
<pdfrwt beam="2">  1       -1 0.87507751E-01 0.18185927E+04</pdfrwt>
<totfact> 0.18615541E+01</totfact>
</mgrwt>
</event>
<event>
12    6  0.1538774E-007  0.3385288E+04  0.7818608E-02  0.8141527E-01
          2   -1    0    0  501    0  0.00000000000E+00  0.00000000000E+00  0.31519837910E+04  0.31519837910E+04  0.00000000000E+00 0. -1.
         -1   -1    0    0    0  501 -0.00000000000E+00 -0.00000000000E+00 -0.90896524736E+03  0.90896524736E+03  0.00000000000E+00 0.  1.
         24    2    1    2    0    0 -0.13031016986E+03  0.68452273376E+02 -0.83200852658E+03  0.84834326202E+03  0.76037147653E+02 0.  0.
        254    2    1    2    0    0  0.13031016986E+03 -0.68452273376E+02  0.30750270702E+04  0.32126057763E+04  0.91835610603E+03 0.  0.
         23    2    4    4    0    0 -0.18139494754E+03  0.34087261428E+03  0.10896676782E+04  0.11596391407E+04  0.91044063728E+02 0.  0.
         23    2    4    4    0    0  0.31170511740E+03 -0.40932488765E+03  0.19853593921E+04  0.20529666357E+04  0.91176464942E+02 0.  0.
          4    1    3    3  502    0 -0.77621902365E+01  0.64454728989E+01 -0.25556807081E+03  0.25576714905E+03  0.00000000000E+00 0. -1.
         -3    1    3    3    0  502 -0.12254797962E+03  0.62006800477E+02 -0.57644045577E+03  0.59257611297E+03  0.00000000000E+00 0.  1.
         11    1    5    5    0    0 -0.10197072553E+03  0.24858833866E+03  0.64802192152E+03  0.70151735671E+03  0.00000000000E+00 0. -1.
        -11    1    5    5    0    0 -0.79424222011E+02  0.92284275613E+02  0.44164575664E+03  0.45812178395E+03  0.00000000000E+00 0.  1.
          4    1    6    6  503    0  0.23879165901E+03 -0.26592937380E+03  0.14839245320E+04  0.15263590354E+04  0.00000000000E+00 0. -1.
         -4    1    6    6    0  503  0.72913458388E+02 -0.14339551385E+03  0.50143486010E+03  0.52660760034E+03  0.00000000000E+00 0.  1.
<mgrwt>
<rscale>  0 0.33852880E+04</rscale>
<asrwt>0</asrwt>
<pdfrwt beam="1">  1        2 0.48492058E+00 0.33852880E+04</pdfrwt>
<pdfrwt beam="2">  1       -1 0.13984081E+00 0.33852880E+04</pdfrwt>
<totfact> 0.55120189E-01</totfact>
</mgrwt>
</event>
<event>
12    6  0.1538774E-007  0.1991318E+04  0.7818608E-02  0.8610690E-01
          2   -1    0    0  501    0  0.00000000000E+00  0.00000000000E+00  0.23501725649E+04  0.23501725649E+04  0.00000000000E+00 0. -1.
         -1   -1    0    0    0  501 -0.00000000000E+00 -0.00000000000E+00 -0.42181467479E+03  0.42181467479E+03  0.00000000000E+00 0.  1.
         24    2    1    2    0    0  0.16685404880E+03 -0.66848717577E+03  0.19674036429E+03  0.72065369428E+03  0.76938926232E+02 0.  0.
        254    2    1    2    0    0 -0.16685404880E+03  0.66848717577E+03  0.17316175258E+04  0.20513335454E+04  0.85717832510E+03 0.  0.
         23    2    4    4    0    0 -0.18628627490E+03  0.48307326033E+03  0.17645365354E+04  0.18412743927E+04  0.92950811021E+02 0.  0.
         23    2    4    4    0    0  0.19432226103E+02  0.18541391544E+03 -0.32919009627E+02  0.21005915270E+03  0.91023376033E+02 0.  0.
          2    1    3    3  502    0  0.92788710641E+02 -0.24209081480E+03  0.94594397977E+02  0.27598153482E+03  0.00000000000E+00 0. -1.
         -1    1    3    3    0  502  0.74065338157E+02 -0.42639636098E+03  0.10214596631E+03  0.44467215947E+03  0.00000000000E+00 0.  1.
         11    1    5    5    0    0 -0.43348835241E+02  0.22633264669E+03  0.70221608048E+03  0.73906225188E+03  0.00000000000E+00 0. -1.
        -11    1    5    5    0    0 -0.14293743966E+03  0.25674061364E+03  0.10623204550E+04  0.11022121408E+04  0.00000000000E+00 0.  1.
          1    1    6    6  503    0  0.25461631247E+02  0.34293208131E+02  0.23364488221E+02  0.48684885740E+02  0.00000000000E+00 0. -1.
         -1    1    6    6    0  503 -0.60294051439E+01  0.15112070731E+03 -0.56283497848E+02  0.16137426696E+03  0.00000000000E+00 0.  1.
<mgrwt>
<rscale>  0 0.19913184E+04</rscale>
<asrwt>0</asrwt>
<pdfrwt beam="1">  1        2 0.36156500E+00 0.19913184E+04</pdfrwt>
<pdfrwt beam="2">  1       -1 0.64894567E-01 0.19913184E+04</pdfrwt>
<totfact> 0.10819835E+01</totfact>
</mgrwt>
</event>
<event>
12    6  0.1538774E-007  0.2184890E+04  0.7818608E-02  0.8524744E-01
          2   -1    0    0  501    0  0.00000000000E+00  0.00000000000E+00  0.72791966364E+03  0.72791966364E+03  0.00000000000E+00 0. -1.
         -1   -1    0    0    0  501 -0.00000000000E+00 -0.00000000000E+00 -0.16395159160E+04  0.16395159160E+04  0.00000000000E+00 0.  1.
         24    2    1    2    0    0  0.35359875836E+03 -0.31170496365E+03 -0.12153054094E+04  0.13059431672E+04  0.79550309644E+02 0.  0.
        254    2    1    2    0    0 -0.35359875836E+03  0.31170496365E+03  0.30370915696E+03  0.10614924124E+04  0.90129619069E+03 0.  0.
         23    2    4    4    0    0  0.14771209387E+03  0.45508421591E+03  0.12015315823E+03  0.50164339749E+03  0.91042905110E+02 0.  0.
         23    2    4    4    0    0 -0.50131085223E+03 -0.14337925226E+03  0.18355599873E+03  0.55984901494E+03  0.88701377203E+02 0.  0.
          2    1    3    3  502    0  0.15482125096E+03 -0.93903742378E+02 -0.40436262188E+03  0.44305379194E+03  0.00000000000E+00 0. -1.
         -1    1    3    3    0  502  0.19877750740E+03 -0.21780122127E+03 -0.81094278748E+03  0.86288937530E+03  0.00000000000E+00 0.  1.
         11    1    5    5    0    0  0.58436099132E+02  0.67754345771E+02  0.18504114407E+02  0.91366467057E+02  0.00000000000E+00 0.  1.
        -11    1    5    5    0    0  0.89275994739E+02  0.38732987013E+03  0.10164904382E+03  0.41027693043E+03  0.00000000000E+00 0. -1.
          4    1    6    6  503    0 -0.26608921763E+03 -0.10350540330E+03  0.62315571915E+02  0.29223290498E+03  0.00000000000E+00 0. -1.
         -4    1    6    6    0  503 -0.23522163460E+03 -0.39873848959E+02  0.12124042682E+03  0.26761610996E+03  0.00000000000E+00 0.  1.
<mgrwt>
<rscale>  0 0.21848898E+04</rscale>
<asrwt>0</asrwt>
<pdfrwt beam="1">  1        2 0.11198764E+00 0.21848898E+04</pdfrwt>
<pdfrwt beam="2">  1       -1 0.25223322E+00 0.21848898E+04</pdfrwt>
<totfact> 0.27442234E+00</totfact>
</mgrwt>
</event>
<event>
12    6  0.1538774E-007  0.1619539E+04  0.7818608E-02  0.8808634E-01
          2   -1    0    0  501    0  0.00000000000E+00  0.00000000000E+00  0.21609685099E+04  0.21609685099E+04  0.00000000000E+00 0. -1.
         -1   -1    0    0    0  501 -0.00000000000E+00 -0.00000000000E+00 -0.30344097663E+03  0.30344097663E+03  0.00000000000E+00 0.  1.
         24    2    1    2    0    0 -0.22462670783E+03 -0.16231232881E+03  0.14146666808E+04  0.14440478988E+04  0.84794259304E+02 0.  0.
        254    2    1    2    0    0  0.22462670783E+03  0.16231232881E+03  0.44286085252E+03  0.10203615878E+04  0.87647566145E+03 0.  0.
         23    2    4    4    0    0  0.30565314700E+03 -0.11683479313E+03  0.59076982945E+03  0.68155266192E+03  0.91819520958E+02 0.  0.
         23    2    4    4    0    0 -0.81026439161E+02  0.27914712194E+03 -0.14790897693E+03  0.33880892583E+03  0.91793372509E+02 0.  0.
          2    1    3    3  502    0 -0.18242017007E+03 -0.14003391781E+03  0.12941730143E+04  0.13144468067E+04  0.00000000000E+00 0. -1.
         -1    1    3    3    0  502 -0.42206537764E+02 -0.22278411009E+02  0.12049366644E+03  0.12960109213E+03  0.00000000000E+00 0.  1.
         11    1    5    5    0    0  0.74087528078E+01 -0.13043288251E+02  0.45291686739E+01  0.15669408267E+02  0.00000000000E+00 0. -1.
        -11    1    5    5    0    0  0.29824439419E+03 -0.10379150488E+03  0.58624066078E+03  0.66588325365E+03  0.00000000000E+00 0.  1.
          1    1    6    6  503    0  0.18114154651E+02  0.21516872954E+02 -0.20338500234E+02  0.34709552175E+02  0.00000000000E+00 0. -1.
         -1    1    6    6    0  503 -0.99140593812E+02  0.25763024899E+03 -0.12757047670E+03  0.30409937366E+03  0.00000000000E+00 0.  1.
<mgrwt>
<rscale>  0 0.16195387E+04</rscale>
<asrwt>0</asrwt>
<pdfrwt beam="1">  1        2 0.33245668E+00 0.16195387E+04</pdfrwt>
<pdfrwt beam="2">  1       -1 0.46683228E-01 0.16195387E+04</pdfrwt>
<totfact> 0.27092309E+01</totfact>
</mgrwt>
</event>
<event>
12    6  0.1538774E-007  0.2089679E+04  0.7818608E-02  0.8565804E-01
         -1   -1    0    0    0  501 -0.00000000000E+00  0.00000000000E+00  0.86285791576E+03  0.86285791576E+03  0.00000000000E+00 0.  1.
          2   -1    0    0  501    0  0.00000000000E+00 -0.00000000000E+00 -0.12652014467E+04  0.12652014467E+04  0.00000000000E+00 0. -1.
         24    2    1    2    0    0  0.81241460407E+03 -0.24326683886E+03 -0.33442762415E+03  0.91514208779E+03  0.80292971377E+02 0.  0.
        254    2    1    2    0    0 -0.81241460407E+03  0.24326683886E+03 -0.67915906840E+02  0.12129172747E+04  0.86449956687E+03 0.  0.
         23    2    4    4    0    0 -0.70710630504E+03 -0.63710025906E+02  0.24064956867E+03  0.75573717831E+03  0.95750580974E+02 0.  0.
         23    2    4    4    0    0 -0.10530829903E+03  0.30697686476E+03 -0.30856547551E+03  0.45718009640E+03  0.92067119689E+02 0.  0.
          2    1    3    3  502    0  0.63858869390E+03 -0.18887900843E+03 -0.29717733542E+03  0.72923601700E+03  0.00000000000E+00 0. -1.
         -1    1    3    3    0  502  0.17382591017E+03 -0.54387830430E+02 -0.37250288724E+02  0.18590607079E+03  0.00000000000E+00 0.  1.
         11    1    5    5    0    0 -0.64824744690E+03 -0.81202124653E+02  0.23408413746E+03  0.69398409266E+03  0.00000000000E+00 0. -1.
        -11    1    5    5    0    0 -0.58858858145E+02  0.17492098748E+02  0.65654312045E+01  0.61753085653E+02  0.00000000000E+00 0.  1.
          2    1    6    6  503    0 -0.43559921262E+02  0.11580628914E+03 -0.18085331822E+03  0.21912664387E+03  0.00000000000E+00 0.  1.
         -2    1    6    6    0  503 -0.61748377766E+02  0.19117057563E+03 -0.12771215729E+03  0.23805345253E+03  0.00000000000E+00 0. -1.
<mgrwt>
<rscale>  0 0.20896785E+04</rscale>
<asrwt>0</asrwt>
<pdfrwt beam="1">  1        2 0.19464637E+00 0.20896785E+04</pdfrwt>
<pdfrwt beam="2">  1       -1 0.13274737E+00 0.20896785E+04</pdfrwt>
<totfact> 0.87611155E+00</totfact>
</mgrwt>
</event>
<event>
12    6  0.1538774E-007  0.1460404E+04  0.7818608E-02  0.8911219E-01
          2   -1    0    0  501    0  0.00000000000E+00  0.00000000000E+00  0.22578385838E+04  0.22578385838E+04  0.00000000000E+00 0. -1.
         -1   -1    0    0    0  501 -0.00000000000E+00 -0.00000000000E+00 -0.23615297102E+03  0.23615297102E+03  0.00000000000E+00 0.  1.
         24    2    1    2    0    0  0.10801537301E+03 -0.18620562298E+03  0.12860153521E+04  0.13066301498E+04  0.84303069787E+02 0.  0.
        254    2    1    2    0    0 -0.10801537301E+03  0.18620562298E+03  0.73567026060E+03  0.11873614050E+04  0.90679463986E+03 0.  0.
         23    2    4    4    0    0 -0.38602119796E+02 -0.31607759410E+03  0.54602903680E+03  0.63851544523E+03  0.90327712394E+02 0.  0.
         23    2    4    4    0    0 -0.69413253215E+02  0.50228321707E+03  0.18964122381E+03  0.54884595976E+03  0.90340820807E+02 0.  0.
          2    1    3    3  502    0  0.97634228576E+02 -0.17352885256E+03  0.12616697547E+04  0.12772843361E+04  0.00000000000E+00 0. -1.
         -1    1    3    3    0  502  0.10381144435E+02 -0.12676770417E+02  0.24345597434E+02  0.29345813712E+02  0.00000000000E+00 0.  1.
         11    1    5    5    0    0  0.14415813456E+02 -0.19516571554E+03  0.36892885568E+03  0.41761941137E+03  0.00000000000E+00 0. -1.
        -11    1    5    5    0    0 -0.53017933252E+02 -0.12091187856E+03  0.17710018112E+03  0.22089603386E+03  0.00000000000E+00 0.  1.
          1    1    6    6  503    0 -0.84498470293E+02  0.43575685376E+03  0.14351013925E+03  0.46649671719E+03  0.00000000000E+00 0. -1.
         -1    1    6    6    0  503  0.15085217077E+02  0.66526363314E+02  0.46131084555E+02  0.82349242573E+02  0.00000000000E+00 0.  1.
<mgrwt>
<rscale>  0 0.14604045E+04</rscale>
<asrwt>0</asrwt>
<pdfrwt beam="1">  1        2 0.34735977E+00 0.14604045E+04</pdfrwt>
<pdfrwt beam="2">  1       -1 0.36331228E-01 0.14604045E+04</pdfrwt>
<totfact> 0.38417281E+01</totfact>
</mgrwt>
</event>
<event>
12    6  0.1538774E-007  0.1775068E+04  0.7818608E-02  0.8719671E-01
         -1   -1    0    0    0  501 -0.00000000000E+00  0.00000000000E+00  0.73862920793E+03  0.73862920793E+03  0.00000000000E+00 0.  1.
          2   -1    0    0  501    0  0.00000000000E+00 -0.00000000000E+00 -0.10664575581E+04  0.10664575581E+04  0.00000000000E+00 0. -1.
         24    2    1    2    0    0  0.42843125995E+01  0.60437184523E+03  0.13565161877E+03  0.62387871145E+03  0.74428504445E+02 0.  0.
        254    2    1    2    0    0 -0.42843125995E+01 -0.60437184523E+03 -0.46347996896E+03  0.11812080546E+04  0.90285940434E+03 0.  0.
         23    2    4    4    0    0 -0.14231699533E+03 -0.76982766610E+03 -0.16871418174E+03  0.80610219486E+03  0.91910341042E+02 0.  0.
         23    2    4    4    0    0  0.13803268273E+03  0.16545582086E+03 -0.29476578722E+03  0.37510585975E+03  0.85958632730E+02 0.  0.
          2    1    3    3  502    0 -0.87060652961E+01  0.14094799139E+03  0.62930616113E+02  0.15460399184E+03  0.00000000000E+00 0. -1.
         -1    1    3    3    0  502  0.12990377896E+02  0.46342385384E+03  0.72721002659E+02  0.46927471960E+03  0.00000000000E+00 0.  1.
         11    1    5    5    0    0  0.13341211079E+02 -0.60689762745E+02 -0.10046176815E+02  0.62945697897E+02  0.00000000000E+00 0. -1.
        -11    1    5    5    0    0 -0.15565820641E+03 -0.70913790335E+03 -0.15866800492E+03  0.74315649696E+03  0.00000000000E+00 0.  1.
          4    1    6    6  503    0  0.10326912764E+03  0.81838683369E+02 -0.11975263367E+03  0.17805273402E+03  0.00000000000E+00 0. -1.
         -4    1    6    6    0  503  0.34763555089E+02  0.83617137495E+02 -0.17501315355E+03  0.19705312573E+03  0.00000000000E+00 0.  1.
<mgrwt>
<rscale>  0 0.17750681E+04</rscale>
<asrwt>0</asrwt>
<pdfrwt beam="1">  1        2 0.16407039E+00 0.17750681E+04</pdfrwt>
<pdfrwt beam="2">  1       -1 0.11363526E+00 0.17750681E+04</pdfrwt>
<totfact> 0.17423542E+01</totfact>
</mgrwt>
</event>
<event>
12    6  0.1538774E-007  0.2712058E+04  0.7818608E-02  0.8331103E-01
         -1   -1    0    0    0  501 -0.00000000000E+00  0.00000000000E+00  0.76522848156E+03  0.76522848156E+03  0.00000000000E+00 0.  1.
          2   -1    0    0  501    0  0.00000000000E+00 -0.00000000000E+00 -0.24029621471E+04  0.24029621471E+04  0.00000000000E+00 0. -1.
         24    2    1    2    0    0 -0.44487615362E+03 -0.26535560740E+03 -0.20052706357E+04  0.20726740506E+04  0.80864127428E+02 0.  0.
        254    2    1    2    0    0  0.44487615362E+03  0.26535560740E+03  0.36753697017E+03  0.10955165781E+04  0.89260560045E+03 0.  0.
         23    2    4    4    0    0  0.39282430052E+03  0.54045676804E+03  0.73603656897E+02  0.67957432602E+03  0.99996585344E+02 0.  0.
         23    2    4    4    0    0  0.52051853098E+02 -0.27510116064E+03  0.29393331327E+03  0.41594225205E+03  0.90670394248E+02 0.  0.
          2    1    3    3  502    0 -0.30685188256E+03 -0.17834696696E+03 -0.15129285013E+04  0.15540007620E+04  0.00000000000E+00 0. -1.
         -1    1    3    3    0  502 -0.13802427106E+03 -0.87008640440E+02 -0.49234213446E+03  0.51867328857E+03  0.00000000000E+00 0.  1.
         11    1    5    5    0    0  0.23260127477E+03  0.23542618802E+03  0.31010689236E+02  0.33240112195E+03  0.00000000000E+00 0.  1.
        -11    1    5    5    0    0  0.16022302575E+03  0.30503058002E+03  0.42592967661E+02  0.34717320407E+03  0.00000000000E+00 0. -1.
          2    1    6    6  503    0  0.55715867409E+02 -0.88340336942E+02  0.13497759028E+03  0.17066699414E+03  0.00000000000E+00 0. -1.
         -2    1    6    6    0  503 -0.36640143112E+01 -0.18676082370E+03  0.15895572299E+03  0.24527525790E+03  0.00000000000E+00 0.  1.
<mgrwt>
<rscale>  0 0.27120583E+04</rscale>
<asrwt>0</asrwt>
<pdfrwt beam="1">  1        2 0.36968648E+00 0.27120583E+04</pdfrwt>
<pdfrwt beam="2">  1       -1 0.11772746E+00 0.27120583E+04</pdfrwt>
<totfact> 0.25593666E+00</totfact>
</mgrwt>
</event>
<event>
12    6  0.1538774E-007  0.2368453E+04  0.7818608E-02  0.8451410E-01
          2   -1    0    0  501    0  0.00000000000E+00  0.00000000000E+00  0.14126872725E+04  0.14126872725E+04  0.00000000000E+00 0. -1.
         -1   -1    0    0    0  501 -0.00000000000E+00 -0.00000000000E+00 -0.99271217311E+03  0.99271217311E+03  0.00000000000E+00 0.  1.
         24    2    1    2    0    0 -0.64821190292E+03  0.77562652383E+03  0.30402114237E+03  0.10584378243E+04  0.78016647864E+02 0.  0.
        254    2    1    2    0    0  0.64821190292E+03 -0.77562652383E+03  0.11595395705E+03  0.13469616213E+04  0.88265798226E+03 0.  0.
         23    2    4    4    0    0  0.79727456612E+03 -0.62045881233E+03  0.28985248244E+03  0.10554662923E+04  0.96844003065E+02 0.  0.
         23    2    4    4    0    0 -0.14906266320E+03 -0.15516771150E+03 -0.17389852540E+03  0.29149532909E+03  0.91826649145E+02 0.  0.
          4    1    3    3  502    0 -0.10306757714E+03  0.14875427444E+03  0.28591587016E+02  0.18321637064E+03  0.00000000000E+00 0. -1.
         -3    1    3    3    0  502 -0.54514432578E+03  0.62687224938E+03  0.27542955536E+03  0.87522145366E+03  0.00000000000E+00 0.  1.
         11    1    5    5    0    0  0.18929325043E+03 -0.18853324925E+03  0.10542023289E+03  0.28721097860E+03  0.00000000000E+00 0. -1.
        -11    1    5    5    0    0  0.60798131569E+03 -0.43192556308E+03  0.18443224955E+03  0.76825531365E+03  0.00000000000E+00 0.  1.
          3    1    6    6  503    0  0.54328329427E+01 -0.42185981737E+02 -0.30683004294E+02  0.52446348600E+02  0.00000000000E+00 0. -1.
         -3    1    6    6    0  503 -0.15449549614E+03 -0.11298172977E+03 -0.14321552110E+03  0.23904898049E+03  0.00000000000E+00 0.  1.
<mgrwt>
<rscale>  0 0.23684525E+04</rscale>
<asrwt>0</asrwt>
<pdfrwt beam="1">  1        2 0.21733650E+00 0.23684525E+04</pdfrwt>
<pdfrwt beam="2">  1       -1 0.15272495E+00 0.23684525E+04</pdfrwt>
<totfact> 0.48572075E+00</totfact>
</mgrwt>
</event>
<event>
12    6  0.1538774E-007  0.1109075E+04  0.7818608E-02  0.9196392E-01
         -1   -1    0    0    0  501 -0.00000000000E+00  0.00000000000E+00  0.30351669817E+03  0.30351669817E+03  0.00000000000E+00 0.  1.
          2   -1    0    0  501    0  0.00000000000E+00 -0.00000000000E+00 -0.10131619465E+04  0.10131619465E+04  0.00000000000E+00 0. -1.
         24    2    1    2    0    0 -0.33666796133E+02  0.11083134254E+03  0.36844832984E+02  0.14637187111E+03  0.81548410673E+02 0.  0.
        254    2    1    2    0    0  0.33666796133E+02 -0.11083134254E+03 -0.74649008130E+03  0.11703067735E+04  0.89384196762E+03 0.  0.
         23    2    4    4    0    0 -0.83287150189E+02  0.26193853446E+03  0.35223647773E+02  0.29165120285E+03  0.90945992453E+02 0.  0.
         23    2    4    4    0    0  0.11695394632E+03 -0.37276987699E+03 -0.78171372907E+03  0.87865557070E+03  0.91234044854E+02 0.  0.
          4    1    3    3  502    0  0.20457037976E+02  0.52911441514E+01  0.14629154831E+02  0.25700170822E+02  0.00000000000E+00 0. -1.
         -3    1    3    3    0  502 -0.54123834110E+02  0.10554019838E+03  0.22215678153E+02  0.12067170028E+03  0.00000000000E+00 0.  1.
         11    1    5    5    0    0  0.12421236006E+02  0.99230486514E+02  0.22155462368E+02  0.10242968842E+03  0.00000000000E+00 0.  1.
        -11    1    5    5    0    0 -0.95708386195E+02  0.16270804794E+03  0.13068185405E+02  0.18922151443E+03  0.00000000000E+00 0. -1.
          1    1    6    6  503    0  0.88000205595E+02 -0.13450081961E+03 -0.33395828435E+03  0.37062466506E+03  0.00000000000E+00 0. -1.
         -1    1    6    6    0  503  0.28953740728E+02 -0.23826905738E+03 -0.44775544472E+03  0.50803090564E+03  0.00000000000E+00 0.  1.
<mgrwt>
<rscale>  0 0.11090745E+04</rscale>
<asrwt>0</asrwt>
<pdfrwt beam="1">  1        2 0.15587107E+00 0.11090745E+04</pdfrwt>
<pdfrwt beam="2">  1       -1 0.46694876E-01 0.11090745E+04</pdfrwt>
<totfact> 0.12767881E+02</totfact>
</mgrwt>
</event>
<event>
12    6  0.1538774E-007  0.1229187E+04  0.7818608E-02  0.9087686E-01
         -1   -1    0    0    0  501 -0.00000000000E+00  0.00000000000E+00  0.31181569137E+03  0.31181569137E+03  0.00000000000E+00 0.  1.
          2   -1    0    0  501    0  0.00000000000E+00 -0.00000000000E+00 -0.12113738610E+04  0.12113738610E+04  0.00000000000E+00 0. -1.
         24    2    1    2    0    0 -0.15317669096E+03 -0.20989324162E+03 -0.93846293488E+02  0.28762175293E+03  0.80005464964E+02 0.  0.
        254    2    1    2    0    0  0.15317669096E+03  0.20989324162E+03 -0.80571187613E+03  0.12355677994E+04  0.89996549274E+03 0.  0.
         23    2    4    4    0    0  0.52703057605E+02  0.54809477067E+03 -0.59067937609E+03  0.81235829760E+03  0.88534673593E+02 0.  0.
         23    2    4    4    0    0  0.10047363335E+03 -0.33820152905E+03 -0.21503250004E+03  0.42320950183E+03  0.91608302624E+02 0.  0.
          2    1    3    3  502    0 -0.84380659249E+02 -0.92102425039E+02 -0.84670146998E+02  0.15090389705E+03  0.00000000000E+00 0. -1.
         -1    1    3    3    0  502 -0.68796031708E+02 -0.11779081658E+03 -0.91761464894E+01  0.13671785587E+03  0.00000000000E+00 0.  1.
         11    1    5    5    0    0  0.66497130000E+02  0.24441653671E+03 -0.28388869103E+03  0.38046563657E+03  0.00000000000E+00 0. -1.
        -11    1    5    5    0    0 -0.13794072395E+02  0.30367823396E+03 -0.30679068506E+03  0.43189266103E+03  0.00000000000E+00 0.  1.
          2    1    6    6  503    0  0.91783182278E+01 -0.68264660913E+02 -0.47102711542E+01  0.69039786423E+02  0.00000000000E+00 0. -1.
         -2    1    6    6    0  503  0.91295315123E+02 -0.26993686814E+03 -0.21032222889E+03  0.35416971540E+03  0.00000000000E+00 0.  1.
<mgrwt>
<rscale>  0 0.12291873E+04</rscale>
<asrwt>0</asrwt>
<pdfrwt beam="1">  1        2 0.18636521E+00 0.12291873E+04</pdfrwt>
<pdfrwt beam="2">  1       -1 0.47971645E-01 0.12291873E+04</pdfrwt>
<totfact> 0.90878569E+01</totfact>
</mgrwt>
</event>
<event>
12    6  0.1538774E-007  0.1428074E+04  0.7818608E-02  0.8933744E-01
          2   -1    0    0  501    0  0.00000000000E+00  0.00000000000E+00  0.27398246058E+04  0.27398246058E+04  0.00000000000E+00 0. -1.
         -1   -1    0    0    0  501 -0.00000000000E+00 -0.00000000000E+00 -0.18608819783E+03  0.18608819783E+03  0.00000000000E+00 0.  1.
         24    2    1    2    0    0  0.66186929436E+01 -0.22321918616E+02  0.16427125846E+04  0.16448051601E+04  0.79607185420E+02 0.  0.
        254    2    1    2    0    0 -0.66186929436E+01  0.22321918616E+02  0.91102382339E+03  0.12811076435E+04  0.90040563769E+03 0.  0.
         23    2    4    4    0    0  0.14627220946E+03  0.97361075954E+02  0.10334989490E+04  0.10518402015E+04  0.85866136562E+02 0.  0.
         23    2    4    4    0    0 -0.15289090240E+03 -0.75039157338E+02 -0.12247512564E+03  0.22926744207E+03  0.92503515720E+02 0.  0.
          2    1    3    3  502    0 -0.26950021671E+02 -0.35047326891E+02  0.11128172317E+04  0.11136951154E+04  0.00000000000E+00 0. -1.
         -1    1    3    3    0  502  0.33568714615E+02  0.12725408275E+02  0.52989535289E+03  0.53111004474E+03  0.00000000000E+00 0.  1.
         11    1    5    5    0    0  0.32953147804E+02  0.72179038659E+02  0.43938274728E+03  0.44648955439E+03  0.00000000000E+00 0. -1.
        -11    1    5    5    0    0  0.11331906165E+03  0.25182037295E+02  0.59411620175E+03  0.60535064708E+03  0.00000000000E+00 0.  1.
          2    1    6    6  503    0 -0.12749697227E+03 -0.92520996074E+02 -0.12057687495E+03  0.19837942289E+03  0.00000000000E+00 0. -1.
         -2    1    6    6    0  503 -0.25393930129E+02  0.17481838736E+02 -0.18982506867E+01  0.30888019176E+02  0.00000000000E+00 0.  1.
<mgrwt>
<rscale>  0 0.14280743E+04</rscale>
<asrwt>0</asrwt>
<pdfrwt beam="1">  1        2 0.42151145E+00 0.14280743E+04</pdfrwt>
<pdfrwt beam="2">  1       -1 0.28628956E-01 0.14280743E+04</pdfrwt>
<totfact> 0.30972279E+01</totfact>
</mgrwt>
</event>
<event>
12    6  0.1538774E-007  0.1368303E+04  0.7818608E-02  0.8977088E-01
         -1   -1    0    0    0  501 -0.00000000000E+00  0.00000000000E+00  0.69869101907E+03  0.69869101907E+03  0.00000000000E+00 0.  1.
          2   -1    0    0  501    0  0.00000000000E+00 -0.00000000000E+00 -0.66991438933E+03  0.66991438933E+03  0.00000000000E+00 0. -1.
         24    2    1    2    0    0  0.93479326712E+02 -0.35476065589E+03 -0.11371345898E+03  0.39199797835E+03  0.78346389770E+02 0.  0.
        254    2    1    2    0    0 -0.93479326712E+02  0.35476065589E+03  0.14249008871E+03  0.97660743005E+03  0.89379255958E+03 0.  0.
         23    2    4    4    0    0  0.32192390491E+03  0.33717541460E+03 -0.10211625833E+03  0.48621608628E+03  0.93038118948E+02 0.  0.
         23    2    4    4    0    0 -0.41540323163E+03  0.17585241284E+02  0.24460634704E+03  0.49039134377E+03  0.88217455620E+02 0.  0.
          2    1    3    3  502    0  0.86217070658E+02 -0.26660320588E+03 -0.11661144070E+03  0.30349444931E+03  0.00000000000E+00 0. -1.
         -1    1    3    3    0  502  0.72622560548E+01 -0.88157450004E+02  0.28979817264E+01  0.88503529038E+02  0.00000000000E+00 0.  1.
         11    1    5    5    0    0  0.30089841340E+01  0.46751525620E+01 -0.16756856923E+02  0.17655120813E+02  0.00000000000E+00 0. -1.
        -11    1    5    5    0    0  0.31891492078E+03  0.33250026204E+03 -0.85359401405E+02  0.46856096547E+03  0.00000000000E+00 0.  1.
          1    1    6    6  503    0 -0.77941803460E+02  0.24442640154E+02  0.81968671477E+02  0.11572048431E+03  0.00000000000E+00 0. -1.
         -1    1    6    6    0  503 -0.33746142817E+03 -0.68573988700E+01  0.16263767556E+03  0.37467085946E+03  0.00000000000E+00 0.  1.
<mgrwt>
<rscale>  0 0.13683028E+04</rscale>
<asrwt>0</asrwt>
<pdfrwt beam="1">  1        2 0.10306375E+00 0.13683028E+04</pdfrwt>
<pdfrwt beam="2">  1       -1 0.10749093E+00 0.13683028E+04</pdfrwt>
<totfact> 0.38908216E+01</totfact>
</mgrwt>
</event>
<event>
12    6  0.1538774E-007  0.1250061E+04  0.7818608E-02  0.9070133E-01
          2   -1    0    0  501    0  0.00000000000E+00  0.00000000000E+00  0.24000331411E+04  0.24000331411E+04  0.00000000000E+00 0. -1.
         -1   -1    0    0    0  501 -0.00000000000E+00 -0.00000000000E+00 -0.16277400619E+03  0.16277400619E+03  0.00000000000E+00 0.  1.
         24    2    1    2    0    0  0.26352353355E+02 -0.24934825830E+03  0.23512639128E+03  0.35234444390E+03  0.77415675567E+02 0.  0.
        254    2    1    2    0    0 -0.26352353355E+02  0.24934825830E+03  0.20021327436E+04  0.22104627034E+04  0.90262995716E+03 0.  0.
         23    2    4    4    0    0 -0.37748878825E+03  0.25132832595E+03  0.57063741399E+03  0.73375374211E+03  0.84283943532E+02 0.  0.
         23    2    4    4    0    0  0.35113643489E+03 -0.19800676468E+01  0.14314953296E+04  0.14767089613E+04  0.90497298279E+02 0.  0.
          4    1    3    3  502    0 -0.51042705155E+01 -0.17160186391E+03  0.19360875335E+03  0.25876167152E+03  0.00000000000E+00 0. -1.
         -3    1    3    3    0  502  0.31456623871E+02 -0.77746394393E+02  0.41517637933E+02  0.93582772378E+02  0.00000000000E+00 0.  1.
         11    1    5    5    0    0 -0.25458991753E+03  0.17487210848E+03  0.32290763009E+03  0.44683958867E+03  0.00000000000E+00 0.  1.
        -11    1    5    5    0    0 -0.12289887072E+03  0.76456217467E+02  0.24772978390E+03  0.28691415344E+03  0.00000000000E+00 0. -1.
          4    1    6    6  503    0  0.32340646114E+03 -0.95924938560E+01  0.11792709059E+04  0.12228506141E+04  0.00000000000E+00 0. -1.
         -4    1    6    6    0  503  0.27729973752E+02  0.76124262092E+01  0.25222442375E+03  0.25385834714E+03  0.00000000000E+00 0.  1.
<mgrwt>
<rscale>  0 0.12500608E+04</rscale>
<asrwt>0</asrwt>
<pdfrwt beam="1">  1        2 0.36923584E+00 0.12500608E+04</pdfrwt>
<pdfrwt beam="2">  1       -1 0.25042157E-01 0.12500608E+04</pdfrwt>
<totfact> 0.62469228E+01</totfact>
</mgrwt>
</event>
<event>
12    6  0.1538774E-007  0.2399067E+04  0.7818608E-02  0.8439853E-01
         -1   -1    0    0    0  501 -0.00000000000E+00  0.00000000000E+00  0.18608548121E+04  0.18608548121E+04  0.00000000000E+00 0.  1.
          2   -1    0    0  501    0  0.00000000000E+00 -0.00000000000E+00 -0.77323629048E+03  0.77323629048E+03  0.00000000000E+00 0. -1.
         24    2    1    2    0    0 -0.25112788146E+03  0.63181744079E+03 -0.37978218665E+03  0.78289509709E+03  0.80198082324E+02 0.  0.
        254    2    1    2    0    0  0.25112788146E+03 -0.63181744079E+03  0.14674007083E+04  0.18511960055E+04  0.90077928529E+03 0.  0.
         23    2    4    4    0    0  0.27224219597E+03 -0.53187154708E+03  0.29927624041E+03  0.67456323719E+03  0.92011613606E+02 0.  0.
         23    2    4    4    0    0 -0.21114314508E+02 -0.99945893712E+02  0.11681244679E+04  0.11766327683E+04  0.97544364710E+02 0.  0.
          4    1    3    3  502    0 -0.10922582482E+03  0.37384320891E+03 -0.23388235638E+03  0.45430164239E+03  0.00000000000E+00 0. -1.
         -3    1    3    3    0  502 -0.14190205664E+03  0.25797423188E+03 -0.14589983027E+03  0.32859345469E+03  0.00000000000E+00 0.  1.
         11    1    5    5    0    0  0.21588379346E+03 -0.33202108295E+03  0.17911042938E+03  0.43465429678E+03  0.00000000000E+00 0.  1.
        -11    1    5    5    0    0  0.56358402511E+02 -0.19985046413E+03  0.12016581103E+03  0.23990894041E+03  0.00000000000E+00 0. -1.
          3    1    6    6  503    0 -0.22833575344E+02 -0.89170880454E+02  0.49896585715E+03  0.50738520345E+03  0.00000000000E+00 0. -1.
         -3    1    6    6    0  503  0.17192608361E+01 -0.10775013258E+02  0.66915861073E+03  0.66924756487E+03  0.00000000000E+00 0.  1.
<mgrwt>
<rscale>  0 0.23990669E+04</rscale>
<asrwt>0</asrwt>
<pdfrwt beam="1">  1        2 0.11895943E+00 0.23990669E+04</pdfrwt>
<pdfrwt beam="2">  1       -1 0.28628536E+00 0.23990669E+04</pdfrwt>
<totfact> 0.14982076E+00</totfact>
</mgrwt>
</event>
<event>
12    6  0.1538774E-007  0.1456040E+04  0.7818608E-02  0.8914224E-01
          2   -1    0    0  501    0  0.00000000000E+00  0.00000000000E+00  0.53223472389E+04  0.53223472389E+04  0.00000000000E+00 0. -1.
         -1   -1    0    0    0  501 -0.00000000000E+00 -0.00000000000E+00 -0.99582639474E+02  0.99582639474E+02  0.00000000000E+00 0.  1.
         24    2    1    2    0    0 -0.40527202877E+03  0.66647620627E+02  0.10171439485E+04  0.10999341257E+04  0.81153844072E+02 0.  0.
        254    2    1    2    0    0  0.40527202877E+03 -0.66647620627E+02  0.42056206510E+04  0.43219957527E+04  0.90758740817E+03 0.  0.
         23    2    4    4    0    0  0.61958992690E+01 -0.29164274547E+03  0.31841305862E+04  0.31986037624E+04  0.85349629297E+02 0.  0.
         23    2    4    4    0    0  0.39907612950E+03  0.22499512484E+03  0.10214900648E+04  0.11233919902E+04  0.93182873098E+02 0.  0.
          2    1    3    3  502    0 -0.30557333458E+03  0.66093617718E+02  0.84528694018E+03  0.90125104180E+03  0.00000000000E+00 0. -1.
         -1    1    3    3    0  502 -0.99698694192E+02  0.55400290855E+00  0.17185700828E+03  0.19868308393E+03  0.00000000000E+00 0.  1.
         11    1    5    5    0    0  0.19087035211E+02 -0.17622719029E+03  0.14920091106E+04  0.15025017550E+04  0.00000000000E+00 0. -1.
        -11    1    5    5    0    0 -0.12891135942E+02 -0.11541555517E+03  0.16921214755E+04  0.16961020074E+04  0.00000000000E+00 0.  1.
          3    1    6    6  503    0  0.76094893928E+02  0.45247620683E+02  0.29911458632E+03  0.31194120569E+03  0.00000000000E+00 0. -1.
         -3    1    6    6    0  503  0.32298123557E+03  0.17974750416E+03  0.72237547851E+03  0.81145078454E+03  0.00000000000E+00 0.  1.
<mgrwt>
<rscale>  0 0.14560404E+04</rscale>
<asrwt>0</asrwt>
<pdfrwt beam="1">  1        2 0.81882243E+00 0.14560404E+04</pdfrwt>
<pdfrwt beam="2">  1       -1 0.15320410E-01 0.14560404E+04</pdfrwt>
<totfact> 0.45280058E-01</totfact>
</mgrwt>
</event>
<event>
12    6  0.1538774E-007  0.2493987E+04  0.7818608E-02  0.8405131E-01
         -1   -1    0    0    0  501 -0.00000000000E+00  0.00000000000E+00  0.20488809448E+04  0.20488809448E+04  0.00000000000E+00 0.  1.
          2   -1    0    0  501    0  0.00000000000E+00 -0.00000000000E+00 -0.75894740894E+03  0.75894740894E+03  0.00000000000E+00 0. -1.
         24    2    1    2    0    0 -0.16166706534E+02  0.93542529817E+03 -0.56052704331E+02  0.94037863548E+03  0.76734747897E+02 0.  0.
        254    2    1    2    0    0  0.16166706534E+02 -0.93542529817E+03  0.13459862402E+04  0.18674497183E+04  0.89465503999E+03 0.  0.
         23    2    4    4    0    0 -0.23242263271E+03 -0.37879255102E+02  0.65803063564E+03  0.70611008244E+03  0.10065790043E+03 0.  0.
         23    2    4    4    0    0  0.24858933924E+03 -0.89754604307E+03  0.68795560457E+03  0.11613396358E+04  0.89673167021E+02 0.  0.
          4    1    3    3  502    0 -0.16032997492E+02  0.93655131666E+03 -0.54261760280E+02  0.93825890051E+03  0.00000000000E+00 0. -1.
         -3    1    3    3    0  502 -0.13370904187E+00 -0.11260184894E+01 -0.17909440515E+01  0.21197349698E+01  0.00000000000E+00 0.  1.
         11    1    5    5    0    0 -0.17153741928E+03 -0.30211864964E+02  0.33789414890E+03  0.38014510238E+03  0.00000000000E+00 0.  1.
        -11    1    5    5    0    0 -0.60885213421E+02 -0.76673901381E+01  0.32013648674E+03  0.32596498006E+03  0.00000000000E+00 0. -1.
          4    1    6    6  503    0  0.14193916063E+03 -0.40555107984E+03  0.35963365262E+03  0.56031666741E+03  0.00000000000E+00 0.  1.
         -4    1    6    6    0  503  0.10665017861E+03 -0.49199496323E+03  0.32832195196E+03  0.60102296843E+03  0.00000000000E+00 0. -1.
<mgrwt>
<rscale>  0 0.24939871E+04</rscale>
<asrwt>0</asrwt>
<pdfrwt beam="1">  1        2 0.11676114E+00 0.24939871E+04</pdfrwt>
<pdfrwt beam="2">  1       -1 0.31521245E+00 0.24939871E+04</pdfrwt>
<totfact> 0.98859660E-01</totfact>
</mgrwt>
</event>
<event>
12    6  0.1538774E-007  0.1727198E+04  0.7818608E-02  0.8746003E-01
          2   -1    0    0  501    0  0.00000000000E+00  0.00000000000E+00  0.21491446992E+04  0.21491446992E+04  0.00000000000E+00 0. -1.
         -1   -1    0    0    0  501 -0.00000000000E+00 -0.00000000000E+00 -0.34702319896E+03  0.34702319896E+03  0.00000000000E+00 0.  1.
         24    2    1    2    0    0 -0.22930298652E+03  0.72315996794E+02 -0.18113914543E+03  0.31020950742E+03  0.74893827988E+02 0.  0.
        254    2    1    2    0    0  0.22930298652E+03 -0.72315996794E+02  0.19832606456E+04  0.21859583907E+04  0.88728903652E+03 0.  0.
         23    2    4    4    0    0  0.53921293899E+03  0.65502031784E+02  0.14095745784E+04  0.15134730914E+04  0.93054803696E+02 0.  0.
         23    2    4    4    0    0 -0.30990995248E+03 -0.13781802858E+03  0.57368606724E+03  0.67248529934E+03  0.89904318202E+02 0.  0.
          2    1    3    3  502    0 -0.39486404666E+02  0.59260239675E+00 -0.65975935935E+02  0.76891816558E+02  0.00000000000E+00 0. -1.
         -1    1    3    3    0  502 -0.18981658185E+03  0.71723394398E+02 -0.11516320949E+03  0.23331769086E+03  0.00000000000E+00 0.  1.
         11    1    5    5    0    0  0.25717538235E+02  0.11661536689E+02  0.14198574504E+03  0.14476648440E+03  0.00000000000E+00 0. -1.
        -11    1    5    5    0    0  0.51349540076E+03  0.53840495095E+02  0.12675888334E+04  0.13687066070E+04  0.00000000000E+00 0.  1.
          4    1    6    6  503    0 -0.20694083849E+03 -0.13155317485E+03  0.36542838220E+03  0.44007800555E+03  0.00000000000E+00 0. -1.
         -4    1    6    6    0  503 -0.10296911398E+03 -0.62648537234E+01  0.20825768504E+03  0.23240729379E+03  0.00000000000E+00 0.  1.
<mgrwt>
<rscale>  0 0.17271978E+04</rscale>
<asrwt>0</asrwt>
<pdfrwt beam="1">  1        2 0.33063764E+00 0.17271978E+04</pdfrwt>
<pdfrwt beam="2">  1       -1 0.53388186E-01 0.17271978E+04</pdfrwt>
<totfact> 0.21114290E+01</totfact>
</mgrwt>
</event>
<event>
12    6  0.1538774E-007  0.1787479E+04  0.7818608E-02  0.8712986E-01
         -1   -1    0    0    0  501 -0.00000000000E+00  0.00000000000E+00  0.51603127311E+03  0.51603127311E+03  0.00000000000E+00 0.  1.
          2   -1    0    0  501    0  0.00000000000E+00 -0.00000000000E+00 -0.15479113942E+04  0.15479113942E+04  0.00000000000E+00 0. -1.
         24    2    1    2    0    0 -0.25526337745E+03 -0.60678066514E+03 -0.33844673987E+03  0.74461805981E+03  0.81041296986E+02 0.  0.
        254    2    1    2    0    0  0.25526337745E+03  0.60678066514E+03 -0.69343338125E+03  0.13193246075E+04  0.90907942356E+03 0.  0.
         23    2    4    4    0    0  0.27192465447E+03  0.68872371077E+03 -0.14876218456E+03  0.76077092064E+03  0.91426684561E+02 0.  0.
         23    2    4    4    0    0 -0.16661277021E+02 -0.81943045633E+02 -0.54467119668E+03  0.55855368688E+03  0.91231835197E+02 0.  0.
          4    1    3    3  502    0 -0.22346934856E+03 -0.56092466030E+03 -0.33026241703E+03  0.68822110428E+03  0.00000000000E+00 0. -1.
         -3    1    3    3    0  502 -0.31794028880E+02 -0.45856004841E+02 -0.81843228383E+01  0.56396955527E+02  0.00000000000E+00 0.  1.
         11    1    5    5    0    0  0.24783706222E+03  0.58255236016E+03 -0.15481012637E+03  0.65173356287E+03  0.00000000000E+00 0. -1.
        -11    1    5    5    0    0  0.24087592250E+02  0.10617135061E+03  0.60479418027E+01  0.10903735778E+03  0.00000000000E+00 0.  1.
          2    1    6    6  503    0 -0.22827677383E+02 -0.76208714365E+02 -0.54434411934E+03  0.55012670474E+03  0.00000000000E+00 0. -1.
         -2    1    6    6    0  503  0.61664003612E+01 -0.57343312681E+01 -0.32707734019E+00  0.84269821463E+01  0.00000000000E+00 0.  1.
<mgrwt>
<rscale>  0 0.17874794E+04</rscale>
<asrwt>0</asrwt>
<pdfrwt beam="1">  1        2 0.23814022E+00 0.17874794E+04</pdfrwt>
<pdfrwt beam="2">  1       -1 0.79389426E-01 0.17874794E+04</pdfrwt>
<totfact> 0.20363858E+01</totfact>
</mgrwt>
</event>
<event>
12    6  0.1538774E-007  0.1754690E+04  0.7818608E-02  0.8730773E-01
         -1   -1    0    0    0  501 -0.00000000000E+00  0.00000000000E+00  0.35237282393E+03  0.35237282393E+03  0.00000000000E+00 0.  1.
          2   -1    0    0  501    0  0.00000000000E+00 -0.00000000000E+00 -0.21844320968E+04  0.21844320968E+04  0.00000000000E+00 0. -1.
         24    2    1    2    0    0  0.45987984853E+03 -0.14914312806E+03 -0.44467425379E+02  0.49151844723E+03  0.76680403761E+02 0.  0.
        254    2    1    2    0    0 -0.45987984853E+03  0.14914312806E+03 -0.17875918475E+04  0.20452864735E+04  0.86831964027E+03 0.  0.
         23    2    4    4    0    0 -0.73033897352E+02 -0.13136483548E+02  0.71914894133E+02  0.13688647640E+03  0.89775486972E+02 0.  0.
         23    2    4    4    0    0 -0.38684595118E+03  0.16227961161E+03 -0.18595067416E+04  0.19083999971E+04  0.90778656348E+02 0.  0.
          2    1    3    3  502    0  0.25150572611E+02  0.11430962795E+01  0.12361997860E+02  0.28047762172E+02  0.00000000000E+00 0. -1.
         -1    1    3    3    0  502  0.43472927592E+03 -0.15028622434E+03 -0.56829423239E+02  0.46347068506E+03  0.00000000000E+00 0.  1.
         11    1    5    5    0    0 -0.89364970065E+02 -0.13931083452E+02  0.78007720671E+02  0.11943775553E+03  0.00000000000E+00 0. -1.
        -11    1    5    5    0    0  0.16331072713E+02  0.79459990373E+00 -0.60928265378E+01  0.17448720875E+02  0.00000000000E+00 0.  1.
          1    1    6    6  503    0 -0.27835150081E+03  0.14141250616E+03 -0.15063288481E+04  0.15383444521E+04  0.00000000000E+00 0. -1.
         -1    1    6    6    0  503 -0.10849445036E+03  0.20867105449E+02 -0.35317789353E+03  0.37005554492E+03  0.00000000000E+00 0.  1.
<mgrwt>
<rscale>  0 0.17546903E+04</rscale>
<asrwt>0</asrwt>
<pdfrwt beam="1">  1        2 0.33606647E+00 0.17546903E+04</pdfrwt>
<pdfrwt beam="2">  1       -1 0.54211205E-01 0.17546903E+04</pdfrwt>
<totfact> 0.19541332E+01</totfact>
</mgrwt>
</event>
<event>
12    6  0.1538774E-007  0.1250195E+04  0.7818608E-02  0.9070021E-01
         -1   -1    0    0    0  501 -0.00000000000E+00  0.00000000000E+00  0.19777466286E+03  0.19777466286E+03  0.00000000000E+00 0.  1.
          2   -1    0    0  501    0  0.00000000000E+00 -0.00000000000E+00 -0.19757181561E+04  0.19757181561E+04  0.00000000000E+00 0. -1.
         24    2    1    2    0    0  0.10410289211E+03  0.29329237782E+03 -0.48828082697E+03  0.58459448039E+03  0.80465579491E+02 0.  0.
        254    2    1    2    0    0 -0.10410289211E+03 -0.29329237782E+03 -0.12896626663E+04  0.15888983386E+04  0.87436280028E+03 0.  0.
         23    2    4    4    0    0  0.36493901937E+03 -0.23001365956E+03 -0.69630156699E+03  0.82427135545E+03  0.92198827366E+02 0.  0.
         23    2    4    4    0    0 -0.46904191148E+03 -0.63278718261E+02 -0.59336109930E+03  0.76462698314E+03  0.92587894860E+02 0.  0.
          2    1    3    3  502    0  0.37668220132E+02  0.12676599500E+03 -0.13823277256E+03  0.19130293178E+03  0.00000000000E+00 0. -1.
         -1    1    3    3    0  502  0.66434671977E+02  0.16652638282E+03 -0.35004805440E+03  0.39329154861E+03  0.00000000000E+00 0.  1.
         11    1    5    5    0    0  0.11411766328E+03 -0.26530709304E+02 -0.21033737462E+03  0.24076654828E+03  0.00000000000E+00 0. -1.
        -11    1    5    5    0    0  0.25082135609E+03 -0.20348295026E+03 -0.48596419237E+03  0.58350480716E+03  0.00000000000E+00 0.  1.
          4    1    6    6  503    0 -0.31311424625E+03 -0.84986126713E+02 -0.38495430463E+03  0.50344114809E+03  0.00000000000E+00 0. -1.
         -4    1    6    6    0  503 -0.15592766524E+03  0.21707408452E+02 -0.20840679467E+03  0.26118583505E+03  0.00000000000E+00 0.  1.
<mgrwt>
<rscale>  0 0.12501952E+04</rscale>
<asrwt>0</asrwt>
<pdfrwt beam="1">  1        2 0.30395662E+00 0.12501952E+04</pdfrwt>
<pdfrwt beam="2">  1       -1 0.30426873E-01 0.12501952E+04</pdfrwt>
<totfact> 0.76929599E+01</totfact>
</mgrwt>
</event>
<event>
12    6  0.1538774E-007  0.2330854E+04  0.7818608E-02  0.8465854E-01
          2   -1    0    0  501    0  0.00000000000E+00  0.00000000000E+00  0.11626393915E+04  0.11626393915E+04  0.00000000000E+00 0. -1.
         -1   -1    0    0    0  501 -0.00000000000E+00 -0.00000000000E+00 -0.11682214687E+04  0.11682214687E+04  0.00000000000E+00 0.  1.
         24    2    1    2    0    0  0.16836537937E+03 -0.50112024388E+03 -0.85173999205E+03  0.10056456786E+04  0.79961347603E+02 0.  0.
        254    2    1    2    0    0 -0.16836537937E+03  0.50112024388E+03  0.84615791484E+03  0.13252151815E+04  0.87220620306E+03 0.  0.
         23    2    4    4    0    0  0.68341939415E+02  0.68573892088E+03  0.67097480535E+03  0.96604275898E+03  0.90127323666E+02 0.  0.
         23    2    4    4    0    0 -0.23670731878E+03 -0.18461867700E+03  0.17518310949E+03  0.35917242253E+03  0.90561010320E+02 0.  0.
          4    1    3    3  502    0  0.11454416565E+01 -0.90591521518E+02 -0.16580847473E+03  0.18894598726E+03  0.00000000000E+00 0. -1.
         -3    1    3    3    0  502  0.16721993771E+03 -0.41052872236E+03 -0.68593151732E+03  0.81669969138E+03  0.00000000000E+00 0.  1.
         11    1    5    5    0    0  0.53045768319E+01  0.25954955845E+03  0.19975596674E+03  0.32756153327E+03  0.00000000000E+00 0.  1.
        -11    1    5    5    0    0  0.63037362583E+02  0.42618936243E+03  0.47121883861E+03  0.63848122571E+03  0.00000000000E+00 0. -1.
          2    1    6    6  503    0 -0.21733616555E+03 -0.15209447100E+03  0.11738599935E+03  0.29008138480E+03  0.00000000000E+00 0. -1.
         -2    1    6    6    0  503 -0.19371153236E+02 -0.32524206007E+02  0.57797110144E+02  0.69091037734E+02  0.00000000000E+00 0.  1.
<mgrwt>
<rscale>  0 0.23308542E+04</rscale>
<asrwt>0</asrwt>
<pdfrwt beam="1">  1        2 0.17886760E+00 0.23308542E+04</pdfrwt>
<pdfrwt beam="2">  1       -1 0.17972638E+00 0.23308542E+04</pdfrwt>
<totfact> 0.42989986E+00</totfact>
</mgrwt>
</event>
<event>
12    6  0.1538774E-007  0.1173904E+04  0.7818608E-02  0.9136010E-01
         -1   -1    0    0    0  501 -0.00000000000E+00  0.00000000000E+00  0.27902473534E+03  0.27902473534E+03  0.00000000000E+00 0.  1.
          2   -1    0    0  501    0  0.00000000000E+00 -0.00000000000E+00 -0.12347021386E+04  0.12347021386E+04  0.00000000000E+00 0. -1.
         24    2    1    2    0    0  0.51577307955E+02  0.83959685951E+02  0.67790923063E+02  0.14374537590E+03  0.79735037989E+02 0.  0.
        254    2    1    2    0    0 -0.51577307955E+02 -0.83959685951E+02 -0.10234683263E+04  0.13699814981E+04  0.90534658691E+03 0.  0.
         23    2    4    4    0    0 -0.23132471207E+03  0.22926361313E+03 -0.92448339098E+03  0.98434761763E+03  0.90541512090E+02 0.  0.
         23    2    4    4    0    0  0.17974740411E+03 -0.31322329908E+03 -0.98984935367E+02  0.38563388043E+03  0.92181928468E+02 0.  0.
          4    1    3    3  502    0 -0.12839707216E+02  0.22519263484E+02 -0.76831632371E+01  0.27037128298E+02  0.00000000000E+00 0. -1.
         -3    1    3    3    0  502  0.64417015171E+02  0.61440422468E+02  0.75474086300E+02  0.11670824761E+03  0.00000000000E+00 0.  1.
         11    1    5    5    0    0 -0.28904759475E+02  0.66607724183E+01 -0.16115963490E+03  0.16386664984E+03  0.00000000000E+00 0. -1.
        -11    1    5    5    0    0 -0.20241995259E+03  0.22260284071E+03 -0.76332375608E+03  0.82048096778E+03  0.00000000000E+00 0.  1.
          4    1    6    6  503    0  0.83171971673E+02 -0.75505853477E+02 -0.52271094276E+01  0.11245458396E+03  0.00000000000E+00 0. -1.
         -4    1    6    6    0  503  0.96575432439E+02 -0.23771744560E+03 -0.93757825939E+02  0.27317929647E+03  0.00000000000E+00 0.  1.
<mgrwt>
<rscale>  0 0.11739036E+04</rscale>
<asrwt>0</asrwt>
<pdfrwt beam="1">  1        2 0.18995417E+00 0.11739036E+04</pdfrwt>
<pdfrwt beam="2">  1       -1 0.42926883E-01 0.11739036E+04</pdfrwt>
<totfact> 0.10874026E+02</totfact>
</mgrwt>
</event>
<event>
12    6  0.1538774E-007  0.2185058E+04  0.7818608E-02  0.8524673E-01
          2   -1    0    0  501    0  0.00000000000E+00  0.00000000000E+00  0.35193983737E+04  0.35193983737E+04  0.00000000000E+00 0. -1.
         -1   -1    0    0    0  501 -0.00000000000E+00 -0.00000000000E+00 -0.33915453077E+03  0.33915453077E+03  0.00000000000E+00 0.  1.
         24    2    1    2    0    0  0.48508087891E+03 -0.48335565571E+03  0.27435053567E+03  0.74197139807E+03  0.79480753249E+02 0.  0.
        254    2    1    2    0    0 -0.48508087891E+03  0.48335565571E+03  0.29058933072E+04  0.31165815064E+04  0.89438706602E+03 0.  0.
         23    2    4    4    0    0  0.13666255681E+03  0.46030651517E+03  0.10792462638E+04  0.11847273837E+04  0.90817032382E+02 0.  0.
         23    2    4    4    0    0 -0.62174343572E+03  0.23049140549E+02  0.18266470434E+04  0.19318541227E+04  0.91240163098E+02 0.  0.
          4    1    3    3  502    0  0.45615409791E+02 -0.54839840810E+02  0.45158888349E+01  0.71474240132E+02  0.00000000000E+00 0. -1.
         -1    1    3    3    0  502  0.43946546912E+03 -0.42851581490E+03  0.26983464683E+03  0.67049715793E+03  0.00000000000E+00 0.  1.
         11    1    5    5    0    0  0.19564608629E+02  0.73632145907E+02  0.10243671881E+03  0.12766263425E+03  0.00000000000E+00 0. -1.
        -11    1    5    5    0    0  0.11709794818E+03  0.38667436926E+03  0.97680954501E+03  0.10570647495E+04  0.00000000000E+00 0.  1.
          2    1    6    6  503    0 -0.42303099308E+03  0.98434037377E+01  0.11055595550E+04  0.11837711111E+04  0.00000000000E+00 0.  1.
         -2    1    6    6    0  503 -0.19871244264E+03  0.13205736811E+02  0.72108748838E+03  0.74808301160E+03  0.00000000000E+00 0. -1.
<mgrwt>
<rscale>  0 0.21850583E+04</rscale>
<asrwt>0</asrwt>
<pdfrwt beam="1">  1        2 0.54144588E+00 0.21850583E+04</pdfrwt>
<pdfrwt beam="2">  1       -1 0.52177622E-01 0.21850583E+04</pdfrwt>
<totfact> 0.30465172E+00</totfact>
</mgrwt>
</event>
<event>
12    6  0.1538774E-007  0.1228462E+04  0.7818608E-02  0.9088303E-01
          2   -1    0    0  501    0  0.00000000000E+00  0.00000000000E+00  0.14640349228E+04  0.14640349228E+04  0.00000000000E+00 0. -1.
         -1   -1    0    0    0  501 -0.00000000000E+00 -0.00000000000E+00 -0.25769837482E+03  0.25769837482E+03  0.00000000000E+00 0.  1.
         24    2    1    2    0    0 -0.20250553554E+03  0.11615984696E+03  0.74100496756E+02  0.25781099604E+03  0.80461320473E+02 0.  0.
        254    2    1    2    0    0  0.20250553554E+03 -0.11615984696E+03  0.11322360512E+04  0.14639223016E+04  0.89811381653E+03 0.  0.
         23    2    4    4    0    0  0.21312186455E+03 -0.35117598086E+03  0.11361046269E+04  0.12115499285E+04  0.91509602197E+02 0.  0.
         23    2    4    4    0    0 -0.10616329011E+02  0.23501613391E+03 -0.38685756390E+01  0.25237237312E+03  0.91277375071E+02 0.  0.
          4    1    3    3  502    0 -0.41727760214E+02  0.57865256897E+02  0.44959002273E+02  0.84326186998E+02  0.00000000000E+00 0. -1.
         -3    1    3    3    0  502 -0.16077777533E+03  0.58294590059E+02  0.29141494483E+02  0.17348480905E+03  0.00000000000E+00 0.  1.
         11    1    5    5    0    0  0.16617333314E+03 -0.27764412089E+03  0.77059704486E+03  0.83577487403E+03  0.00000000000E+00 0. -1.
        -11    1    5    5    0    0  0.46948531412E+02 -0.73531859975E+02  0.36550758202E+03  0.37577505445E+03  0.00000000000E+00 0.  1.
          3    1    6    6  503    0 -0.75767554535E+01  0.23910766386E+03  0.80988461019E+01  0.23936472891E+03  0.00000000000E+00 0. -1.
         -3    1    6    6    0  503 -0.30395735575E+01 -0.40915299522E+01 -0.11967421741E+02  0.13007644210E+02  0.00000000000E+00 0.  1.
<mgrwt>
<rscale>  0 0.12284615E+04</rscale>
<asrwt>0</asrwt>
<pdfrwt beam="1">  1        2 0.22523614E+00 0.12284615E+04</pdfrwt>
<pdfrwt beam="2">  1       -1 0.39645905E-01 0.12284615E+04</pdfrwt>
<totfact> 0.92391846E+01</totfact>
</mgrwt>
</event>
<event>
12    6  0.1538774E-007  0.2248597E+04  0.7818608E-02  0.8498469E-01
         -1   -1    0    0    0  501 -0.00000000000E+00  0.00000000000E+00  0.76917169166E+03  0.76917169166E+03  0.00000000000E+00 0.  1.
          2   -1    0    0  501    0  0.00000000000E+00 -0.00000000000E+00 -0.16433874431E+04  0.16433874431E+04  0.00000000000E+00 0. -1.
         24    2    1    2    0    0  0.66767704278E+03 -0.32689927178E+03  0.25313467183E+03  0.78949488605E+03  0.81050883287E+02 0.  0.
        254    2    1    2    0    0 -0.66767704278E+03  0.32689927178E+03 -0.11273504233E+04  0.16230642487E+04  0.90042368429E+03 0.  0.
         23    2    4    4    0    0 -0.13481331987E+03 -0.27589317339E+03 -0.52025895705E+03  0.61102950312E+03  0.91629672877E+02 0.  0.
         23    2    4    4    0    0 -0.53286372291E+03  0.60279244517E+03 -0.60709146620E+03  0.10120347456E+04  0.91388176271E+02 0.  0.
          4    1    3    3  502    0  0.56931696720E+01  0.47333365866E+01  0.27072001532E+01  0.78832473528E+01  0.00000000000E+00 0. -1.
         -1    1    3    3    0  502  0.66198387310E+03 -0.33163260836E+03  0.25042747168E+03  0.78161163870E+03  0.00000000000E+00 0.  1.
         11    1    5    5    0    0 -0.35033687557E+02 -0.96388484065E+02 -0.99839080134E+02  0.14312910622E+03  0.00000000000E+00 0. -1.
        -11    1    5    5    0    0 -0.99779632310E+02 -0.17950468933E+03 -0.42041987692E+03  0.46790039690E+03  0.00000000000E+00 0.  1.
          1    1    6    6  503    0 -0.11746878857E+03  0.19222152313E+03 -0.18329034694E+03  0.29041932017E+03  0.00000000000E+00 0. -1.
         -1    1    6    6    0  503 -0.41539493434E+03  0.41057092203E+03 -0.42380111926E+03  0.72161542540E+03  0.00000000000E+00 0.  1.
<mgrwt>
<rscale>  0 0.22485970E+04</rscale>
<asrwt>0</asrwt>
<pdfrwt beam="1">  1        2 0.25282883E+00 0.22485970E+04</pdfrwt>
<pdfrwt beam="2">  1       -1 0.11833411E+00 0.22485970E+04</pdfrwt>
<totfact> 0.70049748E+00</totfact>
</mgrwt>
</event>
<event>
12    6  0.1538774E-007  0.2729365E+04  0.7818608E-02  0.8325540E-01
         -1   -1    0    0    0  501 -0.00000000000E+00  0.00000000000E+00  0.80621772965E+03  0.80621772965E+03  0.00000000000E+00 0.  1.
          2   -1    0    0  501    0  0.00000000000E+00 -0.00000000000E+00 -0.23099939676E+04  0.23099939676E+04  0.00000000000E+00 0. -1.
         24    2    1    2    0    0 -0.14678055629E+03  0.34045657308E+02  0.70458123532E+03  0.72487904627E+03  0.79443540101E+02 0.  0.
        254    2    1    2    0    0  0.14678055629E+03 -0.34045657308E+02 -0.22083574733E+04  0.23913326510E+04  0.90494501458E+03 0.  0.
         23    2    4    4    0    0  0.34425238641E+03  0.14330389477E+03 -0.20138850616E+04  0.20501730638E+04  0.91819597464E+02 0.  0.
         23    2    4    4    0    0 -0.19747183012E+03 -0.17734955208E+03 -0.19447241177E+03  0.34115958725E+03  0.90124123959E+02 0.  0.
          2    1    3    3  502    0 -0.10277712987E+03 -0.13220337642E+02  0.48771669127E+03  0.49860353659E+03  0.00000000000E+00 0. -1.
         -3    1    3    3    0  502 -0.44003426423E+02  0.47265994950E+02  0.21686454405E+03  0.22627550968E+03  0.00000000000E+00 0.  1.
         11    1    5    5    0    0  0.30073255606E+03  0.91736323008E+02 -0.15681298874E+04  0.15993395409E+04  0.00000000000E+00 0.  1.
        -11    1    5    5    0    0  0.43519830352E+02  0.51567571764E+02 -0.44575517414E+03  0.45083352290E+03  0.00000000000E+00 0. -1.
          3    1    6    6  503    0 -0.59580534703E+02 -0.10523190239E+03 -0.57718345909E+02  0.13399627178E+03  0.00000000000E+00 0. -1.
         -3    1    6    6    0  503 -0.13789129542E+03 -0.72117649694E+02 -0.13675406586E+03  0.20716331547E+03  0.00000000000E+00 0.  1.
<mgrwt>
<rscale>  0 0.27293648E+04</rscale>
<asrwt>0</asrwt>
<pdfrwt beam="1">  1        2 0.35538368E+00 0.27293648E+04</pdfrwt>
<pdfrwt beam="2">  1       -1 0.12403350E+00 0.27293648E+04</pdfrwt>
<totfact> 0.25404631E+00</totfact>
</mgrwt>
</event>
<event>
12    6  0.1538774E-007  0.3347166E+04  0.7818608E-02  0.8150997E-01
          2   -1    0    0  501    0  0.00000000000E+00  0.00000000000E+00  0.17735804951E+04  0.17735804951E+04  0.00000000000E+00 0. -1.
         -1   -1    0    0    0  501 -0.00000000000E+00 -0.00000000000E+00 -0.15792238875E+04  0.15792238875E+04  0.00000000000E+00 0.  1.
         24    2    1    2    0    0 -0.91102066101E+03 -0.27366330385E+03  0.12993847324E+04  0.16124019945E+04  0.81174259913E+02 0.  0.
        254    2    1    2    0    0  0.91102066101E+03  0.27366330385E+03 -0.11050281248E+04  0.17404023881E+04  0.95029630501E+03 0.  0.
         23    2    4    4    0    0  0.12999690041E+03 -0.22481942403E+03 -0.64296963916E+03  0.70088050548E+03  0.10188502613E+03 0.  0.
         23    2    4    4    0    0  0.78102376060E+03  0.49848272789E+03 -0.46205848565E+03  0.10395218826E+04  0.92868486083E+02 0.  0.
          2    1    3    3  502    0 -0.68159543318E+03 -0.23854599719E+03  0.96147158402E+03  0.12024575395E+04  0.00000000000E+00 0. -1.
         -1    1    3    3    0  502 -0.22942522782E+03 -0.35117306661E+02  0.33791314837E+03  0.40994445505E+03  0.00000000000E+00 0.  1.
         11    1    5    5    0    0  0.11559486356E+03 -0.13411989672E+03 -0.50500857506E+03  0.53514855887E+03  0.00000000000E+00 0.  1.
        -11    1    5    5    0    0  0.14402036844E+02 -0.90699527317E+02 -0.13796106409E+03  0.16573194661E+03  0.00000000000E+00 0. -1.
          2    1    6    6  503    0  0.32329476677E+02  0.18538164007E+02  0.13589984274E+00  0.37267640866E+02  0.00000000000E+00 0. -1.
         -2    1    6    6    0  503  0.74869428392E+03  0.47994456388E+03 -0.46219438549E+03  0.10022542418E+04  0.00000000000E+00 0.  1.
<mgrwt>
<rscale>  0 0.33471664E+04</rscale>
<asrwt>0</asrwt>
<pdfrwt beam="1">  1        2 0.27285854E+00 0.33471664E+04</pdfrwt>
<pdfrwt beam="2">  1       -1 0.24295752E+00 0.33471664E+04</pdfrwt>
<totfact> 0.65514322E-01</totfact>
</mgrwt>
</event>
<event>
12    6  0.1538774E-007  0.1790108E+04  0.7818608E-02  0.8711578E-01
          2   -1    0    0  501    0  0.00000000000E+00  0.00000000000E+00  0.38023552289E+04  0.38023552289E+04  0.00000000000E+00 0. -1.
         -1   -1    0    0    0  501 -0.00000000000E+00 -0.00000000000E+00 -0.21069088185E+03  0.21069088185E+03  0.00000000000E+00 0.  1.
         24    2    1    2    0    0 -0.84577743719E+01  0.19782025752E+03  0.26688275078E+04  0.26773526950E+04  0.79829812229E+02 0.  0.
        254    2    1    2    0    0  0.84577743719E+01 -0.19782025752E+03  0.92283683931E+03  0.13356934158E+04  0.94511622605E+03 0.  0.
         23    2    4    4    0    0 -0.44487339928E+02  0.26962378600E+03 -0.87085349972E+01  0.28828303525E+03  0.91406566715E+02 0.  0.
         23    2    4    4    0    0  0.52945114299E+02 -0.46744404352E+03  0.93154537431E+03  0.10474103805E+04  0.89356599626E+02 0.  0.
          4    1    3    3  502    0  0.70966001786E+01  0.17230614490E+03  0.24968592327E+04  0.25028075830E+04  0.00000000000E+00 0. -1.
         -3    1    3    3    0  502 -0.15554374550E+02  0.25514112619E+02  0.17196827500E+03  0.17454511199E+03  0.00000000000E+00 0.  1.
         11    1    5    5    0    0 -0.17223453236E+02  0.13166779233E+01  0.57537771226E+01  0.18206782618E+02  0.00000000000E+00 0.  1.
        -11    1    5    5    0    0 -0.27263886691E+02  0.26830710808E+03 -0.14462312120E+02  0.27007625263E+03  0.00000000000E+00 0. -1.
          4    1    6    6  503    0 -0.22458777367E+02 -0.18054715328E+03  0.37117820471E+03  0.41337021045E+03  0.00000000000E+00 0. -1.
         -4    1    6    6    0  503  0.75403891667E+02 -0.28689689024E+03  0.56036716960E+03  0.63404017008E+03  0.00000000000E+00 0.  1.
<mgrwt>
<rscale>  0 0.17901079E+04</rscale>
<asrwt>0</asrwt>
<pdfrwt beam="1">  1        2 0.58497768E+00 0.17901079E+04</pdfrwt>
<pdfrwt beam="2">  1       -1 0.32413985E-01 0.17901079E+04</pdfrwt>
<totfact> 0.47388354E+00</totfact>
</mgrwt>
</event>
<event>
12    6  0.1538774E-007  0.2500071E+04  0.7818608E-02  0.8402960E-01
          2   -1    0    0  501    0  0.00000000000E+00  0.00000000000E+00  0.20095439647E+04  0.20095439647E+04  0.00000000000E+00 0. -1.
         -1   -1    0    0    0  501 -0.00000000000E+00 -0.00000000000E+00 -0.77758391317E+03  0.77758391317E+03  0.00000000000E+00 0.  1.
         24    2    1    2    0    0 -0.96513409559E+03 -0.35028863893E+03  0.94459249011E+03  0.13974122661E+04  0.79499158004E+02 0.  0.
        254    2    1    2    0    0  0.96513409559E+03  0.35028863893E+03  0.28736756140E+03  0.13897156117E+04  0.89137164699E+03 0.  0.
         23    2    4    4    0    0 -0.51599258882E+02  0.19180334326E+03  0.28101770696E+03  0.35666855009E+03  0.93757650338E+02 0.  0.
         23    2    4    4    0    0  0.10167333545E+04  0.15848529567E+03  0.63498544372E+01  0.10330470616E+04  0.91003339607E+02 0.  0.
          4    1    3    3  502    0 -0.89632938649E+03 -0.31410504022E+03  0.84653108882E+03  0.12722748248E+04  0.00000000000E+00 0. -1.
         -3    1    3    3    0  502 -0.68804709105E+02 -0.36183598710E+02  0.98061401290E+02  0.12513744137E+03  0.00000000000E+00 0.  1.
         11    1    5    5    0    0 -0.72180313110E+02  0.10664371049E+03  0.19649196840E+03  0.23492971765E+03  0.00000000000E+00 0. -1.
        -11    1    5    5    0    0  0.20581054228E+02  0.85159632765E+02  0.84525738567E+02  0.12173883245E+03  0.00000000000E+00 0.  1.
          1    1    6    6  503    0  0.99034698813E+03  0.16523309430E+03  0.15967244554E+02  0.10041633758E+04  0.00000000000E+00 0. -1.
         -1    1    6    6    0  503  0.26386366347E+02 -0.67477986268E+01 -0.96173901167E+01  0.28883685844E+02  0.00000000000E+00 0.  1.
<mgrwt>
<rscale>  0 0.25000712E+04</rscale>
<asrwt>0</asrwt>
<pdfrwt beam="1">  1        2 0.30916061E+00 0.25000712E+04</pdfrwt>
<pdfrwt beam="2">  1       -1 0.11962830E+00 0.25000712E+04</pdfrwt>
<totfact> 0.41779905E+00</totfact>
</mgrwt>
</event>
<event>
12    6  0.1538774E-007  0.1931675E+04  0.7818608E-02  0.8639248E-01
         -1   -1    0    0    0  501 -0.00000000000E+00  0.00000000000E+00  0.87332123093E+03  0.87332123093E+03  0.00000000000E+00 0.  1.
          2   -1    0    0  501    0  0.00000000000E+00 -0.00000000000E+00 -0.10681550652E+04  0.10681550652E+04  0.00000000000E+00 0. -1.
         24    2    1    2    0    0  0.46227900568E+03  0.55530843030E+03 -0.29825597584E+03  0.78709276391E+03  0.92136095168E+02 0.  0.
        254    2    1    2    0    0 -0.46227900568E+03 -0.55530843030E+03  0.10342214156E+03  0.11543835322E+04  0.89433543387E+03 0.  0.
         23    2    4    4    0    0 -0.71895870833E+03 -0.44662155519E+03  0.12169212418E+03  0.85999604157E+03  0.91715759714E+02 0.  0.
         23    2    4    4    0    0  0.25667970266E+03 -0.10868687511E+03 -0.18269982619E+02  0.29438749066E+03  0.92913378036E+02 0.  0.
          4    1    3    3  502    0  0.34922391905E+03  0.47327477124E+03 -0.22893583232E+03  0.63115605840E+03  0.00000000000E+00 0. -1.
         -3    1    3    3    0  502  0.11305508663E+03  0.82033659056E+02 -0.69320143515E+02  0.15593670552E+03  0.00000000000E+00 0.  1.
         11    1    5    5    0    0 -0.17928649424E+02 -0.30981309496E+02 -0.11058448852E+01  0.35812021741E+02  0.00000000000E+00 0. -1.
        -11    1    5    5    0    0 -0.70103005891E+03 -0.41564024569E+03  0.12279796906E+03  0.82418401983E+03  0.00000000000E+00 0.  1.
          4    1    6    6  503    0  0.10848941182E+03 -0.36642410289E+01  0.15471252638E+02  0.10964825032E+03  0.00000000000E+00 0. -1.
         -4    1    6    6    0  503  0.14819029083E+03 -0.10502263408E+03 -0.33741235256E+02  0.18473924034E+03  0.00000000000E+00 0.  1.
<mgrwt>
<rscale>  0 0.19316754E+04</rscale>
<asrwt>0</asrwt>
<pdfrwt beam="1">  1        2 0.16433155E+00 0.19316754E+04</pdfrwt>
<pdfrwt beam="2">  1       -1 0.13435711E+00 0.19316754E+04</pdfrwt>
<totfact> 0.11330657E+01</totfact>
</mgrwt>
</event>
<event>
12    6  0.1538774E-007  0.1251102E+04  0.7818608E-02  0.9069266E-01
          2   -1    0    0  501    0  0.00000000000E+00  0.00000000000E+00  0.21334938973E+04  0.21334938973E+04  0.00000000000E+00 0. -1.
         -1   -1    0    0    0  501 -0.00000000000E+00 -0.00000000000E+00 -0.18341472515E+03  0.18341472515E+03  0.00000000000E+00 0.  1.
         24    2    1    2    0    0  0.73454306888E+02 -0.54881741434E+02  0.98540184579E+03  0.99339178963E+03  0.86040160858E+02 0.  0.
        254    2    1    2    0    0 -0.73454306888E+02  0.54881741434E+02  0.96467732638E+03  0.13235168328E+04  0.90149149859E+03 0.  0.
         23    2    4    4    0    0 -0.64043185916E-01 -0.39577455680E+03  0.63534874723E+03  0.75401531456E+03  0.90738966647E+02 0.  0.
         23    2    4    4    0    0 -0.73390263702E+02  0.45065629823E+03  0.32932857915E+03  0.56950151828E+03  0.86008350383E+02 0.  0.
          2    1    3    3  502    0  0.44230713947E+02 -0.23382344383E+02  0.84693514474E+03  0.84841159203E+03  0.00000000000E+00 0. -1.
         -1    1    3    3    0  502  0.29223592940E+02 -0.31499397051E+02  0.13846670104E+03  0.14498019760E+03  0.00000000000E+00 0.  1.
         11    1    5    5    0    0 -0.40154306983E+02 -0.15898496576E+03  0.22251008043E+03  0.27640427565E+03  0.00000000000E+00 0.  1.
        -11    1    5    5    0    0  0.40090263797E+02 -0.23678959104E+03  0.41283866681E+03  0.47761103891E+03  0.00000000000E+00 0. -1.
          4    1    6    6  503    0 -0.59819574421E+02  0.12615382147E+03  0.91051646160E+02  0.16668404370E+03  0.00000000000E+00 0. -1.
         -4    1    6    6    0  503 -0.13570689280E+02  0.32450247677E+03  0.23827693299E+03  0.40281747459E+03  0.00000000000E+00 0.  1.
<mgrwt>
<rscale>  0 0.12511022E+04</rscale>
<asrwt>0</asrwt>
<pdfrwt beam="1">  1        2 0.32822981E+00 0.12511022E+04</pdfrwt>
<pdfrwt beam="2">  1       -1 0.28217652E-01 0.12511022E+04</pdfrwt>
<totfact> 0.71748949E+01</totfact>
</mgrwt>
</event>
<event>
12    6  0.1538774E-007  0.2018654E+04  0.7818608E-02  0.8597948E-01
          2   -1    0    0  501    0  0.00000000000E+00  0.00000000000E+00  0.10014712912E+04  0.10014712912E+04  0.00000000000E+00 0. -1.
         -1   -1    0    0    0  501 -0.00000000000E+00 -0.00000000000E+00 -0.10172447242E+04  0.10172447242E+04  0.00000000000E+00 0.  1.
         24    2    1    2    0    0 -0.60173594995E+03 -0.25374478265E+02  0.52630588208E+03  0.80364580642E+03  0.78222011367E+02 0.  0.
        254    2    1    2    0    0  0.60173594995E+03  0.25374478265E+02 -0.54207931517E+03  0.12150702090E+04  0.90543669640E+03 0.  0.
         23    2    4    4    0    0  0.28851307108E+03  0.45428136495E+03 -0.23685265580E+03  0.59592212069E+03  0.97018774687E+02 0.  0.
         23    2    4    4    0    0  0.31322287887E+03 -0.42890688669E+03 -0.30522665936E+03  0.61914808828E+03  0.90063046445E+02 0.  0.
          2    1    3    3  502    0 -0.57201501145E+03 -0.11488687688E+02  0.51230743592E+03  0.76797921337E+03  0.00000000000E+00 0. -1.
         -3    1    3    3    0  502 -0.29720938498E+02 -0.13885790577E+02  0.13998446161E+02  0.35666593054E+02  0.00000000000E+00 0.  1.
         11    1    5    5    0    0  0.11672799282E+03  0.12950160056E+03 -0.11488822811E+03  0.20879510007E+03  0.00000000000E+00 0. -1.
        -11    1    5    5    0    0  0.17178507826E+03  0.32477976439E+03 -0.12196442769E+03  0.38712702062E+03  0.00000000000E+00 0.  1.
          4    1    6    6  503    0  0.23478764690E+03 -0.35174486044E+03 -0.27703222126E+03  0.50556556212E+03  0.00000000000E+00 0. -1.
         -4    1    6    6    0  503  0.78435231966E+02 -0.77162026246E+02 -0.28194438101E+02  0.11358252616E+03  0.00000000000E+00 0.  1.
<mgrwt>
<rscale>  0 0.20186544E+04</rscale>
<asrwt>0</asrwt>
<pdfrwt beam="1">  1        2 0.15407251E+00 0.20186544E+04</pdfrwt>
<pdfrwt beam="2">  1       -1 0.15649919E+00 0.20186544E+04</pdfrwt>
<totfact> 0.82654048E+00</totfact>
</mgrwt>
</event>
<event>
12    6  0.1538774E-007  0.1921203E+04  0.7818608E-02  0.8644373E-01
         -1   -1    0    0    0  501 -0.00000000000E+00  0.00000000000E+00  0.66331426250E+03  0.66331426250E+03  0.00000000000E+00 0.  1.
          2   -1    0    0  501    0  0.00000000000E+00 -0.00000000000E+00 -0.13911288858E+04  0.13911288858E+04  0.00000000000E+00 0. -1.
         24    2    1    2    0    0  0.11759521768E+03  0.73391007267E+03 -0.19372681136E+03  0.77220731018E+03  0.79507373662E+02 0.  0.
        254    2    1    2    0    0 -0.11759521768E+03 -0.73391007267E+03 -0.53408781197E+03  0.12822358382E+04  0.89801242963E+03 0.  0.
         23    2    4    4    0    0 -0.33962566731E+03 -0.63382945224E+01 -0.34452841809E+03  0.49261747092E+03  0.92662688898E+02 0.  0.
         23    2    4    4    0    0  0.22203044963E+03 -0.72757177815E+03 -0.18955939388E+03  0.78961836724E+03  0.94372608068E+02 0.  0.
          2    1    3    3  502    0  0.49187759070E+02  0.32753551954E+03 -0.45754033200E+02  0.33435368064E+03  0.00000000000E+00 0. -1.
         -1    1    3    3    0  502  0.68407458609E+02  0.40637455313E+03 -0.14797277816E+03  0.43785362954E+03  0.00000000000E+00 0.  1.
         11    1    5    5    0    0 -0.27247062981E+03  0.10425721154E+01 -0.21709931180E+03  0.34838691458E+03  0.00000000000E+00 0.  1.
        -11    1    5    5    0    0 -0.67155037501E+02 -0.73808666378E+01 -0.12742910629E+03  0.14423055634E+03  0.00000000000E+00 0. -1.
          2    1    6    6  503    0  0.95076304818E+02 -0.20112530983E+03 -0.26348338355E+02  0.22402037614E+03  0.00000000000E+00 0. -1.
         -2    1    6    6    0  503  0.12695414481E+03 -0.52644646832E+03 -0.16321105553E+03  0.56559799110E+03  0.00000000000E+00 0.  1.
<mgrwt>
<rscale>  0 0.19212034E+04</rscale>
<asrwt>0</asrwt>
<pdfrwt beam="1">  1        2 0.21401983E+00 0.19212034E+04</pdfrwt>
<pdfrwt beam="2">  1       -1 0.10204835E+00 0.19212034E+04</pdfrwt>
<totfact> 0.14192119E+01</totfact>
</mgrwt>
</event>
<event>
12    6  0.1538774E-007  0.1343084E+04  0.7818608E-02  0.8996080E-01
          2   -1    0    0  501    0  0.00000000000E+00  0.00000000000E+00  0.15820171915E+04  0.15820171915E+04  0.00000000000E+00 0. -1.
         -1   -1    0    0    0  501 -0.00000000000E+00 -0.00000000000E+00 -0.28505936077E+03  0.28505936077E+03  0.00000000000E+00 0.  1.
         24    2    1    2    0    0  0.24825232313E+02 -0.18295597967E+03  0.78037979385E+03  0.80584869700E+03  0.79437504714E+02 0.  0.
        254    2    1    2    0    0 -0.24825232313E+02  0.18295597967E+03  0.51657803692E+03  0.10612278553E+04  0.90843960174E+03 0.  0.
         23    2    4    4    0    0  0.24009928816E+03 -0.28284256661E+03  0.19793997961E+03  0.43019086260E+03  0.90754377695E+02 0.  0.
         23    2    4    4    0    0 -0.26492452048E+03  0.46579854628E+03  0.31863805731E+03  0.63103699271E+03  0.97591942992E+02 0.  0.
          4    1    3    3  502    0 -0.63900208831E+01 -0.15733451894E+03  0.67165492901E+03  0.68986616592E+03  0.00000000000E+00 0. -1.
         -3    1    3    3    0  502  0.31215253196E+02 -0.25621460725E+02  0.10872486484E+03  0.11598253109E+03  0.00000000000E+00 0.  1.
         11    1    5    5    0    0  0.14640396444E+03 -0.10275319104E+03  0.97071302985E+02  0.20350719136E+03  0.00000000000E+00 0.  1.
        -11    1    5    5    0    0  0.93695323722E+02 -0.18008937557E+03  0.10086867663E+03  0.22668367124E+03  0.00000000000E+00 0. -1.
          1    1    6    6  503    0 -0.24408474283E+03  0.41997844544E+03  0.25114180473E+03  0.54683769292E+03  0.00000000000E+00 0. -1.
         -1    1    6    6    0  503 -0.20839777650E+02  0.45820100842E+02  0.67496252571E+02  0.84199299789E+02  0.00000000000E+00 0.  1.
<mgrwt>
<rscale>  0 0.13430842E+04</rscale>
<asrwt>0</asrwt>
<pdfrwt beam="1">  1        2 0.24338725E+00 0.13430842E+04</pdfrwt>
<pdfrwt beam="2">  1       -1 0.43855287E-01 0.13430842E+04</pdfrwt>
<totfact> 0.65293480E+01</totfact>
</mgrwt>
</event>
<event>
12    6  0.1538774E-007  0.2662365E+04  0.7818608E-02  0.8347321E-01
         -3   -1    0    0    0  501 -0.00000000000E+00  0.00000000000E+00  0.16793183773E+04  0.16793183773E+04  0.00000000000E+00 0.  1.
          2   -1    0    0  501    0  0.00000000000E+00 -0.00000000000E+00 -0.10552177527E+04  0.10552177527E+04  0.00000000000E+00 0. -1.
         24    2    1    2    0    0 -0.10346174214E+04  0.12428996536E+03  0.83375594607E+03  0.13369247935E+04  0.79609808981E+02 0.  0.
        254    2    1    2    0    0  0.10346174214E+04 -0.12428996536E+03 -0.20965532157E+03  0.13976113365E+04  0.90745847827E+03 0.  0.
         23    2    4    4    0    0  0.59444904817E+03  0.35459703121E+03  0.29131486198E+02  0.69867267765E+03  0.90477298759E+02 0.  0.
         23    2    4    4    0    0  0.44016837327E+03 -0.47888699657E+03 -0.23878680776E+03  0.69893865884E+03  0.91734164553E+02 0.  0.
          2    1    3    3  502    0 -0.17160317767E+03  0.21466418707E+02  0.17794741166E+03  0.24814056306E+03  0.00000000000E+00 0. -1.
         -1    1    3    3    0  502 -0.86301424377E+03  0.10282354665E+03  0.65580853441E+03  0.10887842305E+04  0.00000000000E+00 0.  1.
         11    1    5    5    0    0  0.12060506386E+03  0.79435358138E+02 -0.30161150583E+02  0.14753051398E+03  0.00000000000E+00 0.  1.
        -11    1    5    5    0    0  0.47384398431E+03  0.27516167307E+03  0.59292636780E+02  0.55114216367E+03  0.00000000000E+00 0. -1.
          3    1    6    6  503    0  0.14964460868E+03 -0.14376860333E+03 -0.12030672622E+03  0.23986793988E+03  0.00000000000E+00 0. -1.
         -3    1    6    6    0  503  0.29052376459E+03 -0.33511839325E+03 -0.11848008155E+03  0.45907071896E+03  0.00000000000E+00 0.  1.
<mgrwt>
<rscale>  0 0.26623648E+04</rscale>
<asrwt>0</asrwt>
<pdfrwt beam="1">  1        2 0.16234119E+00 0.26623648E+04</pdfrwt>
<pdfrwt beam="2">  1       -3 0.25835667E+00 0.26623648E+04</pdfrwt>
<totfact> 0.83938945E-01</totfact>
</mgrwt>
</event>
<event>
12    6  0.1538774E-007  0.1236583E+04  0.7818608E-02  0.9081424E-01
          2   -1    0    0  501    0  0.00000000000E+00  0.00000000000E+00  0.23550450926E+04  0.23550450926E+04  0.00000000000E+00 0. -1.
         -3   -1    0    0    0  501 -0.00000000000E+00 -0.00000000000E+00 -0.16232581519E+03  0.16232581519E+03  0.00000000000E+00 0.  1.
         24    2    1    2    0    0 -0.10210497989E+03 -0.77855722171E+02 -0.18928320379E+02  0.15233773536E+03  0.79759412671E+02 0.  0.
        254    2    1    2    0    0  0.10210497989E+03  0.77855722171E+02  0.22116475978E+04  0.23650331724E+04  0.82795523400E+03 0.  0.
         23    2    4    4    0    0  0.35465636056E+03 -0.13792933323E+03  0.59468583175E+03  0.71179173009E+03  0.90501897678E+02 0.  0.
         23    2    4    4    0    0 -0.25255138066E+03  0.21578505540E+03  0.16169617660E+04  0.16532414424E+04  0.91085255981E+02 0.  0.
          4    1    3    3  502    0 -0.42763059131E+02 -0.51978737388E+02  0.27460355033E+02  0.72694837955E+02  0.00000000000E+00 0. -1.
         -3    1    3    3    0  502 -0.59341920763E+02 -0.25876984783E+02 -0.46388675412E+02  0.79642897409E+02  0.00000000000E+00 0.  1.
         11    1    5    5    0    0  0.11791287557E+03 -0.54970338508E+01  0.21312979854E+03  0.24363492080E+03  0.00000000000E+00 0.  1.
        -11    1    5    5    0    0  0.23674348499E+03 -0.13243229938E+03  0.38155603321E+03  0.46815680929E+03  0.00000000000E+00 0. -1.
          2    1    6    6  503    0 -0.18009712538E+03  0.15023299996E+03  0.13184128135E+04  0.13391106286E+04  0.00000000000E+00 0. -1.
         -2    1    6    6    0  503 -0.72454255284E+02  0.65552055433E+02  0.29854895259E+03  0.31413081379E+03  0.00000000000E+00 0.  1.
<mgrwt>
<rscale>  0 0.12365834E+04</rscale>
<asrwt>0</asrwt>
<pdfrwt beam="1">  1        2 0.36231461E+00 0.12365834E+04</pdfrwt>
<pdfrwt beam="2">  1       -3 0.24973204E-01 0.12365834E+04</pdfrwt>
<totfact> 0.41421886E+01</totfact>
</mgrwt>
</event>
<event>
12    6  0.1538774E-007  0.1338842E+04  0.7818608E-02  0.8999318E-01
          2   -1    0    0  501    0  0.00000000000E+00  0.00000000000E+00  0.22329440484E+04  0.22329440484E+04  0.00000000000E+00 0. -1.
         -1   -1    0    0    0  501 -0.00000000000E+00 -0.00000000000E+00 -0.20068762229E+03  0.20068762229E+03  0.00000000000E+00 0.  1.
         24    2    1    2    0    0 -0.21070197788E+03 -0.35128446793E+02  0.11041309866E+04  0.11273964381E+04  0.79297930772E+02 0.  0.
        254    2    1    2    0    0  0.21070197788E+03  0.35128446793E+02  0.92812543958E+03  0.13062352327E+04  0.89398228180E+03 0.  0.
         23    2    4    4    0    0 -0.21607377566E+03 -0.28402405503E+03  0.47090785563E+03  0.59824758552E+03  0.93746598500E+02 0.  0.
         23    2    4    4    0    0  0.42677575354E+03  0.31915250182E+03  0.45721758395E+03  0.70798764713E+03  0.90568903003E+02 0.  0.
          2    1    3    3  502    0 -0.16768929215E+03 -0.15969978210E+02  0.98496240395E+03  0.99926256614E+03  0.00000000000E+00 0. -1.
         -1    1    3    3    0  502 -0.43012685728E+02 -0.19158468583E+02  0.11916858263E+03  0.12813387194E+03  0.00000000000E+00 0.  1.
         11    1    5    5    0    0 -0.14724522532E+03 -0.23584702160E+03  0.40601120884E+03  0.49208746751E+03  0.00000000000E+00 0. -1.
        -11    1    5    5    0    0 -0.68828550344E+02 -0.48177033430E+02  0.64896646783E+02  0.10616011801E+03  0.00000000000E+00 0.  1.
          1    1    6    6  503    0  0.40347319411E+03  0.31778016385E+03  0.41732145456E+03  0.66176434426E+03  0.00000000000E+00 0. -1.
         -1    1    6    6    0  503  0.23302559426E+02  0.13723379651E+01  0.39896129395E+02  0.46223302867E+02  0.00000000000E+00 0.  1.
<mgrwt>
<rscale>  0 0.13388416E+04</rscale>
<asrwt>0</asrwt>
<pdfrwt beam="1">  1        2 0.34352984E+00 0.13388416E+04</pdfrwt>
<pdfrwt beam="2">  1       -1 0.30875020E-01 0.13388416E+04</pdfrwt>
<totfact> 0.53548931E+01</totfact>
</mgrwt>
</event>
<event>
12    6  0.1538774E-007  0.2163849E+04  0.7818608E-02  0.8533627E-01
         -1   -1    0    0    0  501 -0.00000000000E+00  0.00000000000E+00  0.13940653289E+04  0.13940653289E+04  0.00000000000E+00 0.  1.
          2   -1    0    0  501    0  0.00000000000E+00 -0.00000000000E+00 -0.83967427203E+03  0.83967427203E+03  0.00000000000E+00 0. -1.
         24    2    1    2    0    0 -0.75704027445E+03  0.43886846743E+03  0.44774735957E+02  0.87966407254E+03  0.78029447621E+02 0.  0.
        254    2    1    2    0    0  0.75704027445E+03 -0.43886846743E+03  0.50961632094E+03  0.13540755284E+04  0.89894172961E+03 0.  0.
         23    2    4    4    0    0  0.28773991840E+03  0.23758361395E+03  0.32883778174E+03  0.50607797147E+03  0.93490064971E+02 0.  0.
         23    2    4    4    0    0  0.46930035605E+03 -0.67645208138E+03  0.18077853920E+03  0.84799755694E+03  0.92675421482E+02 0.  0.
          4    1    3    3  502    0 -0.40606801613E+03  0.26500453080E+03 -0.44207951160E+01  0.48491048504E+03  0.00000000000E+00 0. -1.
         -3    1    3    3    0  502 -0.35097225832E+03  0.17386393663E+03  0.49195531073E+02  0.39475358750E+03  0.00000000000E+00 0.  1.
         11    1    5    5    0    0  0.18355088951E+03  0.18797249839E+03  0.18333325107E+03  0.32036802296E+03  0.00000000000E+00 0.  1.
        -11    1    5    5    0    0  0.10418902890E+03  0.49611115565E+02  0.14550453067E+03  0.18570994851E+03  0.00000000000E+00 0. -1.
          4    1    6    6  503    0  0.40703638536E+02 -0.10651433630E+03  0.83108025102E+01  0.11432917154E+03  0.00000000000E+00 0. -1.
         -4    1    6    6    0  503  0.42859671751E+03 -0.56993774508E+03  0.17246773669E+03  0.73366838540E+03  0.00000000000E+00 0.  1.
<mgrwt>
<rscale>  0 0.21638492E+04</rscale>
<asrwt>0</asrwt>
<pdfrwt beam="1">  1        2 0.12918066E+00 0.21638492E+04</pdfrwt>
<pdfrwt beam="2">  1       -1 0.21447159E+00 0.21638492E+04</pdfrwt>
<totfact> 0.40466675E+00</totfact>
</mgrwt>
</event>
<event>
12    6  0.1538774E-007  0.1694915E+04  0.7818608E-02  0.8764270E-01
          2   -1    0    0  501    0  0.00000000000E+00  0.00000000000E+00  0.19840782153E+04  0.19840782153E+04  0.00000000000E+00 0. -1.
         -1   -1    0    0    0  501 -0.00000000000E+00 -0.00000000000E+00 -0.36197368240E+03  0.36197368240E+03  0.00000000000E+00 0.  1.
         24    2    1    2    0    0  0.26104396525E+03  0.11487945605E+03 -0.12601341260E+03  0.32234270338E+03  0.81756938875E+02 0.  0.
        254    2    1    2    0    0 -0.26104396525E+03 -0.11487945605E+03  0.17481179455E+04  0.20237091943E+04  0.97884692910E+03 0.  0.
         23    2    4    4    0    0 -0.60246003005E+03  0.79542302094E+02  0.10032945967E+04  0.11764686082E+04  0.90516698916E+02 0.  0.
         23    2    4    4    0    0  0.34141606480E+03 -0.19442175815E+03  0.74482334881E+03  0.84724058610E+03  0.93220386442E+02 0.  0.
          2    1    3    3  502    0  0.28304251378E+02  0.37386768084E+02 -0.42294040440E+02  0.63148134815E+02  0.00000000000E+00 0. -1.
         -1    1    3    3    0  502  0.23273971387E+03  0.77492687968E+02 -0.83719372162E+02  0.25919456857E+03  0.00000000000E+00 0.  1.
         11    1    5    5    0    0 -0.93598880636E+02  0.22281667883E+02  0.10458358032E+03  0.14210893164E+03  0.00000000000E+00 0.  1.
        -11    1    5    5    0    0 -0.50886114941E+03  0.57260634212E+02  0.89871101639E+03  0.10343596766E+04  0.00000000000E+00 0. -1.
          1    1    6    6  503    0  0.14206591562E+03 -0.11357367791E+03  0.41940448562E+03  0.45714530212E+03  0.00000000000E+00 0. -1.
         -1    1    6    6    0  503  0.19935014918E+03 -0.80848080239E+02  0.32541886319E+03  0.39009528397E+03  0.00000000000E+00 0.  1.
<mgrwt>
<rscale>  0 0.16949149E+04</rscale>
<asrwt>0</asrwt>
<pdfrwt beam="1">  1        2 0.30524280E+00 0.16949149E+04</pdfrwt>
<pdfrwt beam="2">  1       -1 0.55688260E-01 0.16949149E+04</pdfrwt>
<totfact> 0.24112818E+01</totfact>
</mgrwt>
</event>
<event>
12    6  0.1538774E-007  0.1515932E+04  0.7818608E-02  0.8873927E-01
          2   -1    0    0  501    0  0.00000000000E+00  0.00000000000E+00  0.15472644257E+04  0.15472644257E+04  0.00000000000E+00 0. -1.
         -3   -1    0    0    0  501 -0.00000000000E+00 -0.00000000000E+00 -0.37130866434E+03  0.37130866434E+03  0.00000000000E+00 0.  1.
         24    2    1    2    0    0  0.81580827339E+02  0.32648908053E+03 -0.63557966384E+02  0.35146644563E+03  0.78984151656E+02 0.  0.
        254    2    1    2    0    0 -0.81580827339E+02 -0.32648908053E+03  0.12395137277E+04  0.15671066444E+04  0.89787438021E+03 0.  0.
         23    2    4    4    0    0  0.21870474964E+03 -0.41096488199E+03  0.11274858047E+04  0.12233929222E+04  0.93499200609E+02 0.  0.
         23    2    4    4    0    0 -0.30028557697E+03  0.84475801454E+02  0.11202792300E+03  0.34371372220E+03  0.91001530351E+02 0.  0.
          4    1    3    3  502    0  0.18145951965E+02  0.22470226183E+02  0.12891953630E+02  0.31628928307E+02  0.00000000000E+00 0. -1.
         -3    1    3    3    0  502  0.63434875374E+02  0.30401885435E+03 -0.76449920014E+02  0.31983751732E+03  0.00000000000E+00 0.  1.
         11    1    5    5    0    0  0.82501687915E+02 -0.73452277776E+02  0.28458700536E+03  0.30527287669E+03  0.00000000000E+00 0. -1.
        -11    1    5    5    0    0  0.13620306172E+03 -0.33751260421E+03  0.84289879938E+03  0.91812004554E+03  0.00000000000E+00 0.  1.
          1    1    6    6  503    0 -0.21147900271E+03  0.16174037513E+02  0.61658713184E+02  0.22087726227E+03  0.00000000000E+00 0. -1.
         -1    1    6    6    0  503 -0.88806574262E+02  0.68301763941E+02  0.50369209819E+02  0.12283645993E+03  0.00000000000E+00 0.  1.
<mgrwt>
<rscale>  0 0.15159323E+04</rscale>
<asrwt>0</asrwt>
<pdfrwt beam="1">  1        2 0.23804068E+00 0.15159323E+04</pdfrwt>
<pdfrwt beam="2">  1       -3 0.57124411E-01 0.15159323E+04</pdfrwt>
<totfact> 0.22192234E+01</totfact>
</mgrwt>
</event>
<event>
12    6  0.1538774E-007  0.2585685E+04  0.7818608E-02  0.8373080E-01
         -1   -1    0    0    0  501 -0.00000000000E+00  0.00000000000E+00  0.12641478803E+04  0.12641478803E+04  0.00000000000E+00 0.  1.
          2   -1    0    0  501    0  0.00000000000E+00 -0.00000000000E+00 -0.13221880166E+04  0.13221880166E+04  0.00000000000E+00 0. -1.
         24    2    1    2    0    0 -0.11503118593E+03  0.11094274776E+04 -0.22905718230E+03  0.11415078856E+04  0.80694226770E+02 0.  0.
        254    2    1    2    0    0  0.11503118593E+03 -0.11094274776E+04  0.17101704592E+03  0.14448280113E+04  0.90234120520E+03 0.  0.
         23    2    4    4    0    0 -0.37601636687E+03 -0.59359261707E+03  0.16155969207E+03  0.72680880591E+03  0.91700616418E+02 0.  0.
         23    2    4    4    0    0  0.49104755280E+03 -0.51583486053E+03  0.94573538452E+01  0.71801920544E+03  0.90823099462E+02 0.  0.
          4    1    3    3  502    0 -0.87946607758E+02  0.82068477284E+03 -0.20525825788E+03  0.85052281252E+03  0.00000000000E+00 0. -1.
         -3    1    3    3    0  502 -0.27084578173E+02  0.28874270475E+03 -0.23798924418E+02  0.29098507303E+03  0.00000000000E+00 0.  1.
         11    1    5    5    0    0 -0.34505625915E+02 -0.72361539068E+02  0.47882237691E+02  0.93378473121E+02  0.00000000000E+00 0. -1.
        -11    1    5    5    0    0 -0.34151074095E+03 -0.52123107800E+03  0.11367745438E+03  0.63343033279E+03  0.00000000000E+00 0.  1.
          1    1    6    6  503    0  0.89232312138E+01  0.26893607197E+01 -0.32549272630E+01  0.98717408730E+01  0.00000000000E+00 0. -1.
         -1    1    6    6    0  503  0.48212432158E+03 -0.51852422125E+03  0.12712281108E+02  0.70814746457E+03  0.00000000000E+00 0.  1.
<mgrwt>
<rscale>  0 0.25856846E+04</rscale>
<asrwt>0</asrwt>
<pdfrwt beam="1">  1        2 0.20341354E+00 0.25856846E+04</pdfrwt>
<pdfrwt beam="2">  1       -1 0.19448429E+00 0.25856846E+04</pdfrwt>
<totfact> 0.26614650E+00</totfact>
</mgrwt>
</event>
<event>
12    6  0.1538774E-007  0.1650063E+04  0.7818608E-02  0.8790369E-01
         -1   -1    0    0    0  501 -0.00000000000E+00  0.00000000000E+00  0.30005286248E+03  0.30005286248E+03  0.00000000000E+00 0.  1.
          2   -1    0    0  501    0  0.00000000000E+00 -0.00000000000E+00 -0.22685240412E+04  0.22685240412E+04  0.00000000000E+00 0. -1.
         24    2    1    2    0    0 -0.50553096286E+03 -0.17938492221E+03 -0.10374710098E+04  0.11705957003E+04  0.78788911569E+02 0.  0.
        254    2    1    2    0    0  0.50553096286E+03  0.17938492221E+03 -0.93100016890E+03  0.13979812034E+04  0.89434312534E+03 0.  0.
         23    2    4    4    0    0  0.63176765044E+03 -0.12634623750E+03 -0.39456600109E+03  0.76100046136E+03  0.91354458569E+02 0.  0.
         23    2    4    4    0    0 -0.12623668757E+03  0.30573115971E+03 -0.53643416782E+03  0.63698074205E+03  0.92604568105E+02 0.  0.
          4    1    3    3  502    0 -0.50583154370E+03 -0.17127353231E+03 -0.10209875103E+04  0.11522220574E+04  0.00000000000E+00 0. -1.
         -3    1    3    3    0  502  0.30058083404E+00 -0.81113899015E+01 -0.16483499562E+02  0.18373642883E+02  0.00000000000E+00 0.  1.
         11    1    5    5    0    0  0.20654248775E+03 -0.71888595099E+00 -0.14295338185E+03  0.25118914273E+03  0.00000000000E+00 0.  1.
        -11    1    5    5    0    0  0.42522516269E+03 -0.12562735155E+03 -0.25161261924E+03  0.50981131863E+03  0.00000000000E+00 0. -1.
          1    1    6    6  503    0 -0.98875137787E+02  0.28123968885E+03 -0.42111033724E+03  0.51595152058E+03  0.00000000000E+00 0. -1.
         -1    1    6    6    0  503 -0.27361549786E+02  0.24491470867E+02 -0.11532383058E+03  0.12102922147E+03  0.00000000000E+00 0.  1.
<mgrwt>
<rscale>  0 0.16500632E+04</rscale>
<asrwt>0</asrwt>
<pdfrwt beam="1">  1        2 0.34900370E+00 0.16500632E+04</pdfrwt>
<pdfrwt beam="2">  1       -1 0.46161978E-01 0.16500632E+04</pdfrwt>
<totfact> 0.24013754E+01</totfact>
</mgrwt>
</event>
<event>
12    6  0.1538774E-007  0.1767008E+04  0.7818608E-02  0.8724044E-01
          2   -1    0    0  501    0  0.00000000000E+00  0.00000000000E+00  0.16291144242E+04  0.16291144242E+04  0.00000000000E+00 0. -1.
         -1   -1    0    0    0  501 -0.00000000000E+00 -0.00000000000E+00 -0.47914314324E+03  0.47914314324E+03  0.00000000000E+00 0.  1.
         24    2    1    2    0    0  0.45596305283E+03 -0.18893856094E+03  0.90321409571E+03  0.10323745405E+04  0.80008772888E+02 0.  0.
        254    2    1    2    0    0 -0.45596305283E+03  0.18893856094E+03  0.24675718526E+03  0.10758830270E+04  0.92359898980E+03 0.  0.
         23    2    4    4    0    0 -0.58449306921E+03 -0.20232307050E+03  0.16291423449E+03  0.64576308163E+03  0.88893964810E+02 0.  0.
         23    2    4    4    0    0  0.12853001639E+03  0.39126163143E+03  0.83842950762E+02  0.43011994537E+03  0.91476213668E+02 0.  0.
          2    1    3    3  502    0  0.28515461528E+03 -0.15810636414E+03  0.57008357643E+03  0.65673895964E+03  0.00000000000E+00 0. -1.
         -1    1    3    3    0  502  0.17080843755E+03 -0.30832196794E+02  0.33313051928E+03  0.37563558081E+03  0.00000000000E+00 0.  1.
         11    1    5    5    0    0 -0.49768497232E+03 -0.13861146173E+03  0.12430301086E+03  0.53137059338E+03  0.00000000000E+00 0. -1.
        -11    1    5    5    0    0 -0.86808096894E+02 -0.63711608768E+02  0.38611223634E+02  0.11439248825E+03  0.00000000000E+00 0.  1.
          2    1    6    6  503    0  0.43718437128E+02  0.92458892422E+02 -0.16738452888E+02  0.10363457115E+03  0.00000000000E+00 0. -1.
         -2    1    6    6    0  503  0.84811579259E+02  0.29880273901E+03  0.10058140365E+03  0.32648537422E+03  0.00000000000E+00 0.  1.
<mgrwt>
<rscale>  0 0.17670076E+04</rscale>
<asrwt>0</asrwt>
<pdfrwt beam="1">  1        2 0.25063299E+00 0.17670076E+04</pdfrwt>
<pdfrwt beam="2">  1       -1 0.73714330E-01 0.17670076E+04</pdfrwt>
<totfact> 0.21470517E+01</totfact>
</mgrwt>
</event>
<event>
12    6  0.1538774E-007  0.2099585E+04  0.7818608E-02  0.8561426E-01
         -1   -1    0    0    0  501 -0.00000000000E+00  0.00000000000E+00  0.59675447094E+03  0.59675447094E+03  0.00000000000E+00 0.  1.
          2   -1    0    0  501    0  0.00000000000E+00 -0.00000000000E+00 -0.18467632116E+04  0.18467632116E+04  0.00000000000E+00 0. -1.
         24    2    1    2    0    0  0.32964770587E+03  0.66034984016E+03  0.23808436235E+01  0.74251076621E+03  0.81160631746E+02 0.  0.
        254    2    1    2    0    0 -0.32964770587E+03 -0.66034984016E+03 -0.12523895843E+04  0.17010069163E+04  0.88329798887E+03 0.  0.
         23    2    4    4    0    0  0.20856686711E+03 -0.17113656455E+03 -0.77657776038E+03  0.82713329187E+03  0.91041764166E+02 0.  0.
         23    2    4    4    0    0 -0.53821457299E+03 -0.48921327561E+03 -0.47581182387E+03  0.87387362442E+03  0.90849678652E+02 0.  0.
          4    1    3    3  502    0  0.37759093428E+02  0.40837113939E+02 -0.14475101843E+02  0.57471276171E+02  0.00000000000E+00 0. -1.
         -3    1    3    3    0  502  0.29188861245E+03  0.61951272622E+03  0.16855945467E+02  0.68503949004E+03  0.00000000000E+00 0.  1.
         11    1    5    5    0    0  0.14715105319E+03 -0.16224113053E+03 -0.65467307184E+03  0.69034226865E+03  0.00000000000E+00 0. -1.
        -11    1    5    5    0    0  0.61415813924E+02 -0.88954340203E+01 -0.12190468853E+03  0.13679102322E+03  0.00000000000E+00 0.  1.
          3    1    6    6  503    0 -0.90439547974E+02 -0.59727719724E+02 -0.39440730939E+02  0.11533552618E+03  0.00000000000E+00 0. -1.
         -3    1    6    6    0  503 -0.44777502501E+03 -0.42948555588E+03 -0.43637109293E+03  0.75853809824E+03  0.00000000000E+00 0.  1.
<mgrwt>
<rscale>  0 0.20995849E+04</rscale>
<asrwt>0</asrwt>
<pdfrwt beam="1">  1        2 0.28411742E+00 0.20995849E+04</pdfrwt>
<pdfrwt beam="2">  1       -1 0.91808380E-01 0.20995849E+04</pdfrwt>
<totfact> 0.98573936E+00</totfact>
</mgrwt>
</event>
<event>
12    6  0.1538774E-007  0.1613640E+04  0.7818608E-02  0.8812212E-01
          2   -1    0    0  501    0  0.00000000000E+00  0.00000000000E+00  0.60495576243E+03  0.60495576243E+03  0.00000000000E+00 0. -1.
         -1   -1    0    0    0  501 -0.00000000000E+00 -0.00000000000E+00 -0.10760428425E+04  0.10760428425E+04  0.00000000000E+00 0.  1.
         24    2    1    2    0    0  0.55330919618E+02  0.37280625388E+03  0.25283398957E+03  0.46429113483E+03  0.97955183660E+02 0.  0.
        254    2    1    2    0    0 -0.55330919618E+02 -0.37280625388E+03 -0.72392106958E+03  0.12167074701E+04  0.90236873787E+03 0.  0.
         23    2    4    4    0    0 -0.42250494467E+03 -0.30926926512E+03 -0.62622857068E+03  0.82102031847E+03  0.88058128445E+02 0.  0.
         23    2    4    4    0    0  0.36717402506E+03 -0.63536988765E+02 -0.97692498898E+02  0.39568715158E+03  0.90392388857E+02 0.  0.
          2    1    3    3  502    0  0.43595739955E+02  0.36309497107E+03  0.21671809725E+03  0.42509443684E+03  0.00000000000E+00 0. -1.
         -1    1    3    3    0  502  0.11735179663E+02  0.97112828123E+01  0.36115892318E+02  0.39196697993E+02  0.00000000000E+00 0.  1.
         11    1    5    5    0    0 -0.34164267707E+03 -0.20442224684E+03 -0.45562525824E+03  0.60506408730E+03  0.00000000000E+00 0. -1.
        -11    1    5    5    0    0 -0.80862267603E+02 -0.10484701828E+03 -0.17060331245E+03  0.21595623117E+03  0.00000000000E+00 0.  1.
          1    1    6    6  503    0  0.28748249744E+03 -0.84633032787E+02 -0.62911234199E+02  0.30621358553E+03  0.00000000000E+00 0. -1.
         -1    1    6    6    0  503  0.79691527613E+02  0.21096044022E+02 -0.34781264699E+02  0.89473566045E+02  0.00000000000E+00 0.  1.
<mgrwt>
<rscale>  0 0.16136398E+04</rscale>
<asrwt>0</asrwt>
<pdfrwt beam="1">  1        2 0.93070118E-01 0.16136398E+04</pdfrwt>
<pdfrwt beam="2">  1       -1 0.16554505E+00 0.16136398E+04</pdfrwt>
<totfact> 0.14267097E+01</totfact>
</mgrwt>
</event>
<event>
12    6  0.1538774E-007  0.1473515E+04  0.7818608E-02  0.8902259E-01
         -1   -1    0    0    0  501 -0.00000000000E+00  0.00000000000E+00  0.96275582522E+03  0.96275582522E+03  0.00000000000E+00 0.  1.
          2   -1    0    0  501    0  0.00000000000E+00 -0.00000000000E+00 -0.56381039375E+03  0.56381039375E+03  0.00000000000E+00 0. -1.
         24    2    1    2    0    0  0.28686458616E+03  0.85262288984E+02 -0.22676385374E+03  0.38385979478E+03  0.79784384262E+02 0.  0.
        254    2    1    2    0    0 -0.28686458616E+03 -0.85262288984E+02  0.62570928522E+03  0.11427064242E+04  0.90813265196E+03 0.  0.
         23    2    4    4    0    0 -0.41075557772E+03 -0.40286894231E+03  0.27565698174E+03  0.64567539018E+03  0.99430420850E+02 0.  0.
         23    2    4    4    0    0  0.12389099156E+03  0.31760665333E+03  0.35005230348E+03  0.49703103401E+03  0.90995986555E+02 0.  0.
          4    1    3    3  502    0  0.18340432515E+03  0.14308825372E+02 -0.12641020756E+03  0.22320714491E+03  0.00000000000E+00 0. -1.
         -3    1    3    3    0  502  0.10346026101E+03  0.70953463612E+02 -0.10035364618E+03  0.16065264987E+03  0.00000000000E+00 0.  1.
         11    1    5    5    0    0 -0.23287948234E+03 -0.15881503520E+03  0.13329780436E+03  0.31180662813E+03  0.00000000000E+00 0. -1.
        -11    1    5    5    0    0 -0.17787609538E+03 -0.24405390711E+03  0.14235917738E+03  0.33386876205E+03  0.00000000000E+00 0.  1.
          1    1    6    6  503    0  0.90105887753E+02  0.30182622648E+03  0.32128000476E+03  0.44993219873E+03  0.00000000000E+00 0.  1.
         -1    1    6    6    0  503  0.33785103808E+02  0.15780426852E+02  0.28772298719E+02  0.47098835278E+02  0.00000000000E+00 0. -1.
<mgrwt>
<rscale>  0 0.14735152E+04</rscale>
<asrwt>0</asrwt>
<pdfrwt beam="1">  1        2 0.86740061E-01 0.14735152E+04</pdfrwt>
<pdfrwt beam="2">  1       -1 0.14811628E+00 0.14735152E+04</pdfrwt>
<totfact> 0.21350060E+01</totfact>
</mgrwt>
</event>
<event>
12    6  0.1538774E-007  0.1233375E+04  0.7818608E-02  0.9084134E-01
         -1   -1    0    0    0  501 -0.00000000000E+00  0.00000000000E+00  0.67297501068E+03  0.67297501068E+03  0.00000000000E+00 0.  1.
          2   -1    0    0  501    0  0.00000000000E+00 -0.00000000000E+00 -0.56510825160E+03  0.56510825160E+03  0.00000000000E+00 0. -1.
         24    2    1    2    0    0 -0.20098811045E+02  0.20262086798E+03  0.24109843255E+03  0.32522517387E+03  0.78637021792E+02 0.  0.
        254    2    1    2    0    0  0.20098811045E+02 -0.20262086798E+03 -0.13323167347E+03  0.91285808841E+03  0.87982954736E+03 0.  0.
         23    2    4    4    0    0  0.33917830410E+03 -0.36964826585E+03 -0.17269657030E+03  0.53905505321E+03  0.95260078641E+02 0.  0.
         23    2    4    4    0    0 -0.31907949306E+03  0.16702739787E+03  0.39464896831E+02  0.37380303520E+03  0.91985632104E+02 0.  0.
          4    1    3    3  502    0 -0.12858474023E+02  0.14448680792E+01  0.34144381761E+02  0.36513926163E+02  0.00000000000E+00 0. -1.
         -3    1    3    3    0  502 -0.72403370214E+01  0.20117599990E+03  0.20695405079E+03  0.28871124771E+03  0.00000000000E+00 0.  1.
         11    1    5    5    0    0  0.36493643958E+02 -0.85021487990E+02 -0.10846975233E+02  0.93156300598E+02  0.00000000000E+00 0.  1.
        -11    1    5    5    0    0  0.30268466014E+03 -0.28462677786E+03 -0.16184959506E+03  0.44589875261E+03  0.00000000000E+00 0. -1.
          3    1    6    6  503    0 -0.22991141481E+03  0.97151079129E+02 -0.10885328366E+02  0.24983210604E+03  0.00000000000E+00 0. -1.
         -3    1    6    6    0  503 -0.89168078251E+02  0.69876318736E+02  0.50350225196E+02  0.12397092916E+03  0.00000000000E+00 0.  1.
<mgrwt>
<rscale>  0 0.12333754E+04</rscale>
<asrwt>0</asrwt>
<pdfrwt beam="1">  1        2 0.86939731E-01 0.12333754E+04</pdfrwt>
<pdfrwt beam="2">  1       -1 0.10353462E+00 0.12333754E+04</pdfrwt>
<totfact> 0.52800724E+01</totfact>
</mgrwt>
</event>
<event>
12    6  0.1538774E-007  0.2146849E+04  0.7818608E-02  0.8540882E-01
          2   -1    0    0  501    0  0.00000000000E+00  0.00000000000E+00  0.20632918654E+04  0.20632918654E+04  0.00000000000E+00 0. -1.
         -1   -1    0    0    0  501 -0.00000000000E+00 -0.00000000000E+00 -0.55844771691E+03  0.55844771691E+03  0.00000000000E+00 0.  1.
         24    2    1    2    0    0  0.20246988558E+03  0.57346005337E+03 -0.16384055145E+03  0.63491939288E+03  0.80177439315E+02 0.  0.
        254    2    1    2    0    0 -0.20246988558E+03 -0.57346005337E+03  0.16686846999E+04  0.19868201894E+04  0.89055900982E+03 0.  0.
         23    2    4    4    0    0 -0.15598690694E+03 -0.54562053683E+03  0.37083260263E+03  0.68443951339E+03  0.94376601801E+02 0.  0.
         23    2    4    4    0    0 -0.46482978641E+02 -0.27839516540E+02  0.12978520973E+04  0.13023806760E+04  0.94019428156E+02 0.  0.
          2    1    3    3  502    0  0.96444865614E+01  0.16394949358E+01 -0.74610839109E+00  0.98112559037E+01  0.00000000000E+00 0. -1.
         -1    1    3    3    0  502  0.19282539902E+03  0.57182055844E+03 -0.16309444306E+03  0.62510813698E+03  0.00000000000E+00 0.  1.
         11    1    5    5    0    0 -0.16327149997E+03 -0.54280935281E+03  0.36160838179E+03  0.67235422062E+03  0.00000000000E+00 0. -1.
        -11    1    5    5    0    0  0.72845930337E+01 -0.28111840217E+01  0.92242208448E+01  0.12085292775E+02  0.00000000000E+00 0.  1.
          2    1    6    6  503    0 -0.28729410508E+02 -0.62329929342E+02  0.91412123036E+03  0.91669407270E+03  0.00000000000E+00 0.  1.
         -2    1    6    6    0  503 -0.17753568133E+02  0.34490412802E+02  0.38373086694E+03  0.38568660334E+03  0.00000000000E+00 0. -1.
<mgrwt>
<rscale>  0 0.21468494E+04</rscale>
<asrwt>0</asrwt>
<pdfrwt beam="1">  1        2 0.31742951E+00 0.21468494E+04</pdfrwt>
<pdfrwt beam="2">  1       -1 0.85915034E-01 0.21468494E+04</pdfrwt>
<totfact> 0.86092882E+00</totfact>
</mgrwt>
</event>
<event>
12    6  0.1538774E-007  0.1326584E+04  0.7818608E-02  0.9008746E-01
         -1   -1    0    0    0  501 -0.00000000000E+00  0.00000000000E+00  0.26780322623E+03  0.26780322623E+03  0.00000000000E+00 0.  1.
          2   -1    0    0  501    0  0.00000000000E+00 -0.00000000000E+00 -0.16428335974E+04  0.16428335974E+04  0.00000000000E+00 0. -1.
         24    2    1    2    0    0  0.23358129832E+03 -0.21034107104E+03 -0.14244285145E+03  0.35348357011E+03  0.76531557659E+02 0.  0.
        254    2    1    2    0    0 -0.23358129832E+03  0.21034107104E+03 -0.12325875197E+04  0.15571532535E+04  0.89813733476E+03 0.  0.
         23    2    4    4    0    0 -0.47949366098E+03  0.29116794987E+03 -0.11226125219E+04  0.12588340457E+04  0.98546101964E+02 0.  0.
         23    2    4    4    0    0  0.24591236266E+03 -0.80826878823E+02 -0.10997499783E+03  0.29831920788E+03  0.99468463292E+02 0.  0.
          4    1    3    3  502    0  0.32110466346E+02 -0.60151096641E+01 -0.32820764801E+02  0.46308381481E+02  0.00000000000E+00 0. -1.
         -3    1    3    3    0  502  0.20147083197E+03 -0.20432596138E+03 -0.10962208665E+03  0.30717518863E+03  0.00000000000E+00 0.  1.
         11    1    5    5    0    0 -0.79520143414E+02  0.86789362713E+02 -0.18652166313E+03  0.22055878469E+03  0.00000000000E+00 0. -1.
        -11    1    5    5    0    0 -0.39997351757E+03  0.20437858715E+03 -0.93609085879E+03  0.10382752610E+04  0.00000000000E+00 0.  1.
          4    1    6    6  503    0  0.67409033911E+02 -0.51491261198E+02 -0.76753995270E+02  0.11439625703E+03  0.00000000000E+00 0. -1.
         -4    1    6    6    0  503  0.17850332875E+03 -0.29335617625E+02 -0.33221002560E+02  0.18392295085E+03  0.00000000000E+00 0.  1.
<mgrwt>
<rscale>  0 0.13265838E+04</rscale>
<asrwt>0</asrwt>
<pdfrwt beam="1">  1        2 0.25274362E+00 0.13265838E+04</pdfrwt>
<pdfrwt beam="2">  1       -1 0.41200498E-01 0.13265838E+04</pdfrwt>
<totfact> 0.67852132E+01</totfact>
</mgrwt>
</event>
<event>
12    6  0.1538774E-007  0.1545588E+04  0.7818608E-02  0.8854691E-01
         -1   -1    0    0    0  501 -0.00000000000E+00  0.00000000000E+00  0.84824629015E+03  0.84824629015E+03  0.00000000000E+00 0.  1.
          2   -1    0    0  501    0  0.00000000000E+00 -0.00000000000E+00 -0.70405296967E+03  0.70405296967E+03  0.00000000000E+00 0. -1.
         24    2    1    2    0    0  0.33132674072E+02  0.34469834267E+03 -0.29661430506E+03  0.46267151317E+03  0.78550376233E+02 0.  0.
        254    2    1    2    0    0 -0.33132674072E+02 -0.34469834267E+03  0.44080762553E+03  0.10896277466E+04  0.93437815792E+03 0.  0.
         23    2    4    4    0    0 -0.38507813576E+03  0.11053698440E+03  0.21573653064E+03  0.46448323891E+03  0.93267534591E+02 0.  0.
         23    2    4    4    0    0  0.35194546169E+03 -0.45523532706E+03  0.22507109489E+03  0.62514450774E+03  0.95099141865E+02 0.  0.
          4    1    3    3  502    0  0.39267377610E+02  0.18255647360E+03 -0.20092903565E+03  0.27430142246E+03  0.00000000000E+00 0. -1.
         -3    1    3    3    0  502 -0.61347035381E+01  0.16214186907E+03 -0.95685269409E+02  0.18837009071E+03  0.00000000000E+00 0.  1.
         11    1    5    5    0    0 -0.21258279888E+03  0.10703752454E+03  0.13931598860E+03  0.27578510243E+03  0.00000000000E+00 0.  1.
        -11    1    5    5    0    0 -0.17249533688E+03  0.34994598561E+01  0.76420542037E+02  0.18869813648E+03  0.00000000000E+00 0. -1.
          1    1    6    6  503    0  0.15778131034E+03 -0.16003222329E+03  0.12838860449E+03  0.25882211680E+03  0.00000000000E+00 0. -1.
         -1    1    6    6    0  503  0.19416415135E+03 -0.29520310378E+03  0.96682490408E+02  0.36632239094E+03  0.00000000000E+00 0.  1.
<mgrwt>
<rscale>  0 0.15455877E+04</rscale>
<asrwt>0</asrwt>
<pdfrwt beam="1">  1        2 0.10831584E+00 0.15455877E+04</pdfrwt>
<pdfrwt beam="2">  1       -1 0.13049943E+00 0.15455877E+04</pdfrwt>
<totfact> 0.22470499E+01</totfact>
</mgrwt>
</event>
<event>
12    6  0.1538774E-007  0.2202295E+04  0.7818608E-02  0.8517474E-01
         -1   -1    0    0    0  501 -0.00000000000E+00  0.00000000000E+00  0.68596181832E+03  0.68596181832E+03  0.00000000000E+00 0.  1.
          2   -1    0    0  501    0  0.00000000000E+00 -0.00000000000E+00 -0.17676283308E+04  0.17676283308E+04  0.00000000000E+00 0. -1.
         24    2    1    2    0    0  0.34479020265E+03 -0.75799619687E+03 -0.33783173980E+02  0.83719510632E+03  0.79472164300E+02 0.  0.
        254    2    1    2    0    0 -0.34479020265E+03  0.75799619687E+03 -0.10478833385E+04  0.16163950428E+04  0.90622013056E+03 0.  0.
         23    2    4    4    0    0 -0.54245596838E+03  0.63520502094E+03 -0.10759726619E+04  0.13650241146E+04  0.88485975282E+02 0.  0.
         23    2    4    4    0    0  0.19766576573E+03  0.12279117592E+03  0.28089323382E+02  0.25137092830E+03  0.90823486378E+02 0.  0.
          2    1    3    3  502    0  0.31175499435E+02 -0.12600123660E+03  0.10862826381E+02  0.13025446014E+03  0.00000000000E+00 0. -1.
         -1    1    3    3    0  502  0.31361470321E+03 -0.63199496027E+03 -0.44646000360E+02  0.70694064618E+03  0.00000000000E+00 0.  1.
         11    1    5    5    0    0 -0.79444216323E+02  0.54424460471E+02 -0.14491044205E+03  0.17398977447E+03  0.00000000000E+00 0. -1.
        -11    1    5    5    0    0 -0.46301175205E+03  0.58078056047E+03 -0.93106221988E+03  0.11910343401E+04  0.00000000000E+00 0.  1.
          4    1    6    6  503    0  0.17732794881E+02 -0.13255796162E+02  0.12095576285E+02  0.25228379097E+02  0.00000000000E+00 0. -1.
         -4    1    6    6    0  503  0.17993297085E+03  0.13604697209E+03  0.15993747097E+02  0.22614254920E+03  0.00000000000E+00 0.  1.
<mgrwt>
<rscale>  0 0.22022948E+04</rscale>
<asrwt>0</asrwt>
<pdfrwt beam="1">  1        2 0.27194282E+00 0.22022948E+04</pdfrwt>
<pdfrwt beam="2">  1       -1 0.10553259E+00 0.22022948E+04</pdfrwt>
<totfact> 0.78733343E+00</totfact>
</mgrwt>
</event>
<event>
12    6  0.1538774E-007  0.1195724E+04  0.7818608E-02  0.9116607E-01
          2   -1    0    0  501    0  0.00000000000E+00  0.00000000000E+00  0.16680571507E+04  0.16680571507E+04  0.00000000000E+00 0. -1.
         -1   -1    0    0    0  501 -0.00000000000E+00 -0.00000000000E+00 -0.21428464905E+03  0.21428464905E+03  0.00000000000E+00 0.  1.
         24    2    1    2    0    0 -0.10500307296E+02 -0.13831091441E+03 -0.26377021895E+02  0.16201049069E+03  0.79444863343E+02 0.  0.
        254    2    1    2    0    0  0.10500307296E+02  0.13831091441E+03  0.14801495235E+04  0.17203313090E+04  0.86571186624E+03 0.  0.
         23    2    4    4    0    0  0.81275425231E+02  0.25373225081E+03  0.15202704921E+04  0.15462288608E+04  0.92820099524E+02 0.  0.
         23    2    4    4    0    0 -0.70775117935E+02 -0.11542133640E+03 -0.40120968596E+02  0.17410244824E+03  0.10183696847E+03 0.  0.
          4    1    3    3  502    0  0.22987145500E+02 -0.79996007661E+02  0.12758550949E+02  0.84205407916E+02  0.00000000000E+00 0. -1.
         -3    1    3    3    0  502 -0.33487452796E+02 -0.58314906753E+02 -0.39135572844E+02  0.77805082778E+02  0.00000000000E+00 0.  1.
         11    1    5    5    0    0 -0.13233575423E+02  0.10048599753E+03  0.60234065413E+03  0.61080833887E+03  0.00000000000E+00 0. -1.
        -11    1    5    5    0    0  0.94509000654E+02  0.15324625328E+03  0.91792983799E+03  0.93542052192E+03  0.00000000000E+00 0.  1.
          4    1    6    6  503    0 -0.43065425579E+02 -0.88134013161E+02  0.22264527136E+02  0.10058799295E+03  0.00000000000E+00 0.  1.
         -4    1    6    6    0  503 -0.27709692356E+02 -0.27287323239E+02 -0.62385495732E+02  0.73514455298E+02  0.00000000000E+00 0. -1.
<mgrwt>
<rscale>  0 0.11957241E+04</rscale>
<asrwt>0</asrwt>
<pdfrwt beam="1">  1        2 0.25662417E+00 0.11957241E+04</pdfrwt>
<pdfrwt beam="2">  1       -1 0.32966870E-01 0.11957241E+04</pdfrwt>
<totfact> 0.99200280E+01</totfact>
</mgrwt>
</event>
<event>
12    6  0.1538774E-007  0.1875499E+04  0.7818608E-02  0.8667149E-01
          2   -1    0    0  501    0  0.00000000000E+00  0.00000000000E+00  0.24793081092E+04  0.24793081092E+04  0.00000000000E+00 0. -1.
         -1   -1    0    0    0  501 -0.00000000000E+00 -0.00000000000E+00 -0.35468513810E+03  0.35468513810E+03  0.00000000000E+00 0.  1.
         24    2    1    2    0    0 -0.31528652359E+03  0.32014593107E+03  0.16709755269E+04  0.17323007375E+04  0.82508330714E+02 0.  0.
        254    2    1    2    0    0  0.31528652359E+03 -0.32014593107E+03  0.45364744425E+03  0.11016925098E+04  0.89779250017E+03 0.  0.
         23    2    4    4    0    0  0.35459455989E+03  0.11629419452E+03  0.52274733954E+03  0.64938296760E+03  0.95769598655E+02 0.  0.
         23    2    4    4    0    0 -0.39308036298E+02 -0.43644012558E+03 -0.69099895297E+02  0.45230954221E+03  0.88227101887E+02 0.  0.
          4    1    3    3  502    0 -0.97564848257E+02  0.13082366594E+03  0.73324271142E+03  0.75118480086E+03  0.00000000000E+00 0. -1.
         -3    1    3    3    0  502 -0.21772167533E+03  0.18932226513E+03  0.93773281545E+03  0.98111593665E+03  0.00000000000E+00 0.  1.
         11    1    5    5    0    0  0.11323850906E+03  0.34725628658E+02  0.96395087559E+02  0.15271163062E+03  0.00000000000E+00 0. -1.
        -11    1    5    5    0    0  0.24135605083E+03  0.81568565858E+02  0.42635225199E+03  0.49667133698E+03  0.00000000000E+00 0.  1.
          1    1    6    6  503    0 -0.24085811184E+02 -0.18496220784E+03  0.13926914708E+02  0.18704305275E+03  0.00000000000E+00 0. -1.
         -1    1    6    6    0  503 -0.15222225115E+02 -0.25147791775E+03 -0.83026810005E+02  0.26526648946E+03  0.00000000000E+00 0.  1.
<mgrwt>
<rscale>  0 0.18754986E+04</rscale>
<asrwt>0</asrwt>
<pdfrwt beam="1">  1        2 0.38143201E+00 0.18754986E+04</pdfrwt>
<pdfrwt beam="2">  1       -1 0.54566946E-01 0.18754986E+04</pdfrwt>
<totfact> 0.12982242E+01</totfact>
</mgrwt>
</event>
<event>
12    6  0.1538774E-007  0.1350494E+04  0.7818608E-02  0.8990454E-01
          2   -1    0    0  501    0  0.00000000000E+00  0.00000000000E+00  0.17373852213E+04  0.17373852213E+04  0.00000000000E+00 0. -1.
         -1   -1    0    0    0  501 -0.00000000000E+00 -0.00000000000E+00 -0.26243944181E+03  0.26243944181E+03  0.00000000000E+00 0.  1.
         24    2    1    2    0    0 -0.19127486002E+03  0.12397354870E+03  0.83251139301E+03  0.86678690385E+03  0.79301981898E+02 0.  0.
        254    2    1    2    0    0  0.19127486002E+03 -0.12397354870E+03  0.64243438649E+03  0.11330377593E+04  0.90503983897E+03 0.  0.
         23    2    4    4    0    0 -0.71230876086E+02 -0.41903859869E+03  0.57579755225E+03  0.72152624476E+03  0.91597575299E+02 0.  0.
         23    2    4    4    0    0  0.26250573611E+03  0.29506504998E+03  0.66636834241E+02  0.41151151451E+03  0.94491341841E+02 0.  0.
          2    1    3    3  502    0 -0.91768820539E+02  0.15500007193E+02  0.36302306496E+03  0.37476327507E+03  0.00000000000E+00 0. -1.
         -1    1    3    3    0  502 -0.99506039483E+02  0.10847354151E+03  0.46948832805E+03  0.49202362878E+03  0.00000000000E+00 0.  1.
         11    1    5    5    0    0 -0.67762423351E+02 -0.34712792486E+03  0.52652467365E+03  0.63428524671E+03  0.00000000000E+00 0. -1.
        -11    1    5    5    0    0 -0.34684527351E+01 -0.71910673825E+02  0.49272878604E+02  0.87240998047E+02  0.00000000000E+00 0.  1.
          2    1    6    6  503    0  0.13290724454E+03  0.18561098018E+03 -0.25680202368E+01  0.22830323332E+03  0.00000000000E+00 0.  1.
         -2    1    6    6    0  503  0.12959849157E+03  0.10945406980E+03  0.69204854478E+02  0.18320828119E+03  0.00000000000E+00 0. -1.
<mgrwt>
<rscale>  0 0.13504938E+04</rscale>
<asrwt>0</asrwt>
<pdfrwt beam="1">  1        2 0.26729003E+00 0.13504938E+04</pdfrwt>
<pdfrwt beam="2">  1       -1 0.40375300E-01 0.13504938E+04</pdfrwt>
<totfact> 0.62282837E+01</totfact>
</mgrwt>
</event>
<event>
12    6  0.1538774E-007  0.2525812E+04  0.7818608E-02  0.8393847E-01
          2   -1    0    0  501    0  0.00000000000E+00  0.00000000000E+00  0.31740203073E+04  0.31740203073E+04  0.00000000000E+00 0. -1.
         -1   -1    0    0    0  501 -0.00000000000E+00 -0.00000000000E+00 -0.50249573292E+03  0.50249573292E+03  0.00000000000E+00 0.  1.
         24    2    1    2    0    0 -0.14889750411E+02  0.49794110167E+03  0.25867775835E+04  0.26361350527E+04  0.98095384527E+02 0.  0.
        254    2    1    2    0    0  0.14889750411E+02 -0.49794110167E+03  0.84746990919E+02  0.10403809875E+04  0.90941932093E+03 0.  0.
         23    2    4    4    0    0  0.24858361905E+03 -0.39633191127E+03  0.40205296057E+03  0.62375860370E+03  0.92495475770E+02 0.  0.
         23    2    4    4    0    0 -0.23369386864E+03 -0.10160919040E+03 -0.31730596965E+03  0.41662238380E+03  0.89184530605E+02 0.  0.
          4    1    3    3  502    0  0.36332885209E+02  0.16009942371E+03  0.73728197012E+03  0.75533873691E+03  0.00000000000E+00 0. -1.
         -3    1    3    3    0  502 -0.51222635621E+02  0.33784167797E+03  0.18494956134E+04  0.18807963158E+04  0.00000000000E+00 0.  1.
         11    1    5    5    0    0  0.18729371542E+03 -0.21606852099E+03  0.25594667788E+03  0.38376196205E+03  0.00000000000E+00 0.  1.
        -11    1    5    5    0    0  0.61289903628E+02 -0.18026339028E+03  0.14610628269E+03  0.23999664165E+03  0.00000000000E+00 0. -1.
          3    1    6    6  503    0  0.38947061600E+01  0.22345619429E+01 -0.27039309717E+02  0.27409601842E+02  0.00000000000E+00 0. -1.
         -3    1    6    6    0  503 -0.23758857480E+03 -0.10384375234E+03 -0.29026665993E+03  0.38921278196E+03  0.00000000000E+00 0.  1.
<mgrwt>
<rscale>  0 0.25258121E+04</rscale>
<asrwt>0</asrwt>
<pdfrwt beam="1">  1        2 0.48831080E+00 0.25258121E+04</pdfrwt>
<pdfrwt beam="2">  1       -1 0.77307038E-01 0.25258121E+04</pdfrwt>
<totfact> 0.22898670E+00</totfact>
</mgrwt>
</event>
<event>
12    6  0.1538774E-007  0.2470607E+04  0.7818608E-02  0.8413532E-01
         -1   -1    0    0    0  501 -0.00000000000E+00  0.00000000000E+00  0.45787514033E+03  0.45787514033E+03  0.00000000000E+00 0.  1.
          2   -1    0    0  501    0  0.00000000000E+00 -0.00000000000E+00 -0.33327319107E+04  0.33327319107E+04  0.00000000000E+00 0. -1.
         24    2    1    2    0    0 -0.26125394766E+03  0.54851545980E+03 -0.25876850120E+04  0.26592260029E+04  0.79034034266E+02 0.  0.
        254    2    1    2    0    0  0.26125394766E+03 -0.54851545980E+03 -0.28717175843E+03  0.11313810481E+04  0.91018274124E+03 0.  0.
         23    2    4    4    0    0  0.56062149754E+03 -0.45622550581E+03 -0.56260418737E+02  0.73130456236E+03  0.95932020447E+02 0.  0.
         23    2    4    4    0    0 -0.29936754988E+03 -0.92289953985E+02 -0.23091133969E+03  0.40007648579E+03  0.92751184107E+02 0.  0.
          4    1    3    3  502    0 -0.19980718149E+03  0.35047257983E+03 -0.18054879565E+04  0.18500109999E+04  0.00000000000E+00 0. -1.
         -3    1    3    3    0  502 -0.61446766173E+02  0.19804287997E+03 -0.78219705554E+03  0.80921500300E+03  0.00000000000E+00 0.  1.
         11    1    5    5    0    0  0.32198444168E+03 -0.20129096708E+03 -0.20478617481E+02  0.38027806653E+03  0.00000000000E+00 0. -1.
        -11    1    5    5    0    0  0.23863705586E+03 -0.25493453873E+03 -0.35781801256E+02  0.35102649583E+03  0.00000000000E+00 0.  1.
          4    1    6    6  503    0 -0.29372180682E+03 -0.10554912140E+03 -0.21778117359E+03  0.38058081455E+03  0.00000000000E+00 0. -1.
         -4    1    6    6    0  503 -0.56457430578E+01  0.13259167415E+02 -0.13130166102E+02  0.19495671239E+02  0.00000000000E+00 0.  1.
<mgrwt>
<rscale>  0 0.24706073E+04</rscale>
<asrwt>0</asrwt>
<pdfrwt beam="1">  1        2 0.51272799E+00 0.24706073E+04</pdfrwt>
<pdfrwt beam="2">  1       -1 0.70442329E-01 0.24706073E+04</pdfrwt>
<totfact> 0.21950951E+00</totfact>
</mgrwt>
</event>
<event>
12    6  0.1538774E-007  0.2010013E+04  0.7818608E-02  0.8601953E-01
          2   -1    0    0  501    0  0.00000000000E+00  0.00000000000E+00  0.16316698745E+04  0.16316698745E+04  0.00000000000E+00 0. -1.
         -1   -1    0    0    0  501 -0.00000000000E+00 -0.00000000000E+00 -0.61902124699E+03  0.61902124699E+03  0.00000000000E+00 0.  1.
         24    2    1    2    0    0 -0.31510207396E+03  0.23057514509E+03 -0.37719832048E+03  0.54880943275E+03  0.80367941052E+02 0.  0.
        254    2    1    2    0    0  0.31510207396E+03 -0.23057514509E+03  0.13898469480E+04  0.17018816888E+04  0.90126163188E+03 0.  0.
         23    2    4    4    0    0  0.48648619280E+03  0.13053016436E+03  0.10536643226E+04  0.11717603807E+04  0.95430317839E+02 0.  0.
         23    2    4    4    0    0 -0.17138411884E+03 -0.36110530946E+03  0.33618262545E+03  0.53012130806E+03  0.90776003960E+02 0.  0.
          4    1    3    3  502    0 -0.35513022933E+02  0.53599970065E+02 -0.36783741730E+02  0.74075469924E+02  0.00000000000E+00 0. -1.
         -3    1    3    3    0  502 -0.27958905103E+03  0.17697517503E+03 -0.34041457875E+03  0.47473396282E+03  0.00000000000E+00 0.  1.
         11    1    5    5    0    0  0.76369288853E+02  0.31973397170E+02  0.10627097726E+03  0.13471483591E+03  0.00000000000E+00 0.  1.
        -11    1    5    5    0    0  0.41011690395E+03  0.98556767194E+02  0.94739334530E+03  0.10370455448E+04  0.00000000000E+00 0. -1.
          3    1    6    6  503    0 -0.13968629009E+03 -0.34853973629E+03  0.30234774215E+03  0.48208543288E+03  0.00000000000E+00 0. -1.
         -3    1    6    6    0  503 -0.31697828745E+02 -0.12565573169E+02  0.33834883300E+02  0.48035875178E+02  0.00000000000E+00 0.  1.
<mgrwt>
<rscale>  0 0.20100133E+04</rscale>
<asrwt>0</asrwt>
<pdfrwt beam="1">  1        2 0.25102613E+00 0.20100133E+04</pdfrwt>
<pdfrwt beam="2">  1       -1 0.95234038E-01 0.20100133E+04</pdfrwt>
<totfact> 0.12054819E+01</totfact>
</mgrwt>
</event>
<event>
12    6  0.1538774E-007  0.1241917E+04  0.7818608E-02  0.9076937E-01
         -1   -1    0    0    0  501 -0.00000000000E+00  0.00000000000E+00  0.22433613441E+03  0.22433613441E+03  0.00000000000E+00 0.  1.
          2   -1    0    0  501    0  0.00000000000E+00 -0.00000000000E+00 -0.17188033960E+04  0.17188033960E+04  0.00000000000E+00 0. -1.
         24    2    1    2    0    0  0.13230413354E+03  0.17188057608E+03 -0.46213952828E+02  0.23647316384E+03  0.82076254762E+02 0.  0.
        254    2    1    2    0    0 -0.13230413354E+03 -0.17188057608E+03 -0.14482533087E+04  0.17066663665E+04  0.87648452595E+03 0.  0.
         23    2    4    4    0    0  0.18733717112E+03  0.27404849345E+03 -0.62263571707E+03  0.71145754166E+03  0.91097777011E+02 0.  0.
         23    2    4    4    0    0 -0.31964130466E+03 -0.44592906953E+03 -0.82561759165E+03  0.99520882486E+03  0.88164044488E+02 0.  0.
          2    1    3    3  502    0  0.14540732593E+02 -0.69192851355E+01  0.39439842017E+01  0.16579035633E+02  0.00000000000E+00 0. -1.
         -1    1    3    3    0  502  0.11776340094E+03  0.17879986122E+03 -0.50157937030E+02  0.21989412821E+03  0.00000000000E+00 0.  1.
         11    1    5    5    0    0  0.75033527590E+02  0.17243189369E+03 -0.28552382490E+03  0.34188688599E+03  0.00000000000E+00 0.  1.
        -11    1    5    5    0    0  0.11230364353E+03  0.10161659976E+03 -0.33711189217E+03  0.36957065567E+03  0.00000000000E+00 0. -1.
          3    1    6    6  503    0 -0.25530617422E+03 -0.37280236117E+03 -0.61482934236E+03  0.76300587371E+03  0.00000000000E+00 0. -1.
         -3    1    6    6    0  503 -0.64335130432E+02 -0.73126708365E+02 -0.21078824929E+03  0.23220295115E+03  0.00000000000E+00 0.  1.
<mgrwt>
<rscale>  0 0.12419174E+04</rscale>
<asrwt>0</asrwt>
<pdfrwt beam="1">  1        2 0.26443129E+00 0.12419174E+04</pdfrwt>
<pdfrwt beam="2">  1       -1 0.34513251E-01 0.12419174E+04</pdfrwt>
<totfact> 0.85394348E+01</totfact>
</mgrwt>
</event>
<event>
12    6  0.1538774E-007  0.1942358E+04  0.7818608E-02  0.8634055E-01
         -1   -1    0    0    0  501 -0.00000000000E+00  0.00000000000E+00  0.59906248151E+03  0.59906248151E+03  0.00000000000E+00 0.  1.
          2   -1    0    0  501    0  0.00000000000E+00 -0.00000000000E+00 -0.15744415406E+04  0.15744415406E+04  0.00000000000E+00 0. -1.
         24    2    1    2    0    0  0.80873681402E+02 -0.23439414668E+03  0.40997680347E+03  0.48482002739E+03  0.74083137320E+02 0.  0.
        254    2    1    2    0    0 -0.80873681402E+02  0.23439414668E+03 -0.13853558626E+04  0.16886839947E+04  0.93325323454E+03 0.  0.
         23    2    4    4    0    0  0.31773550159E+03 -0.14453914107E+03 -0.30558650661E+03  0.47351824016E+03  0.94810328895E+02 0.  0.
         23    2    4    4    0    0 -0.39860918299E+03  0.37893328775E+03 -0.10797693560E+04  0.12151657546E+04  0.90808764511E+02 0.  0.
          4    1    3    3  502    0  0.23646981632E+02 -0.14231342771E+03  0.18087613626E+03  0.23136220114E+03  0.00000000000E+00 0. -1.
         -3    1    3    3    0  502  0.57226699770E+02 -0.92080718964E+02  0.22910066721E+03  0.25345782625E+03  0.00000000000E+00 0.  1.
         11    1    5    5    0    0  0.41695120161E+02 -0.58879653088E+02 -0.50969963639E+02  0.88335914476E+02  0.00000000000E+00 0. -1.
        -11    1    5    5    0    0  0.27604038143E+03 -0.85659487984E+02 -0.25461654297E+03  0.38518232568E+03  0.00000000000E+00 0.  1.
          3    1    6    6  503    0 -0.37089793162E+03  0.31215184172E+03 -0.95366561010E+03  0.10698047223E+04  0.00000000000E+00 0.  1.
         -3    1    6    6    0  503 -0.27711251369E+02  0.66781446028E+02 -0.12610374586E+03  0.14536103228E+03  0.00000000000E+00 0. -1.
<mgrwt>
<rscale>  0 0.19423582E+04</rscale>
<asrwt>0</asrwt>
<pdfrwt beam="1">  1        2 0.24222177E+00 0.19423582E+04</pdfrwt>
<pdfrwt beam="2">  1       -1 0.92163460E-01 0.19423582E+04</pdfrwt>
<totfact> 0.14044499E+01</totfact>
</mgrwt>
</event>
<event>
12    6  0.1538774E-007  0.2932262E+04  0.7818608E-02  0.8263343E-01
         -1   -1    0    0    0  501 -0.00000000000E+00  0.00000000000E+00  0.69725232219E+03  0.69725232219E+03  0.00000000000E+00 0.  1.
          2   -1    0    0  501    0  0.00000000000E+00 -0.00000000000E+00 -0.30828735661E+04  0.30828735661E+04  0.00000000000E+00 0. -1.
         24    2    1    2    0    0 -0.40925076977E+03 -0.90469658322E+03 -0.22159650873E+04  0.24299016004E+04  0.89209971596E+02 0.  0.
        254    2    1    2    0    0  0.40925076977E+03  0.90469658322E+03 -0.16965615658E+03  0.13502242879E+04  0.89908860293E+03 0.  0.
         23    2    4    4    0    0  0.16839874752E+03  0.47821915750E+03  0.35570873512E+03  0.62591929012E+03  0.90523768895E+02 0.  0.
         23    2    4    4    0    0  0.24085202225E+03  0.42647742571E+03 -0.52536489170E+03  0.72430499778E+03  0.93363639086E+02 0.  0.
          4    1    3    3  502    0 -0.38665088973E+03 -0.78843107365E+03 -0.19736290016E+04  0.21601698786E+04  0.00000000000E+00 0. -1.
         -3    1    3    3    0  502 -0.22599880045E+02 -0.11626550957E+03 -0.24233608577E+03  0.26973172183E+03  0.00000000000E+00 0.  1.
         11    1    5    5    0    0  0.64361007781E+02  0.87749295451E+02  0.99470376655E+02  0.14743349011E+03  0.00000000000E+00 0.  1.
        -11    1    5    5    0    0  0.10403773974E+03  0.39046986205E+03  0.25623835847E+03  0.47848580001E+03  0.00000000000E+00 0. -1.
          2    1    6    6  503    0  0.19870882804E+03  0.26648784871E+03 -0.36914665297E+03  0.49675972386E+03  0.00000000000E+00 0. -1.
         -2    1    6    6    0  503  0.42143194211E+02  0.15998957700E+03 -0.15621823873E+03  0.22754527391E+03  0.00000000000E+00 0.  1.
<mgrwt>
<rscale>  0 0.29322624E+04</rscale>
<asrwt>0</asrwt>
<pdfrwt beam="1">  1        2 0.47428824E+00 0.29322624E+04</pdfrwt>
<pdfrwt beam="2">  1       -1 0.10726959E+00 0.29322624E+04</pdfrwt>
<totfact> 0.12215816E+00</totfact>
</mgrwt>
</event>
<event>
12    6  0.1538774E-007  0.1693528E+04  0.7818608E-02  0.8765064E-01
         -1   -1    0    0    0  501 -0.00000000000E+00  0.00000000000E+00  0.23309760349E+03  0.23309760349E+03  0.00000000000E+00 0.  1.
          2   -1    0    0  501    0  0.00000000000E+00 -0.00000000000E+00 -0.30760056998E+04  0.30760056998E+04  0.00000000000E+00 0. -1.
         24    2    1    2    0    0  0.42318276081E+03  0.52632220892E+02 -0.18193253525E+04  0.18703743178E+04  0.80632194491E+02 0.  0.
        254    2    1    2    0    0 -0.42318276081E+03 -0.52632220892E+02 -0.10235827439E+04  0.14387289855E+04  0.91671460145E+03 0.  0.
         23    2    4    4    0    0  0.48759076426E+02 -0.34298162928E+03 -0.71071195272E+03  0.79590748969E+03  0.91342251178E+02 0.  0.
         23    2    4    4    0    0 -0.47194183724E+03  0.29034940838E+03 -0.31287079114E+03  0.64282149582E+03  0.91101409767E+02 0.  0.
          4    1    3    3  502    0  0.21060462645E+03  0.49408233861E+02 -0.10599481511E+04  0.10817973772E+04  0.00000000000E+00 0. -1.
         -3    1    3    3    0  502  0.21257813436E+03  0.32239870314E+01 -0.75937720137E+03  0.78857694061E+03  0.00000000000E+00 0.  1.
         11    1    5    5    0    0  0.19542516599E+01 -0.20361161479E+03 -0.49096500582E+03  0.53151495343E+03  0.00000000000E+00 0.  1.
        -11    1    5    5    0    0  0.46804824766E+02 -0.13937001449E+03 -0.21974694690E+03  0.26439253626E+03  0.00000000000E+00 0. -1.
          4    1    6    6  503    0 -0.21070135839E+03  0.15561141194E+03 -0.19308781815E+03  0.32541186130E+03  0.00000000000E+00 0. -1.
         -4    1    6    6    0  503 -0.26124047884E+03  0.13473799644E+03 -0.11978297299E+03  0.31740963452E+03  0.00000000000E+00 0.  1.
<mgrwt>
<rscale>  0 0.16935283E+04</rscale>
<asrwt>0</asrwt>
<pdfrwt beam="1">  1        2 0.47323164E+00 0.16935283E+04</pdfrwt>
<pdfrwt beam="2">  1       -1 0.35861170E-01 0.16935283E+04</pdfrwt>
<totfact> 0.12621408E+01</totfact>
</mgrwt>
</event>
<event>
12    6  0.1538774E-007  0.3129586E+04  0.7818608E-02  0.8207665E-01
          2   -1    0    0  501    0  0.00000000000E+00  0.00000000000E+00  0.37478198221E+04  0.37478198221E+04  0.00000000000E+00 0. -1.
         -1   -1    0    0    0  501 -0.00000000000E+00 -0.00000000000E+00 -0.65333394455E+03  0.65333394455E+03  0.00000000000E+00 0.  1.
         24    2    1    2    0    0 -0.40771067209E+03  0.13206554996E+04  0.19977594553E+04  0.24305757648E+04  0.79352166639E+02 0.  0.
        254    2    1    2    0    0  0.40771067209E+03 -0.13206554996E+04  0.10967264223E+04  0.19705780019E+04  0.87750206575E+03 0.  0.
         23    2    4    4    0    0 -0.15589697930E+02  0.32246674582E+02  0.35416887302E+03  0.36776323978E+03  0.92365162344E+02 0.  0.
         23    2    4    4    0    0  0.42330037002E+03 -0.13529021742E+04  0.74255754924E+03  0.16028147621E+04  0.89977505274E+02 0.  0.
          2    1    3    3  502    0 -0.32257359378E+03  0.98431962511E+03  0.15469518655E+04  0.18617193456E+04  0.00000000000E+00 0. -1.
         -1    1    3    3    0  502 -0.85137078311E+02  0.33633587450E+03  0.45080758982E+03  0.56885641916E+03  0.00000000000E+00 0.  1.
         11    1    5    5    0    0 -0.28009968316E+02 -0.15676299538E+02  0.48817955501E+02  0.58425144172E+02  0.00000000000E+00 0. -1.
        -11    1    5    5    0    0  0.12420270386E+02  0.47922974120E+02  0.30535091752E+03  0.30933809561E+03  0.00000000000E+00 0.  1.
          1    1    6    6  503    0  0.17133153519E+03 -0.41897538363E+03  0.25575909912E+03  0.51991113070E+03  0.00000000000E+00 0. -1.
         -1    1    6    6    0  503  0.25196883484E+03 -0.93392679056E+03  0.48679845012E+03  0.10829036314E+04  0.00000000000E+00 0.  1.
<mgrwt>
<rscale>  0 0.31295865E+04</rscale>
<asrwt>0</asrwt>
<pdfrwt beam="1">  1        2 0.57658765E+00 0.31295865E+04</pdfrwt>
<pdfrwt beam="2">  1       -1 0.10051292E+00 0.31295865E+04</pdfrwt>
<totfact> 0.48667099E-01</totfact>
</mgrwt>
</event>
<event>
12    6  0.1538774E-007  0.3637278E+04  0.7818608E-02  0.8082006E-01
         -1   -1    0    0    0  501 -0.00000000000E+00  0.00000000000E+00  0.16411275950E+04  0.16411275950E+04  0.00000000000E+00 0.  1.
          2   -1    0    0  501    0  0.00000000000E+00 -0.00000000000E+00 -0.20153507585E+04  0.20153507585E+04  0.00000000000E+00 0. -1.
         24    2    1    2    0    0 -0.14309731236E+04 -0.94009467672E+03 -0.24437739896E+03  0.17312191388E+04  0.77053955025E+02 0.  0.
        254    2    1    2    0    0  0.14309731236E+04  0.94009467672E+03 -0.12984576460E+03  0.19252592147E+04  0.87080482285E+03 0.  0.
         23    2    4    4    0    0  0.68804829660E+03  0.87559978420E+03 -0.29603696334E+03  0.11558503448E+04  0.90921369628E+02 0.  0.
         23    2    4    4    0    0  0.74292482697E+03  0.64494892520E+02  0.16619119874E+03  0.76940886983E+03  0.90959357620E+02 0.  0.
          4    1    3    3  502    0 -0.13563768226E+04 -0.91013234498E+03 -0.22974478928E+03  0.16495095145E+04  0.00000000000E+00 0. -1.
         -3    1    3    3    0  502 -0.74596300966E+02 -0.29962331739E+02 -0.14632609680E+02  0.81709624323E+02  0.00000000000E+00 0.  1.
         11    1    5    5    0    0  0.16842300818E+03  0.23865379641E+03 -0.11638332749E+03  0.31443126934E+03  0.00000000000E+00 0. -1.
        -11    1    5    5    0    0  0.51962528843E+03  0.63694598779E+03 -0.17965363585E+03  0.84141907550E+03  0.00000000000E+00 0.  1.
          3    1    6    6  503    0  0.14500372767E+03  0.30560082368E+02  0.11228945806E+01  0.14819332159E+03  0.00000000000E+00 0. -1.
         -3    1    6    6    0  503  0.59792109931E+03  0.33934810152E+02  0.16506830416E+03  0.62121554824E+03  0.00000000000E+00 0.  1.
<mgrwt>
<rscale>  0 0.36372780E+04</rscale>
<asrwt>0</asrwt>
<pdfrwt beam="1">  1        2 0.31005396E+00 0.36372780E+04</pdfrwt>
<pdfrwt beam="2">  1       -1 0.25248117E+00 0.36372780E+04</pdfrwt>
<totfact> 0.40668611E-01</totfact>
</mgrwt>
</event>
<event>
12    6  0.1538774E-007  0.1666394E+04  0.7818608E-02  0.8780767E-01
         -3   -1    0    0    0  501 -0.00000000000E+00  0.00000000000E+00  0.59337201133E+03  0.59337201133E+03  0.00000000000E+00 0.  1.
          2   -1    0    0  501    0  0.00000000000E+00 -0.00000000000E+00 -0.11699530119E+04  0.11699530119E+04  0.00000000000E+00 0. -1.
         24    2    1    2    0    0  0.10395777085E+03  0.25076638483E+03 -0.75965441082E+03  0.81055175365E+03  0.78919728686E+02 0.  0.
        254    2    1    2    0    0 -0.10395777085E+03 -0.25076638483E+03  0.18307341024E+03  0.95277326958E+03  0.89474579173E+03 0.  0.
         23    2    4    4    0    0  0.11634172366E+03  0.10909069815E+03  0.41969450742E+03  0.45820460147E+03  0.91497541844E+02 0.  0.
         23    2    4    4    0    0 -0.22029949451E+03 -0.35985708298E+03 -0.23662109718E+03  0.49456866811E+03  0.10285735945E+03 0.  0.
          4    1    3    3  502    0  0.10094631277E+03  0.15993382714E+03 -0.56287483570E+03  0.59379884455E+03  0.00000000000E+00 0. -1.
         -3    1    3    3    0  502  0.30114580844E+01  0.90832557688E+02 -0.19677957512E+03  0.21675290909E+03  0.00000000000E+00 0.  1.
         11    1    5    5    0    0  0.13673733267E+02  0.24408561287E+02  0.19544427576E+03  0.19743660697E+03  0.00000000000E+00 0.  1.
        -11    1    5    5    0    0  0.10266799039E+03  0.84682136865E+02  0.22425023166E+03  0.26076799450E+03  0.00000000000E+00 0. -1.
          4    1    6    6  503    0 -0.12948483340E+03 -0.27903979738E+03 -0.13424344003E+03  0.33563496807E+03  0.00000000000E+00 0. -1.
         -4    1    6    6    0  503 -0.90814661117E+02 -0.80817285607E+02 -0.10237765715E+03  0.15893370004E+03  0.00000000000E+00 0.  1.
<mgrwt>
<rscale>  0 0.16663942E+04</rscale>
<asrwt>0</asrwt>
<pdfrwt beam="1">  1        2 0.17999277E+00 0.16663942E+04</pdfrwt>
<pdfrwt beam="2">  1       -3 0.91288003E-01 0.16663942E+04</pdfrwt>
<totfact> 0.12915167E+01</totfact>
</mgrwt>
</event>
<event>
12    6  0.1538774E-007  0.2076940E+04  0.7818608E-02  0.8571470E-01
          2   -1    0    0  501    0  0.00000000000E+00  0.00000000000E+00  0.19717947768E+04  0.19717947768E+04  0.00000000000E+00 0. -1.
         -1   -1    0    0    0  501 -0.00000000000E+00 -0.00000000000E+00 -0.54692320391E+03  0.54692320391E+03  0.00000000000E+00 0.  1.
         24    2    1    2    0    0 -0.70968782128E+03 -0.45266616959E+03  0.52849795658E+03  0.99713368368E+03  0.80012675657E+02 0.  0.
        254    2    1    2    0    0  0.70968782128E+03  0.45266616959E+03  0.89637361627E+03  0.15215842970E+04  0.89619732657E+03 0.  0.
         23    2    4    4    0    0  0.31507373839E+03  0.38531847635E+03  0.97920415784E+03  0.11021259632E+04  0.89994817177E+02 0.  0.
         23    2    4    4    0    0  0.39461408289E+03  0.67347693243E+02 -0.82830541571E+02  0.41945833382E+03  0.93959613657E+02 0.  0.
          4    1    3    3  502    0 -0.28804087962E+03 -0.16637456001E+03  0.25192682799E+03  0.41727109798E+03  0.00000000000E+00 0. -1.
         -3    1    3    3    0  502 -0.42164694166E+03 -0.28629160958E+03  0.27657112858E+03  0.57986258570E+03  0.00000000000E+00 0.  1.
         11    1    5    5    0    0 -0.68455087816E+00  0.25678389545E+02  0.33448473073E+02  0.42174028151E+02  0.00000000000E+00 0. -1.
        -11    1    5    5    0    0  0.31575828927E+03  0.35964008681E+03  0.94575568477E+03  0.10599519350E+04  0.00000000000E+00 0.  1.
          3    1    6    6  503    0  0.22682318532E+02 -0.75759877979E+01  0.14241898715E+02  0.27833699792E+02  0.00000000000E+00 0. -1.
         -3    1    6    6    0  503  0.37193176435E+03  0.74923681041E+02 -0.97072440286E+02  0.39162463403E+03  0.00000000000E+00 0.  1.
<mgrwt>
<rscale>  0 0.20769404E+04</rscale>
<asrwt>0</asrwt>
<pdfrwt beam="1">  1        2 0.30335304E+00 0.20769404E+04</pdfrwt>
<pdfrwt beam="2">  1       -1 0.84142032E-01 0.20769404E+04</pdfrwt>
<totfact> 0.10189748E+01</totfact>
</mgrwt>
</event>
<event>
12    6  0.1538774E-007  0.2418084E+04  0.7818608E-02  0.8432764E-01
          2   -1    0    0  501    0  0.00000000000E+00  0.00000000000E+00  0.12691298267E+04  0.12691298267E+04  0.00000000000E+00 0. -1.
         -1   -1    0    0    0  501 -0.00000000000E+00 -0.00000000000E+00 -0.11517993590E+04  0.11517993590E+04  0.00000000000E+00 0.  1.
         24    2    1    2    0    0  0.10277251120E+04  0.96747085543E+02 -0.69241510135E+02  0.10377116633E+04  0.80450014830E+02 0.  0.
        254    2    1    2    0    0 -0.10277251120E+04 -0.96747085543E+02  0.18657197788E+03  0.13832175224E+04  0.90161117275E+03 0.  0.
         23    2    4    4    0    0 -0.86233408121E+03 -0.44270253698E+03  0.88287852803E+02  0.97764697198E+03  0.91614698565E+02 0.  0.
         23    2    4    4    0    0 -0.16539103082E+03  0.34595545144E+03  0.98284125079E+02  0.40557055041E+03  0.88251541982E+02 0.  0.
          4    1    3    3  502    0  0.79842273051E+01  0.65736061915E+01 -0.61871383786E+01  0.12051591818E+02  0.00000000000E+00 0. -1.
         -3    1    3    3    0  502  0.10197408847E+04  0.90173479351E+02 -0.63054371757E+02  0.10256600714E+04  0.00000000000E+00 0.  1.
         11    1    5    5    0    0 -0.12443045605E+03 -0.82660450863E+02  0.42515543112E+02  0.15531664410E+03  0.00000000000E+00 0.  1.
        -11    1    5    5    0    0 -0.73790362517E+03 -0.36004208611E+03  0.45772309691E+02  0.82233032787E+03  0.00000000000E+00 0. -1.
          4    1    6    6  503    0 -0.18922500369E+02  0.80285962466E+02  0.54969894687E+02  0.99124094504E+02  0.00000000000E+00 0. -1.
         -4    1    6    6    0  503 -0.14646853045E+03  0.26566948897E+03  0.43314230391E+02  0.30644645590E+03  0.00000000000E+00 0.  1.
<mgrwt>
<rscale>  0 0.24180843E+04</rscale>
<asrwt>0</asrwt>
<pdfrwt beam="1">  1        2 0.19525074E+00 0.24180843E+04</pdfrwt>
<pdfrwt beam="2">  1       -1 0.17719990E+00 0.24180843E+04</pdfrwt>
<totfact> 0.38449960E+00</totfact>
</mgrwt>
</event>
<event>
12    6  0.1538774E-007  0.1393218E+04  0.7818608E-02  0.8958742E-01
         -1   -1    0    0    0  501 -0.00000000000E+00  0.00000000000E+00  0.35833641465E+03  0.35833641465E+03  0.00000000000E+00 0.  1.
          2   -1    0    0  501    0  0.00000000000E+00 -0.00000000000E+00 -0.13542139117E+04  0.13542139117E+04  0.00000000000E+00 0. -1.
         24    2    1    2    0    0  0.35799684361E+03  0.39568459376E+02 -0.73094649672E+02  0.37565575215E+03  0.77762544322E+02 0.  0.
        254    2    1    2    0    0 -0.35799684361E+03 -0.39568459376E+02 -0.92278284733E+03  0.13368945742E+04  0.89779257964E+03 0.  0.
         23    2    4    4    0    0 -0.15216627723E+03  0.50399427206E+02  0.14943697868E+03  0.23788474837E+03  0.92536828990E+02 0.  0.
         23    2    4    4    0    0 -0.20583056638E+03 -0.89967886582E+02 -0.10722198260E+04  0.10990098258E+04  0.87788377304E+02 0.  0.
          4    1    3    3  502    0  0.15547448261E+03  0.43010076915E+02 -0.61941331525E+02  0.17279730904E+03  0.00000000000E+00 0. -1.
         -3    1    3    3    0  502  0.20252236100E+03 -0.34416175388E+01 -0.11153318147E+02  0.20285844311E+03  0.00000000000E+00 0.  1.
         11    1    5    5    0    0 -0.43036605125E+02 -0.25272350379E+02  0.58691688931E+02  0.77042555928E+02  0.00000000000E+00 0.  1.
        -11    1    5    5    0    0 -0.10912967211E+03  0.75671777585E+02  0.90745289754E+02  0.16084219244E+03  0.00000000000E+00 0. -1.
          2    1    6    6  503    0 -0.20123698291E+03 -0.74129629335E+02 -0.10479429371E+04  0.10696615935E+04  0.00000000000E+00 0.  1.
         -2    1    6    6    0  503 -0.45935834650E+01 -0.15838257247E+02 -0.24276888957E+02  0.29348232299E+02  0.00000000000E+00 0. -1.
<mgrwt>
<rscale>  0 0.13932181E+04</rscale>
<asrwt>0</asrwt>
<pdfrwt beam="1">  1        2 0.20834060E+00 0.13932181E+04</pdfrwt>
<pdfrwt beam="2">  1       -1 0.55128679E-01 0.13932181E+04</pdfrwt>
<totfact> 0.56751712E+01</totfact>
</mgrwt>
</event>
<event>
12    6  0.1538774E-007  0.1916709E+04  0.7818608E-02  0.8646584E-01
         -1   -1    0    0    0  501 -0.00000000000E+00  0.00000000000E+00  0.93173023440E+03  0.93173023440E+03  0.00000000000E+00 0.  1.
          2   -1    0    0  501    0  0.00000000000E+00 -0.00000000000E+00 -0.98573940742E+03  0.98573940742E+03  0.00000000000E+00 0. -1.
         24    2    1    2    0    0 -0.58505158752E+03 -0.42793576566E+03 -0.18674345009E+03  0.75211353290E+03  0.73398028736E+02 0.  0.
        254    2    1    2    0    0  0.58505158752E+03  0.42793576566E+03  0.13273427708E+03  0.11653561089E+04  0.90278574019E+03 0.  0.
         23    2    4    4    0    0  0.46723948590E+03  0.54518939002E+03  0.40865359620E+03  0.83068458469E+03  0.86573144728E+02 0.  0.
         23    2    4    4    0    0  0.11781210162E+03 -0.11725362435E+03 -0.27591931913E+03  0.33467152423E+03  0.90804486394E+02 0.  0.
          2    1    3    3  502    0 -0.41383257100E+03 -0.30363645661E+03 -0.16631576901E+03  0.53954928378E+03  0.00000000000E+00 0. -1.
         -1    1    3    3    0  502 -0.17121901652E+03 -0.12429930906E+03 -0.20427681074E+02  0.21256424912E+03  0.00000000000E+00 0.  1.
         11    1    5    5    0    0  0.21325875398E+03  0.18521680794E+03  0.16921402980E+03  0.32926881111E+03  0.00000000000E+00 0.  1.
        -11    1    5    5    0    0  0.25398073193E+03  0.35997258208E+03  0.23943956640E+03  0.50141577358E+03  0.00000000000E+00 0. -1.
          2    1    6    6  503    0  0.39871408207E+02 -0.25997207930E+01 -0.22621186219E+02  0.45915202347E+02  0.00000000000E+00 0. -1.
         -2    1    6    6    0  503  0.77940693411E+02 -0.11465390356E+03 -0.25329813291E+03  0.28875632188E+03  0.00000000000E+00 0.  1.
<mgrwt>
<rscale>  0 0.19167089E+04</rscale>
<asrwt>0</asrwt>
<pdfrwt beam="1">  1        2 0.15165222E+00 0.19167089E+04</pdfrwt>
<pdfrwt beam="2">  1       -1 0.14334311E+00 0.19167089E+04</pdfrwt>
<totfact> 0.10814655E+01</totfact>
</mgrwt>
</event>
<event>
12    6  0.1538774E-007  0.1347517E+04  0.7818608E-02  0.8992710E-01
          2   -1    0    0  501    0  0.00000000000E+00  0.00000000000E+00  0.14203280910E+04  0.14203280910E+04  0.00000000000E+00 0. -1.
         -1   -1    0    0    0  501 -0.00000000000E+00 -0.00000000000E+00 -0.31960950132E+03  0.31960950132E+03  0.00000000000E+00 0.  1.
         24    2    1    2    0    0  0.36216043237E+03 -0.20340635050E+02  0.30153688572E+03  0.47918733129E+03  0.84392445226E+02 0.  0.
        254    2    1    2    0    0 -0.36216043237E+03  0.20340635050E+02  0.79918170393E+03  0.12607502610E+04  0.90511099016E+03 0.  0.
         23    2    4    4    0    0  0.28851734330E+03  0.57959990615E+01  0.36286624723E+03  0.47192825676E+03  0.88139180633E+02 0.  0.
         23    2    4    4    0    0 -0.65067777567E+03  0.14544635989E+02  0.43631545670E+03  0.78882200424E+03  0.90971767178E+02 0.  0.
          2    1    3    3  502    0  0.33198422144E+03 -0.30529579442E+02  0.29797191784E+03  0.44713850464E+03  0.00000000000E+00 0. -1.
         -1    1    3    3    0  502  0.30176210926E+02  0.10188944392E+02  0.35649678753E+01  0.32048826650E+02  0.00000000000E+00 0.  1.
         11    1    5    5    0    0  0.29024073916E+03  0.14145282820E+02  0.36059141715E+03  0.46310468127E+03  0.00000000000E+00 0.  1.
        -11    1    5    5    0    0 -0.17233958589E+01 -0.83492837585E+01  0.22748300810E+01  0.88235754921E+01  0.00000000000E+00 0. -1.
          2    1    6    6  503    0  0.10139373280E+01  0.39272179791E+01  0.78136836484E+01  0.88036788968E+01  0.00000000000E+00 0. -1.
         -2    1    6    6    0  503 -0.65169171300E+03  0.10617418010E+02  0.42850177306E+03  0.78001832534E+03  0.00000000000E+00 0.  1.
<mgrwt>
<rscale>  0 0.13475168E+04</rscale>
<asrwt>0</asrwt>
<pdfrwt beam="1">  1        2 0.21851201E+00 0.13475168E+04</pdfrwt>
<pdfrwt beam="2">  1       -1 0.49170693E-01 0.13475168E+04</pdfrwt>
<totfact> 0.64982065E+01</totfact>
</mgrwt>
</event>
<event>
12    6  0.1538774E-007  0.1898620E+04  0.7818608E-02  0.8655544E-01
         -1   -1    0    0    0  501 -0.00000000000E+00  0.00000000000E+00  0.48624168531E+03  0.48624168531E+03  0.00000000000E+00 0.  1.
          2   -1    0    0  501    0  0.00000000000E+00 -0.00000000000E+00 -0.18533774719E+04  0.18533774719E+04  0.00000000000E+00 0. -1.
         24    2    1    2    0    0 -0.67923097279E+03 -0.25617206864E+03 -0.65717031619E+03  0.98241990595E+03  0.79354924049E+02 0.  0.
        254    2    1    2    0    0  0.67923097279E+03  0.25617206864E+03 -0.70996547043E+03  0.13571992513E+04  0.90053317282E+03 0.  0.
         23    2    4    4    0    0  0.51402287717E+03 -0.25586414139E+03 -0.21347020725E+03  0.61957466335E+03  0.92829181683E+02 0.  0.
         23    2    4    4    0    0  0.16520809562E+03  0.51203621004E+03 -0.49649526318E+03  0.73762458794E+03  0.90042718378E+02 0.  0.
          4    1    3    3  502    0 -0.14234485843E+03 -0.37158001663E+02 -0.97165950191E+02  0.17630654465E+03  0.00000000000E+00 0. -1.
         -3    1    3    3    0  502 -0.53688611436E+03 -0.21901406698E+03 -0.56000436600E+03  0.80611336129E+03  0.00000000000E+00 0.  1.
         11    1    5    5    0    0  0.16313994073E+03 -0.69401305027E+02 -0.11119233581E+03  0.20927235112E+03  0.00000000000E+00 0. -1.
        -11    1    5    5    0    0  0.35088293644E+03 -0.18646283637E+03 -0.10227787144E+03  0.41030231222E+03  0.00000000000E+00 0.  1.
          1    1    6    6  503    0  0.26065551604E+02  0.19865040369E+02 -0.18823591173E+02  0.37793655472E+02  0.00000000000E+00 0. -1.
         -1    1    6    6    0  503  0.13914254402E+03  0.49217116967E+03 -0.47767167200E+03  0.69983093247E+03  0.00000000000E+00 0.  1.
<mgrwt>
<rscale>  0 0.18986199E+04</rscale>
<asrwt>0</asrwt>
<pdfrwt beam="1">  1        2 0.28513499E+00 0.18986199E+04</pdfrwt>
<pdfrwt beam="2">  1       -1 0.74806413E-01 0.18986199E+04</pdfrwt>
<totfact> 0.15453710E+01</totfact>
</mgrwt>
</event>
<event>
12    6  0.1538774E-007  0.2176711E+04  0.7818608E-02  0.8528184E-01
          2   -1    0    0  501    0  0.00000000000E+00  0.00000000000E+00  0.28515996340E+04  0.28515996340E+04  0.00000000000E+00 0. -1.
         -1   -1    0    0    0  501 -0.00000000000E+00 -0.00000000000E+00 -0.41538715575E+03  0.41538715575E+03  0.00000000000E+00 0.  1.
         24    2    1    2    0    0 -0.77110980305E+03 -0.15290958232E+03  0.35675342579E+03  0.86658353684E+03  0.75513911193E+02 0.  0.
        254    2    1    2    0    0  0.77110980305E+03  0.15290958232E+03  0.20794590525E+04  0.24004032529E+04  0.90542484888E+03 0.  0.
         23    2    4    4    0    0  0.23148142477E+03  0.30821960936E+03  0.16242403746E+04  0.16719181548E+04  0.92577232825E+02 0.  0.
         23    2    4    4    0    0  0.53962837828E+03 -0.15531002704E+03  0.45521867786E+03  0.72848509816E+03  0.90257977134E+02 0.  0.
          4    1    3    3  502    0 -0.33613836976E+03 -0.66491345858E+02  0.19680010395E+03  0.39514602822E+03  0.00000000000E+00 0. -1.
         -3    1    3    3    0  502 -0.43497143329E+03 -0.86418236464E+02  0.15995332184E+03  0.47143750863E+03  0.00000000000E+00 0.  1.
         11    1    5    5    0    0  0.71366415630E+02  0.36949488576E+02  0.38203940747E+03  0.39040048520E+03  0.00000000000E+00 0. -1.
        -11    1    5    5    0    0  0.16011500914E+03  0.27127012078E+03  0.12422009672E+04  0.12815176696E+04  0.00000000000E+00 0.  1.
          2    1    6    6  503    0  0.19993505370E+03 -0.23374631751E+02  0.19864256339E+03  0.28280605916E+03  0.00000000000E+00 0. -1.
         -2    1    6    6    0  503  0.33969332458E+03 -0.13193539528E+03  0.25657611446E+03  0.44567903900E+03  0.00000000000E+00 0.  1.
<mgrwt>
<rscale>  0 0.21767112E+04</rscale>
<asrwt>0</asrwt>
<pdfrwt beam="1">  1        2 0.43870762E+00 0.21767112E+04</pdfrwt>
<pdfrwt beam="2">  1       -1 0.63905718E-01 0.21767112E+04</pdfrwt>
<totfact> 0.55718134E+00</totfact>
</mgrwt>
</event>
<event>
12    6  0.1538774E-007  0.4170428E+04  0.7818608E-02  0.7971021E-01
          2   -1    0    0  501    0  0.00000000000E+00  0.00000000000E+00  0.20906709704E+04  0.20906709704E+04  0.00000000000E+00 0. -1.
         -1   -1    0    0    0  501 -0.00000000000E+00 -0.00000000000E+00 -0.20797712373E+04  0.20797712373E+04  0.00000000000E+00 0.  1.
         24    2    1    2    0    0 -0.17164645755E+04  0.29018046805E+03 -0.93476616747E+03  0.19775013000E+04  0.79172347962E+02 0.  0.
        254    2    1    2    0    0  0.17164645755E+04 -0.29018046805E+03  0.94566590057E+03  0.21929409077E+04  0.94034593975E+03 0.  0.
         23    2    4    4    0    0  0.16230806042E+04 -0.32175655130E+03  0.10996162007E+04  0.19887240874E+04  0.89161542873E+02 0.  0.
         23    2    4    4    0    0  0.93383971214E+02  0.31576083252E+02 -0.15395030009E+03  0.20421682035E+03  0.91028565320E+02 0.  0.
          2    1    3    3  502    0 -0.76562911848E+02 -0.34233939904E+01 -0.41857388082E+02  0.87324910730E+02  0.00000000000E+00 0. -1.
         -1    1    3    3    0  502 -0.16399016636E+04  0.29360386204E+03 -0.89290877939E+03  0.18901763892E+04  0.00000000000E+00 0.  1.
         11    1    5    5    0    0  0.11060886899E+03 -0.17896597892E+02  0.10236498287E+03  0.15176692602E+03  0.00000000000E+00 0.  1.
        -11    1    5    5    0    0  0.15124717353E+04 -0.30385995341E+03  0.99725121779E+03  0.18369571614E+04  0.00000000000E+00 0. -1.
          4    1    6    6  503    0  0.43580751790E+02  0.42046977552E+02 -0.13829280018E+03  0.15097062241E+03  0.00000000000E+00 0. -1.
         -4    1    6    6    0  503  0.49803219424E+02 -0.10470894300E+02 -0.15657499910E+02  0.53246197948E+02  0.00000000000E+00 0.  1.
<mgrwt>
<rscale>  0 0.41704280E+04</rscale>
<asrwt>0</asrwt>
<pdfrwt beam="1">  1        2 0.32164169E+00 0.41704280E+04</pdfrwt>
<pdfrwt beam="2">  1       -1 0.31996481E+00 0.41704280E+04</pdfrwt>
<totfact> 0.12891009E-01</totfact>
</mgrwt>
</event>
<event>
12    6  0.1538774E-007  0.1775246E+04  0.7818608E-02  0.8719575E-01
         -1   -1    0    0    0  501 -0.00000000000E+00  0.00000000000E+00  0.63704633889E+03  0.63704633889E+03  0.00000000000E+00 0.  1.
          2   -1    0    0  501    0  0.00000000000E+00 -0.00000000000E+00 -0.12367619606E+04  0.12367619606E+04  0.00000000000E+00 0. -1.
         24    2    1    2    0    0 -0.61305484725E+03 -0.18815764506E+03 -0.96053855677E+02  0.65343859958E+03  0.80722457244E+02 0.  0.
        254    2    1    2    0    0  0.61305484725E+03  0.18815764506E+03 -0.50366176602E+03  0.12203696999E+04  0.90795786506E+03 0.  0.
         23    2    4    4    0    0  0.14909991174E+03 -0.35101574397E+03 -0.21945841306E+03  0.44900458520E+03  0.89444319387E+02 0.  0.
         23    2    4    4    0    0  0.46395493551E+03  0.53917338902E+03 -0.28420335296E+03  0.77136511469E+03  0.90942117417E+02 0.  0.
          2    1    3    3  502    0 -0.29337828706E+03 -0.79383476959E+02 -0.61127684933E+01  0.30399000258E+03  0.00000000000E+00 0. -1.
         -1    1    3    3    0  502 -0.31967656019E+03 -0.10877416810E+03 -0.89941087184E+02  0.34944859700E+03  0.00000000000E+00 0.  1.
         11    1    5    5    0    0  0.75301252337E+02 -0.81984874879E+02 -0.45613692957E+02  0.12030131877E+03  0.00000000000E+00 0. -1.
        -11    1    5    5    0    0  0.73798659405E+02 -0.26903086909E+03 -0.17384472011E+03  0.32870326643E+03  0.00000000000E+00 0.  1.
          2    1    6    6  503    0  0.31473706668E+03  0.42667200135E+03 -0.21311489272E+03  0.57142486416E+03  0.00000000000E+00 0. -1.
         -2    1    6    6    0  503  0.14921786882E+03  0.11250138768E+03 -0.71088460241E+02  0.19994025054E+03  0.00000000000E+00 0.  1.
<mgrwt>
<rscale>  0 0.17752461E+04</rscale>
<asrwt>0</asrwt>
<pdfrwt beam="1">  1        2 0.19027107E+00 0.17752461E+04</pdfrwt>
<pdfrwt beam="2">  1       -1 0.98007128E-01 0.17752461E+04</pdfrwt>
<totfact> 0.19384754E+01</totfact>
</mgrwt>
</event>
<event>
12    6  0.1538774E-007  0.1952409E+04  0.7818608E-02  0.8629200E-01
          4   -1    0    0  501    0  0.00000000000E+00  0.00000000000E+00  0.12934674630E+04  0.12934674630E+04  0.00000000000E+00 0. -1.
         -3   -1    0    0    0  501 -0.00000000000E+00 -0.00000000000E+00 -0.73675991721E+03  0.73675991721E+03  0.00000000000E+00 0.  1.
         24    2    1    2    0    0  0.34973963434E+03 -0.61851581198E+03  0.55732310885E+03  0.90653974526E+03  0.79533895698E+02 0.  0.
        254    2    1    2    0    0 -0.34973963434E+03  0.61851581198E+03 -0.61556302072E+00  0.11236876350E+04  0.87051358440E+03 0.  0.
         23    2    4    4    0    0 -0.51672431575E+02  0.66974170757E+03  0.24599886827E+03  0.72229945320E+03  0.99885243414E+02 0.  0.
         23    2    4    4    0    0 -0.29806720276E+03 -0.51225895587E+02 -0.24661443129E+03  0.40138818180E+03  0.93944904213E+02 0.  0.
          2    1    3    3  502    0  0.28685150945E+03 -0.45763425877E+03  0.45151364355E+03  0.70397263696E+03  0.00000000000E+00 0. -1.
         -3    1    3    3    0  502  0.62888124883E+02 -0.16088155321E+03  0.10580946531E+03  0.20256710830E+03  0.00000000000E+00 0.  1.
         11    1    5    5    0    0  0.12674942484E+01  0.48430568505E+03  0.20043563499E+03  0.52414506283E+03  0.00000000000E+00 0.  1.
        -11    1    5    5    0    0 -0.52939925824E+02  0.18543602252E+03  0.45563233273E+02  0.19815439037E+03  0.00000000000E+00 0. -1.
          1    1    6    6  503    0 -0.97171352514E+02 -0.12537644270E+02 -0.27833826475E+02  0.10185374892E+03  0.00000000000E+00 0. -1.
         -1    1    6    6    0  503 -0.20089585025E+03 -0.38688251317E+02 -0.21878060481E+03  0.29953443288E+03  0.00000000000E+00 0.  1.
<mgrwt>
<rscale>  0 0.19524087E+04</rscale>
<asrwt>0</asrwt>
<pdfrwt beam="1">  1        4 0.19899499E+00 0.19524087E+04</pdfrwt>
<pdfrwt beam="2">  1       -3 0.11334768E+00 0.19524087E+04</pdfrwt>
<totfact> 0.18464870E-01</totfact>
</mgrwt>
</event>
<event>
12    6  0.1538774E-007  0.1536484E+04  0.7818608E-02  0.8860548E-01
          2   -1    0    0  501    0  0.00000000000E+00  0.00000000000E+00  0.26452987673E+04  0.26452987673E+04  0.00000000000E+00 0. -1.
         -1   -1    0    0    0  501 -0.00000000000E+00 -0.00000000000E+00 -0.22311117215E+03  0.22311117215E+03  0.00000000000E+00 0.  1.
         24    2    1    2    0    0 -0.47262034908E+03  0.50229010318E+00  0.11180433703E+04  0.12169213881E+04  0.86639714816E+02 0.  0.
        254    2    1    2    0    0  0.47262034908E+03 -0.50229010318E+00  0.13041442248E+04  0.16514885514E+04  0.89624328699E+03 0.  0.
         23    2    4    4    0    0  0.66455154751E+03 -0.22269934586E+03  0.92317784044E+03  0.11623173199E+04  0.86605248733E+02 0.  0.
         23    2    4    4    0    0 -0.19193119843E+03  0.22219705576E+03  0.38096638439E+03  0.48917123147E+03  0.89129070146E+02 0.  0.
          2    1    3    3  502    0 -0.26528074845E+03  0.17674162623E+02  0.72497621288E+03  0.77218958862E+03  0.00000000000E+00 0. -1.
         -1    1    3    3    0  502 -0.20733960063E+03 -0.17171872520E+02  0.39306715744E+03  0.44473179946E+03  0.00000000000E+00 0.  1.
         11    1    5    5    0    0  0.45228023138E+03 -0.15686366560E+03  0.69385967069E+03  0.84297381922E+03  0.00000000000E+00 0.  1.
        -11    1    5    5    0    0  0.21227131612E+03 -0.65835680257E+02  0.22931816975E+03  0.31934350067E+03  0.00000000000E+00 0. -1.
          3    1    6    6  503    0 -0.18137513348E+03  0.16863593597E+03  0.34131171022E+03  0.42169740511E+03  0.00000000000E+00 0. -1.
         -3    1    6    6    0  503 -0.10556064950E+02  0.53561119784E+02  0.39654674171E+02  0.67473826358E+02  0.00000000000E+00 0.  1.
<mgrwt>
<rscale>  0 0.15364839E+04</rscale>
<asrwt>0</asrwt>
<pdfrwt beam="1">  1        2 0.40696902E+00 0.15364839E+04</pdfrwt>
<pdfrwt beam="2">  1       -1 0.34324798E-01 0.15364839E+04</pdfrwt>
<totfact> 0.25322659E+01</totfact>
</mgrwt>
</event>
<event>
12    6  0.1538774E-007  0.1527785E+04  0.7818608E-02  0.8866183E-01
          2   -1    0    0  501    0  0.00000000000E+00  0.00000000000E+00  0.82321836622E+03  0.82321836622E+03  0.00000000000E+00 0. -1.
         -1   -1    0    0    0  501 -0.00000000000E+00 -0.00000000000E+00 -0.70884220702E+03  0.70884220702E+03  0.00000000000E+00 0.  1.
         24    2    1    2    0    0 -0.45850667132E+03  0.12654198763E+03  0.16795174327E+03  0.51081859503E+03  0.80539472830E+02 0.  0.
        254    2    1    2    0    0  0.45850667132E+03 -0.12654198763E+03 -0.53575584076E+02  0.10212419782E+04  0.90212171716E+03 0.  0.
         23    2    4    4    0    0  0.24672396438E+03  0.36705838469E+03  0.84674627990E+02  0.45955348445E+03  0.91733527522E+02 0.  0.
         23    2    4    4    0    0  0.21178270693E+03 -0.49360037232E+03 -0.13825021207E+03  0.56168849376E+03  0.88812163466E+02 0.  0.
          2    1    3    3  502    0 -0.39058635115E+03  0.12210099911E+03  0.16898843519E+03  0.44274534770E+03  0.00000000000E+00 0. -1.
         -1    1    3    3    0  502 -0.67920320172E+02  0.44409885130E+01 -0.10366919162E+01  0.68073247325E+02  0.00000000000E+00 0.  1.
         11    1    5    5    0    0  0.15129443589E+03  0.28926841285E+03  0.81172807137E+02  0.33638556096E+03  0.00000000000E+00 0. -1.
        -11    1    5    5    0    0  0.95429528495E+02  0.77789971845E+02  0.35018208527E+01  0.12316792349E+03  0.00000000000E+00 0.  1.
          4    1    6    6  503    0  0.17889575934E+03 -0.46302596675E+03 -0.10934108092E+03  0.50828359266E+03  0.00000000000E+00 0. -1.
         -4    1    6    6    0  503  0.32886947597E+02 -0.30574405573E+02 -0.28909131143E+02  0.53404901103E+02  0.00000000000E+00 0.  1.
<mgrwt>
<rscale>  0 0.15277852E+04</rscale>
<asrwt>0</asrwt>
<pdfrwt beam="1">  1        2 0.12664898E+00 0.15277852E+04</pdfrwt>
<pdfrwt beam="2">  1       -1 0.10905265E+00 0.15277852E+04</pdfrwt>
<totfact> 0.28431465E+01</totfact>
</mgrwt>
</event>
<event>
12    6  0.1538774E-007  0.2019986E+04  0.7818608E-02  0.8597333E-01
         -1   -1    0    0    0  501 -0.00000000000E+00  0.00000000000E+00  0.25898600210E+04  0.25898600210E+04  0.00000000000E+00 0.  1.
          2   -1    0    0  501    0  0.00000000000E+00 -0.00000000000E+00 -0.39387674303E+03  0.39387674303E+03  0.00000000000E+00 0. -1.
         24    2    1    2    0    0  0.65390368652E+03 -0.28622572381E+03  0.32075863648E+03  0.78665144760E+03  0.80119915900E+02 0.  0.
        254    2    1    2    0    0 -0.65390368652E+03  0.28622572381E+03  0.18752246415E+04  0.21970853164E+04  0.89509845012E+03 0.  0.
         23    2    4    4    0    0 -0.32717634944E+03  0.51740558035E+03  0.61778189420E+03  0.87427191168E+03  0.89129167836E+02 0.  0.
         23    2    4    4    0    0 -0.32672733708E+03 -0.23117985654E+03  0.12574427473E+04  0.13228134047E+04  0.92076936317E+02 0.  0.
          4    1    3    3  502    0  0.48520059038E+03 -0.21099112681E+03  0.27526813005E+03  0.59641379253E+03  0.00000000000E+00 0. -1.
         -3    1    3    3    0  502  0.16870309614E+03 -0.75234597003E+02  0.45490506433E+02  0.19023765507E+03  0.00000000000E+00 0.  1.
         11    1    5    5    0    0 -0.22790744526E+03  0.39488683099E+03  0.50521311929E+03  0.68052752244E+03  0.00000000000E+00 0. -1.
        -11    1    5    5    0    0 -0.99268904177E+02  0.12251874935E+03  0.11256877491E+03  0.19374438925E+03  0.00000000000E+00 0.  1.
          3    1    6    6  503    0 -0.28091840010E+03 -0.22615658108E+03  0.11646178588E+04  0.12191787005E+04  0.00000000000E+00 0. -1.
         -3    1    6    6    0  503 -0.45808936987E+02 -0.50232754556E+01  0.92824888459E+02  0.10363470423E+03  0.00000000000E+00 0.  1.
<mgrwt>
<rscale>  0 0.20199858E+04</rscale>
<asrwt>0</asrwt>
<pdfrwt beam="1">  1        2 0.60596424E-01 0.20199858E+04</pdfrwt>
<pdfrwt beam="2">  1       -1 0.39843999E+00 0.20199858E+04</pdfrwt>
<totfact> 0.63000324E-01</totfact>
</mgrwt>
</event>
<event>
12    6  0.1538774E-007  0.1892576E+04  0.7818608E-02  0.8658561E-01
          2   -1    0    0  501    0  0.00000000000E+00  0.00000000000E+00  0.28774417719E+04  0.28774417719E+04  0.00000000000E+00 0. -1.
         -1   -1    0    0    0  501 -0.00000000000E+00 -0.00000000000E+00 -0.31120024514E+03  0.31120024514E+03  0.00000000000E+00 0.  1.
         24    2    1    2    0    0  0.66140447418E+03  0.22701172164E+03  0.66543803295E+03  0.96869473711E+03  0.81064898571E+02 0.  0.
        254    2    1    2    0    0 -0.66140447418E+03 -0.22701172164E+03  0.19008034938E+04  0.22199472799E+04  0.90891242890E+03 0.  0.
         23    2    4    4    0    0 -0.31135931692E+03 -0.42915517037E+03  0.16503820054E+04  0.17359174020E+04  0.92356257045E+02 0.  0.
         23    2    4    4    0    0 -0.35004515726E+03  0.20214344873E+03  0.25042148837E+03  0.48402987793E+03  0.90445646144E+02 0.  0.
          4    1    3    3  502    0  0.12090870639E+03  0.49170675269E+02  0.84317147819E+02  0.15538999969E+03  0.00000000000E+00 0. -1.
         -3    1    3    3    0  502  0.54049576779E+03  0.17784104637E+03  0.58112088513E+03  0.81330473742E+03  0.00000000000E+00 0.  1.
         11    1    5    5    0    0 -0.22097419013E+03 -0.36062676465E+03  0.13565011227E+04  0.14209069470E+04  0.00000000000E+00 0. -1.
        -11    1    5    5    0    0 -0.90385126790E+02 -0.68528405717E+02  0.29388088271E+03  0.31501045500E+03  0.00000000000E+00 0.  1.
          3    1    6    6  503    0 -0.25458923250E+03  0.16072729853E+03  0.13912898540E+03  0.33167124743E+03  0.00000000000E+00 0. -1.
         -3    1    6    6    0  503 -0.95455924767E+02  0.41416150206E+02  0.11129250297E+03  0.15235863050E+03  0.00000000000E+00 0.  1.
<mgrwt>
<rscale>  0 0.18925756E+04</rscale>
<asrwt>0</asrwt>
<pdfrwt beam="1">  1        2 0.44268333E+00 0.18925756E+04</pdfrwt>
<pdfrwt beam="2">  1       -1 0.47876963E-01 0.18925756E+04</pdfrwt>
<totfact> 0.96683497E+00</totfact>
</mgrwt>
</event>
<event>
12    6  0.1538774E-007  0.1028314E+04  0.7818608E-02  0.9278024E-01
         -1   -1    0    0    0  501 -0.00000000000E+00  0.00000000000E+00  0.16756980817E+03  0.16756980817E+03  0.00000000000E+00 0.  1.
          2   -1    0    0  501    0  0.00000000000E+00 -0.00000000000E+00 -0.15775967564E+04  0.15775967564E+04  0.00000000000E+00 0. -1.
         24    2    1    2    0    0  0.54557219434E+02  0.43069536980E+02 -0.28184256649E+03  0.29903235355E+03  0.71788863877E+02 0.  0.
        254    2    1    2    0    0 -0.54557219434E+02 -0.43069536980E+02 -0.11281843818E+04  0.14461342111E+04  0.90203807120E+03 0.  0.
         23    2    4    4    0    0 -0.33493784120E+03 -0.19915958532E+02 -0.10942295686E+04  0.11482107894E+04  0.92030784351E+02 0.  0.
         23    2    4    4    0    0  0.28038062176E+03 -0.23153578448E+02 -0.33954813146E+02  0.29792342161E+03  0.91956808082E+02 0.  0.
          2    1    3    3  502    0  0.20531181182E+02  0.51649693966E+02 -0.10563773768E+03  0.11936729832E+03  0.00000000000E+00 0. -1.
         -1    1    3    3    0  502  0.34026038252E+02 -0.85801569863E+01 -0.17620482881E+03  0.17966505523E+03  0.00000000000E+00 0.  1.
         11    1    5    5    0    0 -0.19300562278E+02 -0.14925830620E+02 -0.16571030452E+03  0.16749685713E+03  0.00000000000E+00 0. -1.
        -11    1    5    5    0    0 -0.31563727892E+03 -0.49901279126E+01 -0.92851926412E+03  0.98071393232E+03  0.00000000000E+00 0.  1.
          3    1    6    6  503    0  0.38643869316E+02  0.27263890105E+02  0.63485318924E+01  0.47717629829E+02  0.00000000000E+00 0. -1.
         -3    1    6    6    0  503  0.24173675245E+03 -0.50417468553E+02 -0.40303345038E+02  0.25020579178E+03  0.00000000000E+00 0.  1.
<mgrwt>
<rscale>  0 0.10283143E+04</rscale>
<asrwt>0</asrwt>
<pdfrwt beam="1">  1        2 0.24270719E+00 0.10283143E+04</pdfrwt>
<pdfrwt beam="2">  1       -1 0.25779971E-01 0.10283143E+04</pdfrwt>
<totfact> 0.17313313E+02</totfact>
</mgrwt>
</event>
<event>
12    6  0.1538774E-007  0.2326324E+04  0.7818608E-02  0.8467614E-01
          2   -1    0    0  501    0  0.00000000000E+00  0.00000000000E+00  0.18239864307E+04  0.18239864307E+04  0.00000000000E+00 0. -1.
         -1   -1    0    0    0  501 -0.00000000000E+00 -0.00000000000E+00 -0.74175192492E+03  0.74175192492E+03  0.00000000000E+00 0.  1.
         24    2    1    2    0    0 -0.92730225995E+03  0.59072343068E+02  0.76463626364E+03  0.12059747442E+04  0.79545238236E+02 0.  0.
        254    2    1    2    0    0  0.92730225995E+03 -0.59072343068E+02  0.31759824212E+03  0.13597636114E+04  0.94058992789E+03 0.  0.
         23    2    4    4    0    0 -0.10570261994E+03  0.15701262488E+03 -0.84901760977E+02  0.22651856668E+03  0.90974412881E+02 0.  0.
         23    2    4    4    0    0  0.10330048799E+04 -0.21608496794E+03  0.40250000310E+03  0.11332450447E+04  0.91903664904E+02 0.  0.
          4    1    3    3  502    0 -0.90997903505E+03  0.48404861583E+02  0.73904849045E+03  0.11732849382E+04  0.00000000000E+00 0. -1.
         -3    1    3    3    0  502 -0.17323224907E+02  0.10667481484E+02  0.25587773188E+02  0.32689806043E+02  0.00000000000E+00 0.  1.
         11    1    5    5    0    0 -0.10998535729E+03  0.16130429789E+03 -0.93121922731E+02  0.21630429452E+03  0.00000000000E+00 0. -1.
        -11    1    5    5    0    0  0.42827373482E+01 -0.42916730098E+01  0.82201617539E+01  0.10214272156E+02  0.00000000000E+00 0.  1.
          2    1    6    6  503    0  0.21847679475E+03 -0.77361102050E+02  0.11196274764E+03  0.25739562314E+03  0.00000000000E+00 0.  1.
         -2    1    6    6    0  503  0.81452808515E+03 -0.13872386589E+03  0.29053725545E+03  0.87584942158E+03  0.00000000000E+00 0. -1.
<mgrwt>
<rscale>  0 0.23263237E+04</rscale>
<asrwt>0</asrwt>
<pdfrwt beam="1">  1        2 0.28061329E+00 0.23263237E+04</pdfrwt>
<pdfrwt beam="2">  1       -1 0.11411568E+00 0.23263237E+04</pdfrwt>
<totfact> 0.60259420E+00</totfact>
</mgrwt>
</event>
<event>
12    6  0.1538774E-007  0.1859870E+04  0.7818608E-02  0.8675094E-01
          2   -1    0    0  501    0  0.00000000000E+00  0.00000000000E+00  0.10301164592E+04  0.10301164592E+04  0.00000000000E+00 0. -1.
         -1   -1    0    0    0  501 -0.00000000000E+00 -0.00000000000E+00 -0.83949653160E+03  0.83949653160E+03  0.00000000000E+00 0.  1.
         24    2    1    2    0    0  0.72830061442E+01  0.52125888289E+03  0.55689436533E+03  0.76741418545E+03  0.83841115923E+02 0.  0.
        254    2    1    2    0    0 -0.72830061442E+01 -0.52125888289E+03 -0.36627443772E+03  0.11021988054E+04  0.89940056572E+03 0.  0.
         23    2    4    4    0    0  0.26145671506E+03  0.38874745117E+02 -0.38288047090E+03  0.47424433807E+03  0.91866084807E+02 0.  0.
         23    2    4    4    0    0 -0.26873972121E+03 -0.56013362801E+03  0.16606033180E+02  0.62795446728E+03  0.89890676132E+02 0.  0.
          2    1    3    3  502    0  0.19963613092E+02  0.50286505816E+03  0.54601118068E+03  0.74256314344E+03  0.00000000000E+00 0. -1.
         -1    1    3    3    0  502 -0.12680606947E+02  0.18393824735E+02  0.10883184648E+02  0.24851042011E+02  0.00000000000E+00 0.  1.
         11    1    5    5    0    0  0.18515450889E+03 -0.15674054991E+02 -0.24531575188E+03  0.30774613935E+03  0.00000000000E+00 0. -1.
        -11    1    5    5    0    0  0.76302206174E+02  0.54548800107E+02 -0.13756471902E+03  0.16649819873E+03  0.00000000000E+00 0.  1.
          4    1    6    6  503    0 -0.18349598589E+03 -0.28684451916E+03  0.26173350364E+02  0.34151954451E+03  0.00000000000E+00 0. -1.
         -4    1    6    6    0  503 -0.85243735320E+02 -0.27328910885E+03 -0.95673171843E+01  0.28643492277E+03  0.00000000000E+00 0.  1.
<mgrwt>
<rscale>  0 0.18598701E+04</rscale>
<asrwt>0</asrwt>
<pdfrwt beam="1">  1        2 0.15847945E+00 0.18598701E+04</pdfrwt>
<pdfrwt beam="2">  1       -1 0.12915331E+00 0.18598701E+04</pdfrwt>
<totfact> 0.13317046E+01</totfact>
</mgrwt>
</event>
<event>
12    6  0.1538774E-007  0.1614289E+04  0.7818608E-02  0.8811818E-01
         -1   -1    0    0    0  501 -0.00000000000E+00  0.00000000000E+00  0.62770724486E+03  0.62770724486E+03  0.00000000000E+00 0.  1.
          2   -1    0    0  501    0  0.00000000000E+00 -0.00000000000E+00 -0.10378753837E+04  0.10378753837E+04  0.00000000000E+00 0. -1.
         24    2    1    2    0    0  0.12530303876E+03  0.21210659482E+03 -0.68472915897E+03  0.73206745628E+03  0.79866640793E+02 0.  0.
        254    2    1    2    0    0 -0.12530303876E+03 -0.21210659482E+03  0.27456102010E+03  0.93351517232E+03  0.85754111511E+03 0.  0.
         23    2    4    4    0    0 -0.75559973144E+02  0.71418974945E+02  0.52275382783E+03  0.54028078769E+03  0.88440858853E+02 0.  0.
         23    2    4    4    0    0 -0.49743065616E+02 -0.28352556977E+03 -0.24819280774E+03  0.39323438463E+03  0.10085876339E+03 0.  0.
          4    1    3    3  502    0  0.12014382972E+03  0.16690977376E+03 -0.61790092654E+03  0.65122574228E+03  0.00000000000E+00 0. -1.
         -3    1    3    3    0  502  0.51592090384E+01  0.45196821058E+02 -0.66828232429E+02  0.80841713993E+02  0.00000000000E+00 0.  1.
         11    1    5    5    0    0 -0.21688203307E+02  0.43228785142E+01  0.18776869020E+02  0.29010967780E+02  0.00000000000E+00 0.  1.
        -11    1    5    5    0    0 -0.53871769836E+02  0.67096096430E+02  0.50397695881E+03  0.51126981991E+03  0.00000000000E+00 0. -1.
          3    1    6    6  503    0 -0.45283006847E+02 -0.23392051743E+03 -0.14569934691E+03  0.27928060955E+03  0.00000000000E+00 0. -1.
         -3    1    6    6    0  503 -0.44600587692E+01 -0.49605052339E+02 -0.10249346082E+03  0.11395377507E+03  0.00000000000E+00 0.  1.
<mgrwt>
<rscale>  0 0.16142886E+04</rscale>
<asrwt>0</asrwt>
<pdfrwt beam="1">  1        2 0.15967313E+00 0.16142886E+04</pdfrwt>
<pdfrwt beam="2">  1       -1 0.96570347E-01 0.16142886E+04</pdfrwt>
<totfact> 0.26870143E+01</totfact>
</mgrwt>
</event>
<event>
12    6  0.1538774E-007  0.2211945E+04  0.7818608E-02  0.8513473E-01
          2   -1    0    0  501    0  0.00000000000E+00  0.00000000000E+00  0.25665631796E+04  0.25665631796E+04  0.00000000000E+00 0. -1.
         -1   -1    0    0    0  501 -0.00000000000E+00 -0.00000000000E+00 -0.47658083433E+03  0.47658083433E+03  0.00000000000E+00 0.  1.
         24    2    1    2    0    0  0.84178709389E+02  0.68972567765E+03  0.16908611056E+04  0.18297078652E+04  0.77537267704E+02 0.  0.
        254    2    1    2    0    0 -0.84178709389E+02 -0.68972567765E+03  0.39912123965E+03  0.12134361488E+04  0.91122003799E+03 0.  0.
         23    2    4    4    0    0 -0.43145007489E+03 -0.61532179007E+03  0.37953222562E+03  0.84645959324E+03  0.87630247314E+02 0.  0.
         23    2    4    4    0    0  0.34727136550E+03 -0.74403887580E+02  0.19589014029E+02  0.36697655552E+03  0.90303505161E+02 0.  0.
          4    1    3    3  502    0  0.72240091085E+02  0.48888895425E+03  0.12839466156E+04  0.13757724929E+04  0.00000000000E+00 0. -1.
         -3    1    3    3    0  502  0.11938618303E+02  0.20083672340E+03  0.40691449002E+03  0.45393537234E+03  0.00000000000E+00 0.  1.
         11    1    5    5    0    0 -0.29148103578E+03 -0.38752281783E+03  0.28733151946E+03  0.56364397507E+03  0.00000000000E+00 0.  1.
        -11    1    5    5    0    0 -0.13996903911E+03 -0.22779897225E+03  0.92200706161E+02  0.28281561818E+03  0.00000000000E+00 0. -1.
          3    1    6    6  503    0  0.60541030721E+02 -0.34250823496E+02  0.33311841922E+02  0.77123369501E+02  0.00000000000E+00 0. -1.
         -3    1    6    6    0  503  0.28673033478E+03 -0.40153064084E+02 -0.13722827893E+02  0.28985318602E+03  0.00000000000E+00 0.  1.
<mgrwt>
<rscale>  0 0.22119447E+04</rscale>
<asrwt>0</asrwt>
<pdfrwt beam="1">  1        2 0.39485587E+00 0.22119447E+04</pdfrwt>
<pdfrwt beam="2">  1       -1 0.73320130E-01 0.22119447E+04</pdfrwt>
<totfact> 0.62023989E+00</totfact>
</mgrwt>
</event>
<event>
12    6  0.1538774E-007  0.1546445E+04  0.7818608E-02  0.8854142E-01
         -1   -1    0    0    0  501 -0.00000000000E+00  0.00000000000E+00  0.30429576933E+03  0.30429576933E+03  0.00000000000E+00 0.  1.
          2   -1    0    0  501    0  0.00000000000E+00 -0.00000000000E+00 -0.19647765527E+04  0.19647765527E+04  0.00000000000E+00 0. -1.
         24    2    1    2    0    0  0.24205854110E+03  0.43104887845E+03 -0.36057204649E+03  0.61788293885E+03  0.85858327968E+02 0.  0.
        254    2    1    2    0    0 -0.24205854110E+03 -0.43104887845E+03 -0.12999087368E+04  0.16511893831E+04  0.89009447925E+03 0.  0.
         23    2    4    4    0    0  0.26023215469E+03 -0.41169228008E+03 -0.51858953190E+03  0.71748417413E+03  0.92936159411E+02 0.  0.
         23    2    4    4    0    0 -0.50229069578E+03 -0.19356598369E+02 -0.78131920493E+03  0.93370520901E+03  0.93140197373E+02 0.  0.
          4    1    3    3  502    0  0.20087529425E+03  0.40483322979E+03 -0.33652570497E+03  0.56346284517E+03  0.00000000000E+00 0. -1.
         -3    1    3    3    0  502  0.41183246848E+02  0.26215648654E+02 -0.24046341525E+02  0.54420093679E+02  0.00000000000E+00 0.  1.
         11    1    5    5    0    0  0.18346620318E+03 -0.25160237217E+03 -0.27090005966E+03  0.41273531921E+03  0.00000000000E+00 0.  1.
        -11    1    5    5    0    0  0.76765951506E+02 -0.16008990790E+03 -0.24768947223E+03  0.30474885493E+03  0.00000000000E+00 0. -1.
          2    1    6    6  503    0 -0.25741703844E+03  0.29930794277E+02 -0.35371215233E+03  0.43848793692E+03  0.00000000000E+00 0. -1.
         -2    1    6    6    0  503 -0.24487365735E+03 -0.49287392646E+02 -0.42760705260E+03  0.49521727208E+03  0.00000000000E+00 0.  1.
<mgrwt>
<rscale>  0 0.15464452E+04</rscale>
<asrwt>0</asrwt>
<pdfrwt beam="1">  1        2 0.30227331E+00 0.15464452E+04</pdfrwt>
<pdfrwt beam="2">  1       -1 0.46814734E-01 0.15464452E+04</pdfrwt>
<totfact> 0.34865256E+01</totfact>
</mgrwt>
</event>
<event>
12    6  0.1538774E-007  0.2122258E+04  0.7818608E-02  0.8551501E-01
         -1   -1    0    0    0  501 -0.00000000000E+00  0.00000000000E+00  0.11333015606E+04  0.11333015606E+04  0.00000000000E+00 0.  1.
          2   -1    0    0  501    0  0.00000000000E+00 -0.00000000000E+00 -0.99355310514E+03  0.99355310514E+03  0.00000000000E+00 0. -1.
         24    2    1    2    0    0 -0.78242964597E+02 -0.54510944769E+03  0.72313748024E+03  0.91239203724E+03  0.79152655127E+02 0.  0.
        254    2    1    2    0    0  0.78242964597E+02  0.54510944769E+03 -0.58338902477E+03  0.12144626285E+04  0.91176227733E+03 0.  0.
         23    2    4    4    0    0 -0.26215300851E+03  0.38215931135E+03  0.46971711270E+02  0.47422785942E+03  0.88970679803E+02 0.  0.
         23    2    4    4    0    0  0.34039597311E+03  0.16295013634E+03 -0.63036073604E+03  0.74023476910E+03  0.90391871294E+02 0.  0.
          4    1    3    3  502    0 -0.13334613814E+02 -0.45124861585E+02  0.10242383544E+03  0.11271515925E+03  0.00000000000E+00 0. -1.
         -3    1    3    3    0  502 -0.64908350783E+02 -0.49998458611E+03  0.62071364481E+03  0.79967687799E+03  0.00000000000E+00 0.  1.
         11    1    5    5    0    0 -0.16849236521E+03  0.19305946254E+03  0.58684274240E+02  0.26287920659E+03  0.00000000000E+00 0.  1.
        -11    1    5    5    0    0 -0.93660643298E+02  0.18909984881E+03 -0.11712562970E+02  0.21134865283E+03  0.00000000000E+00 0. -1.
          1    1    6    6  503    0  0.26472161049E+02  0.95874831647E+01 -0.13322641339E+02  0.31147839673E+02  0.00000000000E+00 0. -1.
         -1    1    6    6    0  503  0.31392381206E+03  0.15336265317E+03 -0.61703809470E+03  0.70908692942E+03  0.00000000000E+00 0.  1.
<mgrwt>
<rscale>  0 0.21222585E+04</rscale>
<asrwt>0</asrwt>
<pdfrwt beam="1">  1        2 0.15285432E+00 0.21222585E+04</pdfrwt>
<pdfrwt beam="2">  1       -1 0.17435409E+00 0.21222585E+04</pdfrwt>
<totfact> 0.61008424E+00</totfact>
</mgrwt>
</event>
<event>
12    6  0.1538774E-007  0.1270278E+04  0.7818608E-02  0.9053473E-01
          2   -1    0    0  501    0  0.00000000000E+00  0.00000000000E+00  0.14332793312E+04  0.14332793312E+04  0.00000000000E+00 0. -1.
         -1   -1    0    0    0  501 -0.00000000000E+00 -0.00000000000E+00 -0.28145350234E+03  0.28145350234E+03  0.00000000000E+00 0.  1.
         24    2    1    2    0    0 -0.40437520658E+02  0.51317157548E+02  0.70192603561E+03  0.70946501212E+03  0.79823556825E+02 0.  0.
        254    2    1    2    0    0  0.40437520658E+02 -0.51317157548E+02  0.44989979321E+03  0.10052678214E+04  0.89659629992E+03 0.  0.
         23    2    4    4    0    0 -0.12596172458E+03  0.34167616919E+03  0.42690619869E+03  0.56795845983E+03  0.87857549277E+02 0.  0.
         23    2    4    4    0    0  0.16639924524E+03 -0.39299332673E+03  0.22993594526E+02  0.43730936155E+03  0.92619159124E+02 0.  0.
          2    1    3    3  502    0 -0.16049809826E+02 -0.15180616250E+01  0.47246913495E+03  0.47274410032E+03  0.00000000000E+00 0. -1.
         -1    1    3    3    0  502 -0.24387710832E+02  0.52835219173E+02  0.22945690066E+03  0.23672091180E+03  0.00000000000E+00 0.  1.
         11    1    5    5    0    0 -0.23001908643E+02  0.14639387726E+03  0.12451290412E+03  0.19355546594E+03  0.00000000000E+00 0.  1.
        -11    1    5    5    0    0 -0.10295981594E+03  0.19528229192E+03  0.30239329457E+03  0.37440299389E+03  0.00000000000E+00 0. -1.
          2    1    6    6  503    0  0.79514182849E+02 -0.99631316926E+02 -0.17561730216E+02  0.12867524608E+03  0.00000000000E+00 0. -1.
         -2    1    6    6    0  503  0.86885062391E+02 -0.29336200981E+03  0.40555324741E+02  0.30863411547E+03  0.00000000000E+00 0.  1.
<mgrwt>
<rscale>  0 0.12702779E+04</rscale>
<asrwt>0</asrwt>
<pdfrwt beam="1">  1        2 0.22050451E+00 0.12702779E+04</pdfrwt>
<pdfrwt beam="2">  1       -1 0.43300540E-01 0.12702779E+04</pdfrwt>
<totfact> 0.81537542E+01</totfact>
</mgrwt>
</event>
<event>
12    6  0.1538774E-007  0.1207398E+04  0.7818608E-02  0.9106406E-01
          2   -1    0    0  501    0  0.00000000000E+00  0.00000000000E+00  0.15664214499E+04  0.15664214499E+04  0.00000000000E+00 0. -1.
         -1   -1    0    0    0  501 -0.00000000000E+00 -0.00000000000E+00 -0.23266566890E+03  0.23266566890E+03  0.00000000000E+00 0.  1.
         24    2    1    2    0    0 -0.11508401350E+03 -0.12187859500E+02  0.66826518109E+03  0.68295674455E+03  0.80365966598E+02 0.  0.
        254    2    1    2    0    0  0.11508401350E+03  0.12187859500E+02  0.66549059987E+03  0.11161303742E+04  0.88852484469E+03 0.  0.
         23    2    4    4    0    0 -0.17182141567E+03  0.18297852209E+03 -0.92688992130E+02  0.28236778576E+03  0.90202986351E+02 0.  0.
         23    2    4    4    0    0  0.28690542917E+03 -0.17079066259E+03  0.75817959200E+03  0.83376258845E+03  0.94019064309E+02 0.  0.
          4    1    3    3  502    0 -0.12079029297E+03 -0.25527449807E+02  0.63105157092E+03  0.64301479822E+03  0.00000000000E+00 0. -1.
         -3    1    3    3    0  502  0.57062794641E+01  0.13339590306E+02  0.37213610173E+02  0.39941946335E+02  0.00000000000E+00 0.  1.
         11    1    5    5    0    0 -0.60524658573E+02  0.10881687541E+02 -0.26866025277E+02  0.67107590728E+02  0.00000000000E+00 0. -1.
        -11    1    5    5    0    0 -0.11129675710E+03  0.17209683455E+03 -0.65822966853E+02  0.21526019503E+03  0.00000000000E+00 0.  1.
          3    1    6    6  503    0  0.97022879633E+02 -0.20767306236E+02  0.29395372289E+03  0.31024750020E+03  0.00000000000E+00 0. -1.
         -3    1    6    6    0  503  0.18988254954E+03 -0.15002335635E+03  0.46422586912E+03  0.52351508825E+03  0.00000000000E+00 0.  1.
<mgrwt>
<rscale>  0 0.12073980E+04</rscale>
<asrwt>0</asrwt>
<pdfrwt beam="1">  1        2 0.24098791E+00 0.12073980E+04</pdfrwt>
<pdfrwt beam="2">  1       -1 0.35794719E-01 0.12073980E+04</pdfrwt>
<totfact> 0.97493935E+01</totfact>
</mgrwt>
</event>
