<event>
12    3  0.4634846E-008  0.1279182E+04  0.7818608E-02  0.9046239E-01
          1   -1    0    0  501    0  0.00000000000E+00  0.00000000000E+00  0.10071812150E+04  0.10071812150E+04  0.00000000000E+00 0. -1.
         -1   -1    0    0    0  501 -0.00000000000E+00 -0.00000000000E+00 -0.40616017101E+03  0.40616017101E+03  0.00000000000E+00 0.  1.
         23    2    1    2    0    0 -0.18430268737E+03  0.11761606937E+03  0.39756823903E+03  0.46273430696E+03  0.90892869966E+02 0.  0.
        254    2    1    2    0    0  0.18430268737E+03 -0.11761606937E+03  0.20345280498E+03  0.95060707907E+03  0.90247424040E+03 0.  0.
         23    2    4    4    0    0 -0.24890412005E+03 -0.90607225821E+01 -0.20748335587E+03  0.33690793121E+03  0.91772836301E+02 0.  0.
         23    2    4    4    0    0  0.43320680741E+03 -0.10855534679E+03  0.41093616084E+03  0.61369914785E+03  0.91135692692E+02 0.  0.
          4    1    3    3  502    0 -0.11150454969E+03  0.10671679571E+03  0.20521727743E+03  0.25677980848E+03  0.00000000000E+00 0. -1.
         -4    1    3    3    0  502 -0.72798137680E+02  0.10899273654E+02  0.19235096160E+03  0.20595449848E+03  0.00000000000E+00 0.  1.
         13    1    5    5    0    0  0.49401428921E+01 -0.67537804815E+01  0.98384675724E+00  0.84253496680E+01  0.00000000000E+00 0.  1.
        -13    1    5    5    0    0 -0.25384426294E+03 -0.23069421006E+01 -0.20846720263E+03  0.32848258155E+03  0.00000000000E+00 0. -1.
          1    1    6    6  503    0  0.35447673578E+03 -0.52880322944E+02  0.33975350444E+03  0.49384464009E+03  0.00000000000E+00 0. -1.
         -1    1    6    6    0  503  0.78730071631E+02 -0.55675023843E+02  0.71182656407E+02  0.11985450777E+03  0.00000000000E+00 0.  1.
<mgrwt>
<rscale>  0 0.12791824E+04</rscale>
<asrwt>0</asrwt>
<pdfrwt beam="1">  1        1 0.15495096E+00 0.12791824E+04</pdfrwt>
<pdfrwt beam="2">  1       -1 0.62486180E-01 0.12791824E+04</pdfrwt>
<totfact> 0.38184366E+01</totfact>
</mgrwt>
</event>
<event>
12    3  0.4634846E-008  0.2309011E+04  0.7818608E-02  0.8474376E-01
         -2   -1    0    0    0  501 -0.00000000000E+00  0.00000000000E+00  0.65003594820E+03  0.65003594820E+03  0.00000000000E+00 0. -1.
          2   -1    0    0  501    0  0.00000000000E+00 -0.00000000000E+00 -0.20504765621E+04  0.20504765621E+04  0.00000000000E+00 0.  1.
         23    2    1    2    0    0  0.97335723023E+03  0.92971529654E+02 -0.68883301609E+03  0.11996267830E+04  0.92441828082E+02 0.  0.
        254    2    1    2    0    0 -0.97335723023E+03 -0.92971529654E+02 -0.71160759785E+03  0.15008857273E+04  0.88893452520E+03 0.  0.
         23    2    4    4    0    0 -0.41850744809E+03 -0.42370915711E+03 -0.57810112061E+03  0.83506035942E+03  0.91907368077E+02 0.  0.
         23    2    4    4    0    0 -0.55484978214E+03  0.33073762745E+03 -0.13350647724E+03  0.66582536786E+03  0.90850327856E+02 0.  0.
          2    1    3    3  502    0  0.14462491351E+03  0.46435359027E+02 -0.11569138714E+03  0.19093743802E+03  0.00000000000E+00 0. -1.
         -2    1    3    3    0  502  0.82873231672E+03  0.46536170627E+02 -0.57314162895E+03  0.10086893450E+04  0.00000000000E+00 0.  1.
         13    1    5    5    0    0 -0.38780305920E+03 -0.41408565143E+03 -0.52499676543E+03  0.77296813851E+03  0.00000000000E+00 0. -1.
        -13    1    5    5    0    0 -0.30704388894E+02 -0.96235056801E+01 -0.53104355179E+02  0.62092220913E+02  0.00000000000E+00 0.  1.
          4    1    6    6  503    0 -0.27840204534E+03  0.16435695414E+03 -0.20472624455E+02  0.32394449459E+03  0.00000000000E+00 0. -1.
         -4    1    6    6    0  503 -0.27644773680E+03  0.16638067332E+03 -0.11303385279E+03  0.34188087327E+03  0.00000000000E+00 0.  1.
<mgrwt>
<rscale>  0 0.23090115E+04</rscale>
<asrwt>0</asrwt>
<pdfrwt beam="1">  1        2 0.31545793E+00 0.23090115E+04</pdfrwt>
<pdfrwt beam="2">  1       -2 0.10000553E+00 0.23090115E+04</pdfrwt>
<totfact> 0.46852308E+00</totfact>
</mgrwt>
</event>
<event>
12    3  0.4634846E-008  0.1516961E+04  0.7818608E-02  0.8873252E-01
         -1   -1    0    0    0  501 -0.00000000000E+00  0.00000000000E+00  0.13655803957E+03  0.13655803957E+03  0.00000000000E+00 0.  1.
          1   -1    0    0  501    0  0.00000000000E+00 -0.00000000000E+00 -0.42128062771E+04  0.42128062771E+04  0.00000000000E+00 0. -1.
         23    2    1    2    0    0 -0.76142282824E+01 -0.31594402612E+03 -0.23523914960E+04  0.23752185294E+04  0.89658840348E+02 0.  0.
        254    2    1    2    0    0  0.76142282824E+01  0.31594402612E+03 -0.17238567415E+04  0.19741457873E+04  0.90867536566E+03 0.  0.
         23    2    4    4    0    0 -0.36502147551E+03 -0.57543085739E+02 -0.43116615579E+03  0.57501190198E+03  0.90457444254E+02 0.  0.
         23    2    4    4    0    0  0.37263570380E+03  0.37348711185E+03 -0.12926905857E+04  0.13991338853E+04  0.90425041711E+02 0.  0.
          1    1    3    3  502    0  0.28005982291E+02 -0.25717202272E+03 -0.19330225998E+04  0.19502559205E+04  0.00000000000E+00 0. -1.
         -1    1    3    3    0  502 -0.35620210573E+02 -0.58772003392E+02 -0.41936889621E+03  0.42496260882E+03  0.00000000000E+00 0.  1.
         13    1    5    5    0    0 -0.11533387397E+03  0.42724121026E+00 -0.19455534292E+03  0.22617220536E+03  0.00000000000E+00 0.  1.
        -13    1    5    5    0    0 -0.24968760155E+03 -0.57970326949E+02 -0.23661081287E+03  0.34883969662E+03  0.00000000000E+00 0. -1.
          4    1    6    6  503    0  0.33812695442E+03  0.36692771041E+03 -0.11819024578E+04  0.12829104418E+04  0.00000000000E+00 0. -1.
         -4    1    6    6    0  503  0.34508749378E+02  0.65594014449E+01 -0.11078812792E+03  0.11622344350E+03  0.00000000000E+00 0.  1.
<mgrwt>
<rscale>  0 0.15169609E+04</rscale>
<asrwt>0</asrwt>
<pdfrwt beam="1">  1        1 0.64812400E+00 0.15169609E+04</pdfrwt>
<pdfrwt beam="2">  1       -1 0.21008930E-01 0.15169609E+04</pdfrwt>
<totfact> 0.11452317E+00</totfact>
</mgrwt>
</event>
<event>
12    3  0.4634846E-008  0.2635091E+04  0.7818608E-02  0.8356378E-01
         -2   -1    0    0    0  501 -0.00000000000E+00  0.00000000000E+00  0.14800127678E+04  0.14800127678E+04  0.00000000000E+00 0.  1.
          2   -1    0    0  501    0  0.00000000000E+00 -0.00000000000E+00 -0.11729129841E+04  0.11729129841E+04  0.00000000000E+00 0. -1.
         23    2    1    2    0    0  0.10582002941E+04  0.42333947315E+03  0.35975910178E+03  0.11986515222E+04  0.91294514666E+02 0.  0.
        254    2    1    2    0    0 -0.10582002941E+04 -0.42333947315E+03 -0.52659318103E+02  0.14542742296E+04  0.90174073831E+03 0.  0.
         23    2    4    4    0    0 -0.37245395623E+03  0.15326769019E+03 -0.31113628491E+03  0.51742870017E+03  0.93347402740E+02 0.  0.
         23    2    4    4    0    0 -0.68574633790E+03 -0.57660716333E+03  0.25847696681E+03  0.93684552945E+03  0.90251553669E+02 0.  0.
          4    1    3    3  502    0  0.37800889311E+03  0.13117113231E+03  0.85199621313E+02  0.40909114473E+03  0.00000000000E+00 0. -1.
         -4    1    3    3    0  502  0.68019140102E+03  0.29216834083E+03  0.27455948046E+03  0.78956037750E+03  0.00000000000E+00 0.  1.
         13    1    5    5    0    0 -0.22888593345E+03  0.14203880190E+03 -0.20655756701E+03  0.33945518153E+03  0.00000000000E+00 0. -1.
        -13    1    5    5    0    0 -0.14356802279E+03  0.11228888280E+02 -0.10457871790E+03  0.17797351864E+03  0.00000000000E+00 0.  1.
          4    1    6    6  503    0 -0.14810813816E+03 -0.17543743803E+03  0.71095914663E+02  0.24035170965E+03  0.00000000000E+00 0.  1.
         -4    1    6    6    0  503 -0.53763819974E+03 -0.40116972531E+03  0.18738105214E+03  0.69649381980E+03  0.00000000000E+00 0. -1.
<mgrwt>
<rscale>  0 0.26350910E+04</rscale>
<asrwt>0</asrwt>
<pdfrwt beam="1">  1        2 0.18044815E+00 0.26350910E+04</pdfrwt>
<pdfrwt beam="2">  1       -2 0.22769427E+00 0.26350910E+04</pdfrwt>
<totfact> 0.15329847E+00</totfact>
</mgrwt>
</event>
<event>
12    3  0.4634846E-008  0.1486368E+04  0.7818608E-02  0.8893569E-01
         -1   -1    0    0    0  501 -0.00000000000E+00  0.00000000000E+00  0.48818029573E+03  0.48818029573E+03  0.00000000000E+00 0.  1.
          1   -1    0    0  501    0  0.00000000000E+00 -0.00000000000E+00 -0.11313897215E+04  0.11313897215E+04  0.00000000000E+00 0. -1.
         23    2    1    2    0    0  0.23324047418E+03 -0.39858812485E+03 -0.21075610223E+03  0.51577971341E+03  0.91306988113E+02 0.  0.
        254    2    1    2    0    0 -0.23324047418E+03  0.39858812485E+03 -0.43245332355E+03  0.11037903038E+04  0.90446865379E+03 0.  0.
         23    2    4    4    0    0 -0.47328493541E+03  0.11259804373E+02 -0.21371420415E+02  0.48292201796E+03  0.92905998425E+02 0.  0.
         23    2    4    4    0    0  0.24004446123E+03  0.38732832048E+03 -0.41108190314E+03  0.62086828585E+03  0.94045340537E+02 0.  0.
          4    1    3    3  502    0  0.18632149337E+03 -0.36999721556E+03 -0.17204292642E+03  0.44856705959E+03  0.00000000000E+00 0. -1.
         -4    1    3    3    0  502  0.46918980803E+02 -0.28590909290E+02 -0.38713175801E+02  0.67212653825E+02  0.00000000000E+00 0.  1.
         13    1    5    5    0    0 -0.95484242769E+01  0.15766702415E+02 -0.38639905510E+01  0.18833261379E+02  0.00000000000E+00 0. -1.
        -13    1    5    5    0    0 -0.46373651113E+03 -0.45068980418E+01 -0.17507429864E+02  0.46408875659E+03  0.00000000000E+00 0.  1.
          3    1    6    6  503    0  0.50149170260E+01 -0.43509094297E+01 -0.14500580319E+02  0.15948248657E+02  0.00000000000E+00 0. -1.
         -3    1    6    6    0  503  0.23502954421E+03  0.39167922991E+03 -0.39658132282E+03  0.60492003720E+03  0.00000000000E+00 0.  1.
<mgrwt>
<rscale>  0 0.14863676E+04</rscale>
<asrwt>0</asrwt>
<pdfrwt beam="1">  1        1 0.17405995E+00 0.14863676E+04</pdfrwt>
<pdfrwt beam="2">  1       -1 0.75104662E-01 0.14863676E+04</pdfrwt>
<totfact> 0.20735303E+01</totfact>
</mgrwt>
</event>
<event>
12    3  0.4634846E-008  0.1175780E+04  0.7818608E-02  0.9134324E-01
          2   -1    0    0  501    0  0.00000000000E+00  0.00000000000E+00  0.15995309885E+04  0.15995309885E+04  0.00000000000E+00 0.  1.
         -2   -1    0    0    0  501 -0.00000000000E+00 -0.00000000000E+00 -0.21607259465E+03  0.21607259465E+03  0.00000000000E+00 0. -1.
         23    2    1    2    0    0  0.55997135586E+02  0.17603496359E+03  0.44854912976E+03  0.49352459562E+03  0.90808683909E+02 0.  0.
        254    2    1    2    0    0 -0.55997135586E+02 -0.17603496359E+03  0.93490926413E+03  0.13220789876E+04  0.91635884327E+03 0.  0.
         23    2    4    4    0    0  0.10476547817E+03  0.19318992226E+03  0.87082747341E+03  0.90281053939E+03  0.91805392679E+02 0.  0.
         23    2    4    4    0    0 -0.16076261376E+03 -0.36922488585E+03  0.64081790721E+02  0.41926844818E+03  0.97508571046E+02 0.  0.
          4    1    3    3  502    0  0.30138685587E+02  0.90539373513E+02  0.33901407791E+03  0.35218782425E+03  0.00000000000E+00 0. -1.
         -4    1    3    3    0  502  0.25858449999E+02  0.85495590076E+02  0.10953505185E+03  0.14133677138E+03  0.00000000000E+00 0.  1.
         13    1    5    5    0    0  0.99721977846E+02  0.19908773547E+03  0.86473947709E+03  0.89294723389E+03  0.00000000000E+00 0. -1.
        -13    1    5    5    0    0  0.50435003258E+01 -0.58978132145E+01  0.60879963149E+01  0.98633054997E+01  0.00000000000E+00 0.  1.
          4    1    6    6  503    0 -0.46010324113E+02 -0.11724094570E+03 -0.25010348278E+02  0.12840524442E+03  0.00000000000E+00 0.  1.
         -4    1    6    6    0  503 -0.11475228965E+03 -0.25198394015E+03  0.89092138999E+02  0.29086320376E+03  0.00000000000E+00 0. -1.
<mgrwt>
<rscale>  0 0.11757803E+04</rscale>
<asrwt>0</asrwt>
<pdfrwt beam="1">  1        2 0.24608168E+00 0.11757803E+04</pdfrwt>
<pdfrwt beam="2">  1       -2 0.33241939E-01 0.11757803E+04</pdfrwt>
<totfact> 0.93167962E+01</totfact>
</mgrwt>
</event>
<event>
12    3  0.4634846E-008  0.2846223E+04  0.7818608E-02  0.8289060E-01
         -1   -1    0    0    0  501 -0.00000000000E+00  0.00000000000E+00  0.16572508673E+04  0.16572508673E+04  0.00000000000E+00 0.  1.
          1   -1    0    0  501    0  0.00000000000E+00 -0.00000000000E+00 -0.12220520880E+04  0.12220520880E+04  0.00000000000E+00 0. -1.
         23    2    1    2    0    0 -0.63040512798E+03 -0.41552094768E+03 -0.84863501394E+03  0.11393945449E+04  0.89276305715E+02 0.  0.
        254    2    1    2    0    0  0.63040512798E+03  0.41552094768E+03  0.12838337932E+04  0.17399084104E+04  0.89943525869E+03 0.  0.
         23    2    4    4    0    0  0.68551727253E+03  0.33245619804E+03  0.43857241785E+03  0.88388002397E+03  0.91853560250E+02 0.  0.
         23    2    4    4    0    0 -0.55112144550E+02  0.83064749649E+02  0.84526137533E+03  0.85602838638E+03  0.91546188116E+02 0.  0.
          4    1    3    3  502    0 -0.60030363286E+03 -0.36853070897E+03 -0.79066742455E+03  0.10589307396E+04  0.00000000000E+00 0. -1.
         -4    1    3    3    0  502 -0.30101495119E+02 -0.46990238715E+02 -0.57967589393E+02  0.80463805297E+02  0.00000000000E+00 0.  1.
         13    1    5    5    0    0  0.16415154640E+03  0.37729541802E+02  0.91665401417E+02  0.19175973072E+03  0.00000000000E+00 0.  1.
        -13    1    5    5    0    0  0.52136572613E+03  0.29472665623E+03  0.34690701643E+03  0.69212029325E+03  0.00000000000E+00 0. -1.
          3    1    6    6  503    0 -0.64007116972E+02  0.95136465038E+02  0.63775545912E+03  0.64798139143E+03  0.00000000000E+00 0. -1.
         -3    1    6    6    0  503  0.88949724226E+01 -0.12071715389E+02  0.20750591621E+03  0.20804699495E+03  0.00000000000E+00 0.  1.
<mgrwt>
<rscale>  0 0.28462234E+04</rscale>
<asrwt>0</asrwt>
<pdfrwt beam="1">  1        1 0.18800801E+00 0.28462234E+04</pdfrwt>
<pdfrwt beam="2">  1       -1 0.25496167E+00 0.28462234E+04</pdfrwt>
<totfact> 0.57452342E-01</totfact>
</mgrwt>
</event>
<event>
12    3  0.4634846E-008  0.3834025E+04  0.7818608E-02  0.8038892E-01
          2   -1    0    0  501    0  0.00000000000E+00  0.00000000000E+00  0.18434008700E+04  0.18434008700E+04  0.00000000000E+00 0. -1.
         -2   -1    0    0    0  501 -0.00000000000E+00 -0.00000000000E+00 -0.19935633430E+04  0.19935633430E+04  0.00000000000E+00 0.  1.
         23    2    1    2    0    0 -0.79366535113E+03  0.12690376596E+04 -0.10983761722E+04  0.18584972145E+04  0.84972994588E+02 0.  0.
        254    2    1    2    0    0  0.79366535113E+03 -0.12690376596E+04  0.94821369924E+03  0.19784669984E+04  0.88026199143E+03 0.  0.
         23    2    4    4    0    0 -0.35589155937E+02 -0.74370130342E+03  0.38974887100E+03  0.84537117149E+03  0.91597043705E+02 0.  0.
         23    2    4    4    0    0  0.82925450707E+03 -0.52533635614E+03  0.55846482824E+03  0.11330958270E+04  0.91552521047E+02 0.  0.
          1    1    3    3  502    0 -0.65067565022E+03  0.10290993896E+04 -0.85194897032E+03  0.14860152770E+04  0.00000000000E+00 0. -1.
         -1    1    3    3    0  502 -0.14298970091E+03  0.23993826994E+03 -0.24642720189E+03  0.37248193753E+03  0.00000000000E+00 0.  1.
         13    1    5    5    0    0 -0.25226949660E+02 -0.74178575909E+02  0.61696436411E+02  0.99726176999E+02  0.00000000000E+00 0. -1.
        -13    1    5    5    0    0 -0.10362206277E+02 -0.66952272751E+03  0.32805243459E+03  0.74564499449E+03  0.00000000000E+00 0.  1.
          2    1    6    6  503    0  0.10320196972E+03 -0.58205951190E+02  0.35397369783E+02  0.12365901946E+03  0.00000000000E+00 0. -1.
         -2    1    6    6    0  503  0.72605253735E+03 -0.46713040495E+03  0.52306745846E+03  0.10094368075E+04  0.00000000000E+00 0.  1.
<mgrwt>
<rscale>  0 0.38340247E+04</rscale>
<asrwt>0</asrwt>
<pdfrwt beam="1">  1        2 0.28360013E+00 0.38340247E+04</pdfrwt>
<pdfrwt beam="2">  1       -2 0.30670205E+00 0.38340247E+04</pdfrwt>
<totfact> 0.18871398E-01</totfact>
</mgrwt>
</event>
<event>
12    3  0.4634846E-008  0.1805220E+04  0.7818608E-02  0.8703528E-01
         -1   -1    0    0    0  501 -0.00000000000E+00  0.00000000000E+00  0.44785748222E+03  0.44785748222E+03  0.00000000000E+00 0.  1.
          1   -1    0    0  501    0  0.00000000000E+00 -0.00000000000E+00 -0.18191167372E+04  0.18191167372E+04  0.00000000000E+00 0. -1.
         23    2    1    2    0    0  0.35949273576E+03 -0.46160537392E+02  0.18762930249E+03  0.41771578306E+03  0.88971332388E+02 0.  0.
        254    2    1    2    0    0 -0.35949273576E+03  0.46160537392E+02 -0.15588885575E+04  0.18492584364E+04  0.92642183027E+03 0.  0.
         23    2    4    4    0    0 -0.49543508406E+03  0.36076628002E+03 -0.11674608469E+04  0.13216872731E+04  0.91017511789E+02 0.  0.
         23    2    4    4    0    0  0.13594234830E+03 -0.31460574263E+03 -0.39142771063E+03  0.52757116334E+03  0.87513338333E+02 0.  0.
          2    1    3    3  502    0  0.22062554441E+03 -0.45109986512E+02  0.70278883013E+02  0.23590180823E+03  0.00000000000E+00 0. -1.
         -2    1    3    3    0  502  0.13886719135E+03 -0.10505508800E+01  0.11735041948E+03  0.18181397483E+03  0.00000000000E+00 0.  1.
         13    1    5    5    0    0 -0.22671309002E+03  0.16258949738E+03 -0.43596199474E+03  0.51758770339E+03  0.00000000000E+00 0.  1.
        -13    1    5    5    0    0 -0.26872199404E+03  0.19817678264E+03 -0.73149885213E+03  0.80409956967E+03  0.00000000000E+00 0. -1.
          2    1    6    6  503    0  0.91080134453E+02 -0.28030947719E+03 -0.30341974032E+03  0.42300417577E+03  0.00000000000E+00 0. -1.
         -2    1    6    6    0  503  0.44862213848E+02 -0.34296265438E+02 -0.88007970301E+02  0.10456698758E+03  0.00000000000E+00 0.  1.
<mgrwt>
<rscale>  0 0.18052203E+04</rscale>
<asrwt>0</asrwt>
<pdfrwt beam="1">  1        1 0.27986411E+00 0.18052203E+04</pdfrwt>
<pdfrwt beam="2">  1       -1 0.68901151E-01 0.18052203E+04</pdfrwt>
<totfact> 0.79481880E+00</totfact>
</mgrwt>
</event>
<event>
12    3  0.4634846E-008  0.1238134E+04  0.7818608E-02  0.9080118E-01
         -2   -1    0    0    0  501 -0.00000000000E+00  0.00000000000E+00  0.33000506638E+03  0.33000506638E+03  0.00000000000E+00 0.  1.
          2   -1    0    0  501    0  0.00000000000E+00 -0.00000000000E+00 -0.11613269207E+04  0.11613269207E+04  0.00000000000E+00 0. -1.
         23    2    1    2    0    0 -0.17475916990E+03  0.17664349530E+03 -0.36664807120E+03  0.45201841375E+03  0.90256004525E+02 0.  0.
        254    2    1    2    0    0  0.17475916990E+03 -0.17664349530E+03 -0.46467378316E+03  0.10393135734E+04  0.89582771064E+03 0.  0.
         23    2    4    4    0    0 -0.20664029535E+03  0.12909328212E+03  0.10760769659E+03  0.28126047651E+03  0.90347950318E+02 0.  0.
         23    2    4    4    0    0  0.38139946525E+03 -0.30573677742E+03 -0.57228147975E+03  0.75805309687E+03  0.90542125247E+02 0.  0.
          1    1    3    3  502    0 -0.18292085875E+03  0.17189842471E+03 -0.36409620323E+03  0.44223879770E+03  0.00000000000E+00 0. -1.
         -1    1    3    3    0  502  0.81616888543E+01  0.47450705880E+01 -0.25518679738E+01  0.97796160454E+01  0.00000000000E+00 0.  1.
         13    1    5    5    0    0 -0.85063664422E+02  0.32122086866E+02 -0.20897790807E+01  0.90950660504E+02  0.00000000000E+00 0.  1.
        -13    1    5    5    0    0 -0.12157663093E+03  0.96971195255E+02  0.10969747568E+03  0.19030981600E+03  0.00000000000E+00 0. -1.
          3    1    6    6  503    0  0.30356138785E+03 -0.19897804246E+03 -0.44888493175E+03  0.57726896637E+03  0.00000000000E+00 0. -1.
         -3    1    6    6    0  503  0.77838077399E+02 -0.10675873496E+03 -0.12339654800E+03  0.18078413050E+03  0.00000000000E+00 0.  1.
<mgrwt>
<rscale>  0 0.12381337E+04</rscale>
<asrwt>0</asrwt>
<pdfrwt beam="1">  1        2 0.17866568E+00 0.12381337E+04</pdfrwt>
<pdfrwt beam="2">  1       -2 0.50770010E-01 0.12381337E+04</pdfrwt>
<totfact> 0.72126760E+01</totfact>
</mgrwt>
</event>
<event>
12    3  0.4634846E-008  0.2034535E+04  0.7818608E-02  0.8590642E-01
          2   -1    0    0  501    0  0.00000000000E+00  0.00000000000E+00  0.19092068199E+04  0.19092068199E+04  0.00000000000E+00 0. -1.
         -2   -1    0    0    0  501 -0.00000000000E+00 -0.00000000000E+00 -0.54202271948E+03  0.54202271948E+03  0.00000000000E+00 0.  1.
         23    2    1    2    0    0  0.71040244175E+03 -0.19931895568E+03  0.14629314539E+03  0.75744845973E+03  0.89032631201E+02 0.  0.
        254    2    1    2    0    0 -0.71040244175E+03  0.19931895568E+03  0.12208909550E+04  0.16937810796E+04  0.91319217381E+03 0.  0.
         23    2    4    4    0    0  0.14293483204E+03 -0.16955968770E+03  0.26138542481E+03  0.35405832973E+03  0.88623397837E+02 0.  0.
         23    2    4    4    0    0 -0.85333727379E+03  0.36887864338E+03  0.95950553017E+03  0.13397227499E+04  0.99750828103E+02 0.  0.
          1    1    3    3  502    0  0.18449716064E+03 -0.72842777231E+02  0.50901004664E+01  0.19842172663E+03  0.00000000000E+00 0. -1.
         -1    1    3    3    0  502  0.52590528111E+03 -0.12647617845E+03  0.14120304492E+03  0.55902673310E+03  0.00000000000E+00 0.  1.
         13    1    5    5    0    0  0.29522531083E+02 -0.72237296694E+01  0.61495875694E+01  0.31009345997E+02  0.00000000000E+00 0.  1.
        -13    1    5    5    0    0  0.11341230095E+03 -0.16233595803E+03  0.25523583724E+03  0.32304898373E+03  0.00000000000E+00 0. -1.
          2    1    6    6  503    0 -0.67958382326E+03  0.33540733729E+03  0.76704092402E+03  0.10782782729E+04  0.00000000000E+00 0. -1.
         -2    1    6    6    0  503 -0.17375345053E+03  0.33471306087E+02  0.19246460615E+03  0.26144447694E+03  0.00000000000E+00 0.  1.
<mgrwt>
<rscale>  0 0.20345353E+04</rscale>
<asrwt>0</asrwt>
<pdfrwt beam="1">  1        2 0.29372412E+00 0.20345353E+04</pdfrwt>
<pdfrwt beam="2">  1       -2 0.83388112E-01 0.20345353E+04</pdfrwt>
<totfact> 0.87496279E+00</totfact>
</mgrwt>
</event>
<event>
12    3  0.4634846E-008  0.1761642E+04  0.7818608E-02  0.8726968E-01
          1   -1    0    0  501    0  0.00000000000E+00  0.00000000000E+00  0.11032026125E+04  0.11032026125E+04  0.00000000000E+00 0. -1.
         -1   -1    0    0    0  501 -0.00000000000E+00 -0.00000000000E+00 -0.70326648427E+03  0.70326648427E+03  0.00000000000E+00 0.  1.
         23    2    1    2    0    0 -0.34249136747E+03 -0.54858587099E+03  0.11712914616E+03  0.66318172725E+03  0.88566200310E+02 0.  0.
        254    2    1    2    0    0  0.34249136747E+03  0.54858587099E+03  0.28280698204E+03  0.11432873695E+04  0.89937724316E+03 0.  0.
         23    2    4    4    0    0  0.64087605866E+03  0.36891487763E+03  0.22467074141E+03  0.77854249688E+03  0.93974293823E+02 0.  0.
         23    2    4    4    0    0 -0.29838469119E+03  0.17967099336E+03  0.58136240629E+02  0.36474487262E+03  0.91345004411E+02 0.  0.
          4    1    3    3  502    0 -0.19256919152E+03 -0.23663711050E+03  0.32019874534E+02  0.30676585200E+03  0.00000000000E+00 0. -1.
         -4    1    3    3    0  502 -0.14992217595E+03 -0.31194876049E+03  0.85109271626E+02  0.35641587525E+03  0.00000000000E+00 0.  1.
         13    1    5    5    0    0  0.33235083070E+02  0.26575608083E+02 -0.80312928662E+01  0.43305142383E+02  0.00000000000E+00 0.  1.
        -13    1    5    5    0    0  0.60764097559E+03  0.34233926955E+03  0.23270203428E+03  0.73523735450E+03  0.00000000000E+00 0. -1.
          3    1    6    6  503    0 -0.19590594994E+03  0.13642919185E+03  0.79229663185E+02  0.25153410333E+03  0.00000000000E+00 0. -1.
         -3    1    6    6    0  503 -0.10247874125E+03  0.43241801516E+02 -0.21093422556E+02  0.11321076928E+03  0.00000000000E+00 0.  1.
<mgrwt>
<rscale>  0 0.17616418E+04</rscale>
<asrwt>0</asrwt>
<pdfrwt beam="1">  1        1 0.16972348E+00 0.17616418E+04</pdfrwt>
<pdfrwt beam="2">  1       -1 0.10819484E+00 0.17616418E+04</pdfrwt>
<totfact> 0.94740377E+00</totfact>
</mgrwt>
</event>
<event>
12    3  0.4634846E-008  0.1520697E+04  0.7818608E-02  0.8870805E-01
         -1   -1    0    0    0  501 -0.00000000000E+00  0.00000000000E+00  0.10794988837E+04  0.10794988837E+04  0.00000000000E+00 0.  1.
          1   -1    0    0  501    0  0.00000000000E+00 -0.00000000000E+00 -0.53555412950E+03  0.53555412950E+03  0.00000000000E+00 0. -1.
         23    2    1    2    0    0 -0.41132020526E+03 -0.24450781679E+03  0.50359424903E+02  0.49020485019E+03  0.93788803978E+02 0.  0.
        254    2    1    2    0    0  0.41132020526E+03  0.24450781679E+03  0.49358532931E+03  0.11248481630E+04  0.89033057278E+03 0.  0.
         23    2    4    4    0    0  0.54126945053E+02 -0.30357711672E+03  0.29232365674E+03  0.43431985414E+03  0.89954563140E+02 0.  0.
         23    2    4    4    0    0  0.35719326021E+03  0.54808493351E+03  0.20126167257E+03  0.69052830888E+03  0.91317933894E+02 0.  0.
          1    1    3    3  502    0 -0.39289412504E+03 -0.24513206491E+03  0.63691529584E+02  0.46745281439E+03  0.00000000000E+00 0. -1.
         -1    1    3    3    0  502 -0.18426080220E+02  0.62424812658E+00 -0.13332104682E+02  0.22752035804E+02  0.00000000000E+00 0.  1.
         13    1    5    5    0    0  0.73401565061E+02 -0.28550986286E+03  0.26763777042E+03  0.39816284069E+03  0.00000000000E+00 0.  1.
        -13    1    5    5    0    0 -0.19274620008E+02 -0.18067253857E+02  0.24685886318E+02  0.36157013451E+02  0.00000000000E+00 0. -1.
          1    1    6    6  503    0  0.46267333245E+02  0.11384068594E+03  0.66430779359E+02  0.13969043040E+03  0.00000000000E+00 0. -1.
         -1    1    6    6    0  503  0.31092592696E+03  0.43424424757E+03  0.13483089321E+03  0.55083787848E+03  0.00000000000E+00 0.  1.
<mgrwt>
<rscale>  0 0.15206973E+04</rscale>
<asrwt>0</asrwt>
<pdfrwt beam="1">  1        1 0.82392943E-01 0.15206973E+04</pdfrwt>
<pdfrwt beam="2">  1       -1 0.16607675E+00 0.15206973E+04</pdfrwt>
<totfact> 0.10231652E+01</totfact>
</mgrwt>
</event>
<event>
12    3  0.4634846E-008  0.2204064E+04  0.7818608E-02  0.8516738E-01
          2   -1    0    0  501    0  0.00000000000E+00  0.00000000000E+00  0.13944583012E+04  0.13944583012E+04  0.00000000000E+00 0. -1.
         -2   -1    0    0    0  501 -0.00000000000E+00 -0.00000000000E+00 -0.87092933600E+03  0.87092933600E+03  0.00000000000E+00 0.  1.
         23    2    1    2    0    0  0.88908989744E+03 -0.80814835460E+02  0.35497544090E+02  0.89818222424E+03  0.91974719030E+02 0.  0.
        254    2    1    2    0    0 -0.88908989744E+03  0.80814835460E+02  0.48803142113E+03  0.13672054130E+04  0.91327109333E+03 0.  0.
         23    2    4    4    0    0 -0.27758936230E+03  0.52669067161E+02  0.66093290788E+03  0.72472675270E+03  0.92556321535E+02 0.  0.
         23    2    4    4    0    0 -0.61150053514E+03  0.28145768298E+02 -0.17290148676E+03  0.64247866028E+03  0.90326164760E+02 0.  0.
          2    1    3    3  502    0  0.17361888171E+03  0.59373017678E+01 -0.22354604384E+02  0.17515277895E+03  0.00000000000E+00 0. -1.
         -2    1    3    3    0  502  0.71547101573E+03 -0.86752137227E+02  0.57852148474E+02  0.72302944529E+03  0.00000000000E+00 0.  1.
         13    1    5    5    0    0 -0.45340689082E+02  0.40842407693E+02  0.95401463696E+02  0.11324892771E+03  0.00000000000E+00 0. -1.
        -13    1    5    5    0    0 -0.23224867322E+03  0.11826659468E+02  0.56553144419E+03  0.61147782499E+03  0.00000000000E+00 0.  1.
          1    1    6    6  503    0 -0.12239875007E+03 -0.19135527307E+02 -0.62882334409E+02  0.13893095553E+03  0.00000000000E+00 0. -1.
         -1    1    6    6    0  503 -0.48910178507E+03  0.47281295605E+02 -0.11001915235E+03  0.50354770474E+03  0.00000000000E+00 0.  1.
<mgrwt>
<rscale>  0 0.22040641E+04</rscale>
<asrwt>0</asrwt>
<pdfrwt beam="1">  1        2 0.21453205E+00 0.22040641E+04</pdfrwt>
<pdfrwt beam="2">  1       -2 0.13398913E+00 0.22040641E+04</pdfrwt>
<totfact> 0.53575649E+00</totfact>
</mgrwt>
</event>
<event>
12    3  0.4634846E-008  0.1364401E+04  0.7818608E-02  0.8979998E-01
          1   -1    0    0  501    0  0.00000000000E+00  0.00000000000E+00  0.13113974075E+04  0.13113974075E+04  0.00000000000E+00 0. -1.
         -1   -1    0    0    0  501 -0.00000000000E+00 -0.00000000000E+00 -0.35488690913E+03  0.35488690913E+03  0.00000000000E+00 0.  1.
         23    2    1    2    0    0  0.36646137464E+03 -0.59771796908E+02  0.29365816842E+03  0.48273236333E+03  0.94492369623E+02 0.  0.
        254    2    1    2    0    0 -0.36646137464E+03  0.59771796908E+02  0.66285233000E+03  0.11835519533E+04  0.90749953613E+03 0.  0.
         23    2    4    4    0    0 -0.18919928335E+03 -0.12494798402E+03  0.82828341951E+03  0.86363449251E+03  0.91666493810E+02 0.  0.
         23    2    4    4    0    0 -0.17726209129E+03  0.18471978093E+03 -0.16543108951E+03  0.31991746084E+03  0.97141597148E+02 0.  0.
          4    1    3    3  502    0  0.23484440593E+03 -0.47428809671E+02  0.24276124591E+03  0.34107830406E+03  0.00000000000E+00 0. -1.
         -4    1    3    3    0  502  0.13161696871E+03 -0.12342987237E+02  0.50896922503E+02  0.14165405927E+03  0.00000000000E+00 0.  1.
         13    1    5    5    0    0 -0.18143325344E+02  0.14361796268E+02  0.60066055626E+02  0.64369033588E+02  0.00000000000E+00 0. -1.
        -13    1    5    5    0    0 -0.17105595800E+03 -0.13930978029E+03  0.76821736388E+03  0.79926545892E+03  0.00000000000E+00 0.  1.
          1    1    6    6  503    0 -0.86354046209E+02  0.15217111347E+03 -0.12602023362E+03  0.21562506429E+03  0.00000000000E+00 0. -1.
         -1    1    6    6    0  503 -0.90908045084E+02  0.32548667460E+02 -0.39410855890E+02  0.10429239654E+03  0.00000000000E+00 0.  1.
<mgrwt>
<rscale>  0 0.13644014E+04</rscale>
<asrwt>0</asrwt>
<pdfrwt beam="1">  1        1 0.20175344E+00 0.13644014E+04</pdfrwt>
<pdfrwt beam="2">  1       -1 0.54597987E-01 0.13644014E+04</pdfrwt>
<totfact> 0.29413145E+01</totfact>
</mgrwt>
</event>
<event>
12    3  0.4634846E-008  0.1416433E+04  0.7818608E-02  0.8942008E-01
          2   -1    0    0  501    0  0.00000000000E+00  0.00000000000E+00  0.87970362629E+03  0.87970362629E+03  0.00000000000E+00 0. -1.
         -2   -1    0    0    0  501 -0.00000000000E+00 -0.00000000000E+00 -0.57015891181E+03  0.57015891181E+03  0.00000000000E+00 0.  1.
         23    2    1    2    0    0  0.20455365128E+03  0.35906080720E+03  0.12259352391E+03  0.44135793011E+03  0.94872497810E+02 0.  0.
        254    2    1    2    0    0 -0.20455365128E+03 -0.35906080720E+03  0.18695119057E+03  0.10085046080E+04  0.90075742415E+03 0.  0.
         23    2    4    4    0    0 -0.27529829742E+03 -0.29450429102E+01 -0.28493601289E+03  0.40614673058E+03  0.89268188530E+02 0.  0.
         23    2    4    4    0    0  0.70744646140E+02 -0.35611576429E+03  0.47188720346E+03  0.60235787741E+03  0.91292043209E+02 0.  0.
          2    1    3    3  502    0  0.20525303290E+02  0.64991718209E+02  0.55792962652E+02  0.88079885288E+02  0.00000000000E+00 0.  1.
         -2    1    3    3    0  502  0.18402834799E+03  0.29406908899E+03  0.66800561263E+02  0.35327804482E+03  0.00000000000E+00 0. -1.
         13    1    5    5    0    0 -0.10190835623E+03  0.32145968615E+02 -0.14744279864E+03  0.18209353431E+03  0.00000000000E+00 0.  1.
        -13    1    5    5    0    0 -0.17338994119E+03 -0.35091011525E+02 -0.13749321425E+03  0.22405319627E+03  0.00000000000E+00 0. -1.
          2    1    6    6  503    0  0.51939699499E+02 -0.28016342732E+03  0.42325816103E+03  0.51023205434E+03  0.00000000000E+00 0. -1.
         -2    1    6    6    0  503  0.18804946641E+02 -0.75952336970E+02  0.48629042428E+02  0.92125823073E+02  0.00000000000E+00 0.  1.
<mgrwt>
<rscale>  0 0.14164334E+04</rscale>
<asrwt>0</asrwt>
<pdfrwt beam="1">  1        2 0.13533902E+00 0.14164334E+04</pdfrwt>
<pdfrwt beam="2">  1       -2 0.87716756E-01 0.14164334E+04</pdfrwt>
<totfact> 0.33005792E+01</totfact>
</mgrwt>
</event>
<event>
12    3  0.4634846E-008  0.3444073E+04  0.7818608E-02  0.8127173E-01
         -2   -1    0    0    0  501 -0.00000000000E+00  0.00000000000E+00  0.15735128252E+04  0.15735128252E+04  0.00000000000E+00 0. -1.
          2   -1    0    0  501    0  0.00000000000E+00 -0.00000000000E+00 -0.18845790688E+04  0.18845790688E+04  0.00000000000E+00 0.  1.
         23    2    1    2    0    0 -0.62409614449E+03 -0.11464686398E+04 -0.10785838083E+04  0.16957682324E+04  0.91654387987E+02 0.  0.
        254    2    1    2    0    0  0.62409614449E+03  0.11464686398E+04  0.76751756471E+03  0.17623236616E+04  0.90156260830E+03 0.  0.
         23    2    4    4    0    0  0.42751240275E+03  0.22406499401E+02  0.26867052608E+03  0.51356064931E+03  0.91059229115E+02 0.  0.
         23    2    4    4    0    0  0.19658374174E+03  0.11240621404E+04  0.49884703862E+03  0.12487630123E+04  0.91650586945E+02 0.  0.
          1    1    3    3  502    0 -0.54446953776E+02 -0.71283162765E+02 -0.99795277191E+02  0.13418217996E+03  0.00000000000E+00 0. -1.
         -1    1    3    3    0  502 -0.56964919072E+03 -0.10751854770E+04 -0.97878853114E+03  0.15615860524E+04  0.00000000000E+00 0.  1.
         13    1    5    5    0    0  0.20085963419E+03  0.41483411291E+02  0.16667830363E+03  0.26428606274E+03  0.00000000000E+00 0. -1.
        -13    1    5    5    0    0  0.22665276857E+03 -0.19076911890E+02  0.10199222245E+03  0.24927458656E+03  0.00000000000E+00 0.  1.
          2    1    6    6  503    0  0.16981343750E+03  0.85473280362E+03  0.34351260450E+03  0.93669935336E+03  0.00000000000E+00 0. -1.
         -2    1    6    6    0  503  0.26770304239E+02  0.26932933676E+03  0.15533443412E+03  0.31206365897E+03  0.00000000000E+00 0.  1.
<mgrwt>
<rscale>  0 0.34440728E+04</rscale>
<asrwt>0</asrwt>
<pdfrwt beam="1">  1        2 0.28993524E+00 0.34440728E+04</pdfrwt>
<pdfrwt beam="2">  1       -2 0.24207890E+00 0.34440728E+04</pdfrwt>
<totfact> 0.45976355E-01</totfact>
</mgrwt>
</event>
<event>
12    3  0.4634846E-008  0.1842977E+04  0.7818608E-02  0.8683773E-01
         -1   -1    0    0    0  501 -0.00000000000E+00  0.00000000000E+00  0.12169453015E+04  0.12169453015E+04  0.00000000000E+00 0.  1.
          1   -1    0    0  501    0  0.00000000000E+00 -0.00000000000E+00 -0.69776445998E+03  0.69776445998E+03  0.00000000000E+00 0. -1.
         23    2    1    2    0    0 -0.52762787652E+03 -0.26477417972E+03  0.57318608570E+03  0.82813603148E+03  0.93650709959E+02 0.  0.
        254    2    1    2    0    0  0.52762787652E+03  0.26477417972E+03 -0.54005244186E+02  0.10865737300E+04  0.91062031713E+03 0.  0.
         23    2    4    4    0    0  0.63187655615E+02 -0.18537294732E+02 -0.41230812605E+03  0.42893465877E+03  0.98237668796E+02 0.  0.
         23    2    4    4    0    0  0.46444022090E+03  0.28331147446E+03  0.35830288186E+03  0.65763907122E+03  0.90211321303E+02 0.  0.
          3    1    3    3  502    0 -0.90698924276E+02 -0.84294541076E+01  0.83463929491E+02  0.12354585419E+03  0.00000000000E+00 0. -1.
         -3    1    3    3    0  502 -0.43692895224E+03 -0.25634472562E+03  0.48972215621E+03  0.70459017729E+03  0.00000000000E+00 0.  1.
         13    1    5    5    0    0 -0.85000999365E+01  0.16645222561E+02 -0.21879999708E+03  0.21959679837E+03  0.00000000000E+00 0.  1.
        -13    1    5    5    0    0  0.71687755552E+02 -0.35182517293E+02 -0.19350812897E+03  0.20933786040E+03  0.00000000000E+00 0. -1.
          2    1    6    6  503    0  0.13958258608E+03  0.13120966520E+03  0.14552190072E+03  0.24057410120E+03  0.00000000000E+00 0. -1.
         -2    1    6    6    0  503  0.32485763482E+03  0.15210180926E+03  0.21278098115E+03  0.41706497002E+03  0.00000000000E+00 0.  1.
<mgrwt>
<rscale>  0 0.18429771E+04</rscale>
<asrwt>0</asrwt>
<pdfrwt beam="1">  1        1 0.10734838E+00 0.18429771E+04</pdfrwt>
<pdfrwt beam="2">  1       -1 0.18722235E+00 0.18429771E+04</pdfrwt>
<totfact> 0.47570928E+00</totfact>
</mgrwt>
</event>
<event>
12    3  0.4634846E-008  0.1098030E+04  0.7818608E-02  0.9207114E-01
          2   -1    0    0  501    0  0.00000000000E+00  0.00000000000E+00  0.86625721775E+03  0.86625721775E+03  0.00000000000E+00 0. -1.
         -2   -1    0    0    0  501 -0.00000000000E+00 -0.00000000000E+00 -0.34795391440E+03  0.34795391440E+03  0.00000000000E+00 0.  1.
         23    2    1    2    0    0  0.47073521565E+02 -0.23740426994E+02  0.25469318379E+03  0.27791417295E+03  0.97919075519E+02 0.  0.
        254    2    1    2    0    0 -0.47073521565E+02  0.23740426994E+02  0.26361011956E+03  0.93629695920E+03  0.89687355651E+03 0.  0.
         23    2    4    4    0    0 -0.14350280772E+03 -0.32690637611E+03  0.39342464882E+03  0.53905038116E+03  0.91277185365E+02 0.  0.
         23    2    4    4    0    0  0.96429286159E+02  0.35064680310E+03 -0.12981452926E+03  0.39724657804E+03  0.93280458844E+02 0.  0.
          3    1    3    3  502    0  0.66750607539E+02  0.12052880038E+02  0.18615845671E+03  0.19813098326E+03  0.00000000000E+00 0. -1.
         -3    1    3    3    0  502 -0.19677085974E+02 -0.35793307031E+02  0.68534727085E+02  0.79783189691E+02  0.00000000000E+00 0.  1.
         13    1    5    5    0    0 -0.44916623854E+02 -0.19709926082E+03  0.18138223979E+03  0.27159738332E+03  0.00000000000E+00 0. -1.
        -13    1    5    5    0    0 -0.98586183871E+02 -0.12980711529E+03  0.21204240903E+03  0.26745299784E+03  0.00000000000E+00 0.  1.
          2    1    6    6  503    0  0.39313035319E+02  0.27565876179E+03 -0.75698219448E+02  0.28855413379E+03  0.00000000000E+00 0. -1.
         -2    1    6    6    0  503  0.57116250840E+02  0.74988041308E+02 -0.54116309812E+02  0.10869244425E+03  0.00000000000E+00 0.  1.
<mgrwt>
<rscale>  0 0.10980302E+04</rscale>
<asrwt>0</asrwt>
<pdfrwt beam="1">  1        2 0.13327034E+00 0.10980302E+04</pdfrwt>
<pdfrwt beam="2">  1       -2 0.53531372E-01 0.10980302E+04</pdfrwt>
<totfact> 0.10099008E+02</totfact>
</mgrwt>
</event>
<event>
12    3  0.4634846E-008  0.2132114E+04  0.7818608E-02  0.8547227E-01
         -1   -1    0    0    0  501 -0.00000000000E+00  0.00000000000E+00  0.31824592998E+03  0.31824592998E+03  0.00000000000E+00 0.  1.
          1   -1    0    0  501    0  0.00000000000E+00 -0.00000000000E+00 -0.35710680336E+04  0.35710680336E+04  0.00000000000E+00 0. -1.
         23    2    1    2    0    0 -0.19105684424E+03  0.71661485664E+03 -0.21943714605E+04  0.23181929049E+04  0.93341669189E+02 0.  0.
        254    2    1    2    0    0  0.19105684424E+03 -0.71661485664E+03 -0.10584506431E+04  0.15711210587E+04  0.89334430463E+03 0.  0.
         23    2    4    4    0    0  0.71450704536E+02  0.48352932668E+02  0.10832152103E+03  0.16783018724E+03  0.94816720861E+02 0.  0.
         23    2    4    4    0    0  0.11960613971E+03 -0.76496778931E+03 -0.11667721642E+04  0.14032908714E+04  0.91578597255E+02 0.  0.
          2    1    3    3  502    0 -0.14715649003E+03  0.43587281654E+03 -0.14599585286E+04  0.15307250080E+04  0.00000000000E+00 0. -1.
         -2    1    3    3    0  502 -0.43900354210E+02  0.28074204010E+03 -0.73441293188E+03  0.78746789692E+03  0.00000000000E+00 0.  1.
         13    1    5    5    0    0 -0.17057678465E+02 -0.10137111233E+02  0.29975548279E+02  0.35948002912E+02  0.00000000000E+00 0. -1.
        -13    1    5    5    0    0  0.88508383001E+02  0.58490043902E+02  0.78345972754E+02  0.13188218433E+03  0.00000000000E+00 0.  1.
          2    1    6    6  503    0  0.87904990586E+02 -0.32778793269E+03 -0.46019761117E+03  0.57179896600E+03  0.00000000000E+00 0. -1.
         -2    1    6    6    0  503  0.31701149122E+02 -0.43717985663E+03 -0.70657455298E+03  0.83149190544E+03  0.00000000000E+00 0.  1.
<mgrwt>
<rscale>  0 0.21321143E+04</rscale>
<asrwt>0</asrwt>
<pdfrwt beam="1">  1        1 0.54939511E+00 0.21321143E+04</pdfrwt>
<pdfrwt beam="2">  1       -1 0.48960910E-01 0.21321143E+04</pdfrwt>
<totfact> 0.84379310E-01</totfact>
</mgrwt>
</event>
<event>
12    3  0.4634846E-008  0.2167924E+04  0.7818608E-02  0.8531899E-01
         -2   -1    0    0    0  501 -0.00000000000E+00  0.00000000000E+00  0.12332455460E+04  0.12332455460E+04  0.00000000000E+00 0.  1.
          2   -1    0    0  501    0  0.00000000000E+00 -0.00000000000E+00 -0.95274879255E+03  0.95274879255E+03  0.00000000000E+00 0. -1.
         23    2    1    2    0    0 -0.41302478018E+03 -0.36706939607E+03  0.84645436337E+03  0.10151969168E+04  0.93863625150E+02 0.  0.
        254    2    1    2    0    0  0.41302478018E+03  0.36706939607E+03 -0.56595760987E+03  0.11707974217E+04  0.86320865150E+03 0.  0.
         23    2    4    4    0    0 -0.17315294190E+03  0.36095273297E+03 -0.35143639354E+03  0.53950962165E+03  0.85406536171E+02 0.  0.
         23    2    4    4    0    0  0.58617772208E+03  0.61166630970E+01 -0.21452121633E+03  0.63128780010E+03  0.94144563650E+02 0.  0.
          2    1    3    3  502    0 -0.24594391839E+03 -0.27650523949E+03  0.57666658090E+03  0.68519187384E+03  0.00000000000E+00 0.  1.
         -2    1    3    3    0  502 -0.16708086179E+03 -0.90564156582E+02  0.26978778248E+03  0.33000504300E+03  0.00000000000E+00 0. -1.
         13    1    5    5    0    0 -0.29149596093E+02  0.72149364014E+02 -0.11747215120E+03  0.14090754411E+03  0.00000000000E+00 0. -1.
        -13    1    5    5    0    0 -0.14400334580E+03  0.28880336896E+03 -0.23396424234E+03  0.39860207754E+03  0.00000000000E+00 0.  1.
          1    1    6    6  503    0  0.16717714637E+03  0.40107302451E+01 -0.10761108521E+03  0.19885781324E+03  0.00000000000E+00 0. -1.
         -1    1    6    6    0  503  0.41900057571E+03  0.21059328520E+01 -0.10691013112E+03  0.43242998685E+03  0.00000000000E+00 0.  1.
<mgrwt>
<rscale>  0 0.21679236E+04</rscale>
<asrwt>0</asrwt>
<pdfrwt beam="1">  1        2 0.14657674E+00 0.21679236E+04</pdfrwt>
<pdfrwt beam="2">  1       -2 0.18973008E+00 0.21679236E+04</pdfrwt>
<totfact> 0.38555690E+00</totfact>
</mgrwt>
</event>
<event>
12    3  0.4634846E-008  0.1239969E+04  0.7818608E-02  0.9078574E-01
         -2   -1    0    0    0  501 -0.00000000000E+00  0.00000000000E+00  0.28867698139E+03  0.28867698139E+03  0.00000000000E+00 0.  1.
          2   -1    0    0  501    0  0.00000000000E+00 -0.00000000000E+00 -0.13315251050E+04  0.13315251050E+04  0.00000000000E+00 0. -1.
         23    2    1    2    0    0  0.11952362030E+03  0.22612411627E+02 -0.58510662353E+03  0.60442893266E+03  0.90484013845E+02 0.  0.
        254    2    1    2    0    0 -0.11952362030E+03 -0.22612411627E+02 -0.45774150006E+03  0.10157731537E+04  0.89859368013E+03 0.  0.
         23    2    4    4    0    0 -0.22283946011E+03  0.39220810221E+03 -0.30769432647E+03  0.55373310509E+03  0.91977892465E+02 0.  0.
         23    2    4    4    0    0  0.10331583981E+03 -0.41482051384E+03 -0.15004717358E+03  0.46204004863E+03  0.90645633008E+02 0.  0.
          1    1    3    3  502    0  0.13286487442E+03  0.28912718713E+02 -0.50560757404E+03  0.52357238189E+03  0.00000000000E+00 0. -1.
         -1    1    3    3    0  502 -0.13341254116E+02 -0.63003070857E+01 -0.79499049493E+02  0.80856550761E+02  0.00000000000E+00 0.  1.
         13    1    5    5    0    0 -0.76951047446E+02  0.62028312595E+02 -0.77600597946E+02  0.12566156162E+03  0.00000000000E+00 0.  1.
        -13    1    5    5    0    0 -0.14588841266E+03  0.33017978962E+03 -0.23009372853E+03  0.42807154347E+03  0.00000000000E+00 0. -1.
          3    1    6    6  503    0  0.64833326773E+02 -0.37347369933E+03 -0.14292212283E+03  0.40510825411E+03  0.00000000000E+00 0. -1.
         -3    1    6    6    0  503  0.38482513035E+02 -0.41346814505E+02 -0.71250507508E+01  0.56931794521E+02  0.00000000000E+00 0.  1.
<mgrwt>
<rscale>  0 0.12399688E+04</rscale>
<asrwt>0</asrwt>
<pdfrwt beam="1">  1        2 0.20485002E+00 0.12399688E+04</pdfrwt>
<pdfrwt beam="2">  1       -2 0.44411843E-01 0.12399688E+04</pdfrwt>
<totfact> 0.74954690E+01</totfact>
</mgrwt>
</event>
<event>
12    3  0.4634846E-008  0.1366603E+04  0.7818608E-02  0.8978354E-01
         -1   -1    0    0    0  501 -0.00000000000E+00  0.00000000000E+00  0.45679270673E+03  0.45679270673E+03  0.00000000000E+00 0.  1.
          1   -1    0    0  501    0  0.00000000000E+00 -0.00000000000E+00 -0.10221285314E+04  0.10221285314E+04  0.00000000000E+00 0. -1.
         23    2    1    2    0    0 -0.10847787080E+03  0.21647015938E+03  0.15611669597E+03  0.30195707072E+03  0.90437113193E+02 0.  0.
        254    2    1    2    0    0  0.10847787080E+03 -0.21647015938E+03 -0.72145252068E+03  0.11769641675E+04  0.89784415882E+03 0.  0.
         23    2    4    4    0    0  0.79073923831E+01 -0.23789553148E+03 -0.90928779948E+03  0.94411490813E+03  0.88836066481E+02 0.  0.
         23    2    4    4    0    0  0.10057047842E+03  0.21425372100E+02  0.18783527880E+03  0.23284925933E+03  0.91450630992E+02 0.  0.
          2    1    3    3  502    0 -0.44730083039E+02  0.17320889348E+03  0.89126891730E+02  0.19986421375E+03  0.00000000000E+00 0.  1.
         -2    1    3    3    0  502 -0.63747787761E+02  0.43261265897E+02  0.66989804244E+02  0.10209285697E+03  0.00000000000E+00 0. -1.
         13    1    5    5    0    0 -0.21001489226E+02 -0.99611771337E+01 -0.11171769010E+03  0.11411016555E+03  0.00000000000E+00 0. -1.
        -13    1    5    5    0    0  0.28908881609E+02 -0.22793435434E+03 -0.79757010938E+03  0.83000474258E+03  0.00000000000E+00 0.  1.
          1    1    6    6  503    0  0.41135270671E+01  0.49725359811E+01 -0.10136045675E+02  0.12016099240E+02  0.00000000000E+00 0. -1.
         -1    1    6    6    0  503  0.96456951350E+02  0.16452836119E+02  0.19797132448E+03  0.22083316009E+03  0.00000000000E+00 0.  1.
<mgrwt>
<rscale>  0 0.13666029E+04</rscale>
<asrwt>0</asrwt>
<pdfrwt beam="1">  1        1 0.15725054E+00 0.13666029E+04</pdfrwt>
<pdfrwt beam="2">  1       -1 0.70275801E-01 0.13666029E+04</pdfrwt>
<totfact> 0.29098839E+01</totfact>
</mgrwt>
</event>
<event>
12    3  0.4634846E-008  0.1737991E+04  0.7818608E-02  0.8739988E-01
         -2   -1    0    0    0  501 -0.00000000000E+00  0.00000000000E+00  0.11670712217E+04  0.11670712217E+04  0.00000000000E+00 0.  1.
          2   -1    0    0  501    0  0.00000000000E+00 -0.00000000000E+00 -0.64704989549E+03  0.64704989549E+03  0.00000000000E+00 0. -1.
         23    2    1    2    0    0  0.12679547564E+03  0.17892477905E+03  0.79639246344E+03  0.83106875160E+03  0.91340817071E+02 0.  0.
        254    2    1    2    0    0 -0.12679547564E+03 -0.17892477905E+03 -0.27637113724E+03  0.98305236557E+03  0.91756186645E+03 0.  0.
         23    2    4    4    0    0 -0.47845650039E+03 -0.23616089904E+03 -0.33339881788E+02  0.54232057025E+03  0.91145269733E+02 0.  0.
         23    2    4    4    0    0  0.35166102475E+03  0.57236119990E+02 -0.24303125546E+03  0.44073179533E+03  0.90768246243E+02 0.  0.
          3    1    3    3  502    0 -0.92539449742E+01  0.85992271719E+01  0.13917018355E+02  0.18795361274E+02  0.00000000000E+00 0. -1.
         -3    1    3    3    0  502  0.13604942062E+03  0.17032555188E+03  0.78247544509E+03  0.81227339033E+03  0.00000000000E+00 0.  1.
         13    1    5    5    0    0 -0.11725837319E+03 -0.49554443251E+02  0.30196378170E+02  0.13083191577E+03  0.00000000000E+00 0. -1.
        -13    1    5    5    0    0 -0.36119812720E+03 -0.18660645579E+03 -0.63536259958E+02  0.41148865447E+03  0.00000000000E+00 0.  1.
          4    1    6    6  503    0  0.28804652026E+03  0.70184454734E+02 -0.16524640618E+03  0.33941571896E+03  0.00000000000E+00 0. -1.
         -4    1    6    6    0  503  0.63614504483E+02 -0.12948334744E+02 -0.77784849277E+02  0.10131607637E+03  0.00000000000E+00 0.  1.
<mgrwt>
<rscale>  0 0.17379912E+04</rscale>
<asrwt>0</asrwt>
<pdfrwt beam="1">  1        2 0.99546138E-01 0.17379912E+04</pdfrwt>
<pdfrwt beam="2">  1       -2 0.17954942E+00 0.17379912E+04</pdfrwt>
<totfact> 0.78281323E+00</totfact>
</mgrwt>
</event>
<event>
12    3  0.4634846E-008  0.1547372E+04  0.7818608E-02  0.8853548E-01
          2   -1    0    0  501    0  0.00000000000E+00  0.00000000000E+00  0.10328435226E+04  0.10328435226E+04  0.00000000000E+00 0. -1.
         -2   -1    0    0    0  501 -0.00000000000E+00 -0.00000000000E+00 -0.57955513907E+03  0.57955513907E+03  0.00000000000E+00 0.  1.
         23    2    1    2    0    0  0.21168820614E+03  0.18160371261E+02  0.63406693496E+03  0.67488559106E+03  0.91038383727E+02 0.  0.
        254    2    1    2    0    0 -0.21168820614E+03 -0.18160371261E+02 -0.18077855146E+03  0.93751307057E+03  0.89504646646E+03 0.  0.
         23    2    4    4    0    0  0.16819945801E+03 -0.35681209969E+03 -0.83390518915E+02  0.41199819077E+03  0.84750211751E+02 0.  0.
         23    2    4    4    0    0 -0.37988766415E+03  0.33865172843E+03 -0.97388032546E+02  0.52551487981E+03  0.87646046545E+02 0.  0.
          1    1    3    3  502    0  0.16550735618E+03 -0.25661754501E+02  0.45915756334E+03  0.48875032335E+03  0.00000000000E+00 0. -1.
         -1    1    3    3    0  502  0.46180849958E+02  0.43822125761E+02  0.17490937161E+03  0.18613526772E+03  0.00000000000E+00 0.  1.
         13    1    5    5    0    0  0.55963443395E+02 -0.21684718211E+03 -0.41501052524E+02  0.22776510871E+03  0.00000000000E+00 0. -1.
        -13    1    5    5    0    0  0.11223601462E+03 -0.13996491758E+03 -0.41889466391E+02  0.18423308206E+03  0.00000000000E+00 0.  1.
          4    1    6    6  503    0 -0.82817294430E+02  0.10958407465E+03  0.22523246024E+01  0.13737702370E+03  0.00000000000E+00 0. -1.
         -4    1    6    6    0  503 -0.29707036972E+03  0.22906765377E+03 -0.99640357148E+02  0.38813785611E+03  0.00000000000E+00 0.  1.
<mgrwt>
<rscale>  0 0.15473717E+04</rscale>
<asrwt>0</asrwt>
<pdfrwt beam="1">  1        2 0.15889900E+00 0.15473717E+04</pdfrwt>
<pdfrwt beam="2">  1       -2 0.89162329E-01 0.15473717E+04</pdfrwt>
<totfact> 0.24957464E+01</totfact>
</mgrwt>
</event>
<event>
12    3  0.4634846E-008  0.2045267E+04  0.7818608E-02  0.8585745E-01
          1   -1    0    0  501    0  0.00000000000E+00  0.00000000000E+00  0.18129475002E+04  0.18129475002E+04  0.00000000000E+00 0. -1.
         -1   -1    0    0    0  501 -0.00000000000E+00 -0.00000000000E+00 -0.57683912139E+03  0.57683912139E+03  0.00000000000E+00 0.  1.
         23    2    1    2    0    0  0.14455787002E+03 -0.45686959290E+03  0.12868577624E+04  0.13761972459E+04  0.91044803483E+02 0.  0.
        254    2    1    2    0    0 -0.14455787002E+03  0.45686959290E+03 -0.50749383624E+02  0.10135893757E+04  0.89171807194E+03 0.  0.
         23    2    4    4    0    0  0.33686164011E+03  0.10844683592E+02 -0.37045047942E+02  0.35088840813E+03  0.90315932389E+02 0.  0.
         23    2    4    4    0    0 -0.48141951013E+03  0.44602490931E+03 -0.13704335681E+02  0.66270096754E+03  0.91004390567E+02 0.  0.
          1    1    3    3  502    0  0.14025657856E+03 -0.45848062817E+03  0.12844374990E+04  0.13710055007E+04  0.00000000000E+00 0. -1.
         -1    1    3    3    0  502  0.43012914601E+01  0.16110352670E+01  0.24202634281E+01  0.51917451707E+01  0.00000000000E+00 0.  1.
         13    1    5    5    0    0  0.27271840249E+02  0.24022358251E+02  0.94444694335E+01  0.37550299192E+02  0.00000000000E+00 0. -1.
        -13    1    5    5    0    0  0.30958979986E+03 -0.13177674659E+02 -0.46489517376E+02  0.31333810894E+03  0.00000000000E+00 0.  1.
          1    1    6    6  503    0 -0.51737723153E+02  0.16133240925E+02  0.63128140676E+01  0.54561204910E+02  0.00000000000E+00 0. -1.
         -1    1    6    6    0  503 -0.42968178698E+03  0.42989166838E+03 -0.20017149749E+02  0.60813976263E+03  0.00000000000E+00 0.  1.
<mgrwt>
<rscale>  0 0.20452668E+04</rscale>
<asrwt>0</asrwt>
<pdfrwt beam="1">  1        1 0.27891500E+00 0.20452668E+04</pdfrwt>
<pdfrwt beam="2">  1       -1 0.88744481E-01 0.20452668E+04</pdfrwt>
<totfact> 0.45958042E+00</totfact>
</mgrwt>
</event>
<event>
12    3  0.4634846E-008  0.1385541E+04  0.7818608E-02  0.8964352E-01
          2   -1    0    0  501    0  0.00000000000E+00  0.00000000000E+00  0.28975266891E+04  0.28975266891E+04  0.00000000000E+00 0. -1.
         -2   -1    0    0    0  501 -0.00000000000E+00 -0.00000000000E+00 -0.16563474879E+03  0.16563474879E+03  0.00000000000E+00 0.  1.
         23    2    1    2    0    0 -0.20853187945E+02 -0.36816134612E+03  0.10904387884E+04  0.11546135928E+04  0.89989805621E+02 0.  0.
        254    2    1    2    0    0  0.20853187945E+02  0.36816134612E+03  0.16414531519E+04  0.19085478452E+04  0.90122627294E+03 0.  0.
         23    2    4    4    0    0 -0.42394452668E+03  0.26443617855E+03  0.88799971200E+03  0.10228516735E+04  0.89591312039E+02 0.  0.
         23    2    4    4    0    0  0.44479771463E+03  0.10372516757E+03  0.75345343993E+03  0.88569617168E+03  0.90342155503E+02 0.  0.
          4    1    3    3  502    0 -0.44320715200E+02 -0.19697441751E+03  0.67855644069E+03  0.70795627700E+03  0.00000000000E+00 0. -1.
         -4    1    3    3    0  502  0.23467527255E+02 -0.17118692861E+03  0.41188234771E+03  0.44665731576E+03  0.00000000000E+00 0.  1.
         13    1    5    5    0    0 -0.22687152533E+02  0.40222386694E+02  0.10854469124E+03  0.11795972736E+03  0.00000000000E+00 0. -1.
        -13    1    5    5    0    0 -0.40125737415E+03  0.22421379186E+03  0.77945502076E+03  0.90489194612E+03  0.00000000000E+00 0.  1.
          3    1    6    6  503    0  0.28509165385E+02  0.11591080790E+02  0.10671249952E+03  0.11106161902E+03  0.00000000000E+00 0. -1.
         -3    1    6    6    0  503  0.41628854924E+03  0.92134086780E+02  0.64674094041E+03  0.77463455267E+03  0.00000000000E+00 0.  1.
<mgrwt>
<rscale>  0 0.13855412E+04</rscale>
<asrwt>0</asrwt>
<pdfrwt beam="1">  1        2 0.44577330E+00 0.13855412E+04</pdfrwt>
<pdfrwt beam="2">  1       -2 0.25482271E-01 0.13855412E+04</pdfrwt>
<totfact> 0.27439526E+01</totfact>
</mgrwt>
</event>
<event>
12    3  0.4634846E-008  0.2281654E+04  0.7818608E-02  0.8485190E-01
         -1   -1    0    0    0  501 -0.00000000000E+00  0.00000000000E+00  0.97006585401E+03  0.97006585401E+03  0.00000000000E+00 0.  1.
          1   -1    0    0  501    0  0.00000000000E+00 -0.00000000000E+00 -0.13416477947E+04  0.13416477947E+04  0.00000000000E+00 0. -1.
         23    2    1    2    0    0  0.42972706644E+02  0.96079611104E+03 -0.16999439464E+03  0.98119892308E+03  0.94220018811E+02 0.  0.
        254    2    1    2    0    0 -0.42972706644E+02 -0.96079611104E+03 -0.20158754601E+03  0.13305147256E+04  0.89702624030E+03 0.  0.
         23    2    4    4    0    0  0.29640604810E+03 -0.22274909077E+02 -0.12489905982E+02  0.31077416837E+03  0.89843581010E+02 0.  0.
         23    2    4    4    0    0 -0.33937875474E+03 -0.93852120196E+03 -0.18909764002E+03  0.10197405572E+04  0.90071642994E+02 0.  0.
          3    1    3    3  502    0  0.47391257051E+02  0.94482506256E+03 -0.15456446378E+03  0.95855646863E+03  0.00000000000E+00 0. -1.
         -3    1    3    3    0  502 -0.44185504071E+01  0.15971048476E+02 -0.15429930863E+02  0.22642454451E+02  0.00000000000E+00 0.  1.
         13    1    5    5    0    0  0.28398246497E+02  0.25619276883E+02 -0.27767217482E+01  0.38347332838E+02  0.00000000000E+00 0. -1.
        -13    1    5    5    0    0  0.26800780160E+03 -0.47894185960E+02 -0.97131842334E+01  0.27242683553E+03  0.00000000000E+00 0.  1.
          1    1    6    6  503    0 -0.11260688590E+03 -0.23992965456E+03 -0.82402798854E+02  0.27755498761E+03  0.00000000000E+00 0. -1.
         -1    1    6    6    0  503 -0.22677186884E+03 -0.69859154740E+03 -0.10669484117E+03  0.74218556960E+03  0.00000000000E+00 0.  1.
<mgrwt>
<rscale>  0 0.22816544E+04</rscale>
<asrwt>0</asrwt>
<pdfrwt beam="1">  1        1 0.20640735E+00 0.22816544E+04</pdfrwt>
<pdfrwt beam="2">  1       -1 0.14924090E+00 0.22816544E+04</pdfrwt>
<totfact> 0.27053567E+00</totfact>
</mgrwt>
</event>
<event>
12    3  0.4634846E-008  0.1295432E+04  0.7818608E-02  0.9033195E-01
          1   -1    0    0  501    0  0.00000000000E+00  0.00000000000E+00  0.12639372635E+04  0.12639372635E+04  0.00000000000E+00 0. -1.
         -1   -1    0    0    0  501 -0.00000000000E+00 -0.00000000000E+00 -0.33192809983E+03  0.33192809983E+03  0.00000000000E+00 0.  1.
         23    2    1    2    0    0 -0.18772885890E+03  0.41045192585E+02  0.55803951571E+03  0.59923761947E+03  0.10368602221E+03 0.  0.
        254    2    1    2    0    0  0.18772885890E+03 -0.41045192585E+02  0.37396964792E+03  0.99662774382E+03  0.90359655261E+03 0.  0.
         23    2    4    4    0    0  0.20788712152E+03 -0.26848987791E+03  0.57861378471E+03  0.67696037306E+03  0.90429889963E+02 0.  0.
         23    2    4    4    0    0 -0.20158262614E+02  0.22744468533E+03 -0.20464413679E+03  0.31966737076E+03  0.90391176378E+02 0.  0.
          2    1    3    3  502    0 -0.14898859837E+03  0.74646812323E+02  0.41023925454E+03  0.44279339991E+03  0.00000000000E+00 0. -1.
         -2    1    3    3    0  502 -0.38740260531E+02 -0.33601619739E+02  0.14780026116E+03  0.15644421956E+03  0.00000000000E+00 0.  1.
         13    1    5    5    0    0  0.12800954223E+03 -0.17887247245E+03  0.45085421046E+03  0.50164860549E+03  0.00000000000E+00 0. -1.
        -13    1    5    5    0    0  0.79877579290E+02 -0.89617405460E+02  0.12775957426E+03  0.17531176757E+03  0.00000000000E+00 0.  1.
          1    1    6    6  503    0 -0.16418597610E+02  0.22347809733E+03 -0.21334509356E+03  0.30939967563E+03  0.00000000000E+00 0. -1.
         -1    1    6    6    0  503 -0.37396650039E+01  0.39665879966E+01  0.87009567624E+01  0.10267695129E+02  0.00000000000E+00 0.  1.
<mgrwt>
<rscale>  0 0.12954324E+04</rscale>
<asrwt>0</asrwt>
<pdfrwt beam="1">  1        1 0.19445188E+00 0.12954324E+04</pdfrwt>
<pdfrwt beam="2">  1       -1 0.51065862E-01 0.12954324E+04</pdfrwt>
<totfact> 0.36375685E+01</totfact>
</mgrwt>
</event>
<event>
12    3  0.4634846E-008  0.1397389E+04  0.7818608E-02  0.8955711E-01
          2   -1    0    0  501    0  0.00000000000E+00  0.00000000000E+00  0.47248097741E+03  0.47248097741E+03  0.00000000000E+00 0. -1.
         -2   -1    0    0    0  501 -0.00000000000E+00 -0.00000000000E+00 -0.10332138676E+04  0.10332138676E+04  0.00000000000E+00 0.  1.
         23    2    1    2    0    0 -0.75405688459E+02  0.38549808347E+03 -0.80547375930E+02  0.41149189337E+03  0.92427854740E+02 0.  0.
        254    2    1    2    0    0  0.75405688459E+02 -0.38549808347E+03 -0.48018551425E+03  0.10942029516E+04  0.90133633071E+03 0.  0.
         23    2    4    4    0    0 -0.21511179269E+03 -0.28878847555E+03  0.13992890095E+03  0.39677927432E+03  0.90453458985E+02 0.  0.
         23    2    4    4    0    0  0.29051748115E+03 -0.96709607918E+02 -0.62011441520E+03  0.69742367731E+03  0.90026344065E+02 0.  0.
          1    1    3    3  502    0 -0.15556127278E+02  0.28745512564E+03 -0.69124284915E+02  0.29605845557E+03  0.00000000000E+00 0. -1.
         -1    1    3    3    0  502 -0.59849561180E+02  0.98042957829E+02 -0.11423091015E+02  0.11543343780E+03  0.00000000000E+00 0.  1.
         13    1    5    5    0    0 -0.22108268662E+03 -0.26084585220E+03  0.12199446357E+03  0.36304374678E+03  0.00000000000E+00 0.  1.
        -13    1    5    5    0    0  0.59708939327E+01 -0.27942623353E+02  0.17934437385E+02  0.33735527542E+02  0.00000000000E+00 0. -1.
          1    1    6    6  503    0  0.46080740639E+02 -0.23038062973E+02 -0.45844559612E+02  0.68963110787E+02  0.00000000000E+00 0. -1.
         -1    1    6    6    0  503  0.24443674051E+03 -0.73671544945E+02 -0.57426985558E+03  0.62846056653E+03  0.00000000000E+00 0.  1.
<mgrwt>
<rscale>  0 0.13973888E+04</rscale>
<asrwt>0</asrwt>
<pdfrwt beam="1">  1        2 0.72689383E-01 0.13973888E+04</pdfrwt>
<pdfrwt beam="2">  1       -2 0.15895598E+00 0.13973888E+04</pdfrwt>
<totfact> 0.16397479E+01</totfact>
</mgrwt>
</event>
<event>
12    3  0.4634846E-008  0.2189715E+04  0.7818608E-02  0.8522721E-01
         -1   -1    0    0    0  501 -0.00000000000E+00  0.00000000000E+00  0.68957573417E+03  0.68957573417E+03  0.00000000000E+00 0.  1.
          1   -1    0    0  501    0  0.00000000000E+00 -0.00000000000E+00 -0.17383333366E+04  0.17383333366E+04  0.00000000000E+00 0. -1.
         23    2    1    2    0    0 -0.31808633947E+03 -0.42269559993E+03  0.37944163834E+03  0.65742353144E+03  0.91538260963E+02 0.  0.
        254    2    1    2    0    0  0.31808633947E+03  0.42269559993E+03 -0.14281992408E+04  0.17704855394E+04  0.90278208009E+03 0.  0.
         23    2    4    4    0    0  0.92350841193E+02  0.15805316149E+03  0.80422235819E+02  0.21968250591E+03  0.91012019345E+02 0.  0.
         23    2    4    4    0    0  0.22573549828E+03  0.26464243844E+03 -0.15086214766E+04  0.15508030334E+04  0.89772787914E+02 0.  0.
          3    1    3    3  502    0 -0.32099271214E+03 -0.41645577699E+03  0.36117271336E+03  0.63790082639E+03  0.00000000000E+00 0.  1.
         -3    1    3    3    0  502  0.29063726607E+01 -0.62398229372E+01  0.18268924983E+02  0.19522705047E+02  0.00000000000E+00 0. -1.
         13    1    5    5    0    0  0.17612046813E+02  0.78621962648E+01 -0.16980213941E+02  0.25696808918E+02  0.00000000000E+00 0. -1.
        -13    1    5    5    0    0  0.74738794380E+02  0.15019096522E+03  0.97402449760E+02  0.19398569700E+03  0.00000000000E+00 0.  1.
          3    1    6    6  503    0  0.53074493883E+02  0.10800268268E+03 -0.65272842997E+03  0.66372877341E+03  0.00000000000E+00 0. -1.
         -3    1    6    6    0  503  0.17266100440E+03  0.15663975576E+03 -0.85589304663E+03  0.88707426003E+03  0.00000000000E+00 0.  1.
<mgrwt>
<rscale>  0 0.21897146E+04</rscale>
<asrwt>0</asrwt>
<pdfrwt beam="1">  1        1 0.26743590E+00 0.21897146E+04</pdfrwt>
<pdfrwt beam="2">  1       -1 0.10608857E+00 0.21897146E+04</pdfrwt>
<totfact> 0.34029314E+00</totfact>
</mgrwt>
</event>
<event>
12    3  0.4634846E-008  0.2667309E+04  0.7818608E-02  0.8345691E-01
          2   -1    0    0  501    0  0.00000000000E+00  0.00000000000E+00  0.14065928966E+04  0.14065928966E+04  0.00000000000E+00 0. -1.
         -2   -1    0    0    0  501 -0.00000000000E+00 -0.00000000000E+00 -0.12644980127E+04  0.12644980127E+04  0.00000000000E+00 0.  1.
         23    2    1    2    0    0 -0.54838666965E+03  0.98510680864E+02  0.11036895676E+04  0.12397465307E+04  0.91697900787E+02 0.  0.
        254    2    1    2    0    0  0.54838666965E+03 -0.98510680864E+02 -0.96159468375E+03  0.14313443786E+04  0.90202555436E+03 0.  0.
         23    2    4    4    0    0  0.36606986227E+03 -0.39007051810E+03 -0.17950247920E+03  0.57167001428E+03  0.91778603358E+02 0.  0.
         23    2    4    4    0    0  0.18231680737E+03  0.29155983724E+03 -0.78209220455E+03  0.85967436434E+03  0.95526118691E+02 0.  0.
          1    1    3    3  502    0 -0.41565182873E+03  0.10542642151E+03  0.78580148008E+03  0.89519000172E+03  0.00000000000E+00 0. -1.
         -1    1    3    3    0  502 -0.13273484092E+03 -0.69157406472E+01  0.31788808754E+03  0.34455652898E+03  0.00000000000E+00 0.  1.
         13    1    5    5    0    0  0.63438264190E+02 -0.91514121618E+02 -0.30590731263E+01  0.11139392150E+03  0.00000000000E+00 0.  1.
        -13    1    5    5    0    0  0.30263159808E+03 -0.29855639649E+03 -0.17644340607E+03  0.46027609278E+03  0.00000000000E+00 0. -1.
          3    1    6    6  503    0  0.12320234684E+03  0.21099642810E+03 -0.64733590556E+03  0.69191190593E+03  0.00000000000E+00 0.  1.
         -3    1    6    6    0  503  0.59114460534E+02  0.80563409138E+02 -0.13475629898E+03  0.16776245841E+03  0.00000000000E+00 0. -1.
<mgrwt>
<rscale>  0 0.26673087E+04</rscale>
<asrwt>0</asrwt>
<pdfrwt beam="1">  1        2 0.21639891E+00 0.26673087E+04</pdfrwt>
<pdfrwt beam="2">  1       -2 0.19453816E+00 0.26673087E+04</pdfrwt>
<totfact> 0.18240904E+00</totfact>
</mgrwt>
</event>
<event>
12    3  0.4634846E-008  0.1244929E+04  0.7818608E-02  0.9074415E-01
         -1   -1    0    0    0  501 -0.00000000000E+00  0.00000000000E+00  0.23827210424E+03  0.23827210424E+03  0.00000000000E+00 0.  1.
          1   -1    0    0  501    0  0.00000000000E+00 -0.00000000000E+00 -0.16261316392E+04  0.16261316392E+04  0.00000000000E+00 0. -1.
         23    2    1    2    0    0 -0.95405070755E+02  0.31884473222E+02  0.68621231267E+02  0.15298731078E+03  0.92614775928E+02 0.  0.
        254    2    1    2    0    0  0.95405070755E+02 -0.31884473222E+02 -0.14564807662E+04  0.17114164326E+04  0.89302364829E+03 0.  0.
         23    2    4    4    0    0 -0.11198024193E+03 -0.21414660898E+03 -0.13894889044E+04  0.14133737945E+04  0.92453895983E+02 0.  0.
         23    2    4    4    0    0  0.20738531269E+03  0.18226213576E+03 -0.66991861840E+02  0.29804263814E+03  0.90074139163E+02 0.  0.
          3    1    3    3  502    0 -0.15873064435E+02 -0.22970085121E+02 -0.86966198095E+01  0.29243976835E+02  0.00000000000E+00 0. -1.
         -3    1    3    3    0  502 -0.79532006320E+02  0.54854558343E+02  0.77317851077E+02  0.12374333394E+03  0.00000000000E+00 0.  1.
         13    1    5    5    0    0  0.10324454949E+02 -0.60883682560E+02 -0.38579061994E+03  0.39070170156E+03  0.00000000000E+00 0.  1.
        -13    1    5    5    0    0 -0.12230469688E+03 -0.15326292642E+03 -0.10036982844E+04  0.10226720929E+04  0.00000000000E+00 0. -1.
          4    1    6    6  503    0  0.15486546645E+03  0.80141290672E+02 -0.53626295244E+02  0.18243277861E+03  0.00000000000E+00 0. -1.
         -4    1    6    6    0  503  0.52519846240E+02  0.10212084509E+03 -0.13365566596E+02  0.11560985953E+03  0.00000000000E+00 0.  1.
<mgrwt>
<rscale>  0 0.12449286E+04</rscale>
<asrwt>0</asrwt>
<pdfrwt beam="1">  1        1 0.25017411E+00 0.12449286E+04</pdfrwt>
<pdfrwt beam="2">  1       -1 0.36657246E-01 0.12449286E+04</pdfrwt>
<totfact> 0.37712627E+01</totfact>
</mgrwt>
</event>
<event>
12    3  0.4634846E-008  0.1681171E+04  0.7818608E-02  0.8772177E-01
         -2   -1    0    0    0  501 -0.00000000000E+00  0.00000000000E+00  0.79612991806E+03  0.79612991806E+03  0.00000000000E+00 0.  1.
          2   -1    0    0  501    0  0.00000000000E+00 -0.00000000000E+00 -0.88752358453E+03  0.88752358453E+03  0.00000000000E+00 0. -1.
         23    2    1    2    0    0  0.54556107478E+03 -0.10971113738E+02  0.19460188482E+03  0.58620945151E+03  0.89523046258E+02 0.  0.
        254    2    1    2    0    0 -0.54556107478E+03  0.10971113738E+02 -0.28599555129E+03  0.10974440511E+04  0.90820302701E+03 0.  0.
         23    2    4    4    0    0 -0.35873210479E+03  0.46744585890E+02  0.29752278506E+03  0.47693063126E+03  0.89828949026E+02 0.  0.
         23    2    4    4    0    0 -0.18682896998E+03 -0.35773472152E+02 -0.58351833636E+03  0.62051341983E+03  0.91424559008E+02 0.  0.
          4    1    3    3  502    0  0.77123117446E+02 -0.24927833605E+02  0.52198901668E+02  0.96405899551E+02  0.00000000000E+00 0. -1.
         -4    1    3    3    0  502  0.46843795733E+03  0.13956719868E+02  0.14240298316E+03  0.48980355196E+03  0.00000000000E+00 0.  1.
         13    1    5    5    0    0 -0.30026398543E+03  0.15097753116E+02  0.20869432039E+03  0.36597776224E+03  0.00000000000E+00 0.  1.
        -13    1    5    5    0    0 -0.58468119367E+02  0.31646832774E+02  0.88828464675E+02  0.11095286902E+03  0.00000000000E+00 0. -1.
          2    1    6    6  503    0 -0.51322457842E+01  0.19536183766E+02 -0.40907084019E+02  0.45622274668E+02  0.00000000000E+00 0. -1.
         -2    1    6    6    0  503 -0.18169672420E+03 -0.55309655918E+02 -0.54261125234E+03  0.57489114516E+03  0.00000000000E+00 0.  1.
<mgrwt>
<rscale>  0 0.16811711E+04</rscale>
<asrwt>0</asrwt>
<pdfrwt beam="1">  1        2 0.13654209E+00 0.16811711E+04</pdfrwt>
<pdfrwt beam="2">  1       -2 0.12248153E+00 0.16811711E+04</pdfrwt>
<totfact> 0.14376584E+01</totfact>
</mgrwt>
</event>
<event>
12    3  0.4634846E-008  0.2678594E+04  0.7818608E-02  0.8341984E-01
          2   -1    0    0  501    0  0.00000000000E+00  0.00000000000E+00  0.36534437263E+04  0.36534437263E+04  0.00000000000E+00 0. -1.
         -2   -1    0    0    0  501 -0.00000000000E+00 -0.00000000000E+00 -0.49096597625E+03  0.49096597625E+03  0.00000000000E+00 0.  1.
         23    2    1    2    0    0 -0.11701796384E+04 -0.19293878162E+03  0.13127213620E+04  0.17714861394E+04  0.91542383639E+02 0.  0.
        254    2    1    2    0    0  0.11701796384E+04  0.19293878162E+03  0.18497563880E+04  0.23729235631E+04  0.89589161280E+03 0.  0.
         23    2    4    4    0    0  0.67862454513E+03  0.21793405314E+03  0.17080927513E+04  0.18530044523E+04  0.89544002985E+02 0.  0.
         23    2    4    4    0    0  0.49155509332E+03 -0.24995271520E+02  0.14166363669E+03  0.51991911083E+03  0.89421040459E+02 0.  0.
          3    1    3    3  502    0 -0.20691483509E+03 -0.14208767855E+02  0.18830912978E+03  0.28013562148E+03  0.00000000000E+00 0. -1.
         -3    1    3    3    0  502 -0.96326480336E+03 -0.17873001377E+03  0.11244122323E+04  0.14913505179E+04  0.00000000000E+00 0.  1.
         13    1    5    5    0    0  0.13383163598E+03  0.57533410314E+02  0.44165042970E+03  0.46505494530E+03  0.00000000000E+00 0.  1.
        -13    1    5    5    0    0  0.54479290915E+03  0.16040064283E+03  0.12664423216E+04  0.13879495070E+04  0.00000000000E+00 0. -1.
          3    1    6    6  503    0  0.36283537857E+03 -0.23564519642E+02  0.62881430517E+02  0.36899711765E+03  0.00000000000E+00 0. -1.
         -3    1    6    6    0  503  0.12871971475E+03 -0.14307518778E+01  0.78782206171E+02  0.15092199318E+03  0.00000000000E+00 0.  1.
<mgrwt>
<rscale>  0 0.26785941E+04</rscale>
<asrwt>0</asrwt>
<pdfrwt beam="1">  1        2 0.56206825E+00 0.26785941E+04</pdfrwt>
<pdfrwt beam="2">  1       -2 0.75533229E-01 0.26785941E+04</pdfrwt>
<totfact> 0.87293080E-01</totfact>
</mgrwt>
</event>
<event>
12    3  0.4634846E-008  0.2308045E+04  0.7818608E-02  0.8474756E-01
         -2   -1    0    0    0  501 -0.00000000000E+00  0.00000000000E+00  0.56989721624E+03  0.56989721624E+03  0.00000000000E+00 0.  1.
          2   -1    0    0  501    0  0.00000000000E+00 -0.00000000000E+00 -0.23368563596E+04  0.23368563596E+04  0.00000000000E+00 0. -1.
         23    2    1    2    0    0  0.17554728271E+01  0.17672510587E+03 -0.19533856692E+04  0.19634575605E+04  0.90637599901E+02 0.  0.
        254    2    1    2    0    0 -0.17554728271E+01 -0.17672510587E+03  0.18642652584E+03  0.94329601534E+03  0.90764402619E+03 0.  0.
         23    2    4    4    0    0  0.89439135900E+02 -0.37844683677E+03 -0.23135769887E+03  0.46163449323E+03  0.91425670482E+02 0.  0.
         23    2    4    4    0    0 -0.91194608727E+02  0.20172173090E+03  0.41778422471E+03  0.48166152211E+03  0.91902394358E+02 0.  0.
          2    1    3    3  502    0  0.12255641171E+02  0.50605844296E+02 -0.10452455952E+04  0.10465416889E+04  0.00000000000E+00 0. -1.
         -2    1    3    3    0  502 -0.10500168344E+02  0.12611926158E+03 -0.90814007393E+03  0.91691587158E+03  0.00000000000E+00 0.  1.
         13    1    5    5    0    0  0.59928915536E+02 -0.15712617319E+03 -0.14564252288E+03  0.22246764639E+03  0.00000000000E+00 0. -1.
        -13    1    5    5    0    0  0.29510220364E+02 -0.22132066358E+03 -0.85715175984E+02  0.23916684684E+03  0.00000000000E+00 0.  1.
          1    1    6    6  503    0 -0.82768212878E+02  0.16657054583E+03  0.40052203492E+03  0.44160414882E+03  0.00000000000E+00 0. -1.
         -1    1    6    6    0  503 -0.84263958496E+01  0.35151185062E+02  0.17262189790E+02  0.40057373286E+02  0.00000000000E+00 0.  1.
<mgrwt>
<rscale>  0 0.23080450E+04</rscale>
<asrwt>0</asrwt>
<pdfrwt beam="1">  1        2 0.35951637E+00 0.23080450E+04</pdfrwt>
<pdfrwt beam="2">  1       -2 0.87676494E-01 0.23080450E+04</pdfrwt>
<totfact> 0.43925876E+00</totfact>
</mgrwt>
</event>
<event>
12    3  0.4634846E-008  0.2213811E+04  0.7818608E-02  0.8512702E-01
         -1   -1    0    0    0  501 -0.00000000000E+00  0.00000000000E+00  0.42999395006E+03  0.42999395006E+03  0.00000000000E+00 0.  1.
          1   -1    0    0  501    0  0.00000000000E+00 -0.00000000000E+00 -0.28494349668E+04  0.28494349668E+04  0.00000000000E+00 0. -1.
         23    2    1    2    0    0  0.83640585314E+03  0.20218992934E+03 -0.51008811202E+03  0.10046191425E+04  0.92812826264E+02 0.  0.
        254    2    1    2    0    0 -0.83640585314E+03 -0.20218992934E+03 -0.19093529047E+04  0.22748097744E+04  0.88807402628E+03 0.  0.
         23    2    4    4    0    0 -0.93998713873E+03 -0.11820830033E+03 -0.18843942770E+04  0.21110412542E+04  0.89467104365E+02 0.  0.
         23    2    4    4    0    0  0.10358128559E+03 -0.83981629006E+02 -0.24958627736E+02  0.16376852013E+03  0.91734390239E+02 0.  0.
          4    1    3    3  502    0  0.10214148252E+03  0.17938581705E+00 -0.82108306772E+02  0.13105223642E+03  0.00000000000E+00 0. -1.
         -4    1    3    3    0  502  0.73426437062E+03  0.20201054352E+03 -0.42797980525E+03  0.87356690606E+03  0.00000000000E+00 0.  1.
         13    1    5    5    0    0 -0.13798759957E+03 -0.10461283416E+02 -0.21209493084E+03  0.25324745957E+03  0.00000000000E+00 0. -1.
        -13    1    5    5    0    0 -0.80199953916E+03 -0.10774701692E+03 -0.16722993461E+04  0.18577937947E+04  0.00000000000E+00 0.  1.
          1    1    6    6  503    0  0.27348453292E+02 -0.28382014842E+02 -0.52340697065E+02  0.65521181561E+02  0.00000000000E+00 0. -1.
         -1    1    6    6    0  503  0.76232832300E+02 -0.55599614164E+02  0.27382069329E+02  0.98247338571E+02  0.00000000000E+00 0.  1.
<mgrwt>
<rscale>  0 0.22138110E+04</rscale>
<asrwt>0</asrwt>
<pdfrwt beam="1">  1        1 0.43837462E+00 0.22138110E+04</pdfrwt>
<pdfrwt beam="2">  1       -1 0.66152914E-01 0.22138110E+04</pdfrwt>
<totfact> 0.16208475E+00</totfact>
</mgrwt>
</event>
<event>
12    3  0.4634846E-008  0.1964700E+04  0.7818608E-02  0.8623305E-01
          1   -1    0    0  501    0  0.00000000000E+00  0.00000000000E+00  0.59628959338E+03  0.59628959338E+03  0.00000000000E+00 0. -1.
         -1   -1    0    0    0  501 -0.00000000000E+00 -0.00000000000E+00 -0.16183605580E+04  0.16183605580E+04  0.00000000000E+00 0.  1.
         23    2    1    2    0    0  0.31968440387E+03 -0.35590112630E+03 -0.10933812636E+04  0.11968935152E+04  0.90596739956E+02 0.  0.
        254    2    1    2    0    0 -0.31968440387E+03  0.35590112630E+03  0.71310298991E+02  0.10177566362E+04  0.89547734869E+03 0.  0.
         23    2    4    4    0    0  0.12084841250E+03 -0.54401851303E+01 -0.29679906352E+03  0.33298924943E+03  0.90322874806E+02 0.  0.
         23    2    4    4    0    0 -0.44053281637E+03  0.36134131143E+03  0.36810936251E+03  0.68476738677E+03  0.93622462959E+02 0.  0.
          4    1    3    3  502    0  0.16846552440E+03 -0.13264025385E+03 -0.42100050421E+03  0.47245687041E+03  0.00000000000E+00 0. -1.
         -4    1    3    3    0  502  0.15121887947E+03 -0.22326087245E+03 -0.67238075941E+03  0.72443664478E+03  0.00000000000E+00 0.  1.
         13    1    5    5    0    0  0.34892810037E+02  0.35421667662E+02 -0.60931070397E+02  0.78643487155E+02  0.00000000000E+00 0. -1.
        -13    1    5    5    0    0  0.85955602465E+02 -0.40861852792E+02 -0.23586799312E+03  0.25434576228E+03  0.00000000000E+00 0.  1.
          1    1    6    6  503    0 -0.73770846126E+02  0.20838281552E+02  0.41593049045E+02  0.87214410765E+02  0.00000000000E+00 0. -1.
         -1    1    6    6    0  503 -0.36676197025E+03  0.34050302988E+03  0.32651631347E+03  0.59755297601E+03  0.00000000000E+00 0.  1.
<mgrwt>
<rscale>  0 0.19647000E+04</rscale>
<asrwt>0</asrwt>
<pdfrwt beam="1">  1        1 0.91736862E-01 0.19647000E+04</pdfrwt>
<pdfrwt beam="2">  1       -1 0.24897854E+00 0.19647000E+04</pdfrwt>
<totfact> 0.22765125E+00</totfact>
</mgrwt>
</event>
<event>
12    3  0.4634846E-008  0.1650900E+04  0.7818608E-02  0.8789874E-01
         -2   -1    0    0    0  501 -0.00000000000E+00  0.00000000000E+00  0.38890721017E+03  0.38890721017E+03  0.00000000000E+00 0.  1.
          2   -1    0    0  501    0  0.00000000000E+00 -0.00000000000E+00 -0.17520049662E+04  0.17520049662E+04  0.00000000000E+00 0. -1.
         23    2    1    2    0    0  0.51761757938E+03 -0.13819942135E+02 -0.79116683190E+03  0.94963420543E+03  0.87984197056E+02 0.  0.
        254    2    1    2    0    0 -0.51761757938E+03  0.13819942135E+02 -0.57193092414E+03  0.11912779710E+04  0.90769999053E+03 0.  0.
         23    2    4    4    0    0  0.19022436812E+03  0.51974487560E+02  0.72106790358E+02  0.22925976234E+03  0.92054287402E+02 0.  0.
         23    2    4    4    0    0 -0.70784194749E+03 -0.38154545425E+02 -0.64403771450E+03  0.96201820861E+03  0.90545370091E+02 0.  0.
          2    1    3    3  502    0  0.12078390859E+03  0.12595605473E+02 -0.25114093703E+03  0.27896087917E+03  0.00000000000E+00 0. -1.
         -2    1    3    3    0  502  0.39683367079E+03 -0.26415547608E+02 -0.54002589487E+03  0.67067332626E+03  0.00000000000E+00 0.  1.
         13    1    5    5    0    0  0.11904583167E+03  0.72668870208E+02  0.67614138002E+02  0.15499789157E+03  0.00000000000E+00 0. -1.
        -13    1    5    5    0    0  0.71178536449E+02 -0.20694382647E+02  0.44926523559E+01  0.74261870764E+02  0.00000000000E+00 0.  1.
          1    1    6    6  503    0 -0.18757870813E+03 -0.35520992825E+02 -0.21619777344E+03  0.28842501611E+03  0.00000000000E+00 0. -1.
         -1    1    6    6    0  503 -0.52026323936E+03 -0.26335526004E+01 -0.42783994106E+03  0.67359319251E+03  0.00000000000E+00 0.  1.
<mgrwt>
<rscale>  0 0.16508996E+04</rscale>
<asrwt>0</asrwt>
<pdfrwt beam="1">  1        2 0.26953922E+00 0.16508996E+04</pdfrwt>
<pdfrwt beam="2">  1       -2 0.59831880E-01 0.16508996E+04</pdfrwt>
<totfact> 0.22830964E+01</totfact>
</mgrwt>
</event>
<event>
12    3  0.4634846E-008  0.2011006E+04  0.7818608E-02  0.8601492E-01
         -1   -1    0    0    0  501 -0.00000000000E+00  0.00000000000E+00  0.63695331031E+03  0.63695331031E+03  0.00000000000E+00 0.  1.
          1   -1    0    0  501    0  0.00000000000E+00 -0.00000000000E+00 -0.15873008092E+04  0.15873008092E+04  0.00000000000E+00 0. -1.
         23    2    1    2    0    0  0.38820070582E+03 -0.38329261531E+03 -0.10321287277E+04  0.11709340640E+04  0.90464660194E+02 0.  0.
        254    2    1    2    0    0 -0.38820070582E+03  0.38329261531E+03  0.81781228748E+02  0.10533200556E+04  0.89731931503E+03 0.  0.
         23    2    4    4    0    0  0.18206541140E+03  0.20770648369E+03 -0.23387436151E+03  0.37303956466E+03  0.90396362932E+02 0.  0.
         23    2    4    4    0    0 -0.57026611723E+03  0.17558613162E+03  0.31565559026E+03  0.68028049091E+03  0.84315838233E+02 0.  0.
          3    1    3    3  502    0  0.18212348904E+03 -0.16277275051E+03 -0.55474562247E+03  0.60614077508E+03  0.00000000000E+00 0. -1.
         -3    1    3    3    0  502  0.20607721678E+03 -0.22051986479E+03 -0.47738310520E+03  0.56479328889E+03  0.00000000000E+00 0.  1.
         13    1    5    5    0    0  0.15392516814E+03  0.15985671054E+03 -0.22640655564E+03  0.31702847463E+03  0.00000000000E+00 0. -1.
        -13    1    5    5    0    0  0.28140243268E+02  0.47849773146E+02 -0.74678058729E+01  0.56011090026E+02  0.00000000000E+00 0.  1.
          2    1    6    6  503    0 -0.15252800380E+03  0.82695310020E+02  0.11051536246E+03  0.20571084459E+03  0.00000000000E+00 0. -1.
         -2    1    6    6    0  503 -0.41773811342E+03  0.92890821597E+02  0.20514022780E+03  0.47456964632E+03  0.00000000000E+00 0.  1.
<mgrwt>
<rscale>  0 0.20110062E+04</rscale>
<asrwt>0</asrwt>
<pdfrwt beam="1">  1        1 0.24420012E+00 0.20110062E+04</pdfrwt>
<pdfrwt beam="2">  1       -1 0.97992817E-01 0.20110062E+04</pdfrwt>
<totfact> 0.52669028E+00</totfact>
</mgrwt>
</event>
<event>
12    3  0.4634846E-008  0.1820005E+04  0.7818608E-02  0.8695733E-01
         -2   -1    0    0    0  501 -0.00000000000E+00  0.00000000000E+00  0.65719698372E+03  0.65719698372E+03  0.00000000000E+00 0.  1.
          2   -1    0    0  501    0  0.00000000000E+00 -0.00000000000E+00 -0.12600558607E+04  0.12600558607E+04  0.00000000000E+00 0. -1.
         23    2    1    2    0    0  0.34938244794E+03 -0.38989774534E+03  0.24396750120E+03  0.58425520803E+03  0.88009429742E+02 0.  0.
        254    2    1    2    0    0 -0.34938244794E+03  0.38989774534E+03 -0.84682637815E+03  0.13329976364E+04  0.88638560293E+03 0.  0.
         23    2    4    4    0    0 -0.14209949415E+03  0.14542821634E+03 -0.95672918595E+03  0.98255132861E+03  0.93459861822E+02 0.  0.
         23    2    4    4    0    0 -0.20728295379E+03  0.24446952900E+03  0.10990280780E+03  0.35044630775E+03  0.89456212257E+02 0.  0.
          2    1    3    3  502    0  0.27710217606E+03 -0.25527516012E+03  0.19196284275E+03  0.42284838459E+03  0.00000000000E+00 0.  1.
         -2    1    3    3    0  502  0.72280271875E+02 -0.13462258522E+03  0.52004658450E+02  0.16140682344E+03  0.00000000000E+00 0. -1.
         13    1    5    5    0    0 -0.46118943761E+02 -0.36040987607E+00 -0.27449040147E+03  0.27833804513E+03  0.00000000000E+00 0. -1.
        -13    1    5    5    0    0 -0.95980550386E+02  0.14578862621E+03 -0.68223878448E+03  0.70421328348E+03  0.00000000000E+00 0.  1.
          3    1    6    6  503    0  0.18021764654E+01  0.35133622051E+02  0.10699415884E+01  0.35196079518E+02  0.00000000000E+00 0. -1.
         -3    1    6    6    0  503 -0.20908513025E+03  0.20933590695E+03  0.10883286621E+03  0.31525022823E+03  0.00000000000E+00 0.  1.
<mgrwt>
<rscale>  0 0.18200054E+04</rscale>
<asrwt>0</asrwt>
<pdfrwt beam="1">  1        2 0.19385475E+00 0.18200054E+04</pdfrwt>
<pdfrwt beam="2">  1       -2 0.10110723E+00 0.18200054E+04</pdfrwt>
<totfact> 0.13235080E+01</totfact>
</mgrwt>
</event>
<event>
12    3  0.4634846E-008  0.1718747E+04  0.7818608E-02  0.8750744E-01
         -2   -1    0    0    0  501 -0.00000000000E+00  0.00000000000E+00  0.33712251850E+03  0.33712251850E+03  0.00000000000E+00 0.  1.
          2   -1    0    0  501    0  0.00000000000E+00 -0.00000000000E+00 -0.21906653468E+04  0.21906653468E+04  0.00000000000E+00 0. -1.
         23    2    1    2    0    0  0.10184001613E+03  0.23128166171E+03 -0.15066982694E+04  0.15306390633E+04  0.94093948470E+02 0.  0.
        254    2    1    2    0    0 -0.10184001613E+03 -0.23128166171E+03 -0.34684455882E+03  0.99714880193E+03  0.90007887948E+03 0.  0.
         23    2    4    4    0    0  0.29182784528E+03  0.14469415146E+03  0.92360874033E+01  0.33981277414E+03  0.96371818558E+02 0.  0.
         23    2    4    4    0    0 -0.39366786141E+03 -0.37597581317E+03 -0.35608064622E+03  0.65733602779E+03  0.94683840367E+02 0.  0.
          3    1    3    3  502    0  0.65810284435E+02  0.99600223661E+02 -0.94875785538E+03  0.95623881235E+03  0.00000000000E+00 0. -1.
         -3    1    3    3    0  502  0.36029731694E+02  0.13168143805E+03 -0.55794041405E+03  0.57440025098E+03  0.00000000000E+00 0.  1.
         13    1    5    5    0    0  0.20776042159E+03  0.10086869455E+03  0.50513116533E+02  0.23641163521E+03  0.00000000000E+00 0.  1.
        -13    1    5    5    0    0  0.84067423688E+02  0.43825456902E+02 -0.41277029130E+02  0.10340113893E+03  0.00000000000E+00 0. -1.
          3    1    6    6  503    0 -0.10044595759E+02 -0.37399706229E+02 -0.11271778252E+02  0.40332182125E+02  0.00000000000E+00 0. -1.
         -3    1    6    6    0  503 -0.38362326565E+03 -0.33857610694E+03 -0.34480886797E+03  0.61700384567E+03  0.00000000000E+00 0.  1.
<mgrwt>
<rscale>  0 0.17187468E+04</rscale>
<asrwt>0</asrwt>
<pdfrwt beam="1">  1        2 0.33702544E+00 0.17187468E+04</pdfrwt>
<pdfrwt beam="2">  1       -2 0.51865003E-01 0.17187468E+04</pdfrwt>
<totfact> 0.17441424E+01</totfact>
</mgrwt>
</event>
<event>
12    3  0.4634846E-008  0.2502602E+04  0.7818608E-02  0.8402059E-01
          1   -1    0    0  501    0  0.00000000000E+00  0.00000000000E+00  0.43240373058E+04  0.43240373058E+04  0.00000000000E+00 0. -1.
         -1   -1    0    0    0  501 -0.00000000000E+00 -0.00000000000E+00 -0.36210457563E+03  0.36210457563E+03  0.00000000000E+00 0.  1.
         23    2    1    2    0    0 -0.84166986615E+03  0.10081349462E+02  0.44097515206E+03  0.95458689309E+03  0.90924444094E+02 0.  0.
        254    2    1    2    0    0  0.84166986615E+03 -0.10081349462E+02  0.35209575781E+04  0.37315549883E+04  0.90490362305E+03 0.  0.
         23    2    4    4    0    0  0.55307042384E+03  0.40991013803E+03  0.23593921210E+04  0.24598596860E+04  0.10131771357E+03 0.  0.
         23    2    4    4    0    0  0.28859944231E+03 -0.41999148750E+03  0.11615654571E+04  0.12716953023E+04  0.91061205976E+02 0.  0.
          1    1    3    3  502    0 -0.23836199859E+03  0.98074401543E+01  0.80442791722E+02  0.25176113877E+03  0.00000000000E+00 0. -1.
         -1    1    3    3    0  502 -0.60330786756E+03  0.27390930760E+00  0.36053236034E+03  0.70282575432E+03  0.00000000000E+00 0.  1.
         13    1    5    5    0    0  0.89953216681E+02  0.11152932689E+03  0.55838724085E+03  0.57647782498E+03  0.00000000000E+00 0.  1.
        -13    1    5    5    0    0  0.46311720716E+03  0.29838081114E+03  0.18010048802E+04  0.18833818610E+04  0.00000000000E+00 0. -1.
          4    1    6    6  503    0  0.11906101124E+03 -0.22826683361E+03  0.66405181055E+03  0.71221210241E+03  0.00000000000E+00 0. -1.
         -4    1    6    6    0  503  0.16953843107E+03 -0.19172465388E+03  0.49751364652E+03  0.55948319992E+03  0.00000000000E+00 0.  1.
<mgrwt>
<rscale>  0 0.25026016E+04</rscale>
<asrwt>0</asrwt>
<pdfrwt beam="1">  1        1 0.66523647E+00 0.25026016E+04</pdfrwt>
<pdfrwt beam="2">  1       -1 0.55708399E-01 0.25026016E+04</pdfrwt>
<totfact> 0.14019497E-01</totfact>
</mgrwt>
</event>
<event>
12    3  0.4634846E-008  0.2103557E+04  0.7818608E-02  0.8559678E-01
         -1   -1    0    0    0  501 -0.00000000000E+00  0.00000000000E+00  0.42290332586E+03  0.42290332586E+03  0.00000000000E+00 0.  1.
          1   -1    0    0  501    0  0.00000000000E+00 -0.00000000000E+00 -0.26158179251E+04  0.26158179251E+04  0.00000000000E+00 0. -1.
         23    2    1    2    0    0  0.64196014167E+03 -0.55849052532E+03 -0.10508901614E+04  0.13553746916E+04  0.92983508933E+02 0.  0.
        254    2    1    2    0    0 -0.64196014167E+03  0.55849052532E+03 -0.11420244378E+04  0.16833465593E+04  0.89744711928E+03 0.  0.
         23    2    4    4    0    0 -0.35934040513E+03  0.75166393647E+03 -0.99209107016E+03  0.12983975695E+04  0.86413870048E+02 0.  0.
         23    2    4    4    0    0 -0.28261973655E+03 -0.19317341115E+03 -0.14993336760E+03  0.38494898976E+03  0.92281242608E+02 0.  0.
          1    1    3    3  502    0  0.54613258548E+03 -0.51483604046E+03 -0.92877226971E+03  0.11941251519E+04  0.00000000000E+00 0. -1.
         -1    1    3    3    0  502  0.95827556190E+02 -0.43654484852E+02 -0.12211789174E+03  0.16124953971E+03  0.00000000000E+00 0.  1.
         13    1    5    5    0    0 -0.35241397725E+03  0.75194580430E+03 -0.98071598830E+03  0.12850766334E+04  0.00000000000E+00 0.  1.
        -13    1    5    5    0    0 -0.69264278772E+01 -0.28186782827E+00 -0.11375081861E+02  0.13320936151E+02  0.00000000000E+00 0. -1.
          4    1    6    6  503    0 -0.25019845787E+02 -0.20526510790E+02 -0.49208560832E+02  0.58896627982E+02  0.00000000000E+00 0. -1.
         -4    1    6    6    0  503 -0.25759989076E+03 -0.17264690036E+03 -0.10072480676E+03  0.32605236178E+03  0.00000000000E+00 0.  1.
<mgrwt>
<rscale>  0 0.21035571E+04</rscale>
<asrwt>0</asrwt>
<pdfrwt beam="1">  1        1 0.40243352E+00 0.21035571E+04</pdfrwt>
<pdfrwt beam="2">  1       -1 0.65062051E-01 0.21035571E+04</pdfrwt>
<totfact> 0.24778216E+00</totfact>
</mgrwt>
</event>
<event>
12    3  0.4634846E-008  0.2059933E+04  0.7818608E-02  0.8579102E-01
         -1   -1    0    0    0  501 -0.00000000000E+00  0.00000000000E+00  0.62416130666E+03  0.62416130666E+03  0.00000000000E+00 0.  1.
          1   -1    0    0  501    0  0.00000000000E+00 -0.00000000000E+00 -0.16996096392E+04  0.16996096392E+04  0.00000000000E+00 0. -1.
         23    2    1    2    0    0 -0.33965010311E+03 -0.19703515523E+03  0.38908608703E+03  0.56030321367E+03  0.91469465924E+02 0.  0.
        254    2    1    2    0    0  0.33965010311E+03  0.19703515523E+03 -0.14645344195E+04  0.17634677322E+04  0.90042897079E+03 0.  0.
         23    2    4    4    0    0 -0.21365178430E+01  0.11457894417E+03  0.84529418230E+02  0.17235121566E+03  0.97091811390E+02 0.  0.
         23    2    4    4    0    0  0.34178662095E+03  0.82456211060E+02 -0.15490638378E+04  0.15911165165E+04  0.91847017391E+02 0.  0.
          4    1    3    3  502    0 -0.30194960503E+02 -0.31753805172E-02  0.77965746523E+01  0.31185288618E+02  0.00000000000E+00 0. -1.
         -4    1    3    3    0  502 -0.30945514261E+03 -0.19703197985E+03  0.38128951237E+03  0.52911792505E+03  0.00000000000E+00 0.  1.
         13    1    5    5    0    0 -0.32469738346E+02  0.19896994904E+02 -0.51885468025E+01  0.38432997963E+02  0.00000000000E+00 0.  1.
        -13    1    5    5    0    0  0.30333220503E+02  0.94681949263E+02  0.89717965033E+02  0.13391821770E+03  0.00000000000E+00 0. -1.
          2    1    6    6  503    0  0.28566633595E+03  0.77232085496E+02 -0.11227635947E+04  0.11611064293E+04  0.00000000000E+00 0. -1.
         -2    1    6    6    0  503  0.56120285001E+02  0.52241255638E+01 -0.42630024303E+03  0.43001008719E+03  0.00000000000E+00 0.  1.
<mgrwt>
<rscale>  0 0.20599326E+04</rscale>
<asrwt>0</asrwt>
<pdfrwt beam="1">  1        1 0.26147840E+00 0.20599326E+04</pdfrwt>
<pdfrwt beam="2">  1       -1 0.96024817E-01 0.20599326E+04</pdfrwt>
<totfact> 0.45994829E+00</totfact>
</mgrwt>
</event>
<event>
12    3  0.4634846E-008  0.1802214E+04  0.7818608E-02  0.8705123E-01
         -2   -1    0    0    0  501 -0.00000000000E+00  0.00000000000E+00  0.34979416444E+03  0.34979416444E+03  0.00000000000E+00 0.  1.
          2   -1    0    0  501    0  0.00000000000E+00 -0.00000000000E+00 -0.23213482011E+04  0.23213482011E+04  0.00000000000E+00 0. -1.
         23    2    1    2    0    0 -0.40040735779E+03  0.42320400215E+03 -0.23872520524E+03  0.63594718629E+03  0.89506539044E+02 0.  0.
        254    2    1    2    0    0  0.40040735779E+03 -0.42320400215E+03 -0.17328288315E+04  0.20351951793E+04  0.89436903965E+03 0.  0.
         23    2    4    4    0    0 -0.99561635247E+02  0.21423008645E+03 -0.38311536955E+03  0.45839142795E+03  0.86823186316E+02 0.  0.
         23    2    4    4    0    0  0.49996899303E+03 -0.63743408859E+03 -0.13497134619E+04  0.15768037513E+04  0.91062778881E+02 0.  0.
          2    1    3    3  502    0 -0.28823185436E+03  0.32944672829E+03 -0.14016323531E+03  0.45962863399E+03  0.00000000000E+00 0.  1.
         -2    1    3    3    0  502 -0.11217550343E+03  0.93757273859E+02 -0.98561969928E+02  0.17631855230E+03  0.00000000000E+00 0. -1.
         13    1    5    5    0    0 -0.10637850836E+03  0.15168927203E+03 -0.31668155707E+03  0.36689675779E+03  0.00000000000E+00 0.  1.
        -13    1    5    5    0    0  0.68168731116E+01  0.62540814420E+02 -0.66433812480E+02  0.91494670161E+02  0.00000000000E+00 0. -1.
          4    1    6    6  503    0  0.19443457754E+03 -0.30201121576E+03 -0.65579598299E+03  0.74771916565E+03  0.00000000000E+00 0. -1.
         -4    1    6    6    0  503  0.30553441550E+03 -0.33542287284E+03 -0.69391747893E+03  0.82908458570E+03  0.00000000000E+00 0.  1.
<mgrwt>
<rscale>  0 0.18022143E+04</rscale>
<asrwt>0</asrwt>
<pdfrwt beam="1">  1        2 0.35713049E+00 0.18022143E+04</pdfrwt>
<pdfrwt beam="2">  1       -2 0.53814487E-01 0.18022143E+04</pdfrwt>
<totfact> 0.13544562E+01</totfact>
</mgrwt>
</event>
<event>
12    3  0.4634846E-008  0.1834393E+04  0.7818608E-02  0.8688220E-01
          1   -1    0    0  501    0  0.00000000000E+00  0.00000000000E+00  0.25536063945E+04  0.25536063945E+04  0.00000000000E+00 0. -1.
         -1   -1    0    0    0  501 -0.00000000000E+00 -0.00000000000E+00 -0.32943588794E+03  0.32943588794E+03  0.00000000000E+00 0.  1.
         23    2    1    2    0    0 -0.36616319644E+02  0.62190996188E+03  0.13160513000E+04  0.14588166230E+04  0.89678089271E+02 0.  0.
        254    2    1    2    0    0  0.36616319644E+02 -0.62190996188E+03  0.90811920653E+03  0.14242256594E+04  0.90311985926E+03 0.  0.
         23    2    4    4    0    0  0.17110535498E+03 -0.57247237569E+03  0.10442833221E+04  0.12068281932E+04  0.94366136263E+02 0.  0.
         23    2    4    4    0    0 -0.13448903534E+03 -0.49437586194E+02 -0.13616411559E+03  0.21739746622E+03  0.90496499339E+02 0.  0.
          2    1    3    3  502    0 -0.17780857347E+02  0.14228411714E+03  0.22442923452E+03  0.26632575952E+03  0.00000000000E+00 0.  1.
         -2    1    3    3    0  502 -0.18835462297E+02  0.47962584475E+03  0.10916220655E+04  0.11924908635E+04  0.00000000000E+00 0. -1.
         13    1    5    5    0    0  0.16380223192E+03 -0.57051383508E+03  0.10081098773E+04  0.11698729554E+04  0.00000000000E+00 0. -1.
        -13    1    5    5    0    0  0.73031230565E+01 -0.19585406030E+01  0.36173444863E+02  0.36955237801E+02  0.00000000000E+00 0.  1.
          3    1    6    6  503    0 -0.13262421861E+03 -0.23030000754E+02 -0.13538106943E+03  0.19091254086E+03  0.00000000000E+00 0. -1.
         -3    1    6    6    0  503 -0.18648167263E+01 -0.26407585440E+02 -0.78304615088E+00  0.26484925362E+02  0.00000000000E+00 0.  1.
<mgrwt>
<rscale>  0 0.18343932E+04</rscale>
<asrwt>0</asrwt>
<pdfrwt beam="1">  1        1 0.39286251E+00 0.18343932E+04</pdfrwt>
<pdfrwt beam="2">  1       -1 0.50682446E-01 0.18343932E+04</pdfrwt>
<totfact> 0.45801547E+00</totfact>
</mgrwt>
</event>
<event>
12    3  0.4634846E-008  0.1200330E+04  0.7818608E-02  0.9112568E-01
          1   -1    0    0  501    0  0.00000000000E+00  0.00000000000E+00  0.46668907755E+03  0.46668907755E+03  0.00000000000E+00 0. -1.
         -1   -1    0    0    0  501 -0.00000000000E+00 -0.00000000000E+00 -0.77181553010E+03  0.77181553010E+03  0.00000000000E+00 0.  1.
         23    2    1    2    0    0 -0.50940791356E+01 -0.46248711473E+02  0.18580159781E+03  0.21232675650E+03  0.91627096553E+02 0.  0.
        254    2    1    2    0    0  0.50940791356E+01  0.46248711473E+02 -0.49092805035E+03  0.10261778511E+04  0.89992540725E+03 0.  0.
         23    2    4    4    0    0 -0.70947845599E+02  0.94470325147E+02  0.24094010441E+03  0.28343503969E+03  0.91241704731E+02 0.  0.
         23    2    4    4    0    0  0.76041924734E+02 -0.48221613673E+02 -0.73186815476E+03  0.74274281146E+03  0.89040382279E+02 0.  0.
          1    1    3    3  502    0  0.28815491230E+02  0.55644096021E+01  0.11301532608E+03  0.11676368921E+03  0.00000000000E+00 0. -1.
         -1    1    3    3    0  502 -0.33909570365E+02 -0.51813121075E+02  0.72786271729E+02  0.95563067292E+02  0.00000000000E+00 0.  1.
         13    1    5    5    0    0 -0.42909205259E+02  0.80977275308E+02  0.86935066039E+02  0.12631795090E+03  0.00000000000E+00 0. -1.
        -13    1    5    5    0    0 -0.28038640339E+02  0.13493049839E+02  0.15400503837E+03  0.15711708879E+03  0.00000000000E+00 0.  1.
          4    1    6    6  503    0  0.18367727661E+02 -0.62148456954E+02 -0.45473013974E+03  0.45932483507E+03  0.00000000000E+00 0. -1.
         -4    1    6    6    0  503  0.57674197074E+02  0.13926843280E+02 -0.27713801502E+03  0.28341797639E+03  0.00000000000E+00 0.  1.
<mgrwt>
<rscale>  0 0.12003298E+04</rscale>
<asrwt>0</asrwt>
<pdfrwt beam="1">  1        1 0.71798320E-01 0.12003298E+04</pdfrwt>
<pdfrwt beam="2">  1       -1 0.11874085E+00 0.12003298E+04</pdfrwt>
<totfact> 0.30649240E+01</totfact>
</mgrwt>
</event>
<event>
12    3  0.4634846E-008  0.2202560E+04  0.7818608E-02  0.8517363E-01
          1   -1    0    0  501    0  0.00000000000E+00  0.00000000000E+00  0.11182802055E+04  0.11182802055E+04  0.00000000000E+00 0. -1.
         -1   -1    0    0    0  501 -0.00000000000E+00 -0.00000000000E+00 -0.10845379595E+04  0.10845379595E+04  0.00000000000E+00 0.  1.
         23    2    1    2    0    0 -0.34928845740E+02  0.67689384993E+03 -0.57141504243E+03  0.89123002173E+03  0.91490396043E+02 0.  0.
        254    2    1    2    0    0  0.34928845740E+02 -0.67689384993E+03  0.60515728843E+03  0.13115881432E+04  0.94585559429E+03 0.  0.
         23    2    4    4    0    0  0.99517072002E+02 -0.28553359781E+03  0.80008137389E+03  0.86017949563E+03  0.91353581007E+02 0.  0.
         23    2    4    4    0    0 -0.64588226261E+02 -0.39136025213E+03 -0.19492408546E+03  0.45140864756E+03  0.91868830848E+02 0.  0.
          3    1    3    3  502    0  0.50863355576E+01  0.20645243886E+01 -0.14010806721E+02  0.15047783070E+02  0.00000000000E+00 0. -1.
         -3    1    3    3    0  502 -0.40015181298E+02  0.67482932555E+03 -0.55740423571E+03  0.87618223866E+03  0.00000000000E+00 0.  1.
         13    1    5    5    0    0 -0.34608950832E+00 -0.13476100215E+03  0.32411715556E+03  0.35101649250E+03  0.00000000000E+00 0. -1.
        -13    1    5    5    0    0  0.99863161510E+02 -0.15077259566E+03  0.47596421833E+03  0.50916300313E+03  0.00000000000E+00 0.  1.
          1    1    6    6  503    0 -0.26643958177E+02 -0.10308553458E+03 -0.98578194718E+02  0.14510061482E+03  0.00000000000E+00 0. -1.
         -1    1    6    6    0  503 -0.37944268085E+02 -0.28827471755E+03 -0.96345890738E+02  0.30630803274E+03  0.00000000000E+00 0.  1.
<mgrwt>
<rscale>  0 0.22025597E+04</rscale>
<asrwt>0</asrwt>
<pdfrwt beam="1">  1        1 0.17204311E+00 0.22025597E+04</pdfrwt>
<pdfrwt beam="2">  1       -1 0.16685199E+00 0.22025597E+04</pdfrwt>
<totfact> 0.29069903E+00</totfact>
</mgrwt>
</event>
<event>
12    3  0.4634846E-008  0.1647676E+04  0.7818608E-02  0.8791783E-01
          2   -1    0    0  501    0  0.00000000000E+00  0.00000000000E+00  0.25087844841E+04  0.25087844841E+04  0.00000000000E+00 0. -1.
         -2   -1    0    0    0  501 -0.00000000000E+00 -0.00000000000E+00 -0.27053301050E+03  0.27053301050E+03  0.00000000000E+00 0.  1.
         23    2    1    2    0    0  0.48014063600E+03 -0.14457850233E+03  0.32327779819E+03  0.60373224077E+03  0.92445173329E+02 0.  0.
        254    2    1    2    0    0 -0.48014063600E+03  0.14457850233E+03  0.19149736754E+04  0.21755852538E+04  0.90255694859E+03 0.  0.
         23    2    4    4    0    0  0.22990969543E+03 -0.11065405550E+03  0.46026391573E+03  0.53436572079E+03  0.92741918118E+02 0.  0.
         23    2    4    4    0    0 -0.71005033142E+03  0.25523255784E+03  0.14547097596E+04  0.16412195330E+04  0.90032988219E+02 0.  0.
          2    1    3    3  502    0  0.64021794669E+02 -0.54560470788E+02  0.55578951879E+02  0.10081991399E+03  0.00000000000E+00 0. -1.
         -2    1    3    3    0  502  0.41611884133E+03 -0.90018031546E+02  0.26769884632E+03  0.50291232678E+03  0.00000000000E+00 0.  1.
         13    1    5    5    0    0  0.58943803144E+02 -0.75992668819E+02  0.14356085387E+03  0.17279750116E+03  0.00000000000E+00 0. -1.
        -13    1    5    5    0    0  0.17096589228E+03 -0.34661386684E+02  0.31670306187E+03  0.36156821963E+03  0.00000000000E+00 0.  1.
          4    1    6    6  503    0 -0.51115495247E+03  0.17164341439E+03  0.95049272426E+03  0.10927841809E+04  0.00000000000E+00 0.  1.
         -4    1    6    6    0  503 -0.19889537895E+03  0.83589143448E+02  0.50421703538E+03  0.54843535211E+03  0.00000000000E+00 0. -1.
<mgrwt>
<rscale>  0 0.16476760E+04</rscale>
<asrwt>0</asrwt>
<pdfrwt beam="1">  1        2 0.38596683E+00 0.16476760E+04</pdfrwt>
<pdfrwt beam="2">  1       -2 0.41620465E-01 0.16476760E+04</pdfrwt>
<totfact> 0.18014731E+01</totfact>
</mgrwt>
</event>
<event>
12    3  0.4634846E-008  0.2277849E+04  0.7818608E-02  0.8486706E-01
         -2   -1    0    0    0  501 -0.00000000000E+00  0.00000000000E+00  0.12780962366E+04  0.12780962366E+04  0.00000000000E+00 0.  1.
          2   -1    0    0  501    0  0.00000000000E+00 -0.00000000000E+00 -0.10149075389E+04  0.10149075389E+04  0.00000000000E+00 0. -1.
         23    2    1    2    0    0 -0.65282432892E+03  0.21134773855E+03 -0.56183173506E+03  0.89192132045E+03  0.94980378659E+02 0.  0.
        254    2    1    2    0    0  0.65282432892E+03 -0.21134773855E+03  0.82502043276E+03  0.14010824551E+04  0.90084730136E+03 0.  0.
         23    2    4    4    0    0  0.28615600186E+03  0.18950784379E+03 -0.58098770514E+02  0.36016077357E+03  0.92422050537E+02 0.  0.
         23    2    4    4    0    0  0.36666832706E+03 -0.40085558234E+03  0.88311920328E+03  0.10409216815E+04  0.92127953627E+02 0.  0.
          1    1    3    3  502    0 -0.63861397510E+03  0.22050456200E+03 -0.55135076989E+03  0.87203081512E+03  0.00000000000E+00 0. -1.
         -1    1    3    3    0  502 -0.14210353819E+02 -0.91568234514E+01 -0.10480965166E+02  0.19890505327E+02  0.00000000000E+00 0.  1.
         13    1    5    5    0    0  0.31356342361E+02  0.47702957422E+01 -0.30873029613E+02  0.44261946243E+02  0.00000000000E+00 0. -1.
        -13    1    5    5    0    0  0.25479965950E+03  0.18473754805E+03 -0.27225740901E+02  0.31589882732E+03  0.00000000000E+00 0.  1.
          1    1    6    6  503    0  0.10542337642E+03 -0.90360161264E+02  0.16100358955E+03  0.21260574519E+03  0.00000000000E+00 0. -1.
         -1    1    6    6    0  503  0.26124495064E+03 -0.31049542107E+03  0.72211561372E+03  0.82831593630E+03  0.00000000000E+00 0.  1.
<mgrwt>
<rscale>  0 0.22778494E+04</rscale>
<asrwt>0</asrwt>
<pdfrwt beam="1">  1        2 0.15613962E+00 0.22778494E+04</pdfrwt>
<pdfrwt beam="2">  1       -2 0.19663019E+00 0.22778494E+04</pdfrwt>
<totfact> 0.31321364E+00</totfact>
</mgrwt>
</event>
<event>
12    3  0.4634846E-008  0.1570551E+04  0.7818608E-02  0.8838847E-01
         -2   -1    0    0    0  501 -0.00000000000E+00  0.00000000000E+00  0.21902477894E+03  0.21902477894E+03  0.00000000000E+00 0.  1.
          2   -1    0    0  501    0  0.00000000000E+00 -0.00000000000E+00 -0.28154691009E+04  0.28154691009E+04  0.00000000000E+00 0. -1.
         23    2    1    2    0    0  0.45637949216E+03  0.22337443378E+03 -0.11143659560E+04  0.12279068310E+04  0.88121071405E+02 0.  0.
        254    2    1    2    0    0 -0.45637949216E+03 -0.22337443378E+03 -0.14820783660E+04  0.18065870489E+04  0.89945656016E+03 0.  0.
         23    2    4    4    0    0 -0.66384782186E+03 -0.10240570276E+03 -0.66205810796E+03  0.94736311835E+03  0.89415217721E+02 0.  0.
         23    2    4    4    0    0  0.20746832970E+03 -0.12096873102E+03 -0.82002025807E+03  0.85922393053E+03  0.90310561034E+02 0.  0.
          3    1    3    3  502    0  0.16791167284E+03  0.10125037245E+03 -0.52580469648E+03  0.56117425692E+03  0.00000000000E+00 0. -1.
         -3    1    3    3    0  502  0.28846781932E+03  0.12212406133E+03 -0.58856125950E+03  0.66673257407E+03  0.00000000000E+00 0.  1.
         13    1    5    5    0    0 -0.65901608509E+03 -0.91327809583E+02 -0.65328154763E+03  0.93242680661E+03  0.00000000000E+00 0. -1.
        -13    1    5    5    0    0 -0.48317367725E+01 -0.11077893174E+02 -0.87765603300E+01  0.14936311748E+02  0.00000000000E+00 0.  1.
          2    1    6    6  503    0  0.46135518761E+02 -0.73567878297E+02 -0.23559480702E+03  0.25108889243E+03  0.00000000000E+00 0.  1.
         -2    1    6    6    0  503  0.16133281094E+03 -0.47400852727E+02 -0.58442545106E+03  0.60813503810E+03  0.00000000000E+00 0. -1.
<mgrwt>
<rscale>  0 0.15705509E+04</rscale>
<asrwt>0</asrwt>
<pdfrwt beam="1">  1        2 0.43314907E+00 0.15705509E+04</pdfrwt>
<pdfrwt beam="2">  1       -2 0.33696122E-01 0.15705509E+04</pdfrwt>
<totfact> 0.17997551E+01</totfact>
</mgrwt>
</event>
<event>
12    3  0.4634846E-008  0.1585707E+04  0.7818608E-02  0.8829377E-01
          2   -1    0    0  501    0  0.00000000000E+00  0.00000000000E+00  0.38623604961E+04  0.38623604961E+04  0.00000000000E+00 0.  1.
         -2   -1    0    0    0  501 -0.00000000000E+00 -0.00000000000E+00 -0.16275444195E+03  0.16275444195E+03  0.00000000000E+00 0. -1.
         23    2    1    2    0    0  0.10498231841E+03  0.43348632625E+03  0.52370045850E+03  0.69509287617E+03  0.99801072383E+02 0.  0.
        254    2    1    2    0    0 -0.10498231841E+03 -0.43348632625E+03  0.31759055957E+04  0.33300220619E+04  0.89651486202E+03 0.  0.
         23    2    4    4    0    0  0.14003588603E+03 -0.39862110142E+03  0.29533979808E+04  0.29848373002E+04  0.90472338498E+02 0.  0.
         23    2    4    4    0    0 -0.24501820443E+03 -0.34865224831E+02  0.22250761489E+03  0.34518476167E+03  0.91615373148E+02 0.  0.
          4    1    3    3  502    0  0.40366227803E+02  0.28942823350E+03  0.39528549889E+03  0.49157782733E+03  0.00000000000E+00 0. -1.
         -4    1    3    3    0  502  0.64616090606E+02  0.14405809275E+03  0.12841495961E+03  0.20351504884E+03  0.00000000000E+00 0.  1.
         13    1    5    5    0    0  0.13014750532E+03 -0.37453975386E+03  0.28753982627E+04  0.29026080634E+04  0.00000000000E+00 0. -1.
        -13    1    5    5    0    0  0.98883807052E+01 -0.24081347561E+02  0.77999718065E+02  0.82229236842E+02  0.00000000000E+00 0.  1.
          1    1    6    6  503    0 -0.24003009143E+03 -0.18517490089E+02  0.18384620462E+03  0.30291379827E+03  0.00000000000E+00 0. -1.
         -1    1    6    6    0  503 -0.49881130076E+01 -0.16347734742E+02  0.38661410267E+02  0.42270963396E+02  0.00000000000E+00 0.  1.
<mgrwt>
<rscale>  0 0.15857066E+04</rscale>
<asrwt>0</asrwt>
<pdfrwt beam="1">  1        2 0.59420924E+00 0.15857066E+04</pdfrwt>
<pdfrwt beam="2">  1       -2 0.25039148E-01 0.15857066E+04</pdfrwt>
<totfact> 0.61503166E+00</totfact>
</mgrwt>
</event>
<event>
12    3  0.4634846E-008  0.1430497E+04  0.7818608E-02  0.8932035E-01
         -2   -1    0    0    0  501 -0.00000000000E+00  0.00000000000E+00  0.20522150914E+03  0.20522150914E+03  0.00000000000E+00 0.  1.
          2   -1    0    0  501    0  0.00000000000E+00 -0.00000000000E+00 -0.24928194362E+04  0.24928194362E+04  0.00000000000E+00 0. -1.
         23    2    1    2    0    0 -0.12239272414E+03  0.14155386729E+03 -0.14104397390E+04  0.14257130086E+04  0.91103509394E+02 0.  0.
        254    2    1    2    0    0  0.12239272414E+03 -0.14155386729E+03 -0.87715818810E+03  0.12723279367E+04  0.90243803961E+03 0.  0.
         23    2    4    4    0    0 -0.11614376643E+03  0.31965100764E+03 -0.54513821825E+03  0.64951808101E+03  0.95036410846E+02 0.  0.
         23    2    4    4    0    0  0.23853649057E+03 -0.46120487494E+03 -0.33201996984E+03  0.62280985571E+03  0.89695384462E+02 0.  0.
          2    1    3    3  502    0 -0.29119553633E+02 -0.81165095191E+01 -0.27546833567E+03  0.27712204908E+03  0.00000000000E+00 0. -1.
         -2    1    3    3    0  502 -0.93273170509E+02  0.14967037681E+03 -0.11349714033E+04  0.11485909595E+04  0.00000000000E+00 0.  1.
         13    1    5    5    0    0  0.14053666365E+02  0.71657401523E+02 -0.11072184115E+03  0.13263338509E+03  0.00000000000E+00 0.  1.
        -13    1    5    5    0    0 -0.13019743280E+03  0.24799360612E+03 -0.43441637710E+03  0.51688469592E+03  0.00000000000E+00 0. -1.
          2    1    6    6  503    0  0.22016253308E+03 -0.40718488109E+03 -0.25996358076E+03  0.53089747756E+03  0.00000000000E+00 0. -1.
         -2    1    6    6    0  503  0.18373957497E+02 -0.54019993850E+02 -0.72056389084E+02  0.91912378152E+02  0.00000000000E+00 0.  1.
<mgrwt>
<rscale>  0 0.14304967E+04</rscale>
<asrwt>0</asrwt>
<pdfrwt beam="1">  1        2 0.38351064E+00 0.14304967E+04</pdfrwt>
<pdfrwt beam="2">  1       -2 0.31572543E-01 0.14304967E+04</pdfrwt>
<totfact> 0.31908950E+01</totfact>
</mgrwt>
</event>
<event>
12    3  0.4634846E-008  0.1395555E+04  0.7818608E-02  0.8957043E-01
         -2   -1    0    0    0  501 -0.00000000000E+00  0.00000000000E+00  0.15402105135E+03  0.15402105135E+03  0.00000000000E+00 0. -1.
          2   -1    0    0  501    0  0.00000000000E+00 -0.00000000000E+00 -0.31612120912E+04  0.31612120912E+04  0.00000000000E+00 0.  1.
         23    2    1    2    0    0 -0.98710836371E+02  0.94371845136E+02  0.94928846994E+01  0.16575842613E+03  0.93465857955E+02 0.  0.
        254    2    1    2    0    0  0.98710836371E+02 -0.94371845136E+02 -0.30166839246E+04  0.31494747164E+04  0.89451619007E+03 0.  0.
         23    2    4    4    0    0 -0.15605174489E+03 -0.35189008790E+03 -0.71180955182E+03  0.81442586356E+03  0.91857869180E+02 0.  0.
         23    2    4    4    0    0  0.25476258127E+03  0.25751824276E+03 -0.23048743727E+04  0.23350488528E+04  0.93742482150E+02 0.  0.
          1    1    3    3  502    0 -0.10034029952E+03  0.96053735261E+02  0.32480696588E+02  0.14265164358E+03  0.00000000000E+00 0. -1.
         -1    1    3    3    0  502  0.16294631506E+01 -0.16818901248E+01 -0.22987811888E+02  0.23106782553E+02  0.00000000000E+00 0.  1.
         13    1    5    5    0    0 -0.14284115199E+03 -0.21641561617E+03 -0.45090217612E+03  0.52014621603E+03  0.00000000000E+00 0.  1.
        -13    1    5    5    0    0 -0.13210592907E+02 -0.13547447173E+03 -0.26090737570E+03  0.29427964753E+03  0.00000000000E+00 0. -1.
          3    1    6    6  503    0  0.10495255955E+03  0.15716047366E+03 -0.99098723404E+03  0.10088459507E+04  0.00000000000E+00 0. -1.
         -3    1    6    6    0  503  0.14981002171E+03  0.10035776910E+03 -0.13138871387E+04  0.13262029021E+04  0.00000000000E+00 0.  1.
<mgrwt>
<rscale>  0 0.13955547E+04</rscale>
<asrwt>0</asrwt>
<pdfrwt beam="1">  1        2 0.48634032E+00 0.13955547E+04</pdfrwt>
<pdfrwt beam="2">  1       -2 0.23695546E-01 0.13955547E+04</pdfrwt>
<totfact> 0.21395950E+01</totfact>
</mgrwt>
</event>
<event>
12    3  0.4634846E-008  0.1711268E+04  0.7818608E-02  0.8754964E-01
         -2   -1    0    0    0  501 -0.00000000000E+00  0.00000000000E+00  0.63925272950E+03  0.63925272950E+03  0.00000000000E+00 0.  1.
          2   -1    0    0  501    0  0.00000000000E+00 -0.00000000000E+00 -0.11452582719E+04  0.11452582719E+04  0.00000000000E+00 0. -1.
         23    2    1    2    0    0 -0.36593847794E+03  0.98269001767E+02  0.29916788492E+03  0.49068381360E+03  0.87757707482E+02 0.  0.
        254    2    1    2    0    0  0.36593847794E+03 -0.98269001767E+02 -0.80517342732E+03  0.12938271878E+04  0.93921072049E+03 0.  0.
         23    2    4    4    0    0  0.41624503316E+03  0.34854654080E+03 -0.38627853264E+03  0.67249046648E+03  0.91036827666E+02 0.  0.
         23    2    4    4    0    0 -0.50306555222E+02 -0.44681554256E+03 -0.41889489469E+03  0.62133672133E+03  0.91714284051E+02 0.  0.
          1    1    3    3  502    0 -0.49350998309E+02 -0.16209758512E+02  0.33207069529E+02  0.61652143286E+02  0.00000000000E+00 0. -1.
         -1    1    3    3    0  502 -0.31658747963E+03  0.11447876028E+03  0.26596081539E+03  0.42903167032E+03  0.00000000000E+00 0.  1.
         13    1    5    5    0    0  0.26263890154E+03  0.27118330328E+03 -0.28370701854E+03  0.47223855089E+03  0.00000000000E+00 0. -1.
        -13    1    5    5    0    0  0.15360613162E+03  0.77363237518E+02 -0.10257151410E+03  0.20025191558E+03  0.00000000000E+00 0.  1.
          1    1    6    6  503    0 -0.12205903530E+02 -0.39168839679E+03 -0.35659795987E+03  0.52984043754E+03  0.00000000000E+00 0. -1.
         -1    1    6    6    0  503 -0.38100651692E+02 -0.55127145773E+02 -0.62296934813E+02  0.91496283791E+02  0.00000000000E+00 0.  1.
<mgrwt>
<rscale>  0 0.17112679E+04</rscale>
<asrwt>0</asrwt>
<pdfrwt beam="1">  1        2 0.17619358E+00 0.17112679E+04</pdfrwt>
<pdfrwt beam="2">  1       -2 0.98346573E-01 0.17112679E+04</pdfrwt>
<totfact> 0.16697836E+01</totfact>
</mgrwt>
</event>
<event>
12    3  0.4634846E-008  0.1874511E+04  0.7818608E-02  0.8667649E-01
         -1   -1    0    0    0  501 -0.00000000000E+00  0.00000000000E+00  0.15943107105E+04  0.15943107105E+04  0.00000000000E+00 0.  1.
          1   -1    0    0  501    0  0.00000000000E+00 -0.00000000000E+00 -0.55098903923E+03  0.55098903923E+03  0.00000000000E+00 0. -1.
         23    2    1    2    0    0 -0.41435990748E+03  0.56028010836E+03  0.22609877259E+03  0.73851227586E+03  0.93122467105E+02 0.  0.
        254    2    1    2    0    0  0.41435990748E+03 -0.56028010836E+03  0.81722289868E+03  0.14067874739E+04  0.90861972119E+03 0.  0.
         23    2    4    4    0    0 -0.10683108461E+02  0.30985610550E+02 -0.15829168252E+03  0.18609897093E+03  0.92208098104E+02 0.  0.
         23    2    4    4    0    0  0.42504301594E+03 -0.59126571891E+03  0.97551458121E+03  0.12206885029E+04  0.90526279631E+02 0.  0.
          1    1    3    3  502    0 -0.17760985600E+03  0.18978493638E+03  0.49007627612E+02  0.26450960396E+03  0.00000000000E+00 0. -1.
         -1    1    3    3    0  502 -0.23675005149E+03  0.37049517198E+03  0.17709114498E+03  0.47400267190E+03  0.00000000000E+00 0.  1.
         13    1    5    5    0    0 -0.35259837708E+02 -0.61346142064E+01 -0.20392124375E+02  0.41191362968E+02  0.00000000000E+00 0. -1.
        -13    1    5    5    0    0  0.24576729247E+02  0.37120224756E+02 -0.13789955815E+03  0.14490760796E+03  0.00000000000E+00 0.  1.
          1    1    6    6  503    0  0.25606163815E+02 -0.11568697091E+02  0.23334474263E+02  0.36524075167E+02  0.00000000000E+00 0. -1.
         -1    1    6    6    0  503  0.39943685213E+03 -0.57969702182E+03  0.95218010694E+03  0.11841644278E+04  0.00000000000E+00 0.  1.
<mgrwt>
<rscale>  0 0.18745108E+04</rscale>
<asrwt>0</asrwt>
<pdfrwt beam="1">  1        1 0.84767545E-01 0.18745108E+04</pdfrwt>
<pdfrwt beam="2">  1       -1 0.24527857E+00 0.18745108E+04</pdfrwt>
<totfact> 0.27158955E+00</totfact>
</mgrwt>
</event>
<event>
12    3  0.4634846E-008  0.1806480E+04  0.7818608E-02  0.8702861E-01
          2   -1    0    0  501    0  0.00000000000E+00  0.00000000000E+00  0.10703011909E+04  0.10703011909E+04  0.00000000000E+00 0.  1.
         -2   -1    0    0    0  501 -0.00000000000E+00 -0.00000000000E+00 -0.76225510061E+03  0.76225510061E+03  0.00000000000E+00 0. -1.
         23    2    1    2    0    0 -0.66196458640E+02 -0.50946786516E+03 -0.29846341095E+03  0.60135455514E+03  0.92776163694E+02 0.  0.
        254    2    1    2    0    0  0.66196458640E+02  0.50946786516E+03  0.60650950124E+03  0.12312017364E+04  0.94024702276E+03 0.  0.
         23    2    4    4    0    0  0.35617793552E+03  0.52034878802E+03  0.10669799765E+03  0.64600360583E+03  0.91162564144E+02 0.  0.
         23    2    4    4    0    0 -0.28998147688E+03 -0.10880922858E+02  0.49981150359E+03  0.58519813055E+03  0.91856744259E+02 0.  0.
          3    1    3    3  502    0 -0.14637193935E+02 -0.33955216863E+03 -0.15725225421E+03  0.37448390368E+03  0.00000000000E+00 0. -1.
         -3    1    3    3    0  502 -0.51559264705E+02 -0.16991569653E+03 -0.14121115674E+03  0.22687065146E+03  0.00000000000E+00 0.  1.
         13    1    5    5    0    0  0.44009550345E+02  0.24515611355E+02  0.17527948524E+02  0.53339335402E+02  0.00000000000E+00 0.  1.
        -13    1    5    5    0    0  0.31216838518E+03  0.49583317666E+03  0.89170049128E+02  0.59266427043E+03  0.00000000000E+00 0. -1.
          2    1    6    6  503    0 -0.25293980151E+03 -0.73437337910E+01  0.48100470199E+03  0.54350528696E+03  0.00000000000E+00 0. -1.
         -2    1    6    6    0  503 -0.37041675369E+02 -0.35371890667E+01  0.18806801600E+02  0.41692843595E+02  0.00000000000E+00 0.  1.
<mgrwt>
<rscale>  0 0.18064800E+04</rscale>
<asrwt>0</asrwt>
<pdfrwt beam="1">  1        2 0.16466172E+00 0.18064800E+04</pdfrwt>
<pdfrwt beam="2">  1       -2 0.11727002E+00 0.18064800E+04</pdfrwt>
<totfact> 0.12057922E+01</totfact>
</mgrwt>
</event>
<event>
12    3  0.4634846E-008  0.2884175E+04  0.7818608E-02  0.8277602E-01
          2   -1    0    0  501    0  0.00000000000E+00  0.00000000000E+00  0.31463840375E+04  0.31463840375E+04  0.00000000000E+00 0. -1.
         -2   -1    0    0    0  501 -0.00000000000E+00 -0.00000000000E+00 -0.66095419137E+03  0.66095419137E+03  0.00000000000E+00 0.  1.
         23    2    1    2    0    0  0.46549250534E+03 -0.11859744863E+04  0.81306111562E+03  0.15141633687E+04  0.91671013567E+02 0.  0.
        254    2    1    2    0    0 -0.46549250534E+03  0.11859744863E+04  0.16723687305E+04  0.22931748602E+04  0.91575925533E+03 0.  0.
         23    2    4    4    0    0 -0.20094467125E+03  0.31849366586E+03  0.12115272287E+04  0.12717732619E+04  0.88272462800E+02 0.  0.
         23    2    4    4    0    0 -0.26454783409E+03  0.86748082047E+03  0.46084150181E+03  0.10214015983E+04  0.91530348672E+02 0.  0.
          3    1    3    3  502    0  0.36318649058E+03 -0.97067983471E+03  0.62241476888E+03  0.12089350326E+04  0.00000000000E+00 0. -1.
         -3    1    3    3    0  502  0.10230601476E+03 -0.21529465162E+03  0.19064634675E+03  0.30522833616E+03  0.00000000000E+00 0.  1.
         13    1    5    5    0    0 -0.38102915146E+02  0.71073550899E+02  0.39585327660E+03  0.40398403233E+03  0.00000000000E+00 0.  1.
        -13    1    5    5    0    0 -0.16284175611E+03  0.24742011496E+03  0.81567395214E+03  0.86778922960E+03  0.00000000000E+00 0. -1.
          3    1    6    6  503    0 -0.18322492924E+03  0.55623395102E+03  0.24996321825E+03  0.63674892497E+03  0.00000000000E+00 0. -1.
         -3    1    6    6    0  503 -0.81322904843E+02  0.31124686944E+03  0.21087828356E+03  0.38465267329E+03  0.00000000000E+00 0.  1.
<mgrwt>
<rscale>  0 0.28841746E+04</rscale>
<asrwt>0</asrwt>
<pdfrwt beam="1">  1        2 0.48405907E+00 0.28841746E+04</pdfrwt>
<pdfrwt beam="2">  1       -2 0.10168526E+00 0.28841746E+04</pdfrwt>
<totfact> 0.96328564E-01</totfact>
</mgrwt>
</event>
<event>
12    3  0.4634846E-008  0.1712612E+04  0.7818608E-02  0.8754204E-01
          1   -1    0    0  501    0  0.00000000000E+00  0.00000000000E+00  0.18663827493E+04  0.18663827493E+04  0.00000000000E+00 0. -1.
         -1   -1    0    0    0  501 -0.00000000000E+00 -0.00000000000E+00 -0.39287744500E+03  0.39287744500E+03  0.00000000000E+00 0.  1.
         23    2    1    2    0    0  0.10428498725E+03  0.40452262816E+03  0.11229558361E+04  0.12016877698E+04  0.92248420031E+02 0.  0.
        254    2    1    2    0    0 -0.10428498725E+03 -0.40452262816E+03  0.35054946825E+03  0.10575724245E+04  0.90612393644E+03 0.  0.
         23    2    4    4    0    0 -0.29730503671E+03 -0.61670410740E+03  0.19075363647E+03  0.71762374018E+03  0.99411476732E+02 0.  0.
         23    2    4    4    0    0  0.19302004946E+03  0.21218147923E+03  0.15979583178E+03  0.33994868435E+03  0.88049307301E+02 0.  0.
          1    1    3    3  502    0  0.39120109439E+02  0.23930874193E+03  0.53273427023E+03  0.58532457629E+03  0.00000000000E+00 0. -1.
         -1    1    3    3    0  502  0.65164877810E+02  0.16521388623E+03  0.59022156584E+03  0.61636319349E+03  0.00000000000E+00 0.  1.
         13    1    5    5    0    0 -0.15620158505E+03 -0.29578975516E+03  0.14313805200E+03  0.36383927271E+03  0.00000000000E+00 0.  1.
        -13    1    5    5    0    0 -0.14110345166E+03 -0.32091435223E+03  0.47615584467E+02  0.35378446747E+03  0.00000000000E+00 0. -1.
          2    1    6    6  503    0  0.12077634135E+02  0.36355690380E+02  0.54364664125E+02  0.66506557382E+02  0.00000000000E+00 0. -1.
         -2    1    6    6    0  503  0.18094241533E+03  0.17582578885E+03  0.10543116765E+03  0.27344212697E+03  0.00000000000E+00 0.  1.
<mgrwt>
<rscale>  0 0.17126117E+04</rscale>
<asrwt>0</asrwt>
<pdfrwt beam="1">  1        1 0.28713580E+00 0.17126117E+04</pdfrwt>
<pdfrwt beam="2">  1       -1 0.60442685E-01 0.17126117E+04</pdfrwt>
<totfact> 0.96901713E+00</totfact>
</mgrwt>
</event>
<event>
12    3  0.4634846E-008  0.1714778E+04  0.7818608E-02  0.8752980E-01
         -2   -1    0    0    0  501 -0.00000000000E+00  0.00000000000E+00  0.92929695537E+03  0.92929695537E+03  0.00000000000E+00 0.  1.
          2   -1    0    0  501    0  0.00000000000E+00 -0.00000000000E+00 -0.79104531711E+03  0.79104531711E+03  0.00000000000E+00 0. -1.
         23    2    1    2    0    0 -0.59924532748E+03  0.82532638464E+02 -0.62967890490E+02  0.61473868239E+03  0.89621947502E+02 0.  0.
        254    2    1    2    0    0  0.59924532748E+03 -0.82532638464E+02  0.20121952876E+03  0.11056035901E+04  0.90330692501E+03 0.  0.
         23    2    4    4    0    0  0.42272416682E+03 -0.39444327413E+03  0.37715356757E+03  0.69621212264E+03  0.90472584000E+02 0.  0.
         23    2    4    4    0    0  0.17652116066E+03  0.31191063567E+03 -0.17593403881E+03  0.40939146746E+03  0.90557290210E+02 0.  0.
          3    1    3    3  502    0 -0.39681824226E+03  0.43327869595E+02 -0.82547570150E+02  0.40762252516E+03  0.00000000000E+00 0. -1.
         -3    1    3    3    0  502 -0.20242708521E+03  0.39204768870E+02  0.19579679661E+02  0.20711615723E+03  0.00000000000E+00 0.  1.
         13    1    5    5    0    0  0.69472146549E+02 -0.10584511879E+03  0.56559025278E+02  0.13866683691E+03  0.00000000000E+00 0. -1.
        -13    1    5    5    0    0  0.35325202027E+03 -0.28859815535E+03  0.32059454229E+03  0.55754528573E+03  0.00000000000E+00 0.  1.
          3    1    6    6  503    0  0.26730888643E+02  0.48852605077E+02  0.63209592256E+01  0.56045267026E+02  0.00000000000E+00 0. -1.
         -3    1    6    6    0  503  0.14979027202E+03  0.26305803059E+03 -0.18225499804E+03  0.35334620043E+03  0.00000000000E+00 0.  1.
<mgrwt>
<rscale>  0 0.17147781E+04</rscale>
<asrwt>0</asrwt>
<pdfrwt beam="1">  1        2 0.12169928E+00 0.17147781E+04</pdfrwt>
<pdfrwt beam="2">  1       -2 0.14296876E+00 0.17147781E+04</pdfrwt>
<totfact> 0.11296297E+01</totfact>
</mgrwt>
</event>
<event>
12    3  0.4634846E-008  0.1151815E+04  0.7818608E-02  0.9156111E-01
         -1   -1    0    0    0  501 -0.00000000000E+00  0.00000000000E+00  0.40285514676E+03  0.40285514676E+03  0.00000000000E+00 0.  1.
          1   -1    0    0  501    0  0.00000000000E+00 -0.00000000000E+00 -0.82329725820E+03  0.82329725820E+03  0.00000000000E+00 0. -1.
         23    2    1    2    0    0  0.14012416478E+02  0.15752792233E+03 -0.23170092485E+03  0.30320847270E+03  0.11505939863E+03 0.  0.
        254    2    1    2    0    0 -0.14012416478E+02 -0.15752792233E+03 -0.18874118660E+03  0.92294393225E+03  0.88948910754E+03 0.  0.
         23    2    4    4    0    0  0.37344503427E+03 -0.13527097921E+03  0.11281838552E+03  0.42284793401E+03  0.91175411936E+02 0.  0.
         23    2    4    4    0    0 -0.38745745075E+03 -0.22256943122E+02 -0.30155957212E+03  0.50009599825E+03  0.92407706735E+02 0.  0.
          4    1    3    3  502    0  0.20671389740E+01  0.11875801198E+03 -0.73025426375E+02  0.13942901911E+03  0.00000000000E+00 0.  1.
         -4    1    3    3    0  502  0.11945277504E+02  0.38769910355E+02 -0.15867549847E+03  0.16377945359E+03  0.00000000000E+00 0. -1.
         13    1    5    5    0    0  0.10404525860E+03 -0.82825628999E+02  0.33007428277E+02  0.13702186314E+03  0.00000000000E+00 0. -1.
        -13    1    5    5    0    0  0.26939977568E+03 -0.52445350212E+02  0.79810957244E+02  0.28582607087E+03  0.00000000000E+00 0.  1.
          2    1    6    6  503    0 -0.35853299610E+03 -0.42064503840E+02 -0.25572541831E+03  0.44239215787E+03  0.00000000000E+00 0.  1.
         -2    1    6    6    0  503 -0.28924454652E+02  0.19807560718E+02 -0.45834153810E+02  0.57703840375E+02  0.00000000000E+00 0. -1.
<mgrwt>
<rscale>  0 0.11518152E+04</rscale>
<asrwt>0</asrwt>
<pdfrwt beam="1">  1        1 0.12666112E+00 0.11518152E+04</pdfrwt>
<pdfrwt beam="2">  1       -1 0.61977715E-01 0.11518152E+04</pdfrwt>
<totfact> 0.55348079E+01</totfact>
</mgrwt>
</event>
<event>
12    3  0.4634846E-008  0.2584696E+04  0.7818608E-02  0.8373418E-01
         -2   -1    0    0    0  501 -0.00000000000E+00  0.00000000000E+00  0.77178900933E+03  0.77178900933E+03  0.00000000000E+00 0.  1.
          2   -1    0    0  501    0  0.00000000000E+00 -0.00000000000E+00 -0.21640157390E+04  0.21640157390E+04  0.00000000000E+00 0. -1.
         23    2    1    2    0    0  0.96321959351E+03  0.52021745624E+03 -0.98738694988E+03  0.14774278571E+04  0.97169424559E+02 0.  0.
        254    2    1    2    0    0 -0.96321959351E+03 -0.52021745624E+03 -0.40483977983E+03  0.14583768913E+04  0.87438533982E+03 0.  0.
         23    2    4    4    0    0 -0.10562508090E+04 -0.27921064089E+03 -0.19578667929E+03  0.11139569780E+04  0.94569401735E+02 0.  0.
         23    2    4    4    0    0  0.93031215436E+02 -0.24100681535E+03 -0.20905310054E+03  0.34441991321E+03  0.90458751269E+02 0.  0.
          2    1    3    3  502    0  0.77402595283E+03  0.37270734783E+03 -0.76669104727E+03  0.11514521722E+04  0.00000000000E+00 0. -1.
         -2    1    3    3    0  502  0.18919364068E+03  0.14751010841E+03 -0.22069590261E+03  0.32597568496E+03  0.00000000000E+00 0.  1.
         13    1    5    5    0    0 -0.10601986194E+03 -0.47870030163E+02  0.11855894298E+01  0.11633209590E+03  0.00000000000E+00 0.  1.
        -13    1    5    5    0    0 -0.95023094701E+03 -0.23134061073E+03 -0.19697226872E+03  0.99762488215E+03  0.00000000000E+00 0. -1.
          3    1    6    6  503    0  0.69825333437E+02 -0.71164187628E+02 -0.54550714874E+02  0.11364725814E+03  0.00000000000E+00 0. -1.
         -3    1    6    6    0  503  0.23205881998E+02 -0.16984262772E+03 -0.15450238566E+03  0.23077265506E+03  0.00000000000E+00 0.  1.
<mgrwt>
<rscale>  0 0.25846962E+04</rscale>
<asrwt>0</asrwt>
<pdfrwt beam="1">  1        2 0.33292550E+00 0.25846962E+04</pdfrwt>
<pdfrwt beam="2">  1       -2 0.11873677E+00 0.25846962E+04</pdfrwt>
<totfact> 0.26119326E+00</totfact>
</mgrwt>
</event>
<event>
12    3  0.4634846E-008  0.1754269E+04  0.7818608E-02  0.8731004E-01
          2   -1    0    0  501    0  0.00000000000E+00  0.00000000000E+00  0.61473345350E+03  0.61473345350E+03  0.00000000000E+00 0. -1.
         -2   -1    0    0    0  501 -0.00000000000E+00 -0.00000000000E+00 -0.12515418083E+04  0.12515418083E+04  0.00000000000E+00 0.  1.
         23    2    1    2    0    0 -0.50290461316E+02  0.47913242947E+03  0.21262592178E+03  0.53405439451E+03  0.88922990334E+02 0.  0.
        254    2    1    2    0    0  0.50290461316E+02 -0.47913242947E+03 -0.84943427657E+03  0.13322208673E+04  0.90618807846E+03 0.  0.
         23    2    4    4    0    0  0.17225404420E+03 -0.28221670827E+03 -0.98906724014E+03  0.10468513771E+04  0.91247323780E+02 0.  0.
         23    2    4    4    0    0 -0.12196358288E+03 -0.19691572120E+03  0.13963296357E+03  0.28536949015E+03  0.91035512781E+02 0.  0.
          3    1    3    3  502    0 -0.38393302149E+02  0.10613522952E+03  0.21963120890E+02  0.11498309125E+03  0.00000000000E+00 0.  1.
         -3    1    3    3    0  502 -0.11897159167E+02  0.37299719995E+03  0.19066280089E+03  0.41907130326E+03  0.00000000000E+00 0. -1.
         13    1    5    5    0    0  0.12287880890E+02 -0.69966123155E+02 -0.30019091145E+03  0.30848149656E+03  0.00000000000E+00 0.  1.
        -13    1    5    5    0    0  0.15996616331E+03 -0.21225058511E+03 -0.68887632870E+03  0.73836988056E+03  0.00000000000E+00 0. -1.
          3    1    6    6  503    0 -0.96834216554E+02 -0.17950663540E+03  0.14990144975E+03  0.25312041065E+03  0.00000000000E+00 0. -1.
         -3    1    6    6    0  503 -0.25129366331E+02 -0.17409085804E+02 -0.10268486178E+02  0.32249079508E+02  0.00000000000E+00 0.  1.
<mgrwt>
<rscale>  0 0.17542686E+04</rscale>
<asrwt>0</asrwt>
<pdfrwt beam="1">  1        2 0.94574379E-01 0.17542686E+04</pdfrwt>
<pdfrwt beam="2">  1       -2 0.19254489E+00 0.17542686E+04</pdfrwt>
<totfact> 0.67939793E+00</totfact>
</mgrwt>
</event>
<event>
12    3  0.4634846E-008  0.1458357E+04  0.7818608E-02  0.8912627E-01
          2   -1    0    0  501    0  0.00000000000E+00  0.00000000000E+00  0.27497396129E+03  0.27497396129E+03  0.00000000000E+00 0. -1.
         -2   -1    0    0    0  501 -0.00000000000E+00 -0.00000000000E+00 -0.19336422897E+04  0.19336422897E+04  0.00000000000E+00 0.  1.
         23    2    1    2    0    0 -0.30056281909E+03 -0.31922139336E+03 -0.41120111716E+03  0.60808995678E+03  0.91906096521E+02 0.  0.
        254    2    1    2    0    0  0.30056281909E+03  0.31922139336E+03 -0.12474672112E+04  0.16005262942E+04  0.90181465342E+03 0.  0.
         23    2    4    4    0    0  0.75993809145E+02 -0.18886851856E+03 -0.92371674921E+03  0.95027406648E+03  0.91223858312E+02 0.  0.
         23    2    4    4    0    0  0.22456900995E+03  0.50808991192E+03 -0.32375046202E+03  0.65025222772E+03  0.97092734878E+02 0.  0.
          1    1    3    3  502    0 -0.15296162877E+03 -0.22056706788E+03 -0.21881126250E+03  0.34630255544E+03  0.00000000000E+00 0. -1.
         -1    1    3    3    0  502 -0.14760119032E+03 -0.98654325483E+02 -0.19238985467E+03  0.26178740134E+03  0.00000000000E+00 0.  1.
         13    1    5    5    0    0  0.19524502086E+02 -0.57159619221E+02 -0.48497459463E+03  0.48872158300E+03  0.00000000000E+00 0. -1.
        -13    1    5    5    0    0  0.56469307058E+02 -0.13170889934E+03 -0.43874215458E+03  0.46155248348E+03  0.00000000000E+00 0.  1.
          3    1    6    6  503    0  0.99797186929E+02  0.24293306992E+03 -0.97950441625E+02  0.28030384228E+03  0.00000000000E+00 0. -1.
         -3    1    6    6    0  503  0.12477182302E+03  0.26515684200E+03 -0.22580002039E+03  0.36994838544E+03  0.00000000000E+00 0.  1.
<mgrwt>
<rscale>  0 0.14583570E+04</rscale>
<asrwt>0</asrwt>
<pdfrwt beam="1">  1        2 0.42303689E-01 0.14583570E+04</pdfrwt>
<pdfrwt beam="2">  1       -2 0.29748341E+00 0.14583570E+04</pdfrwt>
<totfact> 0.38772851E+00</totfact>
</mgrwt>
</event>
<event>
12    3  0.4634846E-008  0.2127382E+04  0.7818608E-02  0.8549276E-01
         -2   -1    0    0    0  501 -0.00000000000E+00  0.00000000000E+00  0.77250358219E+03  0.77250358219E+03  0.00000000000E+00 0.  1.
          2   -1    0    0  501    0  0.00000000000E+00 -0.00000000000E+00 -0.14646389458E+04  0.14646389458E+04  0.00000000000E+00 0. -1.
         23    2    1    2    0    0  0.33257162168E+02  0.83130312463E+02 -0.11858299882E+04  0.11926616924E+04  0.90732926470E+02 0.  0.
        254    2    1    2    0    0 -0.33257162168E+02 -0.83130312463E+02  0.49369462458E+03  0.10444808356E+04  0.91607267500E+03 0.  0.
         23    2    4    4    0    0 -0.10962732564E+03  0.26976299039E+03 -0.11891887364E+03  0.32726038975E+03  0.90373904826E+02 0.  0.
         23    2    4    4    0    0  0.76370163476E+02 -0.35289330286E+03  0.61261349822E+03  0.71722044584E+03  0.93508206390E+02 0.  0.
          4    1    3    3  502    0  0.64402311783E+02  0.58257346238E+02 -0.87103131668E+03  0.87534971914E+03  0.00000000000E+00 0. -1.
         -4    1    3    3    0  502 -0.31145149615E+02  0.24872966226E+02 -0.31479867152E+03  0.31731197328E+03  0.00000000000E+00 0.  1.
         13    1    5    5    0    0 -0.74009568831E+02  0.71380129599E+02 -0.49203710838E+02  0.11398922905E+03  0.00000000000E+00 0.  1.
        -13    1    5    5    0    0 -0.35617756814E+02  0.19838286080E+03 -0.69715162802E+02  0.21327116069E+03  0.00000000000E+00 0. -1.
          2    1    6    6  503    0 -0.15378563163E+02 -0.12949703464E+03  0.18948559926E+03  0.23002342166E+03  0.00000000000E+00 0. -1.
         -2    1    6    6    0  503  0.91748726639E+02 -0.22339626821E+03  0.42312789896E+03  0.48719702418E+03  0.00000000000E+00 0.  1.
<mgrwt>
<rscale>  0 0.21273823E+04</rscale>
<asrwt>0</asrwt>
<pdfrwt beam="1">  1        2 0.22532907E+00 0.21273823E+04</pdfrwt>
<pdfrwt beam="2">  1       -2 0.11884670E+00 0.21273823E+04</pdfrwt>
<totfact> 0.66491203E+00</totfact>
</mgrwt>
</event>
<event>
12    3  0.4634846E-008  0.1532307E+04  0.7818608E-02  0.8863249E-01
          2   -1    0    0  501    0  0.00000000000E+00  0.00000000000E+00  0.11350545573E+04  0.11350545573E+04  0.00000000000E+00 0.  1.
         -2   -1    0    0    0  501 -0.00000000000E+00 -0.00000000000E+00 -0.51714805921E+03  0.51714805921E+03  0.00000000000E+00 0. -1.
         23    2    1    2    0    0  0.27323599107E+03  0.20929202101E+03 -0.17804729131E+03  0.39415607143E+03  0.72091010699E+02 0.  0.
        254    2    1    2    0    0 -0.27323599107E+03 -0.20929202101E+03  0.79595378941E+03  0.12580465451E+04  0.91141517316E+03 0.  0.
         23    2    4    4    0    0 -0.58500072203E+03 -0.59793659359E+02  0.36231560153E+03  0.69672965215E+03  0.91424759205E+02 0.  0.
         23    2    4    4    0    0  0.31176473096E+03 -0.14949836165E+03  0.43363818788E+03  0.56131689294E+03  0.86530738535E+02 0.  0.
          4    1    3    3  502    0  0.26873120241E+03  0.20372700489E+03 -0.18460425505E+03  0.38444750311E+03  0.00000000000E+00 0. -1.
         -4    1    3    3    0  502  0.45047886621E+01  0.55650161238E+01  0.65569637319E+01  0.97085683151E+01  0.00000000000E+00 0.  1.
         13    1    5    5    0    0 -0.24124681965E+03 -0.49787389163E+02  0.10776883700E+03  0.26887345414E+03  0.00000000000E+00 0.  1.
        -13    1    5    5    0    0 -0.34375390238E+03 -0.10006270196E+02  0.25454676453E+03  0.42785619801E+03  0.00000000000E+00 0. -1.
          1    1    6    6  503    0  0.40095815761E+02 -0.79451141616E+01  0.17209300987E+02  0.44350415117E+02  0.00000000000E+00 0. -1.
         -1    1    6    6    0  503  0.27166891520E+03 -0.14155324749E+03  0.41642888689E+03  0.51696647783E+03  0.00000000000E+00 0.  1.
<mgrwt>
<rscale>  0 0.15323071E+04</rscale>
<asrwt>0</asrwt>
<pdfrwt beam="1">  1        2 0.17462378E+00 0.15323071E+04</pdfrwt>
<pdfrwt beam="2">  1       -2 0.79561240E-01 0.15323071E+04</pdfrwt>
<totfact> 0.27971101E+01</totfact>
</mgrwt>
</event>
<event>
12    3  0.4634846E-008  0.1624090E+04  0.7818608E-02  0.8805884E-01
          2   -1    0    0  501    0  0.00000000000E+00  0.00000000000E+00  0.17265137551E+04  0.17265137551E+04  0.00000000000E+00 0. -1.
         -2   -1    0    0    0  501 -0.00000000000E+00 -0.00000000000E+00 -0.38193551437E+03  0.38193551437E+03  0.00000000000E+00 0.  1.
         23    2    1    2    0    0 -0.15127604737E+01 -0.29406762288E+03  0.10819261686E+04  0.11247932796E+04  0.90097904240E+02 0.  0.
        254    2    1    2    0    0  0.15127604737E+01  0.29406762288E+03  0.26265207218E+03  0.98365598989E+03  0.90117420078E+03 0.  0.
         23    2    4    4    0    0  0.30095697761E+03 -0.28711842165E+02 -0.17003561411E+03  0.35868904164E+03  0.91357792623E+02 0.  0.
         23    2    4    4    0    0 -0.29944421714E+03  0.32277946505E+03  0.43268768629E+03  0.62496694825E+03  0.97527587441E+02 0.  0.
          4    1    3    3  502    0  0.34172617096E+02 -0.20137470093E+03  0.80795863873E+03  0.83337668544E+03  0.00000000000E+00 0. -1.
         -4    1    3    3    0  502 -0.35685377570E+02 -0.92692921953E+02  0.27396752985E+03  0.29141659418E+03  0.00000000000E+00 0.  1.
         13    1    5    5    0    0  0.26880025165E+03 -0.29880589766E+01 -0.16893906072E+03  0.31749474014E+03  0.00000000000E+00 0. -1.
        -13    1    5    5    0    0  0.32156725961E+02 -0.25723783189E+02 -0.10965533877E+01  0.41194301492E+02  0.00000000000E+00 0.  1.
          3    1    6    6  503    0 -0.25414024521E+03  0.21712483805E+03  0.34511606936E+03  0.48045349501E+03  0.00000000000E+00 0. -1.
         -3    1    6    6    0  503 -0.45303971927E+02  0.10565462699E+03  0.87571616923E+02  0.14451345324E+03  0.00000000000E+00 0.  1.
<mgrwt>
<rscale>  0 0.16240898E+04</rscale>
<asrwt>0</asrwt>
<pdfrwt beam="1">  1        2 0.26561750E+00 0.16240898E+04</pdfrwt>
<pdfrwt beam="2">  1       -2 0.58759311E-01 0.16240898E+04</pdfrwt>
<totfact> 0.24557322E+01</totfact>
</mgrwt>
</event>
<event>
12    3  0.4634846E-008  0.1334310E+04  0.7818608E-02  0.9002791E-01
          2   -1    0    0  501    0  0.00000000000E+00  0.00000000000E+00  0.35085727349E+04  0.35085727349E+04  0.00000000000E+00 0. -1.
         -2   -1    0    0    0  501 -0.00000000000E+00 -0.00000000000E+00 -0.12685944663E+03  0.12685944663E+03  0.00000000000E+00 0.  1.
         23    2    1    2    0    0  0.24144836119E+03  0.28387036282E+03  0.99607951520E+03  0.10689752311E+04  0.10795346278E+03 0.  0.
        254    2    1    2    0    0 -0.24144836119E+03 -0.28387036282E+03  0.23856337731E+04  0.25664569504E+04  0.86981209758E+03 0.  0.
         23    2    4    4    0    0  0.11401213987E+03  0.24895437846E+03  0.56728730827E+03  0.63653708531E+03  0.91583405998E+02 0.  0.
         23    2    4    4    0    0 -0.35546050107E+03 -0.53282474128E+03  0.18183464648E+04  0.19299198651E+04  0.89176493196E+02 0.  0.
          4    1    3    3  502    0  0.17429379453E+03  0.21887463767E+03  0.85612430783E+03  0.90068488623E+03  0.00000000000E+00 0. -1.
         -4    1    3    3    0  502  0.67154566665E+02  0.64995725145E+02  0.13995520737E+03  0.16829034489E+03  0.00000000000E+00 0.  1.
         13    1    5    5    0    0  0.12993601102E+03  0.22447459718E+03  0.50329372833E+03  0.56619500944E+03  0.00000000000E+00 0. -1.
        -13    1    5    5    0    0 -0.15923871146E+02  0.24479781285E+02  0.63993579935E+02  0.70342075864E+02  0.00000000000E+00 0.  1.
          2    1    6    6  503    0 -0.22416927927E+03 -0.40476577095E+03  0.13386703364E+04  0.14163775855E+04  0.00000000000E+00 0. -1.
         -2    1    6    6    0  503 -0.13129122180E+03 -0.12805897033E+03  0.47967612840E+03  0.51354227962E+03  0.00000000000E+00 0.  1.
<mgrwt>
<rscale>  0 0.13343097E+04</rscale>
<asrwt>0</asrwt>
<pdfrwt beam="1">  1        2 0.53978035E+00 0.13343097E+04</pdfrwt>
<pdfrwt beam="2">  1       -2 0.19516841E-01 0.13343097E+04</pdfrwt>
<totfact> 0.17843031E+01</totfact>
</mgrwt>
</event>
<event>
12    3  0.4634846E-008  0.2431437E+04  0.7818608E-02  0.8427827E-01
         -1   -1    0    0    0  501 -0.00000000000E+00  0.00000000000E+00  0.38976813121E+03  0.38976813121E+03  0.00000000000E+00 0.  1.
          1   -1    0    0  501    0  0.00000000000E+00 -0.00000000000E+00 -0.37919242454E+04  0.37919242454E+04  0.00000000000E+00 0. -1.
         23    2    1    2    0    0 -0.29130590784E+03  0.98544707448E+03 -0.18921407334E+04  0.21550999672E+04  0.91072745941E+02 0.  0.
        254    2    1    2    0    0  0.29130590784E+03 -0.98544707448E+03 -0.15100153808E+04  0.20265924094E+04  0.87804628299E+03 0.  0.
         23    2    4    4    0    0  0.41986589575E+03 -0.52425529129E+03 -0.13569602354E+04  0.15168424020E+04  0.91317091538E+02 0.  0.
         23    2    4    4    0    0 -0.12855998791E+03 -0.46119178319E+03 -0.15305514537E+03  0.50975000738E+03  0.84815453346E+02 0.  0.
          3    1    3    3  502    0 -0.21164250360E+03  0.76190889410E+03 -0.13763554427E+04  0.15873411785E+04  0.00000000000E+00 0. -1.
         -3    1    3    3    0  502 -0.79663404241E+02  0.22353818039E+03 -0.51578529066E+03  0.56775878868E+03  0.00000000000E+00 0.  1.
         13    1    5    5    0    0  0.31664412178E+03 -0.45184957430E+03 -0.11066435078E+04  0.12365643497E+04  0.00000000000E+00 0.  1.
        -13    1    5    5    0    0  0.10322177397E+03 -0.72405716986E+02 -0.25031672766E+03  0.28027805233E+03  0.00000000000E+00 0. -1.
          1    1    6    6  503    0 -0.30616772622E+02 -0.19386857645E+03 -0.99516155548E+02  0.22005880331E+03  0.00000000000E+00 0. -1.
         -1    1    6    6    0  503 -0.97943215283E+02 -0.26732320674E+03 -0.53538989821E+02  0.28969120407E+03  0.00000000000E+00 0.  1.
<mgrwt>
<rscale>  0 0.24314368E+04</rscale>
<asrwt>0</asrwt>
<pdfrwt beam="1">  1        1 0.58337295E+00 0.24314368E+04</pdfrwt>
<pdfrwt beam="2">  1       -1 0.59964329E-01 0.24314368E+04</pdfrwt>
<totfact> 0.36566040E-01</totfact>
</mgrwt>
</event>
<event>
12    3  0.4634846E-008  0.2377022E+04  0.7818608E-02  0.8448156E-01
         -2   -1    0    0    0  501 -0.00000000000E+00  0.00000000000E+00  0.54541696117E+03  0.54541696117E+03  0.00000000000E+00 0.  1.
          2   -1    0    0  501    0  0.00000000000E+00 -0.00000000000E+00 -0.25898698886E+04  0.25898698886E+04  0.00000000000E+00 0. -1.
         23    2    1    2    0    0 -0.26588963761E+02  0.41328899466E+03 -0.21056228892E+04  0.21477978684E+04  0.88730863080E+02 0.  0.
        254    2    1    2    0    0  0.26588963761E+02 -0.41328899466E+03  0.61169961765E+02  0.98748898133E+03  0.89435896480E+03 0.  0.
         23    2    4    4    0    0  0.25040369177E+03  0.19586168786E+03  0.16237381969E+02  0.33031482022E+03  0.88206679227E+02 0.  0.
         23    2    4    4    0    0 -0.22381472801E+03 -0.60915068253E+03  0.44932579796E+02  0.65717416110E+03  0.93281052715E+02 0.  0.
          4    1    3    3  502    0  0.65830758483E+01  0.34848514622E+03 -0.16518275457E+04  0.16882000695E+04  0.00000000000E+00 0. -1.
         -4    1    3    3    0  502 -0.33172039609E+02  0.64803848448E+02 -0.45379534352E+03  0.45959779893E+03  0.00000000000E+00 0.  1.
         13    1    5    5    0    0  0.13386542488E+03  0.15651734480E+03  0.22336544242E+02  0.20716310581E+03  0.00000000000E+00 0.  1.
        -13    1    5    5    0    0  0.11653826690E+03  0.39344343063E+02 -0.60991622739E+01  0.12315171441E+03  0.00000000000E+00 0. -1.
          3    1    6    6  503    0 -0.53228860420E+02 -0.19534023703E+03 -0.25543673725E+02  0.20406763352E+03  0.00000000000E+00 0. -1.
         -3    1    6    6    0  503 -0.17058586759E+03 -0.41381044550E+03  0.70476253521E+02  0.45310652758E+03  0.00000000000E+00 0.  1.
<mgrwt>
<rscale>  0 0.23770225E+04</rscale>
<asrwt>0</asrwt>
<pdfrwt beam="1">  1        2 0.39844153E+00 0.23770225E+04</pdfrwt>
<pdfrwt beam="2">  1       -2 0.83910300E-01 0.23770225E+04</pdfrwt>
<totfact> 0.34487863E+00</totfact>
</mgrwt>
</event>
<event>
12    3  0.4634846E-008  0.1397828E+04  0.7818608E-02  0.8955392E-01
          2   -1    0    0  501    0  0.00000000000E+00  0.00000000000E+00  0.12536724465E+04  0.12536724465E+04  0.00000000000E+00 0. -1.
         -2   -1    0    0    0  501 -0.00000000000E+00 -0.00000000000E+00 -0.38964007476E+03  0.38964007476E+03  0.00000000000E+00 0.  1.
         23    2    1    2    0    0  0.16401307524E+03  0.22397462465E+03 -0.91866230643E+02  0.30422075680E+03  0.83940116735E+02 0.  0.
        254    2    1    2    0    0 -0.16401307524E+03 -0.22397462465E+03  0.95589860240E+03  0.13390917645E+04  0.89574532892E+03 0.  0.
         23    2    4    4    0    0 -0.16348129807E+03 -0.22489068033E+03  0.11171321279E+04  0.11548892123E+04  0.92102922794E+02 0.  0.
         23    2    4    4    0    0 -0.53177716184E+00  0.91605567951E+00 -0.16123352555E+03  0.18420255221E+03  0.89068560874E+02 0.  0.
          3    1    3    3  502    0  0.16038401497E+03  0.17461270444E+03 -0.57501000568E+02  0.24396514890E+03  0.00000000000E+00 0. -1.
         -3    1    3    3    0  502  0.36290602656E+01  0.49361920207E+02 -0.34365230075E+02  0.60255607897E+02  0.00000000000E+00 0.  1.
         13    1    5    5    0    0 -0.77599168665E+02 -0.15079767623E+03  0.80796675527E+03  0.82557364768E+03  0.00000000000E+00 0.  1.
        -13    1    5    5    0    0 -0.85882129410E+02 -0.74093004102E+02  0.30916537268E+03  0.32931556458E+03  0.00000000000E+00 0. -1.
          1    1    6    6  503    0 -0.20380853607E+01  0.43181298913E+02 -0.10718415474E+03  0.11557344589E+03  0.00000000000E+00 0. -1.
         -1    1    6    6    0  503  0.15063081989E+01 -0.42265243233E+02 -0.54049370812E+02  0.68629106326E+02  0.00000000000E+00 0.  1.
<mgrwt>
<rscale>  0 0.13978284E+04</rscale>
<asrwt>0</asrwt>
<pdfrwt beam="1">  1        2 0.19287268E+00 0.13978284E+04</pdfrwt>
<pdfrwt beam="2">  1       -2 0.59944628E-01 0.13978284E+04</pdfrwt>
<totfact> 0.44457085E+01</totfact>
</mgrwt>
</event>
<event>
12    3  0.4634846E-008  0.2488105E+04  0.7818608E-02  0.8407236E-01
         -2   -1    0    0    0  501 -0.00000000000E+00  0.00000000000E+00  0.77101600529E+03  0.77101600529E+03  0.00000000000E+00 0.  1.
          2   -1    0    0  501    0  0.00000000000E+00 -0.00000000000E+00 -0.20073074126E+04  0.20073074126E+04  0.00000000000E+00 0. -1.
         23    2    1    2    0    0 -0.10069549107E+04 -0.36950534837E+03 -0.72835467583E+03  0.12998149790E+04  0.92336619251E+02 0.  0.
        254    2    1    2    0    0  0.10069549107E+04  0.36950534837E+03 -0.50793673143E+03  0.14785084388E+04  0.88175681796E+03 0.  0.
         23    2    4    4    0    0 -0.59411347311E+02  0.11098333918E+01 -0.30846900713E+03  0.32909372071E+03  0.98074506023E+02 0.  0.
         23    2    4    4    0    0  0.10663662580E+04  0.36839551497E+03 -0.19946772430E+03  0.11494147181E+04  0.92274425705E+02 0.  0.
          1    1    3    3  502    0 -0.42936325133E+03 -0.14718990402E+03 -0.36237108948E+03  0.58080158052E+03  0.00000000000E+00 0. -1.
         -1    1    3    3    0  502 -0.57759165932E+03 -0.22231544435E+03 -0.36598358635E+03  0.71901339848E+03  0.00000000000E+00 0.  1.
         13    1    5    5    0    0  0.21121519324E+02 -0.89747319820E+01 -0.14257360192E+03  0.14440878214E+03  0.00000000000E+00 0.  1.
        -13    1    5    5    0    0 -0.80532866636E+02  0.10084565374E+02 -0.16589540521E+03  0.18468493857E+03  0.00000000000E+00 0. -1.
          2    1    6    6  503    0  0.86517895484E+03  0.30419066782E+03 -0.19799247095E+03  0.93822577498E+03  0.00000000000E+00 0. -1.
         -2    1    6    6    0  503  0.20118730312E+03  0.64204847155E+02 -0.14752533586E+01  0.21118894315E+03  0.00000000000E+00 0.  1.
<mgrwt>
<rscale>  0 0.24881046E+04</rscale>
<asrwt>0</asrwt>
<pdfrwt beam="1">  1        2 0.30881652E+00 0.24881046E+04</pdfrwt>
<pdfrwt beam="2">  1       -2 0.11861785E+00 0.24881046E+04</pdfrwt>
<totfact> 0.32293321E+00</totfact>
</mgrwt>
</event>
<event>
12    3  0.4634846E-008  0.1928076E+04  0.7818608E-02  0.8641006E-01
         -1   -1    0    0    0  501 -0.00000000000E+00  0.00000000000E+00  0.63914120053E+03  0.63914120053E+03  0.00000000000E+00 0.  1.
          1   -1    0    0  501    0  0.00000000000E+00 -0.00000000000E+00 -0.14540903411E+04  0.14540903411E+04  0.00000000000E+00 0. -1.
         23    2    1    2    0    0  0.57075557890E+03 -0.46891010249E+03 -0.45280640883E+03  0.87383747875E+03  0.11366477171E+03 0.  0.
        254    2    1    2    0    0 -0.57075557890E+03  0.46891010249E+03 -0.36214273170E+03  0.12193940628E+04  0.90007550089E+03 0.  0.
         23    2    4    4    0    0 -0.37773932622E+03 -0.15474715398E+03  0.79488560875E+02  0.42589166464E+03  0.91823735865E+02 0.  0.
         23    2    4    4    0    0 -0.19301625269E+03  0.62365725647E+03 -0.44163129258E+03  0.79350239820E+03  0.91674478580E+02 0.  0.
          1    1    3    3  502    0  0.86968009218E+02 -0.45227682839E+02 -0.24064804831E+02  0.10093608252E+03  0.00000000000E+00 0. -1.
         -1    1    3    3    0  502  0.48378756969E+03 -0.42368241965E+03 -0.42874160400E+03  0.77290139623E+03  0.00000000000E+00 0.  1.
         13    1    5    5    0    0 -0.28339801633E+03 -0.13615644748E+03  0.95100422723E+02  0.32847694630E+03  0.00000000000E+00 0.  1.
        -13    1    5    5    0    0 -0.94341309888E+02 -0.18590706500E+02 -0.15611861848E+02  0.97414718343E+02  0.00000000000E+00 0. -1.
          1    1    6    6  503    0 -0.44671209920E+01 -0.23754468463E+01 -0.60296106866E+01  0.78710941240E+01  0.00000000000E+00 0. -1.
         -1    1    6    6    0  503 -0.18854913170E+03  0.62603270331E+03 -0.43560168189E+03  0.78563130408E+03  0.00000000000E+00 0.  1.
<mgrwt>
<rscale>  0 0.19280758E+04</rscale>
<asrwt>0</asrwt>
<pdfrwt beam="1">  1        1 0.22370620E+00 0.19280758E+04</pdfrwt>
<pdfrwt beam="2">  1       -1 0.98329416E-01 0.19280758E+04</pdfrwt>
<totfact> 0.65092995E+00</totfact>
</mgrwt>
</event>
<event>
12    3  0.4634846E-008  0.1246845E+04  0.7818608E-02  0.9072813E-01
         -2   -1    0    0    0  501 -0.00000000000E+00  0.00000000000E+00  0.29575250918E+03  0.29575250918E+03  0.00000000000E+00 0.  1.
          2   -1    0    0  501    0  0.00000000000E+00 -0.00000000000E+00 -0.13141238419E+04  0.13141238419E+04  0.00000000000E+00 0. -1.
         23    2    1    2    0    0  0.79619281324E+01  0.61331858579E+02 -0.61869628736E+03  0.62904128939E+03  0.95304032398E+02 0.  0.
        254    2    1    2    0    0 -0.79619281324E+01 -0.61331858579E+02 -0.39967504533E+03  0.98083506165E+03  0.89357276544E+03 0.  0.
         23    2    4    4    0    0  0.41618103216E+03  0.55493207342E+02 -0.10168395458E+03  0.44139714515E+03  0.90585128688E+02 0.  0.
         23    2    4    4    0    0 -0.42414296029E+03 -0.11682506592E+03 -0.29799109075E+03  0.53943791650E+03  0.93001230118E+02 0.  0.
          4    1    3    3  502    0  0.78738176626E+01  0.66630669375E+02 -0.21315123581E+03  0.22346161289E+03  0.00000000000E+00 0. -1.
         -4    1    3    3    0  502  0.88110469855E-01 -0.52988107959E+01 -0.40554505154E+03  0.40557967650E+03  0.00000000000E+00 0.  1.
         13    1    5    5    0    0  0.12742183135E+03  0.63086410262E+01 -0.73227858377E+02  0.14710010638E+03  0.00000000000E+00 0. -1.
        -13    1    5    5    0    0  0.28875920081E+03  0.49184566316E+02 -0.28456096204E+02  0.29429703877E+03  0.00000000000E+00 0.  1.
          3    1    6    6  503    0 -0.14111691367E+03 -0.46785127567E+01 -0.61813900622E+02  0.15413250830E+03  0.00000000000E+00 0. -1.
         -3    1    6    6    0  503 -0.28302604662E+03 -0.11214655316E+03 -0.23617719012E+03  0.38530540820E+03  0.00000000000E+00 0.  1.
<mgrwt>
<rscale>  0 0.12468447E+04</rscale>
<asrwt>0</asrwt>
<pdfrwt beam="1">  1        2 0.20217290E+00 0.12468447E+04</pdfrwt>
<pdfrwt beam="2">  1       -2 0.45500386E-01 0.12468447E+04</pdfrwt>
<totfact> 0.73058211E+01</totfact>
</mgrwt>
</event>
<event>
12    3  0.4634846E-008  0.2473851E+04  0.7818608E-02  0.8412361E-01
          2   -1    0    0  501    0  0.00000000000E+00  0.00000000000E+00  0.94197029295E+03  0.94197029295E+03  0.00000000000E+00 0.  1.
         -2   -1    0    0    0  501 -0.00000000000E+00 -0.00000000000E+00 -0.16242393550E+04  0.16242393550E+04  0.00000000000E+00 0. -1.
         23    2    1    2    0    0  0.64107030049E+03  0.43165808944E+02  0.59125784589E+03  0.87801414293E+03  0.92133477169E+02 0.  0.
        254    2    1    2    0    0 -0.64107030049E+03 -0.43165808944E+02 -0.12735269080E+04  0.16881955051E+04  0.90293901274E+03 0.  0.
         23    2    4    4    0    0 -0.86231286775E+03 -0.43958684669E+02 -0.97442456309E+03  0.13050377240E+04  0.90024351952E+02 0.  0.
         23    2    4    4    0    0  0.22124256726E+03  0.79287572478E+00 -0.29910234488E+03  0.38315778111E+03  0.91644805026E+02 0.  0.
          3    1    3    3  502    0  0.11647528487E+03  0.37065898137E+02  0.84440805076E+02  0.14856184689E+03  0.00000000000E+00 0. -1.
         -3    1    3    3    0  502  0.52459501562E+03  0.60999108067E+01  0.50681704082E+03  0.72945229603E+03  0.00000000000E+00 0.  1.
         13    1    5    5    0    0 -0.69853471293E+03 -0.44961696911E+02 -0.73531778836E+03  0.10152165036E+04  0.00000000000E+00 0. -1.
        -13    1    5    5    0    0 -0.16377815482E+03  0.10030122423E+01 -0.23910677473E+03  0.28982122033E+03  0.00000000000E+00 0.  1.
          2    1    6    6  503    0  0.82075590367E+02  0.38175123844E+02 -0.15417306951E+03  0.17878220822E+03  0.00000000000E+00 0.  1.
         -2    1    6    6    0  503  0.13916697689E+03 -0.37382248119E+02 -0.14492927538E+03  0.20437557288E+03  0.00000000000E+00 0. -1.
<mgrwt>
<rscale>  0 0.24738514E+04</rscale>
<asrwt>0</asrwt>
<pdfrwt beam="1">  1        2 0.14491851E+00 0.24738514E+04</pdfrwt>
<pdfrwt beam="2">  1       -2 0.24988298E+00 0.24738514E+04</pdfrwt>
<totfact> 0.15809933E+00</totfact>
</mgrwt>
</event>
<event>
12    3  0.4634846E-008  0.2513846E+04  0.7818608E-02  0.8398069E-01
          2   -1    0    0  501    0  0.00000000000E+00  0.00000000000E+00  0.20812690921E+04  0.20812690921E+04  0.00000000000E+00 0. -1.
         -2   -1    0    0    0  501 -0.00000000000E+00 -0.00000000000E+00 -0.75908262750E+03  0.75908262750E+03  0.00000000000E+00 0.  1.
         23    2    1    2    0    0  0.14458365819E+03  0.97426684657E+03  0.11267790582E+04  0.14993821566E+04  0.91735941894E+02 0.  0.
        254    2    1    2    0    0 -0.14458365819E+03 -0.97426684657E+03  0.19540740641E+03  0.13409695630E+04  0.88877161964E+03 0.  0.
         23    2    4    4    0    0  0.14811423403E+03 -0.78006914468E+02  0.33248869611E+03  0.38358685545E+03  0.92559373412E+02 0.  0.
         23    2    4    4    0    0 -0.29269789223E+03 -0.89625993210E+03 -0.13708128970E+03  0.95738270754E+03  0.94002376146E+02 0.  0.
          1    1    3    3  502    0  0.15461659334E+03  0.81892296022E+03  0.94011534150E+03  0.12563271712E+04  0.00000000000E+00 0. -1.
         -1    1    3    3    0  502 -0.10032935149E+02  0.15534388635E+03  0.18666371674E+03  0.24305498547E+03  0.00000000000E+00 0.  1.
         13    1    5    5    0    0  0.12781917715E+02 -0.36190931206E+02  0.13635067980E+03  0.14164981046E+03  0.00000000000E+00 0. -1.
        -13    1    5    5    0    0  0.13533231632E+03 -0.41815983263E+02  0.19613801631E+03  0.24193704499E+03  0.00000000000E+00 0.  1.
          1    1    6    6  503    0 -0.28436109426E+03 -0.88355406693E+03 -0.12234501386E+03  0.93621435769E+03  0.00000000000E+00 0.  1.
         -1    1    6    6    0  503 -0.83367979670E+01 -0.12705865166E+02 -0.14736275846E+02  0.21168349859E+02  0.00000000000E+00 0. -1.
<mgrwt>
<rscale>  0 0.25138458E+04</rscale>
<asrwt>0</asrwt>
<pdfrwt beam="1">  1        2 0.32019524E+00 0.25138458E+04</pdfrwt>
<pdfrwt beam="2">  1       -2 0.11678194E+00 0.25138458E+04</pdfrwt>
<totfact> 0.30449639E+00</totfact>
</mgrwt>
</event>
<event>
12    3  0.4634846E-008  0.1294653E+04  0.7818608E-02  0.9033816E-01
         -2   -1    0    0    0  501 -0.00000000000E+00  0.00000000000E+00  0.48669130595E+03  0.48669130595E+03  0.00000000000E+00 0.  1.
          2   -1    0    0  501    0  0.00000000000E+00 -0.00000000000E+00 -0.86098039784E+03  0.86098039784E+03  0.00000000000E+00 0. -1.
         23    2    1    2    0    0  0.24460941370E+03 -0.17088989950E+03  0.43086684122E+02  0.31349437487E+03  0.85936823915E+02 0.  0.
        254    2    1    2    0    0 -0.24460941370E+03  0.17088989950E+03 -0.41737577601E+03  0.10341773289E+04  0.89793267354E+03 0.  0.
         23    2    4    4    0    0 -0.19437816551E+03 -0.23899015625E+03 -0.50872314202E+03  0.60158960492E+03  0.90618163291E+02 0.  0.
         23    2    4    4    0    0 -0.50231248194E+02  0.40988005575E+03  0.91347366004E+02  0.43258772399E+03  0.90900821072E+02 0.  0.
          1    1    3    3  502    0  0.17875962171E+03 -0.11114783823E+03 -0.85602848602E+01  0.21067065001E+03  0.00000000000E+00 0. -1.
         -1    1    3    3    0  502  0.65849791994E+02 -0.59742061270E+02  0.51646968982E+02  0.10282372487E+03  0.00000000000E+00 0.  1.
         13    1    5    5    0    0 -0.50009734424E+02 -0.28304978385E+02 -0.48274405062E+02  0.75050406545E+02  0.00000000000E+00 0.  1.
        -13    1    5    5    0    0 -0.14436843109E+03 -0.21068517786E+03 -0.46044873696E+03  0.52653919838E+03  0.00000000000E+00 0. -1.
          4    1    6    6  503    0 -0.59967921391E+01  0.59982945169E+00  0.11883944461E+02  0.13324768189E+02  0.00000000000E+00 0.  1.
         -4    1    6    6    0  503 -0.44234456055E+02  0.40928022630E+03  0.79463421543E+02  0.41926295580E+03  0.00000000000E+00 0. -1.
<mgrwt>
<rscale>  0 0.12946531E+04</rscale>
<asrwt>0</asrwt>
<pdfrwt beam="1">  1        2 0.13245852E+00 0.12946531E+04</pdfrwt>
<pdfrwt beam="2">  1       -2 0.74875587E-01 0.12946531E+04</pdfrwt>
<totfact> 0.49025703E+01</totfact>
</mgrwt>
</event>
<event>
12    3  0.4634846E-008  0.2529996E+04  0.7818608E-02  0.8392377E-01
          2   -1    0    0  501    0  0.00000000000E+00  0.00000000000E+00  0.30930398514E+04  0.30930398514E+04  0.00000000000E+00 0. -1.
         -2   -1    0    0    0  501 -0.00000000000E+00 -0.00000000000E+00 -0.51736143051E+03  0.51736143051E+03  0.00000000000E+00 0.  1.
         23    2    1    2    0    0 -0.69511440287E+03  0.38877774955E+03  0.22160042512E+04  0.23565353953E+04  0.90840829195E+02 0.  0.
        254    2    1    2    0    0  0.69511440287E+03 -0.38877774955E+03  0.35967416970E+03  0.12538658866E+04  0.89915626100E+03 0.  0.
         23    2    4    4    0    0  0.92515247877E+02 -0.45614112829E+03  0.42544666569E+03  0.63726952503E+03  0.92107449060E+02 0.  0.
         23    2    4    4    0    0  0.60259915499E+03  0.67363378745E+02 -0.65772495989E+02  0.61659636161E+03  0.90562053466E+02 0.  0.
          4    1    3    3  502    0 -0.63157741147E+03  0.35769482765E+03  0.19317174883E+04  0.20635813701E+04  0.00000000000E+00 0. -1.
         -4    1    3    3    0  502 -0.63536991402E+02  0.31082921898E+02  0.28428676295E+03  0.29295402523E+03  0.00000000000E+00 0.  1.
         13    1    5    5    0    0  0.10929399403E+03 -0.37496738055E+03  0.36607886756E+03  0.53531247966E+03  0.00000000000E+00 0.  1.
        -13    1    5    5    0    0 -0.16778746153E+02 -0.81173747739E+02  0.59367798132E+02  0.10195704536E+03  0.00000000000E+00 0. -1.
          3    1    6    6  503    0  0.23909469289E+03 -0.15789141536E+02 -0.38705783622E+02  0.24272145938E+03  0.00000000000E+00 0. -1.
         -3    1    6    6    0  503  0.36350446211E+03  0.83152520281E+02 -0.27066712367E+02  0.37387490223E+03  0.00000000000E+00 0.  1.
<mgrwt>
<rscale>  0 0.25299957E+04</rscale>
<asrwt>0</asrwt>
<pdfrwt beam="1">  1        2 0.47585227E+00 0.25299957E+04</pdfrwt>
<pdfrwt beam="2">  1       -2 0.79594068E-01 0.25299957E+04</pdfrwt>
<totfact> 0.18916593E+00</totfact>
</mgrwt>
</event>
<event>
12    3  0.4634846E-008  0.1337428E+04  0.7818608E-02  0.9000400E-01
          1   -1    0    0  501    0  0.00000000000E+00  0.00000000000E+00  0.85105713190E+03  0.85105713190E+03  0.00000000000E+00 0. -1.
         -1   -1    0    0    0  501 -0.00000000000E+00 -0.00000000000E+00 -0.52543913038E+03  0.52543913038E+03  0.00000000000E+00 0.  1.
         23    2    1    2    0    0 -0.24942229920E+03 -0.25686732050E+03  0.18796933084E+02  0.36943652542E+03  0.89093871500E+02 0.  0.
        254    2    1    2    0    0  0.24942229920E+03  0.25686732050E+03  0.30682106844E+03  0.10070597369E+04  0.88985270798E+03 0.  0.
         23    2    4    4    0    0  0.51695525091E+03  0.37722230945E+03  0.25983360524E+03  0.69703529343E+03  0.93836536993E+02 0.  0.
         23    2    4    4    0    0 -0.26753295171E+03 -0.12035498895E+03  0.46987463197E+02  0.31002444344E+03  0.88589673289E+02 0.  0.
          3    1    3    3  502    0 -0.42440007451E+02 -0.87106202347E+02 -0.20021232616E+02  0.98941874225E+02  0.00000000000E+00 0. -1.
         -3    1    3    3    0  502 -0.20698229175E+03 -0.16976111815E+03  0.38818165700E+02  0.27049465119E+03  0.00000000000E+00 0.  1.
         13    1    5    5    0    0  0.21586423304E+03  0.10407112880E+03  0.11120350266E+03  0.26418627133E+03  0.00000000000E+00 0.  1.
        -13    1    5    5    0    0  0.30109101787E+03  0.27315118066E+03  0.14863010258E+03  0.43284902210E+03  0.00000000000E+00 0. -1.
          4    1    6    6  503    0 -0.32392578095E+02 -0.20325229110E+02  0.38627418451E+02  0.54355050457E+02  0.00000000000E+00 0. -1.
         -4    1    6    6    0  503 -0.23514037361E+03 -0.10002975984E+03  0.83600447459E+01  0.25566939298E+03  0.00000000000E+00 0.  1.
<mgrwt>
<rscale>  0 0.13374285E+04</rscale>
<asrwt>0</asrwt>
<pdfrwt beam="1">  1        1 0.13093187E+00 0.13374285E+04</pdfrwt>
<pdfrwt beam="2">  1       -1 0.80836789E-01 0.13374285E+04</pdfrwt>
<totfact> 0.29885660E+01</totfact>
</mgrwt>
</event>
<event>
12    3  0.4634846E-008  0.1952670E+04  0.7818608E-02  0.8629074E-01
          2   -1    0    0  501    0  0.00000000000E+00  0.00000000000E+00  0.17290594696E+04  0.17290594696E+04  0.00000000000E+00 0. -1.
         -2   -1    0    0    0  501 -0.00000000000E+00 -0.00000000000E+00 -0.55129976118E+03  0.55129976118E+03  0.00000000000E+00 0.  1.
         23    2    1    2    0    0 -0.66561413496E+01  0.27665612502E+03 -0.37010964234E+03  0.47098536967E+03  0.90901899681E+02 0.  0.
        254    2    1    2    0    0  0.66561413496E+01 -0.27665612502E+03  0.15478693507E+04  0.18093738611E+04  0.89518228676E+03 0.  0.
         23    2    4    4    0    0 -0.11658232616E+03 -0.37806546027E+03  0.20720083586E+03  0.45618945914E+03  0.93014543117E+02 0.  0.
         23    2    4    4    0    0  0.12323846751E+03  0.10140933525E+03  0.13406685149E+04  0.13531844019E+04  0.90798599884E+02 0.  0.
          1    1    3    3  502    0  0.72183681666E+01 -0.22323928206E+01 -0.29981682971E+02  0.30919083597E+02  0.00000000000E+00 0. -1.
         -1    1    3    3    0  502 -0.13874509516E+02  0.27888851784E+03 -0.34012795936E+03  0.44006628608E+03  0.00000000000E+00 0.  1.
         13    1    5    5    0    0 -0.12887617582E+03 -0.32327694669E+03  0.16091072121E+03  0.38341793536E+03  0.00000000000E+00 0.  1.
        -13    1    5    5    0    0  0.12293849663E+02 -0.54788513587E+02  0.46290114642E+02  0.72771523786E+02  0.00000000000E+00 0. -1.
          3    1    6    6  503    0  0.98308319901E+02  0.39716023922E+02  0.58004226883E+03  0.58965322177E+03  0.00000000000E+00 0. -1.
         -3    1    6    6    0  503  0.24930147605E+02  0.61693311330E+02  0.76062624604E+03  0.76353118016E+03  0.00000000000E+00 0.  1.
<mgrwt>
<rscale>  0 0.19526700E+04</rscale>
<asrwt>0</asrwt>
<pdfrwt beam="1">  1        2 0.26600915E+00 0.19526700E+04</pdfrwt>
<pdfrwt beam="2">  1       -2 0.84815349E-01 0.19526700E+04</pdfrwt>
<totfact> 0.10669719E+01</totfact>
</mgrwt>
</event>
<event>
12    3  0.4634846E-008  0.1906613E+04  0.7818608E-02  0.8651572E-01
          2   -1    0    0  501    0  0.00000000000E+00  0.00000000000E+00  0.26432861638E+04  0.26432861638E+04  0.00000000000E+00 0. -1.
         -2   -1    0    0    0  501 -0.00000000000E+00 -0.00000000000E+00 -0.34381175469E+03  0.34381175469E+03  0.00000000000E+00 0.  1.
         23    2    1    2    0    0 -0.56762616656E+03 -0.31830516643E+03  0.14461420050E+04  0.15886183131E+04  0.94147767584E+02 0.  0.
        254    2    1    2    0    0  0.56762616656E+03  0.31830516643E+03  0.85333240414E+03  0.13984796054E+04  0.89668911607E+03 0.  0.
         23    2    4    4    0    0  0.75098517815E+03  0.41071910499E+02  0.64315102935E+03  0.99378328804E+03  0.91084232441E+02 0.  0.
         23    2    4    4    0    0 -0.18335901158E+03  0.27723325593E+03  0.21018137479E+03  0.40469631738E+03  0.95520121819E+02 0.  0.
          4    1    3    3  502    0 -0.41909694129E+03 -0.23630036362E+03  0.96191277895E+03  0.10755260584E+04  0.00000000000E+00 0. -1.
         -4    1    3    3    0  502 -0.14852922527E+03 -0.82004802814E+02  0.48422922603E+03  0.51309225465E+03  0.00000000000E+00 0.  1.
         13    1    5    5    0    0  0.17320472343E+03 -0.27642468493E+02  0.16194740231E+03  0.23872776000E+03  0.00000000000E+00 0.  1.
        -13    1    5    5    0    0  0.57778045472E+03  0.68714378992E+02  0.48120362705E+03  0.75505552803E+03  0.00000000000E+00 0. -1.
          2    1    6    6  503    0 -0.59401503262E+02  0.15489073607E+03  0.13945378773E+03  0.21671879850E+03  0.00000000000E+00 0.  1.
         -2    1    6    6    0  503 -0.12395750832E+03  0.12234251986E+03  0.70727587060E+02  0.18797751888E+03  0.00000000000E+00 0. -1.
<mgrwt>
<rscale>  0 0.19066126E+04</rscale>
<asrwt>0</asrwt>
<pdfrwt beam="1">  1        2 0.40665940E+00 0.19066126E+04</pdfrwt>
<pdfrwt beam="2">  1       -2 0.52894118E-01 0.19066126E+04</pdfrwt>
<totfact> 0.90671145E+00</totfact>
</mgrwt>
</event>
<event>
12    3  0.4634846E-008  0.1439873E+04  0.7818608E-02  0.8925452E-01
         -2   -1    0    0    0  501 -0.00000000000E+00  0.00000000000E+00  0.61209483774E+03  0.61209483774E+03  0.00000000000E+00 0.  1.
          2   -1    0    0  501    0  0.00000000000E+00 -0.00000000000E+00 -0.84677808627E+03  0.84677808627E+03  0.00000000000E+00 0. -1.
         23    2    1    2    0    0  0.12516270251E+02 -0.40672086302E+03 -0.20874809665E+03  0.46733742949E+03  0.96176856408E+02 0.  0.
        254    2    1    2    0    0 -0.12516270251E+02  0.40672086302E+03 -0.25935151876E+02  0.99153549452E+03  0.90382049509E+03 0.  0.
         23    2    4    4    0    0  0.40009939972E+03  0.38325025210E+03  0.40138186617E+02  0.56273927096E+03  0.90022928536E+02 0.  0.
         23    2    4    4    0    0 -0.41261566997E+03  0.23470610915E+02 -0.66073338494E+02  0.42879622356E+03  0.93262825386E+02 0.  0.
          2    1    3    3  502    0 -0.82881052577E+01 -0.15572003987E+02 -0.34248833346E+02  0.38524830727E+02  0.00000000000E+00 0.  1.
         -2    1    3    3    0  502  0.20804375509E+02 -0.39114885903E+03 -0.17449926331E+03  0.42881259876E+03  0.00000000000E+00 0. -1.
         13    1    5    5    0    0  0.21242556504E+03  0.15340456598E+03 -0.78890652507E+01  0.26214465262E+03  0.00000000000E+00 0. -1.
        -13    1    5    5    0    0  0.18767383467E+03  0.22984568612E+03  0.48027251868E+02  0.30059461834E+03  0.00000000000E+00 0.  1.
          1    1    6    6  503    0 -0.16719297307E+03  0.24762859765E+02  0.16575094314E+02  0.16982762797E+03  0.00000000000E+00 0. -1.
         -1    1    6    6    0  503 -0.24542269689E+03 -0.12922488491E+01 -0.82648432808E+02  0.25896859559E+03  0.00000000000E+00 0.  1.
<mgrwt>
<rscale>  0 0.14398729E+04</rscale>
<asrwt>0</asrwt>
<pdfrwt beam="1">  1        2 0.13027355E+00 0.14398729E+04</pdfrwt>
<pdfrwt beam="2">  1       -2 0.94168437E-01 0.14398729E+04</pdfrwt>
<totfact> 0.29464504E+01</totfact>
</mgrwt>
</event>
<event>
12    3  0.4634846E-008  0.1263572E+04  0.7818608E-02  0.9058962E-01
         -1   -1    0    0    0  501 -0.00000000000E+00  0.00000000000E+00  0.12510982404E+04  0.12510982404E+04  0.00000000000E+00 0.  1.
          1   -1    0    0  501    0  0.00000000000E+00 -0.00000000000E+00 -0.31904255553E+03  0.31904255553E+03  0.00000000000E+00 0. -1.
         23    2    1    2    0    0  0.33755863747E+02  0.36836117371E+03  0.30357558978E+03  0.48698932708E+03  0.90393878916E+02 0.  0.
        254    2    1    2    0    0 -0.33755863747E+02 -0.36836117371E+03  0.62848009505E+03  0.10831514688E+04  0.80087481038E+03 0.  0.
         23    2    4    4    0    0  0.29470339399E+03  0.11861488600E+02  0.56013351335E+02  0.31528337744E+03  0.96308500258E+02 0.  0.
         23    2    4    4    0    0 -0.32845925774E+03 -0.38022266231E+03  0.57246674372E+03  0.76786809138E+03  0.97203272391E+02 0.  0.
          2    1    3    3  502    0  0.18120444743E+02  0.34930079663E+03  0.30229966482E+03  0.46230345488E+03  0.00000000000E+00 0. -1.
         -2    1    3    3    0  502  0.15635419005E+02  0.19060377075E+02  0.12759249635E+01  0.24685872198E+02  0.00000000000E+00 0.  1.
         13    1    5    5    0    0  0.37415979497E+02  0.13411784951E+01 -0.25370528231E+02  0.45226297485E+02  0.00000000000E+00 0. -1.
        -13    1    5    5    0    0  0.25728741450E+03  0.10520310105E+02  0.81383879566E+02  0.27005707996E+03  0.00000000000E+00 0.  1.
          2    1    6    6  503    0 -0.11602055072E+03 -0.99229792165E+02  0.23368769092E+03  0.27913662736E+03  0.00000000000E+00 0. -1.
         -2    1    6    6    0  503 -0.21243870702E+03 -0.28099287014E+03  0.33877905280E+03  0.48873146402E+03  0.00000000000E+00 0.  1.
<mgrwt>
<rscale>  0 0.12635720E+04</rscale>
<asrwt>0</asrwt>
<pdfrwt beam="1">  1        1 0.49083471E-01 0.12635720E+04</pdfrwt>
<pdfrwt beam="2">  1       -1 0.19247665E+00 0.12635720E+04</pdfrwt>
<totfact> 0.13529628E+01</totfact>
</mgrwt>
</event>
<event>
12    3  0.4634846E-008  0.4000366E+04  0.7818608E-02  0.8004473E-01
          2   -1    0    0  501    0  0.00000000000E+00  0.00000000000E+00  0.45670361459E+04  0.45670361459E+04  0.00000000000E+00 0. -1.
         -2   -1    0    0    0  501 -0.00000000000E+00 -0.00000000000E+00 -0.87600184526E+03  0.87600184526E+03  0.00000000000E+00 0.  1.
         23    2    1    2    0    0 -0.12728235968E+04 -0.90413243978E+01  0.36221616502E+04  0.38404265873E+04  0.93057497557E+02 0.  0.
        254    2    1    2    0    0  0.12728235968E+04  0.90413243978E+01  0.68872650436E+02  0.16026114039E+04  0.97131777278E+03 0.  0.
         23    2    4    4    0    0  0.78643337980E+03  0.41175802941E+03 -0.19220736276E+03  0.91321351072E+03  0.94832010481E+02 0.  0.
         23    2    4    4    0    0  0.48639021703E+03 -0.40271670501E+03  0.26108001320E+03  0.68939789318E+03  0.91381038006E+02 0.  0.
          2    1    3    3  502    0 -0.12161702444E+04 -0.26790736414E+02  0.34732873378E+04  0.36801511841E+04  0.00000000000E+00 0. -1.
         -2    1    3    3    0  502 -0.56653352472E+02  0.17749412016E+02  0.14887431237E+03  0.16027540316E+03  0.00000000000E+00 0.  1.
         13    1    5    5    0    0  0.66750898938E+02  0.87408616263E+01 -0.23420859811E+02  0.71278480941E+02  0.00000000000E+00 0. -1.
        -13    1    5    5    0    0  0.71968248086E+03  0.40301716778E+03 -0.16878650295E+03  0.84193502978E+03  0.00000000000E+00 0.  1.
          1    1    6    6  503    0  0.27004715843E+03 -0.16445271726E+03  0.13321070678E+03  0.34309657007E+03  0.00000000000E+00 0. -1.
         -1    1    6    6    0  503  0.21634305859E+03 -0.23826398775E+03  0.12786930642E+03  0.34630132311E+03  0.00000000000E+00 0.  1.
<mgrwt>
<rscale>  0 0.40003660E+04</rscale>
<asrwt>0</asrwt>
<pdfrwt beam="1">  1        2 0.70262093E+00 0.40003660E+04</pdfrwt>
<pdfrwt beam="2">  1       -2 0.13476952E+00 0.40003660E+04</pdfrwt>
<totfact> 0.32744214E-02</totfact>
</mgrwt>
</event>
<event>
12    3  0.4634846E-008  0.1581246E+04  0.7818608E-02  0.8832153E-01
          2   -1    0    0  501    0  0.00000000000E+00  0.00000000000E+00  0.16301997429E+04  0.16301997429E+04  0.00000000000E+00 0. -1.
         -2   -1    0    0    0  501 -0.00000000000E+00 -0.00000000000E+00 -0.38344042202E+03  0.38344042202E+03  0.00000000000E+00 0.  1.
         23    2    1    2    0    0  0.13687649122E+03 -0.18375600622E+03  0.10369670107E+04  0.10658528919E+04  0.90776440824E+02 0.  0.
        254    2    1    2    0    0 -0.13687649122E+03  0.18375600622E+03  0.20979231021E+03  0.94778727305E+03  0.89542529440E+03 0.  0.
         23    2    4    4    0    0  0.96883075013E+02  0.36712868003E+03  0.41962122103E+03  0.57310407567E+03  0.90534603870E+02 0.  0.
         23    2    4    4    0    0 -0.23375956623E+03 -0.18337267380E+03 -0.20982891081E+03  0.37468319737E+03  0.89945840794E+02 0.  0.
          4    1    3    3  502    0  0.13014631448E+03 -0.10770107033E+03  0.76049983592E+03  0.77903631761E+03  0.00000000000E+00 0. -1.
         -4    1    3    3    0  502  0.67301767360E+01 -0.76054935889E+02  0.27646717474E+03  0.28681657424E+03  0.00000000000E+00 0.  1.
         13    1    5    5    0    0  0.10378111788E+02  0.21124803902E+03  0.24298398344E+03  0.32214073850E+03  0.00000000000E+00 0. -1.
        -13    1    5    5    0    0  0.86504963225E+02  0.15588064101E+03  0.17663723759E+03  0.25096333718E+03  0.00000000000E+00 0.  1.
          2    1    6    6  503    0 -0.10221676432E+03 -0.13438288649E+03 -0.13094528787E+03  0.21366725418E+03  0.00000000000E+00 0. -1.
         -2    1    6    6    0  503 -0.13154280191E+03 -0.48989787311E+02 -0.78883622942E+02  0.16101594320E+03  0.00000000000E+00 0.  1.
<mgrwt>
<rscale>  0 0.15812457E+04</rscale>
<asrwt>0</asrwt>
<pdfrwt beam="1">  1        2 0.25079996E+00 0.15812457E+04</pdfrwt>
<pdfrwt beam="2">  1       -2 0.58990835E-01 0.15812457E+04</pdfrwt>
<totfact> 0.27648221E+01</totfact>
</mgrwt>
</event>
<event>
12    3  0.4634846E-008  0.2247425E+04  0.7818608E-02  0.8498944E-01
         -1   -1    0    0    0  501 -0.00000000000E+00  0.00000000000E+00  0.64997612443E+03  0.64997612443E+03  0.00000000000E+00 0.  1.
          1   -1    0    0  501    0  0.00000000000E+00 -0.00000000000E+00 -0.19427319731E+04  0.19427319731E+04  0.00000000000E+00 0. -1.
         23    2    1    2    0    0  0.34892103016E+03  0.75925697794E+03 -0.10465965461E+04  0.13423549215E+04  0.91298198039E+02 0.  0.
        254    2    1    2    0    0 -0.34892103016E+03 -0.75925697794E+03 -0.24615930257E+03  0.12503531761E+04  0.89697916303E+03 0.  0.
         23    2    4    4    0    0  0.21343750153E+03  0.45697894630E+02 -0.82310429871E+02  0.25071124424E+03  0.91854539829E+02 0.  0.
         23    2    4    4    0    0 -0.56235853169E+03 -0.80495487257E+03 -0.16384887270E+03  0.99964193187E+03  0.90763835418E+02 0.  0.
          3    1    3    3  502    0  0.27966879135E+03  0.63149445121E+03 -0.80763212889E+03  0.10626709417E+04  0.00000000000E+00 0. -1.
         -3    1    3    3    0  502  0.69252238809E+02  0.12776252673E+03 -0.23896441725E+03  0.27968397975E+03  0.00000000000E+00 0.  1.
         13    1    5    5    0    0  0.51089669712E+02 -0.14239807777E+02  0.10902094206E+02  0.54145933688E+02  0.00000000000E+00 0.  1.
        -13    1    5    5    0    0  0.16234783182E+03  0.59937702406E+02 -0.93212524077E+02  0.19656531055E+03  0.00000000000E+00 0. -1.
          4    1    6    6  503    0 -0.19799244795E+02 -0.81265839250E+01  0.19194562588E+01  0.21488037907E+02  0.00000000000E+00 0. -1.
         -4    1    6    6    0  503 -0.54255928690E+03 -0.79682828865E+03 -0.16576832895E+03  0.97815389396E+03  0.00000000000E+00 0.  1.
<mgrwt>
<rscale>  0 0.22474247E+04</rscale>
<asrwt>0</asrwt>
<pdfrwt beam="1">  1        1 0.29888184E+00 0.22474247E+04</pdfrwt>
<pdfrwt beam="2">  1       -1 0.99996327E-01 0.22474247E+04</pdfrwt>
<totfact> 0.28202070E+00</totfact>
</mgrwt>
</event>
<event>
12    3  0.4634846E-008  0.1422678E+04  0.7818608E-02  0.8937564E-01
         -2   -1    0    0    0  501 -0.00000000000E+00  0.00000000000E+00  0.16606362510E+03  0.16606362510E+03  0.00000000000E+00 0.  1.
          2   -1    0    0  501    0  0.00000000000E+00 -0.00000000000E+00 -0.30470458302E+04  0.30470458302E+04  0.00000000000E+00 0. -1.
         23    2    1    2    0    0  0.12781411142E+03 -0.85280655324E+01  0.34805719891E+02  0.16058231427E+03  0.90366290952E+02 0.  0.
        254    2    1    2    0    0 -0.12781411142E+03  0.85280655324E+01 -0.29157879250E+04  0.30525271410E+04  0.89425586282E+03 0.  0.
         23    2    4    4    0    0  0.11012246840E+03  0.40632430314E+03 -0.14331758246E+04  0.14965187098E+04  0.91372354370E+02 0.  0.
         23    2    4    4    0    0 -0.23793657981E+03 -0.39779623761E+03 -0.14826121004E+04  0.15560084312E+04  0.90376629761E+02 0.  0.
          4    1    3    3  502    0  0.34875721012E+02 -0.31144383410E+02 -0.19419894136E+02  0.50630236246E+02  0.00000000000E+00 0. -1.
         -4    1    3    3    0  502  0.92938390406E+02  0.22616317878E+02  0.54225614026E+02  0.10995207803E+03  0.00000000000E+00 0.  1.
         13    1    5    5    0    0 -0.54941266043E+01  0.28315967066E+02 -0.47588183434E+02  0.55647233719E+02  0.00000000000E+00 0.  1.
        -13    1    5    5    0    0  0.11561659500E+03  0.37800833607E+03 -0.13855876412E+04  0.14408714761E+04  0.00000000000E+00 0. -1.
          2    1    6    6  503    0 -0.21931520061E+03 -0.39267922529E+03 -0.14494820469E+04  0.15176608104E+04  0.00000000000E+00 0. -1.
         -2    1    6    6    0  503 -0.18621379206E+02 -0.51170123183E+01 -0.33130053475E+02  0.38347620811E+02  0.00000000000E+00 0.  1.
<mgrwt>
<rscale>  0 0.14226784E+04</rscale>
<asrwt>0</asrwt>
<pdfrwt beam="1">  1        2 0.46877628E+00 0.14226784E+04</pdfrwt>
<pdfrwt beam="2">  1       -2 0.25548250E-01 0.14226784E+04</pdfrwt>
<totfact> 0.21997883E+01</totfact>
</mgrwt>
</event>
<event>
12    3  0.4634846E-008  0.1700400E+04  0.7818608E-02  0.8761136E-01
          2   -1    0    0  501    0  0.00000000000E+00  0.00000000000E+00  0.15600524767E+04  0.15600524767E+04  0.00000000000E+00 0. -1.
         -2   -1    0    0    0  501 -0.00000000000E+00 -0.00000000000E+00 -0.46334352731E+03  0.46334352731E+03  0.00000000000E+00 0.  1.
         23    2    1    2    0    0  0.24402162480E+03  0.47276690931E+03  0.44980576940E+02  0.53994488759E+03  0.80387346156E+02 0.  0.
        254    2    1    2    0    0 -0.24402162480E+03 -0.47276690931E+03  0.10517283725E+04  0.14834511164E+04  0.90079939027E+03 0.  0.
         23    2    4    4    0    0 -0.54887053504E+03 -0.46486021168E+03  0.78442205686E+03  0.10681638687E+04  0.91116444137E+02 0.  0.
         23    2    4    4    0    0  0.30484891024E+03 -0.79066976267E+01  0.26730631561E+03  0.41528724778E+03  0.89529089479E+02 0.  0.
          3    1    3    3  502    0  0.43233102081E+02  0.64196746146E+02 -0.20377556852E+02  0.80034793399E+02  0.00000000000E+00 0. -1.
         -3    1    3    3    0  502  0.20078852272E+03  0.40857016316E+03  0.65358133792E+02  0.45991009419E+03  0.00000000000E+00 0.  1.
         13    1    5    5    0    0 -0.26646429822E+03 -0.19465461911E+03  0.30241019448E+03  0.44759978630E+03  0.00000000000E+00 0.  1.
        -13    1    5    5    0    0 -0.28240623682E+03 -0.27020559257E+03  0.48201186237E+03  0.62056408236E+03  0.00000000000E+00 0. -1.
          4    1    6    6  503    0  0.11226227124E+03  0.35665405057E+02  0.74881272778E+02  0.13957809167E+03  0.00000000000E+00 0. -1.
         -4    1    6    6    0  503  0.19258663899E+03 -0.43572102683E+02  0.19242504283E+03  0.27570915611E+03  0.00000000000E+00 0.  1.
<mgrwt>
<rscale>  0 0.17004002E+04</rscale>
<asrwt>0</asrwt>
<pdfrwt beam="1">  1        2 0.24000807E+00 0.17004002E+04</pdfrwt>
<pdfrwt beam="2">  1       -2 0.71283620E-01 0.17004002E+04</pdfrwt>
<totfact> 0.19957697E+01</totfact>
</mgrwt>
</event>
<event>
12    3  0.4634846E-008  0.1483499E+04  0.7818608E-02  0.8895501E-01
         -2   -1    0    0    0  501 -0.00000000000E+00  0.00000000000E+00  0.39521440026E+03  0.39521440026E+03  0.00000000000E+00 0. -1.
          2   -1    0    0  501    0  0.00000000000E+00 -0.00000000000E+00 -0.13921361690E+04  0.13921361690E+04  0.00000000000E+00 0.  1.
         23    2    1    2    0    0 -0.45271005000E+03  0.14459562855E+02 -0.22223131232E+03  0.51254993332E+03  0.90361549609E+02 0.  0.
        254    2    1    2    0    0  0.45271005000E+03 -0.14459562855E+02 -0.77469045641E+03  0.12748006359E+04  0.90543685023E+03 0.  0.
         23    2    4    4    0    0  0.45154951415E+03 -0.38854739483E+03 -0.33521117112E+03  0.69046591445E+03  0.97522346190E+02 0.  0.
         23    2    4    4    0    0  0.11605358444E+01  0.37408783197E+03 -0.43947928528E+03  0.58433472147E+03  0.91443816912E+02 0.  0.
          3    1    3    3  502    0 -0.12405366638E+03  0.40441361465E+02 -0.43516621541E+02  0.13754458262E+03  0.00000000000E+00 0. -1.
         -3    1    3    3    0  502 -0.32865638362E+03 -0.25981798610E+02 -0.17871469078E+03  0.37500535070E+03  0.00000000000E+00 0.  1.
         13    1    5    5    0    0  0.10983149995E+03 -0.13312820641E+03 -0.13542854805E+03  0.21937859820E+03  0.00000000000E+00 0.  1.
        -13    1    5    5    0    0  0.34171801420E+03 -0.25541918842E+03 -0.19978262308E+03  0.47108731624E+03  0.00000000000E+00 0. -1.
          2    1    6    6  503    0 -0.93226268270E+01  0.17727398368E+03 -0.27652223465E+03  0.32859933493E+03  0.00000000000E+00 0. -1.
         -2    1    6    6    0  503  0.10483162671E+02  0.19681384829E+03 -0.16295705064E+03  0.25573538654E+03  0.00000000000E+00 0.  1.
<mgrwt>
<rscale>  0 0.14834989E+04</rscale>
<asrwt>0</asrwt>
<pdfrwt beam="1">  1        2 0.21417480E+00 0.14834989E+04</pdfrwt>
<pdfrwt beam="2">  1       -2 0.60802215E-01 0.14834989E+04</pdfrwt>
<totfact> 0.35613500E+01</totfact>
</mgrwt>
</event>
<event>
12    3  0.4634846E-008  0.1803439E+04  0.7818608E-02  0.8704473E-01
          2   -1    0    0  501    0  0.00000000000E+00  0.00000000000E+00  0.91691636451E+03  0.91691636451E+03  0.00000000000E+00 0. -1.
         -2   -1    0    0    0  501 -0.00000000000E+00 -0.00000000000E+00 -0.88677455994E+03  0.88677455994E+03  0.00000000000E+00 0.  1.
         23    2    1    2    0    0  0.36062813654E+03  0.55862548172E+03  0.25943374633E+02  0.67193190766E+03  0.93297096202E+02 0.  0.
        254    2    1    2    0    0 -0.36062813654E+03 -0.55862548172E+03  0.41984299372E+01  0.11317590168E+04  0.91583064132E+03 0.  0.
         23    2    4    4    0    0 -0.42111877434E+03 -0.76932579857E+03 -0.66369439952E+02  0.88434504216E+03  0.91967627955E+02 0.  0.
         23    2    4    4    0    0  0.60490637801E+02  0.21070031685E+03  0.70567869889E+02  0.24741397463E+03  0.90443959427E+02 0.  0.
          4    1    3    3  502    0  0.34717568519E+03  0.51036611295E+03  0.40781957437E+01  0.61726911256E+03  0.00000000000E+00 0.  1.
         -4    1    3    3    0  502  0.13452451352E+02  0.48259368763E+02  0.21865178889E+02  0.54662795104E+02  0.00000000000E+00 0. -1.
         13    1    5    5    0    0 -0.17721129402E+03 -0.41732490442E+03 -0.43832541731E+02  0.45550544486E+03  0.00000000000E+00 0. -1.
        -13    1    5    5    0    0 -0.24390748032E+03 -0.35200089415E+03 -0.22536898222E+02  0.42883959731E+03  0.00000000000E+00 0.  1.
          3    1    6    6  503    0  0.64983054523E+02  0.16006164729E+03  0.87739907086E+02  0.19375453440E+03  0.00000000000E+00 0. -1.
         -3    1    6    6    0  503 -0.44924167216E+01  0.50638669567E+02 -0.17172037197E+02  0.53659440223E+02  0.00000000000E+00 0.  1.
<mgrwt>
<rscale>  0 0.18034391E+04</rscale>
<asrwt>0</asrwt>
<pdfrwt beam="1">  1        2 0.14106406E+00 0.18034391E+04</pdfrwt>
<pdfrwt beam="2">  1       -2 0.13642686E+00 0.18034391E+04</pdfrwt>
<totfact> 0.10350848E+01</totfact>
</mgrwt>
</event>
<event>
12    3  0.4634846E-008  0.1370175E+04  0.7818608E-02  0.8975695E-01
          1   -1    0    0  501    0  0.00000000000E+00  0.00000000000E+00  0.62248863477E+03  0.62248863477E+03  0.00000000000E+00 0. -1.
         -1   -1    0    0    0  501 -0.00000000000E+00 -0.00000000000E+00 -0.75398156823E+03  0.75398156823E+03  0.00000000000E+00 0.  1.
         23    2    1    2    0    0  0.35510471723E+03  0.10648712499E+03  0.82150848755E+02  0.39058376029E+03  0.91477012762E+02 0.  0.
        254    2    1    2    0    0 -0.35510471723E+03 -0.10648712499E+03 -0.21364378221E+03  0.98588644271E+03  0.88819454190E+03 0.  0.
         23    2    4    4    0    0  0.12272937961E+03 -0.33041317443E+03  0.85419653956E+02  0.37396800332E+03  0.91215041358E+02 0.  0.
         23    2    4    4    0    0 -0.47783409684E+03  0.22392604944E+03 -0.29906343617E+03  0.61191843939E+03  0.80851332052E+02 0.  0.
          3    1    3    3  502    0  0.21181420385E+03  0.56529070807E+02  0.25916576646E+01  0.21924303749E+03  0.00000000000E+00 0. -1.
         -3    1    3    3    0  502  0.14329051338E+03  0.49958054186E+02  0.79559191091E+02  0.17134072280E+03  0.00000000000E+00 0.  1.
         13    1    5    5    0    0  0.80223553945E+02 -0.27957429873E+03  0.39918130861E+02  0.29358314715E+03  0.00000000000E+00 0. -1.
        -13    1    5    5    0    0  0.42505825664E+02 -0.50838875697E+02  0.45501523095E+02  0.80384856170E+02  0.00000000000E+00 0.  1.
          3    1    6    6  503    0 -0.14702146203E+03  0.36259256754E+02 -0.11013381692E+03  0.18724182659E+03  0.00000000000E+00 0. -1.
         -3    1    6    6    0  503 -0.33081263481E+03  0.18766679268E+03 -0.18892961925E+03  0.42467661280E+03  0.00000000000E+00 0.  1.
<mgrwt>
<rscale>  0 0.13701751E+04</rscale>
<asrwt>0</asrwt>
<pdfrwt beam="1">  1        1 0.95767482E-01 0.13701751E+04</pdfrwt>
<pdfrwt beam="2">  1       -1 0.11599716E+00 0.13701751E+04</pdfrwt>
<totfact> 0.21337043E+01</totfact>
</mgrwt>
</event>
<event>
12    3  0.4634846E-008  0.2074306E+04  0.7818608E-02  0.8572647E-01
         -1   -1    0    0    0  501 -0.00000000000E+00  0.00000000000E+00  0.83200003298E+03  0.83200003298E+03  0.00000000000E+00 0.  1.
          1   -1    0    0  501    0  0.00000000000E+00 -0.00000000000E+00 -0.12928924862E+04  0.12928924862E+04  0.00000000000E+00 0. -1.
         23    2    1    2    0    0  0.64374449107E+03 -0.30552974450E+03 -0.65063567515E+03  0.96969048466E+03  0.96007602314E+02 0.  0.
        254    2    1    2    0    0 -0.64374449107E+03  0.30552974450E+03  0.18974322196E+03  0.11552020345E+04  0.88923217197E+03 0.  0.
         23    2    4    4    0    0 -0.50902456777E+02  0.23024333787E+03 -0.28932474257E+03  0.38414199108E+03  0.90847167852E+02 0.  0.
         23    2    4    4    0    0 -0.59284203430E+03  0.75286406628E+02  0.47906796453E+03  0.77106004342E+03  0.88869315724E+02 0.  0.
          3    1    3    3  502    0  0.63055475847E+03 -0.31001229354E+03 -0.62442218590E+03  0.94000531478E+03  0.00000000000E+00 0. -1.
         -3    1    3    3    0  502  0.13189732605E+02  0.44825490379E+01 -0.26213489256E+02  0.29685169884E+02  0.00000000000E+00 0.  1.
         13    1    5    5    0    0 -0.28445648054E+02  0.15121224028E+03 -0.24879563151E+03  0.29252959297E+03  0.00000000000E+00 0. -1.
        -13    1    5    5    0    0 -0.22456808723E+02  0.79031097585E+02 -0.40529111058E+02  0.91612398106E+02  0.00000000000E+00 0.  1.
          1    1    6    6  503    0 -0.12510508792E+03  0.50112248305E+02  0.12589036406E+03  0.18442045499E+03  0.00000000000E+00 0. -1.
         -1    1    6    6    0  503 -0.46773694637E+03  0.25174158322E+02  0.35317760047E+03  0.58663958844E+03  0.00000000000E+00 0.  1.
<mgrwt>
<rscale>  0 0.20743062E+04</rscale>
<asrwt>0</asrwt>
<pdfrwt beam="1">  1        1 0.19890653E+00 0.20743062E+04</pdfrwt>
<pdfrwt beam="2">  1       -1 0.12800001E+00 0.20743062E+04</pdfrwt>
<totfact> 0.44491253E+00</totfact>
</mgrwt>
</event>
<event>
12    3  0.4634846E-008  0.1533764E+04  0.7818608E-02  0.8862306E-01
          1   -1    0    0  501    0  0.00000000000E+00  0.00000000000E+00  0.27728505863E+04  0.27728505863E+04  0.00000000000E+00 0. -1.
         -1   -1    0    0    0  501 -0.00000000000E+00 -0.00000000000E+00 -0.21209505589E+03  0.21209505589E+03  0.00000000000E+00 0.  1.
         23    2    1    2    0    0 -0.43632792314E+03  0.19801908043E+03  0.57693753671E+03  0.75502669430E+03  0.87262678835E+02 0.  0.
        254    2    1    2    0    0  0.43632792314E+03 -0.19801908043E+03  0.19838179937E+04  0.22299189479E+04  0.89856055404E+03 0.  0.
         23    2    4    4    0    0  0.37519024409E+03 -0.41959931242E+03  0.61327232832E+03  0.83737201312E+03  0.90871543524E+02 0.  0.
         23    2    4    4    0    0  0.61137679044E+02  0.22158023199E+03  0.13705456654E+04  0.13925469347E+04  0.89196018023E+02 0.  0.
          2    1    3    3  502    0 -0.64656587714E+02 -0.13896533095E+01  0.89762416450E+02  0.11063316355E+03  0.00000000000E+00 0. -1.
         -2    1    3    3    0  502 -0.37167133542E+03  0.19940873374E+03  0.48717512026E+03  0.64439353074E+03  0.00000000000E+00 0.  1.
         13    1    5    5    0    0  0.45040558468E+02 -0.10304063804E+03  0.11009286409E+03  0.15737364365E+03  0.00000000000E+00 0. -1.
        -13    1    5    5    0    0  0.33014968562E+03 -0.31655867438E+03  0.50317946424E+03  0.67999836947E+03  0.00000000000E+00 0.  1.
          1    1    6    6  503    0  0.47271755247E+02  0.11050862361E+03  0.47231091314E+03  0.48736472318E+03  0.00000000000E+00 0. -1.
         -1    1    6    6    0  503  0.13865923796E+02  0.11107160839E+03  0.89823475222E+03  0.90518221156E+03  0.00000000000E+00 0.  1.
<mgrwt>
<rscale>  0 0.15337639E+04</rscale>
<asrwt>0</asrwt>
<pdfrwt beam="1">  1        1 0.42659237E+00 0.15337639E+04</pdfrwt>
<pdfrwt beam="2">  1       -1 0.32630011E-01 0.15337639E+04</pdfrwt>
<totfact> 0.74231720E+00</totfact>
</mgrwt>
</event>
<event>
12    3  0.4634846E-008  0.3445938E+04  0.7818608E-02  0.8126723E-01
         -1   -1    0    0    0  501 -0.00000000000E+00  0.00000000000E+00  0.18174802134E+04  0.18174802134E+04  0.00000000000E+00 0.  1.
          1   -1    0    0  501    0  0.00000000000E+00 -0.00000000000E+00 -0.16333723113E+04  0.16333723113E+04  0.00000000000E+00 0. -1.
         23    2    1    2    0    0 -0.13062583751E+04 -0.20446731964E+03  0.99647209720E+03  0.16582206267E+04  0.92850304676E+02 0.  0.
        254    2    1    2    0    0  0.13062583751E+04  0.20446731964E+03 -0.81236419513E+03  0.17926318980E+04  0.89748298523E+03 0.  0.
         23    2    4    4    0    0  0.10844650397E+04  0.47500174508E+03 -0.79801235623E+03  0.14308375059E+04  0.93707883210E+02 0.  0.
         23    2    4    4    0    0  0.22179333538E+03 -0.27053442545E+03 -0.14351838897E+02  0.36179439207E+03  0.91148493600E+02 0.  0.
          4    1    3    3  502    0 -0.40923104887E+03 -0.72558672121E+02  0.26116445540E+03  0.49085811089E+03  0.00000000000E+00 0. -1.
         -4    1    3    3    0  502 -0.89702732622E+03 -0.13190864752E+03  0.73530764180E+03  0.11673625158E+04  0.00000000000E+00 0.  1.
         13    1    5    5    0    0  0.26951840301E+03  0.13378862345E+03 -0.24982155805E+03  0.39108870629E+03  0.00000000000E+00 0.  1.
        -13    1    5    5    0    0  0.81494663670E+03  0.34121312163E+03 -0.54819079818E+03  0.10397487996E+04  0.00000000000E+00 0. -1.
          3    1    6    6  503    0  0.72618111696E+02 -0.15828218644E+03 -0.17948792451E+02  0.17506798634E+03  0.00000000000E+00 0. -1.
         -3    1    6    6    0  503  0.14917522368E+03 -0.11225223900E+03  0.35969535542E+01  0.18672640573E+03  0.00000000000E+00 0.  1.
<mgrwt>
<rscale>  0 0.34459378E+04</rscale>
<asrwt>0</asrwt>
<pdfrwt beam="1">  1        1 0.25128805E+00 0.34459378E+04</pdfrwt>
<pdfrwt beam="2">  1       -1 0.27961234E+00 0.34459378E+04</pdfrwt>
<totfact> 0.19418813E-01</totfact>
</mgrwt>
</event>
<event>
12    3  0.4634846E-008  0.1610719E+04  0.7818608E-02  0.8813990E-01
         -2   -1    0    0    0  501 -0.00000000000E+00  0.00000000000E+00  0.17462577439E+03  0.17462577439E+03  0.00000000000E+00 0.  1.
          2   -1    0    0  501    0  0.00000000000E+00 -0.00000000000E+00 -0.37142507546E+04  0.37142507546E+04  0.00000000000E+00 0. -1.
         23    2    1    2    0    0  0.26873664020E+03 -0.67949774474E+02 -0.23575695882E+04  0.23755185168E+04  0.90096097637E+02 0.  0.
        254    2    1    2    0    0 -0.26873664020E+03  0.67949774474E+02 -0.11820553919E+04  0.15133580121E+04  0.90341627703E+03 0.  0.
         23    2    4    4    0    0 -0.45933265304E+03 -0.17332539768E+03 -0.32047647448E+03  0.59392667854E+03  0.94950245722E+02 0.  0.
         23    2    4    4    0    0  0.19059601284E+03  0.24127517215E+03 -0.86157891746E+03  0.91943133357E+03  0.92169394802E+02 0.  0.
          1    1    3    3  502    0  0.15894284778E+03 -0.16340478478E+02 -0.10175522251E+04  0.10300205681E+04  0.00000000000E+00 0. -1.
         -1    1    3    3    0  502  0.10979379242E+03 -0.51609295997E+02 -0.13400173632E+04  0.13454979487E+04  0.00000000000E+00 0.  1.
         13    1    5    5    0    0 -0.59328294520E+02 -0.36861635969E+02 -0.12448921440E+02  0.70947884972E+02  0.00000000000E+00 0. -1.
        -13    1    5    5    0    0 -0.40000435852E+03 -0.13646376171E+03 -0.30802755304E+03  0.52297879357E+03  0.00000000000E+00 0.  1.
          4    1    6    6  503    0  0.39340113369E+02  0.79887999770E+02 -0.36693214843E+03  0.37758302210E+03  0.00000000000E+00 0. -1.
         -4    1    6    6    0  503  0.15125589947E+03  0.16138717238E+03 -0.49464676903E+03  0.54184831147E+03  0.00000000000E+00 0.  1.
<mgrwt>
<rscale>  0 0.16107190E+04</rscale>
<asrwt>0</asrwt>
<pdfrwt beam="1">  1        2 0.57142321E+00 0.16107190E+04</pdfrwt>
<pdfrwt beam="2">  1       -2 0.26865503E-01 0.16107190E+04</pdfrwt>
<totfact> 0.69695164E+00</totfact>
</mgrwt>
</event>
<event>
12    3  0.4634846E-008  0.1379933E+04  0.7818608E-02  0.8968474E-01
          3   -1    0    0  501    0  0.00000000000E+00  0.00000000000E+00  0.56527206925E+03  0.56527206925E+03  0.00000000000E+00 0. -1.
         -3   -1    0    0    0  501 -0.00000000000E+00 -0.00000000000E+00 -0.84216748526E+03  0.84216748526E+03  0.00000000000E+00 0.  1.
         23    2    1    2    0    0 -0.20198035316E+03  0.31456469493E+03 -0.18717845855E+03  0.42667714606E+03  0.85267820776E+02 0.  0.
        254    2    1    2    0    0  0.20198035316E+03 -0.31456469493E+03 -0.89716957449E+02  0.98076240845E+03  0.90227421498E+03 0.  0.
         23    2    4    4    0    0 -0.61478934739E+02 -0.10700721686E+02  0.35590859355E+03  0.37329005680E+03  0.93703653518E+02 0.  0.
         23    2    4    4    0    0  0.26345928790E+03 -0.30386397325E+03 -0.44562555100E+03  0.60747235165E+03  0.93254574698E+02 0.  0.
          2    1    3    3  502    0 -0.17382803902E+02  0.21435841753E+02  0.84259588728E+01  0.28855744074E+02  0.00000000000E+00 0. -1.
         -2    1    3    3    0  502 -0.18459754926E+03  0.29312885318E+03 -0.19560441743E+03  0.39782140198E+03  0.00000000000E+00 0.  1.
         13    1    5    5    0    0 -0.72635867855E+02 -0.35957537214E+02  0.30245862417E+03  0.31312957879E+03  0.00000000000E+00 0. -1.
        -13    1    5    5    0    0  0.11156933116E+02  0.25256815529E+02  0.53449969385E+02  0.60160478011E+02  0.00000000000E+00 0.  1.
          1    1    6    6  503    0  0.25580664684E+03 -0.26541592901E+03 -0.42690183626E+03  0.56402822070E+03  0.00000000000E+00 0. -1.
         -1    1    6    6    0  503  0.76526410547E+01 -0.38448044236E+02 -0.18723714737E+02  0.43444130953E+02  0.00000000000E+00 0.  1.
<mgrwt>
<rscale>  0 0.13799330E+04</rscale>
<asrwt>0</asrwt>
<pdfrwt beam="1">  1        3 0.86964934E-01 0.13799330E+04</pdfrwt>
<pdfrwt beam="2">  1       -3 0.12956423E+00 0.13799330E+04</pdfrwt>
<totfact> 0.14415048E+00</totfact>
</mgrwt>
</event>
<event>
12    3  0.4634846E-008  0.2863892E+04  0.7818608E-02  0.8283702E-01
          2   -1    0    0  501    0  0.00000000000E+00  0.00000000000E+00  0.25318890746E+04  0.25318890746E+04  0.00000000000E+00 0. -1.
         -2   -1    0    0    0  501 -0.00000000000E+00 -0.00000000000E+00 -0.80985748985E+03  0.80985748985E+03  0.00000000000E+00 0.  1.
         23    2    1    2    0    0 -0.22439269492E+03 -0.80577156003E+03 -0.37172827573E+03  0.91980172387E+03  0.90738149479E+02 0.  0.
        254    2    1    2    0    0  0.22439269492E+03  0.80577156003E+03  0.20937598605E+04  0.24219448406E+04  0.88451487776E+03 0.  0.
         23    2    4    4    0    0  0.26930282357E+01 -0.14608044583E+03  0.97685227951E+02  0.19750198523E+03  0.90099286097E+02 0.  0.
         23    2    4    4    0    0  0.22169966669E+03  0.95185200585E+03  0.19960746325E+04  0.22244428553E+04  0.93054257520E+02 0.  0.
          3    1    3    3  502    0 -0.18978375553E+03 -0.52539704250E+03 -0.25665597903E+03  0.61476191953E+03  0.00000000000E+00 0. -1.
         -3    1    3    3    0  502 -0.34608939396E+02 -0.28037451752E+03 -0.11507229670E+03  0.30503980434E+03  0.00000000000E+00 0.  1.
         13    1    5    5    0    0  0.63939040921E+01 -0.64793659579E+00  0.40789053519E+02  0.41292235570E+02  0.00000000000E+00 0. -1.
        -13    1    5    5    0    0 -0.37008758564E+01 -0.14543250923E+03  0.56896174432E+02  0.15620974966E+03  0.00000000000E+00 0.  1.
          4    1    6    6  503    0  0.22228754476E+02  0.19807633486E+03  0.47621154567E+03  0.51624198607E+03  0.00000000000E+00 0. -1.
         -4    1    6    6    0  503  0.19947091221E+03  0.75377567100E+03  0.15198630868E+04  0.17082008693E+04  0.00000000000E+00 0.  1.
<mgrwt>
<rscale>  0 0.28638920E+04</rscale>
<asrwt>0</asrwt>
<pdfrwt beam="1">  1        2 0.38952139E+00 0.28638920E+04</pdfrwt>
<pdfrwt beam="2">  1       -2 0.12459346E+00 0.28638920E+04</pdfrwt>
<totfact> 0.13954896E+00</totfact>
</mgrwt>
</event>
<event>
12    3  0.4634846E-008  0.1344004E+04  0.7818608E-02  0.8995380E-01
          2   -1    0    0  501    0  0.00000000000E+00  0.00000000000E+00  0.31588459031E+03  0.31588459031E+03  0.00000000000E+00 0. -1.
         -2   -1    0    0    0  501 -0.00000000000E+00 -0.00000000000E+00 -0.14295934473E+04  0.14295934473E+04  0.00000000000E+00 0.  1.
         23    2    1    2    0    0  0.30794797109E+03 -0.14181151598E+03 -0.12898725096E+03  0.37429262076E+03  0.92275652704E+02 0.  0.
        254    2    1    2    0    0 -0.30794797109E+03  0.14181151598E+03 -0.98472160604E+03  0.13711854169E+04  0.89192507929E+03 0.  0.
         23    2    4    4    0    0 -0.10311769376E+03  0.49191104354E+03 -0.70434009159E+03  0.86932755251E+03  0.83819421430E+02 0.  0.
         23    2    4    4    0    0 -0.20483027733E+03 -0.35009952756E+03 -0.28038151446E+03  0.50185786436E+03  0.93393793470E+02 0.  0.
          3    1    3    3  502    0  0.28415225297E+03 -0.10598701199E+03 -0.13288195118E+03  0.33110929091E+03  0.00000000000E+00 0. -1.
         -3    1    3    3    0  502  0.23795718117E+02 -0.35824503988E+02  0.38947002202E+01  0.43183329845E+02  0.00000000000E+00 0.  1.
         13    1    5    5    0    0 -0.10412773538E+03  0.31968622793E+03 -0.49228757818E+03  0.59614505721E+03  0.00000000000E+00 0.  1.
        -13    1    5    5    0    0  0.10100416144E+01  0.17222481562E+03 -0.21205251341E+03  0.27318249530E+03  0.00000000000E+00 0. -1.
          4    1    6    6  503    0  0.13891108759E+01 -0.42540713657E+00 -0.18953270436E+02  0.19008867943E+02  0.00000000000E+00 0. -1.
         -4    1    6    6    0  503 -0.20621938820E+03 -0.34967412043E+03 -0.26142824402E+03  0.48284899641E+03  0.00000000000E+00 0.  1.
<mgrwt>
<rscale>  0 0.13440038E+04</rscale>
<asrwt>0</asrwt>
<pdfrwt beam="1">  1        2 0.48597629E-01 0.13440038E+04</pdfrwt>
<pdfrwt beam="2">  1       -2 0.21993746E+00 0.13440038E+04</pdfrwt>
<totfact> 0.10016911E+01</totfact>
</mgrwt>
</event>
<event>
12    3  0.4634846E-008  0.1096732E+04  0.7818608E-02  0.9208383E-01
          1   -1    0    0  501    0  0.00000000000E+00  0.00000000000E+00  0.41267538936E+03  0.41267538936E+03  0.00000000000E+00 0. -1.
         -1   -1    0    0    0  501 -0.00000000000E+00 -0.00000000000E+00 -0.72867209242E+03  0.72867209242E+03  0.00000000000E+00 0.  1.
         23    2    1    2    0    0  0.11522340105E+03 -0.29591293674E+02  0.42789585742E+02  0.15613355545E+03  0.91622386341E+02 0.  0.
        254    2    1    2    0    0 -0.11522340105E+03  0.29591293674E+02 -0.35878628881E+03  0.98521392633E+03  0.90981690619E+03 0.  0.
         23    2    4    4    0    0  0.12322365521E+02 -0.27454228049E+03 -0.52879137603E+03  0.60300995566E+03  0.92061842236E+02 0.  0.
         23    2    4    4    0    0 -0.12754576657E+03  0.30413357416E+03  0.17000508722E+03  0.38220397067E+03  0.91722363756E+02 0.  0.
          1    1    3    3  502    0  0.94497457552E+02 -0.20575577719E+02  0.71007343516E+02  0.11997985962E+03  0.00000000000E+00 0. -1.
         -1    1    3    3    0  502  0.20725943495E+02 -0.90157159549E+01 -0.28217757774E+02  0.36153695824E+02  0.00000000000E+00 0.  1.
         13    1    5    5    0    0 -0.27829959945E+02 -0.29153074546E+02 -0.91150538649E+02  0.99663579717E+02  0.00000000000E+00 0.  1.
        -13    1    5    5    0    0  0.40152325465E+02 -0.24538920594E+03 -0.43764083738E+03  0.50334637594E+03  0.00000000000E+00 0. -1.
          3    1    6    6  503    0 -0.14136843970E+03  0.26229342735E+03  0.14277772379E+03  0.33040635010E+03  0.00000000000E+00 0. -1.
         -3    1    6    6    0  503  0.13822673130E+02  0.41840146807E+02  0.27227363427E+02  0.51797620567E+02  0.00000000000E+00 0.  1.
<mgrwt>
<rscale>  0 0.10967316E+04</rscale>
<asrwt>0</asrwt>
<pdfrwt beam="1">  1        1 0.63488522E-01 0.10967316E+04</pdfrwt>
<pdfrwt beam="2">  1       -1 0.11210340E+00 0.10967316E+04</pdfrwt>
<totfact> 0.41866067E+01</totfact>
</mgrwt>
</event>
<event>
12    3  0.4634846E-008  0.2187517E+04  0.7818608E-02  0.8523642E-01
         -2   -1    0    0    0  501 -0.00000000000E+00  0.00000000000E+00  0.54809283418E+03  0.54809283418E+03  0.00000000000E+00 0.  1.
          2   -1    0    0  501    0  0.00000000000E+00 -0.00000000000E+00 -0.21826729803E+04  0.21826729803E+04  0.00000000000E+00 0. -1.
         23    2    1    2    0    0 -0.55882762340E+00  0.90441300738E+03 -0.73123725487E+03  0.11666631126E+04  0.91824262247E+02 0.  0.
        254    2    1    2    0    0  0.55882762340E+00 -0.90441300738E+03 -0.90334289126E+03  0.15641027019E+04  0.90134659410E+03 0.  0.
         23    2    4    4    0    0  0.19406501857E+03 -0.11895457490E+03  0.10629756516E+03  0.26720301648E+03  0.91032177460E+02 0.  0.
         23    2    4    4    0    0 -0.19350619095E+03 -0.78545843248E+03 -0.10096404564E+04  0.12968996854E+04  0.90472911570E+02 0.  0.
          3    1    3    3  502    0 -0.21194639495E+02  0.36132098164E+03 -0.24182048699E+03  0.43529210014E+03  0.00000000000E+00 0. -1.
         -3    1    3    3    0  502  0.20635811871E+02  0.54309202574E+03 -0.48941676788E+03  0.73137101244E+03  0.00000000000E+00 0.  1.
         13    1    5    5    0    0 -0.29026233844E+01 -0.90683292660E+01 -0.96860843106E+01  0.13582343224E+02  0.00000000000E+00 0. -1.
        -13    1    5    5    0    0  0.19696764196E+03 -0.10988624563E+03  0.11598364947E+03  0.25362067325E+03  0.00000000000E+00 0.  1.
          4    1    6    6  503    0 -0.35600776469E+02 -0.54304953018E+02 -0.63887634580E+02  0.91093759720E+02  0.00000000000E+00 0. -1.
         -4    1    6    6    0  503 -0.15790541448E+03 -0.73115347946E+03 -0.94575282184E+03  0.12058059257E+04  0.00000000000E+00 0.  1.
<mgrwt>
<rscale>  0 0.21875168E+04</rscale>
<asrwt>0</asrwt>
<pdfrwt beam="1">  1        2 0.33579584E+00 0.21875168E+04</pdfrwt>
<pdfrwt beam="2">  1       -2 0.84321974E-01 0.21875168E+04</pdfrwt>
<totfact> 0.59286612E+00</totfact>
</mgrwt>
</event>
<event>
12    3  0.4634846E-008  0.1368008E+04  0.7818608E-02  0.8977307E-01
          1   -1    0    0  501    0  0.00000000000E+00  0.00000000000E+00  0.13251136317E+04  0.13251136317E+04  0.00000000000E+00 0. -1.
         -1   -1    0    0    0  501 -0.00000000000E+00 -0.00000000000E+00 -0.35307254231E+03  0.35307254231E+03  0.00000000000E+00 0.  1.
         23    2    1    2    0    0 -0.18634607465E+03 -0.85499134494E+02  0.67414441327E+03  0.71054919680E+03  0.91512346638E+02 0.  0.
        254    2    1    2    0    0  0.18634607465E+03  0.85499134494E+02  0.29789667610E+03  0.96763697720E+03  0.89752099055E+03 0.  0.
         23    2    4    4    0    0  0.35014662067E+03  0.37216221282E+03  0.34420082426E+03  0.62217593771E+03  0.86725552324E+02 0.  0.
         23    2    4    4    0    0 -0.16380054602E+03 -0.28666307832E+03 -0.46304148161E+02  0.34546103949E+03  0.90514729850E+02 0.  0.
          1    1    3    3  502    0 -0.12975663267E+03 -0.10121525385E+03  0.46240198270E+03  0.49081249468E+03  0.00000000000E+00 0. -1.
         -1    1    3    3    0  502 -0.56589441983E+02  0.15716119353E+02  0.21174243057E+03  0.21973670211E+03  0.00000000000E+00 0.  1.
         13    1    5    5    0    0  0.26482715373E+03  0.32707861765E+03  0.29426343809E+03  0.51352197078E+03  0.00000000000E+00 0. -1.
        -13    1    5    5    0    0  0.85319466934E+02  0.45083595165E+02  0.49937386174E+02  0.10865396693E+03  0.00000000000E+00 0.  1.
          2    1    6    6  503    0 -0.15112089495E+03 -0.21527346881E+03 -0.72856812312E+01  0.26312216253E+03  0.00000000000E+00 0. -1.
         -2    1    6    6    0  503 -0.12679651070E+02 -0.71389609512E+02 -0.39018466930E+02  0.82338876960E+02  0.00000000000E+00 0.  1.
<mgrwt>
<rscale>  0 0.13680077E+04</rscale>
<asrwt>0</asrwt>
<pdfrwt beam="1">  1        1 0.20386363E+00 0.13680077E+04</pdfrwt>
<pdfrwt beam="2">  1       -1 0.54318854E-01 0.13680077E+04</pdfrwt>
<totfact> 0.29037316E+01</totfact>
</mgrwt>
</event>
<event>
12    3  0.4634846E-008  0.1510024E+04  0.7818608E-02  0.8877814E-01
          2   -1    0    0  501    0  0.00000000000E+00  0.00000000000E+00  0.81542670225E+03  0.81542670225E+03  0.00000000000E+00 0. -1.
         -2   -1    0    0    0  501 -0.00000000000E+00 -0.00000000000E+00 -0.69907330819E+03  0.69907330819E+03  0.00000000000E+00 0.  1.
         23    2    1    2    0    0  0.35739404296E+03 -0.17023194778E+03 -0.23467093302E+03  0.46941371500E+03  0.92570897329E+02 0.  0.
        254    2    1    2    0    0 -0.35739404296E+03  0.17023194778E+03  0.35102432707E+03  0.10450862954E+04  0.90126459419E+03 0.  0.
         23    2    4    4    0    0  0.69560739475E+02 -0.19916110355E+02  0.52590341739E+03  0.53777797134E+03  0.85996477249E+02 0.  0.
         23    2    4    4    0    0 -0.42695478244E+03  0.19014805814E+03 -0.17487909032E+03  0.50730832411E+03  0.91281812095E+02 0.  0.
          1    1    3    3  502    0  0.48282572772E+02 -0.84075746199E+01 -0.65088908673E+02  0.81476746233E+02  0.00000000000E+00 0. -1.
         -1    1    3    3    0  502  0.30911147019E+03 -0.16182437316E+03 -0.16958202435E+03  0.38793696876E+03  0.00000000000E+00 0.  1.
         13    1    5    5    0    0  0.35238085663E+02 -0.21009966005E+02  0.74327853659E+02  0.84898593524E+02  0.00000000000E+00 0. -1.
        -13    1    5    5    0    0  0.34322653812E+02  0.10938556495E+01  0.45157556374E+03  0.45287937781E+03  0.00000000000E+00 0.  1.
          1    1    6    6  503    0 -0.19809608584E+03  0.40833606450E+02 -0.87941159770E+02  0.22055178580E+03  0.00000000000E+00 0. -1.
         -1    1    6    6    0  503 -0.22885869660E+03  0.14931445169E+03 -0.86937930552E+02  0.28675653830E+03  0.00000000000E+00 0.  1.
<mgrwt>
<rscale>  0 0.15100239E+04</rscale>
<asrwt>0</asrwt>
<pdfrwt beam="1">  1        2 0.12545026E+00 0.15100239E+04</pdfrwt>
<pdfrwt beam="2">  1       -2 0.10754974E+00 0.15100239E+04</pdfrwt>
<totfact> 0.22494427E+01</totfact>
</mgrwt>
</event>
<event>
12    3  0.4634846E-008  0.1753313E+04  0.7818608E-02  0.8731529E-01
         -1   -1    0    0    0  501 -0.00000000000E+00  0.00000000000E+00  0.13083561287E+04  0.13083561287E+04  0.00000000000E+00 0.  1.
          1   -1    0    0  501    0  0.00000000000E+00 -0.00000000000E+00 -0.58739841421E+03  0.58739841421E+03  0.00000000000E+00 0. -1.
         23    2    1    2    0    0 -0.26247301921E+03  0.58703734160E+03  0.30826073468E+03  0.71929441892E+03  0.94100235409E+02 0.  0.
        254    2    1    2    0    0  0.26247301921E+03 -0.58703734160E+03  0.41269697979E+03  0.11764601240E+04  0.89455838261E+03 0.  0.
         23    2    4    4    0    0  0.26646238384E+03 -0.80912870948E+03  0.26764875034E+03  0.89745811144E+03  0.90020762745E+02 0.  0.
         23    2    4    4    0    0 -0.39893646299E+01  0.22209136788E+03  0.14504822945E+03  0.27900201252E+03  0.86386592751E+02 0.  0.
          3    1    3    3  502    0 -0.16061688237E+03  0.28847560489E+03  0.11650458690E+03  0.35012751432E+03  0.00000000000E+00 0. -1.
         -3    1    3    3    0  502 -0.10185613684E+03  0.29856173671E+03  0.19175614779E+03  0.36916690460E+03  0.00000000000E+00 0.  1.
         13    1    5    5    0    0  0.24875154244E+02 -0.16479003320E+03  0.75732935676E+02  0.18305738414E+03  0.00000000000E+00 0.  1.
        -13    1    5    5    0    0  0.24158722960E+03 -0.64433867627E+03  0.19191581466E+03  0.71440072730E+03  0.00000000000E+00 0. -1.
          1    1    6    6  503    0 -0.37873210736E+02  0.17127342693E+03  0.12224552614E+03  0.21380583604E+03  0.00000000000E+00 0. -1.
         -1    1    6    6    0  503  0.33883846107E+02  0.50817940952E+02  0.22802703310E+02  0.65196176482E+02  0.00000000000E+00 0.  1.
<mgrwt>
<rscale>  0 0.17533127E+04</rscale>
<asrwt>0</asrwt>
<pdfrwt beam="1">  1        1 0.90368987E-01 0.17533127E+04</pdfrwt>
<pdfrwt beam="2">  1       -1 0.20128556E+00 0.17533127E+04</pdfrwt>
<totfact> 0.49325186E+00</totfact>
</mgrwt>
</event>
<event>
12    3  0.4634846E-008  0.1332454E+04  0.7818608E-02  0.9004217E-01
         -2   -1    0    0    0  501 -0.00000000000E+00  0.00000000000E+00  0.37886174371E+03  0.37886174371E+03  0.00000000000E+00 0.  1.
          2   -1    0    0  501    0  0.00000000000E+00 -0.00000000000E+00 -0.11715583679E+04  0.11715583679E+04  0.00000000000E+00 0. -1.
         23    2    1    2    0    0 -0.24528644480E+03 -0.25198962506E+03 -0.21550216711E+03  0.42276387026E+03  0.92864927859E+02 0.  0.
        254    2    1    2    0    0  0.24528644480E+03  0.25198962506E+03 -0.57719445711E+03  0.11276562414E+04  0.90265771269E+03 0.  0.
         23    2    4    4    0    0  0.48900863599E+03  0.30921563273E+03 -0.11839016455E+03  0.59691633688E+03  0.86885721365E+02 0.  0.
         23    2    4    4    0    0 -0.24372219118E+03 -0.57226007665E+02 -0.45880429256E+03  0.53073990451E+03  0.92239606128E+02 0.  0.
          4    1    3    3  502    0 -0.47035666749E+02 -0.19359999490E+02 -0.63640407177E+02  0.81469411146E+02  0.00000000000E+00 0. -1.
         -4    1    3    3    0  502 -0.19825077805E+03 -0.23262962557E+03 -0.15186175993E+03  0.34129445911E+03  0.00000000000E+00 0.  1.
         13    1    5    5    0    0  0.43647501515E+03  0.30019133416E+03 -0.12159531895E+03  0.54351697080E+03  0.00000000000E+00 0.  1.
        -13    1    5    5    0    0  0.52533620835E+02  0.90242985626E+01  0.32051543996E+01  0.53399366076E+02  0.00000000000E+00 0. -1.
          2    1    6    6  503    0 -0.18777599651E+03 -0.91195574679E+01 -0.37206079873E+03  0.41685996347E+03  0.00000000000E+00 0. -1.
         -2    1    6    6    0  503 -0.55946194673E+02 -0.48106450198E+02 -0.86743493831E+02  0.11387994104E+03  0.00000000000E+00 0.  1.
<mgrwt>
<rscale>  0 0.13324543E+04</rscale>
<asrwt>0</asrwt>
<pdfrwt beam="1">  1        2 0.18023975E+00 0.13324543E+04</pdfrwt>
<pdfrwt beam="2">  1       -2 0.58286422E-01 0.13324543E+04</pdfrwt>
<totfact> 0.53047347E+01</totfact>
</mgrwt>
</event>
<event>
12    3  0.4634846E-008  0.1992841E+04  0.7818608E-02  0.8609975E-01
          1   -1    0    0  501    0  0.00000000000E+00  0.00000000000E+00  0.17428552895E+04  0.17428552895E+04  0.00000000000E+00 0. -1.
         -1   -1    0    0    0  501 -0.00000000000E+00 -0.00000000000E+00 -0.56967090114E+03  0.56967090114E+03  0.00000000000E+00 0.  1.
         23    2    1    2    0    0 -0.23997809163E+03 -0.69779542991E+02  0.13355091058E+04  0.13618075199E+04  0.92067803523E+02 0.  0.
        254    2    1    2    0    0  0.23997809163E+03  0.69779542991E+02 -0.16232471741E+03  0.95071867080E+03  0.90280563137E+03 0.  0.
         23    2    4    4    0    0  0.86650641600E+02  0.27845241804E+03  0.28967757852E+03  0.42143157272E+03  0.92991333936E+02 0.  0.
         23    2    4    4    0    0  0.15332745003E+03 -0.20867287505E+03 -0.45200229593E+03  0.52928709808E+03  0.93728762657E+02 0.  0.
          2    1    3    3  502    0 -0.55238642476E+02 -0.56921315341E+02  0.47730888577E+03  0.48385443699E+03  0.00000000000E+00 0. -1.
         -2    1    3    3    0  502 -0.18473944915E+03 -0.12858227650E+02  0.85820022002E+03  0.87795308287E+03  0.00000000000E+00 0.  1.
         13    1    5    5    0    0  0.33289539303E+01  0.16117733509E+03  0.17016568303E+03  0.23440472470E+03  0.00000000000E+00 0. -1.
        -13    1    5    5    0    0  0.83321687670E+02  0.11727508296E+03  0.11951189549E+03  0.18702684803E+03  0.00000000000E+00 0.  1.
          1    1    6    6  503    0  0.41047303868E+02 -0.63930496077E+01 -0.45896004322E+02  0.61904728824E+02  0.00000000000E+00 0. -1.
         -1    1    6    6    0  503  0.11228014616E+03 -0.20227982545E+03 -0.40610629161E+03  0.46738236925E+03  0.00000000000E+00 0.  1.
<mgrwt>
<rscale>  0 0.19928411E+04</rscale>
<asrwt>0</asrwt>
<pdfrwt beam="1">  1        1 0.26813158E+00 0.19928411E+04</pdfrwt>
<pdfrwt beam="2">  1       -1 0.87641678E-01 0.19928411E+04</pdfrwt>
<totfact> 0.52961130E+00</totfact>
</mgrwt>
</event>
<event>
12    3  0.4634846E-008  0.1812615E+04  0.7818608E-02  0.8699620E-01
          1   -1    0    0  501    0  0.00000000000E+00  0.00000000000E+00  0.56215939968E+03  0.56215939968E+03  0.00000000000E+00 0. -1.
         -1   -1    0    0    0  501 -0.00000000000E+00 -0.00000000000E+00 -0.14611390207E+04  0.14611390207E+04  0.00000000000E+00 0.  1.
         23    2    1    2    0    0  0.55852462237E+03  0.19959141785E+03 -0.66334835096E+03  0.89441625645E+03  0.90348863905E+02 0.  0.
        254    2    1    2    0    0 -0.55852462237E+03 -0.19959141785E+03 -0.23563127009E+03  0.11288821640E+04  0.93116397954E+03 0.  0.
         23    2    4    4    0    0  0.39021280857E+01 -0.35466396047E+03 -0.37259636666E+03  0.52256409260E+03  0.91888122018E+02 0.  0.
         23    2    4    4    0    0 -0.56242675046E+03  0.15507254262E+03  0.13696509657E+03  0.60631807136E+03  0.92145661193E+02 0.  0.
          2    1    3    3  502    0  0.16012458646E+03  0.10053528198E+03 -0.19494796018E+03  0.27157307173E+03  0.00000000000E+00 0. -1.
         -2    1    3    3    0  502  0.39840003591E+03  0.99056135866E+02 -0.46840039078E+03  0.62284318471E+03  0.00000000000E+00 0.  1.
         13    1    5    5    0    0 -0.31885754976E+02 -0.27302017993E+03 -0.25451632406E+03  0.37461350647E+03  0.00000000000E+00 0.  1.
        -13    1    5    5    0    0  0.35787883062E+02 -0.81643780537E+02 -0.11808004260E+03  0.14795058613E+03  0.00000000000E+00 0. -1.
          3    1    6    6  503    0 -0.17057220441E+03  0.21764579249E+02  0.55396045717E+01  0.17204435779E+03  0.00000000000E+00 0. -1.
         -3    1    6    6    0  503 -0.39185454604E+03  0.13330796337E+03  0.13142549199E+03  0.43427371357E+03  0.00000000000E+00 0.  1.
<mgrwt>
<rscale>  0 0.18126147E+04</rscale>
<asrwt>0</asrwt>
<pdfrwt beam="1">  1        1 0.86486062E-01 0.18126147E+04</pdfrwt>
<pdfrwt beam="2">  1       -1 0.22479062E+00 0.18126147E+04</pdfrwt>
<totfact> 0.36231776E+00</totfact>
</mgrwt>
</event>
<event>
12    3  0.4634846E-008  0.1562918E+04  0.7818608E-02  0.8843658E-01
          1   -1    0    0  501    0  0.00000000000E+00  0.00000000000E+00  0.20616327201E+04  0.20616327201E+04  0.00000000000E+00 0. -1.
         -1   -1    0    0    0  501 -0.00000000000E+00 -0.00000000000E+00 -0.29621109808E+03  0.29621109808E+03  0.00000000000E+00 0.  1.
         23    2    1    2    0    0 -0.10813160744E+03  0.46508147822E+03  0.93267322829E+03  0.10516158538E+04  0.89573027872E+02 0.  0.
        254    2    1    2    0    0  0.10813160744E+03 -0.46508147822E+03  0.83274839375E+03  0.13062279644E+04  0.88587153794E+03 0.  0.
         23    2    4    4    0    0  0.39224114452E+03 -0.46164937864E+03  0.27117253778E+03  0.66991983460E+03  0.91020740955E+02 0.  0.
         23    2    4    4    0    0 -0.28410953708E+03 -0.34320995760E+01  0.56157585597E+03  0.63630812978E+03  0.93758123155E+02 0.  0.
          4    1    3    3  502    0 -0.45297066609E+02  0.13820755306E+03  0.20421804576E+03  0.25071530105E+03  0.00000000000E+00 0. -1.
         -4    1    3    3    0  502 -0.62834540833E+02  0.32687392516E+03  0.72845518253E+03  0.80090055276E+03  0.00000000000E+00 0.  1.
         13    1    5    5    0    0  0.37600033818E+03 -0.44623700644E+03  0.27820273263E+03  0.64645222613E+03  0.00000000000E+00 0. -1.
        -13    1    5    5    0    0  0.16240806342E+02 -0.15412372206E+02 -0.70301948477E+01  0.23467608468E+02  0.00000000000E+00 0.  1.
          1    1    6    6  503    0 -0.24563161996E+03  0.53842113553E+01  0.53500800638E+03  0.58872527493E+03  0.00000000000E+00 0. -1.
         -1    1    6    6    0  503 -0.38477917115E+02 -0.88163109313E+01  0.26567849591E+02  0.47582854851E+02  0.00000000000E+00 0.  1.
<mgrwt>
<rscale>  0 0.15629184E+04</rscale>
<asrwt>0</asrwt>
<pdfrwt beam="1">  1        1 0.31717426E+00 0.15629184E+04</pdfrwt>
<pdfrwt beam="2">  1       -1 0.45570939E-01 0.15629184E+04</pdfrwt>
<totfact> 0.12465921E+01</totfact>
</mgrwt>
</event>
<event>
12    3  0.4634846E-008  0.1738201E+04  0.7818608E-02  0.8739872E-01
         -1   -1    0    0    0  501 -0.00000000000E+00  0.00000000000E+00  0.86571474289E+03  0.86571474289E+03  0.00000000000E+00 0.  1.
          1   -1    0    0  501    0  0.00000000000E+00 -0.00000000000E+00 -0.87249982790E+03  0.87249982790E+03  0.00000000000E+00 0. -1.
         23    2    1    2    0    0 -0.26283695012E+03  0.49712943763E+03 -0.28226218966E+03  0.63540126777E+03  0.88554431121E+02 0.  0.
        254    2    1    2    0    0  0.26283695012E+03 -0.49712943763E+03  0.27547710465E+03  0.11028133030E+04  0.90779326171E+03 0.  0.
         23    2    4    4    0    0  0.55159522998E+03 -0.15407508317E+03  0.28281805444E+03  0.64535311847E+03  0.92185501107E+02 0.  0.
         23    2    4    4    0    0 -0.28875827986E+03 -0.34305435446E+03 -0.73409497940E+01  0.45746018454E+03  0.90267915624E+02 0.  0.
          4    1    3    3  502    0 -0.11603465275E+03  0.27948532542E+03 -0.18907450980E+03  0.35682664981E+03  0.00000000000E+00 0. -1.
         -4    1    3    3    0  502 -0.14680229737E+03  0.21764411221E+03 -0.93187679865E+02  0.27857461796E+03  0.00000000000E+00 0.  1.
         13    1    5    5    0    0  0.34923568697E+02 -0.33128326602E+02  0.36064084197E+02  0.60147816610E+02  0.00000000000E+00 0.  1.
        -13    1    5    5    0    0  0.51667166128E+03 -0.12094675657E+03  0.24675397025E+03  0.58520530186E+03  0.00000000000E+00 0. -1.
          1    1    6    6  503    0 -0.15381466661E+03 -0.23698956539E+03 -0.30894816102E+02  0.28421381991E+03  0.00000000000E+00 0. -1.
         -1    1    6    6    0  503 -0.13494361325E+03 -0.10606478907E+03  0.23553866308E+02  0.17324636462E+03  0.00000000000E+00 0.  1.
<mgrwt>
<rscale>  0 0.17382013E+04</rscale>
<asrwt>0</asrwt>
<pdfrwt beam="1">  1        1 0.13423074E+00 0.17382013E+04</pdfrwt>
<pdfrwt beam="2">  1       -1 0.13318688E+00 0.17382013E+04</pdfrwt>
<totfact> 0.86752997E+00</totfact>
</mgrwt>
</event>
<event>
12    3  0.4634846E-008  0.1737404E+04  0.7818608E-02  0.8740314E-01
         -2   -1    0    0    0  501 -0.00000000000E+00  0.00000000000E+00  0.26506901651E+03  0.26506901651E+03  0.00000000000E+00 0.  1.
          2   -1    0    0  501    0  0.00000000000E+00 -0.00000000000E+00 -0.28469699466E+04  0.28469699466E+04  0.00000000000E+00 0. -1.
         23    2    1    2    0    0  0.22999850622E+03  0.55955706065E+03 -0.61755030196E+03  0.86932578973E+03  0.91408622393E+02 0.  0.
        254    2    1    2    0    0 -0.22999850622E+03 -0.55955706065E+03 -0.19643506281E+04  0.22427131734E+04  0.89726560773E+03 0.  0.
         23    2    4    4    0    0 -0.54127691644E+03 -0.31127713826E+03 -0.86664219679E+03  0.10720610877E+04  0.91499297820E+02 0.  0.
         23    2    4    4    0    0  0.31127841022E+03 -0.24827992238E+03 -0.10977084313E+04  0.11706520856E+04  0.83218608873E+02 0.  0.
          2    1    3    3  502    0  0.21853977728E+03  0.48945913511E+03 -0.50633095839E+03  0.73736077915E+03  0.00000000000E+00 0. -1.
         -2    1    3    3    0  502  0.11458728940E+02  0.70097925534E+02 -0.11121934357E+03  0.13196501058E+03  0.00000000000E+00 0.  1.
         13    1    5    5    0    0 -0.48269879306E+03 -0.29238004486E+03 -0.73434175269E+03  0.92614363097E+03  0.00000000000E+00 0.  1.
        -13    1    5    5    0    0 -0.58578123380E+02 -0.18897093406E+02 -0.13230044410E+03  0.14591745676E+03  0.00000000000E+00 0. -1.
          3    1    6    6  503    0  0.18803307225E+02 -0.25881930073E+02 -0.41764230121E+02  0.52608835612E+02  0.00000000000E+00 0. -1.
         -3    1    6    6    0  503  0.29247510299E+03 -0.22239799231E+03 -0.10559442012E+04  0.11180432500E+04  0.00000000000E+00 0.  1.
<mgrwt>
<rscale>  0 0.17374044E+04</rscale>
<asrwt>0</asrwt>
<pdfrwt beam="1">  1        2 0.43799537E+00 0.17374044E+04</pdfrwt>
<pdfrwt beam="2">  1       -2 0.40779849E-01 0.17374044E+04</pdfrwt>
<totfact> 0.11737058E+01</totfact>
</mgrwt>
</event>
<event>
12    3  0.4634846E-008  0.1489115E+04  0.7818608E-02  0.8891724E-01
         -1   -1    0    0    0  501 -0.00000000000E+00  0.00000000000E+00  0.34208521804E+03  0.34208521804E+03  0.00000000000E+00 0.  1.
          1   -1    0    0  501    0  0.00000000000E+00 -0.00000000000E+00 -0.16205492872E+04  0.16205492872E+04  0.00000000000E+00 0. -1.
         23    2    1    2    0    0 -0.10622489673E+02 -0.11898249092E+03  0.18696400054E+03  0.23979119506E+03  0.90964879477E+02 0.  0.
        254    2    1    2    0    0  0.10622489673E+02  0.11898249092E+03 -0.14654280697E+04  0.17228433102E+04  0.89802002957E+03 0.  0.
         23    2    4    4    0    0 -0.18996352029E+03 -0.27827174438E+03 -0.10536642014E+04  0.11099847971E+04  0.91305518915E+02 0.  0.
         23    2    4    4    0    0  0.20058600996E+03  0.39725423529E+03 -0.41176386832E+03  0.61285851306E+03  0.89444949148E+02 0.  0.
          4    1    3    3  502    0  0.14818639170E+02 -0.25490132662E+02  0.30888914055E+00  0.29486172056E+02  0.00000000000E+00 0. -1.
         -4    1    3    3    0  502 -0.25441128843E+02 -0.93492358256E+02  0.18665511140E+03  0.21030502301E+03  0.00000000000E+00 0.  1.
         13    1    5    5    0    0 -0.16459268426E+03 -0.22038872790E+03 -0.94561962492E+03  0.98481390025E+03  0.00000000000E+00 0.  1.
        -13    1    5    5    0    0 -0.25370836025E+02 -0.57883016478E+02 -0.10804457646E+03  0.12517089685E+03  0.00000000000E+00 0. -1.
          4    1    6    6  503    0 -0.63735501586E+01  0.19742826732E+01 -0.17533807288E+01  0.68988606072E+01  0.00000000000E+00 0. -1.
         -4    1    6    6    0  503  0.20695956012E+03  0.39527995262E+03 -0.41001048759E+03  0.60595965246E+03  0.00000000000E+00 0.  1.
<mgrwt>
<rscale>  0 0.14891151E+04</rscale>
<asrwt>0</asrwt>
<pdfrwt beam="1">  1        1 0.24931528E+00 0.14891151E+04</pdfrwt>
<pdfrwt beam="2">  1       -1 0.52628495E-01 0.14891151E+04</pdfrwt>
<totfact> 0.19029058E+01</totfact>
</mgrwt>
</event>
<event>
12    3  0.4634846E-008  0.1566473E+04  0.7818608E-02  0.8841414E-01
         -1   -1    0    0    0  501 -0.00000000000E+00  0.00000000000E+00  0.49106734964E+03  0.49106734964E+03  0.00000000000E+00 0.  1.
          1   -1    0    0  501    0  0.00000000000E+00 -0.00000000000E+00 -0.12492374805E+04  0.12492374805E+04  0.00000000000E+00 0. -1.
         23    2    1    2    0    0  0.60484130300E+02 -0.44513369943E+03 -0.52848661341E+03  0.70067222230E+03  0.99202430248E+02 0.  0.
        254    2    1    2    0    0 -0.60484130300E+02  0.44513369943E+03 -0.22968351748E+03  0.10396326079E+04  0.90899895530E+03 0.  0.
         23    2    4    4    0    0  0.32734495036E+03 -0.53240967059E+02  0.41621385724E+02  0.34614490728E+03  0.89970217244E+02 0.  0.
         23    2    4    4    0    0 -0.38782908066E+03  0.49837466649E+03 -0.27130490320E+03  0.69348770058E+03  0.92358737301E+02 0.  0.
          4    1    3    3  502    0  0.56267054650E+02 -0.37692808070E+03 -0.49460044795E+03  0.62439599820E+03  0.00000000000E+00 0. -1.
         -4    1    3    3    0  502  0.42170756506E+01 -0.68205618731E+02 -0.33886165460E+02  0.76276224101E+02  0.00000000000E+00 0.  1.
         13    1    5    5    0    0  0.40110419362E+02 -0.39116776004E+02  0.52342592281E+01  0.56270466286E+02  0.00000000000E+00 0. -1.
        -13    1    5    5    0    0  0.28723453099E+03 -0.14124191054E+02  0.36387126496E+02  0.28987444100E+03  0.00000000000E+00 0.  1.
          2    1    6    6  503    0 -0.38974434748E+03  0.47357719661E+03 -0.26155480906E+03  0.66677352653E+03  0.00000000000E+00 0. -1.
         -2    1    6    6    0  503  0.19152668230E+01  0.24797469878E+02 -0.97500941402E+01  0.26714174049E+02  0.00000000000E+00 0.  1.
<mgrwt>
<rscale>  0 0.15664734E+04</rscale>
<asrwt>0</asrwt>
<pdfrwt beam="1">  1        1 0.19219038E+00 0.15664734E+04</pdfrwt>
<pdfrwt beam="2">  1       -1 0.75548824E-01 0.15664734E+04</pdfrwt>
<totfact> 0.16670087E+01</totfact>
</mgrwt>
</event>
<event>
12    3  0.4634846E-008  0.2480889E+04  0.7818608E-02  0.8409826E-01
          2   -1    0    0  501    0  0.00000000000E+00  0.00000000000E+00  0.72185664669E+03  0.72185664669E+03  0.00000000000E+00 0. -1.
         -2   -1    0    0    0  501 -0.00000000000E+00 -0.00000000000E+00 -0.21315908329E+04  0.21315908329E+04  0.00000000000E+00 0.  1.
         23    2    1    2    0    0  0.71400201557E+03  0.26233093523E+03  0.26315690111E+03  0.80995534534E+03  0.90331107761E+02 0.  0.
        254    2    1    2    0    0 -0.71400201557E+03 -0.26233093523E+03 -0.16728910874E+04  0.20434921343E+04  0.89368848873E+03 0.  0.
         23    2    4    4    0    0 -0.36115300722E+03 -0.50228972094E+03 -0.52865718519E+03  0.81885694968E+03  0.91224043946E+02 0.  0.
         23    2    4    4    0    0 -0.35284900835E+03  0.23995878572E+03 -0.11442339022E+04  0.12246351846E+04  0.91528525362E+02 0.  0.
          4    1    3    3  502    0  0.32007611398E+03  0.91153399215E+02  0.15448394073E+03  0.36691000105E+03  0.00000000000E+00 0. -1.
         -4    1    3    3    0  502  0.39392590159E+03  0.17117753601E+03  0.10867296039E+03  0.44304534429E+03  0.00000000000E+00 0.  1.
         13    1    5    5    0    0 -0.31345971709E+03 -0.46321030691E+03 -0.50248793833E+03  0.75187426530E+03  0.00000000000E+00 0.  1.
        -13    1    5    5    0    0 -0.47693290123E+02 -0.39079414037E+02 -0.26169246865E+02  0.66982684372E+02  0.00000000000E+00 0. -1.
          4    1    6    6  503    0 -0.29052703664E+03  0.23388541286E+03 -0.95169913906E+03  0.10221739562E+04  0.00000000000E+00 0.  1.
         -4    1    6    6    0  503 -0.62321971713E+02  0.60733728548E+01 -0.19253476312E+03  0.20246122845E+03  0.00000000000E+00 0. -1.
<mgrwt>
<rscale>  0 0.24808894E+04</rscale>
<asrwt>0</asrwt>
<pdfrwt beam="1">  1        2 0.11105487E+00 0.24808894E+04</pdfrwt>
<pdfrwt beam="2">  1       -2 0.32793705E+00 0.24808894E+04</pdfrwt>
<totfact> 0.75276513E-01</totfact>
</mgrwt>
</event>
<event>
12    3  0.4634846E-008  0.2211772E+04  0.7818608E-02  0.8513544E-01
         -2   -1    0    0    0  501 -0.00000000000E+00  0.00000000000E+00  0.63194963889E+03  0.63194963889E+03  0.00000000000E+00 0.  1.
          2   -1    0    0  501    0  0.00000000000E+00 -0.00000000000E+00 -0.19352544139E+04  0.19352544139E+04  0.00000000000E+00 0. -1.
         23    2    1    2    0    0  0.27783829230E+03 -0.87554614777E+03 -0.53874743318E+03  0.10686126772E+04  0.88933029078E+02 0.  0.
        254    2    1    2    0    0 -0.27783829230E+03  0.87554614777E+03 -0.76455734186E+03  0.14985913756E+04  0.90413107924E+03 0.  0.
         23    2    4    4    0    0 -0.56733342080E+03  0.50164885755E+03 -0.27156844559E+03  0.80912457252E+03  0.86106716219E+02 0.  0.
         23    2    4    4    0    0  0.28949512851E+03  0.37389729022E+03 -0.49298889628E+03  0.68946680306E+03  0.93379910117E+02 0.  0.
          1    1    3    3  502    0  0.79360823800E+02 -0.28349425336E+03 -0.22009674700E+03  0.36757272761E+03  0.00000000000E+00 0. -1.
         -1    1    3    3    0  502  0.19847746850E+03 -0.59205189441E+03 -0.31865068618E+03  0.70103994963E+03  0.00000000000E+00 0.  1.
         13    1    5    5    0    0 -0.45068423891E+03  0.42972185499E+03 -0.19715363916E+03  0.65318199094E+03  0.00000000000E+00 0. -1.
        -13    1    5    5    0    0 -0.11664918190E+03  0.71927002559E+02 -0.74414806428E+02  0.15594258158E+03  0.00000000000E+00 0.  1.
          1    1    6    6  503    0  0.23585728220E+03  0.32973113183E+03 -0.37341496347E+03  0.55117149038E+03  0.00000000000E+00 0. -1.
         -1    1    6    6    0  503  0.53637846308E+02  0.44166158383E+02 -0.11957393281E+03  0.13829531268E+03  0.00000000000E+00 0.  1.
<mgrwt>
<rscale>  0 0.22117715E+04</rscale>
<asrwt>0</asrwt>
<pdfrwt beam="1">  1        2 0.29773145E+00 0.22117715E+04</pdfrwt>
<pdfrwt beam="2">  1       -2 0.97223021E-01 0.22117715E+04</pdfrwt>
<totfact> 0.58510952E+00</totfact>
</mgrwt>
</event>
<event>
12    3  0.4634846E-008  0.1551611E+04  0.7818608E-02  0.8850839E-01
          2   -1    0    0  501    0  0.00000000000E+00  0.00000000000E+00  0.20279413503E+04  0.20279413503E+04  0.00000000000E+00 0.  1.
         -2   -1    0    0    0  501 -0.00000000000E+00 -0.00000000000E+00 -0.29679080852E+03  0.29679080852E+03  0.00000000000E+00 0. -1.
         23    2    1    2    0    0  0.30386584901E+03  0.38282961363E+03  0.35779671715E+03  0.61270517118E+03  0.92174664206E+02 0.  0.
        254    2    1    2    0    0 -0.30386584901E+03 -0.38282961363E+03  0.13733538246E+04  0.17120269876E+04  0.89779881460E+03 0.  0.
         23    2    4    4    0    0  0.28975185740E+03 -0.40504833718E+02  0.61420047016E+03  0.68620399491E+03  0.89648896587E+02 0.  0.
         23    2    4    4    0    0 -0.59361770641E+03 -0.34232477991E+03  0.75915335447E+03  0.10258229927E+04  0.80192022713E+02 0.  0.
          4    1    3    3  502    0  0.22475447521E+03  0.33384868727E+03  0.31060552992E+03  0.50837517183E+03  0.00000000000E+00 0. -1.
         -4    1    3    3    0  502  0.79111373802E+02  0.48980926361E+02  0.47191187225E+02  0.10432999935E+03  0.00000000000E+00 0.  1.
         13    1    5    5    0    0  0.28690296669E+02  0.85129164460E+01  0.21944993114E+02  0.37110451252E+02  0.00000000000E+00 0.  1.
        -13    1    5    5    0    0  0.26106156073E+03 -0.49017750164E+02  0.59225547705E+03  0.64909354366E+03  0.00000000000E+00 0. -1.
          4    1    6    6  503    0 -0.31075999315E+03 -0.14577564008E+03  0.33769490439E+03  0.48151859677E+03  0.00000000000E+00 0. -1.
         -4    1    6    6    0  503 -0.28285771326E+03 -0.19654913982E+03  0.42145845008E+03  0.54430439596E+03  0.00000000000E+00 0.  1.
<mgrwt>
<rscale>  0 0.15516112E+04</rscale>
<asrwt>0</asrwt>
<pdfrwt beam="1">  1        2 0.31199097E+00 0.15516112E+04</pdfrwt>
<pdfrwt beam="2">  1       -2 0.45660126E-01 0.15516112E+04</pdfrwt>
<totfact> 0.28228486E+01</totfact>
</mgrwt>
</event>
<event>
12    3  0.4634846E-008  0.1811368E+04  0.7818608E-02  0.8700278E-01
          1   -1    0    0  501    0  0.00000000000E+00  0.00000000000E+00  0.28874531621E+04  0.28874531621E+04  0.00000000000E+00 0. -1.
         -1   -1    0    0    0  501 -0.00000000000E+00 -0.00000000000E+00 -0.28407840474E+03  0.28407840474E+03  0.00000000000E+00 0.  1.
         23    2    1    2    0    0  0.13274539394E+03 -0.63278483184E+03  0.62525434330E+03  0.90386135180E+03  0.89355282113E+02 0.  0.
        254    2    1    2    0    0 -0.13274539394E+03  0.63278483184E+03  0.19781204141E+04  0.22676702151E+04  0.90073850181E+03 0.  0.
         23    2    4    4    0    0 -0.49686207145E+03  0.45535440624E+03  0.13867524082E+04  0.15445074946E+04  0.90562718821E+02 0.  0.
         23    2    4    4    0    0  0.36411667751E+03  0.17743042560E+03  0.59136800592E+03  0.72316272045E+03  0.95842010878E+02 0.  0.
          3    1    3    3  502    0  0.75426183973E+02 -0.23762593750E+03  0.19201790103E+03  0.31468407923E+03  0.00000000000E+00 0. -1.
         -3    1    3    3    0  502  0.57319209965E+02 -0.39515889434E+03  0.43323644227E+03  0.58917727258E+03  0.00000000000E+00 0.  1.
         13    1    5    5    0    0 -0.47842833428E+03  0.45560879682E+03  0.13605281871E+04  0.15124516503E+04  0.00000000000E+00 0.  1.
        -13    1    5    5    0    0 -0.18433737170E+02 -0.25439057998E+00  0.26224221104E+02  0.32055844290E+02  0.00000000000E+00 0. -1.
          4    1    6    6  503    0  0.12122071159E+03  0.13113844490E+02  0.19765367055E+03  0.23223567194E+03  0.00000000000E+00 0. -1.
         -4    1    6    6    0  503  0.24289596592E+03  0.16431658111E+03  0.39371433536E+03  0.49092704851E+03  0.00000000000E+00 0.  1.
<mgrwt>
<rscale>  0 0.18113675E+04</rscale>
<asrwt>0</asrwt>
<pdfrwt beam="1">  1        1 0.44422354E+00 0.18113675E+04</pdfrwt>
<pdfrwt beam="2">  1       -1 0.43704372E-01 0.18113675E+04</pdfrwt>
<totfact> 0.35256947E+00</totfact>
</mgrwt>
</event>
<event>
12    3  0.4634846E-008  0.2591463E+04  0.7818608E-02  0.8371107E-01
          2   -1    0    0  501    0  0.00000000000E+00  0.00000000000E+00  0.22103482238E+04  0.22103482238E+04  0.00000000000E+00 0. -1.
         -2   -1    0    0    0  501 -0.00000000000E+00 -0.00000000000E+00 -0.75957257463E+03  0.75957257463E+03  0.00000000000E+00 0.  1.
         23    2    1    2    0    0 -0.27897384326E+03  0.81092712288E+03 -0.21881084601E+03  0.89046754971E+03  0.98107425297E+02 0.  0.
        254    2    1    2    0    0  0.27897384326E+03 -0.81092712288E+03  0.16695864952E+04  0.20794532487E+04  0.89508521656E+03 0.  0.
         23    2    4    4    0    0  0.34547591775E+03 -0.28536729325E+03  0.17275642138E+03  0.48902062916E+03  0.92240407730E+02 0.  0.
         23    2    4    4    0    0 -0.66502074480E+02 -0.52555982964E+03  0.14968300738E+04  0.15904326196E+04  0.91323529977E+02 0.  0.
          4    1    3    3  502    0 -0.65686935785E+01  0.16536240182E+02 -0.21302884402E+02  0.27756221979E+02  0.00000000000E+00 0. -1.
         -4    1    3    3    0  502 -0.27240514969E+03  0.79439088270E+03 -0.19750796160E+03  0.86271132773E+03  0.00000000000E+00 0.  1.
         13    1    5    5    0    0  0.33096880411E+03 -0.25375586900E+03  0.17871863136E+03  0.45373201291E+03  0.00000000000E+00 0.  1.
        -13    1    5    5    0    0  0.14507113636E+02 -0.31611424252E+02 -0.59622099732E+01  0.35288616253E+02  0.00000000000E+00 0. -1.
          1    1    6    6  503    0 -0.18807818654E+02 -0.32589988648E+03  0.80133197021E+03  0.86527301850E+03  0.00000000000E+00 0. -1.
         -1    1    6    6    0  503 -0.47694255826E+02 -0.19965994315E+03  0.69549810357E+03  0.72515960105E+03  0.00000000000E+00 0.  1.
<mgrwt>
<rscale>  0 0.25914628E+04</rscale>
<asrwt>0</asrwt>
<pdfrwt beam="1">  1        2 0.34005357E+00 0.25914628E+04</pdfrwt>
<pdfrwt beam="2">  1       -2 0.11685732E+00 0.25914628E+04</pdfrwt>
<totfact> 0.25567819E+00</totfact>
</mgrwt>
</event>
<event>
12    3  0.4634846E-008  0.2382928E+04  0.7818608E-02  0.8445923E-01
         -1   -1    0    0    0  501 -0.00000000000E+00  0.00000000000E+00  0.13053858089E+04  0.13053858089E+04  0.00000000000E+00 0.  1.
          1   -1    0    0  501    0  0.00000000000E+00 -0.00000000000E+00 -0.10874846223E+04  0.10874846223E+04  0.00000000000E+00 0. -1.
         23    2    1    2    0    0  0.40325541627E+03  0.30416830569E+03 -0.79752702874E+03  0.94847235240E+03  0.91745042144E+02 0.  0.
        254    2    1    2    0    0 -0.40325541627E+03 -0.30416830569E+03  0.10154282154E+04  0.14443980788E+04  0.89445964724E+03 0.  0.
         23    2    4    4    0    0 -0.47270995301E+03 -0.90626112322E+02  0.10409712694E+03  0.50140468805E+03  0.94353894706E+02 0.  0.
         23    2    4    4    0    0  0.69454536748E+02 -0.21354219337E+03  0.91133108844E+03  0.94299339076E+03  0.91038350392E+02 0.  0.
          3    1    3    3  502    0  0.29521279706E+02 -0.28370691516E+01 -0.49291982588E+02  0.57526119844E+02  0.00000000000E+00 0.  1.
         -3    1    3    3    0  502  0.37373413656E+03  0.30700537484E+03 -0.74823504616E+03  0.89094623256E+03  0.00000000000E+00 0. -1.
         13    1    5    5    0    0 -0.34619576297E+03 -0.37428296462E+02  0.10651432239E+03  0.36413964978E+03  0.00000000000E+00 0. -1.
        -13    1    5    5    0    0 -0.12651419005E+03 -0.53197815860E+02 -0.24171954450E+01  0.13726503826E+03  0.00000000000E+00 0.  1.
          3    1    6    6  503    0  0.39054727380E+02 -0.59420046828E+02  0.15515904189E+03  0.17067613183E+03  0.00000000000E+00 0. -1.
         -3    1    6    6    0  503  0.30399809368E+02 -0.15412214654E+03  0.75617204655E+03  0.77231725893E+03  0.00000000000E+00 0.  1.
<mgrwt>
<rscale>  0 0.23829284E+04</rscale>
<asrwt>0</asrwt>
<pdfrwt beam="1">  1        1 0.16730533E+00 0.23829284E+04</pdfrwt>
<pdfrwt beam="2">  1       -1 0.20082859E+00 0.23829284E+04</pdfrwt>
<totfact> 0.17273151E+00</totfact>
</mgrwt>
</event>
<event>
12    3  0.4634846E-008  0.2059007E+04  0.7818608E-02  0.8579519E-01
          2   -1    0    0  501    0  0.00000000000E+00  0.00000000000E+00  0.31096894011E+04  0.31096894011E+04  0.00000000000E+00 0. -1.
         -2   -1    0    0    0  501 -0.00000000000E+00 -0.00000000000E+00 -0.34083057967E+03  0.34083057967E+03  0.00000000000E+00 0.  1.
         23    2    1    2    0    0 -0.76926599919E+03 -0.14573272567E+03  0.67726672021E+03  0.10392054811E+04  0.90827401199E+02 0.  0.
        254    2    1    2    0    0  0.76926599919E+03  0.14573272567E+03  0.20915921012E+04  0.24113144996E+04  0.90921498752E+03 0.  0.
         23    2    4    4    0    0  0.82858062143E+03  0.46205948716E+02  0.21043270788E+04  0.22639727390E+04  0.93269888843E+02 0.  0.
         23    2    4    4    0    0 -0.59314622234E+02  0.99526776955E+02 -0.12734977617E+02  0.14734176069E+03  0.90131077028E+02 0.  0.
          1    1    3    3  502    0 -0.15792212550E+03  0.56033978126E+01  0.14898085023E+03  0.21717755299E+03  0.00000000000E+00 0. -1.
         -1    1    3    3    0  502 -0.61134387369E+03 -0.15133612348E+03  0.52828586998E+03  0.82202792811E+03  0.00000000000E+00 0.  1.
         13    1    5    5    0    0  0.71580540227E+03  0.51792795632E+02  0.18909716456E+04  0.20225809334E+04  0.00000000000E+00 0. -1.
        -13    1    5    5    0    0  0.11277521916E+03 -0.55868469164E+01  0.21335543322E+03  0.24139180557E+03  0.00000000000E+00 0.  1.
          3    1    6    6  503    0 -0.73420148585E+02  0.10355776240E+03 -0.23557999916E+02  0.12911122233E+03  0.00000000000E+00 0. -1.
         -3    1    6    6    0  503  0.14105526351E+02 -0.40309854416E+01  0.10823022299E+02  0.18230538362E+02  0.00000000000E+00 0.  1.
<mgrwt>
<rscale>  0 0.20590068E+04</rscale>
<asrwt>0</asrwt>
<pdfrwt beam="1">  1        2 0.47841373E+00 0.20590068E+04</pdfrwt>
<pdfrwt beam="2">  1       -2 0.52435476E-01 0.20590068E+04</pdfrwt>
<totfact> 0.47200840E+00</totfact>
</mgrwt>
</event>
<event>
12    3  0.4634846E-008  0.1223773E+04  0.7818608E-02  0.9092299E-01
         -1   -1    0    0    0  501 -0.00000000000E+00  0.00000000000E+00  0.23292667275E+03  0.23292667275E+03  0.00000000000E+00 0.  1.
          1   -1    0    0  501    0  0.00000000000E+00 -0.00000000000E+00 -0.16073951338E+04  0.16073951338E+04  0.00000000000E+00 0. -1.
         23    2    1    2    0    0  0.43471275843E+02 -0.24350355083E+03 -0.48546142061E+03  0.55279165645E+03  0.93392148760E+02 0.  0.
        254    2    1    2    0    0 -0.43471275843E+02  0.24350355083E+03 -0.88900704047E+03  0.12875301501E+04  0.89789567232E+03 0.  0.
         23    2    4    4    0    0  0.29208184481E+03  0.31033681641E+03 -0.13594805723E+03  0.45493629188E+03  0.82851745429E+02 0.  0.
         23    2    4    4    0    0 -0.33555312065E+03 -0.66833265577E+02 -0.75305898324E+03  0.83259385824E+03  0.95142621244E+02 0.  0.
          1    1    3    3  502    0  0.29857192486E+02 -0.13202733117E+03 -0.16616574689E+03  0.21432154245E+03  0.00000000000E+00 0. -1.
         -1    1    3    3    0  502  0.13614083357E+02 -0.11147621966E+03 -0.31929567372E+03  0.33847011400E+03  0.00000000000E+00 0.  1.
         13    1    5    5    0    0  0.16462228414E+03  0.22984927019E+03 -0.10074930508E+03  0.30013597904E+03  0.00000000000E+00 0. -1.
        -13    1    5    5    0    0  0.12745956067E+03  0.80487546221E+02 -0.35198752154E+02  0.15480031284E+03  0.00000000000E+00 0.  1.
          4    1    6    6  503    0 -0.11538786470E+03 -0.60806942114E+02 -0.21893663996E+03  0.25484327703E+03  0.00000000000E+00 0. -1.
         -4    1    6    6    0  503 -0.22016525595E+03 -0.60263234634E+01 -0.53412234328E+03  0.57775058121E+03  0.00000000000E+00 0.  1.
<mgrwt>
<rscale>  0 0.12237732E+04</rscale>
<asrwt>0</asrwt>
<pdfrwt beam="1">  1        1 0.24729156E+00 0.12237732E+04</pdfrwt>
<pdfrwt beam="2">  1       -1 0.35834872E-01 0.12237732E+04</pdfrwt>
<totfact> 0.40530497E+01</totfact>
</mgrwt>
</event>
<event>
12    3  0.4634846E-008  0.1310179E+04  0.7818608E-02  0.9021532E-01
         -2   -1    0    0    0  501 -0.00000000000E+00  0.00000000000E+00  0.24549597556E+03  0.24549597556E+03  0.00000000000E+00 0. -1.
          2   -1    0    0  501    0  0.00000000000E+00 -0.00000000000E+00 -0.17480622908E+04  0.17480622908E+04  0.00000000000E+00 0.  1.
         23    2    1    2    0    0 -0.19020382102E+03 -0.21204697638E+03 -0.66999202457E+03  0.73371438950E+03  0.91137690608E+02 0.  0.
        254    2    1    2    0    0  0.19020382102E+03  0.21204697638E+03 -0.83257429070E+03  0.12598438769E+04  0.90160148120E+03 0.  0.
         23    2    4    4    0    0  0.92831768089E+02 -0.19016066572E+03 -0.80385019262E+03  0.83602014485E+03  0.89306967566E+02 0.  0.
         23    2    4    4    0    0  0.97372052936E+02  0.40220764210E+03 -0.28724098076E+02  0.42382373205E+03  0.86886005693E+02 0.  0.
          3    1    3    3  502    0 -0.97707054222E+02 -0.13530468071E+03 -0.28362297467E+03  0.32908360158E+03  0.00000000000E+00 0. -1.
         -3    1    3    3    0  502 -0.92496766802E+02 -0.76742295661E+02 -0.38636904990E+03  0.40463078792E+03  0.00000000000E+00 0.  1.
         13    1    5    5    0    0  0.42469082904E+02 -0.13598539188E+03 -0.64843503743E+03  0.66390032955E+03  0.00000000000E+00 0. -1.
        -13    1    5    5    0    0  0.50362685184E+02 -0.54175273840E+02 -0.15541515519E+03  0.17211981530E+03  0.00000000000E+00 0.  1.
          2    1    6    6  503    0 -0.14794559508E+02  0.79109349096E+02 -0.12298553680E+02  0.81415124689E+02  0.00000000000E+00 0.  1.
         -2    1    6    6    0  503  0.11216661244E+03  0.32309829300E+03 -0.16425544397E+02  0.34240860736E+03  0.00000000000E+00 0. -1.
<mgrwt>
<rscale>  0 0.13101790E+04</rscale>
<asrwt>0</asrwt>
<pdfrwt beam="1">  1        2 0.26893267E+00 0.13101790E+04</pdfrwt>
<pdfrwt beam="2">  1       -2 0.37768610E-01 0.13101790E+04</pdfrwt>
<totfact> 0.59745096E+01</totfact>
</mgrwt>
</event>
<event>
12    3  0.4634846E-008  0.2286417E+04  0.7818608E-02  0.8483296E-01
         -1   -1    0    0    0  501 -0.00000000000E+00  0.00000000000E+00  0.10711266539E+04  0.10711266539E+04  0.00000000000E+00 0.  1.
          1   -1    0    0  501    0  0.00000000000E+00 -0.00000000000E+00 -0.12201412373E+04  0.12201412373E+04  0.00000000000E+00 0. -1.
         23    2    1    2    0    0 -0.93632307261E+03  0.36659442015E+01  0.15418188873E+03  0.95334529721E+03  0.91547066834E+02 0.  0.
        254    2    1    2    0    0  0.93632307261E+03 -0.36659442015E+01 -0.30319647204E+03  0.13379225940E+04  0.90630813270E+03 0.  0.
         23    2    4    4    0    0  0.22892936056E+03  0.20678564708E+03 -0.47680410729E+03  0.57404636235E+03  0.83774181159E+02 0.  0.
         23    2    4    4    0    0  0.70739371205E+03 -0.21045159128E+03  0.17360763525E+03  0.76387623164E+03  0.93121158344E+02 0.  0.
          3    1    3    3  502    0 -0.41591678181E+02 -0.13337978320E+02 -0.64449002659E+01  0.44150946751E+02  0.00000000000E+00 0. -1.
         -3    1    3    3    0  502 -0.89473139443E+03  0.17003922522E+02  0.16062678900E+03  0.90919435046E+03  0.00000000000E+00 0.  1.
         13    1    5    5    0    0  0.20956021629E+03  0.19984135088E+03 -0.39548060561E+03  0.49016013627E+03  0.00000000000E+00 0.  1.
        -13    1    5    5    0    0  0.19369144270E+02  0.69442961929E+01 -0.81323501685E+02  0.83886226079E+02  0.00000000000E+00 0. -1.
          4    1    6    6  503    0  0.10330576586E+03 -0.86064188594E+01  0.49932008101E+02  0.11506240541E+03  0.00000000000E+00 0. -1.
         -4    1    6    6    0  503  0.60408794619E+03 -0.20184517242E+03  0.12367562715E+03  0.64881382624E+03  0.00000000000E+00 0.  1.
<mgrwt>
<rscale>  0 0.22864171E+04</rscale>
<asrwt>0</asrwt>
<pdfrwt beam="1">  1        1 0.18771404E+00 0.22864171E+04</pdfrwt>
<pdfrwt beam="2">  1       -1 0.16478872E+00 0.22864171E+04</pdfrwt>
<totfact> 0.25143925E+00</totfact>
</mgrwt>
</event>
<event>
12    3  0.4634846E-008  0.1374470E+04  0.7818608E-02  0.8972508E-01
          2   -1    0    0  501    0  0.00000000000E+00  0.00000000000E+00  0.17312651823E+04  0.17312651823E+04  0.00000000000E+00 0.  1.
         -2   -1    0    0    0  501 -0.00000000000E+00 -0.00000000000E+00 -0.27280181174E+03  0.27280181174E+03  0.00000000000E+00 0. -1.
         23    2    1    2    0    0 -0.31411418533E+02 -0.26999852110E+03  0.27439178397E+02  0.28819255039E+03  0.91739626011E+02 0.  0.
        254    2    1    2    0    0  0.31411418533E+02  0.26999852110E+03  0.14310241922E+04  0.17158744437E+04  0.90692281325E+03 0.  0.
         23    2    4    4    0    0 -0.34419027940E+03  0.35167654441E+03  0.50930937109E+03  0.71391429058E+03  0.90190013318E+02 0.  0.
         23    2    4    4    0    0  0.37560169794E+03 -0.81678023305E+02  0.92171482109E+03  0.10019601531E+04  0.81351102925E+02 0.  0.
          4    1    3    3  502    0  0.24571550418E+00 -0.19524775695E+03 -0.16396558473E+02  0.19593517831E+03  0.00000000000E+00 0. -1.
         -4    1    3    3    0  502 -0.31657134037E+02 -0.74750764148E+02  0.43835736870E+02  0.92257372080E+02  0.00000000000E+00 0.  1.
         13    1    5    5    0    0 -0.26092991234E+03  0.26738806300E+03  0.32704469575E+03  0.49652696644E+03  0.00000000000E+00 0. -1.
        -13    1    5    5    0    0 -0.83260367067E+02  0.84288481407E+02  0.18226467533E+03  0.21738732414E+03  0.00000000000E+00 0.  1.
          1    1    6    6  503    0  0.29738252902E+03 -0.30937448178E+02  0.72672884439E+03  0.78582969372E+03  0.00000000000E+00 0. -1.
         -1    1    6    6    0  503  0.78219168914E+02 -0.50740575127E+02  0.19498597671E+03  0.21613045936E+03  0.00000000000E+00 0.  1.
<mgrwt>
<rscale>  0 0.13744705E+04</rscale>
<asrwt>0</asrwt>
<pdfrwt beam="1">  1        2 0.26634848E+00 0.13744705E+04</pdfrwt>
<pdfrwt beam="2">  1       -2 0.41969511E-01 0.13744705E+04</pdfrwt>
<totfact> 0.49424579E+01</totfact>
</mgrwt>
</event>
<event>
12    3  0.4634846E-008  0.1107895E+04  0.7818608E-02  0.9197531E-01
         -1   -1    0    0    0  501 -0.00000000000E+00  0.00000000000E+00  0.64297170474E+03  0.64297170474E+03  0.00000000000E+00 0.  1.
          1   -1    0    0  501    0  0.00000000000E+00 -0.00000000000E+00 -0.47724967925E+03  0.47724967925E+03  0.00000000000E+00 0. -1.
         23    2    1    2    0    0  0.16931966849E+03  0.23204971034E+02  0.40655156771E+01  0.19379038257E+03  0.91271918684E+02 0.  0.
        254    2    1    2    0    0 -0.16931966849E+03 -0.23204971034E+02  0.16165650982E+03  0.92643100142E+03  0.89606581924E+03 0.  0.
         23    2    4    4    0    0 -0.22651087811E+03  0.10249248975E+03 -0.32027022066E+03  0.41658430046E+03  0.95695228673E+02 0.  0.
         23    2    4    4    0    0  0.57191209620E+02 -0.12569746079E+03  0.48192673047E+03  0.50984670097E+03  0.92841794662E+02 0.  0.
          2    1    3    3  502    0  0.15580700096E+03  0.16805962928E+02 -0.27274634256E+02  0.15906655089E+03  0.00000000000E+00 0. -1.
         -2    1    3    3    0  502  0.13512667527E+02  0.63990081060E+01  0.31340149934E+02  0.34723831676E+02  0.00000000000E+00 0.  1.
         13    1    5    5    0    0 -0.16570332412E+03  0.10527416504E+03 -0.19197464612E+03  0.27458060056E+03  0.00000000000E+00 0.  1.
        -13    1    5    5    0    0 -0.60807553985E+02 -0.27816752878E+01 -0.12829557454E+03  0.14200369990E+03  0.00000000000E+00 0. -1.
          3    1    6    6  503    0 -0.29457630783E+01  0.11716674868E+02  0.14132345829E+02  0.18592503562E+02  0.00000000000E+00 0. -1.
         -3    1    6    6    0  503  0.60136972698E+02 -0.13741413566E+03  0.46779438464E+03  0.49125419740E+03  0.00000000000E+00 0.  1.
<mgrwt>
<rscale>  0 0.11078954E+04</rscale>
<asrwt>0</asrwt>
<pdfrwt beam="1">  1        1 0.73423028E-01 0.11078954E+04</pdfrwt>
<pdfrwt beam="2">  1       -1 0.98918724E-01 0.11078954E+04</pdfrwt>
<totfact> 0.46016290E+01</totfact>
</mgrwt>
</event>
<event>
12    3  0.4634846E-008  0.4205101E+04  0.7818608E-02  0.7964403E-01
          1   -1    0    0  501    0  0.00000000000E+00  0.00000000000E+00  0.30482203031E+04  0.30482203031E+04  0.00000000000E+00 0. -1.
         -1   -1    0    0    0  501 -0.00000000000E+00 -0.00000000000E+00 -0.14502622869E+04  0.14502622869E+04  0.00000000000E+00 0.  1.
         23    2    1    2    0    0  0.99080762837E+03 -0.16287683968E+03 -0.10975955979E+04  0.14904687000E+04  0.92478257050E+02 0.  0.
        254    2    1    2    0    0 -0.99080762837E+03  0.16287683968E+03  0.26955536140E+04  0.30080138899E+04  0.87972135067E+03 0.  0.
         23    2    4    4    0    0 -0.84469172858E+03  0.11363884795E+03  0.26954564039E+04  0.28284818600E+04  0.91686982587E+02 0.  0.
         23    2    4    4    0    0 -0.14611589979E+03  0.49237991730E+02  0.97210090045E-01  0.17953202997E+03  0.91964690683E+02 0.  0.
          1    1    3    3  502    0  0.28154741074E+03 -0.88184622767E+02 -0.33249243783E+03  0.44451849613E+03  0.00000000000E+00 0. -1.
         -1    1    3    3    0  502  0.70926021763E+03 -0.74692216912E+02 -0.76510316004E+03  0.10459502039E+04  0.00000000000E+00 0.  1.
         13    1    5    5    0    0 -0.30577402097E+02  0.10294335996E+02  0.17004922479E+03  0.17308289841E+03  0.00000000000E+00 0.  1.
        -13    1    5    5    0    0 -0.81411432648E+03  0.10334451195E+03  0.25254071791E+04  0.26553989616E+04  0.00000000000E+00 0. -1.
          3    1    6    6  503    0 -0.13464301094E+03  0.66753574916E+02 -0.18639962788E+02  0.15143390760E+03  0.00000000000E+00 0. -1.
         -3    1    6    6    0  503 -0.11472888852E+02 -0.17515583186E+02  0.18737172878E+02  0.28098122364E+02  0.00000000000E+00 0.  1.
<mgrwt>
<rscale>  0 0.42051012E+04</rscale>
<asrwt>0</asrwt>
<pdfrwt beam="1">  1        1 0.46895697E+00 0.42051012E+04</pdfrwt>
<pdfrwt beam="2">  1       -1 0.22311727E+00 0.42051012E+04</pdfrwt>
<totfact> 0.44464499E-02</totfact>
</mgrwt>
</event>
<event>
12    3  0.4634846E-008  0.1139204E+04  0.7818608E-02  0.9167801E-01
         -1   -1    0    0    0  501 -0.00000000000E+00  0.00000000000E+00  0.31215619300E+03  0.31215619300E+03  0.00000000000E+00 0.  1.
          1   -1    0    0  501    0  0.00000000000E+00 -0.00000000000E+00 -0.10393722104E+04  0.10393722104E+04  0.00000000000E+00 0. -1.
         23    2    1    2    0    0  0.13517101324E+03 -0.22302391808E+02  0.77061988797E+02  0.18254721808E+03  0.92824227509E+02 0.  0.
        254    2    1    2    0    0 -0.13517101324E+03  0.22302391808E+02 -0.80427800620E+03  0.11689811853E+04  0.83718892782E+03 0.  0.
         23    2    4    4    0    0 -0.20273759640E+02 -0.39395157284E+03 -0.41852384709E+03  0.58247361234E+03  0.92219474156E+02 0.  0.
         23    2    4    4    0    0 -0.11489725360E+03  0.41625396465E+03 -0.38575415911E+03  0.58650757298E+03  0.93360162354E+02 0.  0.
          2    1    3    3  502    0  0.13133136825E+03 -0.94973801137E+01  0.93400486906E+02  0.16143661130E+03  0.00000000000E+00 0.  1.
         -2    1    3    3    0  502  0.38396449891E+01 -0.12805011694E+02 -0.16338498109E+02  0.21110606779E+02  0.00000000000E+00 0. -1.
         13    1    5    5    0    0  0.22808683863E+02 -0.36620879777E+02 -0.64685014895E+02  0.77752659421E+02  0.00000000000E+00 0.  1.
        -13    1    5    5    0    0 -0.43082443503E+02 -0.35733069307E+03 -0.35383883219E+03  0.50472095292E+03  0.00000000000E+00 0. -1.
          4    1    6    6  503    0 -0.34560922401E+02  0.29046470902E+03 -0.25221830591E+03  0.38623603972E+03  0.00000000000E+00 0. -1.
         -4    1    6    6    0  503 -0.80336331195E+02  0.12578925563E+03 -0.13353585320E+03  0.20027153325E+03  0.00000000000E+00 0.  1.
<mgrwt>
<rscale>  0 0.11392041E+04</rscale>
<asrwt>0</asrwt>
<pdfrwt beam="1">  1        1 0.15990342E+00 0.11392041E+04</pdfrwt>
<pdfrwt beam="2">  1       -1 0.48024030E-01 0.11392041E+04</pdfrwt>
<totfact> 0.60712965E+01</totfact>
</mgrwt>
</event>
<event>
12    3  0.4634846E-008  0.1473856E+04  0.7818608E-02  0.8902027E-01
          2   -1    0    0  501    0  0.00000000000E+00  0.00000000000E+00  0.27027353713E+04  0.27027353713E+04  0.00000000000E+00 0. -1.
         -2   -1    0    0    0  501 -0.00000000000E+00 -0.00000000000E+00 -0.20093084242E+03  0.20093084242E+03  0.00000000000E+00 0.  1.
         23    2    1    2    0    0  0.75622981929E+02 -0.31279547351E+03  0.14831887144E+04  0.15203968701E+04  0.90543007701E+02 0.  0.
        254    2    1    2    0    0 -0.75622981929E+02  0.31279547351E+03  0.10186158144E+04  0.13832693436E+04  0.87880376421E+03 0.  0.
         23    2    4    4    0    0 -0.38591725861E+03 -0.92952151094E+02  0.34926933130E+03  0.53656417790E+03  0.91322605819E+02 0.  0.
         23    2    4    4    0    0  0.31029427668E+03  0.40574762460E+03  0.66934648308E+03  0.84670516570E+03  0.89281858138E+02 0.  0.
          3    1    3    3  502    0  0.78191789340E+02 -0.31733116106E+03  0.14743168124E+04  0.15101069780E+04  0.00000000000E+00 0. -1.
         -3    1    3    3    0  502 -0.25688074111E+01  0.45356875483E+01  0.88719020846E+01  0.10289892111E+02  0.00000000000E+00 0.  1.
         13    1    5    5    0    0 -0.19128825706E+03 -0.90861244134E+02  0.16403799667E+03  0.26787203536E+03  0.00000000000E+00 0.  1.
        -13    1    5    5    0    0 -0.19462900155E+03 -0.20909069597E+01  0.18523133463E+03  0.26869214254E+03  0.00000000000E+00 0. -1.
          3    1    6    6  503    0  0.84366450853E+02  0.76237798291E+02  0.10168618815E+03  0.15254501230E+03  0.00000000000E+00 0. -1.
         -3    1    6    6    0  503  0.22592782583E+03  0.32950982631E+03  0.56766029493E+03  0.69416015340E+03  0.00000000000E+00 0.  1.
<mgrwt>
<rscale>  0 0.14738560E+04</rscale>
<asrwt>0</asrwt>
<pdfrwt beam="1">  1        2 0.41580542E+00 0.14738560E+04</pdfrwt>
<pdfrwt beam="2">  1       -2 0.30912439E-01 0.14738560E+04</pdfrwt>
<totfact> 0.24946068E+01</totfact>
</mgrwt>
</event>
<event>
12    3  0.4634846E-008  0.3625155E+04  0.7818608E-02  0.8084754E-01
          2   -1    0    0  501    0  0.00000000000E+00  0.00000000000E+00  0.33477198750E+04  0.33477198750E+04  0.00000000000E+00 0. -1.
         -2   -1    0    0    0  501 -0.00000000000E+00 -0.00000000000E+00 -0.98139562058E+03  0.98139562058E+03  0.00000000000E+00 0.  1.
         23    2    1    2    0    0 -0.70790095223E+03 -0.57997541430E+03  0.28225913543E+04  0.29686359866E+04  0.91007847589E+02 0.  0.
        254    2    1    2    0    0  0.70790095223E+03  0.57997541430E+03 -0.45626709986E+03  0.13604795090E+04  0.89734585783E+03 0.  0.
         23    2    4    4    0    0  0.86174216505E+03  0.26255713443E+03 -0.23691398774E+03  0.93579239170E+03  0.89684752912E+02 0.  0.
         23    2    4    4    0    0 -0.15384121283E+03  0.31741827988E+03 -0.21935311211E+03  0.42468711727E+03  0.88441373911E+02 0.  0.
          1    1    3    3  502    0 -0.66867451169E+03 -0.55925461637E+03  0.26188506730E+04  0.27601214060E+04  0.00000000000E+00 0. -1.
         -1    1    3    3    0  502 -0.39226440538E+02 -0.20720797931E+02  0.20374068133E+03  0.20851458062E+03  0.00000000000E+00 0.  1.
         13    1    5    5    0    0  0.24817017419E+02  0.24272733830E+02 -0.37866153956E+01  0.34919742515E+02  0.00000000000E+00 0.  1.
        -13    1    5    5    0    0  0.83692514764E+03  0.23828440060E+03 -0.23312737235E+03  0.90087264919E+03  0.00000000000E+00 0. -1.
          3    1    6    6  503    0 -0.16518281263E+03  0.30426795235E+03 -0.20702109572E+03  0.40338825279E+03  0.00000000000E+00 0. -1.
         -3    1    6    6    0  503  0.11341599798E+02  0.13150327528E+02 -0.12332016390E+02  0.21298864484E+02  0.00000000000E+00 0.  1.
<mgrwt>
<rscale>  0 0.36251552E+04</rscale>
<asrwt>0</asrwt>
<pdfrwt beam="1">  1        2 0.51503382E+00 0.36251552E+04</pdfrwt>
<pdfrwt beam="2">  1       -2 0.15098394E+00 0.36251552E+04</pdfrwt>
<totfact> 0.24746262E-01</totfact>
</mgrwt>
</event>
<event>
12    3  0.4634846E-008  0.1707166E+04  0.7818608E-02  0.8757288E-01
         -2   -1    0    0    0  501 -0.00000000000E+00  0.00000000000E+00  0.23310370752E+03  0.23310370752E+03  0.00000000000E+00 0.  1.
          2   -1    0    0  501    0  0.00000000000E+00 -0.00000000000E+00 -0.31256654007E+04  0.31256654007E+04  0.00000000000E+00 0. -1.
         23    2    1    2    0    0  0.39412964391E+03  0.30120323687E+03 -0.17730856620E+04  0.18434275467E+04  0.91273155735E+02 0.  0.
        254    2    1    2    0    0 -0.39412964391E+03 -0.30120323687E+03 -0.11194760312E+04  0.15153415615E+04  0.89273282545E+03 0.  0.
         23    2    4    4    0    0 -0.30274287821E+02  0.19855589562E+03  0.14044808684E+02  0.22091449279E+03  0.90911936970E+02 0.  0.
         23    2    4    4    0    0 -0.36385535609E+03 -0.49975913249E+03 -0.11335208399E+04  0.12944270688E+04  0.92314848451E+02 0.  0.
          4    1    3    3  502    0  0.27206108435E+03  0.22060592156E+03 -0.13875216879E+04  0.14310487905E+04  0.00000000000E+00 0. -1.
         -4    1    3    3    0  502  0.12206855956E+03  0.80597315308E+02 -0.38556397408E+03  0.41237875622E+03  0.00000000000E+00 0.  1.
         13    1    5    5    0    0 -0.40631539337E+02  0.17439783451E+03 -0.17421923290E+02  0.17991400747E+03  0.00000000000E+00 0. -1.
        -13    1    5    5    0    0  0.10357251517E+02  0.24158061112E+02  0.31466731974E+02  0.41000485324E+02  0.00000000000E+00 0.  1.
          2    1    6    6  503    0 -0.30424130236E+03 -0.35200423405E+03 -0.82263991344E+03  0.94509585654E+03  0.00000000000E+00 0. -1.
         -2    1    6    6    0  503 -0.59614053731E+02 -0.14775489844E+03 -0.31088092643E+03  0.34933121222E+03  0.00000000000E+00 0.  1.
<mgrwt>
<rscale>  0 0.17071663E+04</rscale>
<asrwt>0</asrwt>
<pdfrwt beam="1">  1        2 0.48087158E+00 0.17071663E+04</pdfrwt>
<pdfrwt beam="2">  1       -2 0.35862110E-01 0.17071663E+04</pdfrwt>
<totfact> 0.10133338E+01</totfact>
</mgrwt>
</event>
<event>
12    3  0.4634846E-008  0.2732418E+04  0.7818608E-02  0.8324563E-01
         -1   -1    0    0    0  501 -0.00000000000E+00  0.00000000000E+00  0.22659425021E+04  0.22659425021E+04  0.00000000000E+00 0.  1.
          1   -1    0    0  501    0  0.00000000000E+00 -0.00000000000E+00 -0.82373070094E+03  0.82373070094E+03  0.00000000000E+00 0. -1.
         23    2    1    2    0    0  0.71266149595E+03 -0.95980372116E+03  0.39924421770E+03  0.12635025983E+04  0.89068959711E+02 0.  0.
        254    2    1    2    0    0 -0.71266149595E+03  0.95980372116E+03  0.10429675835E+04  0.18261706047E+04  0.90443800590E+03 0.  0.
         23    2    4    4    0    0 -0.47163375180E+03  0.14473626269E+03  0.78778921182E+03  0.93397238355E+03  0.91135006459E+02 0.  0.
         23    2    4    4    0    0 -0.24102774414E+03  0.81506745848E+03  0.25517837165E+03  0.89219822120E+03  0.92045256470E+02 0.  0.
          3    1    3    3  502    0  0.58654635694E+03 -0.84192493423E+03  0.33799889028E+03  0.10803321126E+04  0.00000000000E+00 0. -1.
         -3    1    3    3    0  502  0.12611513901E+03 -0.11787878693E+03  0.61245327422E+02  0.18317048568E+03  0.00000000000E+00 0.  1.
         13    1    5    5    0    0 -0.17096470497E+02  0.13238438850E+01  0.72013728395E+02  0.74027150042E+02  0.00000000000E+00 0. -1.
        -13    1    5    5    0    0 -0.45453728131E+03  0.14341241880E+03  0.71577548342E+03  0.85994523351E+03  0.00000000000E+00 0.  1.
          4    1    6    6  503    0 -0.54547231862E+02  0.11325849709E+03  0.65126835866E+02  0.14157822014E+03  0.00000000000E+00 0. -1.
         -4    1    6    6    0  503 -0.18648051228E+03  0.70180896138E+03  0.19005153578E+03  0.75062000106E+03  0.00000000000E+00 0.  1.
<mgrwt>
<rscale>  0 0.27324175E+04</rscale>
<asrwt>0</asrwt>
<pdfrwt beam="1">  1        1 0.12672780E+00 0.27324175E+04</pdfrwt>
<pdfrwt beam="2">  1       -1 0.34860654E+00 0.27324175E+04</pdfrwt>
<totfact> 0.29141292E-01</totfact>
</mgrwt>
</event>
<event>
12    3  0.4634846E-008  0.1042459E+04  0.7818608E-02  0.9263165E-01
          2   -1    0    0  501    0  0.00000000000E+00  0.00000000000E+00  0.28288403569E+04  0.28288403569E+04  0.00000000000E+00 0. -1.
         -2   -1    0    0    0  501 -0.00000000000E+00 -0.00000000000E+00 -0.96039374630E+02  0.96039374630E+02  0.00000000000E+00 0.  1.
         23    2    1    2    0    0 -0.13803033615E+03 -0.50597905518E+02  0.64684167813E+03  0.66944222711E+03  0.90200981823E+02 0.  0.
        254    2    1    2    0    0  0.13803033615E+03  0.50597905518E+02  0.20859593041E+04  0.22554375044E+04  0.84507963891E+03 0.  0.
         23    2    4    4    0    0  0.44809347865E+03 -0.33723644861E+02  0.16093868709E+04  0.16734992632E+04  0.92458822593E+02 0.  0.
         23    2    4    4    0    0 -0.31006314250E+03  0.84321550379E+02  0.47657243329E+03  0.58193824127E+03  0.91003056504E+02 0.  0.
          2    1    3    3  502    0 -0.14164859547E+03 -0.44934542080E+02  0.64575630120E+03  0.66263461894E+03  0.00000000000E+00 0. -1.
         -2    1    3    3    0  502  0.36182593168E+01 -0.56633634377E+01  0.10853769305E+01  0.68076081697E+01  0.00000000000E+00 0.  1.
         13    1    5    5    0    0  0.27721322630E+03 -0.64238810477E+02  0.95648752395E+03  0.99791892511E+03  0.00000000000E+00 0.  1.
        -13    1    5    5    0    0  0.17088025235E+03  0.30515165616E+02  0.65289934691E+03  0.67558033806E+03  0.00000000000E+00 0. -1.
          2    1    6    6  503    0 -0.16683082626E+03  0.86737277731E+02  0.30642296258E+03  0.35951482853E+03  0.00000000000E+00 0. -1.
         -2    1    6    6    0  503 -0.14323231623E+03 -0.24157273522E+01  0.17014947071E+03  0.22242341274E+03  0.00000000000E+00 0.  1.
<mgrwt>
<rscale>  0 0.10424587E+04</rscale>
<asrwt>0</asrwt>
<pdfrwt beam="1">  1        2 0.43520615E+00 0.10424587E+04</pdfrwt>
<pdfrwt beam="2">  1       -2 0.14775291E-01 0.10424587E+04</pdfrwt>
<totfact> 0.81116630E+01</totfact>
</mgrwt>
</event>
<event>
12    3  0.4634846E-008  0.1431412E+04  0.7818608E-02  0.8931390E-01
         -2   -1    0    0    0  501 -0.00000000000E+00  0.00000000000E+00  0.20051343016E+03  0.20051343016E+03  0.00000000000E+00 0. -1.
          2   -1    0    0  501    0  0.00000000000E+00 -0.00000000000E+00 -0.25546163425E+04  0.25546163425E+04  0.00000000000E+00 0.  1.
         23    2    1    2    0    0  0.34760182692E+03 -0.23493895425E+03 -0.78639332305E+03  0.89582402901E+03  0.89793597207E+02 0.  0.
        254    2    1    2    0    0 -0.34760182692E+03  0.23493895425E+03 -0.15677095893E+04  0.18593057436E+04  0.90734841695E+03 0.  0.
         23    2    4    4    0    0 -0.51006834329E+03  0.15378131280E+03 -0.15652771345E+04  0.16559574396E+04  0.91017178958E+02 0.  0.
         23    2    4    4    0    0  0.16246651637E+03  0.81157641451E+02 -0.24324547518E+01  0.20334830406E+03  0.91447713042E+02 0.  0.
          3    1    3    3  502    0  0.22201428344E+01  0.16053319356E+01  0.18575526052E+01  0.33100795322E+01  0.00000000000E+00 0. -1.
         -3    1    3    3    0  502  0.34538168409E+03 -0.23654428619E+03 -0.78825087566E+03  0.89251394948E+03  0.00000000000E+00 0.  1.
         13    1    5    5    0    0 -0.38409929392E+03  0.12291610534E+03 -0.10549301541E+04  0.11293884481E+04  0.00000000000E+00 0. -1.
        -13    1    5    5    0    0 -0.12596904937E+03  0.30865207467E+02 -0.51034698037E+03  0.52656899150E+03  0.00000000000E+00 0.  1.
          3    1    6    6  503    0  0.85847013041E+02  0.46560836926E+02  0.44217049947E+02  0.10720433149E+03  0.00000000000E+00 0. -1.
         -3    1    6    6    0  503  0.76619503329E+02  0.34596804525E+02 -0.46649504699E+02  0.96143972574E+02  0.00000000000E+00 0.  1.
<mgrwt>
<rscale>  0 0.14314117E+04</rscale>
<asrwt>0</asrwt>
<pdfrwt beam="1">  1        2 0.39301787E+00 0.14314117E+04</pdfrwt>
<pdfrwt beam="2">  1       -2 0.30848222E-01 0.14314117E+04</pdfrwt>
<totfact> 0.30696770E+01</totfact>
</mgrwt>
</event>
<event>
12    3  0.4634846E-008  0.1612219E+04  0.7818608E-02  0.8813077E-01
          2   -1    0    0  501    0  0.00000000000E+00  0.00000000000E+00  0.33456920074E+04  0.33456920074E+04  0.00000000000E+00 0. -1.
         -2   -1    0    0    0  501 -0.00000000000E+00 -0.00000000000E+00 -0.19422354825E+03  0.19422354825E+03  0.00000000000E+00 0.  1.
         23    2    1    2    0    0  0.51008457257E+03  0.19042531625E+03  0.12647325956E+04  0.13799810393E+04  0.91384123941E+02 0.  0.
        254    2    1    2    0    0 -0.51008457257E+03 -0.19042531625E+03  0.18867358635E+04  0.21599345164E+04  0.89949809561E+03 0.  0.
         23    2    4    4    0    0  0.11277692829E+03 -0.31134115676E+03  0.32468731457E+03  0.47139981954E+03  0.84522104623E+02 0.  0.
         23    2    4    4    0    0 -0.62286150085E+03  0.12091584051E+03  0.15620485490E+04  0.16885346968E+04  0.92610276674E+02 0.  0.
          3    1    3    3  502    0  0.35232460189E+03  0.99199943731E+02  0.76495584305E+03  0.84801574027E+03  0.00000000000E+00 0. -1.
         -3    1    3    3    0  502  0.15775997068E+03  0.91225372515E+02  0.49977675258E+03  0.53196529901E+03  0.00000000000E+00 0.  1.
         13    1    5    5    0    0  0.14831546894E+02 -0.35665096678E+02  0.65211517358E+01  0.39172685947E+02  0.00000000000E+00 0.  1.
        -13    1    5    5    0    0  0.97945381392E+02 -0.27567606008E+03  0.31816616283E+03  0.43222713359E+03  0.00000000000E+00 0. -1.
          4    1    6    6  503    0 -0.50516642197E+03  0.69009865259E+02  0.13058835808E+04  0.14018870860E+04  0.00000000000E+00 0. -1.
         -4    1    6    6    0  503 -0.11769507888E+03  0.51905975256E+02  0.25616496820E+03  0.28664761082E+03  0.00000000000E+00 0.  1.
<mgrwt>
<rscale>  0 0.16122186E+04</rscale>
<asrwt>0</asrwt>
<pdfrwt beam="1">  1        2 0.51472180E+00 0.16122186E+04</pdfrwt>
<pdfrwt beam="2">  1       -2 0.29880548E-01 0.16122186E+04</pdfrwt>
<totfact> 0.10371974E+01</totfact>
</mgrwt>
</event>
<event>
12    3  0.4634846E-008  0.1448620E+04  0.7818608E-02  0.8919358E-01
          2   -1    0    0  501    0  0.00000000000E+00  0.00000000000E+00  0.81497115486E+03  0.81497115486E+03  0.00000000000E+00 0. -1.
         -2   -1    0    0    0  501 -0.00000000000E+00 -0.00000000000E+00 -0.64373459593E+03  0.64373459593E+03  0.00000000000E+00 0.  1.
         23    2    1    2    0    0  0.13064552879E+02 -0.20774242302E+02  0.49407777565E+03  0.50324452159E+03  0.92411841435E+02 0.  0.
        254    2    1    2    0    0 -0.13064552879E+02  0.20774242302E+02 -0.32284121671E+03  0.95546122920E+03  0.89893128637E+03 0.  0.
         23    2    4    4    0    0  0.12860116985E+03 -0.34395744275E+03 -0.39516244871E+03  0.54692911159E+03  0.90183750875E+02 0.  0.
         23    2    4    4    0    0 -0.14166572273E+03  0.36473168505E+03  0.72321231997E+02  0.40853211761E+03  0.92572952044E+02 0.  0.
          3    1    3    3  502    0 -0.43659735870E+00  0.36584217489E+02  0.17808368958E+03  0.18180317951E+03  0.00000000000E+00 0.  1.
         -3    1    3    3    0  502  0.13501150238E+02 -0.57358459791E+02  0.31599408607E+03  0.32144134208E+03  0.00000000000E+00 0. -1.
         13    1    5    5    0    0  0.26798053294E+02 -0.18032072431E+03 -0.22713463996E+03  0.29124533291E+03  0.00000000000E+00 0.  1.
        -13    1    5    5    0    0  0.10180311656E+03 -0.16363671844E+03 -0.16802780876E+03  0.25568377867E+03  0.00000000000E+00 0. -1.
          3    1    6    6  503    0 -0.56002074737E+02  0.21731353801E+03  0.78968745113E+02  0.23790222547E+03  0.00000000000E+00 0. -1.
         -3    1    6    6    0  503 -0.85663647994E+02  0.14741814704E+03 -0.66475131160E+01  0.17062989215E+03  0.00000000000E+00 0.  1.
<mgrwt>
<rscale>  0 0.14486202E+04</rscale>
<asrwt>0</asrwt>
<pdfrwt beam="1">  1        2 0.12538018E+00 0.14486202E+04</pdfrwt>
<pdfrwt beam="2">  1       -2 0.99036092E-01 0.14486202E+04</pdfrwt>
<totfact> 0.27549929E+01</totfact>
</mgrwt>
</event>
<event>
12    3  0.4634846E-008  0.2691353E+04  0.7818608E-02  0.8337816E-01
          2   -1    0    0  501    0  0.00000000000E+00  0.00000000000E+00  0.14729984613E+04  0.14729984613E+04  0.00000000000E+00 0. -1.
         -2   -1    0    0    0  501 -0.00000000000E+00 -0.00000000000E+00 -0.12293597211E+04  0.12293597211E+04  0.00000000000E+00 0.  1.
         23    2    1    2    0    0  0.31939294233E+03  0.56399955885E+03  0.10918490853E+04  0.12731241536E+04  0.92754144548E+02 0.  0.
        254    2    1    2    0    0 -0.31939294233E+03 -0.56399955885E+03 -0.84821034511E+03  0.14292340289E+04  0.95033771143E+03 0.  0.
         23    2    4    4    0    0  0.16305280363E+03  0.90024589982E+02  0.50612732828E+02  0.21384455160E+03  0.92071710924E+02 0.  0.
         23    2    4    4    0    0 -0.48244574596E+03 -0.65402414883E+03 -0.89882307793E+03  0.12153894773E+04  0.93739911512E+02 0.  0.
          3    1    3    3  502    0  0.23033898458E+03  0.47967814306E+03  0.88900553466E+03  0.10360878387E+04  0.00000000000E+00 0. -1.
         -3    1    3    3    0  502  0.89053957757E+02  0.84321415796E+02  0.20284355062E+03  0.23703631490E+03  0.00000000000E+00 0.  1.
         13    1    5    5    0    0 -0.10714714487E+02 -0.23552957750E+01  0.28098068518E+01  0.11324643008E+02  0.00000000000E+00 0.  1.
        -13    1    5    5    0    0  0.17376751811E+03  0.92379885757E+02  0.47802925976E+02  0.20251990859E+03  0.00000000000E+00 0. -1.
          2    1    6    6  503    0 -0.25894090144E+03 -0.35300513174E+03 -0.55312475447E+03  0.70541477691E+03  0.00000000000E+00 0.  1.
         -2    1    6    6    0  503 -0.22350484452E+03 -0.30101901709E+03 -0.34569832347E+03  0.50997470038E+03  0.00000000000E+00 0. -1.
<mgrwt>
<rscale>  0 0.26913528E+04</rscale>
<asrwt>0</asrwt>
<pdfrwt beam="1">  1        2 0.22661515E+00 0.26913528E+04</pdfrwt>
<pdfrwt beam="2">  1       -2 0.18913227E+00 0.26913528E+04</pdfrwt>
<totfact> 0.18136593E+00</totfact>
</mgrwt>
</event>
<event>
12    3  0.4634846E-008  0.1387478E+04  0.7818608E-02  0.8962933E-01
          2   -1    0    0  501    0  0.00000000000E+00  0.00000000000E+00  0.20740869562E+04  0.20740869562E+04  0.00000000000E+00 0. -1.
         -2   -1    0    0    0  501 -0.00000000000E+00 -0.00000000000E+00 -0.23204128878E+03  0.23204128878E+03  0.00000000000E+00 0.  1.
         23    2    1    2    0    0  0.32465762254E+03 -0.20327640048E+03  0.66294252158E+03  0.77104947175E+03  0.91107815837E+02 0.  0.
        254    2    1    2    0    0 -0.32465762254E+03  0.20327640048E+03  0.11791031459E+04  0.15350787732E+04  0.90523960619E+03 0.  0.
         23    2    4    4    0    0 -0.89628265446E+02 -0.33703164805E+03  0.28262657206E+03  0.45818624476E+03  0.91832989144E+02 0.  0.
         23    2    4    4    0    0 -0.23502935709E+03  0.54030804853E+03  0.89647657380E+03  0.10768925285E+04  0.94104646748E+02 0.  0.
          2    1    3    3  502    0  0.12945621299E+03 -0.40270088585E+02  0.28372628758E+03  0.31445380803E+03  0.00000000000E+00 0. -1.
         -2    1    3    3    0  502  0.19520140954E+03 -0.16300631189E+03  0.37921623400E+03  0.45659566372E+03  0.00000000000E+00 0.  1.
         13    1    5    5    0    0 -0.63737425335E+02 -0.27488314286E+03  0.17753865486E+03  0.33338142657E+03  0.00000000000E+00 0.  1.
        -13    1    5    5    0    0 -0.25890840111E+02 -0.62148505191E+02  0.10508791720E+03  0.12480481818E+03  0.00000000000E+00 0. -1.
          4    1    6    6  503    0 -0.13933106005E+03  0.22545710466E+03  0.35069782240E+03  0.43958277147E+03  0.00000000000E+00 0. -1.
         -4    1    6    6    0  503 -0.95698297044E+02  0.31485094387E+03  0.54577875139E+03  0.63730975701E+03  0.00000000000E+00 0.  1.
<mgrwt>
<rscale>  0 0.13874780E+04</rscale>
<asrwt>0</asrwt>
<pdfrwt beam="1">  1        2 0.31909029E+00 0.13874780E+04</pdfrwt>
<pdfrwt beam="2">  1       -2 0.35698661E-01 0.13874780E+04</pdfrwt>
<totfact> 0.43692894E+01</totfact>
</mgrwt>
</event>
<event>
12    3  0.4634846E-008  0.1761490E+04  0.7818608E-02  0.8727051E-01
         -1   -1    0    0    0  501 -0.00000000000E+00  0.00000000000E+00  0.37091074398E+03  0.37091074398E+03  0.00000000000E+00 0.  1.
          1   -1    0    0  501    0  0.00000000000E+00 -0.00000000000E+00 -0.20913714438E+04  0.20913714438E+04  0.00000000000E+00 0. -1.
         23    2    1    2    0    0  0.28102872957E+03  0.36357245053E+03 -0.14101314069E+01  0.46882183927E+03  0.92897012199E+02 0.  0.
        254    2    1    2    0    0 -0.28102872957E+03 -0.36357245053E+03 -0.17190505684E+04  0.19934603485E+04  0.89865857293E+03 0.  0.
         23    2    4    4    0    0 -0.31866136705E+03 -0.61757884698E+03 -0.14497084711E+04  0.16102471875E+04  0.91064013133E+02 0.  0.
         23    2    4    4    0    0  0.37632637474E+02  0.25400639645E+03 -0.26934209726E+03  0.38321316100E+03  0.91496975726E+02 0.  0.
          1    1    3    3  502    0  0.72515704272E+02  0.37170467666E+02  0.11064546909E+01  0.81494756117E+02  0.00000000000E+00 0. -1.
         -1    1    3    3    0  502  0.20851302530E+03  0.32640198286E+03 -0.25165860979E+01  0.38732708315E+03  0.00000000000E+00 0.  1.
         13    1    5    5    0    0 -0.23709260756E+03 -0.40136786830E+03 -0.88955008385E+03  0.10042949875E+04  0.00000000000E+00 0.  1.
        -13    1    5    5    0    0 -0.81568759482E+02 -0.21621097868E+03 -0.56015838726E+03  0.60595219996E+03  0.00000000000E+00 0. -1.
          4    1    6    6  503    0 -0.13738739745E+02  0.33836706522E+02 -0.75167140019E+01  0.37285072984E+02  0.00000000000E+00 0. -1.
         -4    1    6    6    0  503  0.51371377219E+02  0.22016968993E+03 -0.26182538326E+03  0.34592808802E+03  0.00000000000E+00 0.  1.
<mgrwt>
<rscale>  0 0.17614904E+04</rscale>
<asrwt>0</asrwt>
<pdfrwt beam="1">  1        1 0.32174944E+00 0.17614904E+04</pdfrwt>
<pdfrwt beam="2">  1       -1 0.57063194E-01 0.17614904E+04</pdfrwt>
<totfact> 0.76061992E+00</totfact>
</mgrwt>
</event>
<event>
12    3  0.4634846E-008  0.1915461E+04  0.7818608E-02  0.8647198E-01
          1   -1    0    0  501    0  0.00000000000E+00  0.00000000000E+00  0.10718928401E+04  0.10718928401E+04  0.00000000000E+00 0. -1.
         -1   -1    0    0    0  501 -0.00000000000E+00 -0.00000000000E+00 -0.85572722771E+03  0.85572722771E+03  0.00000000000E+00 0.  1.
         23    2    1    2    0    0 -0.49479496601E+03 -0.34030072301E+02  0.64457633452E+03  0.81830948793E+03  0.90397249939E+02 0.  0.
        254    2    1    2    0    0  0.49479496601E+03  0.34030072301E+02 -0.42841072214E+03  0.11093105799E+04  0.89501626330E+03 0.  0.
         23    2    4    4    0    0  0.62584059417E+03 -0.24117902018E+03 -0.17052256098E+03  0.69828662155E+03  0.93179895656E+02 0.  0.
         23    2    4    4    0    0 -0.13104562815E+03  0.27520909248E+03 -0.25788816116E+03  0.41102395832E+03  0.97577607098E+02 0.  0.
          4    1    3    3  502    0 -0.47348346183E+03 -0.29628810349E+02  0.63898190533E+03  0.79584064383E+03  0.00000000000E+00 0. -1.
         -4    1    3    3    0  502 -0.21311504181E+02 -0.44012619519E+01  0.55944291926E+01  0.22468844101E+02  0.00000000000E+00 0.  1.
         13    1    5    5    0    0  0.30632350101E+02 -0.20589712590E+02  0.10198699577E+02  0.38292174270E+02  0.00000000000E+00 0. -1.
        -13    1    5    5    0    0  0.59520824407E+03 -0.22058930759E+03 -0.18072126056E+03  0.65999444728E+03  0.00000000000E+00 0.  1.
          3    1    6    6  503    0 -0.18649393250E+02  0.13702363987E+03 -0.82398751644E+02  0.16097463162E+03  0.00000000000E+00 0. -1.
         -3    1    6    6    0  503 -0.11239623490E+03  0.13818545261E+03 -0.17548940951E+03  0.25004932670E+03  0.00000000000E+00 0.  1.
<mgrwt>
<rscale>  0 0.19154612E+04</rscale>
<asrwt>0</asrwt>
<pdfrwt beam="1">  1        1 0.16490659E+00 0.19154612E+04</pdfrwt>
<pdfrwt beam="2">  1       -1 0.13165034E+00 0.19154612E+04</pdfrwt>
<totfact> 0.61121252E+00</totfact>
</mgrwt>
</event>
<event>
12    3  0.4634846E-008  0.1758405E+04  0.7818608E-02  0.8728738E-01
          2   -1    0    0  501    0  0.00000000000E+00  0.00000000000E+00  0.17859590703E+04  0.17859590703E+04  0.00000000000E+00 0. -1.
         -2   -1    0    0    0  501 -0.00000000000E+00 -0.00000000000E+00 -0.43281887938E+03  0.43281887938E+03  0.00000000000E+00 0.  1.
         23    2    1    2    0    0  0.19708796616E+03  0.27136129413E+03  0.12020796951E+04  0.12513243661E+04  0.91304203479E+02 0.  0.
        254    2    1    2    0    0 -0.19708796616E+03 -0.27136129413E+03  0.15106049582E+03  0.96745358353E+03  0.89479972314E+03 0.  0.
         23    2    4    4    0    0 -0.43087936647E+03 -0.34091290605E+03  0.33339234563E+03  0.64919962192E+03  0.91820776563E+02 0.  0.
         23    2    4    4    0    0  0.23379140032E+03  0.69551611916E+02 -0.18233184981E+03  0.31825396161E+03  0.92438276955E+02 0.  0.
          3    1    3    3  502    0  0.93714475800E+02  0.13146162566E+03  0.74434030284E+03  0.76164758808E+03  0.00000000000E+00 0. -1.
         -3    1    3    3    0  502  0.10337349036E+03  0.13989966847E+03  0.45773939224E+03  0.48967677805E+03  0.00000000000E+00 0.  1.
         13    1    5    5    0    0 -0.40174569011E+03 -0.30471158644E+03  0.32997760803E+03  0.60260598423E+03  0.00000000000E+00 0.  1.
        -13    1    5    5    0    0 -0.29133676368E+02 -0.36201319605E+02  0.34147376021E+01  0.46593637685E+02  0.00000000000E+00 0. -1.
          3    1    6    6  503    0  0.12002470043E+03 -0.23795244994E+01 -0.51770939999E+02  0.13073569168E+03  0.00000000000E+00 0. -1.
         -3    1    6    6    0  503  0.11376669988E+03  0.71931136415E+02 -0.13056090981E+03  0.18751826993E+03  0.00000000000E+00 0.  1.
<mgrwt>
<rscale>  0 0.17584047E+04</rscale>
<asrwt>0</asrwt>
<pdfrwt beam="1">  1        2 0.27476293E+00 0.17584047E+04</pdfrwt>
<pdfrwt beam="2">  1       -2 0.66587521E-01 0.17584047E+04</pdfrwt>
<totfact> 0.17242831E+01</totfact>
</mgrwt>
</event>
<event>
12    3  0.4634846E-008  0.1195706E+04  0.7818608E-02  0.9116623E-01
         -1   -1    0    0    0  501 -0.00000000000E+00  0.00000000000E+00  0.53080510133E+03  0.53080510133E+03  0.00000000000E+00 0. -1.
          1   -1    0    0  501    0  0.00000000000E+00 -0.00000000000E+00 -0.67337023201E+03  0.67337023201E+03  0.00000000000E+00 0.  1.
         23    2    1    2    0    0 -0.14540077410E+03 -0.19285571433E+03 -0.10580949581E+03  0.27909539244E+03  0.91454234553E+02 0.  0.
        254    2    1    2    0    0  0.14540077410E+03  0.19285571433E+03 -0.36755634872E+02  0.92507994091E+03  0.89223719308E+03 0.  0.
         23    2    4    4    0    0  0.20608184225E+03  0.41206148128E+03  0.26082360528E+03  0.53766979384E+03  0.93784135489E+02 0.  0.
         23    2    4    4    0    0 -0.60681068154E+02 -0.21920576695E+03 -0.29757924015E+03  0.38741014707E+03  0.98994230042E+02 0.  0.
          1    1    3    3  502    0 -0.20475869610E+02 -0.12527444280E+02 -0.45725144229E+02  0.51642878611E+02  0.00000000000E+00 0. -1.
         -1    1    3    3    0  502 -0.12492490449E+03 -0.18032827005E+03 -0.60084351580E+02  0.22745251383E+03  0.00000000000E+00 0.  1.
         13    1    5    5    0    0  0.14858219001E+03  0.21232944860E+03  0.17553997955E+03  0.31300917934E+03  0.00000000000E+00 0. -1.
        -13    1    5    5    0    0  0.57499652243E+02  0.19973203269E+03  0.85283625729E+02  0.22466061450E+03  0.00000000000E+00 0.  1.
          1    1    6    6  503    0 -0.70887786363E+02 -0.75545987289E+02 -0.11320303511E+03  0.15345097461E+03  0.00000000000E+00 0. -1.
         -1    1    6    6    0  503  0.10206718209E+02 -0.14365977966E+03 -0.18437620504E+03  0.23395917246E+03  0.00000000000E+00 0.  1.
<mgrwt>
<rscale>  0 0.11957062E+04</rscale>
<asrwt>0</asrwt>
<pdfrwt beam="1">  1        1 0.10359542E+00 0.11957062E+04</pdfrwt>
<pdfrwt beam="2">  1       -1 0.81662324E-01 0.11957062E+04</pdfrwt>
<totfact> 0.42718416E+01</totfact>
</mgrwt>
</event>
<event>
12    3  0.4634846E-008  0.1044270E+04  0.7818608E-02  0.9261280E-01
         -3   -1    0    0    0  501 -0.00000000000E+00  0.00000000000E+00  0.44406320290E+03  0.44406320290E+03  0.00000000000E+00 0.  1.
          3   -1    0    0  501    0  0.00000000000E+00 -0.00000000000E+00 -0.61393291245E+03  0.61393291245E+03  0.00000000000E+00 0. -1.
         23    2    1    2    0    0  0.19042714135E+01 -0.77201820607E+02  0.56489769806E+02  0.13390813514E+03  0.93683228009E+02 0.  0.
        254    2    1    2    0    0 -0.19042714135E+01  0.77201820607E+02 -0.22635947935E+03  0.92408798021E+03  0.89260082564E+03 0.  0.
         23    2    4    4    0    0 -0.21685457055E+03 -0.14329095152E+03  0.23468137473E+03  0.36191667141E+03  0.91379033916E+02 0.  0.
         23    2    4    4    0    0  0.21495029914E+03  0.22049277213E+03 -0.46104085409E+03  0.56217130881E+03  0.93044170408E+02 0.  0.
          2    1    3    3  502    0 -0.10103921117E+02 -0.84797444208E+02  0.10821116193E+02  0.86080150568E+02  0.00000000000E+00 0. -1.
         -2    1    3    3    0  502  0.12008192530E+02  0.75956236008E+01  0.45668653613E+02  0.47827984575E+02  0.00000000000E+00 0.  1.
         13    1    5    5    0    0 -0.65045112795E+02  0.20047592966E+01  0.48413895301E+02  0.81109746742E+02  0.00000000000E+00 0. -1.
        -13    1    5    5    0    0 -0.15180945776E+03 -0.14529571082E+03  0.18626747943E+03  0.28080692467E+03  0.00000000000E+00 0.  1.
          2    1    6    6  503    0  0.45131586157E+02  0.41846298287E+02 -0.37326822684E+02  0.71981000556E+02  0.00000000000E+00 0. -1.
         -2    1    6    6    0  503  0.16981871298E+03  0.17864647384E+03 -0.42371403140E+03  0.49019030825E+03  0.00000000000E+00 0.  1.
<mgrwt>
<rscale>  0 0.10442701E+04</rscale>
<asrwt>0</asrwt>
<pdfrwt beam="1">  1        3 0.94451217E-01 0.10442701E+04</pdfrwt>
<pdfrwt beam="2">  1       -3 0.68317416E-01 0.10442701E+04</pdfrwt>
<totfact> 0.53644266E+00</totfact>
</mgrwt>
</event>
<event>
12    3  0.4634846E-008  0.1589683E+04  0.7818608E-02  0.8826911E-01
         -2   -1    0    0    0  501 -0.00000000000E+00  0.00000000000E+00  0.58185514358E+03  0.58185514358E+03  0.00000000000E+00 0.  1.
          2   -1    0    0  501    0  0.00000000000E+00 -0.00000000000E+00 -0.10857914669E+04  0.10857914669E+04  0.00000000000E+00 0. -1.
         23    2    1    2    0    0  0.22270772099E+03  0.35868990765E+03  0.17206978467E+03  0.46502299297E+03  0.91548863225E+02 0.  0.
        254    2    1    2    0    0 -0.22270772099E+03 -0.35868990765E+03 -0.67600610803E+03  0.12026236175E+04  0.90058987809E+03 0.  0.
         23    2    4    4    0    0  0.29929286229E+03 -0.30916961401E+03 -0.43450492557E+03  0.61825029991E+03  0.90977114438E+02 0.  0.
         23    2    4    4    0    0 -0.52200058328E+03 -0.49520293645E+02 -0.24150118246E+03  0.58437331762E+03  0.90733041343E+02 0.  0.
          1    1    3    3  502    0  0.35496002702E+02  0.58084985843E+02 -0.65587988616E+01  0.68387496157E+02  0.00000000000E+00 0. -1.
         -1    1    3    3    0  502  0.18721171829E+03  0.30060492181E+03  0.17862858353E+03  0.39663549682E+03  0.00000000000E+00 0.  1.
         13    1    5    5    0    0  0.16091048551E+03 -0.22350966168E+03 -0.29863666858E+03  0.40624206211E+03  0.00000000000E+00 0. -1.
        -13    1    5    5    0    0  0.13838237678E+03 -0.85659952333E+02 -0.13586825699E+03  0.21200823780E+03  0.00000000000E+00 0.  1.
          3    1    6    6  503    0 -0.45316537950E+03 -0.24133598514E+02 -0.17844064931E+03  0.48762932344E+03  0.00000000000E+00 0. -1.
         -3    1    6    6    0  503 -0.68835203782E+02 -0.25386695132E+02 -0.63060533141E+02  0.96743994178E+02  0.00000000000E+00 0.  1.
<mgrwt>
<rscale>  0 0.15896834E+04</rscale>
<asrwt>0</asrwt>
<pdfrwt beam="1">  1        2 0.16704484E+00 0.15896834E+04</pdfrwt>
<pdfrwt beam="2">  1       -2 0.89516177E-01 0.15896834E+04</pdfrwt>
<totfact> 0.22835010E+01</totfact>
</mgrwt>
</event>
<event>
12    3  0.4634846E-008  0.1091182E+04  0.7818608E-02  0.9213830E-01
         -2   -1    0    0    0  501 -0.00000000000E+00  0.00000000000E+00  0.67633713206E+02  0.67633713206E+02  0.00000000000E+00 0.  1.
          2   -1    0    0  501    0  0.00000000000E+00 -0.00000000000E+00 -0.44011982925E+04  0.44011982925E+04  0.00000000000E+00 0. -1.
         23    2    1    2    0    0 -0.10623743711E+03 -0.84119480439E+01 -0.10861469026E+04  0.10951057610E+04  0.90467562871E+02 0.  0.
        254    2    1    2    0    0  0.10623743711E+03  0.84119480439E+01 -0.32474176768E+04  0.33737262447E+04  0.90826761096E+03 0.  0.
         23    2    4    4    0    0 -0.29573983431E+02  0.40542490521E+03 -0.96059544292E+03  0.10469504043E+04  0.90097557165E+02 0.  0.
         23    2    4    4    0    0  0.13581142054E+03 -0.39701295717E+03 -0.22868222339E+04  0.23267758405E+04  0.90916733230E+02 0.  0.
          4    1    3    3  502    0 -0.11055172659E+03 -0.22961114291E+02 -0.73416163413E+03  0.74279351239E+03  0.00000000000E+00 0. -1.
         -4    1    3    3    0  502  0.43142894756E+01  0.14549166247E+02 -0.35198526843E+03  0.35231224862E+03  0.00000000000E+00 0.  1.
         13    1    5    5    0    0  0.30352543652E+02  0.88315289577E+02 -0.23132571603E+03  0.24946433448E+03  0.00000000000E+00 0. -1.
        -13    1    5    5    0    0 -0.59926527082E+02  0.31710961564E+03 -0.72926972689E+03  0.79748606981E+03  0.00000000000E+00 0.  1.
          3    1    6    6  503    0  0.39633191664E+01 -0.12100722669E+03 -0.54346164649E+03  0.55678453464E+03  0.00000000000E+00 0. -1.
         -3    1    6    6    0  503  0.13184810137E+03 -0.27600573048E+03 -0.17433605874E+04  0.17699913058E+04  0.00000000000E+00 0.  1.
<mgrwt>
<rscale>  0 0.10911817E+04</rscale>
<asrwt>0</asrwt>
<pdfrwt beam="1">  1        2 0.67710733E+00 0.10911817E+04</pdfrwt>
<pdfrwt beam="2">  1       -2 0.10405188E-01 0.10911817E+04</pdfrwt>
<totfact> 0.10456553E+01</totfact>
</mgrwt>
</event>
<event>
12    3  0.4634846E-008  0.2042292E+04  0.7818608E-02  0.8587099E-01
         -1   -1    0    0    0  501 -0.00000000000E+00  0.00000000000E+00  0.14211070239E+04  0.14211070239E+04  0.00000000000E+00 0.  1.
          1   -1    0    0  501    0  0.00000000000E+00 -0.00000000000E+00 -0.73375142924E+03  0.73375142924E+03  0.00000000000E+00 0. -1.
         23    2    1    2    0    0 -0.10267487173E+03 -0.46131613648E+03 -0.42545155598E+03  0.64233565751E+03  0.90726861257E+02 0.  0.
        254    2    1    2    0    0  0.10267487173E+03  0.46131613648E+03  0.11128071506E+04  0.15125227956E+04  0.90886233596E+03 0.  0.
         23    2    4    4    0    0 -0.98023793110E+02  0.10152358081E+03 -0.11877749413E+03  0.20973459723E+03  0.99823878353E+02 0.  0.
         23    2    4    4    0    0  0.20069866484E+03  0.35979255568E+03  0.12315846448E+04  0.13027881984E+04  0.10356503009E+03 0.  0.
          4    1    3    3  502    0 -0.95133532182E+02 -0.39180168795E+03 -0.39995162668E+03  0.56790866811E+03  0.00000000000E+00 0. -1.
         -4    1    3    3    0  502 -0.75413395524E+01 -0.69514448534E+02 -0.25499929303E+02  0.74426989404E+02  0.00000000000E+00 0.  1.
         13    1    5    5    0    0 -0.99742494999E+02  0.48992644799E+02 -0.11015984959E+03  0.15647375823E+03  0.00000000000E+00 0. -1.
        -13    1    5    5    0    0  0.17187018887E+01  0.52530936008E+02 -0.86176445422E+01  0.53260839005E+02  0.00000000000E+00 0.  1.
          4    1    6    6  503    0  0.15424219946E+02  0.10156028194E+03  0.38641754411E+03  0.39983861222E+03  0.00000000000E+00 0.  1.
         -4    1    6    6    0  503  0.18527444490E+03  0.25823227374E+03  0.84516710066E+03  0.90294958618E+03  0.00000000000E+00 0. -1.
<mgrwt>
<rscale>  0 0.20422922E+04</rscale>
<asrwt>0</asrwt>
<pdfrwt beam="1">  1        1 0.11288484E+00 0.20422922E+04</pdfrwt>
<pdfrwt beam="2">  1       -1 0.21863185E+00 0.20422922E+04</pdfrwt>
<totfact> 0.26324752E+00</totfact>
</mgrwt>
</event>
<event>
12    3  0.4634846E-008  0.1674967E+04  0.7818608E-02  0.8775772E-01
          1   -1    0    0  501    0  0.00000000000E+00  0.00000000000E+00  0.63903320182E+03  0.63903320182E+03  0.00000000000E+00 0. -1.
         -1   -1    0    0    0  501 -0.00000000000E+00 -0.00000000000E+00 -0.10975625122E+04  0.10975625122E+04  0.00000000000E+00 0.  1.
         23    2    1    2    0    0 -0.41349695825E+03  0.22916496764E+02 -0.59079895858E+03  0.72674753285E+03  0.87256327799E+02 0.  0.
        254    2    1    2    0    0  0.41349695825E+03 -0.22916496764E+02  0.13226964818E+03  0.10098481812E+04  0.91147857293E+03 0.  0.
         23    2    4    4    0    0  0.32064243714E+03 -0.42749466261E+03  0.20177035416E+03  0.57904739846E+03  0.94980812736E+02 0.  0.
         23    2    4    4    0    0  0.92854521113E+02  0.40457816585E+03 -0.69500705986E+02  0.43080078273E+03  0.91942981734E+02 0.  0.
          3    1    3    3  502    0 -0.16062331388E+03 -0.13807750856E+02 -0.16882147715E+03  0.23343348965E+03  0.00000000000E+00 0. -1.
         -3    1    3    3    0  502 -0.25287364437E+03  0.36724247619E+02 -0.42197748144E+03  0.49331404320E+03  0.00000000000E+00 0.  1.
         13    1    5    5    0    0  0.75577847943E+02 -0.49295555470E+02  0.52059731856E+02  0.10417427019E+03  0.00000000000E+00 0.  1.
        -13    1    5    5    0    0  0.24506458919E+03 -0.37819910714E+03  0.14971062231E+03  0.47487312827E+03  0.00000000000E+00 0. -1.
          1    1    6    6  503    0  0.84664864740E+02  0.40765693429E+03 -0.69023117455E+02  0.42203851262E+03  0.00000000000E+00 0. -1.
         -1    1    6    6    0  503  0.81896563724E+01 -0.30787684347E+01 -0.47758853099E+00  0.87622701042E+01  0.00000000000E+00 0.  1.
<mgrwt>
<rscale>  0 0.16749673E+04</rscale>
<asrwt>0</asrwt>
<pdfrwt beam="1">  1        1 0.98312800E-01 0.16749673E+04</pdfrwt>
<pdfrwt beam="2">  1       -1 0.16885577E+00 0.16749673E+04</pdfrwt>
<totfact> 0.74721301E+00</totfact>
</mgrwt>
</event>
<event>
12    3  0.4634846E-008  0.1925689E+04  0.7818608E-02  0.8642174E-01
         -1   -1    0    0    0  501 -0.00000000000E+00  0.00000000000E+00  0.19735539490E+03  0.19735539490E+03  0.00000000000E+00 0.  1.
          1   -1    0    0  501    0  0.00000000000E+00 -0.00000000000E+00 -0.46974635919E+04  0.46974635919E+04  0.00000000000E+00 0. -1.
         23    2    1    2    0    0  0.25132593110E+03 -0.53744251894E+03 -0.60024419091E+03  0.84891077916E+03  0.91363217190E+02 0.  0.
        254    2    1    2    0    0 -0.25132593110E+03  0.53744251894E+03 -0.38998640061E+04  0.40459082076E+04  0.89912444848E+03 0.  0.
         23    2    4    4    0    0 -0.48927620646E+03  0.31078622388E+02 -0.21329405895E+04  0.21904394983E+04  0.90733402008E+02 0.  0.
         23    2    4    4    0    0  0.23795027536E+03  0.50636389655E+03 -0.17669234166E+04  0.18554687094E+04  0.87869460629E+02 0.  0.
          4    1    3    3  502    0  0.44052976726E+02 -0.11071785854E+03 -0.17562457914E+03  0.21223360185E+03  0.00000000000E+00 0.  1.
         -4    1    3    3    0  502  0.20727295437E+03 -0.42672466041E+03 -0.42461961177E+03  0.63667717731E+03  0.00000000000E+00 0. -1.
         13    1    5    5    0    0 -0.14279338507E+03 -0.20644334528E+02 -0.50338907213E+03  0.52365704169E+03  0.00000000000E+00 0.  1.
        -13    1    5    5    0    0 -0.34648282138E+03  0.51722956916E+02 -0.16295515174E+04  0.16667824566E+04  0.00000000000E+00 0. -1.
          1    1    6    6  503    0  0.22700826051E+03  0.40769796266E+03 -0.14283859176E+04  0.15026765150E+04  0.00000000000E+00 0. -1.
         -1    1    6    6    0  503  0.10942014843E+02  0.98665933893E+02 -0.33853749901E+03  0.35279219441E+03  0.00000000000E+00 0.  1.
<mgrwt>
<rscale>  0 0.19256893E+04</rscale>
<asrwt>0</asrwt>
<pdfrwt beam="1">  1        1 0.72268665E+00 0.19256893E+04</pdfrwt>
<pdfrwt beam="2">  1       -1 0.30362371E-01 0.19256893E+04</pdfrwt>
<totfact> 0.18833507E-01</totfact>
</mgrwt>
</event>
<event>
12    3  0.4634846E-008  0.2388805E+04  0.7818608E-02  0.8443707E-01
         -2   -1    0    0    0  501 -0.00000000000E+00  0.00000000000E+00  0.84975610714E+03  0.84975610714E+03  0.00000000000E+00 0.  1.
          2   -1    0    0  501    0  0.00000000000E+00 -0.00000000000E+00 -0.16788312559E+04  0.16788312559E+04  0.00000000000E+00 0. -1.
         23    2    1    2    0    0  0.81502942863E+03  0.48778269218E+03  0.32076464846E+02  0.95468908773E+03  0.90539661504E+02 0.  0.
        254    2    1    2    0    0 -0.81502942863E+03 -0.48778269218E+03 -0.86115161363E+03  0.15738982753E+04  0.91289033029E+03 0.  0.
         23    2    4    4    0    0 -0.65008861029E+03 -0.46884064059E+03 -0.12759022799E+03  0.81646634525E+03  0.88945371685E+02 0.  0.
         23    2    4    4    0    0 -0.16494081835E+03 -0.18942051591E+02 -0.73356138564E+03  0.75743193010E+03  0.89591000413E+02 0.  0.
          2    1    3    3  502    0  0.68551757685E+02  0.29609243464E+02  0.25134462223E+02  0.78789542273E+02  0.00000000000E+00 0. -1.
         -2    1    3    3    0  502  0.74647767095E+03  0.45817344872E+03  0.69420026225E+01  0.87589954546E+03  0.00000000000E+00 0.  1.
         13    1    5    5    0    0 -0.22557674494E+03 -0.12389378930E+03 -0.68316002617E+02  0.26627357191E+03  0.00000000000E+00 0.  1.
        -13    1    5    5    0    0 -0.42451186535E+03 -0.34494685129E+03 -0.59274225378E+02  0.55019277333E+03  0.00000000000E+00 0. -1.
          4    1    6    6  503    0 -0.11265776287E+03 -0.48266988415E+02 -0.39409622704E+03  0.41271456222E+03  0.00000000000E+00 0. -1.
         -4    1    6    6    0  503 -0.52283055473E+02  0.29324936824E+02 -0.33946515860E+03  0.34471736787E+03  0.00000000000E+00 0.  1.
<mgrwt>
<rscale>  0 0.23888048E+04</rscale>
<asrwt>0</asrwt>
<pdfrwt beam="1">  1        2 0.25828173E+00 0.23888048E+04</pdfrwt>
<pdfrwt beam="2">  1       -2 0.13073171E+00 0.23888048E+04</pdfrwt>
<totfact> 0.38838558E+00</totfact>
</mgrwt>
</event>
<event>
12    3  0.4634846E-008  0.2269084E+04  0.7818608E-02  0.8490212E-01
          1   -1    0    0  501    0  0.00000000000E+00  0.00000000000E+00  0.26166907119E+04  0.26166907119E+04  0.00000000000E+00 0. -1.
         -1   -1    0    0    0  501 -0.00000000000E+00 -0.00000000000E+00 -0.49191353768E+03  0.49191353768E+03  0.00000000000E+00 0.  1.
         23    2    1    2    0    0 -0.79932856395E+03 -0.51913274458E+03  0.86780062501E+03  0.12923360088E+04  0.92894968802E+02 0.  0.
        254    2    1    2    0    0  0.79932856395E+03  0.51913274458E+03  0.12569765492E+04  0.18162682407E+04  0.90023070240E+03 0.  0.
         23    2    4    4    0    0  0.41607969257E+03  0.36770547411E+03  0.82657096298E+02  0.56843003741E+03  0.89167738565E+02 0.  0.
         23    2    4    4    0    0  0.38324887138E+03  0.15142727046E+03  0.11743194529E+04  0.12478382033E+04  0.90907033040E+02 0.  0.
          1    1    3    3  502    0 -0.64548631884E+03 -0.45695214172E+03  0.69633481443E+03  0.10537267300E+04  0.00000000000E+00 0. -1.
         -1    1    3    3    0  502 -0.15384224511E+03 -0.62180602855E+02  0.17146581058E+03  0.23860927884E+03  0.00000000000E+00 0.  1.
         13    1    5    5    0    0  0.31173856513E+02  0.26057279933E+02  0.31152348339E+02  0.51198241907E+02  0.00000000000E+00 0. -1.
        -13    1    5    5    0    0  0.38490583605E+03  0.34164819418E+03  0.51504747959E+02  0.51723179550E+03  0.00000000000E+00 0.  1.
          4    1    6    6  503    0  0.34886165971E+02 -0.85464900332E+01  0.14711863942E+03  0.15143969471E+03  0.00000000000E+00 0. -1.
         -4    1    6    6    0  503  0.34836270541E+03  0.15997376050E+03  0.10272008135E+04  0.10963985086E+04  0.00000000000E+00 0.  1.
<mgrwt>
<rscale>  0 0.22690840E+04</rscale>
<asrwt>0</asrwt>
<pdfrwt beam="1">  1        1 0.40256779E+00 0.22690840E+04</pdfrwt>
<pdfrwt beam="2">  1       -1 0.75679008E-01 0.22690840E+04</pdfrwt>
<totfact> 0.17859709E+00</totfact>
</mgrwt>
</event>
<event>
12    3  0.4634846E-008  0.2072762E+04  0.7818608E-02  0.8573338E-01
          1   -1    0    0  501    0  0.00000000000E+00  0.00000000000E+00  0.29751845444E+04  0.29751845444E+04  0.00000000000E+00 0. -1.
         -1   -1    0    0    0  501 -0.00000000000E+00 -0.00000000000E+00 -0.36101462875E+03  0.36101462875E+03  0.00000000000E+00 0.  1.
         23    2    1    2    0    0  0.83356336962E+03  0.50898731110E+02  0.86200595143E+03  0.12036196272E+04  0.90704876636E+02 0.  0.
        254    2    1    2    0    0 -0.83356336962E+03 -0.50898731110E+02  0.17521639643E+04  0.21325795460E+04  0.88340160198E+03 0.  0.
         23    2    4    4    0    0  0.13752409032E+03  0.67492605042E+02  0.55702167992E+03  0.58540727273E+03  0.94659367787E+02 0.  0.
         23    2    4    4    0    0 -0.97108745993E+03 -0.11839133615E+03  0.11951422844E+04  0.15471722733E+04  0.91376146024E+02 0.  0.
          3    1    3    3  502    0  0.54031813382E+02  0.56548106057E+01  0.92835585691E+02  0.10756328235E+03  0.00000000000E+00 0. -1.
         -3    1    3    3    0  502  0.77953155624E+03  0.45243920504E+02  0.76917036574E+03  0.10960563448E+04  0.00000000000E+00 0.  1.
         13    1    5    5    0    0  0.20541054317E+02  0.16618369617E+02  0.27029645494E+03  0.27158475412E+03  0.00000000000E+00 0. -1.
        -13    1    5    5    0    0  0.11698303600E+03  0.50874235425E+02  0.28672522498E+03  0.31382251860E+03  0.00000000000E+00 0.  1.
          4    1    6    6  503    0 -0.35116432520E+00 -0.24544720812E+01 -0.68988742000E+00  0.25736538681E+01  0.00000000000E+00 0. -1.
         -4    1    6    6    0  503 -0.97073629561E+03 -0.11593686407E+03  0.11958321718E+04  0.15445986194E+04  0.00000000000E+00 0.  1.
<mgrwt>
<rscale>  0 0.20727616E+04</rscale>
<asrwt>0</asrwt>
<pdfrwt beam="1">  1        1 0.45772068E+00 0.20727616E+04</pdfrwt>
<pdfrwt beam="2">  1       -1 0.55540714E-01 0.20727616E+04</pdfrwt>
<totfact> 0.18858844E+00</totfact>
</mgrwt>
</event>
<event>
12    3  0.4634846E-008  0.1180156E+04  0.7818608E-02  0.9130405E-01
         -1   -1    0    0    0  501 -0.00000000000E+00  0.00000000000E+00  0.22060830960E+03  0.22060830960E+03  0.00000000000E+00 0. -1.
          1   -1    0    0  501    0  0.00000000000E+00 -0.00000000000E+00 -0.15783282104E+04  0.15783282104E+04  0.00000000000E+00 0.  1.
         23    2    1    2    0    0 -0.54064483610E+02 -0.18832649002E+03 -0.45492773481E+03  0.50401202355E+03  0.93161369433E+02 0.  0.
        254    2    1    2    0    0  0.54064483610E+02  0.18832649002E+03 -0.90279216603E+03  0.12949244965E+04  0.90741717049E+03 0.  0.
         23    2    4    4    0    0  0.44982217247E+03 -0.38916809171E+02 -0.48528026687E+03  0.66938168478E+03  0.93383069254E+02 0.  0.
         23    2    4    4    0    0 -0.39575768886E+03  0.22724329919E+03 -0.41751189916E+03  0.62554281170E+03  0.93402130649E+02 0.  0.
          3    1    3    3  502    0 -0.20358985873E+00 -0.61055385291E+02 -0.60001880649E+02  0.85603897126E+02  0.00000000000E+00 0. -1.
         -3    1    3    3    0  502 -0.53860893751E+02 -0.12727110473E+03 -0.39492585416E+03  0.41840812642E+03  0.00000000000E+00 0.  1.
         13    1    5    5    0    0  0.99624092338E+02  0.65626551622E+01 -0.59548162865E+02  0.11624978244E+03  0.00000000000E+00 0. -1.
        -13    1    5    5    0    0  0.35019808013E+03 -0.45479464333E+02 -0.42573210401E+03  0.55313190234E+03  0.00000000000E+00 0.  1.
          1    1    6    6  503    0 -0.33619235147E+03  0.16906579802E+03 -0.37800839824E+03  0.53338437396E+03  0.00000000000E+00 0. -1.
         -1    1    6    6    0  503 -0.59565337384E+02  0.58177501175E+02 -0.39503500916E+02  0.92158437732E+02  0.00000000000E+00 0.  1.
<mgrwt>
<rscale>  0 0.11801565E+04</rscale>
<asrwt>0</asrwt>
<pdfrwt beam="1">  1        1 0.24281972E+00 0.11801565E+04</pdfrwt>
<pdfrwt beam="2">  1       -1 0.33939740E-01 0.11801565E+04</pdfrwt>
<totfact> 0.46928576E+01</totfact>
</mgrwt>
</event>
<event>
12    3  0.4634846E-008  0.1787961E+04  0.7818608E-02  0.8712728E-01
         -2   -1    0    0    0  501 -0.00000000000E+00  0.00000000000E+00  0.47396447365E+03  0.47396447365E+03  0.00000000000E+00 0.  1.
          2   -1    0    0  501    0  0.00000000000E+00 -0.00000000000E+00 -0.16862041556E+04  0.16862041556E+04  0.00000000000E+00 0. -1.
         23    2    1    2    0    0 -0.38719735733E+03 -0.45519549236E+03 -0.55796560735E+03  0.82269070128E+03  0.91485743113E+02 0.  0.
        254    2    1    2    0    0  0.38719735733E+03  0.45519549236E+03 -0.65427407459E+03  0.13374779280E+04  0.10018222963E+04 0.  0.
         23    2    4    4    0    0  0.66499879839E+03  0.50668597342E+03 -0.60232045682E+03  0.10344734801E+04  0.91604425691E+02 0.  0.
         23    2    4    4    0    0 -0.27780144106E+03 -0.51490481064E+02 -0.51953617771E+02  0.30300444786E+03  0.96372230080E+02 0.  0.
          1    1    3    3  502    0 -0.18070729875E+03 -0.17467062983E+03 -0.28620875256E+03  0.38089421995E+03  0.00000000000E+00 0. -1.
         -1    1    3    3    0  502 -0.20649005859E+03 -0.28052486253E+03 -0.27175685479E+03  0.44179648133E+03  0.00000000000E+00 0.  1.
         13    1    5    5    0    0  0.49348889309E+03  0.41391121675E+03 -0.43181827923E+03  0.77544877924E+03  0.00000000000E+00 0. -1.
        -13    1    5    5    0    0  0.17150990530E+03  0.92774756679E+02 -0.17050217759E+03  0.25902470086E+03  0.00000000000E+00 0.  1.
          1    1    6    6  503    0 -0.14549299950E+03 -0.57892320424E+02 -0.65735777556E+02  0.16982616441E+03  0.00000000000E+00 0. -1.
         -1    1    6    6    0  503 -0.13230844156E+03  0.64018393592E+01  0.13782159786E+02  0.13317828345E+03  0.00000000000E+00 0.  1.
<mgrwt>
<rscale>  0 0.17879607E+04</rscale>
<asrwt>0</asrwt>
<pdfrwt beam="1">  1        2 0.25941603E+00 0.17879607E+04</pdfrwt>
<pdfrwt beam="2">  1       -2 0.72917611E-01 0.17879607E+04</pdfrwt>
<totfact> 0.16028936E+01</totfact>
</mgrwt>
</event>
<event>
12    3  0.4634846E-008  0.2712674E+04  0.7818608E-02  0.8330905E-01
          1   -1    0    0  501    0  0.00000000000E+00  0.00000000000E+00  0.20120614484E+04  0.20120614484E+04  0.00000000000E+00 0. -1.
         -1   -1    0    0    0  501 -0.00000000000E+00 -0.00000000000E+00 -0.91431081958E+03  0.91431081958E+03  0.00000000000E+00 0.  1.
         23    2    1    2    0    0  0.43470029272E+03 -0.88851854486E+03 -0.25574583695E+03  0.10247708050E+04  0.79496670802E+02 0.  0.
        254    2    1    2    0    0 -0.43470029272E+03  0.88851854486E+03  0.13534964658E+04  0.19016014629E+04  0.89761121426E+03 0.  0.
         23    2    4    4    0    0 -0.31939321740E+03  0.19648699632E+03  0.13778187530E+02  0.38650596281E+03  0.92616703633E+02 0.  0.
         23    2    4    4    0    0 -0.11530707532E+03  0.69203154854E+03  0.13397182782E+04  0.15150955001E+04  0.92010454182E+02 0.  0.
          4    1    3    3  502    0  0.35674962479E+03 -0.74443892234E+03 -0.18308538328E+03  0.84556481801E+03  0.00000000000E+00 0. -1.
         -4    1    3    3    0  502  0.77950667931E+02 -0.14407962253E+03 -0.72660453669E+02  0.17920598702E+03  0.00000000000E+00 0.  1.
         13    1    5    5    0    0 -0.33127501982E+02  0.25965821862E+02 -0.28203853799E+02  0.50666681968E+02  0.00000000000E+00 0.  1.
        -13    1    5    5    0    0 -0.28626571542E+03  0.17052117445E+03  0.41982041328E+02  0.33583928084E+03  0.00000000000E+00 0. -1.
          4    1    6    6  503    0  0.12137585092E+01  0.11082541058E+03  0.27489853940E+03  0.29639998618E+03  0.00000000000E+00 0. -1.
         -4    1    6    6    0  503 -0.11652083383E+03  0.58120613796E+03  0.10648197388E+04  0.12186955140E+04  0.00000000000E+00 0.  1.
<mgrwt>
<rscale>  0 0.27126736E+04</rscale>
<asrwt>0</asrwt>
<pdfrwt beam="1">  1        1 0.30954791E+00 0.27126736E+04</pdfrwt>
<pdfrwt beam="2">  1       -1 0.14066320E+00 0.27126736E+04</pdfrwt>
<totfact> 0.10558163E+00</totfact>
</mgrwt>
</event>
<event>
12    3  0.4634846E-008  0.1402703E+04  0.7818608E-02  0.8951864E-01
          2   -1    0    0  501    0  0.00000000000E+00  0.00000000000E+00  0.13368061551E+04  0.13368061551E+04  0.00000000000E+00 0.  1.
         -2   -1    0    0    0  501 -0.00000000000E+00 -0.00000000000E+00 -0.36796215645E+03  0.36796215645E+03  0.00000000000E+00 0. -1.
         23    2    1    2    0    0 -0.16909860282E+03  0.31064406536E+03  0.52210272079E+03  0.63726595111E+03  0.91774552964E+02 0.  0.
        254    2    1    2    0    0  0.16909860282E+03 -0.31064406536E+03  0.44674127790E+03  0.10675023605E+04  0.90271227278E+03 0.  0.
         23    2    4    4    0    0 -0.31473428911E+03 -0.34527758224E+03  0.22716126034E+03  0.52724619063E+03  0.90066785196E+02 0.  0.
         23    2    4    4    0    0  0.48383289192E+03  0.34633516881E+02  0.21958001756E+03  0.54025616985E+03  0.91474571042E+02 0.  0.
          3    1    3    3  502    0 -0.25193239519E+02  0.54991616662E+02  0.16114584049E+03  0.17212425491E+03  0.00000000000E+00 0. -1.
         -3    1    3    3    0  502 -0.14390536330E+03  0.25565244870E+03  0.36095688031E+03  0.46514169621E+03  0.00000000000E+00 0.  1.
         13    1    5    5    0    0 -0.27753420321E+03 -0.30683804507E+03  0.23057470034E+03  0.47364492216E+03  0.00000000000E+00 0.  1.
        -13    1    5    5    0    0 -0.37200085899E+02 -0.38439537175E+02 -0.34134399971E+01  0.53601268471E+02  0.00000000000E+00 0. -1.
          4    1    6    6  503    0  0.34490635327E+03  0.46492395070E+02  0.19417249190E+03  0.39852840794E+03  0.00000000000E+00 0. -1.
         -4    1    6    6    0  503  0.13892653865E+03 -0.11858878189E+02  0.25407525653E+02  0.14172776190E+03  0.00000000000E+00 0.  1.
<mgrwt>
<rscale>  0 0.14027032E+04</rscale>
<asrwt>0</asrwt>
<pdfrwt beam="1">  1        2 0.20566248E+00 0.14027032E+04</pdfrwt>
<pdfrwt beam="2">  1       -2 0.56609563E-01 0.14027032E+04</pdfrwt>
<totfact> 0.44820397E+01</totfact>
</mgrwt>
</event>
<event>
12    3  0.4634846E-008  0.1350439E+04  0.7818608E-02  0.8990496E-01
         -2   -1    0    0    0  501 -0.00000000000E+00  0.00000000000E+00  0.29426802028E+03  0.29426802028E+03  0.00000000000E+00 0.  1.
          2   -1    0    0  501    0  0.00000000000E+00 -0.00000000000E+00 -0.15493406275E+04  0.15493406275E+04  0.00000000000E+00 0. -1.
         23    2    1    2    0    0  0.22209097002E+03 -0.23580352347E+03 -0.11145706381E+03  0.35457277675E+03  0.91495772010E+02 0.  0.
        254    2    1    2    0    0 -0.22209097002E+03  0.23580352347E+03 -0.11436155434E+04  0.14890358710E+04  0.89690780654E+03 0.  0.
         23    2    4    4    0    0 -0.49680893492E+03 -0.93936129144E+02 -0.62754682400E+03  0.81103569505E+03  0.91218244705E+02 0.  0.
         23    2    4    4    0    0  0.27471796490E+03  0.32973965261E+03 -0.51606871943E+03  0.67800017598E+03  0.95703274340E+02 0.  0.
          3    1    3    3  502    0  0.16502309137E+02 -0.10688924573E+02  0.14787289426E+02  0.24601691892E+02  0.00000000000E+00 0. -1.
         -3    1    3    3    0  502  0.20558866088E+03 -0.22511459889E+03 -0.12624435323E+03  0.32997108486E+03  0.00000000000E+00 0.  1.
         13    1    5    5    0    0 -0.79238024395E+02  0.18401236187E+02 -0.97545788297E+02  0.12701358517E+03  0.00000000000E+00 0. -1.
        -13    1    5    5    0    0 -0.41757091052E+03 -0.11233736533E+03 -0.53000103570E+03  0.68402210988E+03  0.00000000000E+00 0.  1.
          1    1    6    6  503    0  0.38484709283E+02  0.54825995574E+02 -0.14263460568E+03  0.15758043463E+03  0.00000000000E+00 0. -1.
         -1    1    6    6    0  503  0.23623325562E+03  0.27491365704E+03 -0.37343411375E+03  0.52041974136E+03  0.00000000000E+00 0.  1.
<mgrwt>
<rscale>  0 0.13504390E+04</rscale>
<asrwt>0</asrwt>
<pdfrwt beam="1">  1        2 0.23836010E+00 0.13504390E+04</pdfrwt>
<pdfrwt beam="2">  1       -2 0.45272002E-01 0.13504390E+04</pdfrwt>
<totfact> 0.53793646E+01</totfact>
</mgrwt>
</event>
<event>
12    3  0.4634846E-008  0.1612992E+04  0.7818608E-02  0.8812606E-01
         -1   -1    0    0    0  501 -0.00000000000E+00  0.00000000000E+00  0.42627992797E+03  0.42627992797E+03  0.00000000000E+00 0.  1.
          1   -1    0    0  501    0  0.00000000000E+00 -0.00000000000E+00 -0.15258416294E+04  0.15258416294E+04  0.00000000000E+00 0. -1.
         23    2    1    2    0    0 -0.37250470261E+03 -0.18362353523E+03 -0.82492655523E+03  0.92792297511E+03  0.89776779103E+02 0.  0.
        254    2    1    2    0    0  0.37250470261E+03  0.18362353523E+03 -0.27463514625E+03  0.10241985823E+04  0.89503123759E+03 0.  0.
         23    2    4    4    0    0  0.38020719338E+03  0.19674087014E+03  0.24113112962E+03  0.50044607345E+03  0.95066139490E+02 0.  0.
         23    2    4    4    0    0 -0.77024907695E+01 -0.13117334902E+02 -0.51576627587E+03  0.52375250885E+03  0.89835663062E+02 0.  0.
          4    1    3    3  502    0 -0.14282605174E+03 -0.81619977497E+02 -0.42340651519E+03  0.45424022156E+03  0.00000000000E+00 0. -1.
         -4    1    3    3    0  502 -0.22967865088E+03 -0.10200355774E+03 -0.40152004003E+03  0.47368275355E+03  0.00000000000E+00 0.  1.
         13    1    5    5    0    0  0.15779569991E+03  0.11953076306E+03  0.72348835034E+02  0.21076394416E+03  0.00000000000E+00 0.  1.
        -13    1    5    5    0    0  0.22241149347E+03  0.77210107078E+02  0.16878229459E+03  0.28968212929E+03  0.00000000000E+00 0. -1.
          1    1    6    6  503    0 -0.29255653099E+02  0.27288176214E+02 -0.15451634627E+03  0.15961152547E+03  0.00000000000E+00 0. -1.
         -1    1    6    6    0  503  0.21553162329E+02 -0.40405511115E+02 -0.36124992960E+03  0.36414098338E+03  0.00000000000E+00 0.  1.
<mgrwt>
<rscale>  0 0.16129918E+04</rscale>
<asrwt>0</asrwt>
<pdfrwt beam="1">  1        1 0.23474487E+00 0.16129918E+04</pdfrwt>
<pdfrwt beam="2">  1       -1 0.65581527E-01 0.16129918E+04</pdfrwt>
<totfact> 0.14180435E+01</totfact>
</mgrwt>
</event>
<event>
12    3  0.4634846E-008  0.2347472E+04  0.7818608E-02  0.8459435E-01
         -1   -1    0    0    0  501 -0.00000000000E+00  0.00000000000E+00  0.39725202844E+03  0.39725202844E+03  0.00000000000E+00 0.  1.
          1   -1    0    0  501    0  0.00000000000E+00 -0.00000000000E+00 -0.34679654647E+04  0.34679654647E+04  0.00000000000E+00 0. -1.
         23    2    1    2    0    0  0.35501264909E+02 -0.16262815989E+03  0.30881253962E+03  0.36418011151E+03  0.97743085672E+02 0.  0.
        254    2    1    2    0    0 -0.35501264909E+02  0.16262815989E+03 -0.33795259758E+04  0.35010373816E+04  0.89908768636E+03 0.  0.
         23    2    4    4    0    0 -0.39036451236E+03  0.27999392135E+03 -0.23818174964E+04  0.24315231727E+04  0.92028825344E+02 0.  0.
         23    2    4    4    0    0  0.35486324745E+03 -0.11736576146E+03 -0.99770847947E+03  0.10695142089E+04  0.93465430747E+02 0.  0.
          2    1    3    3  502    0  0.32432062783E+02 -0.17532311881E+03  0.29780633243E+03  0.34710034042E+03  0.00000000000E+00 0.  1.
         -2    1    3    3    0  502  0.30692021260E+01  0.12694958925E+02  0.11006207191E+02  0.17079771091E+02  0.00000000000E+00 0. -1.
         13    1    5    5    0    0 -0.31508122866E+03  0.26282675954E+03 -0.20713422780E+04  0.21115901399E+04  0.00000000000E+00 0.  1.
        -13    1    5    5    0    0 -0.75283283696E+02  0.17167161809E+02 -0.31047521833E+03  0.31993303275E+03  0.00000000000E+00 0. -1.
          4    1    6    6  503    0  0.97738785561E+02  0.53042074998E+01 -0.20504793851E+03  0.22721281194E+03  0.00000000000E+00 0. -1.
         -4    1    6    6    0  503  0.25712446189E+03 -0.12266996896E+03 -0.79266054096E+03  0.84230139700E+03  0.00000000000E+00 0.  1.
<mgrwt>
<rscale>  0 0.23474721E+04</rscale>
<asrwt>0</asrwt>
<pdfrwt beam="1">  1        1 0.53353312E+00 0.23474721E+04</pdfrwt>
<pdfrwt beam="2">  1       -1 0.61115700E-01 0.23474721E+04</pdfrwt>
<totfact> 0.64838212E-01</totfact>
</mgrwt>
</event>
<event>
12    3  0.4634846E-008  0.2145042E+04  0.7818608E-02  0.8541657E-01
         -2   -1    0    0    0  501 -0.00000000000E+00  0.00000000000E+00  0.15496349164E+04  0.15496349164E+04  0.00000000000E+00 0.  1.
          2   -1    0    0  501    0  0.00000000000E+00 -0.00000000000E+00 -0.74230493227E+03  0.74230493227E+03  0.00000000000E+00 0. -1.
         23    2    1    2    0    0 -0.62989236241E+03 -0.25886724833E+03  0.93156281551E+03  0.11575901500E+04  0.91809780007E+02 0.  0.
        254    2    1    2    0    0  0.62989236241E+03  0.25886724833E+03 -0.12423283134E+03  0.11343496987E+04  0.89863162756E+03 0.  0.
         23    2    4    4    0    0  0.58399730886E+03  0.41572781883E+03 -0.38100509689E+03  0.81703001748E+03  0.92144937540E+02 0.  0.
         23    2    4    4    0    0  0.45895053553E+02 -0.15686057050E+03  0.25677226554E+03  0.31731968121E+03  0.89711700521E+02 0.  0.
          3    1    3    3  502    0 -0.12293049223E+03 -0.88290254679E+02  0.18116047856E+03  0.23606396163E+03  0.00000000000E+00 0. -1.
         -3    1    3    3    0  502 -0.50696187019E+03 -0.17057699365E+03  0.75040233695E+03  0.92152618839E+03  0.00000000000E+00 0.  1.
         13    1    5    5    0    0  0.50748876380E+03  0.37492223775E+03 -0.30112359685E+03  0.69913299902E+03  0.00000000000E+00 0. -1.
        -13    1    5    5    0    0  0.76508545058E+02  0.40805581082E+02 -0.79881500036E+02  0.11789701846E+03  0.00000000000E+00 0.  1.
          3    1    6    6  503    0  0.37527937237E+02 -0.16533506210E+03  0.25349988223E+03  0.30496921012E+03  0.00000000000E+00 0. -1.
         -3    1    6    6    0  503  0.83671163163E+01  0.84744916038E+01  0.32723833153E+01  0.12350471082E+02  0.00000000000E+00 0.  1.
<mgrwt>
<rscale>  0 0.21450423E+04</rscale>
<asrwt>0</asrwt>
<pdfrwt beam="1">  1        2 0.11420076E+00 0.21450423E+04</pdfrwt>
<pdfrwt beam="2">  1       -2 0.23840537E+00 0.21450423E+04</pdfrwt>
<totfact> 0.26435453E+00</totfact>
</mgrwt>
</event>
<event>
12    3  0.4634846E-008  0.1928511E+04  0.7818608E-02  0.8640793E-01
          1   -1    0    0  501    0  0.00000000000E+00  0.00000000000E+00  0.12212491858E+04  0.12212491858E+04  0.00000000000E+00 0. -1.
         -1   -1    0    0    0  501 -0.00000000000E+00 -0.00000000000E+00 -0.76134225529E+03  0.76134225529E+03  0.00000000000E+00 0.  1.
         23    2    1    2    0    0  0.32858208012E+03 -0.25135035350E+03 -0.44094999707E+03  0.61160983058E+03  0.92122208834E+02 0.  0.
        254    2    1    2    0    0 -0.32858208012E+03  0.25135035350E+03  0.90085692763E+03  0.13709816106E+04  0.94705025677E+03 0.  0.
         23    2    4    4    0    0 -0.52077404926E+02 -0.26597872281E+03  0.67968051618E+03  0.73707393093E+03  0.88632039840E+02 0.  0.
         23    2    4    4    0    0 -0.27650467520E+03  0.51732907632E+03  0.22117641145E+03  0.63390767963E+03  0.93998578195E+02 0.  0.
          2    1    3    3  502    0  0.23043471664E+03 -0.17656653227E+03 -0.24412982809E+03  0.37930893994E+03  0.00000000000E+00 0. -1.
         -2    1    3    3    0  502  0.98147363484E+02 -0.74783821234E+02 -0.19682016898E+03  0.23230089065E+03  0.00000000000E+00 0.  1.
         13    1    5    5    0    0 -0.75448237604E+02 -0.16751771641E+03  0.42387957860E+03  0.46198324539E+03  0.00000000000E+00 0.  1.
        -13    1    5    5    0    0  0.23370832678E+02 -0.98461006402E+02  0.25580093758E+03  0.27509068554E+03  0.00000000000E+00 0. -1.
          4    1    6    6  503    0 -0.10862123959E+03  0.11562674655E+03  0.55330122005E+02  0.16801648910E+03  0.00000000000E+00 0. -1.
         -4    1    6    6    0  503 -0.16788343560E+03  0.40170232977E+03  0.16584628944E+03  0.46589119053E+03  0.00000000000E+00 0.  1.
<mgrwt>
<rscale>  0 0.19285109E+04</rscale>
<asrwt>0</asrwt>
<pdfrwt beam="1">  1        1 0.18788449E+00 0.19285109E+04</pdfrwt>
<pdfrwt beam="2">  1       -1 0.11712958E+00 0.19285109E+04</pdfrwt>
<totfact> 0.63202879E+00</totfact>
</mgrwt>
</event>
<event>
12    3  0.4634846E-008  0.1247989E+04  0.7818608E-02  0.9071859E-01
         -1   -1    0    0    0  501 -0.00000000000E+00  0.00000000000E+00  0.20755189870E+04  0.20755189870E+04  0.00000000000E+00 0.  1.
          1   -1    0    0  501    0  0.00000000000E+00 -0.00000000000E+00 -0.18760082206E+03  0.18760082206E+03  0.00000000000E+00 0. -1.
         23    2    1    2    0    0 -0.21619658840E+03 -0.12541203760E+03  0.74954377928E+03  0.79534750246E+03  0.91063870977E+02 0.  0.
        254    2    1    2    0    0  0.21619658840E+03  0.12541203760E+03  0.11383743856E+04  0.14677723066E+04  0.89218280530E+03 0.  0.
         23    2    4    4    0    0  0.37677334209E+03 -0.16075748976E+03  0.19023212046E+03  0.46043166927E+03  0.89487097308E+02 0.  0.
         23    2    4    4    0    0 -0.16057675369E+03  0.28616952736E+03  0.94814226518E+03  0.10073406373E+04  0.89908355224E+02 0.  0.
          2    1    3    3  502    0 -0.86197992990E+02 -0.33967306835E+02  0.41153004482E+03  0.42183035657E+03  0.00000000000E+00 0. -1.
         -2    1    3    3    0  502 -0.12999859541E+03 -0.91444730763E+02  0.33801373446E+03  0.37351714589E+03  0.00000000000E+00 0.  1.
         13    1    5    5    0    0  0.13188720774E+03 -0.66970935605E+02  0.23734542904E+02  0.14980877914E+03  0.00000000000E+00 0. -1.
        -13    1    5    5    0    0  0.24488613435E+03 -0.93786554157E+02  0.16649757755E+03  0.31062289012E+03  0.00000000000E+00 0.  1.
          1    1    6    6  503    0 -0.51775778780E+02  0.17999965920E+03  0.48627269236E+03  0.52109667041E+03  0.00000000000E+00 0. -1.
         -1    1    6    6    0  503 -0.10880097491E+03  0.10616986816E+03  0.46186957282E+03  0.48624396690E+03  0.00000000000E+00 0.  1.
<mgrwt>
<rscale>  0 0.12479889E+04</rscale>
<asrwt>0</asrwt>
<pdfrwt beam="1">  1        1 0.28861666E-01 0.12479889E+04</pdfrwt>
<pdfrwt beam="2">  1       -1 0.31931060E+00 0.12479889E+04</pdfrwt>
<totfact> 0.39743891E+00</totfact>
</mgrwt>
</event>
<event>
12    3  0.4634846E-008  0.2446525E+04  0.7818608E-02  0.8422288E-01
         -2   -1    0    0    0  501 -0.00000000000E+00  0.00000000000E+00  0.11309982749E+04  0.11309982749E+04  0.00000000000E+00 0.  1.
          2   -1    0    0  501    0  0.00000000000E+00 -0.00000000000E+00 -0.13230529813E+04  0.13230529813E+04  0.00000000000E+00 0. -1.
         23    2    1    2    0    0 -0.50461315597E+03  0.12331131921E+03 -0.10071581900E+04  0.11368587812E+04  0.90775272058E+02 0.  0.
        254    2    1    2    0    0  0.50461315597E+03 -0.12331131921E+03  0.81510348360E+03  0.13171924750E+04  0.89485317715E+03 0.  0.
         23    2    4    4    0    0  0.41966903028E+03 -0.39723704160E+03  0.17627450854E+03  0.61110947808E+03  0.91993095609E+02 0.  0.
         23    2    4    4    0    0  0.84944125685E+02  0.27392572239E+03  0.63882897506E+03  0.70608299694E+03  0.90553483224E+02 0.  0.
          1    1    3    3  502    0 -0.45302238469E+03  0.13445373455E+03 -0.87299516417E+03  0.99268708284E+03  0.00000000000E+00 0. -1.
         -1    1    3    3    0  502 -0.51590771277E+02 -0.11142415338E+02 -0.13416302584E+03  0.14417169834E+03  0.00000000000E+00 0.  1.
         13    1    5    5    0    0  0.38020800045E+03 -0.33355959485E+03  0.17795002756E+03  0.53617752585E+03  0.00000000000E+00 0.  1.
        -13    1    5    5    0    0  0.39461029835E+02 -0.63677446752E+02 -0.16755190229E+01  0.74931952227E+02  0.00000000000E+00 0. -1.
          2    1    6    6  503    0  0.42317801131E+02  0.79664498200E+02  0.29924394296E+03  0.31254466235E+03  0.00000000000E+00 0. -1.
         -2    1    6    6    0  503  0.42626324554E+02  0.19426122419E+03  0.33958503210E+03  0.39353833459E+03  0.00000000000E+00 0.  1.
<mgrwt>
<rscale>  0 0.24465246E+04</rscale>
<asrwt>0</asrwt>
<pdfrwt beam="1">  1        2 0.20354661E+00 0.24465246E+04</pdfrwt>
<pdfrwt beam="2">  1       -2 0.17399973E+00 0.24465246E+04</pdfrwt>
<totfact> 0.28674077E+00</totfact>
</mgrwt>
</event>
<event>
12    3  0.4634846E-008  0.1883172E+04  0.7818608E-02  0.8663278E-01
          2   -1    0    0  501    0  0.00000000000E+00  0.00000000000E+00  0.21371903503E+04  0.21371903503E+04  0.00000000000E+00 0. -1.
         -2   -1    0    0    0  501 -0.00000000000E+00 -0.00000000000E+00 -0.41483643816E+03  0.41483643816E+03  0.00000000000E+00 0.  1.
         23    2    1    2    0    0  0.27039464930E+03 -0.73059900809E+02 -0.23572747274E+03  0.37742940033E+03  0.91839508658E+02 0.  0.
        254    2    1    2    0    0 -0.27039464930E+03  0.73059900809E+02  0.19580813849E+04  0.21745973881E+04  0.90351539842E+03 0.  0.
         23    2    4    4    0    0 -0.51791966787E+03 -0.18459477695E+03  0.13883144683E+04  0.14960714773E+04  0.92178025085E+02 0.  0.
         23    2    4    4    0    0  0.24752501857E+03  0.25765467776E+03  0.56976691659E+03  0.67852591083E+03  0.90047235547E+02 0.  0.
          4    1    3    3  502    0  0.15796809404E+02  0.16095957225E+02 -0.66043816760E+01  0.23499720927E+02  0.00000000000E+00 0. -1.
         -4    1    3    3    0  502  0.25459783989E+03 -0.89155858033E+02 -0.22912309107E+03  0.35392967940E+03  0.00000000000E+00 0.  1.
         13    1    5    5    0    0 -0.44113699084E+03 -0.13010203021E+03  0.10842572009E+04  0.11777699523E+04  0.00000000000E+00 0. -1.
        -13    1    5    5    0    0 -0.76782677031E+02 -0.54492746740E+02  0.30405726738E+03  0.31830152495E+03  0.00000000000E+00 0.  1.
          4    1    6    6  503    0  0.15833020770E+03  0.22135869795E+03  0.41878753048E+03  0.49945082191E+03  0.00000000000E+00 0. -1.
         -4    1    6    6    0  503  0.89194810877E+02  0.36295979810E+02  0.15097938612E+03  0.17907508892E+03  0.00000000000E+00 0.  1.
<mgrwt>
<rscale>  0 0.18831723E+04</rscale>
<asrwt>0</asrwt>
<pdfrwt beam="1">  1        2 0.32879851E+00 0.18831723E+04</pdfrwt>
<pdfrwt beam="2">  1       -2 0.63820992E-01 0.18831723E+04</pdfrwt>
<totfact> 0.11927930E+01</totfact>
</mgrwt>
</event>
<event>
12    3  0.4634846E-008  0.1958631E+04  0.7818608E-02  0.8626210E-01
          1   -1    0    0  501    0  0.00000000000E+00  0.00000000000E+00  0.15606556719E+04  0.15606556719E+04  0.00000000000E+00 0. -1.
         -1   -1    0    0    0  501 -0.00000000000E+00 -0.00000000000E+00 -0.61452287819E+03  0.61452287819E+03  0.00000000000E+00 0.  1.
         23    2    1    2    0    0 -0.24419167249E+03 -0.38750267655E+03 -0.31085121615E+03  0.56155152445E+03  0.94465542869E+02 0.  0.
        254    2    1    2    0    0  0.24419167249E+03  0.38750267655E+03  0.12569840099E+04  0.16136270257E+04  0.90221698033E+03 0.  0.
         23    2    4    4    0    0 -0.11168309886E+03  0.17613067427E+03  0.11561173989E+04  0.11781749769E+04  0.89407533861E+02 0.  0.
         23    2    4    4    0    0  0.35587477134E+03  0.21137200228E+03  0.10086661097E+03  0.43545204877E+03  0.90107920542E+02 0.  0.
          1    1    3    3  502    0 -0.34279747837E+02 -0.24760840594E+02 -0.47161883063E+01  0.42549298124E+02  0.00000000000E+00 0. -1.
         -1    1    3    3    0  502 -0.20991192465E+03 -0.36274183595E+03 -0.30613502784E+03  0.51900222633E+03  0.00000000000E+00 0.  1.
         13    1    5    5    0    0 -0.11162005968E+03  0.18538693893E+03  0.10775246232E+04  0.10990389750E+04  0.00000000000E+00 0.  1.
        -13    1    5    5    0    0 -0.63039178933E-01 -0.92562646601E+01  0.78592775695E+02  0.79136001926E+02  0.00000000000E+00 0. -1.
          2    1    6    6  503    0  0.22987971733E+03  0.12711571552E+03  0.10727655170E+03  0.28374521691E+03  0.00000000000E+00 0. -1.
         -2    1    6    6    0  503  0.12599505402E+03  0.84256286753E+02 -0.64099407350E+01  0.15170683186E+03  0.00000000000E+00 0.  1.
<mgrwt>
<rscale>  0 0.19586308E+04</rscale>
<asrwt>0</asrwt>
<pdfrwt beam="1">  1        1 0.24010087E+00 0.19586308E+04</pdfrwt>
<pdfrwt beam="2">  1       -1 0.94541982E-01 0.19586308E+04</pdfrwt>
<totfact> 0.59846424E+00</totfact>
</mgrwt>
</event>
<event>
12    3  0.4634846E-008  0.1174423E+04  0.7818608E-02  0.9135543E-01
         -2   -1    0    0    0  501 -0.00000000000E+00  0.00000000000E+00  0.34312977845E+03  0.34312977845E+03  0.00000000000E+00 0.  1.
          2   -1    0    0  501    0  0.00000000000E+00 -0.00000000000E+00 -0.10049182319E+04  0.10049182319E+04  0.00000000000E+00 0. -1.
         23    2    1    2    0    0 -0.12860068741E+03  0.13132653742E+03  0.11256129458E+02  0.20519458358E+03  0.90516962216E+02 0.  0.
        254    2    1    2    0    0  0.12860068741E+03 -0.13132653742E+03 -0.67304458291E+03  0.11428534268E+04  0.90517409832E+03 0.  0.
         23    2    4    4    0    0  0.13781225791E+03 -0.39840991437E+03 -0.20847716969E+02  0.43227245283E+03  0.93285410849E+02 0.  0.
         23    2    4    4    0    0 -0.92115704974E+01  0.26708337695E+03 -0.65219686594E+03  0.71058097394E+03  0.90256220340E+02 0.  0.
          2    1    3    3  502    0 -0.11620459478E+03  0.11800128519E+03  0.40735643661E+02  0.17054971070E+03  0.00000000000E+00 0. -1.
         -2    1    3    3    0  502 -0.12396092631E+02  0.13325252222E+02 -0.29479514204E+02  0.34644872881E+02  0.00000000000E+00 0.  1.
         13    1    5    5    0    0  0.21414221175E+02 -0.14006015995E+03 -0.42941699031E+02  0.14805204081E+03  0.00000000000E+00 0. -1.
        -13    1    5    5    0    0  0.11639803674E+03 -0.25834975442E+03  0.22093982063E+02  0.28422041202E+03  0.00000000000E+00 0.  1.
          4    1    6    6  503    0 -0.19838441529E+02  0.26991986630E+03 -0.63344022858E+03  0.68883729659E+03  0.00000000000E+00 0.  1.
         -4    1    6    6    0  503  0.10626871031E+02 -0.28364893521E+01 -0.18756637362E+02  0.21743677354E+02  0.00000000000E+00 0. -1.
<mgrwt>
<rscale>  0 0.11744230E+04</rscale>
<asrwt>0</asrwt>
<pdfrwt beam="1">  1        2 0.15460280E+00 0.11744230E+04</pdfrwt>
<pdfrwt beam="2">  1       -2 0.52789198E-01 0.11744230E+04</pdfrwt>
<totfact> 0.83651810E+01</totfact>
</mgrwt>
</event>
<event>
12    3  0.4634846E-008  0.1509587E+04  0.7818608E-02  0.8878102E-01
          1   -1    0    0  501    0  0.00000000000E+00  0.00000000000E+00  0.18866181383E+04  0.18866181383E+04  0.00000000000E+00 0. -1.
         -1   -1    0    0    0  501 -0.00000000000E+00 -0.00000000000E+00 -0.30197598978E+03  0.30197598978E+03  0.00000000000E+00 0.  1.
         23    2    1    2    0    0 -0.18939595085E+03  0.40440905258E+03  0.77685992428E+03  0.90071156619E+03  0.91391878750E+02 0.  0.
        254    2    1    2    0    0  0.18939595085E+03 -0.40440905258E+03  0.80778222425E+03  0.12878825619E+04  0.89817139982E+03 0.  0.
         23    2    4    4    0    0  0.23049991512E+03 -0.86810666874E+02 -0.12926521868E+03  0.29349293433E+03  0.93607173812E+02 0.  0.
         23    2    4    4    0    0 -0.41103964269E+02 -0.31759838570E+03  0.93704744294E+03  0.99438962758E+03  0.90523757306E+02 0.  0.
          1    1    3    3  502    0 -0.19598968421E+03  0.38657865487E+03  0.71613888902E+03  0.83708417802E+03  0.00000000000E+00 0. -1.
         -1    1    3    3    0  502  0.65937333606E+01  0.17830397707E+02  0.60721035265E+02  0.63627388172E+02  0.00000000000E+00 0.  1.
         13    1    5    5    0    0  0.76515645406E+02 -0.16967644049E+02 -0.91066294147E+02  0.12014830363E+03  0.00000000000E+00 0.  1.
        -13    1    5    5    0    0  0.15398426971E+03 -0.69843022825E+02 -0.38198924537E+02  0.17334463070E+03  0.00000000000E+00 0. -1.
          3    1    6    6  503    0 -0.27508697740E+02 -0.20120736380E+03  0.71548506612E+03  0.74374727666E+03  0.00000000000E+00 0. -1.
         -3    1    6    6    0  503 -0.13595266529E+02 -0.11639102191E+03  0.22156237682E+03  0.25064235092E+03  0.00000000000E+00 0.  1.
<mgrwt>
<rscale>  0 0.15095872E+04</rscale>
<asrwt>0</asrwt>
<pdfrwt beam="1">  1        1 0.29024894E+00 0.15095872E+04</pdfrwt>
<pdfrwt beam="2">  1       -1 0.46457846E-01 0.15095872E+04</pdfrwt>
<totfact> 0.15869713E+01</totfact>
</mgrwt>
</event>
<event>
12    3  0.4634846E-008  0.2780673E+04  0.7818608E-02  0.8309294E-01
          1   -1    0    0  501    0  0.00000000000E+00  0.00000000000E+00  0.10990156998E+04  0.10990156998E+04  0.00000000000E+00 0. -1.
         -1   -1    0    0    0  501 -0.00000000000E+00 -0.00000000000E+00 -0.17588791093E+04  0.17588791093E+04  0.00000000000E+00 0.  1.
         23    2    1    2    0    0 -0.62155544331E+03  0.71665841298E+03 -0.11459861533E+04  0.14904842976E+04  0.91261863963E+02 0.  0.
        254    2    1    2    0    0  0.62155544331E+03 -0.71665841298E+03  0.48612274379E+03  0.13674105115E+04  0.85648452112E+03 0.  0.
         23    2    4    4    0    0  0.90221295749E+02 -0.55823894352E+03  0.55989765790E+03  0.80073451783E+03  0.88993148421E+02 0.  0.
         23    2    4    4    0    0  0.53133414756E+03 -0.15841946947E+03 -0.73774914114E+02  0.56667599367E+03  0.90918860381E+02 0.  0.
          4    1    3    3  502    0  0.13790243509E+01 -0.10681459767E+01 -0.51740161588E-01  0.17450848209E+01  0.00000000000E+00 0. -1.
         -4    1    3    3    0  502 -0.62293446766E+03  0.71772655896E+03 -0.11459344131E+04  0.14887392128E+04  0.00000000000E+00 0.  1.
         13    1    5    5    0    0 -0.13639626383E+02 -0.16721940234E+03  0.17061253019E+03  0.23928435675E+03  0.00000000000E+00 0. -1.
        -13    1    5    5    0    0  0.10386092213E+03 -0.39101954118E+03  0.38928512771E+03  0.56145016109E+03  0.00000000000E+00 0.  1.
          3    1    6    6  503    0  0.37017208099E+03 -0.10942899284E+03 -0.87201937466E+01  0.38610635296E+03  0.00000000000E+00 0. -1.
         -3    1    6    6    0  503  0.16116206657E+03 -0.48990476625E+02 -0.65054720368E+02  0.18056964070E+03  0.00000000000E+00 0.  1.
<mgrwt>
<rscale>  0 0.27806731E+04</rscale>
<asrwt>0</asrwt>
<pdfrwt beam="1">  1        1 0.16907934E+00 0.27806731E+04</pdfrwt>
<pdfrwt beam="2">  1       -1 0.27059678E+00 0.27806731E+04</pdfrwt>
<totfact> 0.56395817E-01</totfact>
</mgrwt>
</event>
<event>
12    3  0.4634846E-008  0.2872437E+04  0.7818608E-02  0.8281126E-01
         -2   -1    0    0    0  501 -0.00000000000E+00  0.00000000000E+00  0.90055385596E+03  0.90055385596E+03  0.00000000000E+00 0.  1.
          2   -1    0    0  501    0  0.00000000000E+00 -0.00000000000E+00 -0.22905056803E+04  0.22905056803E+04  0.00000000000E+00 0. -1.
         23    2    1    2    0    0  0.10399330842E+04 -0.70215246082E+03 -0.27269234813E+03  0.12873742750E+04  0.92154811834E+02 0.  0.
        254    2    1    2    0    0 -0.10399330842E+04  0.70215246082E+03 -0.11172594762E+04  0.19036852612E+04  0.89513682678E+03 0.  0.
         23    2    4    4    0    0 -0.10465932296E+04  0.82607094219E+03 -0.81706777495E+03  0.15663564549E+04  0.90123277613E+02 0.  0.
         23    2    4    4    0    0  0.66601453207E+01 -0.12391848136E+03 -0.30019170123E+03  0.33732880633E+03  0.90969877066E+02 0.  0.
          4    1    3    3  502    0  0.18660801433E+03 -0.13493339746E+03 -0.14717817204E+02  0.23075135299E+03  0.00000000000E+00 0. -1.
         -4    1    3    3    0  502  0.85332506991E+03 -0.56721906336E+03 -0.25797453092E+03  0.10566229220E+04  0.00000000000E+00 0.  1.
         13    1    5    5    0    0 -0.85531481871E+02  0.82431630357E+02 -0.10083189656E+03  0.15581296300E+03  0.00000000000E+00 0. -1.
        -13    1    5    5    0    0 -0.96106174769E+03  0.74363931183E+03 -0.71623587839E+03  0.14105434919E+04  0.00000000000E+00 0.  1.
          4    1    6    6  503    0  0.25650919537E+01  0.13113105688E+02 -0.53082374886E+02  0.54738211161E+02  0.00000000000E+00 0. -1.
         -4    1    6    6    0  503  0.40950533670E+01 -0.13703158705E+03 -0.24710932635E+03  0.28259059517E+03  0.00000000000E+00 0.  1.
<mgrwt>
<rscale>  0 0.28724371E+04</rscale>
<asrwt>0</asrwt>
<pdfrwt beam="1">  1        2 0.35238549E+00 0.28724371E+04</pdfrwt>
<pdfrwt beam="2">  1       -2 0.13854675E+00 0.28724371E+04</pdfrwt>
<totfact> 0.14651226E+00</totfact>
</mgrwt>
</event>
<event>
12    3  0.4634846E-008  0.2755298E+04  0.7818608E-02  0.8317282E-01
          2   -1    0    0  501    0  0.00000000000E+00  0.00000000000E+00  0.20514292067E+04  0.20514292067E+04  0.00000000000E+00 0. -1.
         -2   -1    0    0    0  501 -0.00000000000E+00 -0.00000000000E+00 -0.92516811566E+03  0.92516811566E+03  0.00000000000E+00 0.  1.
         23    2    1    2    0    0  0.32776959954E+03 -0.10804945421E+04  0.10172572207E+04  0.15225607408E+04  0.92073831927E+02 0.  0.
        254    2    1    2    0    0 -0.32776959954E+03  0.10804945421E+04  0.10900387043E+03  0.14540365816E+04  0.90963683470E+03 0.  0.
         23    2    4    4    0    0  0.13886461574E+03  0.64916008798E+03  0.36474194550E+03  0.76295371923E+03  0.91484914299E+02 0.  0.
         23    2    4    4    0    0 -0.46663421528E+03  0.43133445411E+03 -0.25573807506E+03  0.69108286239E+03  0.91633277116E+02 0.  0.
          2    1    3    3  502    0  0.28034277453E+03 -0.89240349176E+03  0.88559013560E+03  0.12881172119E+04  0.00000000000E+00 0. -1.
         -2    1    3    3    0  502  0.47426825002E+02 -0.18809105034E+03  0.13166708506E+03  0.23444352888E+03  0.00000000000E+00 0.  1.
         13    1    5    5    0    0  0.80903341889E+01  0.11084736696E+03  0.27816987125E+02  0.11457040212E+03  0.00000000000E+00 0. -1.
        -13    1    5    5    0    0  0.13077428156E+03  0.53831272103E+03  0.33692495837E+03  0.64838331711E+03  0.00000000000E+00 0.  1.
          3    1    6    6  503    0 -0.23439888629E+03  0.15480803672E+03 -0.11351241352E+03  0.30297431269E+03  0.00000000000E+00 0. -1.
         -3    1    6    6    0  503 -0.23223532899E+03  0.27652641739E+03 -0.14222566154E+03  0.38810854970E+03  0.00000000000E+00 0.  1.
<mgrwt>
<rscale>  0 0.27552981E+04</rscale>
<asrwt>0</asrwt>
<pdfrwt beam="1">  1        2 0.31560449E+00 0.27552981E+04</pdfrwt>
<pdfrwt beam="2">  1       -2 0.14233356E+00 0.27552981E+04</pdfrwt>
<totfact> 0.18791842E+00</totfact>
</mgrwt>
</event>
<event>
12    3  0.4634846E-008  0.1767358E+04  0.7818608E-02  0.8723853E-01
          2   -1    0    0  501    0  0.00000000000E+00  0.00000000000E+00  0.20134914800E+04  0.20134914800E+04  0.00000000000E+00 0. -1.
         -2   -1    0    0    0  501 -0.00000000000E+00 -0.00000000000E+00 -0.38782824788E+03  0.38782824788E+03  0.00000000000E+00 0.  1.
         23    2    1    2    0    0  0.41352230731E+02 -0.26322639615E+03 -0.20205883731E+03  0.34798924873E+03  0.96283959630E+02 0.  0.
        254    2    1    2    0    0 -0.41352230731E+02  0.26322639615E+03  0.18277220694E+04  0.20533304791E+04  0.89699495591E+03 0.  0.
         23    2    4    4    0    0  0.38694909745E+03  0.28461091173E+03  0.11010615200E+04  0.12047365299E+04  0.91217654744E+02 0.  0.
         23    2    4    4    0    0 -0.42830132818E+03 -0.21384515581E+02  0.72666054940E+03  0.84859394923E+03  0.90425723120E+02 0.  0.
          3    1    3    3  502    0  0.27357157925E+01  0.25547146626E+01  0.68016198746E+01  0.77635520752E+01  0.00000000000E+00 0. -1.
         -3    1    3    3    0  502  0.38616514938E+02 -0.26578111081E+03 -0.20886045718E+03  0.34022569666E+03  0.00000000000E+00 0.  1.
         13    1    5    5    0    0  0.64915022987E+02  0.95437623441E+02  0.25512046152E+03  0.28001562468E+03  0.00000000000E+00 0. -1.
        -13    1    5    5    0    0  0.32203407446E+03  0.18917328829E+03  0.84594105851E+03  0.92472090524E+03  0.00000000000E+00 0.  1.
          2    1    6    6  503    0 -0.30166889830E+03  0.12951642112E+02  0.44370962127E+03  0.53670298792E+03  0.00000000000E+00 0.  1.
         -2    1    6    6    0  503 -0.12663242988E+03 -0.34336157692E+02  0.28295092813E+03  0.31189096132E+03  0.00000000000E+00 0. -1.
<mgrwt>
<rscale>  0 0.17673583E+04</rscale>
<asrwt>0</asrwt>
<pdfrwt beam="1">  1        2 0.30976791E+00 0.17673583E+04</pdfrwt>
<pdfrwt beam="2">  1       -2 0.59665886E-01 0.17673583E+04</pdfrwt>
<totfact> 0.16289781E+01</totfact>
</mgrwt>
</event>
<event>
12    3  0.4634846E-008  0.1829868E+04  0.7818608E-02  0.8690575E-01
         -1   -1    0    0    0  501 -0.00000000000E+00  0.00000000000E+00  0.32451474006E+03  0.32451474006E+03  0.00000000000E+00 0.  1.
          1   -1    0    0  501    0  0.00000000000E+00 -0.00000000000E+00 -0.25795574042E+04  0.25795574042E+04  0.00000000000E+00 0. -1.
         23    2    1    2    0    0  0.15145375008E+03  0.59888591370E+03 -0.34409258217E+03  0.71290834625E+03  0.90752570220E+02 0.  0.
        254    2    1    2    0    0 -0.15145375008E+03 -0.59888591370E+03 -0.19109500820E+04  0.21911637980E+04  0.87627963451E+03 0.  0.
         23    2    4    4    0    0 -0.61779647196E+02 -0.71365374492E+03 -0.18831782644E+04  0.20170838802E+04  0.95648376818E+02 0.  0.
         23    2    4    4    0    0 -0.89674102882E+02  0.11476783122E+03 -0.27771817598E+02  0.17407991778E+03  0.91210986790E+02 0.  0.
          1    1    3    3  502    0  0.15823230363E+02  0.23069495742E+02 -0.36971528449E+02  0.46362378808E+02  0.00000000000E+00 0. -1.
         -1    1    3    3    0  502  0.13563051972E+03  0.57581641796E+03 -0.30712105372E+03  0.66654596744E+03  0.00000000000E+00 0.  1.
         13    1    5    5    0    0 -0.82328972858E+02 -0.62182271062E+03 -0.15936814122E+04  0.17126768484E+04  0.00000000000E+00 0. -1.
        -13    1    5    5    0    0  0.20549325662E+02 -0.91831034300E+02 -0.28949685215E+03  0.30440703186E+03  0.00000000000E+00 0.  1.
          1    1    6    6  503    0 -0.67328116492E+02  0.11963321065E+03 -0.46058349673E+02  0.14479831468E+03  0.00000000000E+00 0. -1.
         -1    1    6    6    0  503 -0.22345986390E+02 -0.48653794262E+01  0.18286532075E+02  0.29281603099E+02  0.00000000000E+00 0.  1.
<mgrwt>
<rscale>  0 0.18298682E+04</rscale>
<asrwt>0</asrwt>
<pdfrwt beam="1">  1        1 0.39685499E+00 0.18298682E+04</pdfrwt>
<pdfrwt beam="2">  1       -1 0.49925345E-01 0.18298682E+04</pdfrwt>
<totfact> 0.45233066E+00</totfact>
</mgrwt>
</event>
<event>
12    3  0.4634846E-008  0.1314905E+04  0.7818608E-02  0.9017828E-01
          3   -1    0    0  501    0  0.00000000000E+00  0.00000000000E+00  0.43237512381E+03  0.43237512381E+03  0.00000000000E+00 0. -1.
         -3   -1    0    0    0  501 -0.00000000000E+00 -0.00000000000E+00 -0.99969587478E+03  0.99969587478E+03  0.00000000000E+00 0.  1.
         23    2    1    2    0    0  0.16029713558E+03 -0.27415672857E+03 -0.29553537046E+03  0.44433531465E+03  0.96102201644E+02 0.  0.
        254    2    1    2    0    0 -0.16029713558E+03  0.27415672857E+03 -0.27178538051E+03  0.98773568394E+03  0.89492871491E+03 0.  0.
         23    2    4    4    0    0  0.30047213506E+03  0.46033270359E+02  0.11516066195E+03  0.33791654644E+03  0.92320357268E+02 0.  0.
         23    2    4    4    0    0 -0.46076927064E+03  0.22812345821E+03 -0.38694604246E+03  0.64981913750E+03  0.90493307667E+02 0.  0.
          1    1    3    3  502    0  0.62445841846E+00 -0.37395444511E+02 -0.73979397582E+02  0.82896082447E+02  0.00000000000E+00 0. -1.
         -1    1    3    3    0  502  0.15967267716E+03 -0.23676128405E+03 -0.22155597288E+03  0.36143923220E+03  0.00000000000E+00 0.  1.
         13    1    5    5    0    0  0.22864568408E+03 -0.66266544421E+00  0.61300799819E+02  0.23672151578E+03  0.00000000000E+00 0. -1.
        -13    1    5    5    0    0  0.71826450987E+02  0.46695935803E+02  0.53859862134E+02  0.10119503066E+03  0.00000000000E+00 0.  1.
          3    1    6    6  503    0 -0.31142586022E+01  0.87684432073E+01 -0.24408301170E+02  0.26121817872E+02  0.00000000000E+00 0.  1.
         -3    1    6    6    0  503 -0.45765501204E+03  0.21935501500E+03 -0.36253774129E+03  0.62369731963E+03  0.00000000000E+00 0. -1.
<mgrwt>
<rscale>  0 0.13149048E+04</rscale>
<asrwt>0</asrwt>
<pdfrwt beam="1">  1        3 0.66519250E-01 0.13149048E+04</pdfrwt>
<pdfrwt beam="2">  1       -3 0.15379936E+00 0.13149048E+04</pdfrwt>
<totfact> 0.16898143E+00</totfact>
</mgrwt>
</event>
<event>
12    3  0.4634846E-008  0.1604355E+04  0.7818608E-02  0.8817877E-01
          1   -1    0    0  501    0  0.00000000000E+00  0.00000000000E+00  0.14547699840E+04  0.14547699840E+04  0.00000000000E+00 0.  1.
         -1   -1    0    0    0  501 -0.00000000000E+00 -0.00000000000E+00 -0.44233020949E+03  0.44233020949E+03  0.00000000000E+00 0. -1.
         23    2    1    2    0    0 -0.36093867241E+03 -0.33105361419E+03  0.85835048570E+02  0.50743119341E+03  0.10122025381E+03 0.  0.
        254    2    1    2    0    0  0.36093867241E+03  0.33105361419E+03  0.92660472590E+03  0.13896690000E+04  0.91252966578E+03 0.  0.
         23    2    4    4    0    0 -0.67937317173E+01  0.57575364302E+03  0.55790201423E+03  0.80723435533E+03  0.93990609652E+02 0.  0.
         23    2    4    4    0    0  0.36773240412E+03 -0.24470002884E+03  0.36870271167E+03  0.58243464472E+03  0.90461044755E+02 0.  0.
          1    1    3    3  502    0 -0.32037540133E+03 -0.30785923390E+03  0.47230424749E+02  0.44682034275E+03  0.00000000000E+00 0. -1.
         -1    1    3    3    0  502 -0.40563271080E+02 -0.23194380281E+02  0.38604623821E+02  0.60610850659E+02  0.00000000000E+00 0.  1.
         13    1    5    5    0    0  0.52011630105E+01  0.51321718803E+03  0.45323497266E+03  0.68471955911E+03  0.00000000000E+00 0.  1.
        -13    1    5    5    0    0 -0.11994894728E+02  0.62536454992E+02  0.10466704156E+03  0.12251479622E+03  0.00000000000E+00 0. -1.
          3    1    6    6  503    0  0.59159121972E+02 -0.70425564866E+01  0.67787793832E+02  0.90247350692E+02  0.00000000000E+00 0. -1.
         -3    1    6    6    0  503  0.30857328215E+03 -0.23765747235E+03  0.30091491784E+03  0.49218729402E+03  0.00000000000E+00 0.  1.
<mgrwt>
<rscale>  0 0.16043550E+04</rscale>
<asrwt>0</asrwt>
<pdfrwt beam="1">  1        1 0.22381076E+00 0.16043550E+04</pdfrwt>
<pdfrwt beam="2">  1       -1 0.68050802E-01 0.16043550E+04</pdfrwt>
<totfact> 0.14748207E+01</totfact>
</mgrwt>
</event>
<event>
12    3  0.4634846E-008  0.4340318E+04  0.7818608E-02  0.7939205E-01
          2   -1    0    0  501    0  0.00000000000E+00  0.00000000000E+00  0.25213252466E+04  0.25213252466E+04  0.00000000000E+00 0. -1.
         -2   -1    0    0    0  501 -0.00000000000E+00 -0.00000000000E+00 -0.18679025964E+04  0.18679025964E+04  0.00000000000E+00 0.  1.
         23    2    1    2    0    0  0.21717956164E+03  0.14060846297E+04  0.18422655871E+04  0.23293759123E+04  0.88366847425E+02 0.  0.
        254    2    1    2    0    0 -0.21717956164E+03 -0.14060846297E+04 -0.11888429370E+04  0.20598519307E+04  0.89744164147E+03 0.  0.
         23    2    4    4    0    0  0.30502169437E+03 -0.53100914074E+03 -0.67304212003E+03  0.91429092254E+03  0.89068816763E+02 0.  0.
         23    2    4    4    0    0 -0.52220125601E+03 -0.87507548891E+03 -0.51580081693E+03  0.11455610081E+04  0.88364458672E+02 0.  0.
          3    1    3    3  502    0  0.15148792709E+03  0.78009415434E+03  0.97645275839E+03  0.12589501464E+04  0.00000000000E+00 0. -1.
         -3    1    3    3    0  502  0.65691634550E+02  0.62599047531E+03  0.86581282869E+03  0.10704257659E+04  0.00000000000E+00 0.  1.
         13    1    5    5    0    0  0.23420658714E+03 -0.45787506894E+03 -0.59179563447E+03  0.78404360669E+03  0.00000000000E+00 0.  1.
        -13    1    5    5    0    0  0.70815107229E+02 -0.73134071799E+02 -0.81246485563E+02  0.13024731585E+03  0.00000000000E+00 0. -1.
          3    1    6    6  503    0  0.77926262909E+00 -0.15146017148E+02 -0.13376649546E+01  0.15224928020E+02  0.00000000000E+00 0. -1.
         -3    1    6    6    0  503 -0.52298051864E+03 -0.85992947177E+03 -0.51446315198E+03  0.11303360801E+04  0.00000000000E+00 0.  1.
<mgrwt>
<rscale>  0 0.43403179E+04</rscale>
<asrwt>0</asrwt>
<pdfrwt beam="1">  1        2 0.38789619E+00 0.43403179E+04</pdfrwt>
<pdfrwt beam="2">  1       -2 0.28736963E+00 0.43403179E+04</pdfrwt>
<totfact> 0.98595667E-02</totfact>
</mgrwt>
</event>
<event>
12    3  0.4634846E-008  0.2352611E+04  0.7818608E-02  0.8457462E-01
          1   -1    0    0  501    0  0.00000000000E+00  0.00000000000E+00  0.42680662043E+04  0.42680662043E+04  0.00000000000E+00 0. -1.
         -1   -1    0    0    0  501 -0.00000000000E+00 -0.00000000000E+00 -0.32419701352E+03  0.32419701352E+03  0.00000000000E+00 0.  1.
         23    2    1    2    0    0 -0.29443525784E+03  0.90795739810E+03  0.22852232309E+04  0.24782239978E+04  0.90940695639E+02 0.  0.
        254    2    1    2    0    0  0.29443525784E+03 -0.90795739810E+03  0.16586459598E+04  0.21140392200E+04  0.89831878859E+03 0.  0.
         23    2    4    4    0    0 -0.11326112084E+03 -0.19852763060E+02 -0.39648973971E+02  0.15228732826E+03  0.91636103783E+02 0.  0.
         23    2    4    4    0    0  0.40769637868E+03 -0.88810463504E+03  0.16982949338E+04  0.19617518918E+04  0.96533013551E+02 0.  0.
          2    1    3    3  502    0 -0.10334533831E+03  0.40713919242E+03  0.10977210282E+04  0.11753442205E+04  0.00000000000E+00 0. -1.
         -2    1    3    3    0  502 -0.19108991953E+03  0.50081820568E+03  0.11875022028E+04  0.13028797773E+04  0.00000000000E+00 0.  1.
         13    1    5    5    0    0 -0.10681556025E+03 -0.19114009286E+02 -0.64749298980E+02  0.12636210263E+03  0.00000000000E+00 0. -1.
        -13    1    5    5    0    0 -0.64455605907E+01 -0.73875377347E+00  0.25100325009E+02  0.25925225631E+02  0.00000000000E+00 0.  1.
          3    1    6    6  503    0  0.31840747315E+03 -0.70936864912E+03  0.12695553558E+04  0.14887437660E+04  0.00000000000E+00 0. -1.
         -3    1    6    6    0  503  0.89288905536E+02 -0.17873598593E+03  0.42873957799E+03  0.47300812578E+03  0.00000000000E+00 0.  1.
<mgrwt>
<rscale>  0 0.23526107E+04</rscale>
<asrwt>0</asrwt>
<pdfrwt beam="1">  1        1 0.65662553E+00 0.23526107E+04</pdfrwt>
<pdfrwt beam="2">  1       -1 0.49876467E-01 0.23526107E+04</pdfrwt>
<totfact> 0.19915973E-01</totfact>
</mgrwt>
</event>
<event>
12    3  0.4634846E-008  0.1900709E+04  0.7818608E-02  0.8654504E-01
         -1   -1    0    0    0  501 -0.00000000000E+00  0.00000000000E+00  0.35064900162E+03  0.35064900162E+03  0.00000000000E+00 0.  1.
          1   -1    0    0  501    0  0.00000000000E+00 -0.00000000000E+00 -0.25757196411E+04  0.25757196411E+04  0.00000000000E+00 0. -1.
         23    2    1    2    0    0 -0.41985024153E+03  0.50973762485E+03 -0.14064476883E+04  0.15562169173E+04  0.87231428762E+02 0.  0.
        254    2    1    2    0    0  0.41985024153E+03 -0.50973762485E+03 -0.81862295120E+03  0.13701517255E+04  0.87810337835E+03 0.  0.
         23    2    4    4    0    0  0.41619786662E+03  0.16965287273E+02 -0.70625535918E+03  0.82464900719E+03  0.87982200042E+02 0.  0.
         23    2    4    4    0    0  0.36523749063E+01 -0.52670291213E+03 -0.11236759201E+03  0.54550271828E+03  0.86703185807E+02 0.  0.
          1    1    3    3  502    0 -0.32156337246E+03  0.44262851722E+03 -0.11532130348E+04  0.12764103221E+04  0.00000000000E+00 0. -1.
         -1    1    3    3    0  502 -0.98286869075E+02  0.67109107634E+02 -0.25323465345E+03  0.27980659512E+03  0.00000000000E+00 0.  1.
         13    1    5    5    0    0  0.34547936705E+02 -0.11952734306E+02 -0.28757489534E+02  0.46512589611E+02  0.00000000000E+00 0.  1.
        -13    1    5    5    0    0  0.38164992992E+03  0.28918021579E+02 -0.67749786965E+03  0.77813641758E+03  0.00000000000E+00 0. -1.
          1    1    6    6  503    0 -0.32411208472E+02 -0.31225585658E+03 -0.40817863962E+02  0.31657590626E+03  0.00000000000E+00 0. -1.
         -1    1    6    6    0  503  0.36063583378E+02 -0.21444705554E+03 -0.71549728050E+02  0.22892681202E+03  0.00000000000E+00 0.  1.
<mgrwt>
<rscale>  0 0.19007088E+04</rscale>
<asrwt>0</asrwt>
<pdfrwt beam="1">  1        1 0.39626456E+00 0.19007088E+04</pdfrwt>
<pdfrwt beam="2">  1       -1 0.53946000E-01 0.19007088E+04</pdfrwt>
<totfact> 0.38975770E+00</totfact>
</mgrwt>
</event>
<event>
12    3  0.4634846E-008  0.1369537E+04  0.7818608E-02  0.8976169E-01
         -1   -1    0    0    0  501 -0.00000000000E+00  0.00000000000E+00  0.22800515012E+03  0.22800515012E+03  0.00000000000E+00 0.  1.
          1   -1    0    0  501    0  0.00000000000E+00 -0.00000000000E+00 -0.20565678282E+04  0.20565678282E+04  0.00000000000E+00 0. -1.
         23    2    1    2    0    0  0.38759321458E+03  0.10111452897E+03 -0.51435192370E+03  0.65845367766E+03  0.92469974871E+02 0.  0.
        254    2    1    2    0    0 -0.38759321458E+03 -0.10111452897E+03 -0.13142107544E+04  0.16261193007E+04  0.86986287719E+03 0.  0.
         23    2    4    4    0    0 -0.37752362590E+03 -0.30935321168E+03 -0.28491384623E+03  0.57240460584E+03  0.90816492521E+02 0.  0.
         23    2    4    4    0    0 -0.10069588681E+02  0.20823868272E+03 -0.10292969082E+04  0.10537146949E+04  0.86010391083E+02 0.  0.
          4    1    3    3  502    0  0.41692478703E+02  0.34800230533E+02 -0.39083850381E+02  0.66909387877E+02  0.00000000000E+00 0. -1.
         -4    1    3    3    0  502  0.34590073588E+03  0.66314298432E+02 -0.47526807332E+03  0.59154428978E+03  0.00000000000E+00 0.  1.
         13    1    5    5    0    0 -0.13212743728E+03 -0.16302900981E+03 -0.10369555242E+03  0.23407025721E+03  0.00000000000E+00 0.  1.
        -13    1    5    5    0    0 -0.24539618862E+03 -0.14632420188E+03 -0.18121829382E+03  0.33833434862E+03  0.00000000000E+00 0. -1.
          4    1    6    6  503    0  0.10622822806E+01  0.20310965749E+02 -0.26528758878E+02  0.33428114229E+02  0.00000000000E+00 0. -1.
         -4    1    6    6    0  503 -0.11131870961E+02  0.18792771697E+03 -0.10027681493E+04  0.10202865806E+04  0.00000000000E+00 0.  1.
<mgrwt>
<rscale>  0 0.13695372E+04</rscale>
<asrwt>0</asrwt>
<pdfrwt beam="1">  1        1 0.31639504E+00 0.13695372E+04</pdfrwt>
<pdfrwt beam="2">  1       -1 0.35077717E-01 0.13695372E+04</pdfrwt>
<totfact> 0.20631013E+01</totfact>
</mgrwt>
</event>
<event>
12    3  0.4634846E-008  0.1421145E+04  0.7818608E-02  0.8938653E-01
         -1   -1    0    0    0  501 -0.00000000000E+00  0.00000000000E+00  0.42524350166E+03  0.42524350166E+03  0.00000000000E+00 0.  1.
          1   -1    0    0  501    0  0.00000000000E+00 -0.00000000000E+00 -0.11873516881E+04  0.11873516881E+04  0.00000000000E+00 0. -1.
         23    2    1    2    0    0 -0.68672583801E+02  0.93833189686E+02 -0.68157049666E+03  0.69699582260E+03  0.88001383792E+02 0.  0.
        254    2    1    2    0    0  0.68672583801E+02 -0.93833189686E+02 -0.80537689764E+02  0.91559936714E+03  0.90460781026E+03 0.  0.
         23    2    4    4    0    0  0.30229172018E+03 -0.40155692185E+03 -0.19885144910E+01  0.51094326637E+03  0.91819506001E+02 0.  0.
         23    2    4    4    0    0 -0.23361913637E+03  0.30772373217E+03 -0.78549175273E+02  0.40465610077E+03  0.91130624601E+02 0.  0.
          4    1    3    3  502    0 -0.41737804911E+02  0.98937958236E+02 -0.62470964554E+03  0.63387136327E+03  0.00000000000E+00 0. -1.
         -4    1    3    3    0  502 -0.26934778890E+02 -0.51047685492E+01 -0.56860851118E+02  0.63124459330E+02  0.00000000000E+00 0.  1.
         13    1    5    5    0    0  0.90896432705E+02 -0.87198627783E+02  0.33842605828E+02  0.13042654690E+03  0.00000000000E+00 0. -1.
        -13    1    5    5    0    0  0.21139528747E+03 -0.31435829407E+03 -0.35831120319E+02  0.38051671947E+03  0.00000000000E+00 0.  1.
          3    1    6    6  503    0 -0.18095537903E+03  0.22506054746E+03 -0.97552356059E+02  0.30481725902E+03  0.00000000000E+00 0. -1.
         -3    1    6    6    0  503 -0.52663757348E+02  0.82663184706E+02  0.19003180787E+02  0.99838841759E+02  0.00000000000E+00 0.  1.
<mgrwt>
<rscale>  0 0.14211454E+04</rscale>
<asrwt>0</asrwt>
<pdfrwt beam="1">  1        1 0.18266949E+00 0.14211454E+04</pdfrwt>
<pdfrwt beam="2">  1       -1 0.65422078E-01 0.14211454E+04</pdfrwt>
<totfact> 0.25169489E+01</totfact>
</mgrwt>
</event>
<event>
12    3  0.4634846E-008  0.1650195E+04  0.7818608E-02  0.8790291E-01
          1   -1    0    0  501    0  0.00000000000E+00  0.00000000000E+00  0.19614810377E+04  0.19614810377E+04  0.00000000000E+00 0. -1.
         -1   -1    0    0    0  501 -0.00000000000E+00 -0.00000000000E+00 -0.34707743445E+03  0.34707743445E+03  0.00000000000E+00 0.  1.
         23    2    1    2    0    0  0.12339310464E+03  0.35073291519E+03  0.11711912014E+04  0.12318306075E+04  0.86477623834E+02 0.  0.
        254    2    1    2    0    0 -0.12339310464E+03 -0.35073291519E+03  0.44321240191E+03  0.10767278646E+04  0.90811135068E+03 0.  0.
         23    2    4    4    0    0 -0.50902007789E+03 -0.18256801540E+03  0.28780296989E+03  0.61928569804E+03  0.90838903428E+02 0.  0.
         23    2    4    4    0    0  0.38562697326E+03 -0.16816489979E+03  0.15540943202E+03  0.45744216660E+03  0.90075791443E+02 0.  0.
          1    1    3    3  502    0  0.10783715490E+03  0.32847167069E+03  0.11356126518E+04  0.11870714323E+04  0.00000000000E+00 0. -1.
         -1    1    3    3    0  502  0.15555949734E+02  0.22261244506E+02  0.35578549539E+02  0.44759175220E+02  0.00000000000E+00 0.  1.
         13    1    5    5    0    0 -0.28144500848E+03 -0.13071008154E+03  0.12419465881E+03  0.33424651306E+03  0.00000000000E+00 0. -1.
        -13    1    5    5    0    0 -0.22757506941E+03 -0.51857933867E+02  0.16360831108E+03  0.28503918499E+03  0.00000000000E+00 0.  1.
          3    1    6    6  503    0  0.31687211030E+03 -0.10361425686E+03  0.14127499372E+03  0.36208075392E+03  0.00000000000E+00 0. -1.
         -3    1    6    6    0  503  0.68754862957E+02 -0.64550642928E+02  0.14134438295E+02  0.95361412681E+02  0.00000000000E+00 0.  1.
<mgrwt>
<rscale>  0 0.16501949E+04</rscale>
<asrwt>0</asrwt>
<pdfrwt beam="1">  1        1 0.30176631E+00 0.16501949E+04</pdfrwt>
<pdfrwt beam="2">  1       -1 0.53396530E-01 0.16501949E+04</pdfrwt>
<totfact> 0.10703630E+01</totfact>
</mgrwt>
</event>
<event>
12    3  0.4634846E-008  0.2065899E+04  0.7818608E-02  0.8576416E-01
          2   -1    0    0  501    0  0.00000000000E+00  0.00000000000E+00  0.11405208941E+04  0.11405208941E+04  0.00000000000E+00 0. -1.
         -2   -1    0    0    0  501 -0.00000000000E+00 -0.00000000000E+00 -0.93552439740E+03  0.93552439740E+03  0.00000000000E+00 0.  1.
         23    2    1    2    0    0 -0.54659862666E+03 -0.15611958837E+03  0.69639239718E+03  0.90361981372E+03  0.91776970650E+02 0.  0.
        254    2    1    2    0    0  0.54659862666E+03  0.15611958837E+03 -0.49139590052E+03  0.11724254777E+04  0.89998232497E+03 0.  0.
         23    2    4    4    0    0  0.10875102442E+03 -0.24884030623E+03  0.12338234646E+03  0.31158124344E+03  0.90063225164E+02 0.  0.
         23    2    4    4    0    0  0.43784760224E+03  0.40495989460E+03 -0.61477824699E+03  0.86084423430E+03  0.86008509616E+02 0.  0.
          4    1    3    3  502    0 -0.69398476508E+02  0.75657322294E+01  0.10752152584E+03  0.12819620651E+03  0.00000000000E+00 0.  1.
         -4    1    3    3    0  502 -0.47720015016E+03 -0.16368532060E+03  0.58887087134E+03  0.77542360720E+03  0.00000000000E+00 0. -1.
         13    1    5    5    0    0  0.12422760911E+03 -0.23224545165E+03  0.11223003921E+03  0.28629710159E+03  0.00000000000E+00 0.  1.
        -13    1    5    5    0    0 -0.15476584687E+02 -0.16594854588E+02  0.11152307256E+02  0.25284141858E+02  0.00000000000E+00 0. -1.
          4    1    6    6  503    0  0.26491432271E+03  0.22030103519E+03 -0.40861176258E+03  0.53448640488E+03  0.00000000000E+00 0.  1.
         -4    1    6    6    0  503  0.17293327953E+03  0.18465885941E+03 -0.20616648441E+03  0.32635782942E+03  0.00000000000E+00 0. -1.
<mgrwt>
<rscale>  0 0.20658994E+04</rscale>
<asrwt>0</asrwt>
<pdfrwt beam="1">  1        2 0.17546475E+00 0.20658994E+04</pdfrwt>
<pdfrwt beam="2">  1       -2 0.14392683E+00 0.20658994E+04</pdfrwt>
<totfact> 0.63530027E+00</totfact>
</mgrwt>
</event>
<event>
12    3  0.4634846E-008  0.2767623E+04  0.7818608E-02  0.8313391E-01
         -1   -1    0    0    0  501 -0.00000000000E+00  0.00000000000E+00  0.66121030199E+03  0.66121030199E+03  0.00000000000E+00 0.  1.
          1   -1    0    0  501    0  0.00000000000E+00 -0.00000000000E+00 -0.28961046166E+04  0.28961046166E+04  0.00000000000E+00 0. -1.
         23    2    1    2    0    0  0.18256113861E+03  0.55809855466E+03  0.39993094118E+03  0.71614973696E+03  0.90128364011E+02 0.  0.
        254    2    1    2    0    0 -0.18256113861E+03 -0.55809855466E+03 -0.26348252558E+04  0.28411651817E+04  0.88606596526E+03 0.  0.
         23    2    4    4    0    0 -0.39841397976E+03 -0.55791718146E+03 -0.24423233625E+04  0.25383940685E+04  0.92172442988E+02 0.  0.
         23    2    4    4    0    0  0.21585284115E+03 -0.18137320026E+00 -0.19250189332E+03  0.30277111319E+03  0.89559399969E+02 0.  0.
          1    1    3    3  502    0  0.94342623721E+02  0.24847893273E+03  0.12929673949E+03  0.29556717935E+03  0.00000000000E+00 0. -1.
         -1    1    3    3    0  502  0.88218514886E+02  0.30961962192E+03  0.27063420169E+03  0.42058255762E+03  0.00000000000E+00 0.  1.
         13    1    5    5    0    0 -0.10868996924E+03 -0.97688496898E+02 -0.59512341983E+03  0.61280375054E+03  0.00000000000E+00 0. -1.
        -13    1    5    5    0    0 -0.28972401052E+03 -0.46022868456E+03 -0.18471999427E+04  0.19255903179E+04  0.00000000000E+00 0.  1.
          1    1    6    6  503    0 -0.71995298245E+01  0.75993627314E+01 -0.75116084433E+01  0.12884401617E+02  0.00000000000E+00 0. -1.
         -1    1    6    6    0  503  0.22305237097E+03 -0.77807359317E+01 -0.18499028487E+03  0.28988671157E+03  0.00000000000E+00 0.  1.
<mgrwt>
<rscale>  0 0.27676230E+04</rscale>
<asrwt>0</asrwt>
<pdfrwt beam="1">  1        1 0.44555456E+00 0.27676230E+04</pdfrwt>
<pdfrwt beam="2">  1       -1 0.10172466E+00 0.27676230E+04</pdfrwt>
<totfact> 0.56533760E-01</totfact>
</mgrwt>
</event>
<event>
12    3  0.4634846E-008  0.1410036E+04  0.7818608E-02  0.8946586E-01
          2   -1    0    0  501    0  0.00000000000E+00  0.00000000000E+00  0.20660861470E+04  0.20660861470E+04  0.00000000000E+00 0. -1.
         -2   -1    0    0    0  501 -0.00000000000E+00 -0.00000000000E+00 -0.24057590962E+03  0.24057590962E+03  0.00000000000E+00 0.  1.
         23    2    1    2    0    0 -0.34217554328E+03 -0.11010543793E+03  0.22896879447E+03  0.43629992825E+03  0.93400260516E+02 0.  0.
        254    2    1    2    0    0  0.34217554328E+03  0.11010543793E+03  0.15965414429E+04  0.18703621283E+04  0.90559516474E+03 0.  0.
         23    2    4    4    0    0 -0.18647175735E+03  0.29650759657E+03  0.90961713372E+03  0.97905752132E+03  0.91988200260E+02 0.  0.
         23    2    4    4    0    0  0.52864730063E+03 -0.18640215864E+03  0.68692430917E+03  0.89130460702E+03  0.91351862379E+02 0.  0.
          4    1    3    3  502    0 -0.10645853352E+03 -0.15447442240E+02  0.24775566409E+02  0.11038963503E+03  0.00000000000E+00 0. -1.
         -4    1    3    3    0  502 -0.23571700976E+03 -0.94657995687E+02  0.20419322806E+03  0.32591029322E+03  0.00000000000E+00 0.  1.
         13    1    5    5    0    0 -0.31183177119E+02  0.11376475639E+02  0.13758803825E+03  0.14153544786E+03  0.00000000000E+00 0.  1.
        -13    1    5    5    0    0 -0.15528858023E+03  0.28513112093E+03  0.77202909547E+03  0.83752207346E+03  0.00000000000E+00 0. -1.
          2    1    6    6  503    0  0.31991325290E+03 -0.67764106307E+02  0.41986001240E+03  0.53218313905E+03  0.00000000000E+00 0.  1.
         -2    1    6    6    0  503  0.20873404773E+03 -0.11863805234E+03  0.26706429677E+03  0.35912146797E+03  0.00000000000E+00 0. -1.
<mgrwt>
<rscale>  0 0.14100362E+04</rscale>
<asrwt>0</asrwt>
<pdfrwt beam="1">  1        2 0.31785939E+00 0.14100362E+04</pdfrwt>
<pdfrwt beam="2">  1       -2 0.37011680E-01 0.14100362E+04</pdfrwt>
<totfact> 0.41103751E+01</totfact>
</mgrwt>
</event>
<event>
12    3  0.4634846E-008  0.1587505E+04  0.7818608E-02  0.8828261E-01
         -1   -1    0    0    0  501 -0.00000000000E+00  0.00000000000E+00  0.45119879370E+03  0.45119879370E+03  0.00000000000E+00 0.  1.
          1   -1    0    0  501    0  0.00000000000E+00 -0.00000000000E+00 -0.13963758886E+04  0.13963758886E+04  0.00000000000E+00 0. -1.
         23    2    1    2    0    0 -0.33752253845E+02  0.17556262767E+03 -0.82464528456E+03  0.84927947855E+03  0.96303356461E+02 0.  0.
        254    2    1    2    0    0  0.33752253845E+02 -0.17556262767E+03 -0.12053181030E+03  0.99829520370E+03  0.97473275597E+03 0.  0.
         23    2    4    4    0    0 -0.41100587252E+03 -0.20504608857E+03 -0.24222999126E+03  0.52754640214E+03  0.93059723084E+02 0.  0.
         23    2    4    4    0    0  0.44475812637E+03  0.29483460893E+02  0.12169818096E+03  0.47074880156E+03  0.90082859019E+02 0.  0.
          2    1    3    3  502    0 -0.61351062859E+02  0.14029753017E+03 -0.70717237561E+03  0.72356072220E+03  0.00000000000E+00 0. -1.
         -2    1    3    3    0  502  0.27598809014E+02  0.35265097507E+02 -0.11747290894E+03  0.12571875635E+03  0.00000000000E+00 0.  1.
         13    1    5    5    0    0 -0.25829208265E+03 -0.12686486710E+03 -0.20125122905E+03  0.35115744568E+03  0.00000000000E+00 0. -1.
        -13    1    5    5    0    0 -0.15271378988E+03 -0.78181221465E+02 -0.40978762205E+02  0.17638895646E+03  0.00000000000E+00 0.  1.
          4    1    6    6  503    0  0.59535925626E+02 -0.22986246307E+02  0.15883134198E+01  0.63838990429E+02  0.00000000000E+00 0.  1.
         -4    1    6    6    0  503  0.38522220074E+03  0.52469707200E+02  0.12010986754E+03  0.40690981113E+03  0.00000000000E+00 0. -1.
<mgrwt>
<rscale>  0 0.15875051E+04</rscale>
<asrwt>0</asrwt>
<pdfrwt beam="1">  1        1 0.21482706E+00 0.15875051E+04</pdfrwt>
<pdfrwt beam="2">  1       -1 0.69415201E-01 0.15875051E+04</pdfrwt>
<totfact> 0.15581171E+01</totfact>
</mgrwt>
</event>
<event>
12    3  0.4634846E-008  0.1984885E+04  0.7818608E-02  0.8613720E-01
         -2   -1    0    0    0  501 -0.00000000000E+00  0.00000000000E+00  0.79768614004E+03  0.79768614004E+03  0.00000000000E+00 0.  1.
          2   -1    0    0  501    0  0.00000000000E+00 -0.00000000000E+00 -0.12347485563E+04  0.12347485563E+04  0.00000000000E+00 0. -1.
         23    2    1    2    0    0  0.42665339816E+03 -0.58819056018E+03 -0.43004100296E+03  0.84919400988E+03  0.90520411689E+02 0.  0.
        254    2    1    2    0    0 -0.42665339816E+03  0.58819056018E+03 -0.70214132552E+01  0.11832406864E+04  0.93381366691E+03 0.  0.
         23    2    4    4    0    0  0.54438292181E+01  0.15640763771E+03 -0.40829835334E+03  0.44667806924E+03  0.91218242634E+02 0.  0.
         23    2    4    4    0    0 -0.43209722738E+03  0.43178292247E+03  0.40127694008E+03  0.73656261718E+03  0.91415536620E+02 0.  0.
          2    1    3    3  502    0  0.25761186669E+03 -0.33262421238E+03 -0.29787349234E+03  0.51549137525E+03  0.00000000000E+00 0. -1.
         -2    1    3    3    0  502  0.16904153147E+03 -0.25556634781E+03 -0.13216751062E+03  0.33370263463E+03  0.00000000000E+00 0.  1.
         13    1    5    5    0    0  0.27392294710E+02  0.11488788622E+03 -0.19263007727E+03  0.22595555067E+03  0.00000000000E+00 0. -1.
        -13    1    5    5    0    0 -0.21948465492E+02  0.41519751494E+02 -0.21566827607E+03  0.22072251857E+03  0.00000000000E+00 0.  1.
          3    1    6    6  503    0 -0.35079207862E+03  0.29515331449E+03  0.30653466861E+03  0.55148351248E+03  0.00000000000E+00 0. -1.
         -3    1    6    6    0  503 -0.81305148759E+02  0.13662960798E+03  0.94742271474E+02  0.18507910470E+03  0.00000000000E+00 0.  1.
<mgrwt>
<rscale>  0 0.19848847E+04</rscale>
<asrwt>0</asrwt>
<pdfrwt beam="1">  1        2 0.18996132E+00 0.19848847E+04</pdfrwt>
<pdfrwt beam="2">  1       -2 0.12272095E+00 0.19848847E+04</pdfrwt>
<totfact> 0.84362170E+00</totfact>
</mgrwt>
</event>
<event>
12    3  0.4634846E-008  0.1563382E+04  0.7818608E-02  0.8843365E-01
         -2   -1    0    0    0  501 -0.00000000000E+00  0.00000000000E+00  0.31629806419E+03  0.31629806419E+03  0.00000000000E+00 0. -1.
          2   -1    0    0  501    0  0.00000000000E+00 -0.00000000000E+00 -0.19318515611E+04  0.19318515611E+04  0.00000000000E+00 0.  1.
         23    2    1    2    0    0 -0.51579293244E+02 -0.50809658335E+03 -0.64890164343E+03  0.83075123085E+03  0.90838885966E+02 0.  0.
        254    2    1    2    0    0  0.51579293244E+02  0.50809658335E+03 -0.96665185352E+03  0.14173983945E+04  0.90209746772E+03 0.  0.
         23    2    4    4    0    0  0.30647979870E+03  0.18153384679E+03 -0.92064334798E+03  0.99104506845E+03  0.87759608977E+02 0.  0.
         23    2    4    4    0    0 -0.25490050546E+03  0.32656273656E+03 -0.46008505543E+02  0.42635332604E+03  0.89682146762E+02 0.  0.
          3    1    3    3  502    0 -0.19174614204E+01 -0.35722636440E+03 -0.48671551286E+03  0.60374360662E+03  0.00000000000E+00 0. -1.
         -3    1    3    3    0  502 -0.49661831824E+02 -0.15087021895E+03 -0.16218613057E+03  0.22700762422E+03  0.00000000000E+00 0.  1.
         13    1    5    5    0    0  0.18820252276E+02  0.44114115403E+02 -0.12841417714E+03  0.13707829137E+03  0.00000000000E+00 0. -1.
        -13    1    5    5    0    0  0.28765954643E+03  0.13741973139E+03 -0.79222917084E+03  0.85396677708E+03  0.00000000000E+00 0.  1.
          3    1    6    6  503    0 -0.94037914693E+01  0.62732780502E+02 -0.45920892345E+01  0.63599688105E+02  0.00000000000E+00 0. -1.
         -3    1    6    6    0  503 -0.24549671399E+03  0.26382995606E+03 -0.41416416308E+02  0.36275363793E+03  0.00000000000E+00 0.  1.
<mgrwt>
<rscale>  0 0.15633821E+04</rscale>
<asrwt>0</asrwt>
<pdfrwt beam="1">  1        2 0.29720794E+00 0.15633821E+04</pdfrwt>
<pdfrwt beam="2">  1       -2 0.48661240E-01 0.15633821E+04</pdfrwt>
<totfact> 0.28041627E+01</totfact>
</mgrwt>
</event>
<event>
12    3  0.4634846E-008  0.1942886E+04  0.7818608E-02  0.8633799E-01
          1   -1    0    0  501    0  0.00000000000E+00  0.00000000000E+00  0.12768247534E+04  0.12768247534E+04  0.00000000000E+00 0. -1.
         -1   -1    0    0    0  501 -0.00000000000E+00 -0.00000000000E+00 -0.73910010990E+03  0.73910010990E+03  0.00000000000E+00 0.  1.
         23    2    1    2    0    0 -0.66148974568E+03  0.44058547016E+02 -0.18027811443E+03  0.69297581447E+03  0.90583893158E+02 0.  0.
        254    2    1    2    0    0  0.66148974568E+03 -0.44058547016E+02  0.71800275790E+03  0.13229490488E+04  0.89171541770E+03 0.  0.
         23    2    4    4    0    0  0.43607633647E+03 -0.29520144615E+03  0.80173040708E+03  0.96345883615E+03  0.90414701744E+02 0.  0.
         23    2    4    4    0    0  0.22541340921E+03  0.25114289913E+03 -0.83727649178E+02  0.35949021265E+03  0.91317757959E+02 0.  0.
          3    1    3    3  502    0 -0.20741017391E+03  0.12227549205E+02 -0.10066544010E+03  0.23087231110E+03  0.00000000000E+00 0. -1.
         -3    1    3    3    0  502 -0.45407957176E+03  0.31830997811E+02 -0.79612674330E+02  0.46210350337E+03  0.00000000000E+00 0.  1.
         13    1    5    5    0    0  0.57197332400E+02 -0.11348480477E+02  0.12068817878E+03  0.13403715657E+03  0.00000000000E+00 0. -1.
        -13    1    5    5    0    0  0.37887900407E+03 -0.28385296567E+03  0.68104222829E+03  0.82942167958E+03  0.00000000000E+00 0.  1.
          1    1    6    6  503    0  0.91776391345E+01  0.59863922221E+02 -0.20615567252E+02  0.63975931857E+02  0.00000000000E+00 0. -1.
         -1    1    6    6    0  503  0.21623577007E+03  0.19127897691E+03 -0.63112081926E+02  0.29551428079E+03  0.00000000000E+00 0.  1.
<mgrwt>
<rscale>  0 0.19428858E+04</rscale>
<asrwt>0</asrwt>
<pdfrwt beam="1">  1        1 0.19643458E+00 0.19428858E+04</pdfrwt>
<pdfrwt beam="2">  1       -1 0.11370771E+00 0.19428858E+04</pdfrwt>
<totfact> 0.61795173E+00</totfact>
</mgrwt>
</event>
<event>
12    3  0.4634846E-008  0.1816860E+04  0.7818608E-02  0.8697385E-01
         -2   -1    0    0    0  501 -0.00000000000E+00  0.00000000000E+00  0.72833028178E+03  0.72833028178E+03  0.00000000000E+00 0. -1.
          2   -1    0    0  501    0  0.00000000000E+00 -0.00000000000E+00 -0.11330642037E+04  0.11330642037E+04  0.00000000000E+00 0.  1.
         23    2    1    2    0    0  0.19735998220E+03  0.37554043865E+03  0.39388400324E+03  0.58558911922E+03  0.88252053283E+02 0.  0.
        254    2    1    2    0    0 -0.19735998220E+03 -0.37554043865E+03 -0.79861792516E+03  0.12758053663E+04  0.89994841994E+03 0.  0.
         23    2    4    4    0    0 -0.35215660616E+03 -0.59430755405E+03 -0.46589870904E+03  0.83834332765E+03  0.92423935500E+02 0.  0.
         23    2    4    4    0    0  0.15479662396E+03  0.21876711540E+03 -0.33271921612E+03  0.43746203861E+03  0.94073975572E+02 0.  0.
          3    1    3    3  502    0  0.20566908719E+03  0.34481009753E+03  0.36528364489E+03  0.54279454493E+03  0.00000000000E+00 0. -1.
         -3    1    3    3    0  502 -0.83091049873E+01  0.30730341122E+02  0.28600358347E+02  0.42794574291E+02  0.00000000000E+00 0.  1.
         13    1    5    5    0    0 -0.14747256210E+03 -0.30054822839E+03 -0.17958765986E+03  0.37990672768E+03  0.00000000000E+00 0.  1.
        -13    1    5    5    0    0 -0.20468404406E+03 -0.29375932566E+03 -0.28631104918E+03  0.45843659997E+03  0.00000000000E+00 0. -1.
          2    1    6    6  503    0  0.61392027014E+02  0.35043783917E+02 -0.13217973800E+03  0.14989506633E+03  0.00000000000E+00 0. -1.
         -2    1    6    6    0  503  0.93404596949E+02  0.18372333148E+03 -0.20053947811E+03  0.28756697228E+03  0.00000000000E+00 0.  1.
<mgrwt>
<rscale>  0 0.18168599E+04</rscale>
<asrwt>0</asrwt>
<pdfrwt beam="1">  1        2 0.17431757E+00 0.18168599E+04</pdfrwt>
<pdfrwt beam="2">  1       -2 0.11205081E+00 0.18168599E+04</pdfrwt>
<totfact> 0.12315581E+01</totfact>
</mgrwt>
</event>
<event>
12    3  0.4634846E-008  0.1344290E+04  0.7818608E-02  0.8995162E-01
          1   -1    0    0  501    0  0.00000000000E+00  0.00000000000E+00  0.12706118195E+04  0.12706118195E+04  0.00000000000E+00 0. -1.
         -1   -1    0    0    0  501 -0.00000000000E+00 -0.00000000000E+00 -0.35555991418E+03  0.35555991418E+03  0.00000000000E+00 0.  1.
         23    2    1    2    0    0 -0.32798272263E+03 -0.10234995594E+03  0.95660727422E+02  0.37233051102E+03  0.10691517590E+03 0.  0.
        254    2    1    2    0    0  0.32798272263E+03  0.10234995594E+03  0.81939117785E+03  0.12538412226E+04  0.88468510180E+03 0.  0.
         23    2    4    4    0    0  0.55112921518E+03 -0.41688214897E+02  0.79327203725E+03  0.97110017743E+03  0.90959938608E+02 0.  0.
         23    2    4    4    0    0 -0.22314649254E+03  0.14403817084E+03  0.26119140601E+02  0.28274104519E+03  0.93375250118E+02 0.  0.
          4    1    3    3  502    0 -0.24587411982E+02  0.15949916516E+02 -0.83603300432E+01  0.30476807301E+02  0.00000000000E+00 0. -1.
         -4    1    3    3    0  502 -0.30339531065E+03 -0.11829987246E+03  0.10402105746E+03  0.34185370372E+03  0.00000000000E+00 0.  1.
         13    1    5    5    0    0  0.20693420059E+03  0.18993551647E+02  0.34397633746E+03  0.40187341180E+03  0.00000000000E+00 0.  1.
        -13    1    5    5    0    0  0.34419501459E+03 -0.60681766544E+02  0.44929569979E+03  0.56922676562E+03  0.00000000000E+00 0. -1.
          3    1    6    6  503    0 -0.20074441851E+03  0.93202591729E+02  0.41312004306E+02  0.22514823199E+03  0.00000000000E+00 0. -1.
         -3    1    6    6    0  503 -0.22402074032E+02  0.50835579109E+02 -0.15192863705E+02  0.57592813196E+02  0.00000000000E+00 0.  1.
<mgrwt>
<rscale>  0 0.13442896E+04</rscale>
<asrwt>0</asrwt>
<pdfrwt beam="1">  1        1 0.19547874E+00 0.13442896E+04</pdfrwt>
<pdfrwt beam="2">  1       -1 0.54701526E-01 0.13442896E+04</pdfrwt>
<totfact> 0.31394590E+01</totfact>
</mgrwt>
</event>
<event>
12    3  0.4634846E-008  0.1378842E+04  0.7818608E-02  0.8969278E-01
          1   -1    0    0  501    0  0.00000000000E+00  0.00000000000E+00  0.93048751946E+03  0.93048751946E+03  0.00000000000E+00 0. -1.
         -1   -1    0    0    0  501 -0.00000000000E+00 -0.00000000000E+00 -0.51080887097E+03  0.51080887097E+03  0.00000000000E+00 0.  1.
         23    2    1    2    0    0  0.14940562528E+03 -0.26360253853E+03 -0.13217664632E+03  0.34347290475E+03  0.93245006728E+02 0.  0.
        254    2    1    2    0    0 -0.14940562528E+03  0.26360253853E+03  0.55185529481E+03  0.10978234857E+04  0.89936855634E+03 0.  0.
         23    2    4    4    0    0  0.15944218337E+03  0.15684283973E+03  0.69191435552E+03  0.73260847028E+03  0.89152729219E+02 0.  0.
         23    2    4    4    0    0 -0.30884780865E+03  0.10675969880E+03 -0.14005906072E+03  0.36521501541E+03  0.83551569701E+02 0.  0.
          3    1    3    3  502    0 -0.19511718146E+01 -0.21071162402E+01  0.93844218584E+01  0.98139891948E+01  0.00000000000E+00 0. -1.
         -3    1    3    3    0  502  0.15135679709E+03 -0.26149542229E+03 -0.14156106817E+03  0.33365891555E+03  0.00000000000E+00 0.  1.
         13    1    5    5    0    0  0.11738421888E+03  0.15566029038E+03  0.61187734915E+03  0.64218616557E+03  0.00000000000E+00 0.  1.
        -13    1    5    5    0    0  0.42057964483E+02  0.11825493563E+01  0.80037006370E+02  0.90422304705E+02  0.00000000000E+00 0. -1.
          4    1    6    6  503    0 -0.56875430793E+02  0.24643889237E+02  0.65835628782E+01  0.62333612159E+02  0.00000000000E+00 0. -1.
         -4    1    6    6    0  503 -0.25197237785E+03  0.82115809560E+02 -0.14664262360E+03  0.30288140325E+03  0.00000000000E+00 0.  1.
<mgrwt>
<rscale>  0 0.13788419E+04</rscale>
<asrwt>0</asrwt>
<pdfrwt beam="1">  1        1 0.14315193E+00 0.13788419E+04</pdfrwt>
<pdfrwt beam="2">  1       -1 0.78585981E-01 0.13788419E+04</pdfrwt>
<totfact> 0.27201313E+01</totfact>
</mgrwt>
</event>
<event>
12    3  0.4634846E-008  0.2472742E+04  0.7818608E-02  0.8412761E-01
         -2   -1    0    0    0  501 -0.00000000000E+00  0.00000000000E+00  0.54688999968E+03  0.54688999968E+03  0.00000000000E+00 0. -1.
          2   -1    0    0  501    0  0.00000000000E+00 -0.00000000000E+00 -0.27951011181E+04  0.27951011181E+04  0.00000000000E+00 0.  1.
         23    2    1    2    0    0 -0.41228975551E+01  0.17297860793E+03  0.44938789357E+03  0.48883752270E+03  0.84107357768E+02 0.  0.
        254    2    1    2    0    0  0.41228975551E+01 -0.17297860793E+03 -0.26975990119E+04  0.28531535950E+04  0.91296572255E+03 0.  0.
         23    2    4    4    0    0  0.19441937828E+03 -0.13023256874E+03 -0.26089120694E+04  0.26211553375E+04  0.96300056739E+02 0.  0.
         23    2    4    4    0    0 -0.19029648073E+03 -0.42746039190E+02 -0.88686942536E+02  0.23199825751E+03  0.88982263792E+02 0.  0.
          3    1    3    3  502    0 -0.12480319474E+02  0.17285882276E+03  0.36520594377E+03  0.40424165093E+03  0.00000000000E+00 0. -1.
         -3    1    3    3    0  502  0.83574219186E+01  0.11978517119E+00  0.84181949794E+02  0.84595871771E+02  0.00000000000E+00 0.  1.
         13    1    5    5    0    0  0.25485055283E+01 -0.27174256561E+02 -0.56792274422E+03  0.56857820790E+03  0.00000000000E+00 0. -1.
        -13    1    5    5    0    0  0.19187087275E+03 -0.10305831218E+03 -0.20409893252E+04  0.20525771296E+04  0.00000000000E+00 0.  1.
          3    1    6    6  503    0 -0.74078233528E+02  0.14045057408E+02 -0.41809810560E+00  0.75399092344E+02  0.00000000000E+00 0. -1.
         -3    1    6    6    0  503 -0.11621824720E+03 -0.56791096598E+02 -0.88268844431E+02  0.15659916517E+03  0.00000000000E+00 0.  1.
<mgrwt>
<rscale>  0 0.24727417E+04</rscale>
<asrwt>0</asrwt>
<pdfrwt beam="1">  1        2 0.43001555E+00 0.24727417E+04</pdfrwt>
<pdfrwt beam="2">  1       -2 0.84136924E-01 0.24727417E+04</pdfrwt>
<totfact> 0.25665762E+00</totfact>
</mgrwt>
</event>
<event>
12    3  0.4634846E-008  0.1133838E+04  0.7818608E-02  0.9172824E-01
          2   -1    0    0  501    0  0.00000000000E+00  0.00000000000E+00  0.15864313296E+04  0.15864313296E+04  0.00000000000E+00 0. -1.
         -2   -1    0    0    0  501 -0.00000000000E+00 -0.00000000000E+00 -0.20259134802E+03  0.20259134802E+03  0.00000000000E+00 0.  1.
         23    2    1    2    0    0 -0.11795144096E+03  0.14311084405E+03  0.16456159801E+03  0.26460741014E+03  0.92430005153E+02 0.  0.
        254    2    1    2    0    0  0.11795144096E+03 -0.14311084405E+03  0.12192783836E+04  0.15244152675E+04  0.89599602398E+03 0.  0.
         23    2    4    4    0    0  0.35904403766E+02  0.28172628642E+03  0.97552823691E+03  0.10197697510E+04  0.87270712635E+02 0.  0.
         23    2    4    4    0    0  0.82047037190E+02 -0.42483713046E+03  0.24375014667E+03  0.50464551654E+03  0.89636262897E+02 0.  0.
          4    1    3    3  502    0 -0.82119023223E+02  0.57039333076E+02  0.13255174663E+03  0.16603308413E+03  0.00000000000E+00 0. -1.
         -4    1    3    3    0  502 -0.35832417733E+02  0.86071510973E+02  0.32009851382E+02  0.98574326005E+02  0.00000000000E+00 0.  1.
         13    1    5    5    0    0  0.43213195003E+02  0.67229296251E+02  0.20889248937E+03  0.22365873694E+03  0.00000000000E+00 0.  1.
        -13    1    5    5    0    0 -0.73087912370E+01  0.21449699016E+03  0.76663574754E+03  0.79611101401E+03  0.00000000000E+00 0. -1.
          4    1    6    6  503    0  0.28114765957E+02 -0.34020806559E+03  0.19389866112E+03  0.39259222960E+03  0.00000000000E+00 0. -1.
         -4    1    6    6    0  503  0.53932271233E+02 -0.84629064870E+02  0.49851485546E+02  0.11205328693E+03  0.00000000000E+00 0.  1.
<mgrwt>
<rscale>  0 0.11338382E+04</rscale>
<asrwt>0</asrwt>
<pdfrwt beam="1">  1        2 0.24406635E+00 0.11338382E+04</pdfrwt>
<pdfrwt beam="2">  1       -2 0.31167901E-01 0.11338382E+04</pdfrwt>
<totfact> 0.10729382E+02</totfact>
</mgrwt>
</event>
<event>
12    3  0.4634846E-008  0.1496807E+04  0.7818608E-02  0.8886579E-01
         -2   -1    0    0    0  501 -0.00000000000E+00  0.00000000000E+00  0.12764530292E+04  0.12764530292E+04  0.00000000000E+00 0.  1.
          2   -1    0    0  501    0  0.00000000000E+00 -0.00000000000E+00 -0.43880042536E+03  0.43880042536E+03  0.00000000000E+00 0. -1.
         23    2    1    2    0    0  0.24977466238E+03 -0.39739232877E+03  0.30997141641E+03  0.56978663966E+03  0.90920244264E+02 0.  0.
        254    2    1    2    0    0 -0.24977466238E+03  0.39739232877E+03  0.52768118747E+03  0.11454668149E+04  0.90185295009E+03 0.  0.
         23    2    4    4    0    0 -0.20118270790E+03 -0.10056829345E+03  0.58338319730E+03  0.63281984309E+03  0.97655185784E+02 0.  0.
         23    2    4    4    0    0 -0.48591954478E+02  0.49796062222E+03 -0.55702009835E+02  0.51264697185E+03  0.96841336823E+02 0.  0.
          2    1    3    3  502    0  0.23637400392E+03 -0.34112775398E+03  0.29745951541E+03  0.51061039705E+03  0.00000000000E+00 0. -1.
         -2    1    3    3    0  502  0.13400658457E+02 -0.56264574791E+02  0.12511900996E+02  0.59176242615E+02  0.00000000000E+00 0.  1.
         13    1    5    5    0    0 -0.20461611873E+03 -0.10741835232E+03  0.52082255119E+03  0.56979170606E+03  0.00000000000E+00 0. -1.
        -13    1    5    5    0    0  0.34334108350E+01  0.68500588656E+01  0.62560646109E+02  0.63028137035E+02  0.00000000000E+00 0.  1.
          4    1    6    6  503    0 -0.59375801283E+00  0.38645501534E+03 -0.24113181207E+02  0.38720702077E+03  0.00000000000E+00 0. -1.
         -4    1    6    6    0  503 -0.47998196466E+02  0.11150560688E+03 -0.31588828628E+02  0.12543995107E+03  0.00000000000E+00 0.  1.
<mgrwt>
<rscale>  0 0.14968074E+04</rscale>
<asrwt>0</asrwt>
<pdfrwt beam="1">  1        2 0.67507758E-01 0.14968074E+04</pdfrwt>
<pdfrwt beam="2">  1       -2 0.19637739E+00 0.14968074E+04</pdfrwt>
<totfact> 0.97112740E+00</totfact>
</mgrwt>
</event>
<event>
12    3  0.4634846E-008  0.1834873E+04  0.7818608E-02  0.8687971E-01
         -2   -1    0    0    0  501 -0.00000000000E+00  0.00000000000E+00  0.33786581978E+03  0.33786581978E+03  0.00000000000E+00 0.  1.
          2   -1    0    0  501    0  0.00000000000E+00 -0.00000000000E+00 -0.24911950555E+04  0.24911950555E+04  0.00000000000E+00 0. -1.
         23    2    1    2    0    0 -0.67111178380E+03  0.86778648478E+02 -0.58895435168E+03  0.90157752294E+03  0.89739853600E+02 0.  0.
        254    2    1    2    0    0  0.67111178380E+03 -0.86778648478E+02 -0.15643748840E+04  0.19274833523E+04  0.90000096418E+03 0.  0.
         23    2    4    4    0    0 -0.19088480494E+03  0.97831217709E+02 -0.24855327957E+03  0.34095391878E+03  0.91993945615E+02 0.  0.
         23    2    4    4    0    0  0.86199658875E+03 -0.18460986619E+03 -0.13158216045E+04  0.15865294336E+04  0.92575520774E+02 0.  0.
          2    1    3    3  502    0 -0.16921655464E+03  0.61629427294E+02 -0.15340270357E+03  0.23656884439E+03  0.00000000000E+00 0. -1.
         -2    1    3    3    0  502 -0.50189522916E+03  0.25149221185E+02 -0.43555164811E+03  0.66500867855E+03  0.00000000000E+00 0.  1.
         13    1    5    5    0    0 -0.15449983781E+01  0.31392722382E+02 -0.22288448645E+02  0.38531350633E+02  0.00000000000E+00 0. -1.
        -13    1    5    5    0    0 -0.18933980657E+03  0.66438495326E+02 -0.22626483093E+03  0.30242256815E+03  0.00000000000E+00 0.  1.
          2    1    6    6  503    0  0.44582061127E+02 -0.13783435615E+01 -0.37977295825E+02  0.58581012312E+02  0.00000000000E+00 0. -1.
         -2    1    6    6    0  503  0.81741452762E+03 -0.18323152263E+03 -0.12778443086E+04  0.15279484212E+04  0.00000000000E+00 0.  1.
<mgrwt>
<rscale>  0 0.18348729E+04</rscale>
<asrwt>0</asrwt>
<pdfrwt beam="1">  1        2 0.38326079E+00 0.18348729E+04</pdfrwt>
<pdfrwt beam="2">  1       -2 0.51979356E-01 0.18348729E+04</pdfrwt>
<totfact> 0.11599902E+01</totfact>
</mgrwt>
</event>
<event>
12    3  0.4634846E-008  0.1539157E+04  0.7818608E-02  0.8858824E-01
         -1   -1    0    0    0  501 -0.00000000000E+00  0.00000000000E+00  0.29437960945E+03  0.29437960945E+03  0.00000000000E+00 0.  1.
          1   -1    0    0  501    0  0.00000000000E+00 -0.00000000000E+00 -0.20118604282E+04  0.20118604282E+04  0.00000000000E+00 0. -1.
         23    2    1    2    0    0  0.41924884127E+03 -0.26723269627E+03 -0.45177290167E+03  0.67839076422E+03  0.94511213283E+02 0.  0.
        254    2    1    2    0    0 -0.41924884127E+03  0.26723269627E+03 -0.12657079170E+04  0.16278492734E+04  0.89481496453E+03 0.  0.
         23    2    4    4    0    0 -0.81813639494E+01 -0.13648149028E+03  0.63974004191E+02  0.17596527224E+03  0.90426610671E+02 0.  0.
         23    2    4    4    0    0 -0.41106747732E+03  0.40371418655E+03 -0.13296819212E+04  0.14518840011E+04  0.89171328435E+02 0.  0.
          2    1    3    3  502    0  0.13842820307E+03 -0.64497631270E+02 -0.88684858816E+02  0.17659930925E+03  0.00000000000E+00 0. -1.
         -2    1    3    3    0  502  0.28082063821E+03 -0.20273506500E+03 -0.36308804285E+03  0.50179145497E+03  0.00000000000E+00 0.  1.
         13    1    5    5    0    0 -0.41617017108E+02 -0.51392016764E+02  0.32428050604E+01  0.66208997007E+02  0.00000000000E+00 0.  1.
        -13    1    5    5    0    0  0.33435653158E+02 -0.85089473513E+02  0.60731199131E+02  0.10975627523E+03  0.00000000000E+00 0. -1.
          3    1    6    6  503    0 -0.41171599923E+03  0.40688385860E+03 -0.13267183533E+04  0.14474965034E+04  0.00000000000E+00 0. -1.
         -3    1    6    6    0  503  0.64852190638E+00 -0.31696720480E+01 -0.29635679475E+01  0.43874977532E+01  0.00000000000E+00 0.  1.
<mgrwt>
<rscale>  0 0.15391565E+04</rscale>
<asrwt>0</asrwt>
<pdfrwt beam="1">  1        1 0.30951700E+00 0.15391565E+04</pdfrwt>
<pdfrwt beam="2">  1       -1 0.45289170E-01 0.15391565E+04</pdfrwt>
<totfact> 0.13657746E+01</totfact>
</mgrwt>
</event>
<event>
12    3  0.4634846E-008  0.2071017E+04  0.7818608E-02  0.8574119E-01
          3   -1    0    0  501    0  0.00000000000E+00  0.00000000000E+00  0.19113751107E+04  0.19113751107E+04  0.00000000000E+00 0. -1.
         -3   -1    0    0    0  501 -0.00000000000E+00 -0.00000000000E+00 -0.56099810316E+03  0.56099810316E+03  0.00000000000E+00 0.  1.
         23    2    1    2    0    0  0.69023455857E+01 -0.38286591309E+03  0.14005073023E+04  0.14546535094E+04  0.89231043361E+02 0.  0.
        254    2    1    2    0    0 -0.69023455857E+01  0.38286591309E+03 -0.50130294760E+02  0.10177197044E+04  0.94159779120E+03 0.  0.
         23    2    4    4    0    0 -0.18384313552E+03  0.20683042610E+03  0.40036856225E+03  0.49522686339E+03  0.91528885871E+02 0.  0.
         23    2    4    4    0    0  0.17694078993E+03  0.17603548699E+03 -0.45049885701E+03  0.52249284097E+03  0.88051194638E+02 0.  0.
          3    1    3    3  502    0 -0.30419203762E+02 -0.11815081155E+03  0.34961587741E+03  0.37029205225E+03  0.00000000000E+00 0.  1.
         -3    1    3    3    0  502  0.37321549348E+02 -0.26471510154E+03  0.10508914248E+04  0.10843614572E+04  0.00000000000E+00 0. -1.
         13    1    5    5    0    0 -0.19331544686E+03  0.19806840622E+03  0.36863638734E+03  0.46097151930E+03  0.00000000000E+00 0. -1.
        -13    1    5    5    0    0  0.94723113357E+01  0.87620198884E+01  0.31732174907E+02  0.34255344093E+02  0.00000000000E+00 0.  1.
          4    1    6    6  503    0  0.52078751408E+02  0.10563218696E+03 -0.24624586057E+03  0.27296039844E+03  0.00000000000E+00 0. -1.
         -4    1    6    6    0  503  0.12486203853E+03  0.70403300031E+02 -0.20425299644E+03  0.24953244253E+03  0.00000000000E+00 0.  1.
<mgrwt>
<rscale>  0 0.20710170E+04</rscale>
<asrwt>0</asrwt>
<pdfrwt beam="1">  1        3 0.29405771E+00 0.20710170E+04</pdfrwt>
<pdfrwt beam="2">  1       -3 0.86307401E-01 0.20710170E+04</pdfrwt>
<totfact> 0.12354082E-01</totfact>
</mgrwt>
</event>
<event>
12    3  0.4634846E-008  0.1457993E+04  0.7818608E-02  0.8912878E-01
         -1   -1    0    0    0  501 -0.00000000000E+00  0.00000000000E+00  0.43820052494E+03  0.43820052494E+03  0.00000000000E+00 0.  1.
          1   -1    0    0  501    0  0.00000000000E+00 -0.00000000000E+00 -0.12127689144E+04  0.12127689144E+04  0.00000000000E+00 0. -1.
         23    2    1    2    0    0 -0.12464988413E+03  0.65551736271E+02  0.23554941688E+03  0.29081983102E+03  0.96218618689E+02 0.  0.
        254    2    1    2    0    0  0.12464988413E+03 -0.65551736271E+02 -0.10101178063E+04  0.13601496083E+04  0.89990796785E+03 0.  0.
         23    2    4    4    0    0  0.24393951863E+03  0.11734744798E+03  0.35807336641E+02  0.28773529192E+03  0.90733238467E+02 0.  0.
         23    2    4    4    0    0 -0.11928963450E+03 -0.18289918425E+03 -0.10459251430E+04  0.10724143164E+04  0.91820111236E+02 0.  0.
          1    1    3    3  502    0 -0.80668032118E+02 -0.10523304607E+02  0.13148621187E+03  0.15461790083E+03  0.00000000000E+00 0. -1.
         -1    1    3    3    0  502 -0.43981852013E+02  0.76075040878E+02  0.10406320500E+03  0.13620193019E+03  0.00000000000E+00 0.  1.
         13    1    5    5    0    0  0.24778304239E+03  0.11268974848E+03  0.45828149929E+02  0.27603556806E+03  0.00000000000E+00 0.  1.
        -13    1    5    5    0    0 -0.38435237576E+01  0.46576995019E+01 -0.10020813288E+02  0.11699723863E+02  0.00000000000E+00 0. -1.
          2    1    6    6  503    0  0.90827953851E+01 -0.51121169286E+01 -0.13757274049E+03  0.13796698821E+03  0.00000000000E+00 0. -1.
         -2    1    6    6    0  503 -0.12837242989E+03 -0.17778706732E+03 -0.90835240247E+03  0.93444732818E+03  0.00000000000E+00 0.  1.
<mgrwt>
<rscale>  0 0.14579931E+04</rscale>
<asrwt>0</asrwt>
<pdfrwt beam="1">  1        1 0.18657983E+00 0.14579931E+04</pdfrwt>
<pdfrwt beam="2">  1       -1 0.67415467E-01 0.14579931E+04</pdfrwt>
<totfact> 0.22621901E+01</totfact>
</mgrwt>
</event>
<event>
12    3  0.4634846E-008  0.2256106E+04  0.7818608E-02  0.8495432E-01
         -3   -1    0    0    0  501 -0.00000000000E+00  0.00000000000E+00  0.55224632677E+03  0.55224632677E+03  0.00000000000E+00 0.  1.
          3   -1    0    0  501    0  0.00000000000E+00 -0.00000000000E+00 -0.23042316640E+04  0.23042316640E+04  0.00000000000E+00 0. -1.
         23    2    1    2    0    0 -0.81994059720E+02 -0.93980520393E+03 -0.85748408860E+03  0.12780380096E+04  0.90251562958E+02 0.  0.
        254    2    1    2    0    0  0.81994059720E+02  0.93980520393E+03 -0.89450124859E+03  0.15784399811E+04  0.89520022516E+03 0.  0.
         23    2    4    4    0    0 -0.13139470744E+03  0.75775961892E+03 -0.99931518086E+03  0.12643676528E+04  0.92360822783E+02 0.  0.
         23    2    4    4    0    0  0.21338876716E+03  0.18204558501E+03  0.10481393228E+03  0.31407232831E+03  0.94763421405E+02 0.  0.
          4    1    3    3  502    0  0.16584675234E+01 -0.27477910997E+03 -0.20707026587E+03  0.34407034862E+03  0.00000000000E+00 0. -1.
         -4    1    3    3    0  502 -0.83652527243E+02 -0.66502609396E+03 -0.65041382273E+03  0.93396766098E+03  0.00000000000E+00 0.  1.
         13    1    5    5    0    0 -0.54795668889E+02  0.13381721736E+03 -0.15869526020E+03  0.21469466365E+03  0.00000000000E+00 0.  1.
        -13    1    5    5    0    0 -0.76599038553E+02  0.62394240156E+03 -0.84061992066E+03  0.10496729892E+04  0.00000000000E+00 0. -1.
          4    1    6    6  503    0  0.43090471109E+02 -0.39107161182E+01  0.22859400806E+02  0.48935003895E+02  0.00000000000E+00 0.  1.
         -4    1    6    6    0  503  0.17029829605E+03  0.18595630113E+03  0.81954531469E+02  0.26513732441E+03  0.00000000000E+00 0. -1.
<mgrwt>
<rscale>  0 0.22561059E+04</rscale>
<asrwt>0</asrwt>
<pdfrwt beam="1">  1        3 0.35449718E+00 0.22561059E+04</pdfrwt>
<pdfrwt beam="2">  1       -3 0.84960973E-01 0.22561059E+04</pdfrwt>
<totfact> 0.58894150E-02</totfact>
</mgrwt>
</event>
<event>
12    3  0.4634846E-008  0.1721963E+04  0.7818608E-02  0.8748936E-01
          1   -1    0    0  501    0  0.00000000000E+00  0.00000000000E+00  0.38290823270E+04  0.38290823270E+04  0.00000000000E+00 0. -1.
         -1   -1    0    0    0  501 -0.00000000000E+00 -0.00000000000E+00 -0.19359445754E+03  0.19359445754E+03  0.00000000000E+00 0.  1.
         23    2    1    2    0    0  0.37184993014E+03 -0.47353484235E+01  0.16217694650E+03  0.41572357285E+03  0.90718978060E+02 0.  0.
        254    2    1    2    0    0 -0.37184993014E+03  0.47353484235E+01  0.34733109229E+04  0.36069532116E+04  0.89884810155E+03 0.  0.
         23    2    4    4    0    0  0.57052767951E+02  0.37036393152E+03  0.17304574363E+04  0.17728555772E+04  0.90052755270E+02 0.  0.
         23    2    4    4    0    0 -0.42890269809E+03 -0.36562858310E+03  0.17428534866E+04  0.18340976344E+04  0.93456254850E+02 0.  0.
          1    1    3    3  502    0  0.20440895477E+03 -0.17749745683E+02  0.13496241788E+03  0.24558690621E+03  0.00000000000E+00 0. -1.
         -1    1    3    3    0  502  0.16744097537E+03  0.13014397259E+02  0.27214528623E+02  0.17013666664E+03  0.00000000000E+00 0.  1.
         13    1    5    5    0    0 -0.78433727336E+01  0.21597231453E+03  0.88878394559E+03  0.91468161733E+03  0.00000000000E+00 0. -1.
        -13    1    5    5    0    0  0.64896140685E+02  0.15439161699E+03  0.84167349074E+03  0.85817395992E+03  0.00000000000E+00 0.  1.
          1    1    6    6  503    0 -0.41176992874E+03 -0.33005935341E+03  0.15539856124E+04  0.16411474445E+04  0.00000000000E+00 0. -1.
         -1    1    6    6    0  503 -0.17132769349E+02 -0.35569229691E+02  0.18886787419E+03  0.19295018991E+03  0.00000000000E+00 0.  1.
<mgrwt>
<rscale>  0 0.17219630E+04</rscale>
<asrwt>0</asrwt>
<pdfrwt beam="1">  1        1 0.58908953E+00 0.17219630E+04</pdfrwt>
<pdfrwt beam="2">  1       -1 0.29783766E-01 0.17219630E+04</pdfrwt>
<totfact> 0.13372401E+00</totfact>
</mgrwt>
</event>
<event>
12    3  0.4634846E-008  0.2720552E+04  0.7818608E-02  0.8328367E-01
         -2   -1    0    0    0  501 -0.00000000000E+00  0.00000000000E+00  0.46458139486E+03  0.46458139486E+03  0.00000000000E+00 0. -1.
          2   -1    0    0  501    0  0.00000000000E+00 -0.00000000000E+00 -0.39828343190E+04  0.39828343190E+04  0.00000000000E+00 0.  1.
         23    2    1    2    0    0  0.23858841728E+03 -0.10681457052E+04 -0.24035838841E+04  0.26426414438E+04  0.92079487781E+02 0.  0.
        254    2    1    2    0    0 -0.23858841728E+03  0.10681457052E+04 -0.11146690401E+04  0.18047742701E+04  0.90380496605E+03 0.  0.
         23    2    4    4    0    0  0.23887417256E+03  0.72800438849E+03 -0.87046044610E+03  0.11632193067E+04  0.91249697384E+02 0.  0.
         23    2    4    4    0    0 -0.47746258984E+03  0.34014131672E+03 -0.24420859396E+03  0.64155496338E+03  0.91040066132E+02 0.  0.
          1    1    3    3  502    0  0.18632851125E+03 -0.96301053854E+03 -0.21382892285E+04  0.23525280946E+04  0.00000000000E+00 0. -1.
         -1    1    3    3    0  502  0.52259906032E+02 -0.10513516668E+03 -0.26529465562E+03  0.29011334914E+03  0.00000000000E+00 0.  1.
         13    1    5    5    0    0  0.37624784766E+02  0.44997475552E+02 -0.82168190028E+02  0.10095547874E+03  0.00000000000E+00 0.  1.
        -13    1    5    5    0    0  0.20124938780E+03  0.68300691294E+03 -0.78829225607E+03  0.10622638280E+04  0.00000000000E+00 0. -1.
          4    1    6    6  503    0 -0.40496191580E+03  0.26932829162E+03 -0.16724466613E+03  0.51429822114E+03  0.00000000000E+00 0. -1.
         -4    1    6    6    0  503 -0.72500674036E+02  0.70813025100E+02 -0.76963927829E+02  0.12725674224E+03  0.00000000000E+00 0.  1.
<mgrwt>
<rscale>  0 0.27205519E+04</rscale>
<asrwt>0</asrwt>
<pdfrwt beam="1">  1        2 0.61274376E+00 0.27205519E+04</pdfrwt>
<pdfrwt beam="2">  1       -2 0.71474059E-01 0.27205519E+04</pdfrwt>
<totfact> 0.55009721E-01</totfact>
</mgrwt>
</event>
<event>
12    3  0.4634846E-008  0.1887455E+04  0.7818608E-02  0.8661126E-01
         -1   -1    0    0    0  501 -0.00000000000E+00  0.00000000000E+00  0.11988059711E+04  0.11988059711E+04  0.00000000000E+00 0.  1.
          1   -1    0    0  501    0  0.00000000000E+00 -0.00000000000E+00 -0.74292369048E+03  0.74292369048E+03  0.00000000000E+00 0. -1.
         23    2    1    2    0    0  0.55746183919E+03 -0.25553215438E+03  0.57239603652E+03  0.84408646925E+03  0.93724921342E+02 0.  0.
        254    2    1    2    0    0 -0.55746183919E+03  0.25553215438E+03 -0.11651375595E+03  0.10976431923E+04  0.90287581547E+03 0.  0.
         23    2    4    4    0    0 -0.51436007394E+03 -0.24754003168E+03 -0.38632380300E+02  0.57943594425E+03  0.91712593125E+02 0.  0.
         23    2    4    4    0    0 -0.43101765250E+02  0.50307218606E+03 -0.77881375648E+02  0.51820724803E+03  0.86797791885E+02 0.  0.
          3    1    3    3  502    0  0.21438859737E+03 -0.14597705979E+03  0.21798485404E+03  0.33880550359E+03  0.00000000000E+00 0. -1.
         -3    1    3    3    0  502  0.34307324182E+03 -0.10955509459E+03  0.35441118248E+03  0.50528096567E+03  0.00000000000E+00 0.  1.
         13    1    5    5    0    0 -0.17943088859E+03 -0.39131768454E+02 -0.14622027921E+02  0.18422959258E+03  0.00000000000E+00 0. -1.
        -13    1    5    5    0    0 -0.33492918535E+03 -0.20840826323E+03 -0.24010352379E+02  0.39520635167E+03  0.00000000000E+00 0.  1.
          4    1    6    6  503    0 -0.11249366529E+02  0.20448741601E+03 -0.74448262515E+02  0.21790868580E+03  0.00000000000E+00 0. -1.
         -4    1    6    6    0  503 -0.31852398722E+02  0.29858477005E+03 -0.34331131332E+01  0.30029856223E+03  0.00000000000E+00 0.  1.
<mgrwt>
<rscale>  0 0.18874547E+04</rscale>
<asrwt>0</asrwt>
<pdfrwt beam="1">  1        1 0.11429595E+00 0.18874547E+04</pdfrwt>
<pdfrwt beam="2">  1       -1 0.18443169E+00 0.18874547E+04</pdfrwt>
<totfact> 0.45037967E+00</totfact>
</mgrwt>
</event>
<event>
12    3  0.4634846E-008  0.4007822E+04  0.7818608E-02  0.8002971E-01
          2   -1    0    0  501    0  0.00000000000E+00  0.00000000000E+00  0.23531483821E+04  0.23531483821E+04  0.00000000000E+00 0. -1.
         -2   -1    0    0    0  501 -0.00000000000E+00 -0.00000000000E+00 -0.17065046889E+04  0.17065046889E+04  0.00000000000E+00 0.  1.
         23    2    1    2    0    0 -0.12967333034E+04  0.79363787955E+03  0.14643775522E+04  0.21128801108E+04  0.92099962222E+02 0.  0.
        254    2    1    2    0    0  0.12967333034E+04 -0.79363787955E+03 -0.81773385904E+03  0.19467729602E+04  0.89992107992E+03 0.  0.
         23    2    4    4    0    0  0.71168924334E+03 -0.90481020866E+03 -0.44038742574E+03  0.12359550495E+04  0.91982100988E+02 0.  0.
         23    2    4    4    0    0  0.58504406011E+03  0.11117232911E+03 -0.37734643329E+03  0.71081791064E+03  0.90752037658E+02 0.  0.
          1    1    3    3  502    0 -0.11096316646E+04  0.64195385395E+03  0.12478413673E+04  0.17889928060E+04  0.00000000000E+00 0. -1.
         -1    1    3    3    0  502 -0.18710163881E+03  0.15168402560E+03  0.21653618487E+03  0.32388730482E+03  0.00000000000E+00 0.  1.
         13    1    5    5    0    0  0.67419355134E+03 -0.83933103219E+03 -0.43207312611E+03  0.11600434098E+04  0.00000000000E+00 0.  1.
        -13    1    5    5    0    0  0.37495691997E+02 -0.65479176473E+02 -0.83142996324E+01  0.75911639742E+02  0.00000000000E+00 0. -1.
          4    1    6    6  503    0  0.10613467713E+03  0.43381150087E+02 -0.10637357466E+03  0.15640278533E+03  0.00000000000E+00 0. -1.
         -4    1    6    6    0  503  0.47890938298E+03  0.67791179028E+02 -0.27097285863E+03  0.55441512531E+03  0.00000000000E+00 0.  1.
<mgrwt>
<rscale>  0 0.40078217E+04</rscale>
<asrwt>0</asrwt>
<pdfrwt beam="1">  1        2 0.36202283E+00 0.40078217E+04</pdfrwt>
<pdfrwt beam="2">  1       -2 0.26253918E+00 0.40078217E+04</pdfrwt>
<totfact> 0.17947369E-01</totfact>
</mgrwt>
</event>
<event>
12    3  0.4634846E-008  0.1742134E+04  0.7818608E-02  0.8737692E-01
         -1   -1    0    0    0  501 -0.00000000000E+00  0.00000000000E+00  0.13687575162E+04  0.13687575162E+04  0.00000000000E+00 0.  1.
          1   -1    0    0  501    0  0.00000000000E+00 -0.00000000000E+00 -0.55434055083E+03  0.55434055083E+03  0.00000000000E+00 0. -1.
         23    2    1    2    0    0  0.37465557407E+03 -0.50118752121E+03  0.20059979547E+03  0.66373162439E+03  0.93507543414E+02 0.  0.
        254    2    1    2    0    0 -0.37465557407E+03  0.50118752121E+03  0.61381716994E+03  0.12593664427E+04  0.90425471423E+03 0.  0.
         23    2    4    4    0    0 -0.10398091836E+02  0.50413065197E+03  0.70676432690E+03  0.87295001200E+03  0.90939953254E+02 0.  0.
         23    2    4    4    0    0 -0.36425748224E+03 -0.29431307597E+01 -0.92947156966E+02  0.38641643067E+03  0.89366148622E+02 0.  0.
          3    1    3    3  502    0  0.27597079531E+01  0.43087389476E+01  0.20262310363E+01  0.55033473012E+01  0.00000000000E+00 0. -1.
         -3    1    3    3    0  502  0.37189586612E+03 -0.50549626016E+03  0.19857356443E+03  0.65822827709E+03  0.00000000000E+00 0.  1.
         13    1    5    5    0    0 -0.21285260614E+02  0.34986179913E+03  0.55399379160E+03  0.65556499445E+03  0.00000000000E+00 0.  1.
        -13    1    5    5    0    0  0.10887168779E+02  0.15426885284E+03  0.15277053530E+03  0.21738501755E+03  0.00000000000E+00 0. -1.
          4    1    6    6  503    0 -0.34017962270E+03  0.12592263589E+01 -0.10894879946E+03  0.35720246675E+03  0.00000000000E+00 0.  1.
         -4    1    6    6    0  503 -0.24077859541E+02 -0.42023571186E+01  0.16001642494E+02  0.29213963920E+02  0.00000000000E+00 0. -1.
<mgrwt>
<rscale>  0 0.17421341E+04</rscale>
<asrwt>0</asrwt>
<pdfrwt beam="1">  1        1 0.85283162E-01 0.17421341E+04</pdfrwt>
<pdfrwt beam="2">  1       -1 0.21057808E+00 0.17421341E+04</pdfrwt>
<totfact> 0.46335936E+00</totfact>
</mgrwt>
</event>
<event>
12    3  0.4634846E-008  0.1888275E+04  0.7818608E-02  0.8660715E-01
         -2   -1    0    0    0  501 -0.00000000000E+00  0.00000000000E+00  0.63906826625E+03  0.63906826625E+03  0.00000000000E+00 0.  1.
          2   -1    0    0  501    0  0.00000000000E+00 -0.00000000000E+00 -0.13948359674E+04  0.13948359674E+04  0.00000000000E+00 0. -1.
         23    2    1    2    0    0 -0.61082426481E+03  0.20574239528E+03  0.53814247264E+02  0.65340005891E+03  0.92733209154E+02 0.  0.
        254    2    1    2    0    0  0.61082426481E+03 -0.20574239528E+03 -0.80958194842E+03  0.13805041747E+04  0.91374647992E+03 0.  0.
         23    2    4    4    0    0  0.21130797491E+03 -0.42366852976E+03 -0.42499641197E+02  0.48400767230E+03  0.91165366086E+02 0.  0.
         23    2    4    4    0    0  0.39951628990E+03  0.21792613448E+03 -0.76708230722E+03  0.89649650244E+03  0.90474564669E+02 0.  0.
          3    1    3    3  502    0 -0.19855650730E+03  0.22477131267E+02  0.23793088168E+02  0.20123622702E+03  0.00000000000E+00 0. -1.
         -3    1    3    3    0  502 -0.41226775751E+03  0.18326526401E+03  0.30021159096E+02  0.45216383189E+03  0.00000000000E+00 0.  1.
         13    1    5    5    0    0  0.91747360652E+02 -0.10731403180E+03  0.10971572794E+02  0.14161304677E+03  0.00000000000E+00 0. -1.
        -13    1    5    5    0    0  0.11956061426E+03 -0.31635449796E+03 -0.53471213992E+02  0.34239462553E+03  0.00000000000E+00 0.  1.
          1    1    6    6  503    0  0.15193014646E+03  0.87676832601E+02 -0.38370498742E+03  0.42189988593E+03  0.00000000000E+00 0. -1.
         -1    1    6    6    0  503  0.24758614344E+03  0.13024930188E+03 -0.38337731981E+03  0.47459661652E+03  0.00000000000E+00 0.  1.
<mgrwt>
<rscale>  0 0.18882748E+04</rscale>
<asrwt>0</asrwt>
<pdfrwt beam="1">  1        2 0.21459015E+00 0.18882748E+04</pdfrwt>
<pdfrwt beam="2">  1       -2 0.98318195E-01 0.18882748E+04</pdfrwt>
<totfact> 0.11744844E+01</totfact>
</mgrwt>
</event>
<event>
12    3  0.4634846E-008  0.2536084E+04  0.7818608E-02  0.8390242E-01
         -1   -1    0    0    0  501 -0.00000000000E+00  0.00000000000E+00  0.11571517863E+04  0.11571517863E+04  0.00000000000E+00 0.  1.
          1   -1    0    0  501    0  0.00000000000E+00 -0.00000000000E+00 -0.13895589782E+04  0.13895589782E+04  0.00000000000E+00 0. -1.
         23    2    1    2    0    0 -0.13477667823E+03 -0.41218173840E+03  0.91868944214E+03  0.10205975028E+04  0.97828590681E+02 0.  0.
        254    2    1    2    0    0  0.13477667823E+03  0.41218173840E+03 -0.11510966341E+04  0.15261132617E+04  0.90329379938E+03 0.  0.
         23    2    4    4    0    0 -0.11991433777E+03  0.62294235600E+03 -0.60647955583E+03  0.88238085439E+03  0.91333965474E+02 0.  0.
         23    2    4    4    0    0  0.25469101601E+03 -0.21076061761E+03 -0.54461707823E+03  0.64373240727E+03  0.92174284332E+02 0.  0.
          1    1    3    3  502    0 -0.27048435543E+02 -0.13716423056E+02  0.44432217446E+02  0.53795725425E+02  0.00000000000E+00 0. -1.
         -1    1    3    3    0  502 -0.10772824269E+03 -0.39846531534E+03  0.87425722470E+03  0.96680177737E+03  0.00000000000E+00 0.  1.
         13    1    5    5    0    0 -0.10506658231E+03  0.56370775119E+03 -0.50573916501E+03  0.76457669235E+03  0.00000000000E+00 0.  1.
        -13    1    5    5    0    0 -0.14847755461E+02  0.59234604813E+02 -0.10074039083E+03  0.11780416204E+03  0.00000000000E+00 0. -1.
          1    1    6    6  503    0  0.65026737363E+02 -0.15104749608E+02 -0.14987996184E+03  0.16407508340E+03  0.00000000000E+00 0. -1.
         -1    1    6    6    0  503  0.18966427864E+03 -0.19565586800E+03 -0.39473711640E+03  0.47965732386E+03  0.00000000000E+00 0.  1.
<mgrwt>
<rscale>  0 0.25360841E+04</rscale>
<asrwt>0</asrwt>
<pdfrwt beam="1">  1        1 0.21377830E+00 0.25360841E+04</pdfrwt>
<pdfrwt beam="2">  1       -1 0.17802335E+00 0.25360841E+04</pdfrwt>
<totfact> 0.14883049E+00</totfact>
</mgrwt>
</event>
<event>
12    3  0.4634846E-008  0.3999472E+04  0.7818608E-02  0.8004653E-01
         -1   -1    0    0    0  501 -0.00000000000E+00  0.00000000000E+00  0.25986674171E+04  0.25986674171E+04  0.00000000000E+00 0.  1.
          1   -1    0    0  501    0  0.00000000000E+00 -0.00000000000E+00 -0.15388443713E+04  0.15388443713E+04  0.00000000000E+00 0. -1.
         23    2    1    2    0    0 -0.87272473766E+03  0.13917387714E+04  0.14827643621E+04  0.22148725203E+04  0.92113257007E+02 0.  0.
        254    2    1    2    0    0  0.87272473766E+03 -0.13917387714E+04 -0.42294131633E+03  0.19226392682E+04  0.90502879680E+03 0.  0.
         23    2    4    4    0    0  0.38691196323E+03 -0.53460571151E+03 -0.62463703573E+03  0.91319109919E+03  0.90787791953E+02 0.  0.
         23    2    4    4    0    0  0.48581277443E+03 -0.85713305985E+03  0.20169571940E+03  0.10094481690E+04  0.87254275286E+02 0.  0.
          3    1    3    3  502    0 -0.71667293431E+03  0.11399259417E+04  0.12615636668E+04  0.18451542301E+04  0.00000000000E+00 0. -1.
         -3    1    3    3    0  502 -0.15605180335E+03  0.25181282967E+03  0.22120069524E+03  0.36971829017E+03  0.00000000000E+00 0.  1.
         13    1    5    5    0    0  0.39048709190E+03 -0.53254833566E+03 -0.62474860099E+03  0.90906474642E+03  0.00000000000E+00 0.  1.
        -13    1    5    5    0    0 -0.35751286663E+01 -0.20573758445E+01  0.11156525727E+00  0.41263527663E+01  0.00000000000E+00 0. -1.
          4    1    6    6  503    0  0.84131363303E+02 -0.22113324329E+03  0.38221864199E+02  0.23966415769E+03  0.00000000000E+00 0. -1.
         -4    1    6    6    0  503  0.40168141113E+03 -0.63599981657E+03  0.16347385520E+03  0.76978401130E+03  0.00000000000E+00 0.  1.
<mgrwt>
<rscale>  0 0.39994723E+04</rscale>
<asrwt>0</asrwt>
<pdfrwt beam="1">  1        1 0.23674529E+00 0.39994723E+04</pdfrwt>
<pdfrwt beam="2">  1       -1 0.39979499E+00 0.39994723E+04</pdfrwt>
<totfact> 0.34515258E-02</totfact>
</mgrwt>
</event>
<event>
12    3  0.4884427E-008  0.2018315E+04  0.7818608E-02  0.8598106E-01
          1   -1    0    0  501    0  0.00000000000E+00  0.00000000000E+00  0.14109947971E+04  0.14109947971E+04  0.00000000000E+00 0. -1.
         -1   -1    0    0    0  501 -0.00000000000E+00 -0.00000000000E+00 -0.72175914955E+03  0.72175914955E+03  0.00000000000E+00 0.  1.
         23    2    1    2    0    0 -0.72972832926E+03 -0.18619991844E+03  0.58633596272E+03  0.95889771644E+03  0.92309941384E+02 0.  0.
        254    2    1    2    0    0  0.72972832926E+03  0.18619991844E+03  0.10289968484E+03  0.11738562302E+04  0.89452571785E+03 0.  0.
         23    2    4    4    0    0  0.45714327693E+03 -0.25664422701E+03  0.29848156224E+03  0.60929766705E+03  0.85476132224E+02 0.  0.
         23    2    4    4    0    0  0.27258505233E+03  0.44284414545E+03 -0.19558187740E+03  0.56455856315E+03  0.10030230580E+03 0.  0.
          3    1    3    3  502    0 -0.72557421855E+03 -0.17467792632E+03  0.57946186586E+03  0.94485256975E+03  0.00000000000E+00 0. -1.
         -3    1    3    3    0  502 -0.41541107052E+01 -0.11521992118E+02  0.68740968504E+01  0.14045146693E+02  0.00000000000E+00 0.  1.
         13    1    5    5    0    0  0.25742772079E+03 -0.10971135382E+03  0.19252567831E+03  0.33966417149E+03  0.00000000000E+00 0.  1.
        -13    1    5    5    0    0  0.19971555614E+03 -0.14693287319E+03  0.10595588393E+03  0.26963349556E+03  0.00000000000E+00 0. -1.
          2    1    6    6  503    0  0.21774934436E+03  0.37841266763E+03 -0.19917170526E+03  0.47987528814E+03  0.00000000000E+00 0. -1.
         -2    1    6    6    0  503  0.54835707965E+02  0.64431477817E+02  0.35898278636E+01  0.84683275006E+02  0.00000000000E+00 0.  1.
<mgrwt>
<rscale>  0 0.20183145E+04</rscale>
<asrwt>0</asrwt>
<pdfrwt beam="1">  1        1 0.21707612E+00 0.20183145E+04</pdfrwt>
<pdfrwt beam="2">  1       -1 0.11103987E+00 0.20183145E+04</pdfrwt>
<totfact> 0.52172053E+00</totfact>
</mgrwt>
</event>
<event>
12    3  0.4634846E-008  0.1525029E+04  0.7818608E-02  0.8867978E-01
         -2   -1    0    0    0  501 -0.00000000000E+00  0.00000000000E+00  0.11969399916E+04  0.11969399916E+04  0.00000000000E+00 0.  1.
          2   -1    0    0  501    0  0.00000000000E+00 -0.00000000000E+00 -0.48576210731E+03  0.48576210731E+03  0.00000000000E+00 0. -1.
         23    2    1    2    0    0  0.23722046537E+02  0.47908488120E+03  0.12251609239E+03  0.50336699258E+03  0.91011413767E+02 0.  0.
        254    2    1    2    0    0 -0.23722046537E+02 -0.47908488120E+03  0.58866179189E+03  0.11793351063E+04  0.90234335421E+03 0.  0.
         23    2    4    4    0    0  0.16053179937E+03  0.20717903581E+03  0.29391352888E+03  0.40479571568E+03  0.93705909578E+02 0.  0.
         23    2    4    4    0    0 -0.18425384590E+03 -0.68626391701E+03  0.29474826300E+03  0.77453939064E+03  0.90150349889E+02 0.  0.
          3    1    3    3  502    0  0.20595948950E+01  0.44166064511E+03  0.93966230330E+02  0.45155068354E+03  0.00000000000E+00 0. -1.
         -3    1    3    3    0  502  0.21662451642E+02  0.37424236094E+02  0.28549862056E+02  0.51816309033E+02  0.00000000000E+00 0.  1.
         13    1    5    5    0    0  0.17002711585E+03  0.17512912505E+03  0.26803611389E+03  0.36252281158E+03  0.00000000000E+00 0. -1.
        -13    1    5    5    0    0 -0.94953164833E+01  0.32049910763E+02  0.25877414988E+02  0.42272904105E+02  0.00000000000E+00 0.  1.
          2    1    6    6  503    0 -0.65976556889E+02 -0.11720686539E+03  0.43721975602E+02  0.14142830871E+03  0.00000000000E+00 0. -1.
         -2    1    6    6    0  503 -0.11827728902E+03 -0.56905705162E+03  0.25102628740E+03  0.63311108193E+03  0.00000000000E+00 0.  1.
<mgrwt>
<rscale>  0 0.15250286E+04</rscale>
<asrwt>0</asrwt>
<pdfrwt beam="1">  1        2 0.74732632E-01 0.15250286E+04</pdfrwt>
<pdfrwt beam="2">  1       -2 0.18414461E+00 0.15250286E+04</pdfrwt>
<totfact> 0.10417742E+01</totfact>
</mgrwt>
</event>
<event>
12    3  0.4634846E-008  0.1016123E+04  0.7818608E-02  0.9291036E-01
         -1   -1    0    0    0  501 -0.00000000000E+00  0.00000000000E+00  0.25901991017E+03  0.25901991017E+03  0.00000000000E+00 0.  1.
          1   -1    0    0  501    0  0.00000000000E+00 -0.00000000000E+00 -0.99655166208E+03  0.99655166208E+03  0.00000000000E+00 0. -1.
         23    2    1    2    0    0  0.13811184125E+02 -0.19734095504E+02 -0.71488361446E+02  0.11735161723E+03  0.89892340678E+02 0.  0.
        254    2    1    2    0    0 -0.13811184125E+02  0.19734095504E+02 -0.66604339046E+03  0.11382199550E+04  0.92268666658E+03 0.  0.
         23    2    4    4    0    0 -0.40858287162E+03 -0.19682197687E+03 -0.35410541653E+03  0.58253207849E+03  0.90962205826E+02 0.  0.
         23    2    4    4    0    0  0.39477168750E+03  0.21655607238E+03 -0.31193797393E+03  0.55568787652E+03  0.93501330490E+02 0.  0.
          2    1    3    3  502    0 -0.33839780464E+02  0.96047329020E+01 -0.16344861113E+02  0.38788350323E+02  0.00000000000E+00 0.  1.
         -2    1    3    3    0  502  0.47650964589E+02 -0.29338828406E+02 -0.55143500333E+02  0.78563266909E+02  0.00000000000E+00 0. -1.
         13    1    5    5    0    0 -0.32578188089E+03 -0.11808570017E+03 -0.24361880467E+03  0.42358964634E+03  0.00000000000E+00 0.  1.
        -13    1    5    5    0    0 -0.82800990731E+02 -0.78736276703E+02 -0.11048661187E+03  0.15894243215E+03  0.00000000000E+00 0. -1.
          2    1    6    6  503    0  0.33657476333E+02  0.86573247791E+01 -0.58319159762E+02  0.67888875236E+02  0.00000000000E+00 0. -1.
         -2    1    6    6    0  503  0.36111421117E+03  0.20789874760E+03 -0.25361881417E+03  0.48779900129E+03  0.00000000000E+00 0.  1.
<mgrwt>
<rscale>  0 0.10161235E+04</rscale>
<asrwt>0</asrwt>
<pdfrwt beam="1">  1        1 0.15331564E+00 0.10161235E+04</pdfrwt>
<pdfrwt beam="2">  1       -1 0.39849217E-01 0.10161235E+04</pdfrwt>
<totfact> 0.93451096E+01</totfact>
</mgrwt>
</event>
<event>
12    3  0.4634846E-008  0.3929279E+04  0.7818608E-02  0.8018967E-01
         -2   -1    0    0    0  501 -0.00000000000E+00  0.00000000000E+00  0.17002976069E+04  0.17002976069E+04  0.00000000000E+00 0.  1.
          2   -1    0    0  501    0  0.00000000000E+00 -0.00000000000E+00 -0.22700780134E+04  0.22700780134E+04  0.00000000000E+00 0. -1.
         23    2    1    2    0    0  0.95715778886E+03  0.15947890249E+04 -0.29167522362E+03  0.18849453273E+04  0.91877004193E+02 0.  0.
        254    2    1    2    0    0 -0.95715778886E+03 -0.15947890249E+04 -0.27810518289E+03  0.20854302930E+04  0.90120693919E+03 0.  0.
         23    2    4    4    0    0 -0.23029728860E+02 -0.44509108518E+03  0.23873021697E+03  0.51381877073E+03  0.91548730982E+02 0.  0.
         23    2    4    4    0    0 -0.93412806000E+03 -0.11496979397E+04 -0.51683539986E+03  0.15716115222E+04  0.91887763649E+02 0.  0.
          1    1    3    3  502    0  0.36974401296E+03  0.64072200570E+03 -0.72395569921E+02  0.74328759054E+03  0.00000000000E+00 0. -1.
         -1    1    3    3    0  502  0.58741377590E+03  0.95406701922E+03 -0.21927965370E+03  0.11416577367E+04  0.00000000000E+00 0.  1.
         13    1    5    5    0    0  0.22285734237E+02 -0.34048829363E+02  0.30255536582E+02  0.50708719421E+02  0.00000000000E+00 0. -1.
        -13    1    5    5    0    0 -0.45315463097E+02 -0.41104225581E+03  0.20847468039E+03  0.46311005131E+03  0.00000000000E+00 0.  1.
          2    1    6    6  503    0 -0.88675576524E+02 -0.80757151103E+02 -0.60769357194E+02  0.13445441644E+03  0.00000000000E+00 0. -1.
         -2    1    6    6    0  503 -0.84545248348E+03 -0.10689407886E+04 -0.45606604267E+03  0.14371571058E+04  0.00000000000E+00 0.  1.
<mgrwt>
<rscale>  0 0.39292789E+04</rscale>
<asrwt>0</asrwt>
<pdfrwt beam="1">  1        2 0.34924277E+00 0.39292789E+04</pdfrwt>
<pdfrwt beam="2">  1       -2 0.26158425E+00 0.39292789E+04</pdfrwt>
<totfact> 0.20408567E-01</totfact>
</mgrwt>
</event>
<event>
12    3  0.4634846E-008  0.1695971E+04  0.7818608E-02  0.8763666E-01
          1   -1    0    0  501    0  0.00000000000E+00  0.00000000000E+00  0.11003256255E+04  0.11003256255E+04  0.00000000000E+00 0. -1.
         -1   -1    0    0    0  501 -0.00000000000E+00 -0.00000000000E+00 -0.65351518095E+03  0.65351518095E+03  0.00000000000E+00 0.  1.
         23    2    1    2    0    0 -0.42915832921E+03  0.19207540348E+03 -0.22665932108E+03  0.52984710447E+03  0.91069611479E+02 0.  0.
        254    2    1    2    0    0  0.42915832921E+03 -0.19207540348E+03  0.67346976565E+03  0.12239937020E+04  0.90748511013E+03 0.  0.
         23    2    4    4    0    0 -0.51230179247E+02 -0.37116191698E+03  0.57821864539E+03  0.69484866827E+03  0.89956489744E+02 0.  0.
         23    2    4    4    0    0  0.48038850846E+03  0.17908651350E+03  0.95251120265E+02  0.52914503372E+03  0.89869863816E+02 0.  0.
          2    1    3    3  502    0 -0.18679861754E+02  0.17324128539E+02 -0.37357133927E+02  0.45217453711E+02  0.00000000000E+00 0. -1.
         -2    1    3    3    0  502 -0.41047846746E+03  0.17475127494E+03 -0.18930218715E+03  0.48462965076E+03  0.00000000000E+00 0.  1.
         13    1    5    5    0    0 -0.53631737494E+02 -0.32197105187E+03  0.54557703040E+03  0.63576412105E+03  0.00000000000E+00 0. -1.
        -13    1    5    5    0    0  0.24015582468E+01 -0.49190865104E+02  0.32641614983E+02  0.59084547222E+02  0.00000000000E+00 0.  1.
          2    1    6    6  503    0  0.46229527115E+03  0.18764882172E+03  0.83305952577E+02  0.50583483446E+03  0.00000000000E+00 0. -1.
         -2    1    6    6    0  503  0.18093237309E+02 -0.85623082200E+01  0.11945167688E+02  0.23310199259E+02  0.00000000000E+00 0.  1.
<mgrwt>
<rscale>  0 0.16959711E+04</rscale>
<asrwt>0</asrwt>
<pdfrwt beam="1">  1        1 0.16928086E+00 0.16959711E+04</pdfrwt>
<pdfrwt beam="2">  1       -1 0.10054080E+00 0.16959711E+04</pdfrwt>
<totfact> 0.11357408E+01</totfact>
</mgrwt>
</event>
<event>
12    3  0.4634846E-008  0.1887538E+04  0.7818608E-02  0.8661084E-01
          2   -1    0    0  501    0  0.00000000000E+00  0.00000000000E+00  0.42758145010E+04  0.42758145010E+04  0.00000000000E+00 0. -1.
         -2   -1    0    0    0  501 -0.00000000000E+00 -0.00000000000E+00 -0.20831121367E+03  0.20831121367E+03  0.00000000000E+00 0.  1.
         23    2    1    2    0    0 -0.85305930002E+02 -0.17131101385E+03  0.32458661419E+04  0.32527049797E+04  0.88420067632E+02 0.  0.
        254    2    1    2    0    0  0.85305930002E+02  0.17131101385E+03  0.82163714536E+03  0.12314207349E+04  0.89704228588E+03 0.  0.
         23    2    4    4    0    0  0.36736824579E+03  0.32856780746E+03  0.72750926165E+03  0.88360406526E+03  0.92575300437E+02 0.  0.
         23    2    4    4    0    0 -0.28206231578E+03 -0.15725679360E+03  0.94127883710E+02  0.34781666968E+03  0.88473318559E+02 0.  0.
          2    1    3    3  502    0 -0.73869237453E+02 -0.16434057450E+03  0.31958955025E+04  0.32009705640E+04  0.00000000000E+00 0. -1.
         -2    1    3    3    0  502 -0.11436692548E+02 -0.69704393530E+01  0.49970639394E+02  0.51734415650E+02  0.00000000000E+00 0.  1.
         13    1    5    5    0    0  0.13783530232E+03  0.15353630313E+03  0.23487373772E+03  0.31263019627E+03  0.00000000000E+00 0. -1.
        -13    1    5    5    0    0  0.22953294346E+03  0.17503150433E+03  0.49263552392E+03  0.57097386900E+03  0.00000000000E+00 0.  1.
          1    1    6    6  503    0 -0.22292217396E+00  0.47873320861E+00 -0.88152712366E+01  0.88310750623E+01  0.00000000000E+00 0. -1.
         -1    1    6    6    0  503 -0.28183939361E+03 -0.15773552681E+03  0.10294315495E+03  0.33898559462E+03  0.00000000000E+00 0.  1.
<mgrwt>
<rscale>  0 0.18875382E+04</rscale>
<asrwt>0</asrwt>
<pdfrwt beam="1">  1        2 0.65781755E+00 0.18875382E+04</pdfrwt>
<pdfrwt beam="2">  1       -2 0.32047882E-01 0.18875382E+04</pdfrwt>
<totfact> 0.17213664E+00</totfact>
</mgrwt>
</event>
<event>
12    3  0.4634846E-008  0.2214666E+04  0.7818608E-02  0.8512349E-01
          2   -1    0    0  501    0  0.00000000000E+00  0.00000000000E+00  0.52757074180E+03  0.52757074180E+03  0.00000000000E+00 0. -1.
         -2   -1    0    0    0  501 -0.00000000000E+00 -0.00000000000E+00 -0.23242121431E+04  0.23242121431E+04  0.00000000000E+00 0.  1.
         23    2    1    2    0    0 -0.48078139685E+03  0.21536884823E+03 -0.17277306216E+04  0.18085099046E+04  0.90113716973E+02 0.  0.
        254    2    1    2    0    0  0.48078139685E+03 -0.21536884823E+03 -0.68910779718E+02  0.10432729803E+04  0.89785039036E+03 0.  0.
         23    2    4    4    0    0  0.59282361597E+03  0.17518629308E+03 -0.10101115712E+02  0.62447135758E+03  0.87933878335E+02 0.  0.
         23    2    4    4    0    0 -0.11204221912E+03 -0.39055514131E+03 -0.58809664006E+02  0.41880162270E+03  0.82761375812E+02 0.  0.
          2    1    3    3  502    0 -0.42620669259E+03  0.15732050739E+03 -0.14415940358E+04  0.15114877607E+04  0.00000000000E+00 0.  1.
         -2    1    3    3    0  502 -0.54574704255E+02  0.58048340841E+02 -0.28613658582E+03  0.29702214390E+03  0.00000000000E+00 0. -1.
         13    1    5    5    0    0  0.94846415174E+02 -0.36618707296E+01 -0.90799012615E+01  0.95350387390E+02  0.00000000000E+00 0. -1.
        -13    1    5    5    0    0  0.49797720080E+03  0.17884816381E+03 -0.10212144504E+01  0.52912097019E+03  0.00000000000E+00 0.  1.
          2    1    6    6  503    0  0.64783222593E+01 -0.82475064036E+01  0.77592905713E+01  0.13045942332E+02  0.00000000000E+00 0. -1.
         -2    1    6    6    0  503 -0.11852054138E+03 -0.38230763491E+03 -0.66568954577E+02  0.40575568037E+03  0.00000000000E+00 0.  1.
<mgrwt>
<rscale>  0 0.22146660E+04</rscale>
<asrwt>0</asrwt>
<pdfrwt beam="1">  1        2 0.81164731E-01 0.22146660E+04</pdfrwt>
<pdfrwt beam="2">  1       -2 0.35757109E+00 0.22146660E+04</pdfrwt>
<totfact> 0.73668397E-01</totfact>
</mgrwt>
</event>
<event>
12    3  0.4634846E-008  0.1343564E+04  0.7818608E-02  0.8995714E-01
          2   -1    0    0  501    0  0.00000000000E+00  0.00000000000E+00  0.12122856029E+04  0.12122856029E+04  0.00000000000E+00 0.  1.
         -2   -1    0    0    0  501 -0.00000000000E+00 -0.00000000000E+00 -0.37226465717E+03  0.37226465717E+03  0.00000000000E+00 0. -1.
         23    2    1    2    0    0  0.17477736019E+03 -0.13653404752E+03 -0.10992117511E+03  0.26298765166E+03  0.88832248767E+02 0.  0.
        254    2    1    2    0    0 -0.17477736019E+03  0.13653404752E+03  0.94994212080E+03  0.13215626084E+04  0.89159913817E+03 0.  0.
         23    2    4    4    0    0  0.15734563738E+03 -0.29022599656E+03  0.52778141911E+03  0.62897148311E+03  0.89794885842E+02 0.  0.
         23    2    4    4    0    0 -0.33212299757E+03  0.42676004408E+03  0.42216070169E+03  0.69259112525E+03  0.95042032749E+02 0.  0.
          2    1    3    3  502    0  0.16561671848E+03 -0.10027189175E+03 -0.64321130388E+02  0.20401117011E+03  0.00000000000E+00 0. -1.
         -2    1    3    3    0  502  0.91606417140E+01 -0.36262155769E+02 -0.45600044724E+02  0.58976481554E+02  0.00000000000E+00 0.  1.
         13    1    5    5    0    0  0.69822581811E+01 -0.17102529336E+02  0.32221043077E+01  0.18751810450E+02  0.00000000000E+00 0.  1.
        -13    1    5    5    0    0  0.15036337920E+03 -0.27312346723E+03  0.52455931480E+03  0.61021967266E+03  0.00000000000E+00 0. -1.
          3    1    6    6  503    0 -0.24021435847E+03  0.35095835821E+03  0.36503281507E+03  0.56046736148E+03  0.00000000000E+00 0. -1.
         -3    1    6    6    0  503 -0.91908639108E+02  0.75801685870E+02  0.57127886623E+02  0.13212376377E+03  0.00000000000E+00 0.  1.
<mgrwt>
<rscale>  0 0.13435640E+04</rscale>
<asrwt>0</asrwt>
<pdfrwt beam="1">  1        2 0.18650548E+00 0.13435640E+04</pdfrwt>
<pdfrwt beam="2">  1       -2 0.57271486E-01 0.13435640E+04</pdfrwt>
<totfact> 0.51987963E+01</totfact>
</mgrwt>
</event>
<event>
12    3  0.4634846E-008  0.1585567E+04  0.7818608E-02  0.8829464E-01
         -2   -1    0    0    0  501 -0.00000000000E+00  0.00000000000E+00  0.40757285021E+03  0.40757285021E+03  0.00000000000E+00 0. -1.
          2   -1    0    0  501    0  0.00000000000E+00 -0.00000000000E+00 -0.15420685943E+04  0.15420685943E+04  0.00000000000E+00 0.  1.
         23    2    1    2    0    0  0.20419103257E+03 -0.46904326066E+03 -0.22649082967E+03  0.56641064077E+03  0.88472367988E+02 0.  0.
        254    2    1    2    0    0 -0.20419103257E+03  0.46904326066E+03 -0.90800491440E+03  0.13832308037E+04  0.90948280558E+03 0.  0.
         23    2    4    4    0    0  0.20189135207E+03  0.43199219034E+03 -0.82415545822E+03  0.95681379053E+03  0.94249880081E+02 0.  0.
         23    2    4    4    0    0 -0.40608238463E+03  0.37051070326E+02 -0.83849456180E+02  0.42641701319E+03  0.92331213115E+02 0.  0.
          4    1    3    3  502    0 -0.52975651305E+01 -0.35277724748E+02 -0.28273712639E+02  0.45519060690E+02  0.00000000000E+00 0. -1.
         -4    1    3    3    0  502  0.20948859770E+03 -0.43376553591E+03 -0.19821711703E+03  0.52089158008E+03  0.00000000000E+00 0.  1.
         13    1    5    5    0    0  0.12251021733E+03  0.22516679410E+03 -0.35384057342E+03  0.43693476620E+03  0.00000000000E+00 0. -1.
        -13    1    5    5    0    0  0.79381134734E+02  0.20682539623E+03 -0.47031488480E+03  0.51987902433E+03  0.00000000000E+00 0.  1.
          2    1    6    6  503    0 -0.33840874574E+03  0.69013640898E+01 -0.41320380569E+02  0.34099190880E+03  0.00000000000E+00 0. -1.
         -2    1    6    6    0  503 -0.67673638894E+02  0.30149706236E+02 -0.42529075611E+02  0.85425104387E+02  0.00000000000E+00 0.  1.
<mgrwt>
<rscale>  0 0.15855665E+04</rscale>
<asrwt>0</asrwt>
<pdfrwt beam="1">  1        2 0.23724132E+00 0.15855665E+04</pdfrwt>
<pdfrwt beam="2">  1       -2 0.62703515E-01 0.15855665E+04</pdfrwt>
<totfact> 0.27205940E+01</totfact>
</mgrwt>
</event>
<event>
12    3  0.4634846E-008  0.1467026E+04  0.7818608E-02  0.8906681E-01
          1   -1    0    0  501    0  0.00000000000E+00  0.00000000000E+00  0.70999545059E+03  0.70999545059E+03  0.00000000000E+00 0. -1.
         -1   -1    0    0    0  501 -0.00000000000E+00 -0.00000000000E+00 -0.75780995676E+03  0.75780995676E+03  0.00000000000E+00 0.  1.
         23    2    1    2    0    0 -0.39019060990E+03  0.12896793154E+03  0.17617966633E+03  0.45398144322E+03  0.78603031384E+02 0.  0.
        254    2    1    2    0    0  0.39019060990E+03 -0.12896793154E+03 -0.22399417250E+03  0.10138239641E+04  0.89932430275E+03 0.  0.
         23    2    4    4    0    0  0.57359030182E+03  0.17911290395E+03 -0.66401693273E+02  0.61088800381E+03  0.87679539405E+02 0.  0.
         23    2    4    4    0    0 -0.18339969192E+03 -0.30808083549E+03 -0.15759247923E+03  0.40293596032E+03  0.94724602993E+02 0.  0.
          3    1    3    3  502    0 -0.15024233456E+03  0.53999809588E+02  0.11048045620E+03  0.19415115176E+03  0.00000000000E+00 0. -1.
         -3    1    3    3    0  502 -0.23994827534E+03  0.74968121955E+02  0.65699210135E+02  0.25983029146E+03  0.00000000000E+00 0.  1.
         13    1    5    5    0    0  0.56797383817E+03  0.18642211425E+03 -0.67587462095E+02  0.60159417431E+03  0.00000000000E+00 0.  1.
        -13    1    5    5    0    0  0.56164636504E+01 -0.73092103033E+01  0.11857688222E+01  0.92938295064E+01  0.00000000000E+00 0. -1.
          2    1    6    6  503    0 -0.21028040398E+02 -0.26400371855E+01  0.32718590514E+01  0.21444191310E+02  0.00000000000E+00 0. -1.
         -2    1    6    6    0  503 -0.16237165152E+03 -0.30544079831E+03 -0.16086433828E+03  0.38149176901E+03  0.00000000000E+00 0.  1.
<mgrwt>
<rscale>  0 0.14670264E+04</rscale>
<asrwt>0</asrwt>
<pdfrwt beam="1">  1        1 0.10923007E+00 0.14670264E+04</pdfrwt>
<pdfrwt beam="2">  1       -1 0.11658615E+00 0.14670264E+04</pdfrwt>
<totfact> 0.17179244E+01</totfact>
</mgrwt>
</event>
<event>
12    3  0.4634846E-008  0.2682723E+04  0.7818608E-02  0.8340633E-01
          2   -1    0    0  501    0  0.00000000000E+00  0.00000000000E+00  0.17444999983E+04  0.17444999983E+04  0.00000000000E+00 0. -1.
         -2   -1    0    0    0  501 -0.00000000000E+00 -0.00000000000E+00 -0.10313844355E+04  0.10313844355E+04  0.00000000000E+00 0.  1.
         23    2    1    2    0    0  0.86567766064E+03 -0.33905961946E+03  0.10866765478E+04  0.14329034800E+04  0.89371280995E+02 0.  0.
        254    2    1    2    0    0 -0.86567766064E+03  0.33905961946E+03 -0.37356098498E+03  0.13429809538E+04  0.89425432345E+03 0.  0.
         23    2    4    4    0    0 -0.35676324169E+03  0.34619554956E+03  0.22386011425E+03  0.55282615364E+03  0.91498831890E+02 0.  0.
         23    2    4    4    0    0 -0.50891441895E+03 -0.71359300974E+01 -0.59742109923E+03  0.79015480014E+03  0.91585102816E+02 0.  0.
          4    1    3    3  502    0  0.40758651290E+03 -0.18482304587E+03  0.58086439122E+03  0.73327332201E+03  0.00000000000E+00 0.  1.
         -4    1    3    3    0  502  0.45809114774E+03 -0.15423657359E+03  0.50581215660E+03  0.69963015803E+03  0.00000000000E+00 0. -1.
         13    1    5    5    0    0 -0.29382517363E+03  0.23397422021E+03  0.14983342797E+03  0.40438499542E+03  0.00000000000E+00 0. -1.
        -13    1    5    5    0    0 -0.62938068060E+02  0.11222132935E+03  0.74026686280E+02  0.14844115822E+03  0.00000000000E+00 0.  1.
          3    1    6    6  503    0 -0.46191846370E+03 -0.22879577454E+02 -0.56816781865E+03  0.73260276571E+03  0.00000000000E+00 0. -1.
         -3    1    6    6    0  503 -0.46995955257E+02  0.15743647356E+02 -0.29253280577E+02  0.57552034431E+02  0.00000000000E+00 0.  1.
<mgrwt>
<rscale>  0 0.26827226E+04</rscale>
<asrwt>0</asrwt>
<pdfrwt beam="1">  1        2 0.26838462E+00 0.26827226E+04</pdfrwt>
<pdfrwt beam="2">  1       -2 0.15867453E+00 0.26827226E+04</pdfrwt>
<totfact> 0.20972704E+00</totfact>
</mgrwt>
</event>
<event>
12    3  0.4634846E-008  0.1362712E+04  0.7818608E-02  0.8981260E-01
         -1   -1    0    0    0  501 -0.00000000000E+00  0.00000000000E+00  0.25324773590E+03  0.25324773590E+03  0.00000000000E+00 0.  1.
          1   -1    0    0  501    0  0.00000000000E+00 -0.00000000000E+00 -0.18331704570E+04  0.18331704570E+04  0.00000000000E+00 0. -1.
         23    2    1    2    0    0 -0.23443933795E+02  0.36389571266E+03 -0.45698983919E+03  0.59150123259E+03  0.89801376965E+02 0.  0.
        254    2    1    2    0    0  0.23443933795E+02 -0.36389571266E+03 -0.11229328819E+04  0.14949169603E+04  0.91696714947E+03 0.  0.
         23    2    4    4    0    0 -0.37011045423E+03 -0.42925956685E+03 -0.72944729396E+03  0.92824804873E+03  0.91134851928E+02 0.  0.
         23    2    4    4    0    0  0.39355438802E+03  0.65363854190E+02 -0.39348558792E+03  0.56666891155E+03  0.84411241268E+02 0.  0.
          1    1    3    3  502    0 -0.93009402190E+01  0.29309496563E+03 -0.30428213287E+03  0.42258582886E+03  0.00000000000E+00 0. -1.
         -1    1    3    3    0  502 -0.14142993576E+02  0.70800747028E+02 -0.15270770632E+03  0.16891540373E+03  0.00000000000E+00 0.  1.
         13    1    5    5    0    0 -0.36010429302E+03 -0.38699427731E+03 -0.69264688245E+03  0.87132047852E+03  0.00000000000E+00 0.  1.
        -13    1    5    5    0    0 -0.10006161212E+02 -0.42265289542E+02 -0.36800411503E+02  0.56927570201E+02  0.00000000000E+00 0. -1.
          2    1    6    6  503    0  0.30697330786E+02  0.27681470547E+02 -0.56730251295E+02  0.70191960658E+02  0.00000000000E+00 0. -1.
         -2    1    6    6    0  503  0.36285705724E+03  0.37682383643E+02 -0.33675533662E+03  0.49647695089E+03  0.00000000000E+00 0.  1.
<mgrwt>
<rscale>  0 0.13627124E+04</rscale>
<asrwt>0</asrwt>
<pdfrwt beam="1">  1        1 0.28202623E+00 0.13627124E+04</pdfrwt>
<pdfrwt beam="2">  1       -1 0.38961189E-01 0.13627124E+04</pdfrwt>
<totfact> 0.24185306E+01</totfact>
</mgrwt>
</event>
<event>
12    3  0.4634846E-008  0.1844910E+04  0.7818608E-02  0.8682775E-01
          2   -1    0    0  501    0  0.00000000000E+00  0.00000000000E+00  0.12479205811E+04  0.12479205811E+04  0.00000000000E+00 0.  1.
         -2   -1    0    0    0  501 -0.00000000000E+00 -0.00000000000E+00 -0.68187290549E+03  0.68187290549E+03  0.00000000000E+00 0. -1.
         23    2    1    2    0    0  0.43501055906E+03 -0.40920919335E+03 -0.16821439496E+03  0.62884843089E+03  0.10231283370E+03 0.  0.
        254    2    1    2    0    0 -0.43501055906E+03  0.40920919335E+03  0.73426207055E+03  0.13009450557E+04  0.89254181934E+03 0.  0.
         23    2    4    4    0    0 -0.52708993951E+03  0.68218493657E+01  0.10682490743E+03  0.54430766938E+03  0.83599857279E+02 0.  0.
         23    2    4    4    0    0  0.92079380443E+02  0.40238734398E+03  0.62743716312E+03  0.75663738632E+03  0.91807155560E+02 0.  0.
          2    1    3    3  502    0  0.31775631074E+03 -0.31032754871E+03 -0.78143774092E+02  0.45097528749E+03  0.00000000000E+00 0.  1.
         -2    1    3    3    0  502  0.11725424832E+03 -0.98881644640E+02 -0.90070620867E+02  0.17787314339E+03  0.00000000000E+00 0. -1.
         13    1    5    5    0    0 -0.45505207291E+03 -0.13445729202E+02  0.68977033185E+02  0.46044653089E+03  0.00000000000E+00 0.  1.
        -13    1    5    5    0    0 -0.72037866591E+02  0.20267578568E+02  0.37847874246E+02  0.83861138491E+02  0.00000000000E+00 0. -1.
          4    1    6    6  503    0  0.10590716913E+03  0.27818746460E+03  0.43008677081E+03  0.52304801344E+03  0.00000000000E+00 0. -1.
         -4    1    6    6    0  503 -0.13827788691E+02  0.12419987938E+03  0.19735039231E+03  0.23358937288E+03  0.00000000000E+00 0.  1.
<mgrwt>
<rscale>  0 0.18449100E+04</rscale>
<asrwt>0</asrwt>
<pdfrwt beam="1">  1        2 0.19198778E+00 0.18449100E+04</pdfrwt>
<pdfrwt beam="2">  1       -2 0.10490352E+00 0.18449100E+04</pdfrwt>
<totfact> 0.12294677E+01</totfact>
</mgrwt>
</event>
<event>
12    3  0.4634846E-008  0.1174465E+04  0.7818608E-02  0.9135506E-01
         -1   -1    0    0    0  501 -0.00000000000E+00  0.00000000000E+00  0.53756519852E+03  0.53756519852E+03  0.00000000000E+00 0.  1.
          1   -1    0    0  501    0  0.00000000000E+00 -0.00000000000E+00 -0.64148840142E+03  0.64148840142E+03  0.00000000000E+00 0. -1.
         23    2    1    2    0    0 -0.10404095039E+03  0.15972574201E+03  0.80169610475E+01  0.21041667274E+03  0.88735970618E+02 0.  0.
        254    2    1    2    0    0  0.10404095039E+03 -0.15972574201E+03 -0.11194016395E+03  0.96863692719E+03  0.94307479258E+03 0.  0.
         23    2    4    4    0    0 -0.39671109167E+03  0.51544458862E+02 -0.60721971023E+02  0.41545328604E+03  0.94221831978E+02 0.  0.
         23    2    4    4    0    0  0.50075204206E+03 -0.21127020088E+03 -0.51218192925E+02  0.55318364116E+03  0.89449047821E+02 0.  0.
          2    1    3    3  502    0 -0.10545192079E+02  0.69792126641E+02 -0.27757105048E+02  0.75845889129E+02  0.00000000000E+00 0. -1.
         -2    1    3    3    0  502 -0.93495758310E+02  0.89933615372E+02  0.35774066095E+02  0.13457078361E+03  0.00000000000E+00 0.  1.
         13    1    5    5    0    0 -0.42735099319E+02 -0.53583240525E+01 -0.35908542635E+02  0.56075161923E+02  0.00000000000E+00 0.  1.
        -13    1    5    5    0    0 -0.35397599235E+03  0.56902782914E+02 -0.24813428388E+02  0.35937812411E+03  0.00000000000E+00 0. -1.
          4    1    6    6  503    0  0.90581387390E+02 -0.10751582052E+02  0.12963447474E+02  0.92133789830E+02  0.00000000000E+00 0.  1.
         -4    1    6    6    0  503  0.41017065467E+03 -0.20051861882E+03 -0.64181640398E+02  0.46104985133E+03  0.00000000000E+00 0. -1.
<mgrwt>
<rscale>  0 0.11744647E+04</rscale>
<asrwt>0</asrwt>
<pdfrwt beam="1">  1        1 0.98690523E-01 0.11744647E+04</pdfrwt>
<pdfrwt beam="2">  1       -1 0.82702338E-01 0.11744647E+04</pdfrwt>
<totfact> 0.44756673E+01</totfact>
</mgrwt>
</event>
<event>
12    3  0.4634846E-008  0.1792311E+04  0.7818608E-02  0.8710399E-01
         -3   -1    0    0    0  501 -0.00000000000E+00  0.00000000000E+00  0.52695156736E+03  0.52695156736E+03  0.00000000000E+00 0.  1.
          3   -1    0    0  501    0  0.00000000000E+00 -0.00000000000E+00 -0.15240394653E+04  0.15240394653E+04  0.00000000000E+00 0. -1.
         23    2    1    2    0    0 -0.44281423404E+03  0.44908567462E+03 -0.61204487541E+03  0.88372860712E+03  0.92816660768E+02 0.  0.
        254    2    1    2    0    0  0.44281423404E+03 -0.44908567462E+03 -0.38504302253E+03  0.11672624255E+04  0.90359341069E+03 0.  0.
         23    2    4    4    0    0 -0.90218260229E+02 -0.25769035270E+03  0.19838571490E+03  0.34893784666E+03  0.88640152319E+02 0.  0.
         23    2    4    4    0    0  0.53303249427E+03 -0.19139532192E+03 -0.58342873742E+03  0.81832457887E+03  0.92250829466E+02 0.  0.
          3    1    3    3  502    0 -0.44288530729E+03  0.45157225296E+03 -0.61322885645E+03  0.88097362357E+03  0.00000000000E+00 0. -1.
         -3    1    3    3    0  502  0.71073242851E-01 -0.24865783450E+01  0.11839810352E+01  0.27549835505E+01  0.00000000000E+00 0.  1.
         13    1    5    5    0    0 -0.23850346429E+02 -0.11005504270E+03  0.32594668451E+02  0.11723209399E+03  0.00000000000E+00 0.  1.
        -13    1    5    5    0    0 -0.66367913800E+02 -0.14763531000E+03  0.16579104644E+03  0.23170575267E+03  0.00000000000E+00 0. -1.
          4    1    6    6  503    0  0.20110915686E+03 -0.10567265234E+03 -0.27949491993E+03  0.36017913973E+03  0.00000000000E+00 0.  1.
         -4    1    6    6    0  503  0.33192333741E+03 -0.85722669574E+02 -0.30393381749E+03  0.45814543914E+03  0.00000000000E+00 0. -1.
<mgrwt>
<rscale>  0 0.17923113E+04</rscale>
<asrwt>0</asrwt>
<pdfrwt beam="1">  1        3 0.23446761E+00 0.17923113E+04</pdfrwt>
<pdfrwt beam="2">  1       -3 0.81069471E-01 0.17923113E+04</pdfrwt>
<totfact> 0.31746725E-01</totfact>
</mgrwt>
</event>
<event>
12    3  0.4634846E-008  0.2701123E+04  0.7818608E-02  0.8334641E-01
         -2   -1    0    0    0  501 -0.00000000000E+00  0.00000000000E+00  0.71423011632E+03  0.71423011632E+03  0.00000000000E+00 0.  1.
          2   -1    0    0  501    0  0.00000000000E+00 -0.00000000000E+00 -0.25538220433E+04  0.25538220433E+04  0.00000000000E+00 0. -1.
         23    2    1    2    0    0  0.56172233204E+03  0.33960204747E+03 -0.20316258196E+04  0.21371645092E+04  0.95431334325E+02 0.  0.
        254    2    1    2    0    0 -0.56172233204E+03 -0.33960204747E+03  0.19203389269E+03  0.11308876504E+04  0.90064883991E+03 0.  0.
         23    2    4    4    0    0 -0.48397105402E+03 -0.56303081281E+01 -0.25945024717E+03  0.55665895633E+03  0.91077337489E+02 0.  0.
         23    2    4    4    0    0 -0.77751278013E+02 -0.33397173934E+03  0.45148413986E+03  0.57422869403E+03  0.91204608364E+02 0.  0.
          3    1    3    3  502    0  0.39394374316E+03  0.19767739030E+03 -0.12605689255E+04  0.13354033246E+04  0.00000000000E+00 0. -1.
         -3    1    3    3    0  502  0.16777858887E+03  0.14192465717E+03 -0.77105689410E+03  0.80176118460E+03  0.00000000000E+00 0.  1.
         13    1    5    5    0    0 -0.64755148954E+02 -0.28905001382E+02 -0.21715834433E+02  0.74164047126E+02  0.00000000000E+00 0. -1.
        -13    1    5    5    0    0 -0.41921590507E+03  0.23274693253E+02 -0.23773441274E+03  0.48249490920E+03  0.00000000000E+00 0.  1.
          1    1    6    6  503    0 -0.37694211940E+01 -0.10155928852E+03  0.19739644799E+03  0.22202219551E+03  0.00000000000E+00 0. -1.
         -1    1    6    6    0  503 -0.73981856819E+02 -0.23241245083E+03  0.25408769187E+03  0.35220649852E+03  0.00000000000E+00 0.  1.
<mgrwt>
<rscale>  0 0.27011232E+04</rscale>
<asrwt>0</asrwt>
<pdfrwt beam="1">  1        2 0.39289570E+00 0.27011232E+04</pdfrwt>
<pdfrwt beam="2">  1       -2 0.10988156E+00 0.27011232E+04</pdfrwt>
<totfact> 0.18710820E+00</totfact>
</mgrwt>
</event>
<event>
12    3  0.4634846E-008  0.1529978E+04  0.7818608E-02  0.8864759E-01
          2   -1    0    0  501    0  0.00000000000E+00  0.00000000000E+00  0.11578516132E+04  0.11578516132E+04  0.00000000000E+00 0. -1.
         -2   -1    0    0    0  501 -0.00000000000E+00 -0.00000000000E+00 -0.50542590988E+03  0.50542590988E+03  0.00000000000E+00 0.  1.
         23    2    1    2    0    0  0.22532673787E+03 -0.13796288245E+02  0.69564809343E+03  0.73665330110E+03  0.88143858306E+02 0.  0.
        254    2    1    2    0    0 -0.22532673787E+03  0.13796288245E+02 -0.43222390067E+02  0.92662422202E+03  0.89766463530E+03 0.  0.
         23    2    4    4    0    0  0.56632717672E+02 -0.18370534920E+03  0.34118176287E+03  0.40213593837E+03  0.91396923253E+02 0.  0.
         23    2    4    4    0    0 -0.28195945554E+03  0.19750163744E+03 -0.38440415294E+03  0.52448828365E+03  0.93879579919E+02 0.  0.
          4    1    3    3  502    0  0.22890990421E+03 -0.96365808649E+00  0.65200965325E+03  0.69102623743E+03  0.00000000000E+00 0. -1.
         -4    1    3    3    0  502 -0.35831663405E+01 -0.12832630158E+02  0.43638440182E+02  0.45627063672E+02  0.00000000000E+00 0.  1.
         13    1    5    5    0    0 -0.13725660620E+02 -0.45400604931E+02  0.35227229634E+02  0.59081015523E+02  0.00000000000E+00 0.  1.
        -13    1    5    5    0    0  0.70358378293E+02 -0.13830474427E+03  0.30595453324E+03  0.34305492285E+03  0.00000000000E+00 0. -1.
          2    1    6    6  503    0 -0.26883168777E+03  0.20337353598E+03 -0.34412624403E+03  0.48171998435E+03  0.00000000000E+00 0. -1.
         -2    1    6    6    0  503 -0.13127767766E+02 -0.58718985402E+01 -0.40277908905E+02  0.42768299297E+02  0.00000000000E+00 0.  1.
<mgrwt>
<rscale>  0 0.15299780E+04</rscale>
<asrwt>0</asrwt>
<pdfrwt beam="1">  1        2 0.17813102E+00 0.15299780E+04</pdfrwt>
<pdfrwt beam="2">  1       -2 0.77757832E-01 0.15299780E+04</pdfrwt>
<totfact> 0.28526082E+01</totfact>
</mgrwt>
</event>
<event>
12    3  0.4634846E-008  0.1195230E+04  0.7818608E-02  0.9117042E-01
         -2   -1    0    0    0  501 -0.00000000000E+00  0.00000000000E+00  0.29351443869E+03  0.29351443869E+03  0.00000000000E+00 0.  1.
          2   -1    0    0  501    0  0.00000000000E+00 -0.00000000000E+00 -0.12167833148E+04  0.12167833148E+04  0.00000000000E+00 0. -1.
         23    2    1    2    0    0  0.20694606586E+03 -0.10364392406E+03 -0.34135129877E+03  0.42235407960E+03  0.91068777397E+02 0.  0.
        254    2    1    2    0    0 -0.20694606586E+03  0.10364392406E+03 -0.58191757738E+03  0.10879436739E+04  0.88962049977E+03 0.  0.
         23    2    4    4    0    0 -0.50731199712E+03 -0.23102670543E+02 -0.14698773930E+03  0.53648783122E+03  0.91184437996E+02 0.  0.
         23    2    4    4    0    0  0.30036593126E+03  0.12674659460E+03 -0.43492983808E+03  0.55145584271E+03  0.93033276323E+02 0.  0.
          3    1    3    3  502    0  0.18316031010E+03 -0.12078654726E+03 -0.30098429730E+03  0.37246293294E+03  0.00000000000E+00 0. -1.
         -3    1    3    3    0  502  0.23785755755E+02  0.17142623204E+02 -0.40367001469E+02  0.49891146657E+02  0.00000000000E+00 0.  1.
         13    1    5    5    0    0 -0.57026655946E+02 -0.36664904886E+01  0.12319047962E+02  0.58457177349E+02  0.00000000000E+00 0. -1.
        -13    1    5    5    0    0 -0.45028534117E+03 -0.19436180054E+02 -0.15930678726E+03  0.47803065387E+03  0.00000000000E+00 0.  1.
          1    1    6    6  503    0  0.50993440940E+02 -0.10628004333E+02 -0.92208048748E+02  0.10590377590E+03  0.00000000000E+00 0. -1.
         -1    1    6    6    0  503  0.24937249032E+03  0.13737459893E+03 -0.34272178933E+03  0.44555206681E+03  0.00000000000E+00 0.  1.
<mgrwt>
<rscale>  0 0.11952296E+04</rscale>
<asrwt>0</asrwt>
<pdfrwt beam="1">  1        2 0.18719744E+00 0.11952296E+04</pdfrwt>
<pdfrwt beam="2">  1       -2 0.45156067E-01 0.11952296E+04</pdfrwt>
<totfact> 0.84926002E+01</totfact>
</mgrwt>
</event>
<event>
12    3  0.4634846E-008  0.1643795E+04  0.7818608E-02  0.8794086E-01
          1   -1    0    0  501    0  0.00000000000E+00  0.00000000000E+00  0.61803514996E+03  0.61803514996E+03  0.00000000000E+00 0. -1.
         -1   -1    0    0    0  501 -0.00000000000E+00 -0.00000000000E+00 -0.10930053060E+04  0.10930053060E+04  0.00000000000E+00 0.  1.
         23    2    1    2    0    0 -0.15987046196E+03  0.17707805039E+03  0.36794902541E+03  0.44946548834E+03  0.98577580480E+02 0.  0.
        254    2    1    2    0    0  0.15987046196E+03 -0.17707805039E+03 -0.84291918149E+03  0.12615749677E+04  0.90782346961E+03 0.  0.
         23    2    4    4    0    0 -0.34615383884E+02 -0.29607851654E+03 -0.94588226285E+03  0.99575682595E+03  0.89317906999E+02 0.  0.
         23    2    4    4    0    0  0.19448584585E+03  0.11900046615E+03  0.10296308136E+03  0.26581814171E+03  0.89844494313E+02 0.  0.
          3    1    3    3  502    0 -0.47156364033E+02  0.10244131027E+03  0.23086638829E+03  0.25693819093E+03  0.00000000000E+00 0. -1.
         -3    1    3    3    0  502 -0.11271409793E+03  0.74636740117E+02  0.13708263712E+03  0.19252729741E+03  0.00000000000E+00 0.  1.
         13    1    5    5    0    0  0.15045049599E+02 -0.67156661997E+01 -0.34099475356E+02  0.37871201585E+02  0.00000000000E+00 0. -1.
        -13    1    5    5    0    0 -0.49660433483E+02 -0.28936285034E+03 -0.91178278749E+03  0.95788562437E+03  0.00000000000E+00 0.  1.
          3    1    6    6  503    0  0.50433889051E+02  0.67370232668E+02  0.53832489835E+01  0.84328552603E+02  0.00000000000E+00 0. -1.
         -3    1    6    6    0  503  0.14405195680E+03  0.51630233482E+02  0.97579832375E+02  0.18148958910E+03  0.00000000000E+00 0.  1.
<mgrwt>
<rscale>  0 0.16437952E+04</rscale>
<asrwt>0</asrwt>
<pdfrwt beam="1">  1        1 0.95082332E-01 0.16437952E+04</pdfrwt>
<pdfrwt beam="2">  1       -1 0.16815466E+00 0.16437952E+04</pdfrwt>
<totfact> 0.79626976E+00</totfact>
</mgrwt>
</event>
<event>
12    3  0.4634846E-008  0.1995123E+04  0.7818608E-02  0.8608904E-01
          2   -1    0    0  501    0  0.00000000000E+00  0.00000000000E+00  0.12403145805E+04  0.12403145805E+04  0.00000000000E+00 0. -1.
         -2   -1    0    0    0  501 -0.00000000000E+00 -0.00000000000E+00 -0.80232008272E+03  0.80232008272E+03  0.00000000000E+00 0.  1.
         23    2    1    2    0    0  0.19255810493E+03  0.76667809801E+03  0.12252557131E+03  0.80510396454E+03  0.91136975757E+02 0.  0.
        254    2    1    2    0    0 -0.19255810493E+03 -0.76667809801E+03  0.31546892648E+03  0.12375306987E+04  0.89838057463E+03 0.  0.
         23    2    4    4    0    0  0.14440622865E+03 -0.52790702209E+03 -0.18297018508E+03  0.58427223239E+03  0.91416464960E+02 0.  0.
         23    2    4    4    0    0 -0.33696433358E+03 -0.23877107592E+03  0.49843911156E+03  0.65325846630E+03  0.88025490966E+02 0.  0.
          2    1    3    3  502    0  0.12415417423E+03  0.63198578747E+03  0.11139703309E+03  0.65362802382E+03  0.00000000000E+00 0. -1.
         -2    1    3    3    0  502  0.68403930699E+02  0.13469231054E+03  0.11128538222E+02  0.15147594072E+03  0.00000000000E+00 0.  1.
         13    1    5    5    0    0  0.10583269825E+03 -0.45089572265E+03 -0.18339978408E+03  0.49813953218E+03  0.00000000000E+00 0. -1.
        -13    1    5    5    0    0  0.38573530396E+02 -0.77011299447E+02  0.42959900664E+00  0.86132700207E+02  0.00000000000E+00 0.  1.
          1    1    6    6  503    0 -0.18402786100E+03 -0.14066526430E+03  0.34442472284E+03  0.41506789795E+03  0.00000000000E+00 0. -1.
         -1    1    6    6    0  503 -0.15293647258E+03 -0.98105811613E+02  0.15401438871E+03  0.23819056834E+03  0.00000000000E+00 0.  1.
<mgrwt>
<rscale>  0 0.19951234E+04</rscale>
<asrwt>0</asrwt>
<pdfrwt beam="1">  1        2 0.19081763E+00 0.19951234E+04</pdfrwt>
<pdfrwt beam="2">  1       -2 0.12343386E+00 0.19951234E+04</pdfrwt>
<totfact> 0.82450564E+00</totfact>
</mgrwt>
</event>
<event>
12    3  0.4634846E-008  0.1912075E+04  0.7818608E-02  0.8648869E-01
         -2   -1    0    0    0  501 -0.00000000000E+00  0.00000000000E+00  0.21461884821E+03  0.21461884821E+03  0.00000000000E+00 0.  1.
          2   -1    0    0  501    0  0.00000000000E+00 -0.00000000000E+00 -0.42587474352E+04  0.42587474352E+04  0.00000000000E+00 0. -1.
         23    2    1    2    0    0 -0.10320768968E+03 -0.49898239816E+03 -0.31846104354E+03  0.60662710520E+03  0.83329152306E+02 0.  0.
        254    2    1    2    0    0  0.10320768968E+03  0.49898239816E+03 -0.37256675434E+04  0.38667391782E+04  0.90079851638E+03 0.  0.
         23    2    4    4    0    0 -0.11239594458E+03  0.51954015080E+03 -0.34960091051E+04  0.35373914634E+04  0.92216514490E+02 0.  0.
         23    2    4    4    0    0  0.21560363426E+03 -0.20557752637E+02 -0.22965843834E+03  0.32934771483E+03  0.93911504422E+02 0.  0.
          1    1    3    3  502    0 -0.38582826700E+02 -0.23966303185E+03 -0.19900125608E+03  0.31389250273E+03  0.00000000000E+00 0. -1.
         -1    1    3    3    0  502 -0.64624862981E+02 -0.25931936631E+03 -0.11945978746E+03  0.29273460247E+03  0.00000000000E+00 0.  1.
         13    1    5    5    0    0 -0.53681715713E+02  0.10080141803E+03 -0.89093472694E+03  0.89822454884E+03  0.00000000000E+00 0.  1.
        -13    1    5    5    0    0 -0.58714228865E+02  0.41873873277E+03 -0.26050743782E+04  0.26391669145E+04  0.00000000000E+00 0. -1.
          3    1    6    6  503    0  0.13811982071E+03 -0.55677711426E+02 -0.16658436577E+03  0.22344449723E+03  0.00000000000E+00 0. -1.
         -3    1    6    6    0  503  0.77483813545E+02  0.35119958789E+02 -0.63074072563E+02  0.10590321759E+03  0.00000000000E+00 0.  1.
<mgrwt>
<rscale>  0 0.19120748E+04</rscale>
<asrwt>0</asrwt>
<pdfrwt beam="1">  1        2 0.65519190E+00 0.19120748E+04</pdfrwt>
<pdfrwt beam="2">  1       -2 0.33018285E-01 0.19120748E+04</pdfrwt>
<totfact> 0.16800889E+00</totfact>
</mgrwt>
</event>
<event>
12    3  0.4634846E-008  0.1707589E+04  0.7818608E-02  0.8757048E-01
          2   -1    0    0  501    0  0.00000000000E+00  0.00000000000E+00  0.17071389805E+04  0.17071389805E+04  0.00000000000E+00 0. -1.
         -2   -1    0    0    0  501 -0.00000000000E+00 -0.00000000000E+00 -0.42700993410E+03  0.42700993410E+03  0.00000000000E+00 0.  1.
         23    2    1    2    0    0  0.27201772340E+03 -0.41929506729E+03  0.89608853669E+03  0.10303349193E+04  0.93879630228E+02 0.  0.
        254    2    1    2    0    0 -0.27201772340E+03  0.41929506729E+03  0.38404050971E+03  0.11038139953E+04  0.90615463795E+03 0.  0.
         23    2    4    4    0    0 -0.43344909558E+03  0.61896955764E+03  0.26571994371E+03  0.80615531669E+03  0.90982824749E+02 0.  0.
         23    2    4    4    0    0  0.16143137218E+03 -0.19967449035E+03  0.11832056600E+03  0.29765867863E+03  0.93117896270E+02 0.  0.
          2    1    3    3  502    0  0.17847814549E+03 -0.31693434420E+03  0.71554993329E+03  0.80269143136E+03  0.00000000000E+00 0. -1.
         -2    1    3    3    0  502  0.93539577911E+02 -0.10236072309E+03  0.18053860341E+03  0.22764348791E+03  0.00000000000E+00 0.  1.
         13    1    5    5    0    0 -0.40428825867E+03  0.60633235286E+03  0.26067342656E+03  0.77397580940E+03  0.00000000000E+00 0.  1.
        -13    1    5    5    0    0 -0.29160836914E+02  0.12637204779E+02  0.50465171492E+01  0.32179507291E+02  0.00000000000E+00 0. -1.
          2    1    6    6  503    0  0.46701142849E+01  0.10173184215E+02  0.46012159110E+01  0.12102678727E+02  0.00000000000E+00 0. -1.
         -2    1    6    6    0  503  0.15676125789E+03 -0.20984767456E+03  0.11371935009E+03  0.28555599990E+03  0.00000000000E+00 0.  1.
<mgrwt>
<rscale>  0 0.17075893E+04</rscale>
<asrwt>0</asrwt>
<pdfrwt beam="1">  1        2 0.26263676E+00 0.17075893E+04</pdfrwt>
<pdfrwt beam="2">  1       -2 0.65693837E-01 0.17075893E+04</pdfrwt>
<totfact> 0.19716568E+01</totfact>
</mgrwt>
</event>
<event>
12    3  0.4634846E-008  0.1291325E+04  0.7818608E-02  0.9036473E-01
         -3   -1    0    0    0  501 -0.00000000000E+00  0.00000000000E+00  0.19294786134E+04  0.19294786134E+04  0.00000000000E+00 0.  1.
          3   -1    0    0  501    0  0.00000000000E+00 -0.00000000000E+00 -0.21605839155E+03  0.21605839155E+03  0.00000000000E+00 0. -1.
         23    2    1    2    0    0 -0.75247316736E+02 -0.22411589776E+03  0.91573195671E+03  0.95078530414E+03  0.97660553560E+02 0.  0.
        254    2    1    2    0    0  0.75247316736E+02  0.22411589776E+03  0.79768826511E+03  0.11947517008E+04  0.85745843275E+03 0.  0.
         23    2    4    4    0    0  0.41976254283E+03 -0.24021140436E+02  0.53813652238E+03  0.68906514148E+03  0.91881689805E+02 0.  0.
         23    2    4    4    0    0 -0.34451522610E+03  0.24813703820E+03  0.25955174272E+03  0.50568655929E+03  0.89939192565E+02 0.  0.
          1    1    3    3  502    0  0.32218789930E+01 -0.11287477516E+03  0.30948340515E+03  0.32944054613E+03  0.00000000000E+00 0. -1.
         -1    1    3    3    0  502 -0.78469195729E+02 -0.11124112260E+03  0.60624855157E+03  0.62134475801E+03  0.00000000000E+00 0.  1.
         13    1    5    5    0    0  0.15951357334E+03  0.14483910241E+02  0.26639182108E+03  0.31083591503E+03  0.00000000000E+00 0. -1.
        -13    1    5    5    0    0  0.26024896950E+03 -0.38505050677E+02  0.27174470131E+03  0.37822922645E+03  0.00000000000E+00 0.  1.
          3    1    6    6  503    0 -0.16647279755E+03  0.69134350736E+02  0.89202866713E+02  0.20112161049E+03  0.00000000000E+00 0. -1.
         -3    1    6    6    0  503 -0.17804242855E+03  0.17900268746E+03  0.17034887601E+03  0.30456494881E+03  0.00000000000E+00 0.  1.
<mgrwt>
<rscale>  0 0.12913250E+04</rscale>
<asrwt>0</asrwt>
<pdfrwt beam="1">  1        3 0.33239754E-01 0.12913250E+04</pdfrwt>
<pdfrwt beam="2">  1       -3 0.29684285E+00 0.12913250E+04</pdfrwt>
<totfact> 0.91402378E-01</totfact>
</mgrwt>
</event>
<event>
12    3  0.4634846E-008  0.4396205E+04  0.7818608E-02  0.7929065E-01
          1   -1    0    0  501    0  0.00000000000E+00  0.00000000000E+00  0.21487619642E+04  0.21487619642E+04  0.00000000000E+00 0. -1.
         -1   -1    0    0    0  501 -0.00000000000E+00 -0.00000000000E+00 -0.22485756879E+04  0.22485756879E+04  0.00000000000E+00 0.  1.
         23    2    1    2    0    0 -0.94697177147E+03 -0.16432372616E+04 -0.96154893751E+03  0.21285895373E+04  0.96606549795E+02 0.  0.
        254    2    1    2    0    0  0.94697177147E+03  0.16432372616E+04  0.86173521385E+03  0.22687481148E+04  0.89869137959E+03 0.  0.
         23    2    4    4    0    0  0.32594874615E+02  0.65635143906E+03 -0.89983543920E+01  0.66366677959E+03  0.92265847097E+02 0.  0.
         23    2    4    4    0    0  0.91437689686E+03  0.98688582251E+03  0.87073356824E+03  0.16050813352E+04  0.89891098203E+02 0.  0.
          1    1    3    3  502    0 -0.88629886351E+02 -0.21485089236E+03 -0.10836730611E+03  0.25643641655E+03  0.00000000000E+00 0. -1.
         -1    1    3    3    0  502 -0.85834188512E+03 -0.14283863692E+04 -0.85318163140E+03  0.18721531208E+04  0.00000000000E+00 0.  1.
         13    1    5    5    0    0  0.64542588881E+02  0.48786643606E+03 -0.72541121124E+01  0.49217072988E+03  0.00000000000E+00 0.  1.
        -13    1    5    5    0    0 -0.31947714266E+02  0.16848500301E+03 -0.17442422796E+01  0.17149604971E+03  0.00000000000E+00 0. -1.
          4    1    6    6  503    0  0.10614821721E+03  0.15108799184E+03  0.97941223787E+02  0.20901557026E+03  0.00000000000E+00 0. -1.
         -4    1    6    6    0  503  0.80822867965E+03  0.83579783067E+03  0.77279234445E+03  0.13960657649E+04  0.00000000000E+00 0.  1.
<mgrwt>
<rscale>  0 0.43962047E+04</rscale>
<asrwt>0</asrwt>
<pdfrwt beam="1">  1        1 0.33057876E+00 0.43962047E+04</pdfrwt>
<pdfrwt beam="2">  1       -1 0.34593472E+00 0.43962047E+04</pdfrwt>
<totfact> 0.29574287E-02</totfact>
</mgrwt>
</event>
<event>
12    3  0.4634846E-008  0.1517957E+04  0.7818608E-02  0.8872599E-01
         -1   -1    0    0    0  501 -0.00000000000E+00  0.00000000000E+00  0.27783349963E+03  0.27783349963E+03  0.00000000000E+00 0.  1.
          1   -1    0    0  501    0  0.00000000000E+00 -0.00000000000E+00 -0.20733575501E+04  0.20733575501E+04  0.00000000000E+00 0. -1.
         23    2    1    2    0    0  0.35474196021E+03  0.13910205816E+02 -0.11139454781E+04  0.11717435970E+04  0.77930589539E+02 0.  0.
        254    2    1    2    0    0 -0.35474196021E+03 -0.13910205816E+02 -0.68157857245E+03  0.11794474528E+04  0.89471313353E+03 0.  0.
         23    2    4    4    0    0 -0.50054960785E+03  0.37781270728E+02 -0.38425521225E+02  0.51167674394E+03  0.91428853573E+02 0.  0.
         23    2    4    4    0    0  0.14580764764E+03 -0.51691476544E+02 -0.64315305123E+03  0.66777070886E+03  0.91323564576E+02 0.  0.
          3    1    3    3  502    0  0.33111285761E+03  0.33460163324E+02 -0.10200682748E+04  0.10729839665E+04  0.00000000000E+00 0. -1.
         -3    1    3    3    0  502  0.23629102599E+02 -0.19549957508E+02 -0.93877203256E+02  0.98759630514E+02  0.00000000000E+00 0.  1.
         13    1    5    5    0    0 -0.92933549523E+02  0.45105653295E+01 -0.43417669673E+02  0.10267465055E+03  0.00000000000E+00 0. -1.
        -13    1    5    5    0    0 -0.40761605833E+03  0.33270705399E+02  0.49921484477E+01  0.40900209338E+03  0.00000000000E+00 0.  1.
          4    1    6    6  503    0  0.15343853900E+03 -0.29971865300E+02 -0.54726402269E+03  0.56915692783E+03  0.00000000000E+00 0.  1.
         -4    1    6    6    0  503 -0.76308913617E+01 -0.21719611244E+02 -0.95889028532E+02  0.98613781027E+02  0.00000000000E+00 0. -1.
<mgrwt>
<rscale>  0 0.15179568E+04</rscale>
<asrwt>0</asrwt>
<pdfrwt beam="1">  1        1 0.31897809E+00 0.15179568E+04</pdfrwt>
<pdfrwt beam="2">  1       -1 0.42743615E-01 0.15179568E+04</pdfrwt>
<totfact> 0.13843570E+01</totfact>
</mgrwt>
</event>
<event>
12    3  0.4634846E-008  0.1856861E+04  0.7818608E-02  0.8676633E-01
         -1   -1    0    0    0  501 -0.00000000000E+00  0.00000000000E+00  0.11249537688E+04  0.11249537688E+04  0.00000000000E+00 0.  1.
          1   -1    0    0  501    0  0.00000000000E+00 -0.00000000000E+00 -0.76623857046E+03  0.76623857046E+03  0.00000000000E+00 0. -1.
         23    2    1    2    0    0 -0.20084244883E+02 -0.32904212521E+03 -0.50387207025E+03  0.60753046730E+03  0.80833832432E+02 0.  0.
        254    2    1    2    0    0  0.20084244883E+02  0.32904212521E+03  0.86258726864E+03  0.12836618720E+04  0.89166075869E+03 0.  0.
         23    2    4    4    0    0  0.12191206188E+03 -0.41570064697E+02 -0.13693027855E+03  0.20870352194E+03  0.90645671570E+02 0.  0.
         23    2    4    4    0    0 -0.10182781700E+03  0.37061218990E+03  0.99951754719E+03  0.10749583501E+04  0.93690061528E+02 0.  0.
          4    1    3    3  502    0 -0.19331618046E+02 -0.17863513874E+03 -0.20258198409E+03  0.27078346427E+03  0.00000000000E+00 0. -1.
         -4    1    3    3    0  502 -0.75262683707E+00 -0.15040698647E+03 -0.30129008616E+03  0.33674700302E+03  0.00000000000E+00 0.  1.
         13    1    5    5    0    0  0.11320801505E+03 -0.20040926515E+02 -0.14415232980E+03  0.18438434748E+03  0.00000000000E+00 0.  1.
        -13    1    5    5    0    0  0.87040468319E+01 -0.21529138182E+02  0.72220512535E+01  0.24319174460E+02  0.00000000000E+00 0. -1.
          2    1    6    6  503    0 -0.64498720032E+02  0.11740530323E+03  0.26138004678E+03  0.29370668866E+03  0.00000000000E+00 0. -1.
         -2    1    6    6    0  503 -0.37329096970E+02  0.25320688668E+03  0.73813750041E+03  0.78125166141E+03  0.00000000000E+00 0.  1.
<mgrwt>
<rscale>  0 0.18568608E+04</rscale>
<asrwt>0</asrwt>
<pdfrwt beam="1">  1        1 0.11788286E+00 0.18568608E+04</pdfrwt>
<pdfrwt beam="2">  1       -1 0.17306981E+00 0.18568608E+04</pdfrwt>
<totfact> 0.51956784E+00</totfact>
</mgrwt>
</event>
<event>
12    3  0.4634846E-008  0.1494011E+04  0.7818608E-02  0.8888445E-01
         -2   -1    0    0    0  501 -0.00000000000E+00  0.00000000000E+00  0.22958625277E+03  0.22958625277E+03  0.00000000000E+00 0.  1.
          2   -1    0    0  501    0  0.00000000000E+00 -0.00000000000E+00 -0.24305342021E+04  0.24305342021E+04  0.00000000000E+00 0. -1.
         23    2    1    2    0    0  0.33216434702E+02  0.84181657775E+02  0.11650650821E+03  0.17376415496E+03  0.91816839716E+02 0.  0.
        254    2    1    2    0    0 -0.33216434702E+02 -0.84181657775E+02 -0.23174544576E+04  0.24863562999E+04  0.89620455492E+03 0.  0.
         23    2    4    4    0    0 -0.42061032694E+03 -0.17932449505E+03 -0.15274378200E+04  0.15968785517E+04  0.88794670508E+02 0.  0.
         23    2    4    4    0    0  0.38739389224E+03  0.95142837273E+02 -0.79001663762E+03  0.88947774820E+03  0.88984209819E+02 0.  0.
          2    1    3    3  502    0 -0.10216300387E+02  0.83737348175E+01 -0.12348315800E+02  0.18082398388E+02  0.00000000000E+00 0. -1.
         -2    1    3    3    0  502  0.43432735089E+02  0.75807922957E+02  0.12885482401E+03  0.15568175657E+03  0.00000000000E+00 0.  1.
         13    1    5    5    0    0 -0.53527493799E+02 -0.38174464781E+01 -0.11323695495E+03  0.12530911162E+03  0.00000000000E+00 0.  1.
        -13    1    5    5    0    0 -0.36708283315E+03 -0.17550704857E+03 -0.14142008650E+04  0.14715694401E+04  0.00000000000E+00 0. -1.
          3    1    6    6  503    0  0.26356370772E+03  0.80117066809E+02 -0.45378540810E+03  0.53085381135E+03  0.00000000000E+00 0. -1.
         -3    1    6    6    0  503  0.12383018452E+03  0.15025770464E+02 -0.33623122952E+03  0.35862393685E+03  0.00000000000E+00 0.  1.
<mgrwt>
<rscale>  0 0.14940110E+04</rscale>
<asrwt>0</asrwt>
<pdfrwt beam="1">  1        2 0.37392832E+00 0.14940110E+04</pdfrwt>
<pdfrwt beam="2">  1       -2 0.35320964E-01 0.14940110E+04</pdfrwt>
<totfact> 0.27849285E+01</totfact>
</mgrwt>
</event>
<event>
12    3  0.4634846E-008  0.1681809E+04  0.7818608E-02  0.8771808E-01
          2   -1    0    0  501    0  0.00000000000E+00  0.00000000000E+00  0.23567203367E+04  0.23567203367E+04  0.00000000000E+00 0. -1.
         -2   -1    0    0    0  501 -0.00000000000E+00 -0.00000000000E+00 -0.30004442417E+03  0.30004442417E+03  0.00000000000E+00 0.  1.
         23    2    1    2    0    0 -0.35332673555E+02  0.42280111767E+03  0.87229836632E+02  0.44257688351E+03  0.90862921441E+02 0.  0.
        254    2    1    2    0    0  0.35332673555E+02 -0.42280111767E+03  0.19694460759E+04  0.22141878774E+04  0.91864080437E+03 0.  0.
         23    2    4    4    0    0 -0.20633458154E+03 -0.47454817756E+03  0.18531216471E+04  0.19262114475E+04  0.91982440148E+02 0.  0.
         23    2    4    4    0    0  0.24166725510E+03  0.51747059890E+02  0.11632442880E+03  0.28797642983E+03  0.91204336556E+02 0.  0.
          1    1    3    3  502    0 -0.40914500713E+02  0.72049850198E+02  0.22526085104E+02  0.85863856146E+02  0.00000000000E+00 0. -1.
         -1    1    3    3    0  502  0.55818271576E+01  0.35075126747E+03  0.64703751527E+02  0.35671302736E+03  0.00000000000E+00 0.  1.
         13    1    5    5    0    0 -0.19180605935E+03 -0.41272917943E+03  0.17119579086E+04  0.17714216948E+04  0.00000000000E+00 0. -1.
        -13    1    5    5    0    0 -0.14528522193E+02 -0.61818998129E+02  0.14116373848E+03  0.15478975273E+03  0.00000000000E+00 0.  1.
          2    1    6    6  503    0  0.15314970544E+03  0.26479703442E+02  0.23395827845E+02  0.15717306299E+03  0.00000000000E+00 0. -1.
         -2    1    6    6    0  503  0.88517549662E+02  0.25267356448E+02  0.92928600957E+02  0.13080336684E+03  0.00000000000E+00 0.  1.
<mgrwt>
<rscale>  0 0.16818095E+04</rscale>
<asrwt>0</asrwt>
<pdfrwt beam="1">  1        2 0.36257235E+00 0.16818095E+04</pdfrwt>
<pdfrwt beam="2">  1       -2 0.46160682E-01 0.16818095E+04</pdfrwt>
<totfact> 0.17865384E+01</totfact>
</mgrwt>
</event>
<event>
12    3  0.4634846E-008  0.1825854E+04  0.7818608E-02  0.8692670E-01
         -2   -1    0    0    0  501 -0.00000000000E+00  0.00000000000E+00  0.41302194843E+03  0.41302194843E+03  0.00000000000E+00 0.  1.
          2   -1    0    0  501    0  0.00000000000E+00 -0.00000000000E+00 -0.20178967244E+04  0.20178967244E+04  0.00000000000E+00 0. -1.
         23    2    1    2    0    0 -0.67906914611E+03  0.10508611396E+03 -0.60099885423E+03  0.91743947326E+03  0.91200700432E+02 0.  0.
        254    2    1    2    0    0  0.67906914611E+03 -0.10508611396E+03 -0.10038759217E+04  0.15134791995E+04  0.90037460241E+03 0.  0.
         23    2    4    4    0    0  0.12816721355E+03  0.26642901831E+03 -0.86744668403E+01  0.31334777885E+03  0.10344238836E+03 0.  0.
         23    2    4    4    0    0  0.55090193257E+03 -0.37151513228E+03 -0.99520145486E+03  0.12001314207E+04  0.91504416880E+02 0.  0.
          2    1    3    3  502    0 -0.23457009932E+02  0.19739632239E+02 -0.39727435551E+02  0.50181206954E+02  0.00000000000E+00 0. -1.
         -2    1    3    3    0  502 -0.65561213618E+03  0.85346481725E+02 -0.56127141868E+03  0.86725826631E+03  0.00000000000E+00 0.  1.
         13    1    5    5    0    0  0.72516208258E+02  0.13249002887E+03 -0.55537970137E+02  0.16092443673E+03  0.00000000000E+00 0.  1.
        -13    1    5    5    0    0  0.55651005290E+02  0.13393898944E+03  0.46863503297E+02  0.15242334212E+03  0.00000000000E+00 0. -1.
          1    1    6    6  503    0  0.45009122354E+03 -0.28526332795E+03 -0.85198292996E+03  0.10049040694E+04  0.00000000000E+00 0. -1.
         -1    1    6    6    0  503  0.10081070903E+03 -0.86251804328E+02 -0.14321852490E+03  0.19522735126E+03  0.00000000000E+00 0.  1.
<mgrwt>
<rscale>  0 0.18258539E+04</rscale>
<asrwt>0</asrwt>
<pdfrwt beam="1">  1        2 0.31044565E+00 0.18258539E+04</pdfrwt>
<pdfrwt beam="2">  1       -2 0.63541838E-01 0.18258539E+04</pdfrwt>
<totfact> 0.14100549E+01</totfact>
</mgrwt>
</event>
<event>
12    3  0.4634846E-008  0.1670224E+04  0.7818608E-02  0.8778531E-01
          2   -1    0    0  501    0  0.00000000000E+00  0.00000000000E+00  0.11466791189E+04  0.11466791189E+04  0.00000000000E+00 0. -1.
         -2   -1    0    0    0  501 -0.00000000000E+00 -0.00000000000E+00 -0.60820170450E+03  0.60820170450E+03  0.00000000000E+00 0.  1.
         23    2    1    2    0    0  0.32618848067E+03 -0.22545997246E+03 -0.26800467601E+03  0.48652670114E+03  0.87467710904E+02 0.  0.
        254    2    1    2    0    0 -0.32618848067E+03  0.22545997246E+03  0.80648209044E+03  0.12683541223E+04  0.89502943707E+03 0.  0.
         23    2    4    4    0    0 -0.61232792769E+03  0.22974898306E+03  0.66180466893E+03  0.93492253371E+03  0.91458394754E+02 0.  0.
         23    2    4    4    0    0  0.28613944702E+03 -0.42890106005E+01  0.14467742151E+03  0.33343158857E+03  0.91383199849E+02 0.  0.
          3    1    3    3  502    0  0.55466391888E+01 -0.16414915103E+02  0.29317706398E+01  0.17572988454E+02  0.00000000000E+00 0. -1.
         -3    1    3    3    0  502  0.32064184149E+03 -0.20904505735E+03 -0.27093644665E+03  0.46895371268E+03  0.00000000000E+00 0.  1.
         13    1    5    5    0    0 -0.55113823937E+03  0.23446470419E+03  0.59642383530E+03  0.84525052364E+03  0.00000000000E+00 0. -1.
        -13    1    5    5    0    0 -0.61189688324E+02 -0.47157211337E+01  0.65380833632E+02  0.89672010067E+02  0.00000000000E+00 0.  1.
          2    1    6    6  503    0  0.24247929114E+03 -0.37549335419E+02  0.11407195085E+03  0.27058929984E+03  0.00000000000E+00 0. -1.
         -2    1    6    6    0  503  0.43660155880E+02  0.33260324818E+02  0.30605470660E+02  0.62842288730E+02  0.00000000000E+00 0.  1.
<mgrwt>
<rscale>  0 0.16702242E+04</rscale>
<asrwt>0</asrwt>
<pdfrwt beam="1">  1        2 0.17641217E+00 0.16702242E+04</pdfrwt>
<pdfrwt beam="2">  1       -2 0.93569493E-01 0.16702242E+04</pdfrwt>
<totfact> 0.18788365E+01</totfact>
</mgrwt>
</event>
<event>
12    3  0.4634846E-008  0.2531548E+04  0.7818608E-02  0.8391832E-01
          2   -1    0    0  501    0  0.00000000000E+00  0.00000000000E+00  0.16190440636E+04  0.16190440636E+04  0.00000000000E+00 0. -1.
         -2   -1    0    0    0  501 -0.00000000000E+00 -0.00000000000E+00 -0.98958646997E+03  0.98958646997E+03  0.00000000000E+00 0.  1.
         23    2    1    2    0    0 -0.50108885199E+03  0.81480875670E+03 -0.28445442346E+03  0.10021266493E+04  0.91324447207E+02 0.  0.
        254    2    1    2    0    0  0.50108885199E+03 -0.81480875670E+03  0.91391201707E+03  0.16065038843E+04  0.91138148303E+03 0.  0.
         23    2    4    4    0    0  0.65728836289E+03 -0.40701371392E+03  0.27188805627E+03  0.82476466361E+03  0.92873461740E+02 0.  0.
         23    2    4    4    0    0 -0.15619951090E+03 -0.40779504277E+03  0.64202396080E+03  0.78173922064E+03  0.90699276381E+02 0.  0.
          3    1    3    3  502    0 -0.12105820465E+03  0.13130028899E+03 -0.62057003090E+02  0.18906593145E+03  0.00000000000E+00 0. -1.
         -3    1    3    3    0  502 -0.38003064733E+03  0.68350846771E+03 -0.22239742037E+03  0.81306071786E+03  0.00000000000E+00 0.  1.
         13    1    5    5    0    0  0.21856418411E+03 -0.15202313182E+03  0.49817185559E+02  0.27085621123E+03  0.00000000000E+00 0.  1.
        -13    1    5    5    0    0  0.43872417877E+03 -0.25499058210E+03  0.22207087071E+03  0.55390845238E+03  0.00000000000E+00 0. -1.
          4    1    6    6  503    0 -0.16777430983E+03 -0.37511902175E+03  0.58256074534E+03  0.71290919585E+03  0.00000000000E+00 0. -1.
         -4    1    6    6    0  503  0.11574798931E+02 -0.32676021030E+02  0.59463215459E+02  0.68830024796E+02  0.00000000000E+00 0.  1.
<mgrwt>
<rscale>  0 0.25315482E+04</rscale>
<asrwt>0</asrwt>
<pdfrwt beam="1">  1        2 0.24908370E+00 0.25315482E+04</pdfrwt>
<pdfrwt beam="2">  1       -2 0.15224407E+00 0.25315482E+04</pdfrwt>
<totfact> 0.27884179E+00</totfact>
</mgrwt>
</event>
<event>
12    3  0.4634846E-008  0.1443446E+04  0.7818608E-02  0.8922957E-01
         -2   -1    0    0    0  501 -0.00000000000E+00  0.00000000000E+00  0.83516525384E+03  0.83516525384E+03  0.00000000000E+00 0.  1.
          2   -1    0    0  501    0  0.00000000000E+00 -0.00000000000E+00 -0.62368968742E+03  0.62368968742E+03  0.00000000000E+00 0. -1.
         23    2    1    2    0    0  0.63466764739E+02 -0.82378456036E+02  0.49765227335E+03  0.51474758318E+03  0.80579457518E+02 0.  0.
        254    2    1    2    0    0 -0.63466764739E+02  0.82378456036E+02 -0.28617670694E+03  0.94410735808E+03  0.89365953010E+03 0.  0.
         23    2    4    4    0    0 -0.46627255832E+03  0.50767661551E+02 -0.21266025801E+03  0.52290079559E+03  0.90627824571E+02 0.  0.
         23    2    4    4    0    0  0.40280579359E+03  0.31610794485E+02 -0.73516448926E+02  0.42120656249E+03  0.93587127024E+02 0.  0.
          4    1    3    3  502    0  0.15931885758E+02 -0.19385996045E+02  0.31215266570E+03  0.31315958956E+03  0.00000000000E+00 0. -1.
         -4    1    3    3    0  502  0.47534878981E+02 -0.62992459991E+02  0.18549960765E+03  0.20158799363E+03  0.00000000000E+00 0.  1.
         13    1    5    5    0    0 -0.28001145064E+03  0.21674428497E+02 -0.78812578450E+02  0.29169781600E+03  0.00000000000E+00 0.  1.
        -13    1    5    5    0    0 -0.18626110768E+03  0.29093233055E+02 -0.13384767956E+03  0.23120297959E+03  0.00000000000E+00 0. -1.
          2    1    6    6  503    0  0.58268559993E+00 -0.85921783531E+01  0.41915541052E+01  0.95777960501E+01  0.00000000000E+00 0. -1.
         -2    1    6    6    0  503  0.40222310799E+03  0.40202972838E+02 -0.77708003031E+02  0.41162876644E+03  0.00000000000E+00 0.  1.
<mgrwt>
<rscale>  0 0.14434458E+04</rscale>
<asrwt>0</asrwt>
<pdfrwt beam="1">  1        2 0.95952259E-01 0.14434458E+04</pdfrwt>
<pdfrwt beam="2">  1       -2 0.12848696E+00 0.14434458E+04</pdfrwt>
<totfact> 0.20528007E+01</totfact>
</mgrwt>
</event>
<event>
12    3  0.4634846E-008  0.1748059E+04  0.7818608E-02  0.8734420E-01
         -2   -1    0    0    0  501 -0.00000000000E+00  0.00000000000E+00  0.20593618465E+03  0.20593618465E+03  0.00000000000E+00 0.  1.
          2   -1    0    0  501    0  0.00000000000E+00 -0.00000000000E+00 -0.37095334808E+04  0.37095334808E+04  0.00000000000E+00 0. -1.
         23    2    1    2    0    0  0.41760227715E+02  0.77444173487E+02  0.12447956323E+03  0.17674811834E+03  0.89460712313E+02 0.  0.
        254    2    1    2    0    0 -0.41760227715E+02 -0.77444173487E+02 -0.36280768594E+04  0.37387215471E+04  0.89852968375E+03 0.  0.
         23    2    4    4    0    0  0.12477154489E+03 -0.37323308547E+03 -0.29259776171E+04  0.29536911139E+04  0.89862704055E+02 0.  0.
         23    2    4    4    0    0 -0.16653177260E+03  0.29578891198E+03 -0.70209924227E+03  0.78503043327E+03  0.90030680504E+02 0.  0.
          3    1    3    3  502    0 -0.14706187234E+02  0.19637871250E+02 -0.41095854960E+01  0.24875824070E+02  0.00000000000E+00 0. -1.
         -3    1    3    3    0  502  0.56466414949E+02  0.57806302237E+02  0.12858914873E+03  0.15187229427E+03  0.00000000000E+00 0.  1.
         13    1    5    5    0    0  0.12076978026E+02 -0.37919049411E+02 -0.14708343608E+03  0.15237206068E+03  0.00000000000E+00 0.  1.
        -13    1    5    5    0    0  0.11269456686E+03 -0.33531403606E+03 -0.27788941811E+04  0.28013190532E+04  0.00000000000E+00 0. -1.
          2    1    6    6  503    0 -0.10181209788E+03  0.25272367474E+03 -0.52072198684E+03  0.58769579429E+03  0.00000000000E+00 0. -1.
         -2    1    6    6    0  503 -0.64719674721E+02  0.43065237239E+02 -0.18137725543E+03  0.19733463898E+03  0.00000000000E+00 0.  1.
<mgrwt>
<rscale>  0 0.17480585E+04</rscale>
<asrwt>0</asrwt>
<pdfrwt beam="1">  1        2 0.57069746E+00 0.17480585E+04</pdfrwt>
<pdfrwt beam="2">  1       -2 0.31682490E-01 0.17480585E+04</pdfrwt>
<totfact> 0.50987052E+00</totfact>
</mgrwt>
</event>
<event>
12    3  0.4634846E-008  0.1451366E+04  0.7818608E-02  0.8917454E-01
         -2   -1    0    0    0  501 -0.00000000000E+00  0.00000000000E+00  0.16544438049E+04  0.16544438049E+04  0.00000000000E+00 0.  1.
          2   -1    0    0  501    0  0.00000000000E+00 -0.00000000000E+00 -0.31830375112E+03  0.31830375112E+03  0.00000000000E+00 0. -1.
         23    2    1    2    0    0 -0.40203147975E+03 -0.12650898993E+03  0.58458462007E+03  0.72734028077E+03  0.98238845513E+02 0.  0.
        254    2    1    2    0    0  0.40203147975E+03  0.12650898993E+03  0.75155543372E+03  0.12454072753E+04  0.89920513570E+03 0.  0.
         23    2    4    4    0    0 -0.88887045435E+02 -0.16542654365E+03  0.61674904470E+03  0.65132942563E+03  0.92648736455E+02 0.  0.
         23    2    4    4    0    0  0.49091852519E+03  0.29193553357E+03  0.13480638902E+03  0.59407784963E+03  0.92349200140E+02 0.  0.
          3    1    3    3  502    0 -0.69444537096E+02  0.14843512471E+02  0.85165916760E+02  0.11088781255E+03  0.00000000000E+00 0. -1.
         -3    1    3    3    0  502 -0.33258694265E+03 -0.14135250240E+03  0.49941870331E+03  0.61645246822E+03  0.00000000000E+00 0.  1.
         13    1    5    5    0    0  0.77877119527E+01  0.70295011013E+01  0.18612098485E+02  0.21365218305E+02  0.00000000000E+00 0. -1.
        -13    1    5    5    0    0 -0.96674757388E+02 -0.17245604475E+03  0.59813694621E+03  0.62996420733E+03  0.00000000000E+00 0.  1.
          2    1    6    6  503    0  0.13952472624E+03  0.13194163920E+03  0.33813541421E+02  0.19498487370E+03  0.00000000000E+00 0. -1.
         -2    1    6    6    0  503  0.35139379894E+03  0.15999389438E+03  0.10099284760E+03  0.39909297593E+03  0.00000000000E+00 0.  1.
<mgrwt>
<rscale>  0 0.14513658E+04</rscale>
<asrwt>0</asrwt>
<pdfrwt beam="1">  1        2 0.48969809E-01 0.14513658E+04</pdfrwt>
<pdfrwt beam="2">  1       -2 0.25452981E+00 0.14513658E+04</pdfrwt>
<totfact> 0.60125907E+00</totfact>
</mgrwt>
</event>
<event>
12    3  0.4634846E-008  0.2369066E+04  0.7818608E-02  0.8451176E-01
         -2   -1    0    0    0  501 -0.00000000000E+00  0.00000000000E+00  0.61319830612E+03  0.61319830612E+03  0.00000000000E+00 0.  1.
          2   -1    0    0  501    0  0.00000000000E+00 -0.00000000000E+00 -0.22881977341E+04  0.22881977341E+04  0.00000000000E+00 0. -1.
         23    2    1    2    0    0  0.91288512188E+03  0.18472512345E+03 -0.24469598165E+03  0.96718750926E+03  0.89960756090E+02 0.  0.
        254    2    1    2    0    0 -0.91288512188E+03 -0.18472512345E+03 -0.14303034463E+04  0.19342085309E+04  0.90989673900E+03 0.  0.
         23    2    4    4    0    0 -0.52045414294E+03 -0.70485304283E+02 -0.10372302110E+03  0.54296813243E+03  0.90637931938E+02 0.  0.
         23    2    4    4    0    0 -0.39243097894E+03 -0.11423981917E+03 -0.13265804252E+04  0.13912403985E+04  0.93174097258E+02 0.  0.
          1    1    3    3  502    0  0.31877854148E+03  0.71686029692E+02 -0.12995202223E+03  0.35163357838E+03  0.00000000000E+00 0. -1.
         -1    1    3    3    0  502  0.59410658041E+03  0.11303909376E+03 -0.11474395942E+03  0.61555393088E+03  0.00000000000E+00 0.  1.
         13    1    5    5    0    0 -0.40638377441E+03 -0.39393454349E+02 -0.44422023164E+02  0.41069810384E+03  0.00000000000E+00 0. -1.
        -13    1    5    5    0    0 -0.11407036853E+03 -0.31091849934E+02 -0.59300997940E+02  0.13227002860E+03  0.00000000000E+00 0.  1.
          3    1    6    6  503    0 -0.22870525774E+03 -0.50757751124E+02 -0.60950873149E+03  0.65298035037E+03  0.00000000000E+00 0. -1.
         -3    1    6    6    0  503 -0.16372572121E+03 -0.63482068045E+02 -0.71707169369E+03  0.73826004811E+03  0.00000000000E+00 0.  1.
<mgrwt>
<rscale>  0 0.23690665E+04</rscale>
<asrwt>0</asrwt>
<pdfrwt beam="1">  1        2 0.35203042E+00 0.23690665E+04</pdfrwt>
<pdfrwt beam="2">  1       -2 0.94338201E-01 0.23690665E+04</pdfrwt>
<totfact> 0.39315731E+00</totfact>
</mgrwt>
</event>
<event>
12    3  0.4634846E-008  0.1719418E+04  0.7818608E-02  0.8750366E-01
          1   -1    0    0  501    0  0.00000000000E+00  0.00000000000E+00  0.62248172756E+03  0.62248172756E+03  0.00000000000E+00 0. -1.
         -1   -1    0    0    0  501 -0.00000000000E+00 -0.00000000000E+00 -0.11873436911E+04  0.11873436911E+04  0.00000000000E+00 0.  1.
         23    2    1    2    0    0 -0.31210674613E+02  0.27262597456E+03  0.36332794864E+03  0.46422566390E+03  0.90549657906E+02 0.  0.
        254    2    1    2    0    0  0.31210674613E+02 -0.27262597456E+03 -0.92818991216E+03  0.13455997547E+04  0.93477438918E+03 0.  0.
         23    2    4    4    0    0  0.41738362256E+03  0.69369307823E+02 -0.55150348179E+03  0.70050233110E+03  0.86753882968E+02 0.  0.
         23    2    4    4    0    0 -0.38617294794E+03 -0.34199528238E+03 -0.37668643037E+03  0.64509742362E+03  0.90375329854E+02 0.  0.
          1    1    3    3  502    0 -0.53840829399E+02  0.22780344301E+03  0.32745131615E+03  0.40251410908E+03  0.00000000000E+00 0. -1.
         -1    1    3    3    0  502  0.22630154786E+02  0.44822531547E+02  0.35876632496E+02  0.61711554827E+02  0.00000000000E+00 0.  1.
         13    1    5    5    0    0  0.68901220794E+02  0.44913638738E+02 -0.94686369370E+02  0.12541978200E+03  0.00000000000E+00 0.  1.
        -13    1    5    5    0    0  0.34848240176E+03  0.24455669084E+02 -0.45681711242E+03  0.57508254911E+03  0.00000000000E+00 0. -1.
          4    1    6    6  503    0 -0.31861252161E+03 -0.24132949326E+03 -0.25990442438E+03  0.47676427410E+03  0.00000000000E+00 0. -1.
         -4    1    6    6    0  503 -0.67560426332E+02 -0.10066578912E+03 -0.11678200599E+03  0.16833314953E+03  0.00000000000E+00 0.  1.
<mgrwt>
<rscale>  0 0.17194182E+04</rscale>
<asrwt>0</asrwt>
<pdfrwt beam="1">  1        1 0.95766421E-01 0.17194182E+04</pdfrwt>
<pdfrwt beam="2">  1       -1 0.18266826E+00 0.17194182E+04</pdfrwt>
<totfact> 0.61410478E+00</totfact>
</mgrwt>
</event>
<event>
12    3  0.4634846E-008  0.1394073E+04  0.7818608E-02  0.8958120E-01
          1   -1    0    0  501    0  0.00000000000E+00  0.00000000000E+00  0.75163766192E+03  0.75163766192E+03  0.00000000000E+00 0. -1.
         -1   -1    0    0    0  501 -0.00000000000E+00 -0.00000000000E+00 -0.64640137572E+03  0.64640137572E+03  0.00000000000E+00 0.  1.
         23    2    1    2    0    0 -0.56059728008E+02  0.37957802431E+03 -0.77145517969E+02  0.40233067053E+03  0.93254318179E+02 0.  0.
        254    2    1    2    0    0  0.56059728008E+02 -0.37957802431E+03  0.18238180417E+03  0.99570836712E+03  0.90052754551E+03 0.  0.
         23    2    4    4    0    0 -0.35594537442E+03 -0.96821197391E+02 -0.12676130324E+03  0.40084486132E+03  0.92394377598E+02 0.  0.
         23    2    4    4    0    0  0.41200510243E+03 -0.28275682692E+03  0.30914310741E+03  0.59486350580E+03  0.92701143896E+02 0.  0.
          4    1    3    3  502    0 -0.49515734938E+02  0.29113917098E+03 -0.98138207926E+02  0.31119918499E+03  0.00000000000E+00 0.  1.
         -4    1    3    3    0  502 -0.65439930697E+01  0.88438853333E+02  0.20992689957E+02  0.91131485535E+02  0.00000000000E+00 0. -1.
         13    1    5    5    0    0 -0.35166019555E+03 -0.79223852076E+02 -0.11197749217E+03  0.37746558867E+03  0.00000000000E+00 0.  1.
        -13    1    5    5    0    0 -0.42851788685E+01 -0.17597345316E+02 -0.14783811071E+02  0.23379272655E+02  0.00000000000E+00 0. -1.
          4    1    6    6  503    0  0.70954914553E+01  0.51805426717E+01 -0.14750635717E+01  0.89084136582E+01  0.00000000000E+00 0. -1.
         -4    1    6    6    0  503  0.40490961097E+03 -0.28793736959E+03  0.31061817098E+03  0.58595509214E+03  0.00000000000E+00 0.  1.
<mgrwt>
<rscale>  0 0.13940726E+04</rscale>
<asrwt>0</asrwt>
<pdfrwt beam="1">  1        1 0.11563656E+00 0.13940726E+04</pdfrwt>
<pdfrwt beam="2">  1       -1 0.99446365E-01 0.13940726E+04</pdfrwt>
<totfact> 0.22995192E+01</totfact>
</mgrwt>
</event>
<event>
12    3  0.4634846E-008  0.1202535E+04  0.7818608E-02  0.9110640E-01
          1   -1    0    0  501    0  0.00000000000E+00  0.00000000000E+00  0.71717412910E+03  0.71717412910E+03  0.00000000000E+00 0. -1.
         -1   -1    0    0    0  501 -0.00000000000E+00 -0.00000000000E+00 -0.50409354462E+03  0.50409354462E+03  0.00000000000E+00 0.  1.
         23    2    1    2    0    0 -0.35654999397E+02  0.61185828653E+01 -0.20184193754E+03  0.22398258857E+03  0.90107248297E+02 0.  0.
        254    2    1    2    0    0  0.35654999397E+02 -0.61185828653E+01  0.41492252202E+03  0.99728508515E+03  0.90615016732E+03 0.  0.
         23    2    4    4    0    0  0.37445327366E+03  0.22814012692E+03  0.35459764482E+03  0.57126482253E+03  0.91328177933E+02 0.  0.
         23    2    4    4    0    0 -0.33879827426E+03 -0.23425870979E+03  0.60324877203E+02  0.42602026262E+03  0.90513864119E+02 0.  0.
          4    1    3    3  502    0 -0.15590706130E+02 -0.40811599411E+01  0.42485730026E+01  0.16666624033E+02  0.00000000000E+00 0. -1.
         -4    1    3    3    0  502 -0.20064293268E+02  0.10199742806E+02 -0.20609051054E+03  0.20731596454E+03  0.00000000000E+00 0.  1.
         13    1    5    5    0    0  0.50245803041E+02  0.60837234235E+02  0.95040514394E+02  0.12352533817E+03  0.00000000000E+00 0. -1.
        -13    1    5    5    0    0  0.32420747062E+03  0.16730289269E+03  0.25955713043E+03  0.44773948437E+03  0.00000000000E+00 0.  1.
          4    1    6    6  503    0 -0.56133190432E+02 -0.45308881325E+02  0.46322277695E+02  0.85729710170E+02  0.00000000000E+00 0. -1.
         -4    1    6    6    0  503 -0.28266508383E+03 -0.18894982846E+03  0.14002599507E+02  0.34029055245E+03  0.00000000000E+00 0.  1.
<mgrwt>
<rscale>  0 0.12025354E+04</rscale>
<asrwt>0</asrwt>
<pdfrwt beam="1">  1        1 0.11033448E+00 0.12025354E+04</pdfrwt>
<pdfrwt beam="2">  1       -1 0.77552852E-01 0.12025354E+04</pdfrwt>
<totfact> 0.43305849E+01</totfact>
</mgrwt>
</event>
<event>
12    3  0.4634846E-008  0.1318625E+04  0.7818608E-02  0.9014925E-01
         -2   -1    0    0    0  501 -0.00000000000E+00  0.00000000000E+00  0.16368255250E+03  0.16368255250E+03  0.00000000000E+00 0. -1.
          2   -1    0    0  501    0  0.00000000000E+00 -0.00000000000E+00 -0.26557058951E+04  0.26557058951E+04  0.00000000000E+00 0.  1.
         23    2    1    2    0    0 -0.11187945978E+03  0.83031469548E+02 -0.13466998291E+04  0.13571286343E+04  0.93736129315E+02 0.  0.
        254    2    1    2    0    0  0.11187945978E+03 -0.83031469548E+02 -0.11453235135E+04  0.14622598133E+04  0.89834657706E+03 0.  0.
         23    2    4    4    0    0  0.23896194295E+03 -0.42188441342E+03 -0.86383859726E+03  0.99461233863E+03  0.89147706475E+02 0.  0.
         23    2    4    4    0    0 -0.12708248317E+03  0.33885294387E+03 -0.28148491629E+03  0.46764747469E+03  0.92136460695E+02 0.  0.
          3    1    3    3  502    0 -0.34076604482E+02  0.83446510226E-01 -0.10870195591E+03  0.11391811601E+03  0.00000000000E+00 0. -1.
         -3    1    3    3    0  502 -0.77802855299E+02  0.82948023037E+02 -0.12379978731E+04  0.12432105183E+04  0.00000000000E+00 0.  1.
         13    1    5    5    0    0  0.11747638450E+03 -0.29380881450E+03 -0.56017840830E+03  0.64336938808E+03  0.00000000000E+00 0. -1.
        -13    1    5    5    0    0  0.12148555845E+03 -0.12807559892E+03 -0.30366018896E+03  0.35124295055E+03  0.00000000000E+00 0.  1.
          3    1    6    6  503    0 -0.12891656716E+03  0.32685631713E+03 -0.24276627085E+03  0.42707141745E+03  0.00000000000E+00 0. -1.
         -3    1    6    6    0  503  0.18340839933E+01  0.11996626745E+02 -0.38718645437E+02  0.40576057248E+02  0.00000000000E+00 0.  1.
<mgrwt>
<rscale>  0 0.13186246E+04</rscale>
<asrwt>0</asrwt>
<pdfrwt beam="1">  1        2 0.40857013E+00 0.13186246E+04</pdfrwt>
<pdfrwt beam="2">  1       -2 0.25181932E-01 0.13186246E+04</pdfrwt>
<totfact> 0.39350195E+01</totfact>
</mgrwt>
</event>
<event>
12    3  0.4634846E-008  0.1202986E+04  0.7818608E-02  0.9110247E-01
         -2   -1    0    0    0  501 -0.00000000000E+00  0.00000000000E+00  0.23484137789E+03  0.23484137789E+03  0.00000000000E+00 0.  1.
          2   -1    0    0  501    0  0.00000000000E+00 -0.00000000000E+00 -0.15405871646E+04  0.15405871646E+04  0.00000000000E+00 0. -1.
         23    2    1    2    0    0 -0.50073659697E+02  0.22718363442E+03 -0.19531289934E+03  0.31360343153E+03  0.77975691577E+02 0.  0.
        254    2    1    2    0    0  0.50073659697E+02 -0.22718363442E+03 -0.11104328874E+04  0.14618251110E+04  0.92181976685E+03 0.  0.
         23    2    4    4    0    0 -0.37765651067E+03  0.67280173940E+02 -0.65685984601E+03  0.76630204544E+03  0.92751850139E+02 0.  0.
         23    2    4    4    0    0  0.42773017036E+03 -0.29446380836E+03 -0.45357304139E+03  0.69552306554E+03  0.91442866044E+02 0.  0.
          3    1    3    3  502    0 -0.92747533458E+01  0.18933479306E+03 -0.15541796172E+03  0.24512941018E+03  0.00000000000E+00 0. -1.
         -3    1    3    3    0  502 -0.40798906351E+02  0.37848841359E+02 -0.39894937622E+02  0.68474021348E+02  0.00000000000E+00 0.  1.
         13    1    5    5    0    0 -0.32813673259E+02  0.27131617037E+02 -0.39801113759E+02  0.58283706576E+02  0.00000000000E+00 0. -1.
        -13    1    5    5    0    0 -0.34484283741E+03  0.40148556903E+02 -0.61705873225E+03  0.70801833887E+03  0.00000000000E+00 0.  1.
          3    1    6    6  503    0  0.59682007281E+02 -0.15840021894E+02 -0.83645169717E+02  0.10396808502E+03  0.00000000000E+00 0. -1.
         -3    1    6    6    0  503  0.36804816308E+03 -0.27862378646E+03 -0.36992787167E+03  0.59155498051E+03  0.00000000000E+00 0.  1.
<mgrwt>
<rscale>  0 0.12029856E+04</rscale>
<asrwt>0</asrwt>
<pdfrwt beam="1">  1        2 0.23701341E+00 0.12029856E+04</pdfrwt>
<pdfrwt beam="2">  1       -2 0.36129442E-01 0.12029856E+04</pdfrwt>
<totfact> 0.85580920E+01</totfact>
</mgrwt>
</event>
<event>
12    3  0.4634846E-008  0.1280308E+04  0.7818608E-02  0.9045329E-01
          1   -1    0    0  501    0  0.00000000000E+00  0.00000000000E+00  0.11798635342E+04  0.11798635342E+04  0.00000000000E+00 0. -1.
         -1   -1    0    0    0  501 -0.00000000000E+00 -0.00000000000E+00 -0.34732578382E+03  0.34732578382E+03  0.00000000000E+00 0.  1.
         23    2    1    2    0    0  0.23318363921E+03  0.18402412713E+03  0.35887775540E+03  0.47445499705E+03  0.89859957375E+02 0.  0.
        254    2    1    2    0    0 -0.23318363921E+03 -0.18402412713E+03  0.47365999502E+03  0.10527343210E+04  0.89199566748E+03 0.  0.
         23    2    4    4    0    0 -0.47521684532E+03 -0.37614218928E+03  0.36289971768E+03  0.71228027630E+03  0.91285213922E+02 0.  0.
         23    2    4    4    0    0  0.24203320611E+03  0.19211806215E+03  0.11076027734E+03  0.34045404472E+03  0.90286736943E+02 0.  0.
          3    1    3    3  502    0  0.19298136107E+03  0.18739807912E+03  0.29832534213E+03  0.40169373350E+03  0.00000000000E+00 0. -1.
         -3    1    3    3    0  502  0.40202278146E+02 -0.33739519860E+01  0.60552413276E+02  0.72761263552E+02  0.00000000000E+00 0.  1.
         13    1    5    5    0    0 -0.79365391006E+00 -0.19089293292E+02  0.10240145224E+02  0.21676982703E+02  0.00000000000E+00 0. -1.
        -13    1    5    5    0    0 -0.47442319141E+03 -0.35705289599E+03  0.35265957245E+03  0.69060329360E+03  0.00000000000E+00 0.  1.
          1    1    6    6  503    0  0.14351969138E+03  0.59978400435E+02  0.70547533688E+02  0.17079890176E+03  0.00000000000E+00 0. -1.
         -1    1    6    6    0  503  0.98513514730E+02  0.13213966171E+03  0.40212743652E+02  0.16965514296E+03  0.00000000000E+00 0.  1.
<mgrwt>
<rscale>  0 0.12803078E+04</rscale>
<asrwt>0</asrwt>
<pdfrwt beam="1">  1        1 0.18151746E+00 0.12803078E+04</pdfrwt>
<pdfrwt beam="2">  1       -1 0.53434737E-01 0.12803078E+04</pdfrwt>
<totfact> 0.38430562E+01</totfact>
</mgrwt>
</event>
<event>
12    3  0.4634846E-008  0.1884815E+04  0.7818608E-02  0.8662452E-01
         -2   -1    0    0    0  501 -0.00000000000E+00  0.00000000000E+00  0.63702427578E+03  0.63702427578E+03  0.00000000000E+00 0.  1.
          2   -1    0    0  501    0  0.00000000000E+00 -0.00000000000E+00 -0.13941890571E+04  0.13941890571E+04  0.00000000000E+00 0. -1.
         23    2    1    2    0    0  0.50236216687E+03 -0.42035670666E+03 -0.61287621458E+03  0.90179090681E+03  0.92423361090E+02 0.  0.
        254    2    1    2    0    0 -0.50236216687E+03  0.42035670666E+03 -0.14428856674E+03  0.11294224261E+04  0.90868493906E+03 0.  0.
         23    2    4    4    0    0 -0.80051560746E+02  0.50602832634E+03 -0.36694554219E+03  0.63626630177E+03  0.87822869482E+02 0.  0.
         23    2    4    4    0    0 -0.42231060613E+03 -0.85671619680E+02  0.22265697544E+03  0.49315612429E+03  0.89112062866E+02 0.  0.
          3    1    3    3  502    0  0.48873100349E+03 -0.40570696507E+03 -0.56580076021E+03  0.85063895722E+03  0.00000000000E+00 0. -1.
         -3    1    3    3    0  502  0.13631163384E+02 -0.14649741590E+02 -0.47075454362E+02  0.51151949594E+02  0.00000000000E+00 0.  1.
         13    1    5    5    0    0 -0.33667749179E+02  0.37016129938E+03 -0.22559881375E+03  0.43479619324E+03  0.00000000000E+00 0. -1.
        -13    1    5    5    0    0 -0.46383811568E+02  0.13586702696E+03 -0.14134672844E+03  0.20147010853E+03  0.00000000000E+00 0.  1.
          4    1    6    6  503    0 -0.28042329294E+02  0.76111695496E+01  0.38184374418E+02  0.47982794665E+02  0.00000000000E+00 0. -1.
         -4    1    6    6    0  503 -0.39426827683E+03 -0.93282789230E+02  0.18447260103E+03  0.44517332963E+03  0.00000000000E+00 0.  1.
<mgrwt>
<rscale>  0 0.18848154E+04</rscale>
<asrwt>0</asrwt>
<pdfrwt beam="1">  1        2 0.21449062E+00 0.18848154E+04</pdfrwt>
<pdfrwt beam="2">  1       -2 0.98003735E-01 0.18848154E+04</pdfrwt>
<totfact> 0.11847257E+01</totfact>
</mgrwt>
</event>
<event>
12    3  0.4634846E-008  0.1871561E+04  0.7818608E-02  0.8669143E-01
         -1   -1    0    0    0  501 -0.00000000000E+00  0.00000000000E+00  0.88661436123E+03  0.88661436123E+03  0.00000000000E+00 0.  1.
          1   -1    0    0  501    0  0.00000000000E+00 -0.00000000000E+00 -0.98767332951E+03  0.98767332951E+03  0.00000000000E+00 0. -1.
         23    2    1    2    0    0  0.46814731370E+03 -0.50746001134E+03  0.27818012355E+02  0.69662292785E+03  0.88499103699E+02 0.  0.
        254    2    1    2    0    0 -0.46814731370E+03  0.50746001134E+03 -0.12887698063E+03  0.11776647629E+04  0.94530812288E+03 0.  0.
         23    2    4    4    0    0 -0.10743459973E+03  0.38029692242E+03  0.36532970024E+03  0.54597398402E+03  0.91944868964E+02 0.  0.
         23    2    4    4    0    0 -0.36071271397E+03  0.12716308892E+03 -0.49420668086E+03  0.63169077887E+03  0.92243609546E+02 0.  0.
          2    1    3    3  502    0  0.15552590434E+03 -0.20219889629E+03 -0.25847654643E+02  0.25639969156E+03  0.00000000000E+00 0. -1.
         -2    1    3    3    0  502  0.31262140936E+03 -0.30526111505E+03  0.53665666997E+02  0.44022323629E+03  0.00000000000E+00 0.  1.
         13    1    5    5    0    0 -0.65920393306E+02  0.30431498686E+03  0.32621641033E+03  0.45096591429E+03  0.00000000000E+00 0. -1.
        -13    1    5    5    0    0 -0.41514206428E+02  0.75981935557E+02  0.39113289907E+02  0.95008069730E+02  0.00000000000E+00 0.  1.
          3    1    6    6  503    0 -0.20963343300E+03  0.36696763439E+02 -0.31744715763E+03  0.38218519930E+03  0.00000000000E+00 0. -1.
         -3    1    6    6    0  503 -0.15107928097E+03  0.90466325478E+02 -0.17675952324E+03  0.24950557957E+03  0.00000000000E+00 0.  1.
<mgrwt>
<rscale>  0 0.18715612E+04</rscale>
<asrwt>0</asrwt>
<pdfrwt beam="1">  1        1 0.15194974E+00 0.18715612E+04</pdfrwt>
<pdfrwt beam="2">  1       -1 0.13640221E+00 0.18715612E+04</pdfrwt>
<totfact> 0.65097188E+00</totfact>
</mgrwt>
</event>
<event>
12    3  0.4634846E-008  0.1567274E+04  0.7818608E-02  0.8840909E-01
         -2   -1    0    0    0  501 -0.00000000000E+00  0.00000000000E+00  0.10138153185E+04  0.10138153185E+04  0.00000000000E+00 0.  1.
          2   -1    0    0  501    0  0.00000000000E+00 -0.00000000000E+00 -0.60571880965E+03  0.60571880965E+03  0.00000000000E+00 0. -1.
         23    2    1    2    0    0  0.13080483495E+03 -0.19468975893E+03  0.64436967679E+03  0.69183570514E+03  0.91707990129E+02 0.  0.
        254    2    1    2    0    0 -0.13080483495E+03  0.19468975893E+03 -0.23627316800E+03  0.92769842297E+03  0.86590146494E+03 0.  0.
         23    2    4    4    0    0  0.33471518361E+03  0.20931356569E+03 -0.20143395075E+03  0.45228189137E+03  0.90204488973E+02 0.  0.
         23    2    4    4    0    0 -0.46552001856E+03 -0.14623806758E+02 -0.34839217250E+02  0.47541653159E+03  0.88793941509E+02 0.  0.
          3    1    3    3  502    0  0.11150428232E+03 -0.18302280565E+03  0.47674937123E+03  0.52270499838E+03  0.00000000000E+00 0. -1.
         -3    1    3    3    0  502  0.19300552632E+02 -0.11666953276E+02  0.16762030556E+03  0.16913070676E+03  0.00000000000E+00 0.  1.
         13    1    5    5    0    0  0.21178256837E+03  0.11839632483E+03 -0.75232412409E+02  0.25402649837E+03  0.00000000000E+00 0. -1.
        -13    1    5    5    0    0  0.12293261524E+03  0.90917240861E+02 -0.12620153834E+03  0.19825539300E+03  0.00000000000E+00 0.  1.
          3    1    6    6  503    0 -0.38113999473E+02 -0.23140181861E+02  0.96372604238E+01  0.45618217423E+02  0.00000000000E+00 0.  1.
         -3    1    6    6    0  503 -0.42740601909E+03  0.85163751028E+01 -0.44476477673E+02  0.42979831417E+03  0.00000000000E+00 0. -1.
<mgrwt>
<rscale>  0 0.15672741E+04</rscale>
<asrwt>0</asrwt>
<pdfrwt beam="1">  1        2 0.93187509E-01 0.15672741E+04</pdfrwt>
<pdfrwt beam="2">  1       -2 0.15597159E+00 0.15672741E+04</pdfrwt>
<totfact> 0.12712733E+01</totfact>
</mgrwt>
</event>
<event>
12    3  0.4634846E-008  0.1238400E+04  0.7818608E-02  0.9079893E-01
          1   -1    0    0  501    0  0.00000000000E+00  0.00000000000E+00  0.45272195722E+03  0.45272195722E+03  0.00000000000E+00 0. -1.
         -1   -1    0    0    0  501 -0.00000000000E+00 -0.00000000000E+00 -0.84689688457E+03  0.84689688457E+03  0.00000000000E+00 0.  1.
         23    2    1    2    0    0  0.15906026382E+03 -0.21848447293E+03  0.13287504505E+02  0.28573732422E+03  0.91834787749E+02 0.  0.
        254    2    1    2    0    0 -0.15906026382E+03  0.21848447293E+03 -0.40746243185E+03  0.10138815176E+04  0.88819731246E+03 0.  0.
         23    2    4    4    0    0  0.12853848278E+03 -0.29445927035E+03 -0.15874360815E+03  0.36907079928E+03  0.88234450745E+02 0.  0.
         23    2    4    4    0    0 -0.28759874660E+03  0.51294374328E+03 -0.24871882370E+03  0.64481071830E+03  0.89974920655E+02 0.  0.
          4    1    3    3  502    0  0.16589232547E+03 -0.18034677619E+03  0.84201470103E+00  0.24504271530E+03  0.00000000000E+00 0. -1.
         -4    1    3    3    0  502 -0.68320616536E+01 -0.38137696734E+02  0.12445489804E+02  0.40694608919E+02  0.00000000000E+00 0.  1.
         13    1    5    5    0    0  0.46597492696E+02 -0.66710349411E+02 -0.33528399936E+01  0.81442240761E+02  0.00000000000E+00 0. -1.
        -13    1    5    5    0    0  0.81940990085E+02 -0.22774892094E+03 -0.15539076815E+03  0.28762855852E+03  0.00000000000E+00 0.  1.
          3    1    6    6  503    0  0.32660323389E+01  0.24653162516E+02 -0.20935263752E+02  0.32507393892E+02  0.00000000000E+00 0. -1.
         -3    1    6    6    0  503 -0.29086477894E+03  0.48829058077E+03 -0.22778355995E+03  0.61230332440E+03  0.00000000000E+00 0.  1.
<mgrwt>
<rscale>  0 0.12384003E+04</rscale>
<asrwt>0</asrwt>
<pdfrwt beam="1">  1        1 0.69649532E-01 0.12384003E+04</pdfrwt>
<pdfrwt beam="2">  1       -1 0.13029183E+00 0.12384003E+04</pdfrwt>
<totfact> 0.25284273E+01</totfact>
</mgrwt>
</event>
<event>
12    3  0.4634846E-008  0.3197736E+04  0.7818608E-02  0.8189415E-01
          1   -1    0    0  501    0  0.00000000000E+00  0.00000000000E+00  0.24626918373E+04  0.24626918373E+04  0.00000000000E+00 0. -1.
         -1   -1    0    0    0  501 -0.00000000000E+00 -0.00000000000E+00 -0.10380428136E+04  0.10380428136E+04  0.00000000000E+00 0.  1.
         23    2    1    2    0    0  0.10470916428E+04  0.10325911576E+04  0.66003162302E+03  0.16147160424E+04  0.94977613433E+02 0.  0.
        254    2    1    2    0    0 -0.10470916428E+04 -0.10325911576E+04  0.76461740069E+03  0.18860186085E+04  0.89987833347E+03 0.  0.
         23    2    4    4    0    0 -0.19232408619E+03 -0.80718694054E+03  0.37680766907E+03  0.91605610563E+03  0.92927165562E+02 0.  0.
         23    2    4    4    0    0 -0.85476755662E+03 -0.22540421705E+03  0.38780973163E+03  0.96996250288E+03  0.94848469335E+02 0.  0.
          1    1    3    3  502    0  0.94207599593E+03  0.88539202947E+03  0.57845534658E+03  0.14163462910E+04  0.00000000000E+00 0. -1.
         -1    1    3    3    0  502  0.10501564688E+03  0.14719912811E+03  0.81576276437E+02  0.19836975143E+03  0.00000000000E+00 0.  1.
         13    1    5    5    0    0 -0.18925529711E+03 -0.63135096175E+03  0.29784985772E+03  0.72328150960E+03  0.00000000000E+00 0. -1.
        -13    1    5    5    0    0 -0.30687890725E+01 -0.17583597878E+03  0.78957811342E+02  0.19277459603E+03  0.00000000000E+00 0.  1.
          2    1    6    6  503    0 -0.27711399360E+03 -0.11249928641E+03  0.10515115457E+03  0.31702526745E+03  0.00000000000E+00 0.  1.
         -2    1    6    6    0  503 -0.57765356302E+03 -0.11290493064E+03  0.28265857706E+03  0.65293723543E+03  0.00000000000E+00 0. -1.
<mgrwt>
<rscale>  0 0.31977364E+04</rscale>
<asrwt>0</asrwt>
<pdfrwt beam="1">  1        1 0.37887567E+00 0.31977364E+04</pdfrwt>
<pdfrwt beam="2">  1       -1 0.15969889E+00 0.31977364E+04</pdfrwt>
<totfact> 0.35338865E-01</totfact>
</mgrwt>
</event>
<event>
12    3  0.4634846E-008  0.1522496E+04  0.7818608E-02  0.8869630E-01
         -1   -1    0    0    0  501 -0.00000000000E+00  0.00000000000E+00  0.24349879885E+03  0.24349879885E+03  0.00000000000E+00 0.  1.
          1   -1    0    0  501    0  0.00000000000E+00 -0.00000000000E+00 -0.23798810449E+04  0.23798810449E+04  0.00000000000E+00 0. -1.
         23    2    1    2    0    0  0.36368617445E+03  0.32746679863E+03 -0.55013275459E+03  0.74196530357E+03  0.91456691077E+02 0.  0.
        254    2    1    2    0    0 -0.36368617445E+03 -0.32746679863E+03 -0.15862494914E+04  0.18814145401E+04  0.88545529821E+03 0.  0.
         23    2    4    4    0    0 -0.31030824662E+03  0.59466872007E+02 -0.10270178714E+03  0.34473311445E+03  0.92009490446E+02 0.  0.
         23    2    4    4    0    0 -0.53377927829E+02 -0.38693367064E+03 -0.14835477043E+04  0.15366814257E+04  0.88933371283E+02 0.  0.
          4    1    3    3  502    0  0.70044221410E+02  0.11712763160E+03 -0.14194079830E+03  0.19690674254E+03  0.00000000000E+00 0. -1.
         -4    1    3    3    0  502  0.29364195304E+03  0.21033916703E+03 -0.40819195630E+03  0.54505856103E+03  0.00000000000E+00 0.  1.
         13    1    5    5    0    0 -0.20197399915E+03  0.68932332381E+02 -0.10067462330E+03  0.23596724891E+03  0.00000000000E+00 0. -1.
        -13    1    5    5    0    0 -0.10833424747E+03 -0.94654603746E+01 -0.20271638435E+01  0.10876586555E+03  0.00000000000E+00 0.  1.
          1    1    6    6  503    0 -0.11768662885E+02 -0.32693684339E+03 -0.11842477234E+04  0.12286044405E+04  0.00000000000E+00 0. -1.
         -1    1    6    6    0  503 -0.41609264944E+02 -0.59996827244E+02 -0.29929998091E+03  0.30807698515E+03  0.00000000000E+00 0.  1.
<mgrwt>
<rscale>  0 0.15224956E+04</rscale>
<asrwt>0</asrwt>
<pdfrwt beam="1">  1        1 0.36613551E+00 0.15224956E+04</pdfrwt>
<pdfrwt beam="2">  1       -1 0.37461357E-01 0.15224956E+04</pdfrwt>
<totfact> 0.10892120E+01</totfact>
</mgrwt>
</event>
<event>
12    3  0.4634846E-008  0.2022741E+04  0.7818608E-02  0.8596062E-01
          2   -1    0    0  501    0  0.00000000000E+00  0.00000000000E+00  0.12574722629E+04  0.12574722629E+04  0.00000000000E+00 0. -1.
         -2   -1    0    0    0  501 -0.00000000000E+00 -0.00000000000E+00 -0.81343351125E+03  0.81343351125E+03  0.00000000000E+00 0.  1.
         23    2    1    2    0    0  0.34210052810E+02  0.23657140550E+03 -0.61358246718E+03  0.66659908280E+03  0.10360760368E+03 0.  0.
        254    2    1    2    0    0 -0.34210052810E+02 -0.23657140550E+03  0.10576212188E+04  0.14043066914E+04  0.89240029318E+03 0.  0.
         23    2    4    4    0    0  0.27425909109E+03 -0.41010495302E+03  0.36218665197E+03  0.61886674832E+03  0.91721097759E+02 0.  0.
         23    2    4    4    0    0 -0.30846914390E+03  0.17353354752E+03  0.69543456688E+03  0.78543994306E+03  0.89552009948E+02 0.  0.
          4    1    3    3  502    0 -0.17778653782E+02  0.18902503068E+03 -0.43542546036E+03  0.47501776207E+03  0.00000000000E+00 0.  1.
         -4    1    3    3    0  502  0.51988706591E+02  0.47546374826E+02 -0.17815700682E+03  0.19158132072E+03  0.00000000000E+00 0. -1.
         13    1    5    5    0    0  0.10810787422E+03 -0.22496709928E+03  0.14513092746E+03  0.28872217500E+03  0.00000000000E+00 0.  1.
        -13    1    5    5    0    0  0.16615121687E+03 -0.18513785373E+03  0.21705572450E+03  0.33014457332E+03  0.00000000000E+00 0. -1.
          1    1    6    6  503    0 -0.29563186576E+03  0.18423115304E+03  0.66122461699E+03  0.74736691920E+03  0.00000000000E+00 0. -1.
         -1    1    6    6    0  503 -0.12837278137E+02 -0.10697605524E+02  0.34209949895E+02  0.38073023858E+02  0.00000000000E+00 0.  1.
<mgrwt>
<rscale>  0 0.20227408E+04</rscale>
<asrwt>0</asrwt>
<pdfrwt beam="1">  1        2 0.19345727E+00 0.20227408E+04</pdfrwt>
<pdfrwt beam="2">  1       -2 0.12514362E+00 0.20227408E+04</pdfrwt>
<totfact> 0.77642172E+00</totfact>
</mgrwt>
</event>
<event>
12    3  0.4634846E-008  0.2121738E+04  0.7818608E-02  0.8551727E-01
         -2   -1    0    0    0  501 -0.00000000000E+00  0.00000000000E+00  0.82503527407E+03  0.82503527407E+03  0.00000000000E+00 0.  1.
          2   -1    0    0  501    0  0.00000000000E+00 -0.00000000000E+00 -0.13641154026E+04  0.13641154026E+04  0.00000000000E+00 0. -1.
         23    2    1    2    0    0  0.67674514515E+03 -0.90968316925E+02 -0.80764897235E+03  0.10617195306E+04  0.93232359705E+02 0.  0.
        254    2    1    2    0    0 -0.67674514515E+03  0.90968316925E+02  0.26856884382E+03  0.11274311461E+04  0.85598629614E+03 0.  0.
         23    2    4    4    0    0 -0.49774117308E+03  0.45289524741E+03  0.19019813416E+03  0.70621264842E+03  0.98491593778E+02 0.  0.
         23    2    4    4    0    0 -0.17900397206E+03 -0.36192693048E+03  0.78370709665E+02  0.42121849769E+03  0.90826921333E+02 0.  0.
          3    1    3    3  502    0  0.45335310790E+03 -0.92410716526E+02 -0.49627549042E+03  0.67849697374E+03  0.00000000000E+00 0. -1.
         -3    1    3    3    0  502  0.22339203724E+03  0.14423996007E+01 -0.31137348193E+03  0.38322255684E+03  0.00000000000E+00 0.  1.
         13    1    5    5    0    0 -0.37812650880E+03  0.37448197144E+03  0.18386223686E+03  0.56304682375E+03  0.00000000000E+00 0.  1.
        -13    1    5    5    0    0 -0.11961466428E+03  0.78413275967E+02  0.63358972994E+01  0.14316582467E+03  0.00000000000E+00 0. -1.
          3    1    6    6  503    0 -0.96083933445E+02 -0.26801586160E+03  0.80640762993E+02  0.29591815928E+03  0.00000000000E+00 0. -1.
         -3    1    6    6    0  503 -0.82920038620E+02 -0.93911068882E+02 -0.22700533287E+01  0.12530033841E+03  0.00000000000E+00 0.  1.
<mgrwt>
<rscale>  0 0.21217383E+04</rscale>
<asrwt>0</asrwt>
<pdfrwt beam="1">  1        2 0.20986391E+00 0.21217383E+04</pdfrwt>
<pdfrwt beam="2">  1       -2 0.12692850E+00 0.21217383E+04</pdfrwt>
<totfact> 0.64413901E+00</totfact>
</mgrwt>
</event>
<event>
12    3  0.4634846E-008  0.1381338E+04  0.7818608E-02  0.8967439E-01
         -2   -1    0    0    0  501 -0.00000000000E+00  0.00000000000E+00  0.53899275676E+03  0.53899275676E+03  0.00000000000E+00 0. -1.
          2   -1    0    0  501    0  0.00000000000E+00 -0.00000000000E+00 -0.88502743458E+03  0.88502743458E+03  0.00000000000E+00 0.  1.
         23    2    1    2    0    0 -0.38267059322E+03 -0.19787982108E+01  0.32767949211E+02  0.39203283982E+03  0.78583143506E+02 0.  0.
        254    2    1    2    0    0  0.38267059322E+03  0.19787982108E+01 -0.37880262704E+03  0.10319873515E+04  0.88037819423E+03 0.  0.
         23    2    4    4    0    0 -0.19664966641E+03  0.18526492346E+03 -0.30148222603E+03  0.41288009105E+03  0.81143415065E+02 0.  0.
         23    2    4    4    0    0  0.57932025964E+03 -0.18328612525E+03 -0.77320401009E+02  0.61910726047E+03  0.90053254362E+02 0.  0.
          1    1    3    3  502    0 -0.24449925330E+03  0.35212016796E+02  0.10712478682E+02  0.24725397508E+03  0.00000000000E+00 0. -1.
         -1    1    3    3    0  502 -0.13817133992E+03 -0.37190815007E+02  0.22055470529E+02  0.14477886474E+03  0.00000000000E+00 0.  1.
         13    1    5    5    0    0 -0.19723703000E+03  0.16394616714E+03 -0.29430119724E+03  0.39037672371E+03  0.00000000000E+00 0. -1.
        -13    1    5    5    0    0  0.58736358279E+00  0.21318756320E+02 -0.71810287939E+01  0.22503367338E+02  0.00000000000E+00 0.  1.
          4    1    6    6  503    0  0.15597153988E+03 -0.54243993815E+02  0.18828475728E+02  0.16620482429E+03  0.00000000000E+00 0. -1.
         -4    1    6    6    0  503  0.42334871976E+03 -0.12904213143E+03 -0.96148876738E+02  0.45290243618E+03  0.00000000000E+00 0.  1.
<mgrwt>
<rscale>  0 0.13813376E+04</rscale>
<asrwt>0</asrwt>
<pdfrwt beam="1">  1        2 0.13615807E+00 0.13813376E+04</pdfrwt>
<pdfrwt beam="2">  1       -2 0.82921963E-01 0.13813376E+04</pdfrwt>
<totfact> 0.37303101E+01</totfact>
</mgrwt>
</event>
<event>
12    3  0.4634846E-008  0.1257371E+04  0.7818608E-02  0.9064070E-01
         -2   -1    0    0    0  501 -0.00000000000E+00  0.00000000000E+00  0.11596359800E+03  0.11596359800E+03  0.00000000000E+00 0.  1.
          2   -1    0    0  501    0  0.00000000000E+00 -0.00000000000E+00 -0.34083590351E+04  0.34083590351E+04  0.00000000000E+00 0. -1.
         23    2    1    2    0    0  0.21203227963E+03  0.15752968033E+03 -0.40079289125E+03  0.48844187732E+03  0.90372772750E+02 0.  0.
        254    2    1    2    0    0 -0.21203227963E+03 -0.15752968033E+03 -0.28916025459E+04  0.30358807558E+04  0.88624680106E+03 0.  0.
         23    2    4    4    0    0 -0.12012684711E+03 -0.33537821809E+03 -0.27498472604E+04  0.27741753272E+04  0.86485732934E+02 0.  0.
         23    2    4    4    0    0 -0.91905432528E+02  0.17784853776E+03 -0.14175528551E+03  0.26170542863E+03  0.91205589166E+02 0.  0.
          2    1    3    3  502    0  0.14984555575E+03  0.89135183491E+02 -0.32535835134E+03  0.36912982581E+03  0.00000000000E+00 0. -1.
         -2    1    3    3    0  502  0.62186723884E+02  0.68394496835E+02 -0.75434539903E+02  0.11931205151E+03  0.00000000000E+00 0.  1.
         13    1    5    5    0    0 -0.69556102138E+02 -0.22789940894E+03 -0.21085289665E+04  0.21219497153E+04  0.00000000000E+00 0. -1.
        -13    1    5    5    0    0 -0.50570744968E+02 -0.10747880915E+03 -0.64131829387E+03  0.65222561182E+03  0.00000000000E+00 0.  1.
          3    1    6    6  503    0 -0.10202620712E+03  0.10558474251E+03 -0.89459611436E+02  0.17193169244E+03  0.00000000000E+00 0. -1.
         -3    1    6    6    0  503  0.10120774587E+02  0.72263795254E+02 -0.52295674070E+02  0.89773736188E+02  0.00000000000E+00 0.  1.
<mgrwt>
<rscale>  0 0.12573712E+04</rscale>
<asrwt>0</asrwt>
<pdfrwt beam="1">  1        2 0.52436283E+00 0.12573712E+04</pdfrwt>
<pdfrwt beam="2">  1       -2 0.17840557E-01 0.12573712E+04</pdfrwt>
<totfact> 0.24637804E+01</totfact>
</mgrwt>
</event>
<event>
12    3  0.4634846E-008  0.2405796E+04  0.7818608E-02  0.8437337E-01
          2   -1    0    0  501    0  0.00000000000E+00  0.00000000000E+00  0.35058109076E+04  0.35058109076E+04  0.00000000000E+00 0. -1.
         -2   -1    0    0    0  501 -0.00000000000E+00 -0.00000000000E+00 -0.41273293904E+03  0.41273293904E+03  0.00000000000E+00 0.  1.
         23    2    1    2    0    0 -0.18027526299E+03  0.65761826921E+03  0.25989558478E+04  0.26884537530E+04  0.90835704019E+02 0.  0.
        254    2    1    2    0    0  0.18027526299E+03 -0.65761826921E+03  0.49412212079E+03  0.12300900936E+04  0.89666270676E+03 0.  0.
         23    2    4    4    0    0 -0.84067733349E+02  0.17515423753E+03  0.22705390475E+03  0.31192723309E+03  0.89435632513E+02 0.  0.
         23    2    4    4    0    0  0.26434299634E+03 -0.83277250674E+03  0.26706821603E+03  0.91816286052E+03  0.91161059232E+02 0.  0.
          2    1    3    3  502    0 -0.91303429566E+02  0.44637230730E+03  0.18450624256E+04  0.19004841245E+04  0.00000000000E+00 0. -1.
         -2    1    3    3    0  502 -0.88971833424E+02  0.21124596191E+03  0.75389342215E+03  0.78796962855E+03  0.00000000000E+00 0.  1.
         13    1    5    5    0    0 -0.79921753485E+02  0.18120164106E+03  0.23044181978E+03  0.30385021590E+03  0.00000000000E+00 0.  1.
        -13    1    5    5    0    0 -0.41459798640E+01 -0.60474035246E+01 -0.33879150239E+01  0.80770171865E+01  0.00000000000E+00 0. -1.
          3    1    6    6  503    0  0.26023785022E+02 -0.19856694006E+03  0.45735608025E+02  0.20542106249E+03  0.00000000000E+00 0. -1.
         -3    1    6    6    0  503  0.23831921132E+03 -0.63420556668E+03  0.22133260801E+03  0.71274179803E+03  0.00000000000E+00 0.  1.
<mgrwt>
<rscale>  0 0.24057960E+04</rscale>
<asrwt>0</asrwt>
<pdfrwt beam="1">  1        2 0.53935550E+00 0.24057960E+04</pdfrwt>
<pdfrwt beam="2">  1       -2 0.63497378E-01 0.24057960E+04</pdfrwt>
<totfact> 0.16649782E+00</totfact>
</mgrwt>
</event>
<event>
12    3  0.4634846E-008  0.1187596E+04  0.7818608E-02  0.9123783E-01
         -2   -1    0    0    0  501 -0.00000000000E+00  0.00000000000E+00  0.40754174416E+03  0.40754174416E+03  0.00000000000E+00 0.  1.
          2   -1    0    0  501    0  0.00000000000E+00 -0.00000000000E+00 -0.86517800231E+03  0.86517800231E+03  0.00000000000E+00 0. -1.
         23    2    1    2    0    0 -0.62645544874E+02  0.21053041899E+03  0.59301522170E+02  0.24535178522E+03  0.91833035274E+02 0.  0.
        254    2    1    2    0    0  0.62645544874E+02 -0.21053041899E+03 -0.51693778031E+03  0.10273679613E+04  0.86023993018E+03 0.  0.
         23    2    4    4    0    0 -0.39991274756E+02 -0.42721154668E+03  0.12601511208E+02  0.43873150622E+03  0.90650586308E+02 0.  0.
         23    2    4    4    0    0  0.10263681963E+03  0.21668112769E+03 -0.52953929152E+03  0.58863645503E+03  0.92714546238E+02 0.  0.
          1    1    3    3  502    0 -0.12532754886E+02 -0.35542333818E+01 -0.81501527348E+01  0.15366441018E+02  0.00000000000E+00 0. -1.
         -1    1    3    3    0  502 -0.50112789989E+02  0.21408465237E+03  0.67451674904E+02  0.22998534420E+03  0.00000000000E+00 0.  1.
         13    1    5    5    0    0 -0.69386657763E+02 -0.28448186260E+03  0.75626408271E+01  0.29291915602E+03  0.00000000000E+00 0. -1.
        -13    1    5    5    0    0  0.29395383007E+02 -0.14272968408E+03  0.50388703810E+01  0.14581235021E+03  0.00000000000E+00 0.  1.
          4    1    6    6  503    0  0.11253220895E+03  0.20897061961E+03 -0.45635896626E+03  0.51438868961E+03  0.00000000000E+00 0. -1.
         -4    1    6    6    0  503 -0.98953893227E+01  0.77105080819E+01 -0.73180325259E+02  0.74247765419E+02  0.00000000000E+00 0.  1.
<mgrwt>
<rscale>  0 0.11875961E+04</rscale>
<asrwt>0</asrwt>
<pdfrwt beam="1">  1        2 0.13310431E+00 0.11875961E+04</pdfrwt>
<pdfrwt beam="2">  1       -2 0.62698731E-01 0.11875961E+04</pdfrwt>
<totfact> 0.72171888E+01</totfact>
</mgrwt>
</event>
<event>
12    3  0.4634846E-008  0.1517762E+04  0.7818608E-02  0.8872727E-01
         -2   -1    0    0    0  501 -0.00000000000E+00  0.00000000000E+00  0.45156697642E+03  0.45156697642E+03  0.00000000000E+00 0.  1.
          2   -1    0    0  501    0  0.00000000000E+00 -0.00000000000E+00 -0.12753375289E+04  0.12753375289E+04  0.00000000000E+00 0. -1.
         23    2    1    2    0    0  0.27232547406E+03 -0.53045598265E+02 -0.72629088202E+03  0.78297145546E+03  0.92578914647E+02 0.  0.
        254    2    1    2    0    0 -0.27232547406E+03  0.53045598265E+02 -0.97479670486E+02  0.94393304988E+03  0.89695725494E+03 0.  0.
         23    2    4    4    0    0  0.63412401997E+02 -0.31518251026E+03  0.16390168231E+03  0.37197894528E+03  0.90240937297E+02 0.  0.
         23    2    4    4    0    0 -0.33573787606E+03  0.36822810853E+03 -0.26138135279E+03  0.57195410461E+03  0.10246670123E+03 0.  0.
          1    1    3    3  502    0  0.21537970827E+03 -0.76316339013E+01 -0.59502137150E+03  0.63284839662E+03  0.00000000000E+00 0. -1.
         -1    1    3    3    0  502  0.56945765790E+02 -0.45413964364E+02 -0.13126951053E+03  0.15012305884E+03  0.00000000000E+00 0.  1.
         13    1    5    5    0    0  0.42646548276E+02 -0.22325313280E+03  0.15942425953E+03  0.27762705904E+03  0.00000000000E+00 0. -1.
        -13    1    5    5    0    0  0.20765853721E+02 -0.91929377464E+02  0.44774227740E+01  0.94351886236E+02  0.00000000000E+00 0.  1.
          1    1    6    6  503    0 -0.14926082671E+03  0.15872469864E+03 -0.57901629536E+02  0.22544383569E+03  0.00000000000E+00 0.  1.
         -1    1    6    6    0  503 -0.18647704935E+03  0.20950340988E+03 -0.20347972325E+03  0.34651026892E+03  0.00000000000E+00 0. -1.
<mgrwt>
<rscale>  0 0.15177619E+04</rscale>
<asrwt>0</asrwt>
<pdfrwt beam="1">  1        2 0.19620578E+00 0.15177619E+04</pdfrwt>
<pdfrwt beam="2">  1       -2 0.69471842E-01 0.15177619E+04</pdfrwt>
<totfact> 0.31167196E+01</totfact>
</mgrwt>
</event>
<event>
12    3  0.4634846E-008  0.1068911E+04  0.7818608E-02  0.9236035E-01
         -1   -1    0    0    0  501 -0.00000000000E+00  0.00000000000E+00  0.94218356329E+03  0.94218356329E+03  0.00000000000E+00 0.  1.
          1   -1    0    0  501    0  0.00000000000E+00 -0.00000000000E+00 -0.30317071923E+03  0.30317071923E+03  0.00000000000E+00 0. -1.
         23    2    1    2    0    0 -0.62921999109E+02 -0.87123383021E+02  0.16537946451E+03  0.21864410724E+03  0.94367454726E+02 0.  0.
        254    2    1    2    0    0  0.62921999109E+02  0.87123383021E+02  0.47363337955E+03  0.10267101753E+04  0.90457478626E+03 0.  0.
         23    2    4    4    0    0 -0.29767504004E+03 -0.95097050938E+02 -0.78225744867E+02  0.33669748224E+03  0.97939005650E+02 0.  0.
         23    2    4    4    0    0  0.36059703915E+03  0.18222043396E+03  0.55185912442E+03  0.69001269302E+03  0.91293549246E+02 0.  0.
          3    1    3    3  502    0 -0.21801837887E+02 -0.12201964987E+02 -0.72522662101E+01  0.26015446373E+02  0.00000000000E+00 0. -1.
         -3    1    3    3    0  502 -0.41120161222E+02 -0.74921418034E+02  0.17263173072E+03  0.19262866087E+03  0.00000000000E+00 0.  1.
         13    1    5    5    0    0 -0.19363980614E+03 -0.29197083845E+02 -0.84734493491E+02  0.21337473753E+03  0.00000000000E+00 0.  1.
        -13    1    5    5    0    0 -0.10403523390E+03 -0.65899967093E+02  0.65087486243E+01  0.12332274471E+03  0.00000000000E+00 0. -1.
          2    1    6    6  503    0  0.23151522248E+03  0.16159807306E+03  0.35269100391E+03  0.45177890576E+03  0.00000000000E+00 0.  1.
         -2    1    6    6    0  503  0.12908181668E+03  0.20622360899E+02  0.19916812051E+03  0.23823378726E+03  0.00000000000E+00 0. -1.
<mgrwt>
<rscale>  0 0.10689106E+04</rscale>
<asrwt>0</asrwt>
<pdfrwt beam="1">  1        1 0.46641650E-01 0.10689106E+04</pdfrwt>
<pdfrwt beam="2">  1       -1 0.14495132E+00 0.10689106E+04</pdfrwt>
<totfact> 0.33025738E+01</totfact>
</mgrwt>
</event>
<event>
12    3  0.4634846E-008  0.1461808E+04  0.7818608E-02  0.8910255E-01
         -1   -1    0    0    0  501 -0.00000000000E+00  0.00000000000E+00  0.81999691907E+03  0.81999691907E+03  0.00000000000E+00 0.  1.
          1   -1    0    0  501    0  0.00000000000E+00 -0.00000000000E+00 -0.65149069104E+03  0.65149069104E+03  0.00000000000E+00 0. -1.
         23    2    1    2    0    0 -0.11575449891E+03  0.22189736781E+03 -0.32142214491E+03  0.41699368862E+03  0.89072977118E+02 0.  0.
        254    2    1    2    0    0  0.11575449891E+03 -0.22189736781E+03  0.48992837294E+03  0.10544939215E+04  0.89960551021E+03 0.  0.
         23    2    4    4    0    0 -0.41001941049E+02 -0.40490997811E+03 -0.84070813487E+02  0.42513084639E+03  0.89638637492E+02 0.  0.
         23    2    4    4    0    0  0.15675643996E+03  0.18301261030E+03  0.57399918643E+03  0.62936307510E+03  0.92501985313E+02 0.  0.
          1    1    3    3  502    0 -0.67384398997E+02  0.19443677876E+03 -0.21946034486E+03  0.30084740505E+03  0.00000000000E+00 0. -1.
         -1    1    3    3    0  502 -0.48370099918E+02  0.27460589048E+02 -0.10196180005E+03  0.11614628356E+03  0.00000000000E+00 0.  1.
         13    1    5    5    0    0  0.18977823679E+02 -0.24675270376E+03 -0.54624802971E+02  0.25343820490E+03  0.00000000000E+00 0. -1.
        -13    1    5    5    0    0 -0.59979764728E+02 -0.15815727435E+03 -0.29446010516E+02  0.17169264149E+03  0.00000000000E+00 0.  1.
          1    1    6    6  503    0  0.15403147680E+03  0.18494464437E+03  0.57680070039E+03  0.62500341223E+03  0.00000000000E+00 0. -1.
         -1    1    6    6    0  503  0.27249631661E+01 -0.19320340699E+01 -0.28015139638E+01  0.43596628761E+01  0.00000000000E+00 0.  1.
<mgrwt>
<rscale>  0 0.14618076E+04</rscale>
<asrwt>0</asrwt>
<pdfrwt beam="1">  1        1 0.10022934E+00 0.14618076E+04</pdfrwt>
<pdfrwt beam="2">  1       -1 0.12615337E+00 0.14618076E+04</pdfrwt>
<totfact> 0.16113334E+01</totfact>
</mgrwt>
</event>
<event>
12    3  0.4634846E-008  0.3301489E+04  0.7818608E-02  0.8162517E-01
         -1   -1    0    0    0  501 -0.00000000000E+00  0.00000000000E+00  0.13485990938E+04  0.13485990938E+04  0.00000000000E+00 0.  1.
          1   -1    0    0  501    0  0.00000000000E+00 -0.00000000000E+00 -0.20205842003E+04  0.20205842003E+04  0.00000000000E+00 0. -1.
         23    2    1    2    0    0 -0.79437034268E+03 -0.11929057746E+04 -0.83667873472E+03  0.16643500716E+04  0.12641767061E+03 0.  0.
        254    2    1    2    0    0  0.79437034268E+03  0.11929057746E+04  0.16469362819E+03  0.17048332225E+04  0.90845137294E+03 0.  0.
         23    2    4    4    0    0  0.47704170247E+03  0.10011200414E+04  0.47657313683E+03  0.12104020154E+04  0.90227274199E+02 0.  0.
         23    2    4    4    0    0  0.31732864021E+03  0.19178573319E+03 -0.31187950864E+03  0.49443120708E+03  0.98560424454E+02 0.  0.
          2    1    3    3  502    0 -0.70024680467E+03 -0.11036876658E+04 -0.78533241873E+03  0.15248668988E+04  0.00000000000E+00 0. -1.
         -2    1    3    3    0  502 -0.94123538006E+02 -0.89218108766E+02 -0.51346315989E+02  0.13948317284E+03  0.00000000000E+00 0.  1.
         13    1    5    5    0    0  0.35276056382E+03  0.68997110140E+03  0.29383735807E+03  0.82875842630E+03  0.00000000000E+00 0. -1.
        -13    1    5    5    0    0  0.12428113865E+03  0.31114894002E+03  0.18273577876E+03  0.38164358914E+03  0.00000000000E+00 0.  1.
          1    1    6    6  503    0  0.19515732423E+03  0.82619866229E+02 -0.22458040149E+03  0.30878597803E+03  0.00000000000E+00 0. -1.
         -1    1    6    6    0  503  0.12217131597E+03  0.10916586696E+03 -0.87299107156E+02  0.18564522904E+03  0.00000000000E+00 0.  1.
<mgrwt>
<rscale>  0 0.33014894E+04</rscale>
<asrwt>0</asrwt>
<pdfrwt beam="1">  1        1 0.31085911E+00 0.33014894E+04</pdfrwt>
<pdfrwt beam="2">  1       -1 0.20747679E+00 0.33014894E+04</pdfrwt>
<totfact> 0.32015110E-01</totfact>
</mgrwt>
</event>
<event>
12    3  0.4634846E-008  0.2356398E+04  0.7818608E-02  0.8456010E-01
          2   -1    0    0  501    0  0.00000000000E+00  0.00000000000E+00  0.20759714856E+04  0.20759714856E+04  0.00000000000E+00 0. -1.
         -2   -1    0    0    0  501 -0.00000000000E+00 -0.00000000000E+00 -0.66867614309E+03  0.66867614309E+03  0.00000000000E+00 0.  1.
         23    2    1    2    0    0 -0.31230462984E+03 -0.65192938134E+03 -0.20541545370E+03  0.75695023247E+03  0.90730621834E+02 0.  0.
        254    2    1    2    0    0  0.31230462984E+03  0.65192938134E+03  0.16127107962E+04  0.19876973962E+04  0.90970254846E+03 0.  0.
         23    2    4    4    0    0 -0.27420778519E+03  0.39749764613E+03  0.49576540079E+03  0.69755493500E+03  0.87208179556E+02 0.  0.
         23    2    4    4    0    0  0.58651241504E+03  0.25443173521E+03  0.11169453954E+04  0.12901424612E+04  0.90378277519E+02 0.  0.
          4    1    3    3  502    0 -0.23869546849E+02 -0.36182786479E+02  0.84340669814E+01  0.44159741734E+02  0.00000000000E+00 0. -1.
         -4    1    3    3    0  502 -0.28843508299E+03 -0.61574659486E+03 -0.21384952068E+03  0.71279049073E+03  0.00000000000E+00 0.  1.
         13    1    5    5    0    0 -0.24243667577E+03  0.36101580472E+03  0.47750223739E+03  0.64584544569E+03  0.00000000000E+00 0. -1.
        -13    1    5    5    0    0 -0.31771109425E+02  0.36481841414E+02  0.18263163409E+02  0.51709489310E+02  0.00000000000E+00 0.  1.
          1    1    6    6  503    0  0.17204919686E+03  0.11518083024E+03  0.39951765839E+03  0.44997989862E+03  0.00000000000E+00 0.  1.
         -1    1    6    6    0  503  0.41446321817E+03  0.13925090497E+03  0.71742773701E+03  0.84016256259E+03  0.00000000000E+00 0. -1.
<mgrwt>
<rscale>  0 0.23563978E+04</rscale>
<asrwt>0</asrwt>
<pdfrwt beam="1">  1        2 0.31938023E+00 0.23563978E+04</pdfrwt>
<pdfrwt beam="2">  1       -2 0.10287325E+00 0.23563978E+04</pdfrwt>
<totfact> 0.42221139E+00</totfact>
</mgrwt>
</event>
<event>
12    3  0.4634846E-008  0.1239342E+04  0.7818608E-02  0.9079101E-01
          2   -1    0    0  501    0  0.00000000000E+00  0.00000000000E+00  0.17561813448E+04  0.17561813448E+04  0.00000000000E+00 0. -1.
         -2   -1    0    0    0  501 -0.00000000000E+00 -0.00000000000E+00 -0.21865168568E+03  0.21865168568E+03  0.00000000000E+00 0.  1.
         23    2    1    2    0    0  0.43540745305E+02 -0.71223018074E+02  0.81471223634E+03  0.82417723611E+03  0.92431453907E+02 0.  0.
        254    2    1    2    0    0 -0.43540745305E+02  0.71223018074E+02  0.72281742275E+03  0.11506557943E+04  0.89138948592E+03 0.  0.
         23    2    4    4    0    0  0.35592860240E+03 -0.57108218231E+02  0.85288521537E+02  0.38197200479E+03  0.93177046206E+02 0.  0.
         23    2    4    4    0    0 -0.39946934770E+03  0.12833123630E+03  0.63752890122E+03  0.76868378955E+03  0.91580579102E+02 0.  0.
          4    1    3    3  502    0  0.24521104106E+02 -0.54525753779E+02  0.77354849051E+03  0.77585540505E+03  0.00000000000E+00 0. -1.
         -4    1    3    3    0  502  0.19019641198E+02 -0.16697264295E+02  0.41163745830E+02  0.48321831060E+02  0.00000000000E+00 0.  1.
         13    1    5    5    0    0  0.34532293695E+03 -0.39834731256E+02  0.93709995068E+02  0.36002263786E+03  0.00000000000E+00 0. -1.
        -13    1    5    5    0    0  0.10605665448E+02 -0.17273486975E+02 -0.84214735314E+01  0.21949366923E+02  0.00000000000E+00 0.  1.
          1    1    6    6  503    0 -0.29929826052E+03  0.13601273405E+03  0.49891748979E+03  0.59749273986E+03  0.00000000000E+00 0. -1.
         -1    1    6    6    0  503 -0.10017108719E+03 -0.76814977448E+01  0.13861141143E+03  0.17119104969E+03  0.00000000000E+00 0.  1.
<mgrwt>
<rscale>  0 0.12393418E+04</rscale>
<asrwt>0</asrwt>
<pdfrwt beam="1">  1        2 0.27018174E+00 0.12393418E+04</pdfrwt>
<pdfrwt beam="2">  1       -2 0.33638722E-01 0.12393418E+04</pdfrwt>
<totfact> 0.74223600E+01</totfact>
</mgrwt>
</event>
<event>
12    3  0.4634846E-008  0.1409291E+04  0.7818608E-02  0.8947120E-01
          2   -1    0    0  501    0  0.00000000000E+00  0.00000000000E+00  0.67110146661E+03  0.67110146661E+03  0.00000000000E+00 0. -1.
         -2   -1    0    0    0  501 -0.00000000000E+00 -0.00000000000E+00 -0.73986657497E+03  0.73986657497E+03  0.00000000000E+00 0.  1.
         23    2    1    2    0    0  0.21013890981E+03  0.13565510814E+03  0.29994382731E+03  0.40051965993E+03  0.88820204172E+02 0.  0.
        254    2    1    2    0    0 -0.21013890981E+03 -0.13565510814E+03 -0.36870893566E+03  0.10104483817E+04  0.90691729665E+03 0.  0.
         23    2    4    4    0    0 -0.12251548096E+03  0.24220810381E+03 -0.51238018386E+03  0.58679067698E+03  0.90083501003E+02 0.  0.
         23    2    4    4    0    0 -0.87623428851E+02 -0.37786321195E+03  0.14367124819E+03  0.42365770468E+03  0.91574837949E+02 0.  0.
          1    1    3    3  502    0  0.69970296731E+02  0.18523672920E+02  0.14052748071E+03  0.15807258370E+03  0.00000000000E+00 0. -1.
         -1    1    3    3    0  502  0.14016861308E+03  0.11713143522E+03  0.15941634660E+03  0.24244707623E+03  0.00000000000E+00 0.  1.
         13    1    5    5    0    0 -0.11087891882E+03  0.13332741698E+03 -0.35468258287E+03  0.39480383654E+03  0.00000000000E+00 0. -1.
        -13    1    5    5    0    0 -0.11636562131E+02  0.10888068683E+03 -0.15769760099E+03  0.19198684043E+03  0.00000000000E+00 0.  1.
          2    1    6    6  503    0 -0.59792136945E+02 -0.32824218069E+03  0.90295584429E+02  0.34564623735E+03  0.00000000000E+00 0. -1.
         -2    1    6    6    0  503 -0.27831291906E+02 -0.49621031256E+02  0.53375663764E+02  0.78011467326E+02  0.00000000000E+00 0.  1.
<mgrwt>
<rscale>  0 0.14092914E+04</rscale>
<asrwt>0</asrwt>
<pdfrwt beam="1">  1        2 0.10324638E+00 0.14092914E+04</pdfrwt>
<pdfrwt beam="2">  1       -2 0.11382563E+00 0.14092914E+04</pdfrwt>
<totfact> 0.25409352E+01</totfact>
</mgrwt>
</event>
<event>
12    3  0.4634846E-008  0.1137504E+04  0.7818608E-02  0.9169390E-01
          1   -1    0    0  501    0  0.00000000000E+00  0.00000000000E+00  0.48527097352E+03  0.48527097352E+03  0.00000000000E+00 0. -1.
         -1   -1    0    0    0  501 -0.00000000000E+00 -0.00000000000E+00 -0.66659440454E+03  0.66659440454E+03  0.00000000000E+00 0.  1.
         23    2    1    2    0    0  0.16336894230E+03  0.52995195371E+02  0.46060246082E+02  0.19876961566E+03  0.88825175487E+02 0.  0.
        254    2    1    2    0    0 -0.16336894230E+03 -0.52995195371E+02 -0.22738367710E+03  0.95309576240E+03  0.90950002400E+03 0.  0.
         23    2    4    4    0    0  0.25584009642E+03  0.20279131978E+03  0.10328571089E+03  0.35401681929E+03  0.89897140943E+02 0.  0.
         23    2    4    4    0    0 -0.41920903872E+03 -0.25578651515E+03 -0.33066938800E+03  0.59907894311E+03  0.91598998046E+02 0.  0.
          1    1    3    3  502    0  0.36420871852E+02  0.11730875223E+02  0.52691281975E+02  0.65118849315E+02  0.00000000000E+00 0. -1.
         -1    1    3    3    0  502  0.12694807045E+03  0.41264320149E+02 -0.66310358930E+01  0.13365076635E+03  0.00000000000E+00 0.  1.
         13    1    5    5    0    0  0.23857011494E+03  0.16203528345E+03  0.65314447519E+02  0.29569766634E+03  0.00000000000E+00 0. -1.
        -13    1    5    5    0    0  0.17269981474E+02  0.40756036336E+02  0.37971263375E+02  0.58319152945E+02  0.00000000000E+00 0.  1.
          4    1    6    6  503    0 -0.68617633909E+02 -0.75921748290E+02 -0.96801014438E+02  0.14086492801E+03  0.00000000000E+00 0. -1.
         -4    1    6    6    0  503 -0.35059140481E+03 -0.17986476687E+03 -0.23386837356E+03  0.45821401510E+03  0.00000000000E+00 0.  1.
<mgrwt>
<rscale>  0 0.11375041E+04</rscale>
<asrwt>0</asrwt>
<pdfrwt beam="1">  1        1 0.74657073E-01 0.11375041E+04</pdfrwt>
<pdfrwt beam="2">  1       -1 0.10255299E+00 0.11375041E+04</pdfrwt>
<totfact> 0.41312606E+01</totfact>
</mgrwt>
</event>
<event>
12    3  0.4634846E-008  0.1308696E+04  0.7818608E-02  0.9022698E-01
          1   -1    0    0  501    0  0.00000000000E+00  0.00000000000E+00  0.15329222389E+04  0.15329222389E+04  0.00000000000E+00 0. -1.
         -1   -1    0    0    0  501 -0.00000000000E+00 -0.00000000000E+00 -0.27931688506E+03  0.27931688506E+03  0.00000000000E+00 0.  1.
         23    2    1    2    0    0 -0.58555344812E+02 -0.35588546282E+02  0.79866134025E+03  0.80699574625E+03  0.93203674976E+02 0.  0.
        254    2    1    2    0    0  0.58555344812E+02  0.35588546282E+02  0.45494401362E+03  0.10052433777E+04  0.89378124836E+03 0.  0.
         23    2    4    4    0    0  0.33592667435E+03 -0.29471075523E+02 -0.10984354140E+03  0.36611537067E+03  0.90882265689E+02 0.  0.
         23    2    4    4    0    0 -0.27737132954E+03  0.65059621806E+02  0.56478755502E+03  0.63912800707E+03  0.91279889756E+02 0.  0.
          1    1    3    3  502    0 -0.43318110098E+02 -0.49759793836E+02  0.76192103936E+03  0.76477196991E+03  0.00000000000E+00 0. -1.
         -1    1    3    3    0  502 -0.15237234714E+02  0.14171247554E+02  0.36740300888E+02  0.42223776338E+02  0.00000000000E+00 0.  1.
         13    1    5    5    0    0  0.82278621110E+02 -0.46959762338E+02 -0.36166501781E+02  0.10140516072E+03  0.00000000000E+00 0. -1.
        -13    1    5    5    0    0  0.25364805324E+03  0.17488686814E+02 -0.73677039623E+02  0.26471020994E+03  0.00000000000E+00 0.  1.
          3    1    6    6  503    0 -0.12861635124E+03  0.76972781073E+02  0.27755014770E+03  0.31543788504E+03  0.00000000000E+00 0. -1.
         -3    1    6    6    0  503 -0.14875497830E+03 -0.11913159267E+02  0.28723740732E+03  0.32369012203E+03  0.00000000000E+00 0.  1.
<mgrwt>
<rscale>  0 0.13086956E+04</rscale>
<asrwt>0</asrwt>
<pdfrwt beam="1">  1        1 0.23583419E+00 0.13086956E+04</pdfrwt>
<pdfrwt beam="2">  1       -1 0.42971829E-01 0.13086956E+04</pdfrwt>
<totfact> 0.32522032E+01</totfact>
</mgrwt>
</event>
<event>
12    3  0.4634846E-008  0.1161235E+04  0.7818608E-02  0.9147481E-01
         -1   -1    0    0    0  501 -0.00000000000E+00  0.00000000000E+00  0.26203327257E+03  0.26203327257E+03  0.00000000000E+00 0.  1.
          1   -1    0    0  501    0  0.00000000000E+00 -0.00000000000E+00 -0.12865407930E+04  0.12865407930E+04  0.00000000000E+00 0. -1.
         23    2    1    2    0    0 -0.10653784628E+03  0.11948084282E+03 -0.38830344304E+03  0.42963053769E+03  0.90425939585E+02 0.  0.
        254    2    1    2    0    0  0.10653784628E+03 -0.11948084282E+03 -0.63620407735E+03  0.11189435278E+04  0.90645077414E+03 0.  0.
         23    2    4    4    0    0  0.55469797313E+02  0.15895541089E+03 -0.76917080697E+03  0.79286698155E+03  0.93116051682E+02 0.  0.
         23    2    4    4    0    0  0.51068048972E+02 -0.27843625371E+03  0.13296672962E+03  0.32607654628E+03  0.92255459692E+02 0.  0.
          3    1    3    3  502    0 -0.75766130102E+02  0.11714744295E+03 -0.36561125178E+03  0.39132546211E+03  0.00000000000E+00 0. -1.
         -3    1    3    3    0  502 -0.30771716182E+02  0.23333998706E+01 -0.22692191252E+02  0.38305075584E+02  0.00000000000E+00 0.  1.
         13    1    5    5    0    0 -0.55572952666E+01  0.44644451339E+02 -0.81489797300E+02  0.93083820453E+02  0.00000000000E+00 0.  1.
        -13    1    5    5    0    0  0.61027092579E+02  0.11431095955E+03 -0.68768100967E+03  0.69978316110E+03  0.00000000000E+00 0. -1.
          1    1    6    6  503    0  0.40302390065E+02 -0.27628427729E+03  0.10902827112E+03  0.29974063526E+03  0.00000000000E+00 0. -1.
         -1    1    6    6    0  503  0.10765658907E+02 -0.21519764218E+01  0.23938458494E+02  0.26335911020E+02  0.00000000000E+00 0.  1.
<mgrwt>
<rscale>  0 0.11612347E+04</rscale>
<asrwt>0</asrwt>
<pdfrwt beam="1">  1        1 0.19792935E+00 0.11612347E+04</pdfrwt>
<pdfrwt beam="2">  1       -1 0.40312811E-01 0.11612347E+04</pdfrwt>
<totfact> 0.55083955E+01</totfact>
</mgrwt>
</event>
<event>
12    3  0.4634846E-008  0.1304806E+04  0.7818608E-02  0.9025763E-01
          2   -1    0    0  501    0  0.00000000000E+00  0.00000000000E+00  0.20461063407E+04  0.20461063407E+04  0.00000000000E+00 0. -1.
         -2   -1    0    0    0  501 -0.00000000000E+00 -0.00000000000E+00 -0.20801934476E+03  0.20801934476E+03  0.00000000000E+00 0.  1.
         23    2    1    2    0    0 -0.55241143464E+02  0.26221178496E+03  0.81349905094E+03  0.86268140781E+03  0.10311111191E+03 0.  0.
        254    2    1    2    0    0  0.55241143464E+02 -0.26221178496E+03  0.10245879451E+04  0.13914442777E+04  0.90251322245E+03 0.  0.
         23    2    4    4    0    0 -0.28342470793E+03  0.14952655628E+03  0.66296245899E+03  0.74111896268E+03  0.83966295056E+02 0.  0.
         23    2    4    4    0    0  0.33866585140E+03 -0.41173834125E+03  0.36162548606E+03  0.65032531502E+03  0.89033716295E+02 0.  0.
          2    1    3    3  502    0 -0.10176208141E+02  0.20218538702E+03  0.68038259476E+03  0.70986122671E+03  0.00000000000E+00 0. -1.
         -2    1    3    3    0  502 -0.45064935323E+02  0.60026397941E+02  0.13311645618E+03  0.15282018110E+03  0.00000000000E+00 0.  1.
         13    1    5    5    0    0 -0.60550594316E+02  0.49430405614E+02  0.24295669228E+03  0.25522087257E+03  0.00000000000E+00 0.  1.
        -13    1    5    5    0    0 -0.22287411362E+03  0.10009615067E+03  0.42000576672E+03  0.48589809011E+03  0.00000000000E+00 0. -1.
          3    1    6    6  503    0  0.31245613450E+03 -0.40230660086E+03  0.35712865340E+03  0.62210956605E+03  0.00000000000E+00 0. -1.
         -3    1    6    6    0  503  0.26209716894E+02 -0.94317403821E+01  0.44968326586E+01  0.28215748976E+02  0.00000000000E+00 0.  1.
<mgrwt>
<rscale>  0 0.13048060E+04</rscale>
<asrwt>0</asrwt>
<pdfrwt beam="1">  1        2 0.31478558E+00 0.13048060E+04</pdfrwt>
<pdfrwt beam="2">  1       -2 0.32002978E-01 0.13048060E+04</pdfrwt>
<totfact> 0.56106921E+01</totfact>
</mgrwt>
</event>
<event>
12    3  0.4634846E-008  0.2237771E+04  0.7818608E-02  0.8502869E-01
         -2   -1    0    0    0  501 -0.00000000000E+00  0.00000000000E+00  0.37993105406E+03  0.37993105406E+03  0.00000000000E+00 0.  1.
          2   -1    0    0  501    0  0.00000000000E+00 -0.00000000000E+00 -0.32950846810E+04  0.32950846810E+04  0.00000000000E+00 0. -1.
         23    2    1    2    0    0 -0.82890775270E+03  0.33363002256E+03 -0.77514181029E+03  0.11864929250E+04  0.92323239526E+02 0.  0.
        254    2    1    2    0    0  0.82890775270E+03 -0.33363002256E+03 -0.21400118166E+04  0.24885228101E+04  0.90260630753E+03 0.  0.
         23    2    4    4    0    0  0.10410828613E+03 -0.34162073635E+03 -0.20909801869E+03  0.42400298856E+03  0.92267492335E+02 0.  0.
         23    2    4    4    0    0  0.72479946657E+03  0.79907137870E+01 -0.19309137980E+04  0.20645198215E+04  0.91738105540E+02 0.  0.
          3    1    3    3  502    0 -0.23905363146E+02  0.27462389108E+02 -0.40649756462E+02  0.54571530152E+02  0.00000000000E+00 0. -1.
         -3    1    3    3    0  502 -0.80500238956E+03  0.30616763345E+03 -0.73449205382E+03  0.11319213948E+04  0.00000000000E+00 0.  1.
         13    1    5    5    0    0  0.95419814631E+02 -0.28704568469E+03 -0.21083045709E+03  0.36871350363E+03  0.00000000000E+00 0. -1.
        -13    1    5    5    0    0  0.86884715023E+01 -0.54575051657E+02  0.17324384032E+01  0.55289484925E+02  0.00000000000E+00 0.  1.
          2    1    6    6  503    0  0.52283397561E+03  0.42674580508E+02 -0.14388225599E+04  0.15314655872E+04  0.00000000000E+00 0. -1.
         -2    1    6    6    0  503  0.20196549096E+03 -0.34683866721E+02 -0.49209123803E+03  0.53305423429E+03  0.00000000000E+00 0.  1.
<mgrwt>
<rscale>  0 0.22377712E+04</rscale>
<asrwt>0</asrwt>
<pdfrwt beam="1">  1        2 0.50693610E+00 0.22377712E+04</pdfrwt>
<pdfrwt beam="2">  1       -2 0.58450931E-01 0.22377712E+04</pdfrwt>
<totfact> 0.28050934E+00</totfact>
</mgrwt>
</event>
<event>
12    3  0.4634846E-008  0.2758572E+04  0.7818608E-02  0.8316247E-01
         -1   -1    0    0    0  501 -0.00000000000E+00  0.00000000000E+00  0.71136003971E+03  0.71136003971E+03  0.00000000000E+00 0.  1.
          1   -1    0    0  501    0  0.00000000000E+00 -0.00000000000E+00 -0.26743560195E+04  0.26743560195E+04  0.00000000000E+00 0. -1.
         23    2    1    2    0    0  0.12231890067E+04  0.47127011523E+02 -0.10272322828E+04  0.16016501727E+04  0.10800375743E+03 0.  0.
        254    2    1    2    0    0 -0.12231890067E+04 -0.47127011523E+02 -0.93576369700E+03  0.17840658865E+04  0.89934703494E+03 0.  0.
         23    2    4    4    0    0 -0.35702021965E+03 -0.24190070481E+03  0.62216378237E+02  0.44514373121E+03  0.91119018222E+02 0.  0.
         23    2    4    4    0    0 -0.86616878707E+03  0.19477369329E+03 -0.99798007523E+03  0.13389221553E+04  0.92537278963E+02 0.  0.
          4    1    3    3  502    0  0.69463254316E+03  0.10011802166E+02 -0.64852367070E+03  0.95036706469E+03  0.00000000000E+00 0. -1.
         -4    1    3    3    0  502  0.52855646357E+03  0.37115209356E+02 -0.37870861209E+03  0.65128310804E+03  0.00000000000E+00 0.  1.
         13    1    5    5    0    0 -0.25845554842E+03 -0.13191500654E+03  0.65269404745E+02  0.29742383000E+03  0.00000000000E+00 0. -1.
        -13    1    5    5    0    0 -0.98564671236E+02 -0.10998569828E+03 -0.30530265077E+01  0.14771990120E+03  0.00000000000E+00 0.  1.
          3    1    6    6  503    0 -0.35714827225E+03  0.61763042520E+02 -0.47050567825E+03  0.59392352627E+03  0.00000000000E+00 0. -1.
         -3    1    6    6    0  503 -0.50902051482E+03  0.13301065077E+03 -0.52747439698E+03  0.74499862899E+03  0.00000000000E+00 0.  1.
<mgrwt>
<rscale>  0 0.27585721E+04</rscale>
<asrwt>0</asrwt>
<pdfrwt beam="1">  1        1 0.41143940E+00 0.27585721E+04</pdfrwt>
<pdfrwt beam="2">  1       -1 0.10944000E+00 0.27585721E+04</pdfrwt>
<totfact> 0.68626920E-01</totfact>
</mgrwt>
</event>
<event>
12    3  0.4634846E-008  0.1907466E+04  0.7818608E-02  0.8651149E-01
         -1   -1    0    0    0  501 -0.00000000000E+00  0.00000000000E+00  0.44982355876E+03  0.44982355876E+03  0.00000000000E+00 0.  1.
          1   -1    0    0  501    0  0.00000000000E+00 -0.00000000000E+00 -0.20221402806E+04  0.20221402806E+04  0.00000000000E+00 0. -1.
         23    2    1    2    0    0  0.28715670488E+03  0.25624430769E+03 -0.12860832834E+04  0.13455443661E+04  0.91429268288E+02 0.  0.
        254    2    1    2    0    0 -0.28715670488E+03 -0.25624430769E+03 -0.28623343849E+03  0.11264194732E+04  0.10192012216E+04 0.  0.
         23    2    4    4    0    0 -0.66351413201E+02 -0.57162787543E+03  0.78307220708E+02  0.58817081696E+03  0.93015864784E+02 0.  0.
         23    2    4    4    0    0 -0.22080529168E+03  0.31538356774E+03 -0.36454065919E+03  0.53824865628E+03  0.92735926977E+02 0.  0.
          1    1    3    3  502    0  0.25115691506E+03  0.17655083288E+03 -0.10411235170E+04  0.10854437665E+04  0.00000000000E+00 0. -1.
         -1    1    3    3    0  502  0.35999789820E+02  0.79693474811E+02 -0.24495976639E+03  0.26010059966E+03  0.00000000000E+00 0.  1.
         13    1    5    5    0    0 -0.56729259132E+02 -0.54375402550E+03  0.52920950619E+02  0.54926066317E+03  0.00000000000E+00 0.  1.
        -13    1    5    5    0    0 -0.96221540688E+01 -0.27873849933E+02  0.25386270089E+02  0.38910153791E+02  0.00000000000E+00 0. -1.
          3    1    6    6  503    0 -0.31495475502E+02  0.34468135093E+02 -0.97263451269E+01  0.47692967022E+02  0.00000000000E+00 0. -1.
         -3    1    6    6    0  503 -0.18930981618E+03  0.28091543265E+03 -0.35481431407E+03  0.49055568926E+03  0.00000000000E+00 0.  1.
<mgrwt>
<rscale>  0 0.19074657E+04</rscale>
<asrwt>0</asrwt>
<pdfrwt beam="1">  1        1 0.31109850E+00 0.19074657E+04</pdfrwt>
<pdfrwt beam="2">  1       -1 0.69203625E-01 0.19074657E+04</pdfrwt>
<totfact> 0.56855028E+00</totfact>
</mgrwt>
</event>
<event>
12    3  0.4634846E-008  0.1235576E+04  0.7818608E-02  0.9082275E-01
          2   -1    0    0  501    0  0.00000000000E+00  0.00000000000E+00  0.28336201895E+03  0.28336201895E+03  0.00000000000E+00 0.  1.
         -2   -1    0    0    0  501 -0.00000000000E+00 -0.00000000000E+00 -0.13469058299E+04  0.13469058299E+04  0.00000000000E+00 0. -1.
         23    2    1    2    0    0 -0.13826882949E+03 -0.10293500231E+03  0.28981184255E+02  0.19882378743E+03  0.94747588340E+02 0.  0.
        254    2    1    2    0    0  0.13826882949E+03  0.10293500231E+03 -0.10925249952E+04  0.14314440614E+04  0.90868440721E+03 0.  0.
         23    2    4    4    0    0 -0.37631987351E+02  0.33902881805E+02  0.14360615112E+03  0.17762523171E+03  0.91446292621E+02 0.  0.
         23    2    4    4    0    0  0.17590081684E+03  0.69032120506E+02 -0.12361311463E+04  0.12538188297E+04  0.91295759946E+02 0.  0.
          4    1    3    3  502    0 -0.14822750899E+03 -0.10768857462E+03  0.19456157860E+02  0.18424648058E+03  0.00000000000E+00 0. -1.
         -4    1    3    3    0  502  0.99586795008E+01  0.47535723140E+01  0.95250263951E+01  0.14577306849E+02  0.00000000000E+00 0.  1.
         13    1    5    5    0    0  0.55028610680E+01 -0.27958762367E+02  0.31092192083E+02  0.42174616555E+02  0.00000000000E+00 0. -1.
        -13    1    5    5    0    0 -0.43134848419E+02  0.61861644172E+02  0.11251395904E+03  0.13545061516E+03  0.00000000000E+00 0.  1.
          2    1    6    6  503    0  0.10003844774E+03  0.66428540238E+02 -0.95867032529E+03  0.96616211609E+03  0.00000000000E+00 0. -1.
         -2    1    6    6    0  503  0.75862369105E+02  0.26035802672E+01 -0.27746082102E+03  0.28765671359E+03  0.00000000000E+00 0.  1.
<mgrwt>
<rscale>  0 0.12355759E+04</rscale>
<asrwt>0</asrwt>
<pdfrwt beam="1">  1        2 0.43594158E-01 0.12355759E+04</pdfrwt>
<pdfrwt beam="2">  1       -2 0.20721627E+00 0.12355759E+04</pdfrwt>
<totfact> 0.13741730E+01</totfact>
</mgrwt>
</event>
<event>
12    3  0.4634846E-008  0.2249895E+04  0.7818608E-02  0.8497943E-01
          1   -1    0    0  501    0  0.00000000000E+00  0.00000000000E+00  0.31791646008E+04  0.31791646008E+04  0.00000000000E+00 0. -1.
         -1   -1    0    0    0  501 -0.00000000000E+00 -0.00000000000E+00 -0.39806276892E+03  0.39806276892E+03  0.00000000000E+00 0.  1.
         23    2    1    2    0    0  0.20595830393E+03  0.17227283843E+03  0.26175296201E+04  0.26326468933E+04  0.85273669669E+02 0.  0.
        254    2    1    2    0    0 -0.20595830393E+03 -0.17227283843E+03  0.16357221174E+03  0.94458047641E+03  0.89071861670E+03 0.  0.
         23    2    4    4    0    0 -0.37079801789E+03 -0.45197464050E+03  0.13203882768E+03  0.60654983351E+03  0.93253433140E+02 0.  0.
         23    2    4    4    0    0  0.16483971396E+03  0.27970180207E+03  0.31533384068E+02  0.33803064290E+03  0.88685578569E+02 0.  0.
          2    1    3    3  502    0  0.16973242228E+03  0.94523336431E+02  0.19419690038E+04  0.19516627188E+04  0.00000000000E+00 0. -1.
         -2    1    3    3    0  502  0.36225881648E+02  0.77749502001E+02  0.67556061637E+03  0.68098417452E+03  0.00000000000E+00 0.  1.
         13    1    5    5    0    0 -0.12580268711E+03 -0.15169996924E+03 -0.17559216303E+00  0.19707670482E+03  0.00000000000E+00 0. -1.
        -13    1    5    5    0    0 -0.24499533078E+03 -0.30027467127E+03  0.13221441984E+03  0.40947312869E+03  0.00000000000E+00 0.  1.
          2    1    6    6  503    0  0.84678718193E+02  0.94192565043E+02 -0.22961362553E+02  0.12872431315E+03  0.00000000000E+00 0.  1.
         -2    1    6    6    0  503  0.80160995768E+02  0.18550923703E+03  0.54494746621E+02  0.20930632975E+03  0.00000000000E+00 0. -1.
<mgrwt>
<rscale>  0 0.22498952E+04</rscale>
<asrwt>0</asrwt>
<pdfrwt beam="1">  1        1 0.48910223E+00 0.22498952E+04</pdfrwt>
<pdfrwt beam="2">  1       -1 0.61240428E-01 0.22498952E+04</pdfrwt>
<totfact> 0.10830490E+00</totfact>
</mgrwt>
</event>
<event>
12    3  0.4634846E-008  0.2747807E+04  0.7818608E-02  0.8319658E-01
         -2   -1    0    0    0  501 -0.00000000000E+00  0.00000000000E+00  0.17868166402E+04  0.17868166402E+04  0.00000000000E+00 0.  1.
          2   -1    0    0  501    0  0.00000000000E+00 -0.00000000000E+00 -0.10564096249E+04  0.10564096249E+04  0.00000000000E+00 0. -1.
         23    2    1    2    0    0  0.12141428653E+04 -0.18271824628E+03  0.29337458511E+03  0.12655776396E+04  0.89940311756E+02 0.  0.
        254    2    1    2    0    0 -0.12141428653E+04  0.18271824628E+03  0.43703243015E+03  0.15776486255E+04  0.88907198004E+03 0.  0.
         23    2    4    4    0    0 -0.11636347344E+04  0.35185136065E+03  0.14965359267E+03  0.12276021251E+04  0.82253294713E+02 0.  0.
         23    2    4    4    0    0 -0.50508130860E+02 -0.16913311437E+03  0.28737883748E+03  0.35004650044E+03  0.93748997775E+02 0.  0.
          1    1    3    3  502    0  0.10137939400E+04 -0.13949513951E+03  0.27584246317E+03  0.10598707993E+04  0.00000000000E+00 0. -1.
         -1    1    3    3    0  502  0.20034892533E+03 -0.43223106765E+02  0.17532121936E+02  0.20570684028E+03  0.00000000000E+00 0.  1.
         13    1    5    5    0    0 -0.29360518059E+03  0.10462346197E+03  0.71304147347E+02  0.31974107070E+03  0.00000000000E+00 0.  1.
        -13    1    5    5    0    0 -0.87002955385E+03  0.24722789867E+03  0.78349445323E+02  0.90786105436E+03  0.00000000000E+00 0. -1.
          2    1    6    6  503    0 -0.24801601425E+02 -0.17013784031E+03  0.26531329984E+03  0.31615368290E+03  0.00000000000E+00 0. -1.
         -2    1    6    6    0  503 -0.25706529435E+02  0.10047259429E+01  0.22065537637E+02  0.33892817544E+02  0.00000000000E+00 0.  1.
<mgrwt>
<rscale>  0 0.27478066E+04</rscale>
<asrwt>0</asrwt>
<pdfrwt beam="1">  1        2 0.16252456E+00 0.27478066E+04</pdfrwt>
<pdfrwt beam="2">  1       -2 0.27489487E+00 0.27478066E+04</pdfrwt>
<totfact> 0.91692716E-01</totfact>
</mgrwt>
</event>
<event>
12    3  0.4634846E-008  0.2175537E+04  0.7818608E-02  0.8528680E-01
          2   -1    0    0  501    0  0.00000000000E+00  0.00000000000E+00  0.34391358901E+04  0.34391358901E+04  0.00000000000E+00 0.  1.
         -2   -1    0    0    0  501 -0.00000000000E+00 -0.00000000000E+00 -0.34405152936E+03  0.34405152936E+03  0.00000000000E+00 0. -1.
         23    2    1    2    0    0 -0.69821377731E+03 -0.52601868790E+03  0.16612683900E+04  0.18794352363E+04  0.90917573681E+02 0.  0.
        254    2    1    2    0    0  0.69821377731E+03  0.52601868790E+03  0.14338159708E+04  0.19037521832E+04  0.89679763487E+03 0.  0.
         23    2    4    4    0    0  0.65835986263E+03  0.37363886448E+03  0.41348221858E+03  0.86732077138E+03  0.90741752293E+02 0.  0.
         23    2    4    4    0    0  0.39853914681E+02  0.15237982342E+03  0.10203337522E+04  0.10364314118E+04  0.91110703581E+02 0.  0.
          2    1    3    3  502    0 -0.20243344946E+02 -0.36103648386E+02  0.60550196971E+02  0.73345707404E+02  0.00000000000E+00 0. -1.
         -2    1    3    3    0  502 -0.67797043236E+03 -0.48991503951E+03  0.16007181930E+04  0.18060895289E+04  0.00000000000E+00 0.  1.
         13    1    5    5    0    0  0.22525130915E+01  0.56423129244E+01 -0.37101246159E+01  0.71186048514E+01  0.00000000000E+00 0.  1.
        -13    1    5    5    0    0  0.65610734954E+03  0.36799655155E+03  0.41719234320E+03  0.86020216653E+03  0.00000000000E+00 0. -1.
          4    1    6    6  503    0 -0.12881556705E+02  0.11764369870E+03  0.69979932999E+03  0.70973592033E+03  0.00000000000E+00 0. -1.
         -4    1    6    6    0  503  0.52735471386E+02  0.34736124722E+02  0.32053442224E+03  0.32669549146E+03  0.00000000000E+00 0.  1.
<mgrwt>
<rscale>  0 0.21755367E+04</rscale>
<asrwt>0</asrwt>
<pdfrwt beam="1">  1        2 0.52909781E+00 0.21755367E+04</pdfrwt>
<pdfrwt beam="2">  1       -2 0.52931007E-01 0.21755367E+04</pdfrwt>
<totfact> 0.27724450E+00</totfact>
</mgrwt>
</event>
<event>
12    3  0.4634846E-008  0.1792424E+04  0.7818608E-02  0.8710339E-01
         -1   -1    0    0    0  501 -0.00000000000E+00  0.00000000000E+00  0.31544600376E+03  0.31544600376E+03  0.00000000000E+00 0.  1.
          1   -1    0    0  501    0  0.00000000000E+00 -0.00000000000E+00 -0.25462224908E+04  0.25462224908E+04  0.00000000000E+00 0. -1.
         23    2    1    2    0    0 -0.18589899791E+03  0.52192801645E+03 -0.23796121861E+03  0.60940541620E+03  0.88216370128E+02 0.  0.
        254    2    1    2    0    0  0.18589899791E+03 -0.52192801645E+03 -0.19928152684E+04  0.22522630783E+04  0.89129624047E+03 0.  0.
         23    2    4    4    0    0 -0.34504209818E+03 -0.24124117016E+03 -0.66740727661E+03  0.79408611035E+03  0.88819626679E+02 0.  0.
         23    2    4    4    0    0  0.53094109609E+03 -0.28068684629E+03 -0.13254079918E+04  0.14581769680E+04  0.94287708913E+02 0.  0.
          3    1    3    3  502    0 -0.17982618731E+03  0.47759576814E+03 -0.24136808980E+03  0.56452965393E+03  0.00000000000E+00 0. -1.
         -3    1    3    3    0  502 -0.60728105971E+01  0.44332248304E+02  0.34068711922E+01  0.44875762272E+02  0.00000000000E+00 0.  1.
         13    1    5    5    0    0 -0.11640365822E+03 -0.57220535465E+02 -0.27508461410E+03  0.30413080449E+03  0.00000000000E+00 0. -1.
        -13    1    5    5    0    0 -0.22863843996E+03 -0.18402063470E+03 -0.39232266251E+03  0.48995530586E+03  0.00000000000E+00 0.  1.
          3    1    6    6  503    0  0.20072473629E+03 -0.87669684903E+02 -0.38476137944E+03  0.44273887622E+03  0.00000000000E+00 0. -1.
         -3    1    6    6    0  503  0.33021635980E+03 -0.19301716138E+03 -0.94064661237E+03  0.10154380918E+04  0.00000000000E+00 0.  1.
<mgrwt>
<rscale>  0 0.17924237E+04</rscale>
<asrwt>0</asrwt>
<pdfrwt beam="1">  1        1 0.39172653E+00 0.17924237E+04</pdfrwt>
<pdfrwt beam="2">  1       -1 0.48530155E-01 0.17924237E+04</pdfrwt>
<totfact> 0.50528238E+00</totfact>
</mgrwt>
</event>
<event>
12    3  0.4634846E-008  0.2007797E+04  0.7818608E-02  0.8602984E-01
         -2   -1    0    0    0  501 -0.00000000000E+00  0.00000000000E+00  0.96332025053E+03  0.96332025053E+03  0.00000000000E+00 0.  1.
          2   -1    0    0  501    0  0.00000000000E+00 -0.00000000000E+00 -0.10461856980E+04  0.10461856980E+04  0.00000000000E+00 0. -1.
         23    2    1    2    0    0  0.63211803196E+03  0.45544461036E+03 -0.19289489588E+03  0.80786448579E+03  0.91834563797E+02 0.  0.
        254    2    1    2    0    0 -0.63211803196E+03 -0.45544461036E+03  0.11002944839E+03  0.12016414628E+04  0.90820302030E+03 0.  0.
         23    2    4    4    0    0 -0.34853243460E+03  0.18393403816E+03  0.25891006691E+03  0.48084173854E+03  0.94168818699E+02 0.  0.
         23    2    4    4    0    0 -0.28358559737E+03 -0.63937864852E+03 -0.14888061853E+03  0.72079972422E+03  0.90338013295E+02 0.  0.
          1    1    3    3  502    0  0.24694976939E+03  0.13405938534E+03 -0.96104636639E+02  0.29697173028E+03  0.00000000000E+00 0.  1.
         -1    1    3    3    0  502  0.38516826257E+03  0.32138522501E+03 -0.96790259239E+02  0.51089275551E+03  0.00000000000E+00 0. -1.
         13    1    5    5    0    0  0.59718456158E+01  0.61085449317E+01  0.45461829555E+01  0.96770367730E+01  0.00000000000E+00 0.  1.
        -13    1    5    5    0    0 -0.35450428021E+03  0.17782549323E+03  0.25436388396E+03  0.47116470177E+03  0.00000000000E+00 0. -1.
          1    1    6    6  503    0 -0.27108033100E+03 -0.62282646052E+03 -0.12771811817E+03  0.69116514921E+03  0.00000000000E+00 0. -1.
         -1    1    6    6    0  503 -0.12505266364E+02 -0.16552188001E+02 -0.21162500357E+02  0.29634575007E+02  0.00000000000E+00 0.  1.
<mgrwt>
<rscale>  0 0.20077967E+04</rscale>
<asrwt>0</asrwt>
<pdfrwt beam="1">  1        2 0.16095165E+00 0.20077967E+04</pdfrwt>
<pdfrwt beam="2">  1       -2 0.14820312E+00 0.20077967E+04</pdfrwt>
<totfact> 0.67601922E+00</totfact>
</mgrwt>
</event>
<event>
12    3  0.4634846E-008  0.1337239E+04  0.7818608E-02  0.9000545E-01
          2   -1    0    0  501    0  0.00000000000E+00  0.00000000000E+00  0.29977709149E+04  0.29977709149E+04  0.00000000000E+00 0. -1.
         -2   -1    0    0    0  501 -0.00000000000E+00 -0.00000000000E+00 -0.14912810254E+03  0.14912810254E+03  0.00000000000E+00 0.  1.
         23    2    1    2    0    0  0.82249017042E+02  0.29490746646E+03  0.10680597077E+04  0.11149761641E+04  0.93193308668E+02 0.  0.
        254    2    1    2    0    0 -0.82249017042E+02 -0.29490746646E+03  0.17805831046E+04  0.20319228533E+04  0.92978436996E+03 0.  0.
         23    2    4    4    0    0  0.39083408496E+03 -0.50666171430E+01  0.92262738796E+03  0.10061129395E+04  0.90801968250E+02 0.  0.
         23    2    4    4    0    0 -0.47308310201E+03 -0.28984084932E+03  0.85795571663E+03  0.10258099137E+04  0.91556693394E+02 0.  0.
          1    1    3    3  502    0  0.88732575963E+02  0.29700617042E+03  0.10094427000E+04  0.10559643460E+04  0.00000000000E+00 0. -1.
         -1    1    3    3    0  502 -0.64835589213E+01 -0.20987039571E+01  0.58617007701E+02  0.59011818193E+02  0.00000000000E+00 0.  1.
         13    1    5    5    0    0  0.16931359702E+03 -0.27343350532E+02  0.49722010549E+03  0.52596823693E+03  0.00000000000E+00 0.  1.
        -13    1    5    5    0    0  0.22152048794E+03  0.22276733389E+02  0.42540728247E+03  0.48014470257E+03  0.00000000000E+00 0. -1.
          4    1    6    6  503    0 -0.56040367528E+02 -0.42953417051E+02  0.62248340439E+02  0.94129563456E+02  0.00000000000E+00 0.  1.
         -4    1    6    6    0  503 -0.41704273448E+03 -0.24688743227E+03  0.79570737619E+03  0.93168035029E+03  0.00000000000E+00 0. -1.
<mgrwt>
<rscale>  0 0.13372388E+04</rscale>
<asrwt>0</asrwt>
<pdfrwt beam="1">  1        2 0.46119548E+00 0.13372388E+04</pdfrwt>
<pdfrwt beam="2">  1       -2 0.22942787E-01 0.13372388E+04</pdfrwt>
<totfact> 0.28906676E+01</totfact>
</mgrwt>
</event>
<event>
12    3  0.4634846E-008  0.1884783E+04  0.7818608E-02  0.8662468E-01
         -2   -1    0    0    0  501 -0.00000000000E+00  0.00000000000E+00  0.51813318203E+03  0.51813318203E+03  0.00000000000E+00 0.  1.
          2   -1    0    0  501    0  0.00000000000E+00 -0.00000000000E+00 -0.17140421466E+04  0.17140421466E+04  0.00000000000E+00 0. -1.
         23    2    1    2    0    0  0.41789425381E+03  0.37897837715E+03 -0.10196115823E+04  0.11689278826E+04  0.92327668152E+02 0.  0.
        254    2    1    2    0    0 -0.41789425381E+03 -0.37897837715E+03 -0.17629738223E+03  0.10632474460E+04  0.88382925198E+03 0.  0.
         23    2    4    4    0    0 -0.42676885198E+03 -0.21324304943E+03  0.28611166809E+03  0.56374052987E+03  0.91319479073E+02 0.  0.
         23    2    4    4    0    0  0.88745981674E+01 -0.16573532772E+03 -0.46240905032E+03  0.49950691609E+03  0.90211263498E+02 0.  0.
          4    1    3    3  502    0  0.21809870674E+03  0.22227910095E+03 -0.64679087410E+03  0.71785338296E+03  0.00000000000E+00 0. -1.
         -4    1    3    3    0  502  0.19979554708E+03  0.15669927620E+03 -0.37282070821E+03  0.45107449968E+03  0.00000000000E+00 0.  1.
         13    1    5    5    0    0 -0.14745763374E+03 -0.10289362470E+03  0.14936471071E+03  0.23375343540E+03  0.00000000000E+00 0.  1.
        -13    1    5    5    0    0 -0.27931121824E+03 -0.11034942472E+03  0.13674695737E+03  0.32998709448E+03  0.00000000000E+00 0. -1.
          1    1    6    6  503    0  0.26892010038E+02 -0.79449864902E+02 -0.32961892641E+03  0.34012365088E+03  0.00000000000E+00 0. -1.
         -1    1    6    6    0  503 -0.18017411870E+02 -0.86285462817E+02 -0.13279012391E+03  0.15938326522E+03  0.00000000000E+00 0.  1.
<mgrwt>
<rscale>  0 0.18847834E+04</rscale>
<asrwt>0</asrwt>
<pdfrwt beam="1">  1        2 0.26369879E+00 0.18847834E+04</pdfrwt>
<pdfrwt beam="2">  1       -2 0.79712796E-01 0.18847834E+04</pdfrwt>
<totfact> 0.12585431E+01</totfact>
</mgrwt>
</event>
<event>
12    3  0.4634846E-008  0.1187143E+04  0.7818608E-02  0.9124185E-01
         -2   -1    0    0    0  501 -0.00000000000E+00  0.00000000000E+00  0.44714280451E+03  0.44714280451E+03  0.00000000000E+00 0.  1.
          2   -1    0    0  501    0  0.00000000000E+00 -0.00000000000E+00 -0.78795263930E+03  0.78795263930E+03  0.00000000000E+00 0. -1.
         23    2    1    2    0    0  0.34088939863E+02 -0.52659274238E+02  0.16614626055E+03  0.19909375852E+03  0.89992720820E+02 0.  0.
        254    2    1    2    0    0 -0.34088939863E+02  0.52659274238E+02 -0.50695609534E+03  0.10360016853E+04  0.90131013215E+03 0.  0.
         23    2    4    4    0    0 -0.27533350305E+03 -0.24580298533E+03 -0.51601259381E+03  0.64127650796E+03  0.93482175831E+02 0.  0.
         23    2    4    4    0    0  0.24124456319E+03  0.29846225957E+03  0.90564984625E+01  0.39472517732E+03  0.91909117009E+02 0.  0.
          3    1    3    3  502    0 -0.78440012276E+01 -0.13544170903E+02 -0.66687090841E+01  0.17013071491E+02  0.00000000000E+00 0. -1.
         -3    1    3    3    0  502  0.41932941091E+02 -0.39115103336E+02  0.17281496964E+03  0.18208068703E+03  0.00000000000E+00 0.  1.
         13    1    5    5    0    0 -0.21356344193E+03 -0.17414958506E+03 -0.31120508100E+03  0.41567538314E+03  0.00000000000E+00 0.  1.
        -13    1    5    5    0    0 -0.61770061123E+02 -0.71653400275E+02 -0.20480751280E+03  0.22560112483E+03  0.00000000000E+00 0. -1.
          1    1    6    6  503    0  0.38481726278E+01  0.37323557849E+02 -0.16277341543E+02  0.40899978616E+02  0.00000000000E+00 0. -1.
         -1    1    6    6    0  503  0.23739639056E+03  0.26113870172E+03  0.25333840005E+02  0.35382519871E+03  0.00000000000E+00 0.  1.
<mgrwt>
<rscale>  0 0.11871434E+04</rscale>
<asrwt>0</asrwt>
<pdfrwt beam="1">  1        2 0.12122348E+00 0.11871434E+04</pdfrwt>
<pdfrwt beam="2">  1       -2 0.68791201E-01 0.11871434E+04</pdfrwt>
<totfact> 0.67054791E+01</totfact>
</mgrwt>
</event>
<event>
12    3  0.4634846E-008  0.1269054E+04  0.7818608E-02  0.9054472E-01
          1   -1    0    0  501    0  0.00000000000E+00  0.00000000000E+00  0.21257211422E+04  0.21257211422E+04  0.00000000000E+00 0. -1.
         -1   -1    0    0    0  501 -0.00000000000E+00 -0.00000000000E+00 -0.18940619908E+03  0.18940619908E+03  0.00000000000E+00 0.  1.
         23    2    1    2    0    0 -0.28792184653E+03 -0.10495993668E+03  0.46346532079E+03  0.56341858957E+03  0.93406774276E+02 0.  0.
        254    2    1    2    0    0  0.28792184653E+03  0.10495993668E+03  0.14728496224E+04  0.17517087518E+04  0.89737504023E+03 0.  0.
         23    2    4    4    0    0 -0.45631715801E+01 -0.36639708231E+03  0.70973796302E+03  0.80388589692E+03  0.90757449621E+02 0.  0.
         23    2    4    4    0    0  0.29248501811E+03  0.47135701899E+03  0.76311165935E+03  0.94782285483E+03  0.91125376946E+02 0.  0.
          2    1    3    3  502    0 -0.29491251616E+03 -0.10335160436E+03  0.45774797493E+03  0.55424557271E+03  0.00000000000E+00 0. -1.
         -2    1    3    3    0  502  0.69906696281E+01 -0.16083323135E+01  0.57173458553E+01  0.91730168597E+01  0.00000000000E+00 0.  1.
         13    1    5    5    0    0  0.21749475540E+01 -0.12647145539E+03  0.34306279683E+03  0.36563895033E+03  0.00000000000E+00 0. -1.
        -13    1    5    5    0    0 -0.67381191341E+01 -0.23992562693E+03  0.36667516618E+03  0.43824694660E+03  0.00000000000E+00 0.  1.
          1    1    6    6  503    0  0.13698582488E+03  0.16691635362E+03  0.35429363086E+03  0.41490982417E+03  0.00000000000E+00 0. -1.
         -1    1    6    6    0  503  0.15549919322E+03  0.30444066537E+03  0.40881802850E+03  0.53291303066E+03  0.00000000000E+00 0.  1.
<mgrwt>
<rscale>  0 0.12690544E+04</rscale>
<asrwt>0</asrwt>
<pdfrwt beam="1">  1        1 0.32703401E+00 0.12690544E+04</pdfrwt>
<pdfrwt beam="2">  1       -1 0.29139417E-01 0.12690544E+04</pdfrwt>
<totfact> 0.25941559E+01</totfact>
</mgrwt>
</event>
<event>
12    3  0.4634846E-008  0.1423828E+04  0.7818608E-02  0.8936749E-01
          2   -1    0    0  501    0  0.00000000000E+00  0.00000000000E+00  0.22143103569E+04  0.22143103569E+04  0.00000000000E+00 0. -1.
         -2   -1    0    0    0  501 -0.00000000000E+00 -0.00000000000E+00 -0.22888463770E+03  0.22888463770E+03  0.00000000000E+00 0.  1.
         23    2    1    2    0    0 -0.19301705416E+03  0.25336039093E+03  0.12879961352E+03  0.35647359547E+03  0.95063204961E+02 0.  0.
        254    2    1    2    0    0  0.19301705416E+03 -0.25336039093E+03  0.18566261057E+04  0.20867213991E+04  0.89771856970E+03 0.  0.
         23    2    4    4    0    0  0.27229136096E+03  0.20826844245E+03  0.31956588822E+03  0.47730444821E+03  0.90436994646E+02 0.  0.
         23    2    4    4    0    0 -0.79274306797E+02 -0.46162883338E+03  0.15370602174E+04  0.16094169509E+04  0.91012165408E+02 0.  0.
          3    1    3    3  502    0 -0.19659055228E+03  0.25899616760E+03  0.12896513696E+03  0.34979832279E+03  0.00000000000E+00 0. -1.
         -3    1    3    3    0  502  0.35734981175E+01 -0.56357766657E+01 -0.16552343750E+00  0.66752726858E+01  0.00000000000E+00 0.  1.
         13    1    5    5    0    0  0.23204748155E+03  0.19550253619E+03  0.31046427070E+03  0.43411443046E+03  0.00000000000E+00 0. -1.
        -13    1    5    5    0    0  0.40243879407E+02  0.12765906263E+02  0.91016175167E+01  0.43190017757E+02  0.00000000000E+00 0.  1.
          4    1    6    6  503    0 -0.44343555042E+02 -0.34552164593E+03  0.10032022878E+04  0.10619634593E+04  0.00000000000E+00 0. -1.
         -4    1    6    6    0  503 -0.34930751755E+02 -0.11610718745E+03  0.53385792965E+03  0.54745349158E+03  0.00000000000E+00 0.  1.
<mgrwt>
<rscale>  0 0.14238281E+04</rscale>
<asrwt>0</asrwt>
<pdfrwt beam="1">  1        2 0.34066312E+00 0.14238281E+04</pdfrwt>
<pdfrwt beam="2">  1       -2 0.35213023E-01 0.14238281E+04</pdfrwt>
<totfact> 0.37349845E+01</totfact>
</mgrwt>
</event>
<event>
12    3  0.4838454E-008  0.2241067E+04  0.7818608E-02  0.8501527E-01
         -1   -1    0    0    0  501 -0.00000000000E+00  0.00000000000E+00  0.82622198295E+03  0.82622198295E+03  0.00000000000E+00 0.  1.
          1   -1    0    0  501    0  0.00000000000E+00 -0.00000000000E+00 -0.15196822748E+04  0.15196822748E+04  0.00000000000E+00 0. -1.
         23    2    1    2    0    0  0.38096348528E+03 -0.26494610384E+03 -0.11467823534E+04  0.12396909617E+04  0.79964362450E+02 0.  0.
        254    2    1    2    0    0 -0.38096348528E+03  0.26494610384E+03  0.45332206164E+03  0.11062132960E+04  0.89603423463E+03 0.  0.
         23    2    4    4    0    0 -0.26812801616E+03  0.57626699493E+03  0.17739504986E+03  0.66586328584E+03  0.89042850479E+02 0.  0.
         23    2    4    4    0    0 -0.11283546912E+03 -0.31132089109E+03  0.27592701178E+03  0.44035001016E+03  0.90110350661E+02 0.  0.
          3    1    3    3  502    0  0.36268053656E+03 -0.26412196920E+03 -0.11254498102E+04  0.12115836173E+04  0.00000000000E+00 0. -1.
         -3    1    3    3    0  502  0.18282948724E+02 -0.82413463896E+00 -0.21332543203E+02  0.28107344439E+02  0.00000000000E+00 0.  1.
         13    1    5    5    0    0 -0.25849863967E+02  0.13652484601E+02  0.83545742994E+01  0.30404024645E+02  0.00000000000E+00 0.  1.
        -13    1    5    5    0    0 -0.24227815220E+03  0.56261451033E+03  0.16904047556E+03  0.63545926120E+03  0.00000000000E+00 0. -1.
          4    1    6    6  503    0 -0.11940432137E+03 -0.31234524463E+03  0.26161627603E+03  0.42457039427E+03  0.00000000000E+00 0. -1.
         -4    1    6    6    0  503  0.65688522499E+01  0.10243535361E+01  0.14310735750E+02  0.15779615894E+02  0.00000000000E+00 0.  1.
<mgrwt>
<rscale>  0 0.22410666E+04</rscale>
<asrwt>0</asrwt>
<pdfrwt beam="1">  1        1 0.23379727E+00 0.22410666E+04</pdfrwt>
<pdfrwt beam="2">  1       -1 0.12711108E+00 0.22410666E+04</pdfrwt>
<totfact> 0.30908429E+00</totfact>
</mgrwt>
</event>
<event>
12    3  0.4634846E-008  0.1190888E+04  0.7818608E-02  0.9120870E-01
         -2   -1    0    0    0  501 -0.00000000000E+00  0.00000000000E+00  0.21269977540E+03  0.21269977540E+03  0.00000000000E+00 0.  1.
          2   -1    0    0  501    0  0.00000000000E+00 -0.00000000000E+00 -0.16669198225E+04  0.16669198225E+04  0.00000000000E+00 0. -1.
         23    2    1    2    0    0 -0.50545756531E+02 -0.24467405053E+03 -0.19964455238E+03  0.33265757671E+03  0.91557913564E+02 0.  0.
        254    2    1    2    0    0  0.50545756531E+02  0.24467405053E+03 -0.12545754947E+04  0.15469620212E+04  0.86989169357E+03 0.  0.
         23    2    4    4    0    0  0.29637041575E+03 -0.15797944786E+03 -0.85070450977E+03  0.91917163682E+03  0.91571860913E+02 0.  0.
         23    2    4    4    0    0 -0.24582465922E+03  0.40265349840E+03 -0.40387098494E+03  0.62779038437E+03  0.91920570983E+02 0.  0.
          3    1    3    3  502    0 -0.14293865699E+02 -0.22301645317E+03 -0.16116089489E+03  0.27552402259E+03  0.00000000000E+00 0. -1.
         -3    1    3    3    0  502 -0.36251890832E+02 -0.21657597367E+02 -0.38483657488E+02  0.57133554119E+02  0.00000000000E+00 0.  1.
         13    1    5    5    0    0  0.12545017955E+02 -0.37877975421E+02 -0.10027995452E+03  0.10792677043E+03  0.00000000000E+00 0. -1.
        -13    1    5    5    0    0  0.28382539780E+03 -0.12010147244E+03 -0.75042455525E+03  0.81124486639E+03  0.00000000000E+00 0.  1.
          1    1    6    6  503    0 -0.15086997842E+03  0.16113306624E+03 -0.19808278304E+03  0.29658456528E+03  0.00000000000E+00 0. -1.
         -1    1    6    6    0  503 -0.94954680806E+02  0.24152043215E+03 -0.20578820190E+03  0.33120581909E+03  0.00000000000E+00 0.  1.
<mgrwt>
<rscale>  0 0.11908879E+04</rscale>
<asrwt>0</asrwt>
<pdfrwt beam="1">  1        2 0.25644921E+00 0.11908879E+04</pdfrwt>
<pdfrwt beam="2">  1       -2 0.32723042E-01 0.11908879E+04</pdfrwt>
<totfact> 0.87951014E+01</totfact>
</mgrwt>
</event>
<event>
12    3  0.4634846E-008  0.2504564E+04  0.7818608E-02  0.8401362E-01
         -2   -1    0    0    0  501 -0.00000000000E+00  0.00000000000E+00  0.79178652229E+03  0.79178652229E+03  0.00000000000E+00 0.  1.
          2   -1    0    0  501    0  0.00000000000E+00 -0.00000000000E+00 -0.19805965820E+04  0.19805965820E+04  0.00000000000E+00 0. -1.
         23    2    1    2    0    0 -0.14813570157E+03 -0.10026217594E+04 -0.79165852610E+02  0.10207972571E+04  0.92548524367E+02 0.  0.
        254    2    1    2    0    0  0.14813570157E+03  0.10026217594E+04 -0.11096442071E+04  0.17515858472E+04  0.89974892897E+03 0.  0.
         23    2    4    4    0    0  0.16377600624E+02  0.34531285163E+02  0.13452220095E+03  0.16707880989E+03  0.91424672315E+02 0.  0.
         23    2    4    4    0    0  0.13175810095E+03  0.96809047426E+03 -0.12441664081E+04  0.15845070373E+04  0.90294721835E+02 0.  0.
          2    1    3    3  502    0 -0.10106911225E+02 -0.64661055818E+01 -0.20478362176E+01  0.12171844933E+02  0.00000000000E+00 0.  1.
         -2    1    3    3    0  502 -0.13802879035E+03 -0.99615565384E+03 -0.77118016393E+02  0.10086254122E+04  0.00000000000E+00 0. -1.
         13    1    5    5    0    0  0.84161961258E+01  0.65450960193E+02  0.78070933391E+02  0.10222392669E+03  0.00000000000E+00 0.  1.
        -13    1    5    5    0    0  0.79614044982E+01 -0.30919675030E+02  0.56451267562E+02  0.64854883200E+02  0.00000000000E+00 0. -1.
          1    1    6    6  503    0  0.12835633260E+03  0.96175208594E+03 -0.12172384411E+04  0.15566347823E+04  0.00000000000E+00 0. -1.
         -1    1    6    6    0  503  0.34017683487E+01  0.63383883213E+01 -0.26927967027E+02  0.27872255068E+02  0.00000000000E+00 0.  1.
<mgrwt>
<rscale>  0 0.25045636E+04</rscale>
<asrwt>0</asrwt>
<pdfrwt beam="1">  1        2 0.30470716E+00 0.25045636E+04</pdfrwt>
<pdfrwt beam="2">  1       -2 0.12181331E+00 0.25045636E+04</pdfrwt>
<totfact> 0.31236578E+00</totfact>
</mgrwt>
</event>
<event>
12    3  0.4634846E-008  0.1388250E+04  0.7818608E-02  0.8962368E-01
         -4   -1    0    0    0  501 -0.00000000000E+00  0.00000000000E+00  0.11511591234E+04  0.11511591234E+04  0.00000000000E+00 0.  1.
          4   -1    0    0  501    0  0.00000000000E+00 -0.00000000000E+00 -0.41854263444E+03  0.41854263444E+03  0.00000000000E+00 0. -1.
         23    2    1    2    0    0 -0.19446680270E+03  0.22062226565E+03  0.51976065969E+03  0.60416017910E+03  0.91470526355E+02 0.  0.
        254    2    1    2    0    0  0.19446680270E+03 -0.22062226565E+03  0.21285582923E+03  0.96554157870E+03  0.89469068102E+03 0.  0.
         23    2    4    4    0    0 -0.26785045076E+03  0.14872603293E+03 -0.26104073612E+02  0.32093047563E+03  0.91932859675E+02 0.  0.
         23    2    4    4    0    0  0.46231725346E+03 -0.36934829858E+03  0.23895990284E+03  0.64461110307E+03  0.90918812820E+02 0.  0.
          1    1    3    3  502    0 -0.47864628817E+02  0.68858839046E+02  0.77708915038E+02  0.11432951449E+03  0.00000000000E+00 0. -1.
         -1    1    3    3    0  502 -0.14660217389E+03  0.15176342661E+03  0.44205174465E+03  0.48983066461E+03  0.00000000000E+00 0.  1.
         13    1    5    5    0    0 -0.24455758417E+03  0.11832567438E+03  0.47960719226E+01  0.27172114291E+03  0.00000000000E+00 0. -1.
        -13    1    5    5    0    0 -0.23292866583E+02  0.30400358545E+02 -0.30900145534E+02  0.49209332726E+02  0.00000000000E+00 0.  1.
          3    1    6    6  503    0  0.41644031190E+03 -0.30544460328E+03  0.23029671467E+03  0.56546928814E+03  0.00000000000E+00 0. -1.
         -3    1    6    6    0  503  0.45876941562E+02 -0.63903695306E+02  0.86631881675E+01  0.79141814928E+02  0.00000000000E+00 0.  1.
<mgrwt>
<rscale>  0 0.13882495E+04</rscale>
<asrwt>0</asrwt>
<pdfrwt beam="1">  1        4 0.64391175E-01 0.13882495E+04</pdfrwt>
<pdfrwt beam="2">  1       -4 0.17710140E+00 0.13882495E+04</pdfrwt>
<totfact> 0.82481782E-01</totfact>
</mgrwt>
</event>
<event>
12    3  0.4634846E-008  0.5626561E+04  0.7818608E-02  0.7738510E-01
         -1   -1    0    0    0  501 -0.00000000000E+00  0.00000000000E+00  0.24536627910E+04  0.24536627910E+04  0.00000000000E+00 0.  1.
          1   -1    0    0  501    0  0.00000000000E+00 -0.00000000000E+00 -0.32256056275E+04  0.32256056275E+04  0.00000000000E+00 0. -1.
         23    2    1    2    0    0  0.12756103618E+04  0.18832833726E+04  0.11675348903E+04  0.25586442531E+04  0.97901159622E+02 0.  0.
        254    2    1    2    0    0 -0.12756103618E+04 -0.18832833726E+04 -0.19394777267E+04  0.31206241654E+04  0.89598173670E+03 0.  0.
         23    2    4    4    0    0 -0.68521678609E+03 -0.16591691124E+04 -0.13104672539E+04  0.22244532888E+04  0.92216175654E+02 0.  0.
         23    2    4    4    0    0 -0.59039357574E+03 -0.22411426020E+03 -0.62901047283E+03  0.89617087659E+03  0.93146600708E+02 0.  0.
          2    1    3    3  502    0  0.20717073763E+03  0.28076254770E+03  0.14332053792E+03  0.37721094803E+03  0.00000000000E+00 0. -1.
         -2    1    3    3    0  502  0.10684396242E+04  0.16025208249E+04  0.10242143524E+04  0.21814333051E+04  0.00000000000E+00 0.  1.
         13    1    5    5    0    0 -0.56469212704E+03 -0.14259893884E+04 -0.10890376228E+04  0.18810438267E+04  0.00000000000E+00 0. -1.
        -13    1    5    5    0    0 -0.12052465905E+03 -0.23317972406E+03 -0.22142963109E+03  0.34340946213E+03  0.00000000000E+00 0.  1.
          1    1    6    6  503    0 -0.49411938384E+03 -0.21607798913E+03 -0.50368311508E+03  0.73792976854E+03  0.00000000000E+00 0. -1.
         -1    1    6    6    0  503 -0.96274191893E+02 -0.80362710701E+01 -0.12532735775E+03  0.15824110806E+03  0.00000000000E+00 0.  1.
<mgrwt>
<rscale>  0 0.56265615E+04</rscale>
<asrwt>0</asrwt>
<pdfrwt beam="1">  1        1 0.49624702E+00 0.56265615E+04</pdfrwt>
<pdfrwt beam="2">  1       -1 0.37748658E+00 0.56265615E+04</pdfrwt>
<totfact> 0.28434865E-03</totfact>
</mgrwt>
</event>
<event>
12    3  0.4634846E-008  0.1682095E+04  0.7818608E-02  0.8771643E-01
         -2   -1    0    0    0  501 -0.00000000000E+00  0.00000000000E+00  0.72718129647E+03  0.72718129647E+03  0.00000000000E+00 0.  1.
          2   -1    0    0  501    0  0.00000000000E+00 -0.00000000000E+00 -0.97274323144E+03  0.97274323144E+03  0.00000000000E+00 0. -1.
         23    2    1    2    0    0  0.27769922888E+03 -0.47648192251E+03 -0.31452440444E+03  0.64141260290E+03  0.91283306094E+02 0.  0.
        254    2    1    2    0    0 -0.27769922888E+03  0.47648192251E+03  0.68962469474E+02  0.10585119250E+04  0.90085503219E+03 0.  0.
         23    2    4    4    0    0 -0.28710987996E+03  0.18867572579E+03  0.44935917448E+03  0.57307296190E+03  0.91969230203E+02 0.  0.
         23    2    4    4    0    0  0.94106510735E+01  0.28780619671E+03 -0.38039670500E+03  0.48543896312E+03  0.89601152421E+02 0.  0.
          4    1    3    3  502    0  0.22325256787E+03 -0.42295039912E+03 -0.24155050740E+03  0.53579417391E+03  0.00000000000E+00 0.  1.
         -4    1    3    3    0  502  0.54446661016E+02 -0.53531523386E+02 -0.72973897043E+02  0.10561842899E+03  0.00000000000E+00 0. -1.
         13    1    5    5    0    0 -0.23318879382E+02  0.55187645560E+02  0.70766270958E+02  0.92721688203E+02  0.00000000000E+00 0.  1.
        -13    1    5    5    0    0 -0.26379100057E+03  0.13348808024E+03  0.37859290352E+03  0.48035127370E+03  0.00000000000E+00 0. -1.
          4    1    6    6  503    0  0.31205150534E+02  0.49506735833E+02 -0.10820776703E+03  0.12301869434E+03  0.00000000000E+00 0. -1.
         -4    1    6    6    0  503 -0.21794499460E+02  0.23829946088E+03 -0.27218893797E+03  0.36242026877E+03  0.00000000000E+00 0.  1.
<mgrwt>
<rscale>  0 0.16820947E+04</rscale>
<asrwt>0</asrwt>
<pdfrwt beam="1">  1        2 0.14965280E+00 0.16820947E+04</pdfrwt>
<pdfrwt beam="2">  1       -2 0.11187405E+00 0.16820947E+04</pdfrwt>
<totfact> 0.15765625E+01</totfact>
</mgrwt>
</event>
<event>
12    3  0.4634846E-008  0.2067175E+04  0.7818608E-02  0.8575843E-01
         -1   -1    0    0    0  501 -0.00000000000E+00  0.00000000000E+00  0.11352713659E+04  0.11352713659E+04  0.00000000000E+00 0.  1.
          1   -1    0    0  501    0  0.00000000000E+00 -0.00000000000E+00 -0.94101106421E+03  0.94101106421E+03  0.00000000000E+00 0. -1.
         23    2    1    2    0    0  0.12593557463E+03  0.38212562766E+03 -0.65399729286E+03  0.77300253249E+03  0.89110559968E+02 0.  0.
        254    2    1    2    0    0 -0.12593557463E+03 -0.38212562766E+03  0.84825759453E+03  0.13032798976E+04  0.90394567345E+03 0.  0.
         23    2    4    4    0    0  0.29126369774E+03  0.96254556506E+02  0.43846381370E+03  0.54274372147E+03  0.90668351701E+02 0.  0.
         23    2    4    4    0    0 -0.41719927237E+03 -0.47838018416E+03  0.40979378083E+03  0.76053617613E+03  0.87071803292E+02 0.  0.
          4    1    3    3  502    0  0.50516659003E+02  0.27822731684E+03 -0.42515815952E+03  0.51060927653E+03  0.00000000000E+00 0. -1.
         -4    1    3    3    0  502  0.75418915625E+02  0.10389831081E+03 -0.22883913334E+03  0.26239325596E+03  0.00000000000E+00 0.  1.
         13    1    5    5    0    0  0.26458901465E+03  0.11306064297E+03  0.38441637956E+03  0.48017289442E+03  0.00000000000E+00 0.  1.
        -13    1    5    5    0    0  0.26674683089E+02 -0.16806086466E+02  0.54047434143E+02  0.62570827050E+02  0.00000000000E+00 0. -1.
          2    1    6    6  503    0 -0.15309937532E+03 -0.11504517798E+03  0.12103776466E+03  0.22655010963E+03  0.00000000000E+00 0. -1.
         -2    1    6    6    0  503 -0.26409989705E+03 -0.36333500619E+03  0.28875601617E+03  0.53398606650E+03  0.00000000000E+00 0.  1.
<mgrwt>
<rscale>  0 0.20671748E+04</rscale>
<asrwt>0</asrwt>
<pdfrwt beam="1">  1        1 0.14477093E+00 0.20671748E+04</pdfrwt>
<pdfrwt beam="2">  1       -1 0.17465713E+00 0.20671748E+04</pdfrwt>
<totfact> 0.35358895E+00</totfact>
</mgrwt>
</event>
<event>
12    3  0.4634846E-008  0.2087037E+04  0.7818608E-02  0.8566975E-01
          2   -1    0    0  501    0  0.00000000000E+00  0.00000000000E+00  0.21836753903E+04  0.21836753903E+04  0.00000000000E+00 0. -1.
         -2   -1    0    0    0  501 -0.00000000000E+00 -0.00000000000E+00 -0.49866888486E+03  0.49866888486E+03  0.00000000000E+00 0.  1.
         23    2    1    2    0    0  0.52907750561E+03  0.31932220373E+03 -0.46970740018E+02  0.62645000021E+03  0.91343722364E+02 0.  0.
        254    2    1    2    0    0 -0.52907750561E+03 -0.31932220373E+03  0.17319772455E+04  0.20558942750E+04  0.91927493943E+03 0.  0.
         23    2    4    4    0    0  0.34326948319E+02 -0.19453441179E+03 -0.11473717601E+02  0.21721587223E+03  0.89605313457E+02 0.  0.
         23    2    4    4    0    0 -0.56340445392E+03 -0.12478779194E+03  0.17434509631E+04  0.18386784027E+04  0.90113463691E+02 0.  0.
          3    1    3    3  502    0  0.15242268814E+03  0.13204284684E+03 -0.40857468053E+02  0.20576035080E+03  0.00000000000E+00 0. -1.
         -3    1    3    3    0  502  0.37665481746E+03  0.18727935689E+03 -0.61132719643E+01  0.42068964942E+03  0.00000000000E+00 0.  1.
         13    1    5    5    0    0  0.31234685965E+02 -0.17334890922E+02 -0.17726762292E+02  0.39879094172E+02  0.00000000000E+00 0.  1.
        -13    1    5    5    0    0  0.30922623535E+01 -0.17719952087E+03  0.62530446914E+01  0.17733677805E+03  0.00000000000E+00 0. -1.
          3    1    6    6  503    0 -0.27005823129E+03 -0.28111235152E+02  0.91900026627E+03  0.95827093206E+03  0.00000000000E+00 0. -1.
         -3    1    6    6    0  503 -0.29334622263E+03 -0.96676556788E+02  0.82445069681E+03  0.88040747068E+03  0.00000000000E+00 0.  1.
<mgrwt>
<rscale>  0 0.20870371E+04</rscale>
<asrwt>0</asrwt>
<pdfrwt beam="1">  1        2 0.33595005E+00 0.20870371E+04</pdfrwt>
<pdfrwt beam="2">  1       -2 0.76718291E-01 0.20870371E+04</pdfrwt>
<totfact> 0.73870703E+00</totfact>
</mgrwt>
</event>
<event>
12    3  0.4634846E-008  0.1535799E+04  0.7818608E-02  0.8860990E-01
         -1   -1    0    0    0  501 -0.00000000000E+00  0.00000000000E+00  0.50082331486E+03  0.50082331486E+03  0.00000000000E+00 0.  1.
          1   -1    0    0  501    0  0.00000000000E+00 -0.00000000000E+00 -0.11774001494E+04  0.11774001494E+04  0.00000000000E+00 0. -1.
         23    2    1    2    0    0 -0.90000679472E+02 -0.37615943004E+03 -0.55361087223E+03  0.68149665145E+03  0.91414708747E+02 0.  0.
        254    2    1    2    0    0  0.90000679472E+02  0.37615943004E+03 -0.12296596227E+03  0.99672681277E+03  0.91035579435E+03 0.  0.
         23    2    4    4    0    0 -0.41035058477E+00  0.59073584823E+03 -0.31981871553E+03  0.67856294658E+03  0.95888742257E+02 0.  0.
         23    2    4    4    0    0  0.90411030057E+02 -0.21457641819E+03  0.19685275326E+03  0.31816386619E+03  0.90884793478E+02 0.  0.
          3    1    3    3  502    0 -0.72845978365E+02 -0.16199068508E+03 -0.19775417511E+03  0.26580863867E+03  0.00000000000E+00 0. -1.
         -3    1    3    3    0  502 -0.17154701107E+02 -0.21416874496E+03 -0.35585669711E+03  0.41568801278E+03  0.00000000000E+00 0.  1.
         13    1    5    5    0    0  0.33872958223E+01  0.15238567896E+02 -0.30861193103E+02  0.34584692629E+02  0.00000000000E+00 0. -1.
        -13    1    5    5    0    0 -0.37976464070E+01  0.57549728034E+03 -0.28895752242E+03  0.64397825395E+03  0.00000000000E+00 0.  1.
          3    1    6    6  503    0  0.21349160203E+01  0.50999260554E+01  0.25032999876E+02  0.25636267181E+02  0.00000000000E+00 0. -1.
         -3    1    6    6    0  503  0.88276114036E+02 -0.21967634425E+03  0.17181975338E+03  0.29252759901E+03  0.00000000000E+00 0.  1.
<mgrwt>
<rscale>  0 0.15357987E+04</rscale>
<asrwt>0</asrwt>
<pdfrwt beam="1">  1        1 0.18113848E+00 0.15357987E+04</pdfrwt>
<pdfrwt beam="2">  1       -1 0.77049741E-01 0.15357987E+04</pdfrwt>
<totfact> 0.18092108E+01</totfact>
</mgrwt>
</event>
<event>
12    3  0.4634846E-008  0.1882582E+04  0.7818608E-02  0.8663575E-01
          2   -1    0    0  501    0  0.00000000000E+00  0.00000000000E+00  0.10360637250E+04  0.10360637250E+04  0.00000000000E+00 0. -1.
         -2   -1    0    0    0  501 -0.00000000000E+00 -0.00000000000E+00 -0.85518779551E+03  0.85518779551E+03  0.00000000000E+00 0.  1.
         23    2    1    2    0    0  0.14609776161E+03  0.69736276177E+03 -0.37855606329E+02  0.71964742646E+03  0.93808283354E+02 0.  0.
        254    2    1    2    0    0 -0.14609776161E+03 -0.69736276177E+03  0.21873153584E+03  0.11716040941E+04  0.90396531518E+03 0.  0.
         23    2    4    4    0    0  0.34790940255E+03 -0.11738163925E+03  0.12913562777E+03  0.39920272067E+03  0.88698366466E+02 0.  0.
         23    2    4    4    0    0 -0.49400716416E+03 -0.57998112252E+03  0.89595908072E+02  0.77240137342E+03  0.90306556777E+02 0.  0.
          1    1    3    3  502    0  0.34340599397E+02  0.25454623927E+03  0.27392136499E+02  0.25830871808E+03  0.00000000000E+00 0. -1.
         -1    1    3    3    0  502  0.11175716221E+03  0.44281652250E+03 -0.65247742827E+02  0.46133870838E+03  0.00000000000E+00 0.  1.
         13    1    5    5    0    0  0.10895043610E+03 -0.65428854324E+01  0.68627027437E+02  0.12892895630E+03  0.00000000000E+00 0.  1.
        -13    1    5    5    0    0  0.23895896644E+03 -0.11083875382E+03  0.60508600332E+02  0.27027376437E+03  0.00000000000E+00 0. -1.
          4    1    6    6  503    0 -0.33374264169E+03 -0.37048295507E+03  0.99396986001E+02  0.50845012706E+03  0.00000000000E+00 0. -1.
         -4    1    6    6    0  503 -0.16026452247E+03 -0.20949816745E+03 -0.98010779286E+01  0.26395124636E+03  0.00000000000E+00 0.  1.
<mgrwt>
<rscale>  0 0.18825823E+04</rscale>
<asrwt>0</asrwt>
<pdfrwt beam="1">  1        2 0.15939442E+00 0.18825823E+04</pdfrwt>
<pdfrwt beam="2">  1       -2 0.13156735E+00 0.18825823E+04</pdfrwt>
<totfact> 0.94386556E+00</totfact>
</mgrwt>
</event>
<event>
12    3  0.4634846E-008  0.1149980E+04  0.7818608E-02  0.9157802E-01
         -2   -1    0    0    0  501 -0.00000000000E+00  0.00000000000E+00  0.30037767152E+03  0.30037767152E+03  0.00000000000E+00 0.  1.
          2   -1    0    0  501    0  0.00000000000E+00 -0.00000000000E+00 -0.11006595919E+04  0.11006595919E+04  0.00000000000E+00 0. -1.
         23    2    1    2    0    0  0.15481015080E+03  0.77274126508E+02 -0.20554644294E+03  0.28357904942E+03  0.90720800509E+02 0.  0.
        254    2    1    2    0    0 -0.15481015080E+03 -0.77274126508E+02 -0.59473547740E+03  0.11174582140E+04  0.93008875838E+03 0.  0.
         23    2    4    4    0    0 -0.67317444127E+02 -0.14455618977E+03 -0.82722372850E+03  0.84715395812E+03  0.89121274038E+02 0.  0.
         23    2    4    4    0    0 -0.87492706670E+02  0.67282063260E+02  0.23248825110E+03  0.27030425584E+03  0.82654425604E+02 0.  0.
          4    1    3    3  502    0  0.70123897565E+01  0.66783481642E+01  0.92945313593E+01  0.13422453482E+02  0.00000000000E+00 0.  1.
         -4    1    3    3    0  502  0.14779776104E+03  0.70595778344E+02 -0.21484097430E+03  0.27015659593E+03  0.00000000000E+00 0. -1.
         13    1    5    5    0    0 -0.84489466164E+02 -0.86802163125E+02 -0.59787903776E+03  0.61002658074E+03  0.00000000000E+00 0. -1.
        -13    1    5    5    0    0  0.17172022036E+02 -0.57754026642E+02 -0.22934469074E+03  0.23712737738E+03  0.00000000000E+00 0.  1.
          2    1    6    6  503    0 -0.47187224182E+02  0.80822567286E+02  0.17885636292E+03  0.20186262672E+03  0.00000000000E+00 0. -1.
         -2    1    6    6    0  503 -0.40305482487E+02 -0.13540504027E+02  0.53631888180E+02  0.68441629127E+02  0.00000000000E+00 0.  1.
<mgrwt>
<rscale>  0 0.11499801E+04</rscale>
<asrwt>0</asrwt>
<pdfrwt beam="1">  1        2 0.16933224E+00 0.11499801E+04</pdfrwt>
<pdfrwt beam="2">  1       -2 0.46211950E-01 0.11499801E+04</pdfrwt>
<totfact> 0.95617482E+01</totfact>
</mgrwt>
</event>
<event>
12    3  0.4634846E-008  0.2343160E+04  0.7818608E-02  0.8461096E-01
         -1   -1    0    0    0  501 -0.00000000000E+00  0.00000000000E+00  0.14054063479E+04  0.14054063479E+04  0.00000000000E+00 0.  1.
          1   -1    0    0  501    0  0.00000000000E+00 -0.00000000000E+00 -0.97665677715E+03  0.97665677715E+03  0.00000000000E+00 0. -1.
         23    2    1    2    0    0  0.31388659647E+03  0.13305776612E+03  0.11348104918E+04  0.11884050513E+04  0.91008511259E+02 0.  0.
        254    2    1    2    0    0 -0.31388659647E+03 -0.13305776612E+03 -0.70606092097E+03  0.11936580738E+04  0.90003800391E+03 0.  0.
         23    2    4    4    0    0 -0.40922745311E+03 -0.29487977612E+03 -0.81060252034E+03  0.95947056025E+03  0.95321137568E+02 0.  0.
         23    2    4    4    0    0  0.95340856637E+02  0.16182201000E+03  0.10454159937E+03  0.23418751356E+03  0.92944088807E+02 0.  0.
          1    1    3    3  502    0  0.60517112406E+02  0.45453666035E+02  0.15366578085E+03  0.17129369181E+03  0.00000000000E+00 0. -1.
         -1    1    3    3    0  502  0.25336948406E+03  0.87604100082E+02  0.98114471091E+03  0.10171113595E+04  0.00000000000E+00 0.  1.
         13    1    5    5    0    0 -0.18057758388E+03 -0.76326248608E+02 -0.33937939414E+03  0.39193409292E+03  0.00000000000E+00 0. -1.
        -13    1    5    5    0    0 -0.22864986923E+03 -0.21855352751E+03 -0.47122312620E+03  0.56753646733E+03  0.00000000000E+00 0.  1.
          4    1    6    6  503    0  0.44452770247E+02  0.15116082729E+03  0.77956977954E+02  0.17579230615E+03  0.00000000000E+00 0.  1.
         -4    1    6    6    0  503  0.50888086390E+02  0.10661182716E+02  0.26584621416E+02  0.58395207416E+02  0.00000000000E+00 0. -1.
<mgrwt>
<rscale>  0 0.23431599E+04</rscale>
<asrwt>0</asrwt>
<pdfrwt beam="1">  1        1 0.15025489E+00 0.23431599E+04</pdfrwt>
<pdfrwt beam="2">  1       -1 0.21621636E+00 0.23431599E+04</pdfrwt>
<totfact> 0.16585846E+00</totfact>
</mgrwt>
</event>
<event>
12    3  0.4634846E-008  0.1422168E+04  0.7818608E-02  0.8937927E-01
          1   -1    0    0  501    0  0.00000000000E+00  0.00000000000E+00  0.15033645303E+04  0.15033645303E+04  0.00000000000E+00 0. -1.
         -1   -1    0    0    0  501 -0.00000000000E+00 -0.00000000000E+00 -0.33633907214E+03  0.33633907214E+03  0.00000000000E+00 0.  1.
         23    2    1    2    0    0 -0.17993993298E+03  0.17224950459E+03 -0.87003690892E+02  0.27744454504E+03  0.85776232318E+02 0.  0.
        254    2    1    2    0    0  0.17993993298E+03 -0.17224950459E+03  0.12540291490E+04  0.15622590574E+04  0.89778392971E+03 0.  0.
         23    2    4    4    0    0 -0.56923846332E+02  0.16945007155E+03 -0.36116346696E+02  0.20369367978E+03  0.90736286331E+02 0.  0.
         23    2    4    4    0    0  0.23686377931E+03 -0.34169957614E+03  0.12901454957E+04  0.13585653776E+04  0.91440881364E+02 0.  0.
          1    1    3    3  502    0 -0.42130866598E+02  0.40998507739E+01  0.23428341581E+01  0.42394664388E+02  0.00000000000E+00 0. -1.
         -1    1    3    3    0  502 -0.13780906638E+03  0.16814965381E+03 -0.89346525050E+02  0.23504988065E+03  0.00000000000E+00 0.  1.
         13    1    5    5    0    0 -0.60158670247E+01  0.31238331031E+02  0.28633196968E+02  0.42800513434E+02  0.00000000000E+00 0.  1.
        -13    1    5    5    0    0 -0.50907979307E+02  0.13821174052E+03 -0.64749543664E+02  0.16089316635E+03  0.00000000000E+00 0. -1.
          1    1    6    6  503    0  0.57150918509E+02 -0.42291841115E+02  0.31071146039E+03  0.31874196293E+03  0.00000000000E+00 0.  1.
         -1    1    6    6    0  503  0.17971286080E+03 -0.29940773502E+03  0.97943403533E+03  0.10398234147E+04  0.00000000000E+00 0. -1.
<mgrwt>
<rscale>  0 0.14221677E+04</rscale>
<asrwt>0</asrwt>
<pdfrwt beam="1">  1        1 0.23128685E+00 0.14221677E+04</pdfrwt>
<pdfrwt beam="2">  1       -1 0.51744474E-01 0.14221677E+04</pdfrwt>
<totfact> 0.23805110E+01</totfact>
</mgrwt>
</event>
<event>
12    3  0.4634846E-008  0.3705571E+04  0.7818608E-02  0.8066728E-01
         -2   -1    0    0    0  501 -0.00000000000E+00  0.00000000000E+00  0.14920560567E+04  0.14920560567E+04  0.00000000000E+00 0.  1.
          2   -1    0    0  501    0  0.00000000000E+00 -0.00000000000E+00 -0.23007271717E+04  0.23007271717E+04  0.00000000000E+00 0. -1.
         23    2    1    2    0    0  0.10134325254E+04 -0.40614735852E+03 -0.17369618113E+04  0.20536413489E+04  0.91680399416E+02 0.  0.
        254    2    1    2    0    0 -0.10134325254E+04  0.40614735852E+03  0.92829069632E+03  0.17391418795E+04  0.98533735339E+03 0.  0.
         23    2    4    4    0    0 -0.27661948882E+03  0.26136295966E+03  0.90093995062E+03  0.98222882076E+03  0.90838997303E+02 0.  0.
         23    2    4    4    0    0 -0.73681303654E+03  0.14478439886E+03  0.27350745701E+02  0.75691305877E+03  0.91177531674E+02 0.  0.
          4    1    3    3  502    0  0.71057226731E+03 -0.32848086450E+03 -0.12259315131E+04  0.14545517179E+04  0.00000000000E+00 0. -1.
         -4    1    3    3    0  502  0.30286025805E+03 -0.77666494022E+02 -0.51103029821E+03  0.59908963093E+03  0.00000000000E+00 0.  1.
         13    1    5    5    0    0 -0.47463923065E+02  0.85807975536E+02  0.16852485928E+03  0.19497810353E+03  0.00000000000E+00 0. -1.
        -13    1    5    5    0    0 -0.22915556575E+03  0.17555498413E+03  0.73241509134E+03  0.78725071724E+03  0.00000000000E+00 0.  1.
          3    1    6    6  503    0 -0.95639843448E+02  0.36490085621E+02 -0.22301610629E+02  0.10476577609E+03  0.00000000000E+00 0. -1.
         -3    1    6    6    0  503 -0.64117319309E+03  0.10829431324E+03  0.49652356330E+02  0.65214728268E+03  0.00000000000E+00 0.  1.
<mgrwt>
<rscale>  0 0.37055709E+04</rscale>
<asrwt>0</asrwt>
<pdfrwt beam="1">  1        2 0.35395803E+00 0.37055709E+04</pdfrwt>
<pdfrwt beam="2">  1       -2 0.22954709E+00 0.37055709E+04</pdfrwt>
<totfact> 0.31497210E-01</totfact>
</mgrwt>
</event>
<event>
12    3  0.4634846E-008  0.1565672E+04  0.7818608E-02  0.8841919E-01
         -2   -1    0    0    0  501 -0.00000000000E+00  0.00000000000E+00  0.10473992586E+04  0.10473992586E+04  0.00000000000E+00 0. -1.
          2   -1    0    0  501    0  0.00000000000E+00 -0.00000000000E+00 -0.58509924085E+03  0.58509924085E+03  0.00000000000E+00 0.  1.
         23    2    1    2    0    0  0.21549889785E+02  0.10917080233E+03  0.67281733885E+03  0.68793830309E+03  0.90516714358E+02 0.  0.
        254    2    1    2    0    0 -0.21549889785E+02 -0.10917080233E+03 -0.21051732110E+03  0.94456019634E+03  0.91405347776E+03 0.  0.
         23    2    4    4    0    0 -0.39081477615E+03 -0.22601739728E+03 -0.28374742070E+03  0.54101672134E+03  0.91468250665E+02 0.  0.
         23    2    4    4    0    0  0.36926488637E+03  0.11684659495E+03  0.73230099598E+02  0.40354347501E+03  0.86458115156E+02 0.  0.
          3    1    3    3  502    0  0.26825965967E+02  0.12423596240E+03  0.58050549168E+03  0.59425653776E+03  0.00000000000E+00 0. -1.
         -3    1    3    3    0  502 -0.52760761824E+01 -0.15065160072E+02  0.92311847165E+02  0.93681765328E+02  0.00000000000E+00 0.  1.
         13    1    5    5    0    0 -0.40553004372E+02 -0.10935527755E+02 -0.78947866400E+00  0.42008989603E+02  0.00000000000E+00 0. -1.
        -13    1    5    5    0    0 -0.35026177178E+03 -0.21508186952E+03 -0.28295794204E+03  0.49900773173E+03  0.00000000000E+00 0.  1.
          4    1    6    6  503    0  0.31768566169E+03  0.10843802573E+03  0.91922014315E+02  0.34804114955E+03  0.00000000000E+00 0.  1.
         -4    1    6    6    0  503  0.51579224683E+02  0.84085692231E+01 -0.18691914716E+02  0.55502325456E+02  0.00000000000E+00 0. -1.
<mgrwt>
<rscale>  0 0.15656724E+04</rscale>
<asrwt>0</asrwt>
<pdfrwt beam="1">  1        2 0.90015268E-01 0.15656724E+04</pdfrwt>
<pdfrwt beam="2">  1       -2 0.16113835E+00 0.15656724E+04</pdfrwt>
<totfact> 0.12133943E+01</totfact>
</mgrwt>
</event>
<event>
12    3  0.4634846E-008  0.1466755E+04  0.7818608E-02  0.8906866E-01
          2   -1    0    0  501    0  0.00000000000E+00  0.00000000000E+00  0.22771974352E+04  0.22771974352E+04  0.00000000000E+00 0. -1.
         -2   -1    0    0    0  501 -0.00000000000E+00 -0.00000000000E+00 -0.23618621019E+03  0.23618621019E+03  0.00000000000E+00 0.  1.
         23    2    1    2    0    0  0.39482558796E+02 -0.44022399423E+03  0.47917996357E+03  0.65829435375E+03  0.91553160218E+02 0.  0.
        254    2    1    2    0    0 -0.39482558796E+02  0.44022399423E+03  0.15618312615E+04  0.18550892917E+04  0.89815552843E+03 0.  0.
         23    2    4    4    0    0 -0.11022776625E+03  0.52811890174E+03  0.16117598839E+04  0.17019506217E+04  0.88353043695E+02 0.  0.
         23    2    4    4    0    0  0.70745207456E+02 -0.87894907511E+02 -0.49928622483E+02  0.15313866998E+03  0.90709347684E+02 0.  0.
          2    1    3    3  502    0  0.21245867541E+02 -0.25937215218E+03  0.34605860544E+03  0.43299175352E+03  0.00000000000E+00 0. -1.
         -2    1    3    3    0  502  0.18236691255E+02 -0.18085184205E+03  0.13312135812E+03  0.22530260023E+03  0.00000000000E+00 0.  1.
         13    1    5    5    0    0 -0.18885288616E+02  0.16928264188E+03  0.63214602650E+03  0.65469219163E+03  0.00000000000E+00 0. -1.
        -13    1    5    5    0    0 -0.91342477636E+02  0.35883625987E+03  0.97961385745E+03  0.10472584301E+04  0.00000000000E+00 0.  1.
          1    1    6    6  503    0 -0.20427861307E+02 -0.28591313602E+02 -0.51344358867E+01  0.35512295940E+02  0.00000000000E+00 0. -1.
         -1    1    6    6    0  503  0.91173068762E+02 -0.59303593909E+02 -0.44794186596E+02  0.11762637404E+03  0.00000000000E+00 0.  1.
<mgrwt>
<rscale>  0 0.14667551E+04</rscale>
<asrwt>0</asrwt>
<pdfrwt beam="1">  1        2 0.35033805E+00 0.14667551E+04</pdfrwt>
<pdfrwt beam="2">  1       -2 0.36336342E-01 0.14667551E+04</pdfrwt>
<totfact> 0.32301329E+01</totfact>
</mgrwt>
</event>
<event>
12    3  0.4634846E-008  0.2075925E+04  0.7818608E-02  0.8571923E-01
          1   -1    0    0  501    0  0.00000000000E+00  0.00000000000E+00  0.24224864327E+04  0.24224864327E+04  0.00000000000E+00 0. -1.
         -1   -1    0    0    0  501 -0.00000000000E+00 -0.00000000000E+00 -0.44473581582E+03  0.44473581582E+03  0.00000000000E+00 0.  1.
         23    2    1    2    0    0  0.12162474377E+03 -0.78409967312E+03  0.39544203493E+03  0.89170008693E+03  0.95654411100E+02 0.  0.
        254    2    1    2    0    0 -0.12162474377E+03  0.78409967312E+03  0.15823085820E+04  0.19755221616E+04  0.87714450734E+03 0.  0.
         23    2    4    4    0    0  0.26544821763E+03  0.13940323218E+03  0.91318883209E+03  0.96492461622E+03  0.85262269209E+02 0.  0.
         23    2    4    4    0    0 -0.38707296140E+03  0.64469644094E+03  0.66911974990E+03  0.10105975454E+04  0.90150877266E+02 0.  0.
          2    1    3    3  502    0  0.10089163314E+03 -0.42617081056E+03  0.25401887350E+03  0.50628674633E+03  0.00000000000E+00 0. -1.
         -2    1    3    3    0  502  0.20733110633E+02 -0.35792886255E+03  0.14142316143E+03  0.38541334060E+03  0.00000000000E+00 0.  1.
         13    1    5    5    0    0  0.24209619448E+03  0.92215525854E+02  0.75925337976E+03  0.80223435807E+03  0.00000000000E+00 0. -1.
        -13    1    5    5    0    0  0.23352023149E+02  0.47187706325E+02  0.15393545233E+03  0.16269025815E+03  0.00000000000E+00 0.  1.
          1    1    6    6  503    0 -0.32864091398E+03  0.59866290577E+03  0.60611973612E+03  0.91311733069E+03  0.00000000000E+00 0. -1.
         -1    1    6    6    0  503 -0.58432047418E+02  0.46033535169E+02  0.63000013782E+02  0.97480214722E+02  0.00000000000E+00 0.  1.
<mgrwt>
<rscale>  0 0.20759253E+04</rscale>
<asrwt>0</asrwt>
<pdfrwt beam="1">  1        1 0.37269021E+00 0.20759253E+04</pdfrwt>
<pdfrwt beam="2">  1       -1 0.68420896E-01 0.20759253E+04</pdfrwt>
<totfact> 0.30550934E+00</totfact>
</mgrwt>
</event>
<event>
12    3  0.4634846E-008  0.1290809E+04  0.7818608E-02  0.9036886E-01
          2   -1    0    0  501    0  0.00000000000E+00  0.00000000000E+00  0.33030261792E+03  0.33030261792E+03  0.00000000000E+00 0. -1.
         -2   -1    0    0    0  501 -0.00000000000E+00 -0.00000000000E+00 -0.12611063915E+04  0.12611063915E+04  0.00000000000E+00 0.  1.
         23    2    1    2    0    0  0.29550034584E+03 -0.39230902183E+02 -0.38694211438E+03  0.49681352707E+03  0.90774240437E+02 0.  0.
        254    2    1    2    0    0 -0.29550034584E+03  0.39230902183E+02 -0.54386165917E+03  0.10945954823E+04  0.90193915954E+03 0.  0.
         23    2    4    4    0    0 -0.41408953207E+03  0.17630199687E+03  0.54979423488E+02  0.46161357794E+03  0.86670777420E+02 0.  0.
         23    2    4    4    0    0  0.11858918622E+03 -0.13707109469E+03 -0.59884108266E+03  0.63298190439E+03  0.95935232885E+02 0.  0.
          4    1    3    3  502    0 -0.76585846137E-01 -0.10436363039E+02 -0.33923341100E+02  0.35492486674E+02  0.00000000000E+00 0. -1.
         -4    1    3    3    0  502  0.29557693169E+03 -0.28794539144E+02 -0.35301877328E+03  0.46132104040E+03  0.00000000000E+00 0.  1.
         13    1    5    5    0    0 -0.76788173193E+02  0.41939597585E+02 -0.22542237712E+02  0.90352121552E+02  0.00000000000E+00 0.  1.
        -13    1    5    5    0    0 -0.33730135887E+03  0.13436239929E+03  0.77521661200E+02  0.37126145638E+03  0.00000000000E+00 0. -1.
          2    1    6    6  503    0  0.10693168494E+03 -0.15216115779E+03 -0.53999678222E+03  0.57112514215E+03  0.00000000000E+00 0. -1.
         -2    1    6    6    0  503  0.11657501281E+02  0.15090063097E+02 -0.58844300440E+02  0.61856762239E+02  0.00000000000E+00 0.  1.
<mgrwt>
<rscale>  0 0.12908086E+04</rscale>
<asrwt>0</asrwt>
<pdfrwt beam="1">  1        2 0.50815787E-01 0.12908086E+04</pdfrwt>
<pdfrwt beam="2">  1       -2 0.19401637E+00 0.12908086E+04</pdfrwt>
<totfact> 0.14076519E+01</totfact>
</mgrwt>
</event>
<event>
12    3  0.4634846E-008  0.1157610E+04  0.7818608E-02  0.9150792E-01
          2   -1    0    0  501    0  0.00000000000E+00  0.00000000000E+00  0.95491273298E+03  0.95491273298E+03  0.00000000000E+00 0. -1.
         -2   -1    0    0    0  501 -0.00000000000E+00 -0.00000000000E+00 -0.35083314162E+03  0.35083314162E+03  0.00000000000E+00 0.  1.
         23    2    1    2    0    0  0.34565415325E+02  0.11697046048E+02 -0.11514089477E+03  0.14957079039E+03  0.88217950927E+02 0.  0.
        254    2    1    2    0    0 -0.34565415325E+02 -0.11697046048E+02  0.71922048613E+03  0.11561750842E+04  0.90450601371E+03 0.  0.
         23    2    4    4    0    0 -0.18875046537E+03  0.38712772325E+03  0.50302123253E+03  0.66838514981E+03  0.90629663027E+02 0.  0.
         23    2    4    4    0    0  0.15418505004E+03 -0.39882476930E+03  0.21619925360E+03  0.48778993439E+03  0.91447671245E+02 0.  0.
          3    1    3    3  502    0  0.20301821581E+02  0.43694124061E+01  0.10250096156E+02  0.23158587943E+02  0.00000000000E+00 0. -1.
         -3    1    3    3    0  502  0.14263593743E+02  0.73276336415E+01 -0.12539099093E+03  0.12641220245E+03  0.00000000000E+00 0.  1.
         13    1    5    5    0    0 -0.17026807092E+03  0.26594474366E+03  0.38828088534E+03  0.50047963852E+03  0.00000000000E+00 0. -1.
        -13    1    5    5    0    0 -0.18482394451E+02  0.12118297959E+03  0.11474034720E+03  0.16790551129E+03  0.00000000000E+00 0.  1.
          3    1    6    6  503    0  0.14472975539E+03 -0.26049582465E+03  0.13546958322E+03  0.32734810941E+03  0.00000000000E+00 0. -1.
         -3    1    6    6    0  503  0.94552946489E+01 -0.13832894465E+03  0.80729670379E+02  0.16044182499E+03  0.00000000000E+00 0.  1.
<mgrwt>
<rscale>  0 0.11576097E+04</rscale>
<asrwt>0</asrwt>
<pdfrwt beam="1">  1        2 0.14690965E+00 0.11576097E+04</pdfrwt>
<pdfrwt beam="2">  1       -2 0.53974330E-01 0.11576097E+04</pdfrwt>
<totfact> 0.86200418E+01</totfact>
</mgrwt>
</event>
<event>
12    3  0.4634846E-008  0.1728183E+04  0.7818608E-02  0.8745452E-01
         -1   -1    0    0    0  501 -0.00000000000E+00  0.00000000000E+00  0.19190303837E+04  0.19190303837E+04  0.00000000000E+00 0.  1.
          1   -1    0    0  501    0  0.00000000000E+00 -0.00000000000E+00 -0.38907871963E+03  0.38907871963E+03  0.00000000000E+00 0. -1.
         23    2    1    2    0    0  0.22348961839E+03 -0.26552595983E+03  0.12575518364E+04  0.13077226468E+04  0.90830913290E+02 0.  0.
        254    2    1    2    0    0 -0.22348961839E+03  0.26552595983E+03  0.27239982764E+03  0.10003864565E+04  0.89784171846E+03 0.  0.
         23    2    4    4    0    0 -0.52369882667E+02  0.52281850018E+03  0.38324719287E+03  0.65695660399E+03  0.92907372920E+02 0.  0.
         23    2    4    4    0    0 -0.17111973573E+03 -0.25729254036E+03 -0.11084736523E+03  0.34342985252E+03  0.10087373268E+03 0.  0.
          4    1    3    3  502    0 -0.45865672112E+01 -0.23619399407E+01  0.69291869653E+02  0.69483656777E+02  0.00000000000E+00 0. -1.
         -4    1    3    3    0  502  0.22807618560E+03 -0.26316401989E+03  0.11882599668E+04  0.12382389900E+04  0.00000000000E+00 0.  1.
         13    1    5    5    0    0 -0.23128285479E+02  0.47062982903E+03  0.31815907523E+03  0.56855303246E+03  0.00000000000E+00 0.  1.
        -13    1    5    5    0    0 -0.29241597188E+02  0.52188671151E+02  0.65088117637E+02  0.88403571535E+02  0.00000000000E+00 0. -1.
          4    1    6    6  503    0 -0.71407110706E+02 -0.15007225255E+03 -0.11713315527E+02  0.16660689723E+03  0.00000000000E+00 0. -1.
         -4    1    6    6    0  503 -0.99712625020E+02 -0.10722028780E+03 -0.99134049705E+02  0.17682295529E+03  0.00000000000E+00 0.  1.
<mgrwt>
<rscale>  0 0.17281827E+04</rscale>
<asrwt>0</asrwt>
<pdfrwt beam="1">  1        1 0.59858266E-01 0.17281827E+04</pdfrwt>
<pdfrwt beam="2">  1       -1 0.29523544E+00 0.17281827E+04</pdfrwt>
<totfact> 0.20983008E+00</totfact>
</mgrwt>
</event>
<event>
12    3  0.4634846E-008  0.1605056E+04  0.7818608E-02  0.8817448E-01
         -1   -1    0    0    0  501 -0.00000000000E+00  0.00000000000E+00  0.71198334723E+03  0.71198334723E+03  0.00000000000E+00 0.  1.
          1   -1    0    0  501    0  0.00000000000E+00 -0.00000000000E+00 -0.90458694753E+03  0.90458694753E+03  0.00000000000E+00 0. -1.
         23    2    1    2    0    0  0.11342502668E+03 -0.60924192740E+02  0.47388876763E+03  0.49925236854E+03  0.90029825452E+02 0.  0.
        254    2    1    2    0    0 -0.11342502668E+03  0.60924192740E+02 -0.66649236793E+03  0.11173179262E+04  0.88747409979E+03 0.  0.
         23    2    4    4    0    0 -0.15849825460E+03 -0.20083692997E+03  0.10810555999E+03  0.29322188939E+03  0.93995186941E+02 0.  0.
         23    2    4    4    0    0  0.45073227917E+02  0.26176112271E+03 -0.77459792792E+03  0.82409603682E+03  0.92638257383E+02 0.  0.
          4    1    3    3  502    0  0.21624805858E+02  0.16380047493E+02  0.35183635343E+02  0.44427765870E+02  0.00000000000E+00 0. -1.
         -4    1    3    3    0  502  0.91800220822E+02 -0.77304240233E+02  0.43870513229E+03  0.45482460267E+03  0.00000000000E+00 0.  1.
         13    1    5    5    0    0 -0.12079967226E+03 -0.15973600322E+03  0.12359692722E+03  0.23533880250E+03  0.00000000000E+00 0. -1.
        -13    1    5    5    0    0 -0.37698582340E+02 -0.41100926752E+02 -0.15491367227E+02  0.57883086899E+02  0.00000000000E+00 0.  1.
          4    1    6    6  503    0  0.17859443650E+02  0.24994304100E+03 -0.71238299388E+03  0.75516886419E+03  0.00000000000E+00 0. -1.
         -4    1    6    6    0  503  0.27213784268E+02  0.11818081707E+02 -0.62214934037E+02  0.68927172629E+02  0.00000000000E+00 0.  1.
<mgrwt>
<rscale>  0 0.16050556E+04</rscale>
<asrwt>0</asrwt>
<pdfrwt beam="1">  1        1 0.13916722E+00 0.16050556E+04</pdfrwt>
<pdfrwt beam="2">  1       -1 0.10953590E+00 0.16050556E+04</pdfrwt>
<totfact> 0.13341250E+01</totfact>
</mgrwt>
</event>
<event>
12    3  0.4634846E-008  0.1701579E+04  0.7818608E-02  0.8760464E-01
          2   -1    0    0  501    0  0.00000000000E+00  0.00000000000E+00  0.13825249116E+04  0.13825249116E+04  0.00000000000E+00 0. -1.
         -2   -1    0    0    0  501 -0.00000000000E+00 -0.00000000000E+00 -0.52356596728E+03  0.52356596728E+03  0.00000000000E+00 0.  1.
         23    2    1    2    0    0  0.24075100141E+03 -0.32532362485E+03  0.82767837883E+03  0.92581570766E+03  0.91031424246E+02 0.  0.
        254    2    1    2    0    0 -0.24075100141E+03  0.32532362485E+03  0.31280565515E+02  0.98027517124E+03  0.89228046711E+03 0.  0.
         23    2    4    4    0    0  0.12180545436E+03 -0.23091328717E+03 -0.10329359557E+03  0.29675515948E+03  0.96106934657E+02 0.  0.
         23    2    4    4    0    0 -0.36255645577E+03  0.55623691202E+03  0.13457416109E+03  0.68352001176E+03  0.90789403175E+02 0.  0.
          4    1    3    3  502    0  0.22439727619E+03 -0.24505456270E+03  0.64276194647E+03  0.72356671848E+03  0.00000000000E+00 0. -1.
         -4    1    3    3    0  502  0.16353725217E+02 -0.80269062154E+02  0.18491643236E+03  0.20224898918E+03  0.00000000000E+00 0.  1.
         13    1    5    5    0    0  0.47347892079E+02 -0.16165970990E+03 -0.29258632670E+02  0.17097295773E+03  0.00000000000E+00 0. -1.
        -13    1    5    5    0    0  0.74457562277E+02 -0.69253577268E+02 -0.74034962904E+02  0.12578220175E+03  0.00000000000E+00 0.  1.
          2    1    6    6  503    0 -0.16014231531E+03  0.32847298855E+03  0.73788019314E+02  0.37280656802E+03  0.00000000000E+00 0. -1.
         -2    1    6    6    0  503 -0.20241414046E+03  0.22776392347E+03  0.60786141775E+02  0.31071344374E+03  0.00000000000E+00 0.  1.
<mgrwt>
<rscale>  0 0.17015793E+04</rscale>
<asrwt>0</asrwt>
<pdfrwt beam="1">  1        2 0.21269614E+00 0.17015793E+04</pdfrwt>
<pdfrwt beam="2">  1       -2 0.80548611E-01 0.17015793E+04</pdfrwt>
<totfact> 0.19179061E+01</totfact>
</mgrwt>
</event>
<event>
12    3  0.4634846E-008  0.1577039E+04  0.7818608E-02  0.8834779E-01
         -1   -1    0    0    0  501 -0.00000000000E+00  0.00000000000E+00  0.94195612975E+03  0.94195612975E+03  0.00000000000E+00 0.  1.
          1   -1    0    0  501    0  0.00000000000E+00 -0.00000000000E+00 -0.66007678984E+03  0.66007678984E+03  0.00000000000E+00 0. -1.
         23    2    1    2    0    0  0.12935705203E+03 -0.29547867881E+03  0.51781255053E+03  0.61711592916E+03  0.93066298918E+02 0.  0.
        254    2    1    2    0    0 -0.12935705203E+03  0.29547867881E+03 -0.23593321063E+03  0.98491699042E+03  0.90019781249E+03 0.  0.
         23    2    4    4    0    0  0.36270047757E+03  0.20056604988E+02 -0.24351883084E+02  0.37564013112E+03  0.92512648160E+02 0.  0.
         23    2    4    4    0    0 -0.49205752960E+03  0.27542207382E+03 -0.21158132754E+03  0.60927685930E+03  0.92052712795E+02 0.  0.
          1    1    3    3  502    0 -0.14343203333E+02 -0.18391430590E+02  0.42472512885E+02  0.48454995117E+02  0.00000000000E+00 0. -1.
         -1    1    3    3    0  502  0.14370025536E+03 -0.27708724822E+03  0.47534003765E+03  0.56866093404E+03  0.00000000000E+00 0.  1.
         13    1    5    5    0    0  0.65994214114E+02 -0.22286988212E+02  0.20454139164E+02  0.72596955508E+02  0.00000000000E+00 0. -1.
        -13    1    5    5    0    0  0.29670626345E+03  0.42343593200E+02 -0.44806022248E+02  0.30304317562E+03  0.00000000000E+00 0.  1.
          4    1    6    6  503    0 -0.76024198291E+02  0.42084356278E+02 -0.70361067864E+02  0.11180989062E+03  0.00000000000E+00 0. -1.
         -4    1    6    6    0  503 -0.41603333130E+03  0.23333771754E+03 -0.14122025968E+03  0.49746696868E+03  0.00000000000E+00 0.  1.
<mgrwt>
<rscale>  0 0.15770395E+04</rscale>
<asrwt>0</asrwt>
<pdfrwt beam="1">  1        1 0.10155028E+00 0.15770395E+04</pdfrwt>
<pdfrwt beam="2">  1       -1 0.14491633E+00 0.15770395E+04</pdfrwt>
<totfact> 0.10951603E+01</totfact>
</mgrwt>
</event>
<event>
12    3  0.4634846E-008  0.1189260E+04  0.7818608E-02  0.9122309E-01
          2   -1    0    0  501    0  0.00000000000E+00  0.00000000000E+00  0.32740673697E+03  0.32740673697E+03  0.00000000000E+00 0.  1.
         -2   -1    0    0    0  501 -0.00000000000E+00 -0.00000000000E+00 -0.10799559906E+04  0.10799559906E+04  0.00000000000E+00 0. -1.
         23    2    1    2    0    0 -0.19696355159E+03 -0.58972874395E+01  0.34855313577E+01  0.22112256008E+03  0.10026773653E+03 0.  0.
        254    2    1    2    0    0  0.19696355159E+03  0.58972874395E+01 -0.75603478502E+03  0.11862401675E+04  0.89260725980E+03 0.  0.
         23    2    4    4    0    0  0.16130064710E+03  0.19558982863E+03 -0.89062915636E+03  0.93034884387E+03  0.89751865262E+02 0.  0.
         23    2    4    4    0    0  0.35662904500E+02 -0.18969254119E+03  0.13459437134E+03  0.25589132365E+03  0.10054661497E+03 0.  0.
          2    1    3    3  502    0 -0.12352913152E+03 -0.51579875625E+02  0.10976270959E+02  0.13431458754E+03  0.00000000000E+00 0.  1.
         -2    1    3    3    0  502 -0.73434420077E+02  0.45682588185E+02 -0.74907396013E+01  0.86807972532E+02  0.00000000000E+00 0. -1.
         13    1    5    5    0    0  0.11913531146E+03  0.18837254575E+03 -0.79366689405E+03  0.82436919953E+03  0.00000000000E+00 0. -1.
        -13    1    5    5    0    0  0.42165335639E+02  0.72172828769E+01 -0.96962262311E+02  0.10597964434E+03  0.00000000000E+00 0.  1.
          4    1    6    6  503    0  0.18769562652E+02 -0.13339754994E+03  0.14306787161E+03  0.19650857157E+03  0.00000000000E+00 0. -1.
         -4    1    6    6    0  503  0.16893341847E+02 -0.56294991250E+02 -0.84735002652E+01  0.59382752086E+02  0.00000000000E+00 0.  1.
<mgrwt>
<rscale>  0 0.11892601E+04</rscale>
<asrwt>0</asrwt>
<pdfrwt beam="1">  1        2 0.50370266E-01 0.11892601E+04</pdfrwt>
<pdfrwt beam="2">  1       -2 0.16614708E+00 0.11892601E+04</pdfrwt>
<totfact> 0.22306297E+01</totfact>
</mgrwt>
</event>
<event>
12    3  0.4634846E-008  0.3976661E+04  0.7818608E-02  0.8009271E-01
          2   -1    0    0  501    0  0.00000000000E+00  0.00000000000E+00  0.26042604443E+04  0.26042604443E+04  0.00000000000E+00 0. -1.
         -2   -1    0    0    0  501 -0.00000000000E+00 -0.00000000000E+00 -0.15180733473E+04  0.15180733473E+04  0.00000000000E+00 0.  1.
         23    2    1    2    0    0  0.29936741006E+03  0.81216366014E+03 -0.12209712590E+04  0.14994149036E+04  0.90794166674E+02 0.  0.
        254    2    1    2    0    0 -0.29936741006E+03 -0.81216366014E+03  0.23071583560E+04  0.26229188880E+04  0.89860622974E+03 0.  0.
         23    2    4    4    0    0 -0.28872354944E+02  0.18078787762E+03  0.51109596181E+03  0.55085498359E+03  0.93296630099E+02 0.  0.
         23    2    4    4    0    0 -0.27049505512E+03 -0.99295153776E+03  0.17960623942E+04  0.20720639044E+04  0.92132344145E+02 0.  0.
          4    1    3    3  502    0  0.10506544969E+03  0.26970729137E+03 -0.48369959071E+03  0.56368968927E+03  0.00000000000E+00 0. -1.
         -4    1    3    3    0  502  0.19430196037E+03  0.54245636878E+03 -0.73727166831E+03  0.93572521432E+03  0.00000000000E+00 0.  1.
         13    1    5    5    0    0  0.11201440109E+02  0.22677669311E+02  0.16855014443E+02  0.30394743917E+02  0.00000000000E+00 0.  1.
        -13    1    5    5    0    0 -0.40073795053E+02  0.15811020830E+03  0.49424094737E+03  0.52046023967E+03  0.00000000000E+00 0. -1.
          4    1    6    6  503    0 -0.18294549004E+02 -0.18497727787E+03  0.35864288010E+03  0.40395049115E+03  0.00000000000E+00 0. -1.
         -4    1    6    6    0  503 -0.25220050611E+03 -0.80797425989E+03  0.14374195141E+04  0.16681134132E+04  0.00000000000E+00 0.  1.
<mgrwt>
<rscale>  0 0.39766611E+04</rscale>
<asrwt>0</asrwt>
<pdfrwt beam="1">  1        2 0.40065545E+00 0.39766611E+04</pdfrwt>
<pdfrwt beam="2">  1       -2 0.23354975E+00 0.39766611E+04</pdfrwt>
<totfact> 0.19426710E-01</totfact>
</mgrwt>
</event>
<event>
12    3  0.4634846E-008  0.2008327E+04  0.7818608E-02  0.8602737E-01
          2   -1    0    0  501    0  0.00000000000E+00  0.00000000000E+00  0.18721427015E+04  0.18721427015E+04  0.00000000000E+00 0. -1.
         -2   -1    0    0    0  501 -0.00000000000E+00 -0.00000000000E+00 -0.53860435309E+03  0.53860435309E+03  0.00000000000E+00 0.  1.
         23    2    1    2    0    0 -0.68066225452E+03 -0.26251268163E+03  0.92975870700E+03  0.11852626747E+04  0.90456298962E+02 0.  0.
        254    2    1    2    0    0  0.68066225452E+03  0.26251268163E+03  0.40377964143E+03  0.12254843799E+04  0.89808682981E+03 0.  0.
         23    2    4    4    0    0  0.68802791759E+03  0.50419735726E+03  0.16515597291E+03  0.87363800383E+03  0.91484839670E+02 0.  0.
         23    2    4    4    0    0 -0.73656630764E+01 -0.24168467563E+03  0.23862366852E+03  0.35184637610E+03  0.91590838896E+02 0.  0.
          4    1    3    3  502    0 -0.31760331538E+03 -0.99114584748E+02  0.48729851128E+03  0.59004695232E+03  0.00000000000E+00 0. -1.
         -4    1    3    3    0  502 -0.36305893914E+03 -0.16339809688E+03  0.44246019573E+03  0.59521572237E+03  0.00000000000E+00 0.  1.
         13    1    5    5    0    0  0.38181276561E+02  0.50740571044E+02  0.28166449232E+02  0.69467721224E+02  0.00000000000E+00 0. -1.
        -13    1    5    5    0    0  0.64984664103E+03  0.45345678622E+03  0.13698952367E+03  0.80417028261E+03  0.00000000000E+00 0.  1.
          2    1    6    6  503    0  0.25502542959E+02 -0.65659327721E+02  0.29058541175E+02  0.76196626102E+02  0.00000000000E+00 0. -1.
         -2    1    6    6    0  503 -0.32868206036E+02 -0.17602534791E+03  0.20956512735E+03  0.27564975000E+03  0.00000000000E+00 0.  1.
<mgrwt>
<rscale>  0 0.20083269E+04</rscale>
<asrwt>0</asrwt>
<pdfrwt beam="1">  1        2 0.28802195E+00 0.20083269E+04</pdfrwt>
<pdfrwt beam="2">  1       -2 0.82862209E-01 0.20083269E+04</pdfrwt>
<totfact> 0.93266161E+00</totfact>
</mgrwt>
</event>
<event>
12    3  0.4634846E-008  0.2043635E+04  0.7818608E-02  0.8586487E-01
         -2   -1    0    0    0  501 -0.00000000000E+00  0.00000000000E+00  0.87545459284E+03  0.87545459284E+03  0.00000000000E+00 0.  1.
          2   -1    0    0  501    0  0.00000000000E+00 -0.00000000000E+00 -0.11926506119E+04  0.11926506119E+04  0.00000000000E+00 0. -1.
         23    2    1    2    0    0 -0.52404161870E+03 -0.48664181990E+03  0.27243912622E+03  0.77069158356E+03  0.91118387108E+02 0.  0.
        254    2    1    2    0    0  0.52404161870E+03  0.48664181990E+03 -0.58963514526E+03  0.12974136211E+04  0.90783953473E+03 0.  0.
         23    2    4    4    0    0  0.28440522433E+03  0.28930625314E+02 -0.69872915707E+03  0.76041394033E+03  0.91014355994E+02 0.  0.
         23    2    4    4    0    0  0.23963639437E+03  0.45771119458E+03  0.10909401181E+03  0.53699968082E+03  0.97683236186E+02 0.  0.
          1    1    3    3  502    0 -0.46441355748E+03 -0.42608693143E+03  0.27003175034E+03  0.68567278763E+03  0.00000000000E+00 0. -1.
         -1    1    3    3    0  502 -0.59628061221E+02 -0.60554888466E+02  0.24073758792E+01  0.85018795926E+02  0.00000000000E+00 0.  1.
         13    1    5    5    0    0  0.83954151194E+02  0.66063945845E+01 -0.32501389924E+03  0.33574689671E+03  0.00000000000E+00 0. -1.
        -13    1    5    5    0    0  0.20045107313E+03  0.22324230729E+02 -0.37371525783E+03  0.42466704362E+03  0.00000000000E+00 0.  1.
          4    1    6    6  503    0  0.19389228112E+03  0.27707625834E+03  0.88219645654E+02  0.34949703217E+03  0.00000000000E+00 0. -1.
         -4    1    6    6    0  503  0.45744113249E+02  0.18063493624E+03  0.20874366160E+02  0.18750264865E+03  0.00000000000E+00 0.  1.
<mgrwt>
<rscale>  0 0.20436354E+04</rscale>
<asrwt>0</asrwt>
<pdfrwt beam="1">  1        2 0.18348471E+00 0.20436354E+04</pdfrwt>
<pdfrwt beam="2">  1       -2 0.13468532E+00 0.20436354E+04</pdfrwt>
<totfact> 0.70310268E+00</totfact>
</mgrwt>
</event>
<event>
12    3  0.4634846E-008  0.2324351E+04  0.7818608E-02  0.8468381E-01
          1   -1    0    0  501    0  0.00000000000E+00  0.00000000000E+00  0.18074560837E+04  0.18074560837E+04  0.00000000000E+00 0. -1.
         -1   -1    0    0    0  501 -0.00000000000E+00 -0.00000000000E+00 -0.74726655730E+03  0.74726655730E+03  0.00000000000E+00 0.  1.
         23    2    1    2    0    0  0.39429426259E+02  0.47052108494E+03  0.14038962436E+04  0.14839883151E+04  0.91388651107E+02 0.  0.
        254    2    1    2    0    0 -0.39429426259E+02 -0.47052108494E+03 -0.34370671717E+03  0.10707343259E+04  0.89743686033E+03 0.  0.
         23    2    4    4    0    0 -0.35309349655E+03 -0.32927125360E+03 -0.48250018040E+03  0.68855753900E+03  0.90611724836E+02 0.  0.
         23    2    4    4    0    0  0.31366407029E+03 -0.14124983134E+03  0.13879346323E+03  0.38217678694E+03  0.91971773890E+02 0.  0.
          1    1    3    3  502    0  0.29555709612E+02  0.43832057860E+03  0.13563456864E+04  0.14257180965E+04  0.00000000000E+00 0. -1.
         -1    1    3    3    0  502  0.98737166471E+01  0.32200506344E+02  0.47550557168E+02  0.58270218605E+02  0.00000000000E+00 0.  1.
         13    1    5    5    0    0 -0.54319283520E+02 -0.15794319586E+02 -0.39082531721E+02  0.68756740608E+02  0.00000000000E+00 0.  1.
        -13    1    5    5    0    0 -0.29877421303E+03 -0.31347693401E+03 -0.44341764868E+03  0.61980079839E+03  0.00000000000E+00 0. -1.
          1    1    6    6  503    0  0.11132737944E+03 -0.64404139355E+01  0.59783735671E+02  0.12652809726E+03  0.00000000000E+00 0. -1.
         -1    1    6    6    0  503  0.20233669085E+03 -0.13480941741E+03  0.79009727557E+02  0.25564868968E+03  0.00000000000E+00 0.  1.
<mgrwt>
<rscale>  0 0.23243506E+04</rscale>
<asrwt>0</asrwt>
<pdfrwt beam="1">  1        1 0.27807017E+00 0.23243506E+04</pdfrwt>
<pdfrwt beam="2">  1       -1 0.11496409E+00 0.23243506E+04</pdfrwt>
<totfact> 0.24946542E+00</totfact>
</mgrwt>
</event>
<event>
12    3  0.4634846E-008  0.1049591E+04  0.7818608E-02  0.9255767E-01
         -1   -1    0    0    0  501 -0.00000000000E+00  0.00000000000E+00  0.54250931323E+03  0.54250931323E+03  0.00000000000E+00 0.  1.
          1   -1    0    0  501    0  0.00000000000E+00 -0.00000000000E+00 -0.50765970499E+03  0.50765970499E+03  0.00000000000E+00 0. -1.
         23    2    1    2    0    0  0.59875809469E+02  0.63444210464E+02 -0.52297101413E+02  0.13696405507E+03  0.91727232408E+02 0.  0.
        254    2    1    2    0    0 -0.59875809469E+02 -0.63444210464E+02  0.87146709653E+02  0.91320496315E+03  0.90484168522E+03 0.  0.
         23    2    4    4    0    0  0.27910843155E+03  0.15739743443E+03  0.29856470675E+03  0.44743189495E+03  0.91536591458E+02 0.  0.
         23    2    4    4    0    0 -0.33898424102E+03 -0.22084164489E+03 -0.21141799710E+03  0.46577306819E+03  0.92550709235E+02 0.  0.
          2    1    3    3  502    0  0.65305562674E+02  0.50552436373E+02  0.25102275929E+00  0.82585884701E+02  0.00000000000E+00 0. -1.
         -2    1    3    3    0  502 -0.54297532057E+01  0.12891774091E+02 -0.52548124173E+02  0.54378170373E+02  0.00000000000E+00 0.  1.
         13    1    5    5    0    0  0.18474197670E+02  0.94038450279E+01 -0.44774783845E+01  0.21207925253E+02  0.00000000000E+00 0. -1.
        -13    1    5    5    0    0  0.26063423388E+03  0.14799358940E+03  0.30304218514E+03  0.42622396970E+03  0.00000000000E+00 0.  1.
          2    1    6    6  503    0 -0.29963212467E+03 -0.22295557321E+03 -0.20436205413E+03  0.42573753291E+03  0.00000000000E+00 0.  1.
         -2    1    6    6    0  503 -0.39352116353E+02  0.21139283233E+01 -0.70559429706E+01  0.40035535286E+02  0.00000000000E+00 0. -1.
<mgrwt>
<rscale>  0 0.10495906E+04</rscale>
<asrwt>0</asrwt>
<pdfrwt beam="1">  1        1 0.78101493E-01 0.10495906E+04</pdfrwt>
<pdfrwt beam="2">  1       -1 0.83462971E-01 0.10495906E+04</pdfrwt>
<totfact> 0.61827856E+01</totfact>
</mgrwt>
</event>
<event>
12    3  0.4634846E-008  0.1965116E+04  0.7818608E-02  0.8623106E-01
         -2   -1    0    0    0  501 -0.00000000000E+00  0.00000000000E+00  0.33774327769E+03  0.33774327769E+03  0.00000000000E+00 0.  1.
          2   -1    0    0  501    0  0.00000000000E+00 -0.00000000000E+00 -0.28584427272E+04  0.28584427272E+04  0.00000000000E+00 0. -1.
         23    2    1    2    0    0 -0.37294221371E+03  0.38809867080E+02 -0.20984783244E+04  0.21336903195E+04  0.91820482664E+02 0.  0.
        254    2    1    2    0    0  0.37294221371E+03 -0.38809867080E+02 -0.42222112517E+03  0.10624956854E+04  0.90001905673E+03 0.  0.
         23    2    4    4    0    0  0.10299276824E+03 -0.21195129387E+03 -0.62433057970E+03  0.67255330238E+03  0.83716249994E+02 0.  0.
         23    2    4    4    0    0  0.26994944547E+03  0.17314142679E+03  0.20210945453E+03  0.38994238306E+03  0.91412109228E+02 0.  0.
          3    1    3    3  502    0 -0.37032288996E+03  0.24451047998E+02 -0.20339070326E+04  0.20674899549E+04  0.00000000000E+00 0. -1.
         -3    1    3    3    0  502 -0.26193237490E+01  0.14358819083E+02 -0.64571291807E+02  0.66200364561E+02  0.00000000000E+00 0.  1.
         13    1    5    5    0    0  0.46959029734E+02 -0.11786311583E+03 -0.44214519223E+03  0.45998829937E+03  0.00000000000E+00 0.  1.
        -13    1    5    5    0    0  0.56033738502E+02 -0.94088178033E+02 -0.18218538747E+03  0.21256500301E+03  0.00000000000E+00 0. -1.
          2    1    6    6  503    0  0.35609753710E+01  0.20197343544E+02  0.34187876657E+02  0.39867582597E+02  0.00000000000E+00 0. -1.
         -2    1    6    6    0  503  0.26638847010E+03  0.15294408324E+03  0.16792157787E+03  0.35007480046E+03  0.00000000000E+00 0.  1.
<mgrwt>
<rscale>  0 0.19651156E+04</rscale>
<asrwt>0</asrwt>
<pdfrwt beam="1">  1        2 0.43976042E+00 0.19651156E+04</pdfrwt>
<pdfrwt beam="2">  1       -2 0.51960504E-01 0.19651156E+04</pdfrwt>
<totfact> 0.69555029E+00</totfact>
</mgrwt>
</event>
<event>
12    3  0.4634846E-008  0.1623762E+04  0.7818608E-02  0.8806082E-01
          2   -1    0    0  501    0  0.00000000000E+00  0.00000000000E+00  0.12309365501E+04  0.12309365501E+04  0.00000000000E+00 0. -1.
         -2   -1    0    0    0  501 -0.00000000000E+00 -0.00000000000E+00 -0.53548689021E+03  0.53548689021E+03  0.00000000000E+00 0.  1.
         23    2    1    2    0    0 -0.49664561897E+02 -0.38173982545E+03  0.68041822451E+03  0.78741916362E+03  0.94170674568E+02 0.  0.
        254    2    1    2    0    0  0.49664561897E+02  0.38173982545E+03  0.15031435360E+02  0.97900427667E+03  0.90001753686E+03 0.  0.
         23    2    4    4    0    0  0.37203044416E+03 -0.31423411944E+02  0.17641007644E+03  0.42315182849E+03  0.92427661901E+02 0.  0.
         23    2    4    4    0    0 -0.32236588227E+03  0.41316323739E+03 -0.16137864108E+03  0.55585244818E+03  0.91133174900E+02 0.  0.
          2    1    3    3  502    0 -0.30417908117E+02 -0.31580653271E+03  0.61766378408E+03  0.69438286659E+03  0.00000000000E+00 0. -1.
         -2    1    3    3    0  502 -0.19246653780E+02 -0.65933292733E+02  0.62754440422E+02  0.93036297030E+02  0.00000000000E+00 0.  1.
         13    1    5    5    0    0  0.32265430630E+03 -0.52810280629E+02  0.12913700830E+03  0.35152680414E+03  0.00000000000E+00 0.  1.
        -13    1    5    5    0    0  0.49376137859E+02  0.21386868685E+02  0.47273068140E+02  0.71625024352E+02  0.00000000000E+00 0. -1.
          3    1    6    6  503    0 -0.74781647392E+02  0.79107470955E+02 -0.72109331459E+02  0.13057581105E+03  0.00000000000E+00 0. -1.
         -3    1    6    6    0  503 -0.24758423487E+03  0.33405576644E+03 -0.89269309622E+02  0.42527663713E+03  0.00000000000E+00 0.  1.
<mgrwt>
<rscale>  0 0.16237615E+04</rscale>
<asrwt>0</asrwt>
<pdfrwt beam="1">  1        2 0.18937485E+00 0.16237615E+04</pdfrwt>
<pdfrwt beam="2">  1       -2 0.82382599E-01 0.16237615E+04</pdfrwt>
<totfact> 0.22481615E+01</totfact>
</mgrwt>
</event>
<event>
12    3  0.4634846E-008  0.1628884E+04  0.7818608E-02  0.8802997E-01
          1   -1    0    0  501    0  0.00000000000E+00  0.00000000000E+00  0.27683294400E+04  0.27683294400E+04  0.00000000000E+00 0. -1.
         -1   -1    0    0    0  501 -0.00000000000E+00 -0.00000000000E+00 -0.23960863456E+03  0.23960863456E+03  0.00000000000E+00 0.  1.
         23    2    1    2    0    0  0.15676387905E+02 -0.49549453091E+03  0.13812737026E+04  0.14706506762E+04  0.95581330158E+02 0.  0.
        254    2    1    2    0    0 -0.15676387905E+02  0.49549453091E+03  0.11474471029E+04  0.15372873984E+04  0.89490620291E+03 0.  0.
         23    2    4    4    0    0 -0.22389622417E+03  0.49480713609E+03  0.11849761995E+04  0.13066486214E+04  0.90545046570E+02 0.  0.
         23    2    4    4    0    0  0.20821983627E+03  0.68739482279E+00 -0.37529096553E+02  0.23063877698E+03  0.91814158123E+02 0.  0.
          1    1    3    3  502    0 -0.22641679066E+02 -0.36354035915E+03  0.10730663294E+04  0.11332014762E+04  0.00000000000E+00 0. -1.
         -1    1    3    3    0  502  0.38318066972E+02 -0.13195417176E+03  0.30820737315E+03  0.33744919998E+03  0.00000000000E+00 0.  1.
         13    1    5    5    0    0 -0.25612869271E+02  0.15516278114E+03  0.34665070119E+03  0.38065498336E+03  0.00000000000E+00 0. -1.
        -13    1    5    5    0    0 -0.19828335490E+03  0.33964435495E+03  0.83832549827E+03  0.92599363806E+03  0.00000000000E+00 0.  1.
          4    1    6    6  503    0  0.25702982446E+02 -0.10788189062E+01 -0.40627095696E+02  0.48087088305E+02  0.00000000000E+00 0. -1.
         -4    1    6    6    0  503  0.18251685382E+03  0.17662137290E+01  0.30979991431E+01  0.18255168867E+03  0.00000000000E+00 0.  1.
<mgrwt>
<rscale>  0 0.16288838E+04</rscale>
<asrwt>0</asrwt>
<pdfrwt beam="1">  1        1 0.42589681E+00 0.16288838E+04</pdfrwt>
<pdfrwt beam="2">  1       -1 0.36862869E-01 0.16288838E+04</pdfrwt>
<totfact> 0.59579301E+00</totfact>
</mgrwt>
</event>
<event>
12    3  0.4634846E-008  0.1255624E+04  0.7818608E-02  0.9065515E-01
         -1   -1    0    0    0  501 -0.00000000000E+00  0.00000000000E+00  0.68257983044E+03  0.68257983044E+03  0.00000000000E+00 0.  1.
          1   -1    0    0  501    0  0.00000000000E+00 -0.00000000000E+00 -0.57743853642E+03  0.57743853642E+03  0.00000000000E+00 0. -1.
         23    2    1    2    0    0 -0.43949830554E+02 -0.15592045461E+03  0.25617117562E+03  0.31608699483E+03  0.89691367001E+02 0.  0.
        254    2    1    2    0    0  0.43949830554E+02  0.15592045461E+03 -0.15102988159E+03  0.94393137203E+03  0.91758031485E+03 0.  0.
         23    2    4    4    0    0  0.15470000362E+03 -0.23586011271E+03 -0.36979505628E+03  0.47426339268E+03  0.92818630109E+02 0.  0.
         23    2    4    4    0    0 -0.11075017306E+03  0.39178056732E+03  0.21876517469E+03  0.46966797935E+03  0.83499673109E+02 0.  0.
          3    1    3    3  502    0  0.12614005454E+02  0.57021503409E+01  0.21871894222E+02  0.25884501327E+02  0.00000000000E+00 0. -1.
         -3    1    3    3    0  502 -0.56563836008E+02 -0.16162260495E+03  0.23429928139E+03  0.29020249350E+03  0.00000000000E+00 0.  1.
         13    1    5    5    0    0  0.70373004373E+02 -0.10189867581E+03 -0.23798288796E+03  0.26827514763E+03  0.00000000000E+00 0. -1.
        -13    1    5    5    0    0  0.84326999242E+02 -0.13396143690E+03 -0.13181216832E+03  0.20598824504E+03  0.00000000000E+00 0.  1.
          2    1    6    6  503    0 -0.10922770639E+02  0.12198288968E+02  0.29926060387E+02  0.34112670116E+02  0.00000000000E+00 0. -1.
         -2    1    6    6    0  503 -0.99827402423E+02  0.37958227835E+03  0.18883911430E+03  0.43555530924E+03  0.00000000000E+00 0.  1.
<mgrwt>
<rscale>  0 0.12556240E+04</rscale>
<asrwt>0</asrwt>
<pdfrwt beam="1">  1        1 0.88836698E-01 0.12556240E+04</pdfrwt>
<pdfrwt beam="2">  1       -1 0.10501228E+00 0.12556240E+04</pdfrwt>
<totfact> 0.30381565E+01</totfact>
</mgrwt>
</event>
<event>
12    3  0.4634846E-008  0.1301073E+04  0.7818608E-02  0.9028715E-01
         -2   -1    0    0    0  501 -0.00000000000E+00  0.00000000000E+00  0.34596436960E+03  0.34596436960E+03  0.00000000000E+00 0.  1.
          2   -1    0    0  501    0  0.00000000000E+00 -0.00000000000E+00 -0.12232406501E+04  0.12232406501E+04  0.00000000000E+00 0. -1.
         23    2    1    2    0    0  0.77090948517E+02 -0.24925991881E+01 -0.61771716177E+03  0.62776564909E+03  0.81030801781E+02 0.  0.
        254    2    1    2    0    0 -0.77090948517E+02  0.24925991881E+01 -0.25955911870E+03  0.94143937058E+03  0.90165843033E+03 0.  0.
         23    2    4    4    0    0 -0.22251215688E+03  0.20252340703E+03  0.22745587698E+03  0.38782032845E+03  0.90227716566E+02 0.  0.
         23    2    4    4    0    0  0.14542120836E+03 -0.20003080784E+03 -0.48701499568E+03  0.55361904213E+03  0.90281702797E+02 0.  0.
          1    1    3    3  502    0  0.76229017845E+02 -0.15694236570E+00 -0.61983026693E+03  0.62450015821E+03  0.00000000000E+00 0. -1.
         -1    1    3    3    0  502  0.86193067196E+00 -0.23356568224E+01  0.21131051636E+01  0.32654908831E+01  0.00000000000E+00 0.  1.
         13    1    5    5    0    0 -0.50470958591E+02  0.64308255361E+02  0.11228344865E+03  0.13889003639E+03  0.00000000000E+00 0.  1.
        -13    1    5    5    0    0 -0.17204119829E+03  0.13821515167E+03  0.11517242833E+03  0.24893029206E+03  0.00000000000E+00 0. -1.
          2    1    6    6  503    0  0.11279319545E+03 -0.16842758302E+03 -0.30643348956E+03  0.36741208362E+03  0.00000000000E+00 0. -1.
         -2    1    6    6    0  503  0.32628012913E+02 -0.31603224820E+02 -0.18058150612E+03  0.18620695851E+03  0.00000000000E+00 0.  1.
<mgrwt>
<rscale>  0 0.13010729E+04</rscale>
<asrwt>0</asrwt>
<pdfrwt beam="1">  1        2 0.18819087E+00 0.13010729E+04</pdfrwt>
<pdfrwt beam="2">  1       -2 0.53225288E-01 0.13010729E+04</pdfrwt>
<totfact> 0.59828188E+01</totfact>
</mgrwt>
</event>
<event>
12    3  0.4634846E-008  0.1529725E+04  0.7818608E-02  0.8864923E-01
          2   -1    0    0  501    0  0.00000000000E+00  0.00000000000E+00  0.81246878020E+03  0.81246878020E+03  0.00000000000E+00 0. -1.
         -2   -1    0    0    0  501 -0.00000000000E+00 -0.00000000000E+00 -0.72004547632E+03  0.72004547632E+03  0.00000000000E+00 0.  1.
         23    2    1    2    0    0 -0.62229980897E+02 -0.79059899423E+02  0.52854541175E+03  0.54572213672E+03  0.91265327517E+02 0.  0.
        254    2    1    2    0    0  0.62229980897E+02  0.79059899423E+02 -0.43612210788E+03  0.98679211980E+03  0.87945048553E+03 0.  0.
         23    2    4    4    0    0  0.17752954500E+03 -0.34330758433E+03 -0.58773287166E+02  0.40129418571E+03  0.90586353242E+02 0.  0.
         23    2    4    4    0    0 -0.11529956410E+03  0.42236748376E+03 -0.37734882071E+03  0.58549793408E+03  0.93420648192E+02 0.  0.
          4    1    3    3  502    0 -0.57159170735E+01 -0.47243006703E+02  0.38832179022E+03  0.39122677075E+03  0.00000000000E+00 0. -1.
         -4    1    3    3    0  502 -0.56514063824E+02 -0.31816892720E+02  0.14022362153E+03  0.15449536597E+03  0.00000000000E+00 0.  1.
         13    1    5    5    0    0 -0.12265665246E+01 -0.59333590779E+02  0.56479068087E+01  0.59614413622E+02  0.00000000000E+00 0. -1.
        -13    1    5    5    0    0  0.17875611153E+03 -0.28397399355E+03 -0.64421193975E+02  0.34167977209E+03  0.00000000000E+00 0.  1.
          4    1    6    6  503    0  0.12139513845E+02  0.88334420830E+02 -0.91449540910E+02  0.12772374968E+03  0.00000000000E+00 0. -1.
         -4    1    6    6    0  503 -0.12743907795E+03  0.33403306293E+03 -0.28589927980E+03  0.45777418440E+03  0.00000000000E+00 0.  1.
<mgrwt>
<rscale>  0 0.15297248E+04</rscale>
<asrwt>0</asrwt>
<pdfrwt beam="1">  1        2 0.12499520E+00 0.15297248E+04</pdfrwt>
<pdfrwt beam="2">  1       -2 0.11077623E+00 0.15297248E+04</pdfrwt>
<totfact> 0.21011687E+01</totfact>
</mgrwt>
</event>
<event>
12    3  0.4634846E-008  0.1566515E+04  0.7818608E-02  0.8841387E-01
         -1   -1    0    0    0  501 -0.00000000000E+00  0.00000000000E+00  0.16662140188E+04  0.16662140188E+04  0.00000000000E+00 0.  1.
          1   -1    0    0  501    0  0.00000000000E+00 -0.00000000000E+00 -0.36819533279E+03  0.36819533279E+03  0.00000000000E+00 0. -1.
         23    2    1    2    0    0  0.14102404457E+03 -0.48112633685E+03  0.61033280899E+03  0.79502187055E+03  0.90461614881E+02 0.  0.
        254    2    1    2    0    0 -0.14102404457E+03  0.48112633685E+03  0.68768587707E+03  0.12393874811E+04  0.90099896204E+03 0.  0.
         23    2    4    4    0    0 -0.37154444248E+03  0.50811863555E+03  0.75008808753E+03  0.98346736331E+03  0.91356965390E+02 0.  0.
         23    2    4    4    0    0  0.23052039790E+03 -0.26992298692E+02 -0.62402210456E+02  0.25592011778E+03  0.87936526961E+02 0.  0.
          3    1    3    3  502    0  0.16583147050E+02 -0.11941030611E+03  0.96410450987E+02  0.15436578971E+03  0.00000000000E+00 0. -1.
         -3    1    3    3    0  502  0.12444089752E+03 -0.36171603074E+03  0.51392235800E+03  0.64065608084E+03  0.00000000000E+00 0.  1.
         13    1    5    5    0    0 -0.31286669500E+03  0.36323204511E+03  0.57941950129E+03  0.75203061501E+03  0.00000000000E+00 0. -1.
        -13    1    5    5    0    0 -0.58677747473E+02  0.14488659043E+03  0.17066858624E+03  0.23143674830E+03  0.00000000000E+00 0.  1.
          3    1    6    6  503    0  0.17258022100E+03 -0.58496090125E+02 -0.44377833699E+02  0.18755030622E+03  0.00000000000E+00 0. -1.
         -3    1    6    6    0  503  0.57940176906E+02  0.31503791433E+02 -0.18024376757E+02  0.68369811555E+02  0.00000000000E+00 0.  1.
<mgrwt>
<rscale>  0 0.15665149E+04</rscale>
<asrwt>0</asrwt>
<pdfrwt beam="1">  1        1 0.56645437E-01 0.15665149E+04</pdfrwt>
<pdfrwt beam="2">  1       -1 0.25634061E+00 0.15665149E+04</pdfrwt>
<totfact> 0.40873767E+00</totfact>
</mgrwt>
</event>
<event>
12    3  0.4634846E-008  0.1343944E+04  0.7818608E-02  0.8995425E-01
         -1   -1    0    0    0  501 -0.00000000000E+00  0.00000000000E+00  0.80161448941E+03  0.80161448941E+03  0.00000000000E+00 0.  1.
          1   -1    0    0  501    0  0.00000000000E+00 -0.00000000000E+00 -0.56329605660E+03  0.56329605660E+03  0.00000000000E+00 0. -1.
         23    2    1    2    0    0 -0.34159950998E+03  0.75336241466E+02  0.15723106529E+03  0.39474740307E+03  0.93477964463E+02 0.  0.
        254    2    1    2    0    0  0.34159950998E+03 -0.75336241466E+02  0.81087367521E+02  0.97016314294E+03  0.90126332903E+03 0.  0.
         23    2    4    4    0    0  0.46795952120E+03  0.29680449432E+03  0.70818958075E+02  0.56586045869E+03  0.90020622963E+02 0.  0.
         23    2    4    4    0    0 -0.12636001122E+03 -0.37214073578E+03  0.10268409446E+02  0.40430268425E+03  0.94337906462E+02 0.  0.
          4    1    3    3  502    0 -0.83861495501E+02  0.40978990169E+02  0.81534706645E+02  0.12393521070E+03  0.00000000000E+00 0. -1.
         -4    1    3    3    0  502 -0.25773801448E+03  0.34357251297E+02  0.75696358640E+02  0.27081219237E+03  0.00000000000E+00 0.  1.
         13    1    5    5    0    0  0.38313655176E+03  0.25756796747E+03  0.26497028277E+02  0.46242509412E+03  0.00000000000E+00 0. -1.
        -13    1    5    5    0    0  0.84822969440E+02  0.39236526848E+02  0.44321929798E+02  0.10343536457E+03  0.00000000000E+00 0.  1.
          2    1    6    6  503    0  0.12700083484E+02 -0.58556598658E+02  0.12748153774E+02  0.61259144555E+02  0.00000000000E+00 0.  1.
         -2    1    6    6    0  503 -0.13906009471E+03 -0.31358413713E+03 -0.24797443277E+01  0.34304353970E+03  0.00000000000E+00 0. -1.
<mgrwt>
<rscale>  0 0.13439439E+04</rscale>
<asrwt>0</asrwt>
<pdfrwt beam="1">  1        1 0.86660932E-01 0.13439439E+04</pdfrwt>
<pdfrwt beam="2">  1       -1 0.12332531E+00 0.13439439E+04</pdfrwt>
<totfact> 0.21258095E+01</totfact>
</mgrwt>
</event>
<event>
12    3  0.4634846E-008  0.1411053E+04  0.7818608E-02  0.8945856E-01
          2   -1    0    0  501    0  0.00000000000E+00  0.00000000000E+00  0.74535219854E+03  0.74535219854E+03  0.00000000000E+00 0. -1.
         -2   -1    0    0    0  501 -0.00000000000E+00 -0.00000000000E+00 -0.66782874578E+03  0.66782874578E+03  0.00000000000E+00 0.  1.
         23    2    1    2    0    0  0.11787848482E+03  0.22809067624E+03  0.34228677246E+03  0.43705075249E+03  0.89064200886E+02 0.  0.
        254    2    1    2    0    0 -0.11787848482E+03 -0.22809067624E+03 -0.26476331971E+03  0.97613019183E+03  0.90377532726E+03 0.  0.
         23    2    4    4    0    0  0.34328138935E+03  0.94394941091E+02 -0.82722347310E+02  0.37652201904E+03  0.90406453862E+02 0.  0.
         23    2    4    4    0    0 -0.46115987418E+03 -0.32248561733E+03 -0.18204097240E+03  0.59960817279E+03  0.98618671165E+02 0.  0.
          2    1    3    3  502    0  0.13073909827E+03  0.18524135483E+03  0.27813339947E+03  0.35883876498E+03  0.00000000000E+00 0. -1.
         -2    1    3    3    0  502 -0.12860613445E+02  0.42849321408E+02  0.64153372998E+02  0.78211987510E+02  0.00000000000E+00 0.  1.
         13    1    5    5    0    0  0.62228904034E+02  0.11710941254E+02 -0.52030870665E+02  0.81956050079E+02  0.00000000000E+00 0.  1.
        -13    1    5    5    0    0  0.28105248532E+03  0.82683999838E+02 -0.30691476645E+02  0.29456596897E+03  0.00000000000E+00 0. -1.
          2    1    6    6  503    0 -0.13372002439E+03 -0.11409165613E+03 -0.10227323491E+03  0.20336608739E+03  0.00000000000E+00 0. -1.
         -2    1    6    6    0  503 -0.32743984978E+03 -0.20839396121E+03 -0.79767737482E+02  0.39624208539E+03  0.00000000000E+00 0.  1.
<mgrwt>
<rscale>  0 0.14110530E+04</rscale>
<asrwt>0</asrwt>
<pdfrwt beam="1">  1        2 0.11466957E+00 0.14110530E+04</pdfrwt>
<pdfrwt beam="2">  1       -2 0.10274288E+00 0.14110530E+04</pdfrwt>
<totfact> 0.28476333E+01</totfact>
</mgrwt>
</event>
<event>
12    3  0.4634846E-008  0.1229234E+04  0.7818608E-02  0.9087646E-01
          2   -1    0    0  501    0  0.00000000000E+00  0.00000000000E+00  0.32563922559E+04  0.32563922559E+04  0.00000000000E+00 0. -1.
         -2   -1    0    0    0  501 -0.00000000000E+00 -0.00000000000E+00 -0.11600388063E+03  0.11600388063E+03  0.00000000000E+00 0.  1.
         23    2    1    2    0    0  0.23871908208E+02 -0.26904337463E+03  0.76678834088E+03  0.81817566682E+03  0.92156696086E+02 0.  0.
        254    2    1    2    0    0 -0.23871908208E+02  0.26904337463E+03  0.23736000344E+04  0.25542204697E+04  0.90394185607E+03 0.  0.
         23    2    4    4    0    0 -0.29852605111E+03 -0.22706982413E+02  0.27884632756E+03  0.41959047964E+03  0.93099333917E+02 0.  0.
         23    2    4    4    0    0  0.27465414290E+03  0.29175035705E+03  0.20947537068E+04  0.21346299900E+04  0.89994072677E+02 0.  0.
          1    1    3    3  502    0  0.41500161729E+02 -0.14581455178E+03  0.52176046302E+03  0.54333979028E+03  0.00000000000E+00 0. -1.
         -1    1    3    3    0  502 -0.17628253520E+02 -0.12322882285E+03  0.24502787786E+03  0.27483587654E+03  0.00000000000E+00 0.  1.
         13    1    5    5    0    0 -0.25485403732E+03  0.26168969969E+01  0.26404127237E+03  0.36698122841E+03  0.00000000000E+00 0. -1.
        -13    1    5    5    0    0 -0.43672013786E+02 -0.25323879410E+02  0.14805055185E+02  0.52609251235E+02  0.00000000000E+00 0.  1.
          4    1    6    6  503    0  0.19508427344E+03  0.25665807928E+03  0.15756704233E+04  0.16083123224E+04  0.00000000000E+00 0. -1.
         -4    1    6    6    0  503  0.79569869461E+02  0.35092277766E+02  0.51908328348E+03  0.52631766765E+03  0.00000000000E+00 0.  1.
<mgrwt>
<rscale>  0 0.12292341E+04</rscale>
<asrwt>0</asrwt>
<pdfrwt beam="1">  1        2 0.50098335E+00 0.12292341E+04</pdfrwt>
<pdfrwt beam="2">  1       -2 0.17846753E-01 0.12292341E+04</pdfrwt>
<totfact> 0.31153062E+01</totfact>
</mgrwt>
</event>
<event>
12    3  0.4634846E-008  0.1229913E+04  0.7818608E-02  0.9087069E-01
         -1   -1    0    0    0  501 -0.00000000000E+00  0.00000000000E+00  0.48434103045E+03  0.48434103045E+03  0.00000000000E+00 0.  1.
          1   -1    0    0  501    0  0.00000000000E+00 -0.00000000000E+00 -0.78079606648E+03  0.78079606648E+03  0.00000000000E+00 0. -1.
         23    2    1    2    0    0 -0.15398016724E+03 -0.21115776674E+03 -0.71631655524E+02  0.28550905988E+03  0.89926830495E+02 0.  0.
        254    2    1    2    0    0  0.15398016724E+03  0.21115776674E+03 -0.22482338050E+03  0.97962803705E+03  0.91696676286E+03 0.  0.
         23    2    4    4    0    0 -0.25264370975E+03  0.30825412548E+03  0.12406982751E+03  0.42742832792E+03  0.91935865996E+02 0.  0.
         23    2    4    4    0    0  0.40662387699E+03 -0.97096358745E+02 -0.34889320802E+03  0.55219970913E+03  0.91800696829E+02 0.  0.
          3    1    3    3  502    0 -0.15867410712E+03 -0.17414133919E+03 -0.45468608367E+02  0.23993764321E+03  0.00000000000E+00 0. -1.
         -3    1    3    3    0  502  0.46939398817E+01 -0.37016427551E+02 -0.26163047158E+02  0.45571416664E+02  0.00000000000E+00 0.  1.
         13    1    5    5    0    0 -0.20811271637E+01  0.46016599203E+02  0.18896084125E+02  0.49788758648E+02  0.00000000000E+00 0. -1.
        -13    1    5    5    0    0 -0.25056258259E+03  0.26223752628E+03  0.10517374339E+03  0.37763956928E+03  0.00000000000E+00 0.  1.
          4    1    6    6  503    0  0.10003479820E+03 -0.65618914648E+02 -0.10480421886E+03  0.15904944860E+03  0.00000000000E+00 0. -1.
         -4    1    6    6    0  503  0.30658907879E+03 -0.31477444096E+02 -0.24408898916E+03  0.39315026053E+03  0.00000000000E+00 0.  1.
<mgrwt>
<rscale>  0 0.12299131E+04</rscale>
<asrwt>0</asrwt>
<pdfrwt beam="1">  1        1 0.12012247E+00 0.12299131E+04</pdfrwt>
<pdfrwt beam="2">  1       -1 0.74514005E-01 0.12299131E+04</pdfrwt>
<totfact> 0.41159180E+01</totfact>
</mgrwt>
</event>
<event>
12    3  0.4634846E-008  0.1937107E+04  0.7818608E-02  0.8636603E-01
          1   -1    0    0  501    0  0.00000000000E+00  0.00000000000E+00  0.17660051113E+04  0.17660051113E+04  0.00000000000E+00 0. -1.
         -1   -1    0    0    0  501 -0.00000000000E+00 -0.00000000000E+00 -0.53119673202E+03  0.53119673202E+03  0.00000000000E+00 0.  1.
         23    2    1    2    0    0 -0.42046910860E+03  0.56062678042E+03  0.14727971589E+03  0.72207524322E+03  0.92761435707E+02 0.  0.
        254    2    1    2    0    0  0.42046910860E+03 -0.56062678042E+03  0.10875286634E+04  0.15751266001E+04  0.89844785849E+03 0.  0.
         23    2    4    4    0    0  0.17990753496E+03  0.12234062044E+03 -0.30693109157E+02  0.23989746393E+03  0.96305647312E+02 0.  0.
         23    2    4    4    0    0  0.24056157364E+03 -0.68296740085E+03  0.11182217725E+04  0.13352291361E+04  0.90014288591E+02 0.  0.
          3    1    3    3  502    0 -0.12493258908E+03  0.10293946659E+03  0.26442797076E+02  0.16402410529E+03  0.00000000000E+00 0. -1.
         -3    1    3    3    0  502 -0.29553651952E+03  0.45768731383E+03  0.12083691882E+03  0.55805113794E+03  0.00000000000E+00 0.  1.
         13    1    5    5    0    0  0.42532585947E+02  0.82349829460E+02  0.36470583989E+01  0.92756758861E+02  0.00000000000E+00 0.  1.
        -13    1    5    5    0    0  0.13737494901E+03  0.39990790977E+02 -0.34340167556E+02  0.14714070507E+03  0.00000000000E+00 0. -1.
          1    1    6    6  503    0  0.16011394059E+03 -0.49167943477E+03  0.86575321651E+03  0.10084214260E+04  0.00000000000E+00 0. -1.
         -1    1    6    6    0  503  0.80447633050E+02 -0.19128796608E+03  0.25246855601E+03  0.32680771013E+03  0.00000000000E+00 0.  1.
<mgrwt>
<rscale>  0 0.19371073E+04</rscale>
<asrwt>0</asrwt>
<pdfrwt beam="1">  1        1 0.27169309E+00 0.19371073E+04</pdfrwt>
<pdfrwt beam="2">  1       -1 0.81722575E-01 0.19371073E+04</pdfrwt>
<totfact> 0.59722322E+00</totfact>
</mgrwt>
</event>
<event>
12    3  0.5538437E-008  0.2268503E+04  0.7818608E-02  0.8490444E-01
         -1   -1    0    0    0  501 -0.00000000000E+00  0.00000000000E+00  0.71493331070E+03  0.71493331070E+03  0.00000000000E+00 0.  1.
          1   -1    0    0  501    0  0.00000000000E+00 -0.00000000000E+00 -0.17995062728E+04  0.17995062728E+04  0.00000000000E+00 0. -1.
         23    2    1    2    0    0  0.83156758280E+03 -0.54836441597E+02  0.34382834939E+02  0.83935262271E+03  0.93909348987E+02 0.  0.
        254    2    1    2    0    0 -0.83156758280E+03  0.54836441597E+02 -0.11189557971E+04  0.16750869608E+04  0.92700731951E+03 0.  0.
         23    2    4    4    0    0 -0.98936872862E+03  0.17974347876E+03 -0.10134934607E+04  0.14312810669E+04  0.10118447599E+03 0.  0.
         23    2    4    4    0    0  0.15780114582E+03 -0.12490703716E+03 -0.10546233639E+03  0.24380589397E+03  0.88408370533E+02 0.  0.
          3    1    3    3  502    0  0.12616587706E+03  0.24754938831E+01  0.37414924667E+02  0.13162003340E+03  0.00000000000E+00 0. -1.
         -3    1    3    3    0  502  0.70540170574E+03 -0.57311935480E+02 -0.30320897278E+01  0.70773258931E+03  0.00000000000E+00 0.  1.
         13    1    5    5    0    0 -0.57908852764E+03  0.15440429853E+03 -0.61706170715E+03  0.86020309269E+03  0.00000000000E+00 0. -1.
        -13    1    5    5    0    0 -0.41028020098E+03  0.25339180228E+02 -0.39643175354E+03  0.57107797417E+03  0.00000000000E+00 0.  1.
          2    1    6    6  503    0  0.11993314984E+03 -0.13123642231E+03 -0.68535095744E+02  0.19053613390E+03  0.00000000000E+00 0. -1.
         -2    1    6    6    0  503  0.37867995978E+02  0.63293851493E+01 -0.36927240649E+02  0.53269760068E+02  0.00000000000E+00 0.  1.
<mgrwt>
<rscale>  0 0.22685035E+04</rscale>
<asrwt>0</asrwt>
<pdfrwt beam="1">  1        1 0.27684712E+00 0.22685035E+04</pdfrwt>
<pdfrwt beam="2">  1       -1 0.10998974E+00 0.22685035E+04</pdfrwt>
<totfact> 0.28204552E+00</totfact>
</mgrwt>
</event>
<event>
12    3  0.4634846E-008  0.1624947E+04  0.7818608E-02  0.8805367E-01
         -2   -1    0    0    0  501 -0.00000000000E+00  0.00000000000E+00  0.69068975934E+03  0.69068975934E+03  0.00000000000E+00 0.  1.
          2   -1    0    0  501    0  0.00000000000E+00 -0.00000000000E+00 -0.95573088993E+03  0.95573088993E+03  0.00000000000E+00 0. -1.
         23    2    1    2    0    0 -0.21291500392E+03 -0.16212133844E+02 -0.62105659783E+03  0.66361089735E+03  0.95249636204E+02 0.  0.
        254    2    1    2    0    0  0.21291500392E+03  0.16212133844E+02  0.35601546724E+03  0.98280975192E+03  0.89082678640E+03 0.  0.
         23    2    4    4    0    0 -0.11957968820E+03  0.11348601617E+03  0.54736830943E+03  0.57715011940E+03  0.79446941143E+02 0.  0.
         23    2    4    4    0    0  0.33249469212E+03 -0.97273882326E+02 -0.19135284219E+03  0.40565963251E+03  0.89044364028E+02 0.  0.
          2    1    3    3  502    0 -0.19211962742E+03 -0.32267430375E+02 -0.44733084159E+03  0.48790984837E+03  0.00000000000E+00 0. -1.
         -2    1    3    3    0  502 -0.20795376502E+02  0.16055296531E+02 -0.17372575624E+03  0.17570104898E+03  0.00000000000E+00 0.  1.
         13    1    5    5    0    0 -0.41664294936E+02  0.69575548547E+02  0.36665261152E+03  0.37551405827E+03  0.00000000000E+00 0. -1.
        -13    1    5    5    0    0 -0.77915393262E+02  0.43910467623E+02  0.18071569792E+03  0.20163606113E+03  0.00000000000E+00 0.  1.
          3    1    6    6  503    0  0.14787492554E+03 -0.75355816873E+02 -0.12677271835E+03  0.20884639058E+03  0.00000000000E+00 0. -1.
         -3    1    6    6    0  503  0.18461976658E+03 -0.21918065453E+02 -0.64580123842E+02  0.19681324194E+03  0.00000000000E+00 0.  1.
<mgrwt>
<rscale>  0 0.16249474E+04</rscale>
<asrwt>0</asrwt>
<pdfrwt beam="1">  1        2 0.14703552E+00 0.16249474E+04</pdfrwt>
<pdfrwt beam="2">  1       -2 0.10625996E+00 0.16249474E+04</pdfrwt>
<totfact> 0.18403268E+01</totfact>
</mgrwt>
</event>
<event>
12    3  0.4634846E-008  0.2209903E+04  0.7818608E-02  0.8514318E-01
          1   -1    0    0  501    0  0.00000000000E+00  0.00000000000E+00  0.15807595565E+04  0.15807595565E+04  0.00000000000E+00 0. -1.
         -1   -1    0    0    0  501 -0.00000000000E+00 -0.00000000000E+00 -0.77236155737E+03  0.77236155737E+03  0.00000000000E+00 0.  1.
         23    2    1    2    0    0 -0.22621561201E+03 -0.14830248013E+03  0.12769796074E+04  0.13084026895E+04  0.89852943221E+02 0.  0.
        254    2    1    2    0    0  0.22621561201E+03  0.14830248013E+03 -0.46858160833E+03  0.10447184243E+04  0.89370058395E+03 0.  0.
         23    2    4    4    0    0  0.30182734724E+03  0.41050070776E+03 -0.26691385406E+02  0.51793951667E+03  0.89097330263E+02 0.  0.
         23    2    4    4    0    0 -0.75611735226E+02 -0.26219822763E+03 -0.44189022292E+03  0.52677890767E+03  0.88113582209E+02 0.  0.
          1    1    3    3  502    0 -0.90681283818E+02 -0.32845036627E+02  0.63131055558E+03  0.63863519262E+03  0.00000000000E+00 0. -1.
         -1    1    3    3    0  502 -0.13553432819E+03 -0.11545744350E+03  0.64566905183E+03  0.66976749688E+03  0.00000000000E+00 0.  1.
         13    1    5    5    0    0  0.22494145925E+03  0.31826767563E+03  0.17145203889E+02  0.39011143467E+03  0.00000000000E+00 0. -1.
        -13    1    5    5    0    0  0.76885887987E+02  0.92233032129E+02 -0.43836589295E+02  0.12782808200E+03  0.00000000000E+00 0.  1.
          1    1    6    6  503    0 -0.42917448970E+02 -0.23306837864E+03 -0.40624260489E+03  0.47031460808E+03  0.00000000000E+00 0. -1.
         -1    1    6    6    0  503 -0.32694286256E+02 -0.29129848988E+02 -0.35647618034E+02  0.56464299582E+02  0.00000000000E+00 0.  1.
<mgrwt>
<rscale>  0 0.22099031E+04</rscale>
<asrwt>0</asrwt>
<pdfrwt beam="1">  1        1 0.24319378E+00 0.22099031E+04</pdfrwt>
<pdfrwt beam="2">  1       -1 0.11882486E+00 0.22099031E+04</pdfrwt>
<totfact> 0.33233056E+00</totfact>
</mgrwt>
</event>
<event>
12    3  0.4634846E-008  0.1400985E+04  0.7818608E-02  0.8953106E-01
          2   -1    0    0  501    0  0.00000000000E+00  0.00000000000E+00  0.89562083748E+03  0.89562083748E+03  0.00000000000E+00 0. -1.
         -2   -1    0    0    0  501 -0.00000000000E+00 -0.00000000000E+00 -0.54787687916E+03  0.54787687916E+03  0.00000000000E+00 0.  1.
         23    2    1    2    0    0  0.33374300680E+03  0.12672656586E+03 -0.93518564357E+02  0.38051847588E+03  0.92760829676E+02 0.  0.
        254    2    1    2    0    0 -0.33374300680E+03 -0.12672656586E+03  0.44126252268E+03  0.10629792408E+04  0.89875927550E+03 0.  0.
         23    2    4    4    0    0  0.12977589905E+03  0.21222918192E+03  0.40011449475E+03  0.47999855926E+03  0.91782342246E+02 0.  0.
         23    2    4    4    0    0 -0.46351890585E+03 -0.33895574777E+03  0.41148027935E+02  0.58298068151E+03  0.91828861365E+02 0.  0.
          2    1    3    3  502    0  0.23503476196E+03  0.11634414714E+03 -0.10089249455E+03  0.28099216245E+03  0.00000000000E+00 0. -1.
         -2    1    3    3    0  502  0.98708244837E+02  0.10382418720E+02  0.73739301901E+01  0.99526313424E+02  0.00000000000E+00 0.  1.
         13    1    5    5    0    0 -0.38165996041E+01  0.27701052723E+02  0.96194322319E+02  0.10017615685E+03  0.00000000000E+00 0. -1.
        -13    1    5    5    0    0  0.13359249866E+03  0.18452812920E+03  0.30392017243E+03  0.37982240241E+03  0.00000000000E+00 0.  1.
          2    1    6    6  503    0 -0.15926927967E+03 -0.10023952865E+03 -0.27585308304E+02  0.19019888481E+03  0.00000000000E+00 0. -1.
         -2    1    6    6    0  503 -0.30424962619E+03 -0.23871621912E+03  0.68733336239E+02  0.39278179670E+03  0.00000000000E+00 0.  1.
<mgrwt>
<rscale>  0 0.14009853E+04</rscale>
<asrwt>0</asrwt>
<pdfrwt beam="1">  1        2 0.13778782E+00 0.14009853E+04</pdfrwt>
<pdfrwt beam="2">  1       -2 0.84288751E-01 0.14009853E+04</pdfrwt>
<totfact> 0.35300546E+01</totfact>
</mgrwt>
</event>
<event>
12    3  0.4634846E-008  0.2158653E+04  0.7818608E-02  0.8535837E-01
         -2   -1    0    0    0  501 -0.00000000000E+00  0.00000000000E+00  0.10559410743E+04  0.10559410743E+04  0.00000000000E+00 0.  1.
          2   -1    0    0  501    0  0.00000000000E+00 -0.00000000000E+00 -0.11032302713E+04  0.11032302713E+04  0.00000000000E+00 0. -1.
         23    2    1    2    0    0  0.45079510955E+03  0.45007992354E+03 -0.64228283659E+03  0.90914406410E+03  0.90705670890E+02 0.  0.
        254    2    1    2    0    0 -0.45079510955E+03 -0.45007992354E+03  0.59499363958E+03  0.12500272814E+04  0.89597020310E+03 0.  0.
         23    2    4    4    0    0  0.14460076155E+03 -0.45935025794E+03  0.33336308478E+03  0.59276352341E+03  0.91244773433E+02 0.  0.
         23    2    4    4    0    0 -0.59539587110E+03  0.92703343986E+01  0.26163055480E+03  0.65726375803E+03  0.94672688757E+02 0.  0.
          2    1    3    3  502    0  0.21318745689E+02  0.42284841905E+02 -0.24418150470E+02  0.53279854026E+02  0.00000000000E+00 0.  1.
         -2    1    3    3    0  502  0.42947636386E+03  0.40779508163E+03 -0.61786468612E+03  0.85586421007E+03  0.00000000000E+00 0. -1.
         13    1    5    5    0    0  0.37587935561E+02 -0.12575701524E+03  0.14277933891E+03  0.19394230946E+03  0.00000000000E+00 0.  1.
        -13    1    5    5    0    0  0.10701282599E+03 -0.33359324270E+03  0.19058374588E+03  0.39882121394E+03  0.00000000000E+00 0. -1.
          2    1    6    6  503    0 -0.58482944530E+03  0.17041051572E+02  0.24089735082E+03  0.63273012506E+03  0.00000000000E+00 0. -1.
         -2    1    6    6    0  503 -0.10566425797E+02 -0.77707171733E+01  0.20733203974E+02  0.24533632966E+02  0.00000000000E+00 0.  1.
<mgrwt>
<rscale>  0 0.21586534E+04</rscale>
<asrwt>0</asrwt>
<pdfrwt beam="1">  1        2 0.16972773E+00 0.21586534E+04</pdfrwt>
<pdfrwt beam="2">  1       -2 0.16245247E+00 0.21586534E+04</pdfrwt>
<totfact> 0.48057842E+00</totfact>
</mgrwt>
</event>
<event>
12    3  0.4634846E-008  0.2093475E+04  0.7818608E-02  0.8564123E-01
         -2   -1    0    0    0  501 -0.00000000000E+00  0.00000000000E+00  0.34646488853E+03  0.34646488853E+03  0.00000000000E+00 0.  1.
          2   -1    0    0  501    0  0.00000000000E+00 -0.00000000000E+00 -0.31623959696E+04  0.31623959696E+04  0.00000000000E+00 0. -1.
         23    2    1    2    0    0 -0.81570737556E+03 -0.24860891643E+03 -0.11721465029E+04  0.14525137021E+04  0.93186451274E+02 0.  0.
        254    2    1    2    0    0  0.81570737556E+03  0.24860891643E+03 -0.16437845782E+04  0.20563471560E+04  0.89406429899E+03 0.  0.
         23    2    4    4    0    0  0.41895063151E+03  0.54410459610E+03 -0.69295524803E+03  0.98070935074E+03  0.10017191082E+03 0.  0.
         23    2    4    4    0    0  0.39675674405E+03 -0.29549567967E+03 -0.95082933013E+03  0.10756378053E+04  0.90480176913E+02 0.  0.
          3    1    3    3  502    0 -0.81010432230E+03 -0.24472280081E+03 -0.11721242976E+04  0.14456948611E+04  0.00000000000E+00 0. -1.
         -3    1    3    3    0  502 -0.56030532627E+01 -0.38861156214E+01 -0.22205307186E-01  0.68188410718E+01  0.00000000000E+00 0.  1.
         13    1    5    5    0    0  0.33886639704E+03  0.37452159693E+03 -0.47737320179E+03  0.69496908952E+03  0.00000000000E+00 0. -1.
        -13    1    5    5    0    0  0.80084234474E+02  0.16958299917E+03 -0.21558204624E+03  0.28574026122E+03  0.00000000000E+00 0.  1.
          1    1    6    6  503    0  0.15632303178E+03 -0.13573959735E+03 -0.48888577850E+03  0.53091565524E+03  0.00000000000E+00 0. -1.
         -1    1    6    6    0  503  0.24043371227E+03 -0.15975608232E+03 -0.46194355163E+03  0.54472215003E+03  0.00000000000E+00 0.  1.
<mgrwt>
<rscale>  0 0.20934748E+04</rscale>
<asrwt>0</asrwt>
<pdfrwt beam="1">  1        2 0.48652248E+00 0.20934748E+04</pdfrwt>
<pdfrwt beam="2">  1       -2 0.53302288E-01 0.20934748E+04</pdfrwt>
<totfact> 0.42079222E+00</totfact>
</mgrwt>
</event>
<event>
12    3  0.4634846E-008  0.1301476E+04  0.7818608E-02  0.9028396E-01
          2   -1    0    0  501    0  0.00000000000E+00  0.00000000000E+00  0.39306664060E+03  0.39306664060E+03  0.00000000000E+00 0. -1.
         -2   -1    0    0    0  501 -0.00000000000E+00 -0.00000000000E+00 -0.10773232075E+04  0.10773232075E+04  0.00000000000E+00 0.  1.
         23    2    1    2    0    0 -0.22298498676E+01  0.14049949041E+03  0.17108366724E+03  0.23963218623E+03  0.91699969730E+02 0.  0.
        254    2    1    2    0    0  0.22298498676E+01 -0.14049949041E+03 -0.85534023411E+03  0.12307576619E+04  0.87373475785E+03 0.  0.
         23    2    4    4    0    0  0.29007690214E+03  0.18322859160E+03 -0.12401798709E+03  0.37588421037E+03  0.90504986296E+02 0.  0.
         23    2    4    4    0    0 -0.28784705228E+03 -0.32372808201E+03 -0.73132224703E+03  0.85487345148E+03  0.91217281644E+02 0.  0.
          2    1    3    3  502    0 -0.44610492296E+02  0.46690674477E+02  0.59316336803E+02  0.87684336787E+02  0.00000000000E+00 0.  1.
         -2    1    3    3    0  502  0.42380642429E+02  0.93808815932E+02  0.11176733043E+03  0.15194784945E+03  0.00000000000E+00 0. -1.
         13    1    5    5    0    0  0.79313947982E+02  0.63071147669E+01 -0.24209825676E+02  0.83166085037E+02  0.00000000000E+00 0.  1.
        -13    1    5    5    0    0  0.21076295416E+03  0.17692147683E+03 -0.99808161410E+02  0.29271812533E+03  0.00000000000E+00 0. -1.
          1    1    6    6  503    0 -0.27150372879E+03 -0.30937720110E+03 -0.72224806395E+03  0.83130667818E+03  0.00000000000E+00 0. -1.
         -1    1    6    6    0  503 -0.16343323491E+02 -0.14350880905E+02 -0.90741830782E+01  0.23566773305E+02  0.00000000000E+00 0.  1.
<mgrwt>
<rscale>  0 0.13014758E+04</rscale>
<asrwt>0</asrwt>
<pdfrwt beam="1">  1        2 0.60471791E-01 0.13014758E+04</pdfrwt>
<pdfrwt beam="2">  1       -2 0.16574203E+00 0.13014758E+04</pdfrwt>
<totfact> 0.18155279E+01</totfact>
</mgrwt>
</event>
<event>
12    3  0.4634846E-008  0.1701900E+04  0.7818608E-02  0.8760282E-01
         -2   -1    0    0    0  501 -0.00000000000E+00  0.00000000000E+00  0.38655487209E+03  0.38655487209E+03  0.00000000000E+00 0.  1.
          2   -1    0    0  501    0  0.00000000000E+00 -0.00000000000E+00 -0.18732542115E+04  0.18732542115E+04  0.00000000000E+00 0. -1.
         23    2    1    2    0    0  0.59043991860E+03 -0.22440341451E+03 -0.46437567016E+03  0.78853280646E+03  0.84634708707E+02 0.  0.
        254    2    1    2    0    0 -0.59043991860E+03  0.22440341451E+03 -0.10223236693E+04  0.14712762771E+04  0.84884156884E+03 0.  0.
         23    2    4    4    0    0 -0.38432064945E+03 -0.19491883607E+03 -0.86682518908E+03  0.97216358422E+03  0.89556751830E+02 0.  0.
         23    2    4    4    0    0 -0.20611926914E+03  0.41932225057E+03 -0.15549848018E+03  0.49911269292E+03  0.81347402861E+02 0.  0.
          4    1    3    3  502    0  0.55627401162E+03 -0.21933603991E+03 -0.45847941415E+03  0.75349349540E+03  0.00000000000E+00 0. -1.
         -4    1    3    3    0  502  0.34165906980E+02 -0.50673745975E+01 -0.58962560049E+01  0.35039311065E+02  0.00000000000E+00 0.  1.
         13    1    5    5    0    0 -0.33949738204E+03 -0.17089112376E+03 -0.81642991062E+03  0.90056651478E+03  0.00000000000E+00 0. -1.
        -13    1    5    5    0    0 -0.44823267412E+02 -0.24027712307E+02 -0.50395278464E+02  0.71597069435E+02  0.00000000000E+00 0.  1.
          3    1    6    6  503    0 -0.18812750648E+03  0.30957638879E+03 -0.10650518008E+03  0.37758820503E+03  0.00000000000E+00 0. -1.
         -3    1    6    6    0  503 -0.17991762668E+02  0.10974586178E+03 -0.48993300104E+02  0.12152448789E+03  0.00000000000E+00 0.  1.
<mgrwt>
<rscale>  0 0.17018996E+04</rscale>
<asrwt>0</asrwt>
<pdfrwt beam="1">  1        2 0.28819295E+00 0.17018996E+04</pdfrwt>
<pdfrwt beam="2">  1       -2 0.59469981E-01 0.17018996E+04</pdfrwt>
<totfact> 0.19727752E+01</totfact>
</mgrwt>
</event>
<event>
12    3  0.4634846E-008  0.1163136E+04  0.7818608E-02  0.9145750E-01
         -1   -1    0    0    0  501 -0.00000000000E+00  0.00000000000E+00  0.36729934112E+03  0.36729934112E+03  0.00000000000E+00 0.  1.
          1   -1    0    0  501    0  0.00000000000E+00 -0.00000000000E+00 -0.92083303363E+03  0.92083303363E+03  0.00000000000E+00 0. -1.
         23    2    1    2    0    0 -0.20399204773E+03  0.17346508619E+02 -0.50153826968E+02  0.23459923574E+03  0.10299387434E+03 0.  0.
        254    2    1    2    0    0  0.20399204773E+03 -0.17346508619E+02 -0.50337986554E+03  0.10535331390E+04  0.90256696653E+03 0.  0.
         23    2    4    4    0    0 -0.31890065853E+03 -0.15867917282E+03 -0.27288614760E+03  0.45784584659E+03  0.90990437906E+02 0.  0.
         23    2    4    4    0    0  0.52289270626E+03  0.14133266420E+03 -0.23049371794E+03  0.59568729243E+03  0.91237558713E+02 0.  0.
          2    1    3    3  502    0 -0.12071649457E+03 -0.28554219996E-02 -0.79582880311E+02  0.14458875097E+03  0.00000000000E+00 0.  1.
         -2    1    3    3    0  502 -0.83275553163E+02  0.17349364041E+02  0.29429053343E+02  0.90010484766E+02  0.00000000000E+00 0. -1.
         13    1    5    5    0    0 -0.16596798606E+03 -0.33377777059E+02 -0.13933009750E+03  0.21925401813E+03  0.00000000000E+00 0. -1.
        -13    1    5    5    0    0 -0.15293267247E+03 -0.12530139576E+03 -0.13355605010E+03  0.23859182846E+03  0.00000000000E+00 0.  1.
          2    1    6    6  503    0  0.43840641487E+03  0.84641279219E+02 -0.20170903603E+03  0.48994986066E+03  0.00000000000E+00 0. -1.
         -2    1    6    6    0  503  0.84486291390E+02  0.56691384978E+02 -0.28784681916E+02  0.10573743177E+03  0.00000000000E+00 0.  1.
<mgrwt>
<rscale>  0 0.11631360E+04</rscale>
<asrwt>0</asrwt>
<pdfrwt beam="1">  1        1 0.14166662E+00 0.11631360E+04</pdfrwt>
<pdfrwt beam="2">  1       -1 0.56507592E-01 0.11631360E+04</pdfrwt>
<totfact> 0.55025943E+01</totfact>
</mgrwt>
</event>
<event>
12    3  0.4634846E-008  0.2430104E+04  0.7818608E-02  0.8428318E-01
          2   -1    0    0  501    0  0.00000000000E+00  0.00000000000E+00  0.80825072471E+03  0.80825072471E+03  0.00000000000E+00 0. -1.
         -2   -1    0    0    0  501 -0.00000000000E+00 -0.00000000000E+00 -0.18266008693E+04  0.18266008693E+04  0.00000000000E+00 0.  1.
         23    2    1    2    0    0  0.36479507504E+03  0.34355297033E+03  0.55683141934E+03  0.75560843740E+03  0.98887769261E+02 0.  0.
        254    2    1    2    0    0 -0.36479507504E+03 -0.34355297033E+03 -0.15751815639E+04  0.18792431566E+04  0.89400995078E+03 0.  0.
         23    2    4    4    0    0  0.26712167093E+03 -0.24394934115E+03 -0.48152474686E+03  0.60897755853E+03  0.90123897086E+02 0.  0.
         23    2    4    4    0    0 -0.63191674597E+03 -0.99603629181E+02 -0.10936568170E+04  0.12702655980E+04  0.90828405995E+02 0.  0.
          3    1    3    3  502    0  0.36467917197E+03  0.32295658453E+03  0.51443581905E+03  0.70847446382E+03  0.00000000000E+00 0. -1.
         -3    1    3    3    0  502  0.11590306768E+00  0.20596385802E+02  0.42395600292E+02  0.47133973583E+02  0.00000000000E+00 0.  1.
         13    1    5    5    0    0  0.17059407458E+02 -0.62886930781E+01 -0.68287772406E+02  0.70666759538E+02  0.00000000000E+00 0.  1.
        -13    1    5    5    0    0  0.25006226347E+03 -0.23766064807E+03 -0.41323697445E+03  0.53831079899E+03  0.00000000000E+00 0. -1.
          4    1    6    6  503    0 -0.55469757099E+03 -0.11409966491E+03 -0.93285379029E+03  0.10912947919E+04  0.00000000000E+00 0. -1.
         -4    1    6    6    0  503 -0.77219174986E+02  0.14496035729E+02 -0.16080302674E+03  0.17897080613E+03  0.00000000000E+00 0.  1.
<mgrwt>
<rscale>  0 0.24301041E+04</rscale>
<asrwt>0</asrwt>
<pdfrwt beam="1">  1        2 0.12434627E+00 0.24301041E+04</pdfrwt>
<pdfrwt beam="2">  1       -2 0.28101551E+00 0.24301041E+04</pdfrwt>
<totfact> 0.12654079E+00</totfact>
</mgrwt>
</event>
<event>
12    3  0.4634846E-008  0.1266953E+04  0.7818608E-02  0.9056190E-01
         -1   -1    0    0    0  501 -0.00000000000E+00  0.00000000000E+00  0.57323840563E+03  0.57323840563E+03  0.00000000000E+00 0.  1.
          1   -1    0    0  501    0  0.00000000000E+00 -0.00000000000E+00 -0.70004444729E+03  0.70004444729E+03  0.00000000000E+00 0. -1.
         23    2    1    2    0    0 -0.17024614750E+03  0.58468082611E+02 -0.26161724237E+03  0.33649576847E+03  0.11128141476E+03 0.  0.
        254    2    1    2    0    0  0.17024614750E+03 -0.58468082611E+02  0.13481120070E+03  0.93678708445E+03  0.90939194759E+03 0.  0.
         23    2    4    4    0    0  0.95500064298E+02 -0.26789326333E+02  0.51805654030E+03  0.53553894371E+03  0.92636121413E+02 0.  0.
         23    2    4    4    0    0  0.74746083203E+02 -0.31678756278E+02 -0.38324533960E+03  0.40124814074E+03  0.86790319595E+02 0.  0.
          2    1    3    3  502    0 -0.12355735953E+03  0.37321619460E+02 -0.25368381244E+03  0.28463099106E+03  0.00000000000E+00 0. -1.
         -2    1    3    3    0  502 -0.46688787973E+02  0.21146463151E+02 -0.79334299266E+01  0.51864777418E+02  0.00000000000E+00 0.  1.
         13    1    5    5    0    0  0.46901761643E+02  0.33837238040E+02  0.23494302433E+03  0.24195652214E+03  0.00000000000E+00 0.  1.
        -13    1    5    5    0    0  0.48598302655E+02 -0.60626564373E+02  0.28311351597E+03  0.29358242157E+03  0.00000000000E+00 0. -1.
          3    1    6    6  503    0  0.10705954808E+02 -0.33778679966E+02 -0.25940157975E+03  0.26181061144E+03  0.00000000000E+00 0. -1.
         -3    1    6    6    0  503  0.64040128395E+02  0.20999236880E+01 -0.12384375985E+03  0.13943752930E+03  0.00000000000E+00 0.  1.
<mgrwt>
<rscale>  0 0.12669528E+04</rscale>
<asrwt>0</asrwt>
<pdfrwt beam="1">  1        1 0.10769915E+00 0.12669528E+04</pdfrwt>
<pdfrwt beam="2">  1       -1 0.88190523E-01 0.12669528E+04</pdfrwt>
<totfact> 0.33910857E+01</totfact>
</mgrwt>
</event>
<event>
12    3  0.4634846E-008  0.2813804E+04  0.7818608E-02  0.8298996E-01
          2   -1    0    0  501    0  0.00000000000E+00  0.00000000000E+00  0.54846197777E+03  0.54846197777E+03  0.00000000000E+00 0. -1.
         -2   -1    0    0    0  501 -0.00000000000E+00 -0.00000000000E+00 -0.36089528655E+04  0.36089528655E+04  0.00000000000E+00 0.  1.
         23    2    1    2    0    0  0.11777204997E+03 -0.10624666015E+04 -0.23699182981E+04  0.26013401640E+04  0.88047564811E+02 0.  0.
        254    2    1    2    0    0 -0.11777204997E+03  0.10624666015E+04 -0.69057258958E+03  0.15560746793E+04  0.89541742831E+03 0.  0.
         23    2    4    4    0    0 -0.46043993818E+03  0.41915963033E+03 -0.15817737557E+03  0.64890510569E+03  0.91422216542E+02 0.  0.
         23    2    4    4    0    0  0.34266788821E+03  0.64330697121E+03 -0.53239521401E+03  0.90716957361E+03  0.90812061769E+02 0.  0.
          1    1    3    3  502    0  0.45788976725E+02 -0.14755156250E+03 -0.36566204915E+03  0.39695947926E+03  0.00000000000E+00 0. -1.
         -1    1    3    3    0  502  0.71983073249E+02 -0.91491503904E+03 -0.20042562490E+04  0.22043806847E+04  0.00000000000E+00 0.  1.
         13    1    5    5    0    0 -0.21554850076E+03  0.25307871166E+03 -0.10196471533E+03  0.34771654210E+03  0.00000000000E+00 0. -1.
        -13    1    5    5    0    0 -0.24489143742E+03  0.16608091867E+03 -0.56212660244E+02  0.30118856359E+03  0.00000000000E+00 0.  1.
          4    1    6    6  503    0  0.32023049595E+03  0.54155900450E+03 -0.43825515404E+03  0.76674722427E+03  0.00000000000E+00 0.  1.
         -4    1    6    6    0  503  0.22437392258E+02  0.10174796672E+03 -0.94140059967E+02  0.14042234934E+03  0.00000000000E+00 0. -1.
<mgrwt>
<rscale>  0 0.28138041E+04</rscale>
<asrwt>0</asrwt>
<pdfrwt beam="1">  1        2 0.84378769E-01 0.28138041E+04</pdfrwt>
<pdfrwt beam="2">  1       -2 0.55522350E+00 0.28138041E+04</pdfrwt>
<totfact> 0.38181754E-02</totfact>
</mgrwt>
</event>
<event>
12    3  0.4634846E-008  0.1228696E+04  0.7818608E-02  0.9088103E-01
          2   -1    0    0  501    0  0.00000000000E+00  0.00000000000E+00  0.14330267220E+04  0.14330267220E+04  0.00000000000E+00 0. -1.
         -2   -1    0    0    0  501 -0.00000000000E+00 -0.00000000000E+00 -0.26337504884E+03  0.26337504884E+03  0.00000000000E+00 0.  1.
         23    2    1    2    0    0 -0.16050649327E+03  0.21364332794E+03  0.33238760916E+03  0.43599656478E+03  0.90585185394E+02 0.  0.
        254    2    1    2    0    0  0.16050649327E+03 -0.21364332794E+03  0.83726406404E+03  0.12604052061E+04  0.90344029392E+03 0.  0.
         23    2    4    4    0    0 -0.17663006534E+03  0.19703735888E+03  0.61750905518E+03  0.67796188635E+03  0.91065829664E+02 0.  0.
         23    2    4    4    0    0  0.33713655861E+03 -0.41068068683E+03  0.21975500885E+03  0.58244331975E+03  0.92888487553E+02 0.  0.
          1    1    3    3  502    0  0.36865337597E+01 -0.60414533990E+01  0.39536998862E+01  0.81068756697E+01  0.00000000000E+00 0. -1.
         -1    1    3    3    0  502 -0.16419302703E+03  0.21968478134E+03  0.32843390928E+03  0.42788968911E+03  0.00000000000E+00 0.  1.
         13    1    5    5    0    0 -0.10500791426E+03  0.75104827200E+02  0.20889242100E+03  0.24556758882E+03  0.00000000000E+00 0. -1.
        -13    1    5    5    0    0 -0.71622151078E+02  0.12193253168E+03  0.40861663418E+03  0.43239429753E+03  0.00000000000E+00 0.  1.
          1    1    6    6  503    0  0.27380570604E+03 -0.31428994430E+03  0.20987870499E+03  0.46668705206E+03  0.00000000000E+00 0. -1.
         -1    1    6    6    0  503  0.63330852575E+02 -0.96390742525E+02  0.98763038613E+01  0.11575626769E+03  0.00000000000E+00 0.  1.
<mgrwt>
<rscale>  0 0.12286960E+04</rscale>
<asrwt>0</asrwt>
<pdfrwt beam="1">  1        2 0.22046564E+00 0.12286960E+04</pdfrwt>
<pdfrwt beam="2">  1       -2 0.40519239E-01 0.12286960E+04</pdfrwt>
<totfact> 0.78645359E+01</totfact>
</mgrwt>
</event>
<event>
12    3  0.4634846E-008  0.2659528E+04  0.7818608E-02  0.8348258E-01
         -1   -1    0    0    0  501 -0.00000000000E+00  0.00000000000E+00  0.83094755968E+03  0.83094755968E+03  0.00000000000E+00 0.  1.
          1   -1    0    0  501    0  0.00000000000E+00 -0.00000000000E+00 -0.21280184736E+04  0.21280184736E+04  0.00000000000E+00 0. -1.
         23    2    1    2    0    0  0.21278225506E+03  0.12268698813E+01  0.71143802821E+03  0.74824113979E+03  0.91885483204E+02 0.  0.
        254    2    1    2    0    0 -0.21278225506E+03 -0.12268698813E+01 -0.20085089421E+04  0.22107248935E+04  0.89884291774E+03 0.  0.
         23    2    4    4    0    0 -0.18338002485E+03 -0.21830783302E+03 -0.19406290470E+04  0.19634676170E+04  0.88754952122E+02 0.  0.
         23    2    4    4    0    0 -0.29402230203E+02  0.21708096314E+03 -0.67879895142E+02  0.24725727648E+03  0.92411281297E+02 0.  0.
          1    1    3    3  502    0  0.14143366542E+03  0.44091222486E+01  0.31364091393E+03  0.34408363077E+03  0.00000000000E+00 0. -1.
         -1    1    3    3    0  502  0.71348589639E+02 -0.31822523673E+01  0.39779711427E+03  0.40415750902E+03  0.00000000000E+00 0.  1.
         13    1    5    5    0    0 -0.15155109704E+03 -0.17397405222E+03 -0.12832651130E+04  0.13038420365E+04  0.00000000000E+00 0. -1.
        -13    1    5    5    0    0 -0.31828927819E+02 -0.44333780804E+02 -0.65736393396E+03  0.65962558049E+03  0.00000000000E+00 0.  1.
          3    1    6    6  503    0  0.24246463879E+02  0.10017644446E+03 -0.28076527983E+01  0.10310719640E+03  0.00000000000E+00 0. -1.
         -3    1    6    6    0  503 -0.53648694082E+02  0.11690451868E+03 -0.65072242344E+02  0.14415008009E+03  0.00000000000E+00 0.  1.
<mgrwt>
<rscale>  0 0.26595276E+04</rscale>
<asrwt>0</asrwt>
<pdfrwt beam="1">  1        1 0.32738745E+00 0.26595276E+04</pdfrwt>
<pdfrwt beam="2">  1       -1 0.12783809E+00 0.26595276E+04</pdfrwt>
<totfact> 0.11303653E+00</totfact>
</mgrwt>
</event>
<event>
12    3  0.4634846E-008  0.2639510E+04  0.7818608E-02  0.8354903E-01
         -2   -1    0    0    0  501 -0.00000000000E+00  0.00000000000E+00  0.76087502048E+03  0.76087502048E+03  0.00000000000E+00 0.  1.
          2   -1    0    0  501    0  0.00000000000E+00 -0.00000000000E+00 -0.22891453235E+04  0.22891453235E+04  0.00000000000E+00 0. -1.
         23    2    1    2    0    0  0.71782002498E+03  0.79175005125E+02  0.37477435236E+03  0.81934476823E+03  0.96621759110E+02 0.  0.
        254    2    1    2    0    0 -0.71782002498E+03 -0.79175005125E+02 -0.19030446553E+04  0.22306755757E+04  0.91257892487E+03 0.  0.
         23    2    4    4    0    0 -0.45451839798E+03 -0.48031995571E+03 -0.97554464067E+03  0.11821582785E+04  0.92285511177E+02 0.  0.
         23    2    4    4    0    0 -0.26330162700E+03  0.40114495058E+03 -0.92750001467E+03  0.10485172972E+04  0.94272090920E+02 0.  0.
          2    1    3    3  502    0  0.10887228411E+03 -0.45528597825E+01  0.23844680897E+02  0.11154582729E+03  0.00000000000E+00 0. -1.
         -2    1    3    3    0  502  0.60894774088E+03  0.83727864908E+02  0.35092967146E+03  0.70779894094E+03  0.00000000000E+00 0.  1.
         13    1    5    5    0    0 -0.41547071545E+03 -0.45115537848E+03 -0.85581762134E+03  0.10528916810E+04  0.00000000000E+00 0. -1.
        -13    1    5    5    0    0 -0.39047682538E+02 -0.29164577228E+02 -0.11972701932E+03  0.12926659751E+03  0.00000000000E+00 0.  1.
          3    1    6    6  503    0 -0.18147320687E+03  0.19527479303E+03 -0.47481452621E+03  0.54453062715E+03  0.00000000000E+00 0. -1.
         -3    1    6    6    0  503 -0.81828420132E+02  0.20587015755E+03 -0.45268548846E+03  0.50398667004E+03  0.00000000000E+00 0.  1.
<mgrwt>
<rscale>  0 0.26395102E+04</rscale>
<asrwt>0</asrwt>
<pdfrwt beam="1">  1        2 0.35217620E+00 0.26395102E+04</pdfrwt>
<pdfrwt beam="2">  1       -2 0.11705770E+00 0.26395102E+04</pdfrwt>
<totfact> 0.22887165E+00</totfact>
</mgrwt>
</event>
<event>
12    3  0.4634846E-008  0.2056090E+04  0.7818608E-02  0.8580837E-01
         -2   -1    0    0    0  501 -0.00000000000E+00  0.00000000000E+00  0.11872510986E+04  0.11872510986E+04  0.00000000000E+00 0.  1.
          2   -1    0    0  501    0  0.00000000000E+00 -0.00000000000E+00 -0.89018786075E+03  0.89018786075E+03  0.00000000000E+00 0. -1.
         23    2    1    2    0    0 -0.58792785565E+03 -0.10420012976E+03 -0.46152173189E+03  0.75986371980E+03  0.88734058684E+02 0.  0.
        254    2    1    2    0    0  0.58792785565E+03  0.10420012976E+03  0.75858496977E+03  0.13175752396E+04  0.89668083794E+03 0.  0.
         23    2    4    4    0    0  0.45585067996E+03  0.32030331925E+03  0.58206490643E+02  0.56720345105E+03  0.89093774100E+02 0.  0.
         23    2    4    4    0    0  0.13207717569E+03 -0.21610318950E+03  0.70037847913E+03  0.75037178854E+03  0.91557840553E+02 0.  0.
          3    1    3    3  502    0 -0.42751267102E+03 -0.63752234375E+02 -0.37956450104E+03  0.57523963852E+03  0.00000000000E+00 0. -1.
         -3    1    3    3    0  502 -0.16041518463E+03 -0.40447895382E+02 -0.81957230843E+02  0.18462408128E+03  0.00000000000E+00 0.  1.
         13    1    5    5    0    0  0.26090613801E+03  0.18683167209E+03  0.77597228947E+02  0.33015059668E+03  0.00000000000E+00 0. -1.
        -13    1    5    5    0    0  0.19494454195E+03  0.13347164716E+03 -0.19390738304E+02  0.23705285437E+03  0.00000000000E+00 0.  1.
          3    1    6    6  503    0  0.22763608779E+02 -0.81367594296E+02  0.13774528316E+03  0.16159402935E+03  0.00000000000E+00 0. -1.
         -3    1    6    6    0  503  0.10931356691E+03 -0.13473559520E+03  0.56263319596E+03  0.58877775920E+03  0.00000000000E+00 0.  1.
<mgrwt>
<rscale>  0 0.20560900E+04</rscale>
<asrwt>0</asrwt>
<pdfrwt beam="1">  1        2 0.13695198E+00 0.20560900E+04</pdfrwt>
<pdfrwt beam="2">  1       -2 0.18265402E+00 0.20560900E+04</pdfrwt>
<totfact> 0.47857510E+00</totfact>
</mgrwt>
</event>
<event>
12    3  0.4634846E-008  0.1536509E+04  0.7818608E-02  0.8860531E-01
         -2   -1    0    0    0  501 -0.00000000000E+00  0.00000000000E+00  0.73821802044E+03  0.73821802044E+03  0.00000000000E+00 0.  1.
          2   -1    0    0  501    0  0.00000000000E+00 -0.00000000000E+00 -0.79951294262E+03  0.79951294262E+03  0.00000000000E+00 0. -1.
         23    2    1    2    0    0 -0.14502535721E+02 -0.21922196124E+03 -0.46295721344E+03  0.52086624867E+03  0.93293492292E+02 0.  0.
        254    2    1    2    0    0  0.14502535721E+02  0.21922196124E+03  0.40166229126E+03  0.10168647144E+04  0.90797172825E+03 0.  0.
         23    2    4    4    0    0 -0.12542862059E+03  0.54043767837E+03  0.31725496009E+03  0.64542683352E+03  0.90110291658E+02 0.  0.
         23    2    4    4    0    0  0.13993115631E+03 -0.32121571713E+03  0.84407331164E+02  0.37143788086E+03  0.89895697039E+02 0.  0.
          3    1    3    3  502    0 -0.35635268409E+02 -0.18737223593E+03 -0.42997893717E+03  0.47038294353E+03  0.00000000000E+00 0. -1.
         -3    1    3    3    0  502  0.21132732688E+02 -0.31849725309E+02 -0.32978276268E+02  0.50483305148E+02  0.00000000000E+00 0.  1.
         13    1    5    5    0    0 -0.97133989806E+01  0.23736289155E+03  0.14003567874E+03  0.27576345611E+03  0.00000000000E+00 0.  1.
        -13    1    5    5    0    0 -0.11571522161E+03  0.30307478682E+03  0.17721928135E+03  0.36966337741E+03  0.00000000000E+00 0. -1.
          2    1    6    6  503    0  0.33137851773E+02 -0.14759420344E+03  0.71163458512E+02  0.16717177972E+03  0.00000000000E+00 0.  1.
         -2    1    6    6    0  503  0.10679330454E+03 -0.17362151369E+03  0.13243872652E+02  0.20426610114E+03  0.00000000000E+00 0. -1.
<mgrwt>
<rscale>  0 0.15365089E+04</rscale>
<asrwt>0</asrwt>
<pdfrwt beam="1">  1        2 0.12300199E+00 0.15365089E+04</pdfrwt>
<pdfrwt beam="2">  1       -2 0.11357200E+00 0.15365089E+04</pdfrwt>
<totfact> 0.20194105E+01</totfact>
</mgrwt>
</event>
<event>
12    3  0.4634846E-008  0.1585873E+04  0.7818608E-02  0.8829274E-01
          1   -1    0    0  501    0  0.00000000000E+00  0.00000000000E+00  0.94639734584E+03  0.94639734584E+03  0.00000000000E+00 0. -1.
         -1   -1    0    0    0  501 -0.00000000000E+00 -0.00000000000E+00 -0.66436014730E+03  0.66436014730E+03  0.00000000000E+00 0.  1.
         23    2    1    2    0    0  0.51683551471E+03  0.38752673268E+02  0.55931781664E+02  0.52597628846E+03  0.70014090557E+02 0.  0.
        254    2    1    2    0    0 -0.51683551471E+03 -0.38752673268E+02  0.22610541688E+03  0.10847812047E+04  0.92574612261E+03 0.  0.
         23    2    4    4    0    0 -0.65947998121E+03  0.50255931714E+02 -0.13089756439E+03  0.68009637161E+03  0.89204248935E+02 0.  0.
         23    2    4    4    0    0  0.14264446650E+03 -0.89008604982E+02  0.35700298127E+03  0.40468483306E+03  0.89714602446E+02 0.  0.
          1    1    3    3  502    0  0.95782352526E+02 -0.19312381865E+02  0.41802093288E+01  0.97799290891E+02  0.00000000000E+00 0. -1.
         -1    1    3    3    0  502  0.42105316218E+03  0.58065055133E+02  0.51751572335E+02  0.42817699757E+03  0.00000000000E+00 0.  1.
         13    1    5    5    0    0 -0.25216614618E+03  0.28742155753E+02 -0.73166101621E+01  0.25390433155E+03  0.00000000000E+00 0.  1.
        -13    1    5    5    0    0 -0.40731383504E+03  0.21513775961E+02 -0.12358095423E+03  0.42619204007E+03  0.00000000000E+00 0. -1.
          2    1    6    6  503    0  0.10529499041E+03 -0.68245880122E+02  0.33258522858E+03  0.35546795837E+03  0.00000000000E+00 0. -1.
         -2    1    6    6    0  503  0.37349476096E+02 -0.20762724860E+02  0.24417752690E+02  0.49216874694E+02  0.00000000000E+00 0.  1.
<mgrwt>
<rscale>  0 0.15858735E+04</rscale>
<asrwt>0</asrwt>
<pdfrwt beam="1">  1        1 0.14559959E+00 0.15858735E+04</pdfrwt>
<pdfrwt beam="2">  1       -1 0.10220925E+00 0.15858735E+04</pdfrwt>
<totfact> 0.14531089E+01</totfact>
</mgrwt>
</event>
<event>
12    3  0.4634846E-008  0.1232179E+04  0.7818608E-02  0.9085148E-01
          1   -1    0    0  501    0  0.00000000000E+00  0.00000000000E+00  0.27401126017E+04  0.27401126017E+04  0.00000000000E+00 0. -1.
         -1   -1    0    0    0  501 -0.00000000000E+00 -0.00000000000E+00 -0.13852204763E+03  0.13852204763E+03  0.00000000000E+00 0.  1.
         23    2    1    2    0    0 -0.22375556021E+03  0.12751262776E+02  0.96933935603E+03  0.99892774190E+03  0.89491345755E+02 0.  0.
        254    2    1    2    0    0  0.22375556021E+03 -0.12751262776E+02  0.16322511980E+04  0.18797069074E+04  0.90488946224E+03 0.  0.
         23    2    4    4    0    0  0.53109135478E+03 -0.42205119349E+02  0.64692119697E+03  0.84306042423E+03  0.91676303312E+02 0.  0.
         23    2    4    4    0    0 -0.30733579457E+03  0.29453856574E+02  0.98533000106E+03  0.10366464832E+04  0.91858041660E+02 0.  0.
          3    1    3    3  502    0 -0.16021442612E+03  0.49730301826E+02  0.68342852291E+03  0.70371607285E+03  0.00000000000E+00 0. -1.
         -3    1    3    3    0  502 -0.63541134091E+02 -0.36979039050E+02  0.28591083312E+03  0.29521166905E+03  0.00000000000E+00 0.  1.
         13    1    5    5    0    0  0.26230333977E+03  0.60182848815E+01  0.25911485115E+03  0.36875434627E+03  0.00000000000E+00 0. -1.
        -13    1    5    5    0    0  0.26878801501E+03 -0.48223404231E+02  0.38780634582E+03  0.47430607796E+03  0.00000000000E+00 0.  1.
          4    1    6    6  503    0 -0.40777590515E+02 -0.11415806065E+02  0.24711969717E+03  0.25072151332E+03  0.00000000000E+00 0. -1.
         -4    1    6    6    0  503 -0.26655820405E+03  0.40869662639E+02  0.73821030390E+03  0.78592496986E+03  0.00000000000E+00 0.  1.
<mgrwt>
<rscale>  0 0.12321786E+04</rscale>
<asrwt>0</asrwt>
<pdfrwt beam="1">  1        1 0.42155574E+00 0.12321786E+04</pdfrwt>
<pdfrwt beam="2">  1       -1 0.21311086E-01 0.12321786E+04</pdfrwt>
<totfact> 0.16828504E+01</totfact>
</mgrwt>
</event>
<event>
12    3  0.4634846E-008  0.1353550E+04  0.7818608E-02  0.8988145E-01
          1   -1    0    0  501    0  0.00000000000E+00  0.00000000000E+00  0.80804149812E+03  0.80804149812E+03  0.00000000000E+00 0. -1.
         -1   -1    0    0    0  501 -0.00000000000E+00 -0.00000000000E+00 -0.56683260893E+03  0.56683260893E+03  0.00000000000E+00 0.  1.
         23    2    1    2    0    0  0.10780427858E+03  0.13254945827E+03 -0.25985998736E+03  0.32368319793E+03  0.89735601750E+02 0.  0.
        254    2    1    2    0    0 -0.10780427858E+03 -0.13254945827E+03  0.50106887656E+03  0.10511909091E+04  0.90815262318E+03 0.  0.
         23    2    4    4    0    0  0.98622980682E+02  0.10128215888E+03 -0.21011157663E+03  0.26883250928E+03  0.90219041135E+02 0.  0.
         23    2    4    4    0    0 -0.20642725927E+03 -0.23383161715E+03  0.71118045319E+03  0.78235839984E+03  0.94960993325E+02 0.  0.
          3    1    3    3  502    0 -0.13370846623E+02  0.23331788233E+02 -0.19604359537E+02  0.33278864079E+02  0.00000000000E+00 0. -1.
         -3    1    3    3    0  502  0.12117512521E+03  0.10921767004E+03 -0.24025562782E+03  0.29040433385E+03  0.00000000000E+00 0.  1.
         13    1    5    5    0    0  0.85890942445E+02  0.79052525677E+02 -0.21316385845E+03  0.24303371445E+03  0.00000000000E+00 0.  1.
        -13    1    5    5    0    0  0.12732038238E+02  0.22229633206E+02  0.30522818208E+01  0.25798794826E+02  0.00000000000E+00 0. -1.
          2    1    6    6  503    0 -0.68048206965E+02 -0.13538895745E+03  0.26987034699E+03  0.30950077941E+03  0.00000000000E+00 0. -1.
         -2    1    6    6    0  503 -0.13837905230E+03 -0.98442659701E+02  0.44131010621E+03  0.47285762043E+03  0.00000000000E+00 0.  1.
<mgrwt>
<rscale>  0 0.13535498E+04</rscale>
<asrwt>0</asrwt>
<pdfrwt beam="1">  1        1 0.12431408E+00 0.13535498E+04</pdfrwt>
<pdfrwt beam="2">  1       -1 0.87205017E-01 0.13535498E+04</pdfrwt>
<totfact> 0.27575641E+01</totfact>
</mgrwt>
</event>
<event>
12    3  0.4634846E-008  0.2618106E+04  0.7818608E-02  0.8362077E-01
         -1   -1    0    0    0  501 -0.00000000000E+00  0.00000000000E+00  0.14933549425E+04  0.14933549425E+04  0.00000000000E+00 0.  1.
          1   -1    0    0  501    0  0.00000000000E+00 -0.00000000000E+00 -0.11474967305E+04  0.11474967305E+04  0.00000000000E+00 0. -1.
         23    2    1    2    0    0  0.80254905540E+03  0.19416496120E+03 -0.67116343074E+03  0.10680476384E+04  0.92089025695E+02 0.  0.
        254    2    1    2    0    0 -0.80254905540E+03 -0.19416496120E+03  0.10170216427E+04  0.15728040346E+04  0.87039904118E+03 0.  0.
         23    2    4    4    0    0  0.73543373515E+02 -0.52094301663E+02 -0.87180611738E+02  0.15311570963E+03  0.87872165207E+02 0.  0.
         23    2    4    4    0    0 -0.87609242892E+03 -0.14207065954E+03  0.11042022545E+04  0.14196883249E+04  0.92359649653E+02 0.  0.
          4    1    3    3  502    0  0.80179705093E+03  0.19502305909E+03 -0.67370243890E+03  0.10652640427E+04  0.00000000000E+00 0. -1.
         -4    1    3    3    0  502  0.75200447106E+00 -0.85809789368E+00  0.25390081560E+01  0.27835957207E+01  0.00000000000E+00 0.  1.
         13    1    5    5    0    0 -0.70327637252E+01  0.54902375782E+01  0.10658666344E+02  0.13899987141E+02  0.00000000000E+00 0.  1.
        -13    1    5    5    0    0  0.80576137240E+02 -0.57584539241E+02 -0.97839278082E+02  0.13921572249E+03  0.00000000000E+00 0. -1.
          1    1    6    6  503    0 -0.80684538470E+03 -0.15272580238E+03  0.99727770602E+03  0.12918542752E+04  0.00000000000E+00 0. -1.
         -1    1    6    6    0  503 -0.69247044219E+02  0.10655142845E+02  0.10692454845E+03  0.12783404970E+03  0.00000000000E+00 0.  1.
<mgrwt>
<rscale>  0 0.26181061E+04</rscale>
<asrwt>0</asrwt>
<pdfrwt beam="1">  1        1 0.17653796E+00 0.26181061E+04</pdfrwt>
<pdfrwt beam="2">  1       -1 0.22974691E+00 0.26181061E+04</pdfrwt>
<totfact> 0.97342056E-01</totfact>
</mgrwt>
</event>
<event>
12    3  0.4634846E-008  0.2316321E+04  0.7818608E-02  0.8471514E-01
         -2   -1    0    0    0  501 -0.00000000000E+00  0.00000000000E+00  0.65957368736E+03  0.65957368736E+03  0.00000000000E+00 0.  1.
          2   -1    0    0  501    0  0.00000000000E+00 -0.00000000000E+00 -0.20336396963E+04  0.20336396963E+04  0.00000000000E+00 0. -1.
         23    2    1    2    0    0 -0.47758336018E+03 -0.83629957674E+03 -0.75649881883E+03  0.12283619737E+04  0.95393015876E+02 0.  0.
        254    2    1    2    0    0  0.47758336018E+03  0.83629957674E+03 -0.61756719012E+03  0.14648514100E+04  0.91483199066E+03 0.  0.
         23    2    4    4    0    0  0.40365762229E+03  0.45828498521E+03  0.11888222948E+03  0.62898657361E+03  0.92339166023E+02 0.  0.
         23    2    4    4    0    0  0.73925737885E+02  0.37801459152E+03 -0.73644941961E+03  0.83586483641E+03  0.89175282325E+02 0.  0.
          2    1    3    3  502    0 -0.62158372394E+02 -0.11435781427E+03 -0.14637641985E+03  0.19587605579E+03  0.00000000000E+00 0. -1.
         -2    1    3    3    0  502 -0.41542498779E+03 -0.72194176246E+03 -0.61012239898E+03  0.10324859179E+04  0.00000000000E+00 0.  1.
         13    1    5    5    0    0  0.29097903303E+03  0.26569755575E+03  0.63895087112E+02  0.39918237805E+03  0.00000000000E+00 0. -1.
        -13    1    5    5    0    0  0.11267858927E+03  0.19258742947E+03  0.54987142368E+02  0.22980419555E+03  0.00000000000E+00 0.  1.
          4    1    6    6  503    0  0.30105336702E+02  0.30367864910E+03 -0.61886379645E+03  0.69001409534E+03  0.00000000000E+00 0. -1.
         -4    1    6    6    0  503  0.43820401183E+02  0.74335942420E+02 -0.11758562316E+03  0.14585074106E+03  0.00000000000E+00 0.  1.
<mgrwt>
<rscale>  0 0.23163206E+04</rscale>
<asrwt>0</asrwt>
<pdfrwt beam="1">  1        2 0.31286765E+00 0.23163206E+04</pdfrwt>
<pdfrwt beam="2">  1       -2 0.10147288E+00 0.23163206E+04</pdfrwt>
<totfact> 0.46216514E+00</totfact>
</mgrwt>
</event>
<event>
12    3  0.4634846E-008  0.2108705E+04  0.7818608E-02  0.8557418E-01
         -2   -1    0    0    0  501 -0.00000000000E+00  0.00000000000E+00  0.11610196689E+04  0.11610196689E+04  0.00000000000E+00 0. -1.
          2   -1    0    0  501    0  0.00000000000E+00 -0.00000000000E+00 -0.95748563237E+03  0.95748563237E+03  0.00000000000E+00 0.  1.
         23    2    1    2    0    0 -0.64713560579E+03  0.54257380661E+03  0.21130116305E+03  0.87511806598E+03  0.89513239275E+02 0.  0.
        254    2    1    2    0    0  0.64713560579E+03 -0.54257380661E+03 -0.77671264848E+01  0.12433872353E+04  0.91256816778E+03 0.  0.
         23    2    4    4    0    0  0.36868252003E+03 -0.51386920570E+02 -0.39650268486E+03  0.55170776905E+03  0.92734390344E+02 0.  0.
         23    2    4    4    0    0  0.27845308576E+03 -0.49118688604E+03  0.38873555838E+03  0.69167946628E+03  0.92219692793E+02 0.  0.
          1    1    3    3  502    0 -0.12851947959E+03  0.10287898457E+03  0.54403102678E+01  0.16471472028E+03  0.00000000000E+00 0. -1.
         -1    1    3    3    0  502 -0.51861612620E+03  0.43969482204E+03  0.20586085279E+03  0.71040334571E+03  0.00000000000E+00 0.  1.
         13    1    5    5    0    0  0.30666791153E+03 -0.69170683293E+02 -0.29298532033E+03  0.42973269520E+03  0.00000000000E+00 0.  1.
        -13    1    5    5    0    0  0.62014608494E+02  0.17783762723E+02 -0.10351736453E+03  0.12197507386E+03  0.00000000000E+00 0. -1.
          2    1    6    6  503    0  0.96383308182E+01 -0.35295289072E+01  0.23775552723E+02  0.25896561597E+02  0.00000000000E+00 0. -1.
         -2    1    6    6    0  503  0.26881475494E+03 -0.48765735713E+03  0.36496000565E+03  0.66578290468E+03  0.00000000000E+00 0.  1.
<mgrwt>
<rscale>  0 0.21087054E+04</rscale>
<asrwt>0</asrwt>
<pdfrwt beam="1">  1        2 0.14730548E+00 0.21087054E+04</pdfrwt>
<pdfrwt beam="2">  1       -2 0.17861841E+00 0.21087054E+04</pdfrwt>
<totfact> 0.45811656E+00</totfact>
</mgrwt>
</event>
<event>
12    3  0.4634846E-008  0.2458338E+04  0.7818608E-02  0.8417980E-01
         -2   -1    0    0    0  501 -0.00000000000E+00  0.00000000000E+00  0.22201105948E+04  0.22201105948E+04  0.00000000000E+00 0.  1.
          2   -1    0    0  501    0  0.00000000000E+00 -0.00000000000E+00 -0.68053183883E+03  0.68053183883E+03  0.00000000000E+00 0. -1.
         23    2    1    2    0    0 -0.80194804071E+03 -0.64874411524E+03  0.37172882282E+03  0.11001972151E+04  0.90895584521E+02 0.  0.
        254    2    1    2    0    0  0.80194804071E+03  0.64874411524E+03  0.11678499331E+04  0.18004452185E+04  0.90207534696E+03 0.  0.
         23    2    4    4    0    0 -0.16336994191E+03  0.24440067089E+03  0.36903625826E+03  0.48077147890E+03  0.92368983785E+02 0.  0.
         23    2    4    4    0    0  0.96531798263E+03  0.40434344435E+03  0.79881367487E+03  0.13196737396E+04  0.90017017059E+02 0.  0.
          3    1    3    3  502    0 -0.77956071084E+03 -0.64001142568E+03  0.34950527509E+03  0.10674659078E+04  0.00000000000E+00 0. -1.
         -3    1    3    3    0  502 -0.22387329872E+02 -0.87326895560E+01  0.22223547727E+02  0.32731307325E+02  0.00000000000E+00 0.  1.
         13    1    5    5    0    0 -0.14485772843E+02 -0.98478494073E-01  0.50357114384E+02  0.52399296579E+02  0.00000000000E+00 0.  1.
        -13    1    5    5    0    0 -0.14888416907E+03  0.24449914938E+03  0.31867914388E+03  0.42837218232E+03  0.00000000000E+00 0. -1.
          4    1    6    6  503    0  0.48778620837E+03  0.15586257824E+03  0.39595191270E+03  0.64730707206E+03  0.00000000000E+00 0. -1.
         -4    1    6    6    0  503  0.47753177426E+03  0.24848086611E+03  0.40286176217E+03  0.67236666758E+03  0.00000000000E+00 0.  1.
<mgrwt>
<rscale>  0 0.24583376E+04</rscale>
<asrwt>0</asrwt>
<pdfrwt beam="1">  1        2 0.10469721E+00 0.24583376E+04</pdfrwt>
<pdfrwt beam="2">  1       -2 0.34155547E+00 0.24583376E+04</pdfrwt>
<totfact> 0.66844433E-01</totfact>
</mgrwt>
</event>
<event>
12    3  0.4634846E-008  0.1504800E+04  0.7818608E-02  0.8881267E-01
         -1   -1    0    0    0  501 -0.00000000000E+00  0.00000000000E+00  0.26412825950E+03  0.26412825950E+03  0.00000000000E+00 0.  1.
          1   -1    0    0  501    0  0.00000000000E+00 -0.00000000000E+00 -0.21432993025E+04  0.21432993025E+04  0.00000000000E+00 0. -1.
         23    2    1    2    0    0  0.10720422975E+03  0.36833364241E+03 -0.15317094578E+03  0.42312684289E+03  0.91720049774E+02 0.  0.
        254    2    1    2    0    0 -0.10720422975E+03 -0.36833364241E+03 -0.17260000972E+04  0.19843007191E+04  0.90067229848E+03 0.  0.
         23    2    4    4    0    0 -0.21176723728E+03  0.23534585668E+03 -0.85321305915E+03  0.91458431249E+03  0.90878519477E+02 0.  0.
         23    2    4    4    0    0  0.10456300753E+03 -0.60367949909E+03 -0.87278703803E+03  0.10697164066E+04  0.84697205435E+02 0.  0.
          2    1    3    3  502    0  0.61957128610E+02  0.11317278479E+03 -0.87180003728E+02  0.15571486138E+03  0.00000000000E+00 0. -1.
         -2    1    3    3    0  502  0.45247101141E+02  0.25516085762E+03 -0.65990942055E+02  0.26741198151E+03  0.00000000000E+00 0.  1.
         13    1    5    5    0    0 -0.71533433838E+02  0.11555852589E+03 -0.47074609777E+03  0.48997213557E+03  0.00000000000E+00 0.  1.
        -13    1    5    5    0    0 -0.14023380344E+03  0.11978733078E+03 -0.38246696138E+03  0.42461217692E+03  0.00000000000E+00 0. -1.
          1    1    6    6  503    0 -0.33438114522E+01 -0.25176042138E+02 -0.69047225069E+02  0.73569922268E+02  0.00000000000E+00 0. -1.
         -1    1    6    6    0  503  0.10790681898E+03 -0.57850345695E+03 -0.80373981297E+03  0.99614648432E+03  0.00000000000E+00 0.  1.
<mgrwt>
<rscale>  0 0.15048002E+04</rscale>
<asrwt>0</asrwt>
<pdfrwt beam="1">  1        1 0.32973836E+00 0.15048002E+04</pdfrwt>
<pdfrwt beam="2">  1       -1 0.40635116E-01 0.15048002E+04</pdfrwt>
<totfact> 0.13639673E+01</totfact>
</mgrwt>
</event>
<event>
12    3  0.4634846E-008  0.1363801E+04  0.7818608E-02  0.8980446E-01
         -1   -1    0    0    0  501 -0.00000000000E+00  0.00000000000E+00  0.83281539644E+03  0.83281539644E+03  0.00000000000E+00 0.  1.
          1   -1    0    0  501    0  0.00000000000E+00 -0.00000000000E+00 -0.55833287806E+03  0.55833287806E+03  0.00000000000E+00 0. -1.
         23    2    1    2    0    0  0.21007724190E+03 -0.11612766143E+02  0.39486683674E+03  0.45656261270E+03  0.90897176298E+02 0.  0.
        254    2    1    2    0    0 -0.21007724190E+03  0.11612766143E+02 -0.12038431836E+03  0.93458566180E+03  0.90260216665E+03 0.  0.
         23    2    4    4    0    0 -0.28972034919E+03 -0.78169530010E+02 -0.46473583289E+03  0.56040013000E+03  0.89557552320E+02 0.  0.
         23    2    4    4    0    0  0.79643107283E+02  0.89782296153E+02  0.34435151453E+03  0.37418553180E+03  0.83862753429E+02 0.  0.
          1    1    3    3  502    0  0.10023357147E+03 -0.49768556927E+02  0.17236254576E+03  0.20550553591E+03  0.00000000000E+00 0. -1.
         -1    1    3    3    0  502  0.10984367044E+03  0.38155790784E+02  0.22250429098E+03  0.25105707680E+03  0.00000000000E+00 0.  1.
         13    1    5    5    0    0 -0.93020914672E+02 -0.41741573672E+01 -0.21305610986E+03  0.23251498899E+03  0.00000000000E+00 0.  1.
        -13    1    5    5    0    0 -0.19669943452E+03 -0.73995372642E+02 -0.25167972303E+03  0.32788514101E+03  0.00000000000E+00 0. -1.
          2    1    6    6  503    0  0.95428874792E+02  0.76206130972E+02  0.25924782397E+03  0.28657194346E+03  0.00000000000E+00 0. -1.
         -2    1    6    6    0  503 -0.15785767508E+02  0.13576165181E+02  0.85103690556E+02  0.87613588347E+02  0.00000000000E+00 0.  1.
<mgrwt>
<rscale>  0 0.13638009E+04</rscale>
<asrwt>0</asrwt>
<pdfrwt beam="1">  1        1 0.85897366E-01 0.13638009E+04</pdfrwt>
<pdfrwt beam="2">  1       -1 0.12812545E+00 0.13638009E+04</pdfrwt>
<totfact> 0.19538504E+01</totfact>
</mgrwt>
</event>
<event>
12    3  0.4634846E-008  0.1580940E+04  0.7818608E-02  0.8832344E-01
          2   -1    0    0  501    0  0.00000000000E+00  0.00000000000E+00  0.11962881193E+04  0.11962881193E+04  0.00000000000E+00 0. -1.
         -2   -1    0    0    0  501 -0.00000000000E+00 -0.00000000000E+00 -0.52231768635E+03  0.52231768635E+03  0.00000000000E+00 0.  1.
         23    2    1    2    0    0  0.43812175136E+03  0.19376139981E+03  0.46970940516E+03  0.67695037413E+03  0.90226019902E+02 0.  0.
        254    2    1    2    0    0 -0.43812175136E+03 -0.19376139981E+03  0.20426102781E+03  0.10416554315E+04  0.90212489241E+03 0.  0.
         23    2    4    4    0    0 -0.32042990489E+03 -0.34057953843E+02 -0.32540645884E+03  0.46720374291E+03  0.92491652414E+02 0.  0.
         23    2    4    4    0    0 -0.11769184647E+03 -0.15970344597E+03  0.52966748665E+03  0.57445168863E+03  0.10045165394E+03 0.  0.
          1    1    3    3  502    0  0.31917382691E+03  0.12587932185E+03  0.38598229985E+03  0.51642992869E+03  0.00000000000E+00 0. -1.
         -1    1    3    3    0  502  0.11894792445E+03  0.67882077963E+02  0.83727105312E+02  0.16052044544E+03  0.00000000000E+00 0.  1.
         13    1    5    5    0    0  0.50214791697E+01 -0.70595357254E+01 -0.90885508684E+01  0.12556036580E+02  0.00000000000E+00 0. -1.
        -13    1    5    5    0    0 -0.32545138406E+03 -0.26998418118E+02 -0.31631790797E+03  0.45464770633E+03  0.00000000000E+00 0.  1.
          4    1    6    6  503    0 -0.74738182077E+02 -0.13323105274E+03  0.27265458669E+03  0.31253293094E+03  0.00000000000E+00 0. -1.
         -4    1    6    6    0  503 -0.42953664389E+02 -0.26472393222E+02  0.25701289996E+03  0.26191875769E+03  0.00000000000E+00 0.  1.
<mgrwt>
<rscale>  0 0.15809395E+04</rscale>
<asrwt>0</asrwt>
<pdfrwt beam="1">  1        2 0.18404433E+00 0.15809395E+04</pdfrwt>
<pdfrwt beam="2">  1       -2 0.80356567E-01 0.15809395E+04</pdfrwt>
<totfact> 0.25023647E+01</totfact>
</mgrwt>
</event>
<event>
12    3  0.4634846E-008  0.1699053E+04  0.7818608E-02  0.8761905E-01
         -1   -1    0    0    0  501 -0.00000000000E+00  0.00000000000E+00  0.58013284130E+03  0.58013284130E+03  0.00000000000E+00 0.  1.
          1   -1    0    0  501    0  0.00000000000E+00 -0.00000000000E+00 -0.12440171401E+04  0.12440171401E+04  0.00000000000E+00 0. -1.
         23    2    1    2    0    0  0.12227676783E+03 -0.59316094743E+03 -0.24369663584E+03  0.65914336173E+03  0.91051652818E+02 0.  0.
        254    2    1    2    0    0 -0.12227676783E+03  0.59316094743E+03 -0.42018766296E+03  0.11650066197E+04  0.90215920672E+03 0.  0.
         23    2    4    4    0    0  0.17111911165E+03  0.51235829367E+03  0.98067009512E+02  0.55659192543E+03  0.91567798017E+02 0.  0.
         23    2    4    4    0    0 -0.29339587947E+03  0.80802653754E+02 -0.51825467248E+03  0.60841469424E+03  0.94711792719E+02 0.  0.
          3    1    3    3  502    0  0.12286019040E+03 -0.42919905132E+03 -0.20170236298E+03  0.48988804361E+03  0.00000000000E+00 0. -1.
         -3    1    3    3    0  502 -0.58342257548E+00 -0.16396189611E+03 -0.41994272868E+02  0.16925531812E+03  0.00000000000E+00 0.  1.
         13    1    5    5    0    0  0.14023168383E+03  0.38013052689E+03  0.11124619245E+03  0.42016646458E+03  0.00000000000E+00 0.  1.
        -13    1    5    5    0    0  0.30887427821E+02  0.13222776679E+03 -0.13179182936E+02  0.13642546085E+03  0.00000000000E+00 0. -1.
          4    1    6    6  503    0 -0.18256674917E+03  0.96675226512E+02 -0.34560406719E+03  0.40263989939E+03  0.00000000000E+00 0.  1.
         -4    1    6    6    0  503 -0.11082913031E+03 -0.15872572758E+02 -0.17265060528E+03  0.20577479485E+03  0.00000000000E+00 0. -1.
<mgrwt>
<rscale>  0 0.16990529E+04</rscale>
<asrwt>0</asrwt>
<pdfrwt beam="1">  1        1 0.19138725E+00 0.16990529E+04</pdfrwt>
<pdfrwt beam="2">  1       -1 0.89251207E-01 0.16990529E+04</pdfrwt>
<totfact> 0.11623310E+01</totfact>
</mgrwt>
</event>
<event>
12    3  0.4634846E-008  0.1718925E+04  0.7818608E-02  0.8750644E-01
          2   -1    0    0  501    0  0.00000000000E+00  0.00000000000E+00  0.21854575300E+04  0.21854575300E+04  0.00000000000E+00 0.  1.
         -2   -1    0    0    0  501 -0.00000000000E+00 -0.00000000000E+00 -0.33799602217E+03  0.33799602217E+03  0.00000000000E+00 0. -1.
         23    2    1    2    0    0 -0.26900170200E+03 -0.76716737286E+02  0.14790046055E+04  0.15080962453E+04  0.93017678614E+02 0.  0.
        254    2    1    2    0    0  0.26900170200E+03  0.76716737286E+02  0.36845690235E+03  0.10153573069E+04  0.90384876959E+03 0.  0.
         23    2    4    4    0    0  0.32392157106E+03  0.41129860603E+03  0.37457501592E+02  0.53315138251E+03  0.93571388449E+02 0.  0.
         23    2    4    4    0    0 -0.54919869057E+02 -0.33458186874E+03  0.33099940076E+03  0.48220592437E+03  0.89446807026E+02 0.  0.
          1    1    3    3  502    0 -0.28539513874E+02 -0.31478782374E+02  0.12146320297E+03  0.12868071832E+03  0.00000000000E+00 0. -1.
         -1    1    3    3    0  502 -0.24046218813E+03 -0.45237954912E+02  0.13575414026E+04  0.13794155270E+04  0.00000000000E+00 0.  1.
         13    1    5    5    0    0  0.28683038403E+03  0.38897359029E+03  0.55057333784E+02  0.48641898929E+03  0.00000000000E+00 0.  1.
        -13    1    5    5    0    0  0.37091187028E+02  0.22325015741E+02 -0.17599832192E+02  0.46732393221E+02  0.00000000000E+00 0. -1.
          2    1    6    6  503    0  0.21353879474E+02 -0.31005726363E+02  0.35357842196E+02  0.51648041983E+02  0.00000000000E+00 0. -1.
         -2    1    6    6    0  503 -0.76273748531E+02 -0.30357614238E+03  0.29564155856E+03  0.43055788238E+03  0.00000000000E+00 0.  1.
<mgrwt>
<rscale>  0 0.17189252E+04</rscale>
<asrwt>0</asrwt>
<pdfrwt beam="1">  1        2 0.33622423E+00 0.17189252E+04</pdfrwt>
<pdfrwt beam="2">  1       -2 0.51999389E-01 0.17189252E+04</pdfrwt>
<totfact> 0.17465711E+01</totfact>
</mgrwt>
</event>
<event>
12    3  0.4634846E-008  0.2532711E+04  0.7818608E-02  0.8391424E-01
          2   -1    0    0  501    0  0.00000000000E+00  0.00000000000E+00  0.23091184561E+04  0.23091184561E+04  0.00000000000E+00 0. -1.
         -2   -1    0    0    0  501 -0.00000000000E+00 -0.00000000000E+00 -0.69448855490E+03  0.69448855490E+03  0.00000000000E+00 0.  1.
         23    2    1    2    0    0 -0.39777852799E+03  0.94767264342E+01  0.19339387530E+04  0.19760509981E+04  0.79629650564E+02 0.  0.
        254    2    1    2    0    0  0.39777852799E+03 -0.94767264342E+01 -0.31930885173E+03  0.10275560129E+04  0.89196168708E+03 0.  0.
         23    2    4    4    0    0 -0.23902524539E+03 -0.68041599207E+02  0.68917021031E+02  0.27363794313E+03  0.91462784665E+02 0.  0.
         23    2    4    4    0    0  0.63680377338E+03  0.58564872773E+02 -0.38822587277E+03  0.75391806979E+03  0.93403627159E+02 0.  0.
          1    1    3    3  502    0 -0.35531733260E+03 -0.12363475671E+02  0.16245289159E+04  0.16629784908E+04  0.00000000000E+00 0. -1.
         -1    1    3    3    0  502 -0.42461195390E+02  0.21840202105E+02  0.30940983709E+03  0.31307250731E+03  0.00000000000E+00 0.  1.
         13    1    5    5    0    0 -0.16346120249E+03 -0.74172403354E+02  0.80889048413E+02  0.19688613027E+03  0.00000000000E+00 0. -1.
        -13    1    5    5    0    0 -0.75564042891E+02  0.61308041467E+01 -0.11972027382E+02  0.76751812859E+02  0.00000000000E+00 0.  1.
          1    1    6    6  503    0  0.50316849693E+03  0.29220890243E+02 -0.26330664910E+03  0.56864996983E+03  0.00000000000E+00 0. -1.
         -1    1    6    6    0  503  0.13363527645E+03  0.29343982530E+02 -0.12491922367E+03  0.18526809996E+03  0.00000000000E+00 0.  1.
<mgrwt>
<rscale>  0 0.25327111E+04</rscale>
<asrwt>0</asrwt>
<pdfrwt beam="1">  1        2 0.35524899E+00 0.25327111E+04</pdfrwt>
<pdfrwt beam="2">  1       -2 0.10684439E+00 0.25327111E+04</pdfrwt>
<totfact> 0.28084518E+00</totfact>
</mgrwt>
</event>
<event>
12    3  0.4634846E-008  0.1735326E+04  0.7818608E-02  0.8741469E-01
          1   -1    0    0  501    0  0.00000000000E+00  0.00000000000E+00  0.10816854471E+04  0.10816854471E+04  0.00000000000E+00 0. -1.
         -1   -1    0    0    0  501 -0.00000000000E+00 -0.00000000000E+00 -0.69598705361E+03  0.69598705361E+03  0.00000000000E+00 0.  1.
         23    2    1    2    0    0 -0.13254004141E+03  0.47395277641E+03 -0.21405667858E+03  0.54249854086E+03  0.79286243091E+02 0.  0.
        254    2    1    2    0    0  0.13254004141E+03 -0.47395277641E+03  0.59975507210E+03  0.12351739599E+04  0.96111938272E+03 0.  0.
         23    2    4    4    0    0  0.96282726413E+02 -0.55566710071E+03 -0.48832572642E+02  0.57351824367E+03  0.92207729900E+02 0.  0.
         23    2    4    4    0    0  0.36257315001E+02  0.81714324295E+02  0.64858764474E+03  0.66165571622E+03  0.95553807954E+02 0.  0.
          4    1    3    3  502    0 -0.33076856799E+02  0.84534371496E+02 -0.88007274230E+01  0.91200829070E+02  0.00000000000E+00 0. -1.
         -4    1    3    3    0  502 -0.99463184615E+02  0.38941840492E+03 -0.20525595116E+03  0.45129771179E+03  0.00000000000E+00 0.  1.
         13    1    5    5    0    0  0.10122649197E+02 -0.32500656543E+03 -0.31318812778E+02  0.32666895114E+03  0.00000000000E+00 0. -1.
        -13    1    5    5    0    0  0.86160077216E+02 -0.23066053527E+03 -0.17513759864E+02  0.24684929253E+03  0.00000000000E+00 0.  1.
          3    1    6    6  503    0  0.41090290561E+02  0.81627627673E+02  0.31387675419E+03  0.32690992398E+03  0.00000000000E+00 0. -1.
         -3    1    6    6    0  503 -0.48329755594E+01  0.86696621302E-01  0.33471089055E+03  0.33474579224E+03  0.00000000000E+00 0.  1.
<mgrwt>
<rscale>  0 0.17353260E+04</rscale>
<asrwt>0</asrwt>
<pdfrwt beam="1">  1        1 0.16641315E+00 0.17353260E+04</pdfrwt>
<pdfrwt beam="2">  1       -1 0.10707493E+00 0.17353260E+04</pdfrwt>
<totfact> 0.10101846E+01</totfact>
</mgrwt>
</event>
<event>
12    3  0.4634846E-008  0.1431942E+04  0.7818608E-02  0.8931016E-01
          1   -1    0    0  501    0  0.00000000000E+00  0.00000000000E+00  0.62665441248E+03  0.62665441248E+03  0.00000000000E+00 0. -1.
         -1   -1    0    0    0  501 -0.00000000000E+00 -0.00000000000E+00 -0.81801784491E+03  0.81801784491E+03  0.00000000000E+00 0.  1.
         23    2    1    2    0    0  0.27033957468E+03  0.33779290191E+03 -0.21897509364E+02  0.44420639999E+03  0.98246092352E+02 0.  0.
        254    2    1    2    0    0 -0.27033957468E+03 -0.33779290191E+03 -0.16946592306E+03  0.10004658574E+04  0.88601676199E+03 0.  0.
         23    2    4    4    0    0 -0.30783962373E+03 -0.61390604607E+03 -0.13691909794E+03  0.70598494465E+03  0.89565815766E+02 0.  0.
         23    2    4    4    0    0  0.37500049051E+02  0.27611314416E+03 -0.32546825116E+02  0.29448091275E+03  0.89526477048E+02 0.  0.
          2    1    3    3  502    0  0.21618141473E+03  0.23912584601E+03  0.22658252354E+02  0.32315471636E+03  0.00000000000E+00 0.  1.
         -2    1    3    3    0  502  0.54158159941E+02  0.98667055895E+02 -0.44555761717E+02  0.12105168363E+03  0.00000000000E+00 0. -1.
         13    1    5    5    0    0 -0.13209991896E+03 -0.31729789194E+03 -0.10680323438E+03  0.35991008835E+03  0.00000000000E+00 0. -1.
        -13    1    5    5    0    0 -0.17573970476E+03 -0.29660815412E+03 -0.30115863558E+02  0.34607485630E+03  0.00000000000E+00 0.  1.
          1    1    6    6  503    0 -0.28019065436E+02  0.12004778671E+03 -0.18246224419E+02  0.12461726938E+03  0.00000000000E+00 0. -1.
         -1    1    6    6    0  503  0.65519114487E+02  0.15606535745E+03 -0.14300600698E+02  0.16986364337E+03  0.00000000000E+00 0.  1.
<mgrwt>
<rscale>  0 0.14319420E+04</rscale>
<asrwt>0</asrwt>
<pdfrwt beam="1">  1        1 0.96408372E-01 0.14319420E+04</pdfrwt>
<pdfrwt beam="2">  1       -1 0.12584890E+00 0.14319420E+04</pdfrwt>
<totfact> 0.17209313E+01</totfact>
</mgrwt>
</event>
<event>
12    3  0.4634846E-008  0.1485770E+04  0.7818608E-02  0.8893971E-01
          2   -1    0    0  501    0  0.00000000000E+00  0.00000000000E+00  0.32930596517E+04  0.32930596517E+04  0.00000000000E+00 0. -1.
         -2   -1    0    0    0  501 -0.00000000000E+00 -0.00000000000E+00 -0.16758822713E+03  0.16758822713E+03  0.00000000000E+00 0.  1.
         23    2    1    2    0    0  0.65988059401E+02  0.44898985660E+03  0.91192500757E+03  0.10228192792E+04  0.92767144747E+02 0.  0.
        254    2    1    2    0    0 -0.65988059401E+02 -0.44898985660E+03  0.22135464170E+04  0.24378285996E+04  0.91502689886E+03 0.  0.
         23    2    4    4    0    0 -0.30714713552E+03 -0.12136531727E+03  0.18569140867E+04  0.18882557732E+04  0.91164885303E+02 0.  0.
         23    2    4    4    0    0  0.24115907612E+03 -0.32762453933E+03  0.35663233022E+03  0.54957282641E+03  0.96685747686E+02 0.  0.
          4    1    3    3  502    0  0.34403984182E+02  0.38560483603E+03  0.81986615436E+03  0.90667261719E+03  0.00000000000E+00 0.  1.
         -4    1    3    3    0  502  0.31584075219E+02  0.63385020569E+02  0.92058853206E+02  0.11614666200E+03  0.00000000000E+00 0. -1.
         13    1    5    5    0    0 -0.20534471559E+03 -0.61013196549E+02  0.96279331063E+03  0.98633666735E+03  0.00000000000E+00 0. -1.
        -13    1    5    5    0    0 -0.10180241994E+03 -0.60352120724E+02  0.89412077611E+03  0.90191910582E+03  0.00000000000E+00 0.  1.
          3    1    6    6  503    0  0.21130665181E+03 -0.31053070650E+03  0.35217443591E+03  0.51488508823E+03  0.00000000000E+00 0. -1.
         -3    1    6    6    0  503  0.29852424316E+02 -0.17093832824E+02  0.44578943132E+01  0.34687738178E+02  0.00000000000E+00 0.  1.
<mgrwt>
<rscale>  0 0.14857699E+04</rscale>
<asrwt>0</asrwt>
<pdfrwt beam="1">  1        2 0.50662452E+00 0.14857699E+04</pdfrwt>
<pdfrwt beam="2">  1       -2 0.25782806E-01 0.14857699E+04</pdfrwt>
<totfact> 0.14938164E+01</totfact>
</mgrwt>
</event>
<event>
12    3  0.4634846E-008  0.2109437E+04  0.7818608E-02  0.8557098E-01
         -1   -1    0    0    0  501 -0.00000000000E+00  0.00000000000E+00  0.19354289544E+04  0.19354289544E+04  0.00000000000E+00 0.  1.
          1   -1    0    0  501    0  0.00000000000E+00 -0.00000000000E+00 -0.57477222959E+03  0.57477222959E+03  0.00000000000E+00 0. -1.
         23    2    1    2    0    0  0.50139968697E+03  0.47415575383E+03  0.11860764383E+04  0.13752137175E+04  0.90609746593E+02 0.  0.
        254    2    1    2    0    0 -0.50139968697E+03 -0.47415575383E+03  0.17458028645E+03  0.11349874665E+04  0.88402089776E+03 0.  0.
         23    2    4    4    0    0 -0.48077161862E+03  0.28992114934E+02 -0.16907701319E+03  0.51891576613E+03  0.93298681440E+02 0.  0.
         23    2    4    4    0    0 -0.20628068354E+02 -0.50314786877E+03  0.34365729963E+03  0.61607170035E+03  0.88660618838E+02 0.  0.
          1    1    3    3  502    0  0.22790842958E+03  0.21877875569E+03  0.45473695779E+03  0.55370759160E+03  0.00000000000E+00 0. -1.
         -1    1    3    3    0  502  0.27349125739E+03  0.25537699814E+03  0.73133948056E+03  0.82150612589E+03  0.00000000000E+00 0.  1.
         13    1    5    5    0    0 -0.22988955664E+03 -0.16622654651E+02 -0.11767548730E+03  0.25879150142E+03  0.00000000000E+00 0. -1.
        -13    1    5    5    0    0 -0.25088206198E+03  0.45614769585E+02 -0.51401525890E+02  0.26012426471E+03  0.00000000000E+00 0.  1.
          1    1    6    6  503    0 -0.55195663713E+02 -0.34643604500E+03  0.23895474022E+03  0.42445713852E+03  0.00000000000E+00 0. -1.
         -1    1    6    6    0  503  0.34567595359E+02 -0.15671182377E+03  0.10470255941E+03  0.19161456183E+03  0.00000000000E+00 0.  1.
<mgrwt>
<rscale>  0 0.21094367E+04</rscale>
<asrwt>0</asrwt>
<pdfrwt beam="1">  1        1 0.88426498E-01 0.21094367E+04</pdfrwt>
<pdfrwt beam="2">  1       -1 0.29775830E+00 0.21094367E+04</pdfrwt>
<totfact> 0.11438331E+00</totfact>
</mgrwt>
</event>
<event>
12    3  0.4634846E-008  0.1862465E+04  0.7818608E-02  0.8673769E-01
         -1   -1    0    0    0  501 -0.00000000000E+00  0.00000000000E+00  0.95436666821E+03  0.95436666821E+03  0.00000000000E+00 0.  1.
          1   -1    0    0  501    0  0.00000000000E+00 -0.00000000000E+00 -0.90865944817E+03  0.90865944817E+03  0.00000000000E+00 0. -1.
         23    2    1    2    0    0  0.37194005047E+03  0.30315796334E+03 -0.52603983107E+03  0.71778257963E+03  0.90828276881E+02 0.  0.
        254    2    1    2    0    0 -0.37194005047E+03 -0.30315796334E+03  0.57174705110E+03  0.11452435367E+04  0.86858731061E+03 0.  0.
         23    2    4    4    0    0  0.16539676134E+03 -0.34460217968E+03  0.42779503324E+03  0.58024359149E+03  0.86990137943E+02 0.  0.
         23    2    4    4    0    0 -0.53733681180E+03  0.41444216338E+02  0.14395201786E+03  0.56499994526E+03  0.89745653444E+02 0.  0.
          3    1    3    3  502    0  0.36976284340E+03  0.29682137048E+03 -0.49278710846E+03  0.68386155076E+03  0.00000000000E+00 0. -1.
         -3    1    3    3    0  502  0.21772070642E+01  0.63365928597E+01 -0.33252722603E+02  0.33921028879E+02  0.00000000000E+00 0.  1.
         13    1    5    5    0    0  0.13141758508E+02 -0.28258596290E+02  0.64886972668E+01  0.31833273052E+02  0.00000000000E+00 0.  1.
        -13    1    5    5    0    0  0.15225500283E+03 -0.31634358339E+03  0.42130633597E+03  0.54841031844E+03  0.00000000000E+00 0. -1.
          4    1    6    6  503    0 -0.45277085984E+03  0.33879084358E+01  0.10758567579E+03  0.46538973676E+03  0.00000000000E+00 0. -1.
         -4    1    6    6    0  503 -0.84565951964E+02  0.38056307902E+02  0.36366342071E+02  0.99610208505E+02  0.00000000000E+00 0.  1.
<mgrwt>
<rscale>  0 0.18624653E+04</rscale>
<asrwt>0</asrwt>
<pdfrwt beam="1">  1        1 0.13979376E+00 0.18624653E+04</pdfrwt>
<pdfrwt beam="2">  1       -1 0.14682564E+00 0.18624653E+04</pdfrwt>
<totfact> 0.62098430E+00</totfact>
</mgrwt>
</event>
<event>
12    3  0.4634846E-008  0.1920476E+04  0.7818608E-02  0.8644731E-01
          2   -1    0    0  501    0  0.00000000000E+00  0.00000000000E+00  0.59206424590E+03  0.59206424590E+03  0.00000000000E+00 0. -1.
         -2   -1    0    0    0  501 -0.00000000000E+00 -0.00000000000E+00 -0.15573603564E+04  0.15573603564E+04  0.00000000000E+00 0.  1.
         23    2    1    2    0    0 -0.55368789581E+03 -0.46178069391E+03 -0.57825217306E+03  0.92895993806E+03  0.93697895606E+02 0.  0.
        254    2    1    2    0    0  0.55368789581E+03  0.46178069391E+03 -0.38704393743E+03  0.12204646642E+04  0.90549394912E+03 0.  0.
         23    2    4    4    0    0  0.30443623940E+03  0.65361951418E+03 -0.20047272992E+02  0.72671952300E+03  0.88427816788E+02 0.  0.
         23    2    4    4    0    0  0.24925165642E+03 -0.19183882027E+03 -0.36699666444E+03  0.49374514123E+03  0.10084240966E+03 0.  0.
          3    1    3    3  502    0 -0.26311683596E+03 -0.18933766754E+03 -0.20811754260E+03  0.38521699502E+03  0.00000000000E+00 0. -1.
         -3    1    3    3    0  502 -0.29057105985E+03 -0.27244302636E+03 -0.37013463047E+03  0.54374294304E+03  0.00000000000E+00 0.  1.
         13    1    5    5    0    0  0.66380103127E+02  0.73500177330E+02 -0.10383005446E+02  0.99581127534E+02  0.00000000000E+00 0.  1.
        -13    1    5    5    0    0  0.23805613627E+03  0.58011933685E+03 -0.96642675467E+01  0.62713839547E+03  0.00000000000E+00 0. -1.
          3    1    6    6  503    0  0.20560294699E+03 -0.19813130450E+03 -0.30665101947E+03  0.41900290378E+03  0.00000000000E+00 0. -1.
         -3    1    6    6    0  503  0.43648709424E+02  0.62924842209E+01 -0.60345644970E+02  0.74742237449E+02  0.00000000000E+00 0.  1.
<mgrwt>
<rscale>  0 0.19204764E+04</rscale>
<asrwt>0</asrwt>
<pdfrwt beam="1">  1        2 0.91086807E-01 0.19204764E+04</pdfrwt>
<pdfrwt beam="2">  1       -2 0.23959390E+00 0.19204764E+04</pdfrwt>
<totfact> 0.35100051E+00</totfact>
</mgrwt>
</event>
<event>
12    3  0.4634846E-008  0.2115531E+04  0.7818608E-02  0.8554433E-01
          2   -1    0    0  501    0  0.00000000000E+00  0.00000000000E+00  0.32896810194E+04  0.32896810194E+04  0.00000000000E+00 0. -1.
         -2   -1    0    0    0  501 -0.00000000000E+00 -0.00000000000E+00 -0.34011431353E+03  0.34011431353E+03  0.00000000000E+00 0.  1.
         23    2    1    2    0    0 -0.11478326619E+03  0.59647623731E+03  0.22614775767E+04  0.23434178029E+04  0.91471682969E+02 0.  0.
        254    2    1    2    0    0  0.11478326619E+03 -0.59647623731E+03  0.68808912910E+03  0.12863775300E+04  0.90129983930E+03 0.  0.
         23    2    4    4    0    0 -0.35959527122E+03 -0.18669739012E+03  0.44077280648E+03  0.60548057025E+03  0.90340353372E+02 0.  0.
         23    2    4    4    0    0  0.47437853741E+03 -0.40977884719E+03  0.24731632262E+03  0.68089695979E+03  0.97476181978E+02 0.  0.
          3    1    3    3  502    0 -0.10677237354E+03  0.36781857839E+03  0.15150331066E+04  0.15626951592E+04  0.00000000000E+00 0. -1.
         -3    1    3    3    0  502 -0.80108926457E+01  0.22865765893E+03  0.74644447010E+03  0.78072264366E+03  0.00000000000E+00 0.  1.
         13    1    5    5    0    0 -0.18180055934E+02 -0.30902037394E+02  0.17819331375E+02  0.40037219178E+02  0.00000000000E+00 0.  1.
        -13    1    5    5    0    0 -0.34141521529E+03 -0.15579535273E+03  0.42295347511E+03  0.56544335107E+03  0.00000000000E+00 0. -1.
          3    1    6    6  503    0  0.17013137417E+03 -0.18986549772E+03  0.62612048641E+02  0.26251449548E+03  0.00000000000E+00 0. -1.
         -3    1    6    6    0  503  0.30424716324E+03 -0.21991334947E+03  0.18470427397E+03  0.41838246431E+03  0.00000000000E+00 0.  1.
<mgrwt>
<rscale>  0 0.21155308E+04</rscale>
<asrwt>0</asrwt>
<pdfrwt beam="1">  1        2 0.50610475E+00 0.21155308E+04</pdfrwt>
<pdfrwt beam="2">  1       -2 0.52325281E-01 0.21155308E+04</pdfrwt>
<totfact> 0.36015020E+00</totfact>
</mgrwt>
</event>
<event>
12    3  0.4634846E-008  0.2237740E+04  0.7818608E-02  0.8502882E-01
         -2   -1    0    0    0  501 -0.00000000000E+00  0.00000000000E+00  0.50558458316E+03  0.50558458316E+03  0.00000000000E+00 0.  1.
          2   -1    0    0  501    0  0.00000000000E+00 -0.00000000000E+00 -0.24760834464E+04  0.24760834464E+04  0.00000000000E+00 0. -1.
         23    2    1    2    0    0  0.52723626387E+03  0.50809526266E+03 -0.16000909064E+04  0.17620139941E+04  0.90903977140E+02 0.  0.
        254    2    1    2    0    0 -0.52723626387E+03 -0.50809526266E+03 -0.37040795690E+03  0.12196540354E+04  0.90233864916E+03 0.  0.
         23    2    4    4    0    0 -0.65404890488E+03 -0.36800089463E+02 -0.26373002716E+03  0.71191115802E+03  0.90165143657E+02 0.  0.
         23    2    4    4    0    0  0.12681264101E+03 -0.47129517320E+03 -0.10667792974E+03  0.50774287743E+03  0.90675590340E+02 0.  0.
          1    1    3    3  502    0  0.27218433956E+03  0.28975632974E+03 -0.96396112784E+03  0.10427195698E+04  0.00000000000E+00 0. -1.
         -1    1    3    3    0  502  0.25505192431E+03  0.21833893292E+03 -0.63612977852E+03  0.71929442431E+03  0.00000000000E+00 0.  1.
         13    1    5    5    0    0 -0.52599685727E+03  0.17622941375E+01 -0.22937192830E+03  0.57383558711E+03  0.00000000000E+00 0. -1.
        -13    1    5    5    0    0 -0.12805204761E+03 -0.38562383601E+02 -0.34358098860E+02  0.13807557092E+03  0.00000000000E+00 0.  1.
          1    1    6    6  503    0  0.55090908119E+02 -0.19667794298E+03  0.79121058727E+00  0.20424947350E+03  0.00000000000E+00 0. -1.
         -1    1    6    6    0  503  0.71721732889E+02 -0.27461723022E+03 -0.10746914033E+03  0.30349340392E+03  0.00000000000E+00 0.  1.
<mgrwt>
<rscale>  0 0.22377396E+04</rscale>
<asrwt>0</asrwt>
<pdfrwt beam="1">  1        2 0.38093591E+00 0.22377396E+04</pdfrwt>
<pdfrwt beam="2">  1       -2 0.77782244E-01 0.22377396E+04</pdfrwt>
<totfact> 0.48217767E+00</totfact>
</mgrwt>
</event>
<event>
12    3  0.4634846E-008  0.1500615E+04  0.7818608E-02  0.8884044E-01
         -2   -1    0    0    0  501 -0.00000000000E+00  0.00000000000E+00  0.71200367669E+03  0.71200367669E+03  0.00000000000E+00 0. -1.
          2   -1    0    0  501    0  0.00000000000E+00 -0.00000000000E+00 -0.79067206335E+03  0.79067206335E+03  0.00000000000E+00 0.  1.
         23    2    1    2    0    0 -0.18846593594E+03 -0.39700235927E+03  0.13533674551E+03  0.47058927493E+03  0.10003973567E+03 0.  0.
        254    2    1    2    0    0  0.18846593594E+03  0.39700235927E+03 -0.21400513217E+03  0.10320864651E+04  0.90899614552E+03 0.  0.
         23    2    4    4    0    0  0.34563088880E+03  0.49406567246E+03 -0.42018802305E+03  0.74052070555E+03  0.90836890287E+02 0.  0.
         23    2    4    4    0    0 -0.15716495285E+03 -0.97063313189E+02  0.20618289088E+03  0.29156575955E+03  0.91526490582E+02 0.  0.
          1    1    3    3  502    0 -0.19908512307E+03 -0.36819256801E+03  0.13526946059E+03  0.43988462161E+03  0.00000000000E+00 0. -1.
         -1    1    3    3    0  502  0.10619187125E+02 -0.28809791270E+02  0.67284917647E-01  0.30704653319E+02  0.00000000000E+00 0.  1.
         13    1    5    5    0    0  0.34328866315E+03  0.45421428009E+03 -0.38495213038E+03  0.68727422560E+03  0.00000000000E+00 0.  1.
        -13    1    5    5    0    0  0.23422256424E+01  0.39851392374E+02 -0.35235892665E+02  0.53246479950E+02  0.00000000000E+00 0. -1.
          1    1    6    6  503    0 -0.12006308321E+03 -0.90746278876E+02  0.20447680722E+03  0.25389130700E+03  0.00000000000E+00 0. -1.
         -1    1    6    6    0  503 -0.37101869644E+02 -0.63170343129E+01  0.17060836615E+01  0.37674452551E+02  0.00000000000E+00 0.  1.
<mgrwt>
<rscale>  0 0.15006151E+04</rscale>
<asrwt>0</asrwt>
<pdfrwt beam="1">  1        2 0.12164186E+00 0.15006151E+04</pdfrwt>
<pdfrwt beam="2">  1       -2 0.10953903E+00 0.15006151E+04</pdfrwt>
<totfact> 0.22438721E+01</totfact>
</mgrwt>
</event>
<event>
12    3  0.4634846E-008  0.1166104E+04  0.7818608E-02  0.9143054E-01
          2   -1    0    0  501    0  0.00000000000E+00  0.00000000000E+00  0.80681316010E+03  0.80681316010E+03  0.00000000000E+00 0. -1.
         -2   -1    0    0    0  501 -0.00000000000E+00 -0.00000000000E+00 -0.42134839328E+03  0.42134839328E+03  0.00000000000E+00 0.  1.
         23    2    1    2    0    0 -0.20775717155E+03 -0.14049757589E+02  0.10987520120E+02  0.22780664367E+03  0.91731691798E+02 0.  0.
        254    2    1    2    0    0  0.20775717155E+03  0.14049757589E+02  0.37447724670E+03  0.10003549097E+04  0.90394485400E+03 0.  0.
         23    2    4    4    0    0  0.63896695227E+02 -0.11606896865E+03 -0.27324019236E+03  0.31703982015E+03  0.91100228826E+02 0.  0.
         23    2    4    4    0    0  0.14386047633E+03  0.13011872624E+03  0.64771743906E+03  0.68331508957E+03  0.98766954012E+02 0.  0.
          1    1    3    3  502    0 -0.94791499231E+02 -0.11813906671E+02  0.50571608887E+02  0.10808554178E+03  0.00000000000E+00 0. -1.
         -1    1    3    3    0  502 -0.11296567232E+03 -0.22358509177E+01 -0.39584088766E+02  0.11972110188E+03  0.00000000000E+00 0.  1.
         13    1    5    5    0    0  0.48369598201E+02 -0.12982371277E+03 -0.22103487805E+03  0.26086439340E+03  0.00000000000E+00 0. -1.
        -13    1    5    5    0    0  0.15527097026E+02  0.13754744123E+02 -0.52205314311E+02  0.56175426747E+02  0.00000000000E+00 0.  1.
          1    1    6    6  503    0  0.15874435605E+03  0.12405239949E+03  0.59324013921E+03  0.62651626568E+03  0.00000000000E+00 0. -1.
         -1    1    6    6    0  503 -0.14883879724E+02  0.60663267515E+01  0.54477299855E+02  0.56798823891E+02  0.00000000000E+00 0.  1.
<mgrwt>
<rscale>  0 0.11661036E+04</rscale>
<asrwt>0</asrwt>
<pdfrwt beam="1">  1        2 0.12412510E+00 0.11661036E+04</pdfrwt>
<pdfrwt beam="2">  1       -2 0.64822830E-01 0.11661036E+04</pdfrwt>
<totfact> 0.73989785E+01</totfact>
</mgrwt>
</event>
<event>
12    3  0.4634846E-008  0.1431796E+04  0.7818608E-02  0.8931119E-01
         -1   -1    0    0    0  501 -0.00000000000E+00  0.00000000000E+00  0.22606430961E+03  0.22606430961E+03  0.00000000000E+00 0.  1.
          1   -1    0    0  501    0  0.00000000000E+00 -0.00000000000E+00 -0.22670994200E+04  0.22670994200E+04  0.00000000000E+00 0. -1.
         23    2    1    2    0    0  0.68256100595E+02  0.26166613419E+03 -0.49579823216E+02  0.28972420564E+03  0.91399646685E+02 0.  0.
        254    2    1    2    0    0 -0.68256100595E+02 -0.26166613419E+03 -0.19914552872E+04  0.22034395240E+04  0.90339554676E+03 0.  0.
         23    2    4    4    0    0 -0.14809266782E+03  0.29662450785E+03 -0.10189000483E+04  0.10756072032E+04  0.94106377321E+02 0.  0.
         23    2    4    4    0    0  0.79836567220E+02 -0.55829064204E+03 -0.97255523886E+03  0.11278323207E+04  0.89887332880E+02 0.  0.
          2    1    3    3  502    0  0.75177493189E+02  0.19052855021E+03 -0.68174312410E+02  0.21587153773E+03  0.00000000000E+00 0.  1.
         -2    1    3    3    0  502 -0.69213925947E+01  0.71137583976E+02  0.18594489194E+02  0.73852667912E+02  0.00000000000E+00 0. -1.
         13    1    5    5    0    0 -0.13968545874E+03  0.18592179438E+03 -0.64900479627E+03  0.68941001341E+03  0.00000000000E+00 0. -1.
        -13    1    5    5    0    0 -0.84072090742E+01  0.11070271348E+03 -0.36989525206E+03  0.38619718983E+03  0.00000000000E+00 0.  1.
          3    1    6    6  503    0  0.32698463518E+02 -0.46066793987E+03 -0.81097704920E+03  0.93325661780E+03  0.00000000000E+00 0. -1.
         -3    1    6    6    0  503  0.47138103702E+02 -0.97622702167E+02 -0.16157818966E+03  0.19457570294E+03  0.00000000000E+00 0.  1.
<mgrwt>
<rscale>  0 0.14317964E+04</rscale>
<asrwt>0</asrwt>
<pdfrwt beam="1">  1        1 0.34878454E+00 0.14317964E+04</pdfrwt>
<pdfrwt beam="2">  1       -1 0.34779123E-01 0.14317964E+04</pdfrwt>
<totfact> 0.14992587E+01</totfact>
</mgrwt>
</event>
<event>
12    3  0.4634846E-008  0.1254719E+04  0.7818608E-02  0.9066265E-01
          2   -1    0    0  501    0  0.00000000000E+00  0.00000000000E+00  0.65510408365E+03  0.65510408365E+03  0.00000000000E+00 0. -1.
         -2   -1    0    0    0  501 -0.00000000000E+00 -0.00000000000E+00 -0.60078994161E+03  0.60078994161E+03  0.00000000000E+00 0.  1.
         23    2    1    2    0    0 -0.43008313813E+02  0.14355795288E+03 -0.23222269185E+03  0.29111696360E+03  0.91450024576E+02 0.  0.
        254    2    1    2    0    0  0.43008313813E+02 -0.14355795288E+03  0.28653683388E+03  0.96477706166E+03  0.90897349831E+03 0.  0.
         23    2    4    4    0    0  0.41079342348E+03 -0.14154397900E+03  0.36954834985E+03  0.57702729705E+03  0.87227197005E+02 0.  0.
         23    2    4    4    0    0 -0.36778510966E+03 -0.20139738874E+01 -0.83011515966E+02  0.38774976461E+03  0.90493232857E+02 0.  0.
          1    1    3    3  502    0  0.86337268389E+01  0.28823195404E+02 -0.37917044735E+01  0.30326471196E+02  0.00000000000E+00 0. -1.
         -1    1    3    3    0  502 -0.51642040652E+02  0.11473475748E+03 -0.22843098738E+03  0.26079049241E+03  0.00000000000E+00 0.  1.
         13    1    5    5    0    0  0.39436096146E+03 -0.14740174761E+03  0.36858425465E+03  0.55955535553E+03  0.00000000000E+00 0. -1.
        -13    1    5    5    0    0  0.16432462012E+02  0.58577686086E+01  0.96409520027E+00  0.17471941518E+02  0.00000000000E+00 0.  1.
          1    1    6    6  503    0 -0.18054584830E+03  0.12077856426E+02 -0.85117487341E+02  0.19996915913E+03  0.00000000000E+00 0. -1.
         -1    1    6    6    0  503 -0.18723926137E+03 -0.14091830314E+02  0.21059713753E+01  0.18778060548E+03  0.00000000000E+00 0.  1.
<mgrwt>
<rscale>  0 0.12547190E+04</rscale>
<asrwt>0</asrwt>
<pdfrwt beam="1">  1        2 0.10078524E+00 0.12547190E+04</pdfrwt>
<pdfrwt beam="2">  1       -2 0.92429222E-01 0.12547190E+04</pdfrwt>
<totfact> 0.43514603E+01</totfact>
</mgrwt>
</event>
<event>
12    3  0.4634846E-008  0.2062781E+04  0.7818608E-02  0.8577818E-01
          2   -1    0    0  501    0  0.00000000000E+00  0.00000000000E+00  0.13900056360E+04  0.13900056360E+04  0.00000000000E+00 0. -1.
         -2   -1    0    0    0  501 -0.00000000000E+00 -0.00000000000E+00 -0.76529641445E+03  0.76529641445E+03  0.00000000000E+00 0.  1.
         23    2    1    2    0    0 -0.18946781321E+03  0.70727944978E+03 -0.16007684914E+03  0.75627959542E+03  0.10095522023E+03 0.  0.
        254    2    1    2    0    0  0.18946781321E+03 -0.70727944978E+03  0.78478607067E+03  0.13990224550E+04  0.89734741353E+03 0.  0.
         23    2    4    4    0    0  0.24654981018E+03  0.13646269563E+03  0.12089036159E+03  0.31999485697E+03  0.91506025851E+02 0.  0.
         23    2    4    4    0    0 -0.57081996968E+02 -0.84374214541E+03  0.66389570908E+03  0.10790275980E+04  0.91563543282E+02 0.  0.
          4    1    3    3  502    0 -0.13360368096E+03  0.54301379102E+03 -0.16389981546E+03  0.58273241742E+03  0.00000000000E+00 0.  1.
         -4    1    3    3    0  502 -0.55864132251E+02  0.16426565876E+03  0.38229663192E+01  0.17354717800E+03  0.00000000000E+00 0. -1.
         13    1    5    5    0    0  0.28755893978E+02 -0.66525008852E+01 -0.60288712651E+01  0.30124815273E+02  0.00000000000E+00 0.  1.
        -13    1    5    5    0    0  0.21779391620E+03  0.14311519652E+03  0.12691923285E+03  0.28987004170E+03  0.00000000000E+00 0. -1.
          3    1    6    6  503    0 -0.82233210611E+02 -0.64593293430E+03  0.50256806403E+03  0.82253651318E+03  0.00000000000E+00 0. -1.
         -3    1    6    6    0  503  0.25151213643E+02 -0.19780921111E+03  0.16132764506E+03  0.25649108485E+03  0.00000000000E+00 0.  1.
<mgrwt>
<rscale>  0 0.20627810E+04</rscale>
<asrwt>0</asrwt>
<pdfrwt beam="1">  1        2 0.21384702E+00 0.20627810E+04</pdfrwt>
<pdfrwt beam="2">  1       -2 0.11773791E+00 0.20627810E+04</pdfrwt>
<totfact> 0.75455846E+00</totfact>
</mgrwt>
</event>
<event>
12    3  0.4634846E-008  0.1255643E+04  0.7818608E-02  0.9065500E-01
          2   -1    0    0  501    0  0.00000000000E+00  0.00000000000E+00  0.40893034068E+04  0.40893034068E+04  0.00000000000E+00 0.  1.
         -2   -1    0    0    0  501 -0.00000000000E+00 -0.00000000000E+00 -0.96387978289E+02  0.96387978289E+02  0.00000000000E+00 0. -1.
         23    2    1    2    0    0 -0.15511109368E+03 -0.15078289223E+03  0.28204054134E+03  0.36614713237E+03  0.87874476448E+02 0.  0.
        254    2    1    2    0    0  0.15511109368E+03  0.15078289223E+03  0.37108748871E+04  0.38195442527E+04  0.87836833862E+03 0.  0.
         23    2    4    4    0    0  0.15871645466E+03 -0.21023885607E+03  0.40376954651E+03  0.49151385397E+03  0.95732608733E+02 0.  0.
         23    2    4    4    0    0 -0.36053609785E+01  0.36102174830E+03  0.33071053406E+04  0.33280303987E+04  0.92146076492E+02 0.  0.
          2    1    3    3  502    0 -0.16026795384E+03 -0.14155080860E+03  0.28389237979E+03  0.35541149637E+03  0.00000000000E+00 0. -1.
         -2    1    3    3    0  502  0.51568601609E+01 -0.92320836247E+01 -0.18518384503E+01  0.10735636004E+02  0.00000000000E+00 0.  1.
         13    1    5    5    0    0  0.13365154455E+03 -0.99228503864E+02  0.24216260059E+03  0.29385669375E+03  0.00000000000E+00 0. -1.
        -13    1    5    5    0    0  0.25064910113E+02 -0.11101035221E+03  0.16160694592E+03  0.19765716022E+03  0.00000000000E+00 0.  1.
          2    1    6    6  503    0 -0.26530341825E+02  0.66100387948E+02  0.90067670881E+03  0.90348860210E+03  0.00000000000E+00 0. -1.
         -2    1    6    6    0  503  0.22924980846E+02  0.29492136035E+03  0.24064286318E+04  0.24245417966E+04  0.00000000000E+00 0.  1.
<mgrwt>
<rscale>  0 0.12556428E+04</rscale>
<asrwt>0</asrwt>
<pdfrwt beam="1">  1        2 0.62912347E+00 0.12556428E+04</pdfrwt>
<pdfrwt beam="2">  1       -2 0.14828923E-01 0.12556428E+04</pdfrwt>
<totfact> 0.10572909E+01</totfact>
</mgrwt>
</event>
<event>
12    3  0.4634846E-008  0.1936212E+04  0.7818608E-02  0.8637038E-01
         -2   -1    0    0    0  501 -0.00000000000E+00  0.00000000000E+00  0.43264055830E+03  0.43264055830E+03  0.00000000000E+00 0.  1.
          2   -1    0    0  501    0  0.00000000000E+00 -0.00000000000E+00 -0.21663000903E+04  0.21663000903E+04  0.00000000000E+00 0. -1.
         23    2    1    2    0    0 -0.33113224549E+03  0.44579598638E+03 -0.13567654539E+04  0.14688119202E+04  0.90627449372E+02 0.  0.
        254    2    1    2    0    0  0.33113224549E+03 -0.44579598638E+03 -0.37689407802E+03  0.11301287283E+04  0.90926298235E+03 0.  0.
         23    2    4    4    0    0 -0.86055787113E+02 -0.39051415337E+03  0.16093221238E+03  0.44127707189E+03  0.94442441302E+02 0.  0.
         23    2    4    4    0    0  0.41718803260E+03 -0.55281833010E+02 -0.53782629040E+03  0.68885165644E+03  0.90319158120E+02 0.  0.
          1    1    3    3  502    0 -0.21740817585E+03  0.35415545886E+03 -0.10421510426E+04  0.11219497313E+04  0.00000000000E+00 0. -1.
         -1    1    3    3    0  502 -0.11372406964E+03  0.91640527516E+02 -0.31461441130E+03  0.34686218891E+03  0.00000000000E+00 0.  1.
         13    1    5    5    0    0 -0.36060873126E+02 -0.15959476608E+03  0.11652537813E+03  0.20087070388E+03  0.00000000000E+00 0. -1.
        -13    1    5    5    0    0 -0.49994913987E+02 -0.23091938729E+03  0.44406834248E+02  0.24040636801E+03  0.00000000000E+00 0.  1.
          2    1    6    6  503    0  0.26808161493E+03  0.46456866011E+01 -0.30707144677E+03  0.40765452051E+03  0.00000000000E+00 0. -1.
         -2    1    6    6    0  503  0.14910641768E+03 -0.59927519611E+02 -0.23075484363E+03  0.28119713593E+03  0.00000000000E+00 0.  1.
<mgrwt>
<rscale>  0 0.19362121E+04</rscale>
<asrwt>0</asrwt>
<pdfrwt beam="1">  1        2 0.33327695E+00 0.19362121E+04</pdfrwt>
<pdfrwt beam="2">  1       -2 0.66560084E-01 0.19362121E+04</pdfrwt>
<totfact> 0.10449016E+01</totfact>
</mgrwt>
</event>
<event>
12    3  0.4634846E-008  0.1302544E+04  0.7818608E-02  0.9027550E-01
          2   -1    0    0  501    0  0.00000000000E+00  0.00000000000E+00  0.92786968696E+03  0.92786968696E+03  0.00000000000E+00 0. -1.
         -2   -1    0    0    0  501 -0.00000000000E+00 -0.00000000000E+00 -0.45712785365E+03  0.45712785365E+03  0.00000000000E+00 0.  1.
         23    2    1    2    0    0  0.44236685879E+02  0.47991198296E+02  0.47402822205E+03  0.48711569488E+03  0.91208033670E+02 0.  0.
        254    2    1    2    0    0 -0.44236685879E+02 -0.47991198296E+02 -0.32863887462E+01  0.89788184573E+03  0.89550040148E+03 0.  0.
         23    2    4    4    0    0 -0.15479459192E+03 -0.26652351949E+02  0.41661005543E+03  0.45410769075E+03  0.89320450950E+02 0.  0.
         23    2    4    4    0    0  0.11055790604E+03 -0.21338846347E+02 -0.41989644418E+03  0.44377415498E+03  0.89129567704E+02 0.  0.
          2    1    3    3  502    0  0.70412940827E+02  0.48170556676E+02  0.38375571598E+03  0.39312445143E+03  0.00000000000E+00 0. -1.
         -2    1    3    3    0  502 -0.26176254948E+02 -0.17935837991E+00  0.90272506071E+02  0.93991243448E+02  0.00000000000E+00 0.  1.
         13    1    5    5    0    0 -0.56964298881E+02 -0.50457955602E+02  0.22711289030E+03  0.23952286231E+03  0.00000000000E+00 0.  1.
        -13    1    5    5    0    0 -0.97830293042E+02  0.23805603653E+02  0.18949716514E+03  0.21458482844E+03  0.00000000000E+00 0. -1.
          1    1    6    6  503    0  0.80350751039E+02 -0.44161220331E+02 -0.19216832809E+03  0.21292046143E+03  0.00000000000E+00 0. -1.
         -1    1    6    6    0  503  0.30207155005E+02  0.22822373985E+02 -0.22772811609E+03  0.23085369355E+03  0.00000000000E+00 0.  1.
<mgrwt>
<rscale>  0 0.13025438E+04</rscale>
<asrwt>0</asrwt>
<pdfrwt beam="1">  1        2 0.14274918E+00 0.13025438E+04</pdfrwt>
<pdfrwt beam="2">  1       -2 0.70327362E-01 0.13025438E+04</pdfrwt>
<totfact> 0.50656629E+01</totfact>
</mgrwt>
</event>
<event>
12    3  0.4634846E-008  0.2231618E+04  0.7818608E-02  0.8505382E-01
         -2   -1    0    0    0  501 -0.00000000000E+00  0.00000000000E+00  0.53263630322E+03  0.53263630322E+03  0.00000000000E+00 0.  1.
          2   -1    0    0  501    0  0.00000000000E+00 -0.00000000000E+00 -0.23374861739E+04  0.23374861739E+04  0.00000000000E+00 0. -1.
         23    2    1    2    0    0  0.89058290617E+02 -0.54104932457E+03 -0.17291037498E+04  0.18161997166E+04  0.90088192433E+02 0.  0.
        254    2    1    2    0    0 -0.89058290617E+02  0.54104932457E+03 -0.75746120869E+02  0.10539227605E+04  0.89685559566E+03 0.  0.
         23    2    4    4    0    0 -0.43884158863E+03  0.45596247207E+03 -0.18785765392E+03  0.66620679803E+03  0.89762373825E+02 0.  0.
         23    2    4    4    0    0  0.34978329801E+03  0.85086852495E+02  0.11211153305E+03  0.38771596244E+03  0.90368930820E+02 0.  0.
          4    1    3    3  502    0  0.82081726037E+02 -0.52581757369E+03 -0.17094493499E+04  0.17903738744E+04  0.00000000000E+00 0. -1.
         -4    1    3    3    0  502  0.69765645807E+01 -0.15231750879E+02 -0.19654399926E+02  0.25825842187E+02  0.00000000000E+00 0.  1.
         13    1    5    5    0    0 -0.43958116032E+03  0.44777565176E+03 -0.17585498941E+03  0.65165911957E+03  0.00000000000E+00 0. -1.
        -13    1    5    5    0    0  0.73957169890E+00  0.81868203094E+01 -0.12002664506E+02  0.14547678451E+02  0.00000000000E+00 0.  1.
          2    1    6    6  503    0  0.30938017092E+03  0.48369719050E+02  0.75905886895E+02  0.32220711281E+03  0.00000000000E+00 0. -1.
         -2    1    6    6    0  503  0.40403127089E+02  0.36717133445E+02  0.36205646156E+02  0.65508849636E+02  0.00000000000E+00 0.  1.
<mgrwt>
<rscale>  0 0.22316182E+04</rscale>
<asrwt>0</asrwt>
<pdfrwt beam="1">  1        2 0.35961325E+00 0.22316182E+04</pdfrwt>
<pdfrwt beam="2">  1       -2 0.81944048E-01 0.22316182E+04</pdfrwt>
<totfact> 0.51522040E+00</totfact>
</mgrwt>
</event>
<event>
12    3  0.4634846E-008  0.1296709E+04  0.7818608E-02  0.9032179E-01
          1   -1    0    0  501    0  0.00000000000E+00  0.00000000000E+00  0.40665905509E+03  0.40665905509E+03  0.00000000000E+00 0. -1.
         -1   -1    0    0    0  501 -0.00000000000E+00 -0.00000000000E+00 -0.10337001762E+04  0.10337001762E+04  0.00000000000E+00 0.  1.
         23    2    1    2    0    0  0.90032350042E+02 -0.12264275969E+03 -0.48013232726E+03  0.51138278360E+03  0.88533773936E+02 0.  0.
        254    2    1    2    0    0 -0.90032350042E+02  0.12264275969E+03 -0.14690879390E+03  0.92897644773E+03  0.90458165809E+03 0.  0.
         23    2    4    4    0    0 -0.16815971789E+03  0.80986394855E+02 -0.50660516912E+03  0.54755546827E+03  0.91278182379E+02 0.  0.
         23    2    4    4    0    0  0.78127367848E+02  0.41656364839E+02  0.35969637523E+03  0.38142097946E+03  0.90891929697E+02 0.  0.
          2    1    3    3  502    0 -0.88013355302E+01  0.82128703955E+01 -0.32125305135E+02  0.34306704553E+02  0.00000000000E+00 0. -1.
         -2    1    3    3    0  502  0.98833685573E+02 -0.13085563009E+03 -0.44800702212E+03  0.47707607905E+03  0.00000000000E+00 0.  1.
         13    1    5    5    0    0  0.46444969087E+01  0.13751843452E+02 -0.10453583978E+02  0.17887480757E+02  0.00000000000E+00 0. -1.
        -13    1    5    5    0    0 -0.17280421480E+03  0.67234551404E+02 -0.49615158515E+03  0.52966798751E+03  0.00000000000E+00 0.  1.
          2    1    6    6  503    0  0.43696943828E+02 -0.22038568536E+02  0.93253995066E+02  0.10531585350E+03  0.00000000000E+00 0. -1.
         -2    1    6    6    0  503  0.34430424020E+02  0.63694933376E+02  0.26644238016E+03  0.27610512596E+03  0.00000000000E+00 0.  1.
<mgrwt>
<rscale>  0 0.12967090E+04</rscale>
<asrwt>0</asrwt>
<pdfrwt beam="1">  1        1 0.62562932E-01 0.12967090E+04</pdfrwt>
<pdfrwt beam="2">  1       -1 0.15903080E+00 0.12967090E+04</pdfrwt>
<totfact> 0.17143308E+01</totfact>
</mgrwt>
</event>
<event>
12    3  0.4634846E-008  0.1718862E+04  0.7818608E-02  0.8750679E-01
          2   -1    0    0  501    0  0.00000000000E+00  0.00000000000E+00  0.14495499439E+04  0.14495499439E+04  0.00000000000E+00 0. -1.
         -2   -1    0    0    0  501 -0.00000000000E+00 -0.00000000000E+00 -0.50955264462E+03  0.50955264462E+03  0.00000000000E+00 0.  1.
         23    2    1    2    0    0  0.24436718777E+03 -0.32484055324E+03  0.86703694328E+03  0.96228873068E+03  0.94920138495E+02 0.  0.
        254    2    1    2    0    0 -0.24436718777E+03  0.32484055324E+03  0.72960356000E+02  0.99681385783E+03  0.90723643342E+03 0.  0.
         23    2    4    4    0    0 -0.41324561182E+02 -0.21553330765E+03  0.28858049800E+03  0.37349861206E+03  0.89778523709E+02 0.  0.
         23    2    4    4    0    0 -0.20304262659E+03  0.54037386090E+03 -0.21562014200E+03  0.62331524577E+03  0.93806354896E+02 0.  0.
          3    1    3    3  502    0  0.17644923126E+02 -0.11224629732E+02  0.12891366696E+02  0.24566704297E+02  0.00000000000E+00 0. -1.
         -3    1    3    3    0  502  0.22672226465E+03 -0.31361592351E+03  0.85414557659E+03  0.93772202638E+03  0.00000000000E+00 0.  1.
         13    1    5    5    0    0  0.15753366193E+02 -0.22423385738E+02  0.75510752376E+02  0.80329636491E+02  0.00000000000E+00 0. -1.
        -13    1    5    5    0    0 -0.57077927375E+02 -0.19310992192E+03  0.21306974563E+03  0.29316897557E+03  0.00000000000E+00 0.  1.
          4    1    6    6  503    0 -0.11165089493E+03  0.27066989529E+03 -0.15826058554E+03  0.33282807497E+03  0.00000000000E+00 0. -1.
         -4    1    6    6    0  503 -0.91391731664E+02  0.26970396561E+03 -0.57359556464E+02  0.29048717080E+03  0.00000000000E+00 0.  1.
<mgrwt>
<rscale>  0 0.17188624E+04</rscale>
<asrwt>0</asrwt>
<pdfrwt beam="1">  1        2 0.22300768E+00 0.17188624E+04</pdfrwt>
<pdfrwt beam="2">  1       -2 0.78392715E-01 0.17188624E+04</pdfrwt>
<totfact> 0.18637531E+01</totfact>
</mgrwt>
</event>
<event>
12    3  0.4634846E-008  0.1468348E+04  0.7818608E-02  0.8905778E-01
         -1   -1    0    0    0  501 -0.00000000000E+00  0.00000000000E+00  0.96856630888E+03  0.96856630888E+03  0.00000000000E+00 0.  1.
          1   -1    0    0  501    0  0.00000000000E+00 -0.00000000000E+00 -0.55650468345E+03  0.55650468345E+03  0.00000000000E+00 0. -1.
         23    2    1    2    0    0  0.30372360468E+03 -0.23828115653E+03 -0.12704069851E+03  0.41669273365E+03  0.92019332758E+02 0.  0.
        254    2    1    2    0    0 -0.30372360468E+03  0.23828115653E+03  0.53910232393E+03  0.11083782587E+04  0.88816952833E+03 0.  0.
         23    2    4    4    0    0  0.20315390918E+03  0.37418681316E+03  0.22783009630E+03  0.49140745609E+03  0.91035450066E+02 0.  0.
         23    2    4    4    0    0 -0.50687751385E+03 -0.13590565662E+03  0.31127222763E+03  0.61697080259E+03  0.91473548099E+02 0.  0.
          2    1    3    3  502    0  0.26435949243E+03 -0.23956848417E+03 -0.12169467284E+03  0.37694640633E+03  0.00000000000E+00 0. -1.
         -2    1    3    3    0  502  0.39364112241E+02  0.12873276335E+01 -0.53460256701E+01  0.39746327320E+02  0.00000000000E+00 0.  1.
         13    1    5    5    0    0 -0.12020858498E+01  0.38048148783E+00  0.15237644960E+02  0.15289722054E+02  0.00000000000E+00 0. -1.
        -13    1    5    5    0    0  0.20435599503E+03  0.37380633167E+03  0.21259245134E+03  0.47611773404E+03  0.00000000000E+00 0.  1.
          3    1    6    6  503    0 -0.27314904025E+02 -0.31742548289E+02  0.27239856255E+02  0.49957012747E+02  0.00000000000E+00 0. -1.
         -3    1    6    6    0  503 -0.47956260983E+03 -0.10416310833E+03  0.28403237137E+03  0.56701378984E+03  0.00000000000E+00 0.  1.
<mgrwt>
<rscale>  0 0.14683483E+04</rscale>
<asrwt>0</asrwt>
<pdfrwt beam="1">  1        1 0.85616105E-01 0.14683483E+04</pdfrwt>
<pdfrwt beam="2">  1       -1 0.14901020E+00 0.14683483E+04</pdfrwt>
<totfact> 0.13142263E+01</totfact>
</mgrwt>
</event>
<event>
12    3  0.4634846E-008  0.1516360E+04  0.7818608E-02  0.8873646E-01
         -2   -1    0    0    0  501 -0.00000000000E+00  0.00000000000E+00  0.44020290530E+03  0.44020290530E+03  0.00000000000E+00 0.  1.
          2   -1    0    0  501    0  0.00000000000E+00 -0.00000000000E+00 -0.13058458258E+04  0.13058458258E+04  0.00000000000E+00 0. -1.
         23    2    1    2    0    0 -0.27285862444E+03  0.79906114115E+02 -0.58348740059E+03  0.65626700909E+03  0.96912458226E+02 0.  0.
        254    2    1    2    0    0  0.27285862444E+03 -0.79906114115E+02 -0.28215551991E+03  0.10897817220E+04  0.10134967431E+04 0.  0.
         23    2    4    4    0    0  0.60102787580E+03 -0.35090894047E+02  0.49962146510E+02  0.61101168825E+03  0.91505129688E+02 0.  0.
         23    2    4    4    0    0 -0.32816925137E+03 -0.44815220068E+02 -0.33211766642E+03  0.47877003376E+03  0.95995517547E+02 0.  0.
          4    1    3    3  502    0 -0.15144707536E+03  0.24188407769E+02 -0.40690024239E+03  0.43484376845E+03  0.00000000000E+00 0. -1.
         -4    1    3    3    0  502 -0.12141154908E+03  0.55717706346E+02 -0.17658715821E+03  0.22142324064E+03  0.00000000000E+00 0.  1.
         13    1    5    5    0    0  0.13850607421E+03 -0.25162264504E+02  0.46877388734E+02  0.14837304918E+03  0.00000000000E+00 0.  1.
        -13    1    5    5    0    0  0.46252180159E+03 -0.99286295425E+01  0.30847577766E+01  0.46263863907E+03  0.00000000000E+00 0. -1.
          1    1    6    6  503    0 -0.29023958257E+03 -0.70901214388E+02 -0.29015309332E+03  0.41647906917E+03  0.00000000000E+00 0. -1.
         -1    1    6    6    0  503 -0.37929668794E+02  0.26085994320E+02 -0.41964573100E+02  0.62290964594E+02  0.00000000000E+00 0.  1.
<mgrwt>
<rscale>  0 0.15163603E+04</rscale>
<asrwt>0</asrwt>
<pdfrwt beam="1">  1        2 0.20089935E+00 0.15163603E+04</pdfrwt>
<pdfrwt beam="2">  1       -2 0.67723526E-01 0.15163603E+04</pdfrwt>
<totfact> 0.31621170E+01</totfact>
</mgrwt>
</event>
<event>
12    3  0.4634846E-008  0.1828125E+04  0.7818608E-02  0.8691485E-01
          1   -1    0    0  501    0  0.00000000000E+00  0.00000000000E+00  0.38462437099E+03  0.38462437099E+03  0.00000000000E+00 0. -1.
         -1   -1    0    0    0  501 -0.00000000000E+00 -0.00000000000E+00 -0.21722747706E+04  0.21722747706E+04  0.00000000000E+00 0.  1.
         23    2    1    2    0    0  0.59084491794E+03  0.32047832893E+03 -0.46367285447E+03  0.82218779595E+03  0.95896712535E+02 0.  0.
        254    2    1    2    0    0 -0.59084491794E+03 -0.32047832893E+03 -0.13239775452E+04  0.17347113457E+04  0.89694082095E+03 0.  0.
         23    2    4    4    0    0  0.21233711507E+03 -0.15473648192E+03 -0.47916737863E+03  0.55403232136E+03  0.91214072929E+02 0.  0.
         23    2    4    4    0    0 -0.80318203301E+03 -0.16574184702E+03 -0.84481016656E+03  0.11806790243E+04  0.87903372635E+02 0.  0.
          3    1    3    3  502    0  0.50501498014E+03  0.30842779587E+03 -0.39311738531E+03  0.71042882406E+03  0.00000000000E+00 0. -1.
         -3    1    3    3    0  502  0.85829937795E+02  0.12050533068E+02 -0.70555469161E+02  0.11175897189E+03  0.00000000000E+00 0.  1.
         13    1    5    5    0    0 -0.24299767246E+01 -0.25652378144E+02 -0.65573862997E+02  0.70454813886E+02  0.00000000000E+00 0.  1.
        -13    1    5    5    0    0  0.21476709180E+03 -0.12908410377E+03 -0.41359351563E+03  0.48357750748E+03  0.00000000000E+00 0. -1.
          3    1    6    6  503    0 -0.51420383534E+03 -0.63077021528E+02 -0.52317435707E+03  0.73627148717E+03  0.00000000000E+00 0. -1.
         -3    1    6    6    0  503 -0.28897819767E+03 -0.10266482549E+03 -0.32163580949E+03  0.44440753714E+03  0.00000000000E+00 0.  1.
<mgrwt>
<rscale>  0 0.18281245E+04</rscale>
<asrwt>0</asrwt>
<pdfrwt beam="1">  1        1 0.59172980E-01 0.18281245E+04</pdfrwt>
<pdfrwt beam="2">  1       -1 0.33419612E+00 0.18281245E+04</pdfrwt>
<totfact> 0.11779592E+00</totfact>
</mgrwt>
</event>
<event>
12    3  0.4634846E-008  0.1385197E+04  0.7818608E-02  0.8964604E-01
         -2   -1    0    0    0  501 -0.00000000000E+00  0.00000000000E+00  0.20005836376E+03  0.20005836376E+03  0.00000000000E+00 0.  1.
          2   -1    0    0  501    0  0.00000000000E+00 -0.00000000000E+00 -0.23977640311E+04  0.23977640311E+04  0.00000000000E+00 0. -1.
         23    2    1    2    0    0 -0.35556791055E+03 -0.25880474962E+02 -0.94846884412E+03  0.10171063642E+04  0.88396096474E+02 0.  0.
        254    2    1    2    0    0  0.35556791055E+03  0.25880474962E+02 -0.12492368232E+04  0.15807160306E+04  0.90053994417E+03 0.  0.
         23    2    4    4    0    0  0.40385204743E+03 -0.54949566845E+02 -0.10737272383E+03  0.43130788301E+03  0.91551390040E+02 0.  0.
         23    2    4    4    0    0 -0.48284136880E+02  0.80830041806E+02 -0.11418640994E+04  0.11494081476E+04  0.91763908091E+02 0.  0.
          1    1    3    3  502    0 -0.17059599494E+03  0.43535116987E+01 -0.56626746142E+03  0.59142267831E+03  0.00000000000E+00 0. -1.
         -1    1    3    3    0  502 -0.18497191561E+03 -0.30233986660E+02 -0.38220138270E+03  0.42568368591E+03  0.00000000000E+00 0.  1.
         13    1    5    5    0    0  0.31859195934E+03 -0.44739112308E+02 -0.44278310362E+02  0.32475066358E+03  0.00000000000E+00 0.  1.
        -13    1    5    5    0    0  0.85260088087E+02 -0.10210454536E+02 -0.63094413469E+02  0.10655721943E+03  0.00000000000E+00 0. -1.
          2    1    6    6  503    0  0.55242596183E+01  0.63328787518E+01 -0.73095356625E+01  0.11137868253E+02  0.00000000000E+00 0. -1.
         -2    1    6    6    0  503 -0.53808396498E+02  0.74497163054E+02 -0.11345545637E+04  0.11382702794E+04  0.00000000000E+00 0.  1.
<mgrwt>
<rscale>  0 0.13851971E+04</rscale>
<asrwt>0</asrwt>
<pdfrwt beam="1">  1        2 0.36888676E+00 0.13851971E+04</pdfrwt>
<pdfrwt beam="2">  1       -2 0.30778211E-01 0.13851971E+04</pdfrwt>
<totfact> 0.38086196E+01</totfact>
</mgrwt>
</event>
<event>
12    3  0.4634846E-008  0.2111468E+04  0.7818608E-02  0.8556208E-01
         -2   -1    0    0    0  501 -0.00000000000E+00  0.00000000000E+00  0.14929489633E+04  0.14929489633E+04  0.00000000000E+00 0.  1.
          2   -1    0    0  501    0  0.00000000000E+00 -0.00000000000E+00 -0.74655894480E+03  0.74655894480E+03  0.00000000000E+00 0. -1.
         23    2    1    2    0    0  0.24962059646E+03  0.19066267191E+03 -0.54582203445E+03  0.63554519687E+03  0.85634732024E+02 0.  0.
        254    2    1    2    0    0 -0.24962059646E+03 -0.19066267191E+03  0.12922120529E+04  0.16039627112E+04  0.89678408358E+03 0.  0.
         23    2    4    4    0    0  0.14837608116E+02  0.21199959725E+03  0.10145733847E+04  0.10405750079E+04  0.90957189970E+02 0.  0.
         23    2    4    4    0    0 -0.26445820457E+03 -0.40266226916E+03  0.27763866827E+03  0.56338770328E+03  0.90815357274E+02 0.  0.
          4    1    3    3  502    0  0.15658412556E+03  0.16146410297E+03 -0.41919302417E+03  0.47572264655E+03  0.00000000000E+00 0. -1.
         -4    1    3    3    0  502  0.93036470897E+02  0.29198568948E+02 -0.12662901028E+03  0.15982255032E+03  0.00000000000E+00 0.  1.
         13    1    5    5    0    0  0.34765413228E+02  0.17704825607E+03  0.92424115671E+03  0.94168807717E+03  0.00000000000E+00 0. -1.
        -13    1    5    5    0    0 -0.19927805112E+02  0.34951341177E+02  0.90332227940E+02  0.98886930741E+02  0.00000000000E+00 0.  1.
          1    1    6    6  503    0 -0.20322916803E+03 -0.23658842993E+03  0.19687968003E+03  0.36883300872E+03  0.00000000000E+00 0. -1.
         -1    1    6    6    0  503 -0.61229036548E+02 -0.16607383923E+03  0.80758988234E+02  0.19455469456E+03  0.00000000000E+00 0.  1.
<mgrwt>
<rscale>  0 0.21114681E+04</rscale>
<asrwt>0</asrwt>
<pdfrwt beam="1">  1        2 0.11485522E+00 0.21114681E+04</pdfrwt>
<pdfrwt beam="2">  1       -2 0.22968445E+00 0.21114681E+04</pdfrwt>
<totfact> 0.29819557E+00</totfact>
</mgrwt>
</event>
<event>
12    3  0.4634846E-008  0.1815804E+04  0.7818608E-02  0.8697940E-01
         -1   -1    0    0    0  501 -0.00000000000E+00  0.00000000000E+00  0.10240035075E+04  0.10240035075E+04  0.00000000000E+00 0.  1.
          1   -1    0    0  501    0  0.00000000000E+00 -0.00000000000E+00 -0.80496439198E+03  0.80496439198E+03  0.00000000000E+00 0. -1.
         23    2    1    2    0    0 -0.34861456806E+02 -0.54431581189E+03 -0.32718161713E+03  0.64307829232E+03  0.94904453085E+02 0.  0.
        254    2    1    2    0    0  0.34861456806E+02  0.54431581189E+03  0.54622073268E+03  0.11858896072E+04  0.90026776428E+03 0.  0.
         23    2    4    4    0    0  0.10143309068E+03  0.43631191917E+03 -0.14322459280E+03  0.47890785279E+03  0.90458193596E+02 0.  0.
         23    2    4    4    0    0 -0.66571633875E+02  0.10800389273E+03  0.68944532547E+03  0.70698175441E+03  0.91606336926E+02 0.  0.
          4    1    3    3  502    0 -0.40053194752E+02 -0.23131469307E+03 -0.18675464746E+03  0.29998007265E+03  0.00000000000E+00 0. -1.
         -4    1    3    3    0  502  0.51917379454E+01 -0.31300111883E+03 -0.14042696967E+03  0.34309821967E+03  0.00000000000E+00 0.  1.
         13    1    5    5    0    0  0.11206851502E+03  0.31924921751E+03 -0.91614821676E+02  0.35053201065E+03  0.00000000000E+00 0.  1.
        -13    1    5    5    0    0 -0.10635424335E+02  0.11706270166E+03 -0.51609771120E+02  0.12837584214E+03  0.00000000000E+00 0. -1.
          4    1    6    6  503    0 -0.70377978938E+02  0.28572676112E+02  0.29686789636E+03  0.30643107810E+03  0.00000000000E+00 0.  1.
         -4    1    6    6    0  503  0.38063450634E+01  0.79431216613E+02  0.39257742912E+03  0.40055067630E+03  0.00000000000E+00 0. -1.
<mgrwt>
<rscale>  0 0.18158044E+04</rscale>
<asrwt>0</asrwt>
<pdfrwt beam="1">  1        1 0.12384068E+00 0.18158044E+04</pdfrwt>
<pdfrwt beam="2">  1       -1 0.15753900E+00 0.18158044E+04</pdfrwt>
<totfact> 0.62943642E+00</totfact>
</mgrwt>
</event>
<event>
12    3  0.4634846E-008  0.2329053E+04  0.7818608E-02  0.8466553E-01
          1   -1    0    0  501    0  0.00000000000E+00  0.00000000000E+00  0.27261238073E+04  0.27261238073E+04  0.00000000000E+00 0. -1.
         -1   -1    0    0    0  501 -0.00000000000E+00 -0.00000000000E+00 -0.49745423781E+03  0.49745423781E+03  0.00000000000E+00 0.  1.
         23    2    1    2    0    0 -0.53816922932E+03  0.36832099073E+02 -0.22138015807E+03  0.59027039655E+03  0.91800020416E+02 0.  0.
        254    2    1    2    0    0  0.53816922932E+03 -0.36832099073E+02  0.24500497276E+04  0.26333076486E+04  0.80036415562E+03 0.  0.
         23    2    4    4    0    0 -0.15174692759E+03 -0.24586822283E+02  0.16191072979E+03  0.24115722540E+03  0.91159646116E+02 0.  0.
         23    2    4    4    0    0  0.68991615691E+03 -0.12245276790E+02  0.22881389978E+04  0.23921504232E+04  0.10329241777E+03 0.  0.
          3    1    3    3  502    0 -0.25006081075E+02  0.21386584014E+02 -0.56255264845E+01  0.33381680826E+02  0.00000000000E+00 0. -1.
         -3    1    3    3    0  502 -0.51316314824E+03  0.15445515060E+02 -0.21575463158E+03  0.55688871572E+03  0.00000000000E+00 0.  1.
         13    1    5    5    0    0 -0.56508914272E+02 -0.36816063982E+01  0.55690579516E+01  0.56901898249E+02  0.00000000000E+00 0. -1.
        -13    1    5    5    0    0 -0.95238013320E+02 -0.20905215885E+02  0.15634167183E+03  0.18425532715E+03  0.00000000000E+00 0.  1.
          3    1    6    6  503    0  0.14349969146E+03  0.31114727700E+02  0.40192735253E+03  0.42790873378E+03  0.00000000000E+00 0. -1.
         -3    1    6    6    0  503  0.54641646545E+03 -0.43360004490E+02  0.18862116452E+04  0.19642416894E+04  0.00000000000E+00 0.  1.
<mgrwt>
<rscale>  0 0.23290529E+04</rscale>
<asrwt>0</asrwt>
<pdfrwt beam="1">  1        1 0.41940365E+00 0.23290529E+04</pdfrwt>
<pdfrwt beam="2">  1       -1 0.76531423E-01 0.23290529E+04</pdfrwt>
<totfact> 0.14531470E+00</totfact>
</mgrwt>
</event>
<event>
12    3  0.4634846E-008  0.1468060E+04  0.7818608E-02  0.8905975E-01
         -1   -1    0    0    0  501 -0.00000000000E+00  0.00000000000E+00  0.56880249392E+03  0.56880249392E+03  0.00000000000E+00 0.  1.
          1   -1    0    0  501    0  0.00000000000E+00 -0.00000000000E+00 -0.94725326507E+03  0.94725326507E+03  0.00000000000E+00 0. -1.
         23    2    1    2    0    0  0.23313762070E+03 -0.36868135005E+03 -0.25870261396E+03  0.51608772994E+03  0.95605514813E+02 0.  0.
        254    2    1    2    0    0 -0.23313762070E+03  0.36868135005E+03 -0.11974815720E+03  0.99996802905E+03  0.89180566825E+03 0.  0.
         23    2    4    4    0    0  0.16585315793E+03  0.45566946716E+02  0.28110394593E+03  0.34180854889E+03  0.90719562651E+02 0.  0.
         23    2    4    4    0    0 -0.39899077863E+03  0.32311440333E+03 -0.40085210313E+03  0.65815948016E+03  0.94312955964E+02 0.  0.
          4    1    3    3  502    0  0.21020996998E+02 -0.10079847837E+03 -0.80608841156E+02  0.13076697147E+03  0.00000000000E+00 0.  1.
         -4    1    3    3    0  502  0.21211662370E+03 -0.26788287168E+03 -0.17809377280E+03  0.38532075846E+03  0.00000000000E+00 0. -1.
         13    1    5    5    0    0  0.95713028145E+02  0.18582132674E+02  0.23300603281E+03  0.25258283935E+03  0.00000000000E+00 0. -1.
        -13    1    5    5    0    0  0.70140129789E+02  0.26984814041E+02  0.48097913125E+02  0.89225709539E+02  0.00000000000E+00 0.  1.
          4    1    6    6  503    0 -0.35688356534E+03  0.31271761926E+03 -0.34136967799E+03  0.58454379276E+03  0.00000000000E+00 0. -1.
         -4    1    6    6    0  503 -0.42107213292E+02  0.10396784077E+02 -0.59482425144E+02  0.73615687400E+02  0.00000000000E+00 0.  1.
<mgrwt>
<rscale>  0 0.14680600E+04</rscale>
<asrwt>0</asrwt>
<pdfrwt beam="1">  1        1 0.14573127E+00 0.14680600E+04</pdfrwt>
<pdfrwt beam="2">  1       -1 0.87508076E-01 0.14680600E+04</pdfrwt>
<totfact> 0.20766116E+01</totfact>
</mgrwt>
</event>
<event>
12    3  0.4634846E-008  0.1109326E+04  0.7818608E-02  0.9196150E-01
         -2   -1    0    0    0  501 -0.00000000000E+00  0.00000000000E+00  0.38567735788E+03  0.38567735788E+03  0.00000000000E+00 0.  1.
          2   -1    0    0  501    0  0.00000000000E+00 -0.00000000000E+00 -0.79768966168E+03  0.79768966168E+03  0.00000000000E+00 0. -1.
         23    2    1    2    0    0  0.10226313433E+03 -0.38531154134E+02  0.63439894790E+02  0.15643561929E+03  0.92223013677E+02 0.  0.
        254    2    1    2    0    0 -0.10226313433E+03  0.38531154134E+02 -0.47545219859E+03  0.10269314003E+04  0.90365419781E+03 0.  0.
         23    2    4    4    0    0  0.61114027890E+02 -0.61445389301E+02 -0.70410143976E+03  0.71529019094E+03  0.91491854915E+02 0.  0.
         23    2    4    4    0    0 -0.16337716222E+03  0.99976543435E+02  0.22864924117E+03  0.31164120932E+03  0.90290428563E+02 0.  0.
          1    1    3    3  502    0 -0.93922693117E+01  0.58467491927E+00  0.32941074454E+02  0.34258881385E+02  0.00000000000E+00 0. -1.
         -1    1    3    3    0  502  0.11165540364E+03 -0.39115829053E+02  0.30498820336E+02  0.12217673791E+03  0.00000000000E+00 0.  1.
         13    1    5    5    0    0  0.82562647094E+01  0.23493801404E+02 -0.18135766246E+03  0.18305935198E+03  0.00000000000E+00 0. -1.
        -13    1    5    5    0    0  0.52857763181E+02 -0.84939190705E+02 -0.52274377729E+03  0.53223083897E+03  0.00000000000E+00 0.  1.
          1    1    6    6  503    0 -0.13243262109E+03  0.10446891979E+03  0.22341056077E+03  0.27993648028E+03  0.00000000000E+00 0.  1.
         -1    1    6    6    0  503 -0.30944541131E+02 -0.44923763562E+01  0.52386803983E+01  0.31704729039E+02  0.00000000000E+00 0. -1.
<mgrwt>
<rscale>  0 0.11093256E+04</rscale>
<asrwt>0</asrwt>
<pdfrwt beam="1">  1        2 0.12272149E+00 0.11093256E+04</pdfrwt>
<pdfrwt beam="2">  1       -2 0.59334979E-01 0.11093256E+04</pdfrwt>
<totfact> 0.91019383E+01</totfact>
</mgrwt>
</event>
<event>
12    3  0.4634846E-008  0.1732940E+04  0.7818608E-02  0.8742797E-01
          2   -1    0    0  501    0  0.00000000000E+00  0.00000000000E+00  0.15969391578E+04  0.15969391578E+04  0.00000000000E+00 0. -1.
         -2   -1    0    0    0  501 -0.00000000000E+00 -0.00000000000E+00 -0.47013093399E+03  0.47013093399E+03  0.00000000000E+00 0.  1.
         23    2    1    2    0    0  0.12503512081E+02  0.61545323048E+03  0.35274402176E+03  0.71554196385E+03  0.92913618088E+02 0.  0.
        254    2    1    2    0    0 -0.12503512081E+02 -0.61545323048E+03  0.77406420206E+03  0.13515281279E+04  0.92114812870E+03 0.  0.
         23    2    4    4    0    0 -0.20692800474E+02  0.12438124302E+03 -0.11292232177E+03  0.19301126623E+03  0.92752426008E+02 0.  0.
         23    2    4    4    0    0  0.81892883925E+01 -0.73983447350E+03  0.88698652383E+03  0.11585168617E+04  0.89409802636E+02 0.  0.
          3    1    3    3  502    0  0.40008363452E+02  0.31283583243E+03  0.21642374250E+03  0.38249988695E+03  0.00000000000E+00 0. -1.
         -3    1    3    3    0  502 -0.27504851370E+02  0.30261739805E+03  0.13632027926E+03  0.33304207690E+03  0.00000000000E+00 0.  1.
         13    1    5    5    0    0 -0.25120967681E+02  0.36553329220E+02  0.63703679541E+01  0.44808375134E+02  0.00000000000E+00 0.  1.
        -13    1    5    5    0    0  0.44281672070E+01  0.87827913803E+02 -0.11929268972E+03  0.14820289109E+03  0.00000000000E+00 0. -1.
          1    1    6    6  503    0 -0.35606054984E+02 -0.16841812108E+03  0.20055776628E+03  0.26430261496E+03  0.00000000000E+00 0. -1.
         -1    1    6    6    0  503  0.43795343376E+02 -0.57141635243E+03  0.68642875755E+03  0.89421424676E+03  0.00000000000E+00 0.  1.
<mgrwt>
<rscale>  0 0.17329403E+04</rscale>
<asrwt>0</asrwt>
<pdfrwt beam="1">  1        2 0.24568294E+00 0.17329403E+04</pdfrwt>
<pdfrwt beam="2">  1       -2 0.72327837E-01 0.17329403E+04</pdfrwt>
<totfact> 0.18383284E+01</totfact>
</mgrwt>
</event>
<event>
12    3  0.4634846E-008  0.1267295E+04  0.7818608E-02  0.9055910E-01
          1   -1    0    0  501    0  0.00000000000E+00  0.00000000000E+00  0.18938035304E+04  0.18938035304E+04  0.00000000000E+00 0. -1.
         -1   -1    0    0    0  501 -0.00000000000E+00 -0.00000000000E+00 -0.21201214625E+03  0.21201214625E+03  0.00000000000E+00 0.  1.
         23    2    1    2    0    0 -0.20286955174E+03  0.18449201913E+03  0.66050010995E+03  0.72108851000E+03  0.92276128314E+02 0.  0.
        254    2    1    2    0    0  0.20286955174E+03 -0.18449201913E+03  0.10212912742E+04  0.13847271666E+04  0.89400229259E+03 0.  0.
         23    2    4    4    0    0 -0.18735464236E+03 -0.34239124335E+03  0.81333619515E+03  0.90690465463E+03  0.92880356991E+02 0.  0.
         23    2    4    4    0    0  0.39022419410E+03  0.15789922422E+03  0.20795507905E+03  0.47782251202E+03  0.88667645874E+02 0.  0.
          2    1    3    3  502    0 -0.54963855308E+02  0.10417278859E+03  0.32614717735E+03  0.34676357445E+03  0.00000000000E+00 0. -1.
         -2    1    3    3    0  502 -0.14790569643E+03  0.80319230536E+02  0.33435293261E+03  0.37432493555E+03  0.00000000000E+00 0.  1.
         13    1    5    5    0    0 -0.16993089423E+03 -0.34397710088E+03  0.78042214789E+03  0.86962950943E+03  0.00000000000E+00 0.  1.
        -13    1    5    5    0    0 -0.17423748128E+02  0.15858575383E+01  0.32914047256E+02  0.37275145201E+02  0.00000000000E+00 0. -1.
          2    1    6    6  503    0  0.20558403579E+03  0.12026953575E+03  0.14645708139E+03  0.27960549653E+03  0.00000000000E+00 0.  1.
         -2    1    6    6    0  503  0.18464015831E+03  0.37629688468E+02  0.61497997659E+02  0.19821701549E+03  0.00000000000E+00 0. -1.
<mgrwt>
<rscale>  0 0.12672953E+04</rscale>
<asrwt>0</asrwt>
<pdfrwt beam="1">  1        1 0.29135438E+00 0.12672953E+04</pdfrwt>
<pdfrwt beam="2">  1       -1 0.32617254E-01 0.12672953E+04</pdfrwt>
<totfact> 0.30524117E+01</totfact>
</mgrwt>
</event>
<event>
12    3  0.4634846E-008  0.1398901E+04  0.7818608E-02  0.8954615E-01
         -2   -1    0    0    0  501 -0.00000000000E+00  0.00000000000E+00  0.56256944938E+03  0.56256944938E+03  0.00000000000E+00 0.  1.
          2   -1    0    0  501    0  0.00000000000E+00 -0.00000000000E+00 -0.86963647792E+03  0.86963647792E+03  0.00000000000E+00 0. -1.
         23    2    1    2    0    0  0.64471565267E+01  0.39552035344E+03 -0.15710292627E+03  0.43741141967E+03  0.10084396267E+03 0.  0.
        254    2    1    2    0    0 -0.64471565267E+01 -0.39552035344E+03 -0.14996410227E+03  0.99479450763E+03  0.90036046372E+03 0.  0.
         23    2    4    4    0    0 -0.31318161245E+03 -0.15531707880E+03 -0.38543891591E+03  0.53029554664E+03  0.10219633820E+03 0.  0.
         23    2    4    4    0    0  0.30673445592E+03 -0.24020327464E+03  0.23547481364E+03  0.46449896099E+03  0.92343149759E+02 0.  0.
          3    1    3    3  502    0 -0.16373646368E+01  0.21245100364E+03 -0.13761030033E+03  0.25312981782E+03  0.00000000000E+00 0. -1.
         -3    1    3    3    0  502  0.80845211635E+01  0.18306934979E+03 -0.19492625945E+02  0.18428160186E+03  0.00000000000E+00 0.  1.
         13    1    5    5    0    0 -0.13083323575E+03 -0.86648237181E+02 -0.10501006245E+03  0.18881834074E+03  0.00000000000E+00 0.  1.
        -13    1    5    5    0    0 -0.18234837670E+03 -0.68668841616E+02 -0.28042885346E+03  0.34147720590E+03  0.00000000000E+00 0. -1.
          4    1    6    6  503    0  0.20053287367E+03 -0.20723685810E+03  0.18299058225E+03  0.34153492057E+03  0.00000000000E+00 0. -1.
         -4    1    6    6    0  503  0.10620158225E+03 -0.32966416539E+02  0.52484231391E+02  0.12296404042E+03  0.00000000000E+00 0.  1.
<mgrwt>
<rscale>  0 0.13989009E+04</rscale>
<asrwt>0</asrwt>
<pdfrwt beam="1">  1        2 0.13379023E+00 0.13989009E+04</pdfrwt>
<pdfrwt beam="2">  1       -2 0.86549146E-01 0.13989009E+04</pdfrwt>
<totfact> 0.34626912E+01</totfact>
</mgrwt>
</event>
<event>
12    3  0.4634846E-008  0.1601186E+04  0.7818608E-02  0.8819820E-01
         -2   -1    0    0    0  501 -0.00000000000E+00  0.00000000000E+00  0.31995393017E+03  0.31995393017E+03  0.00000000000E+00 0. -1.
          2   -1    0    0  501    0  0.00000000000E+00 -0.00000000000E+00 -0.20032550529E+04  0.20032550529E+04  0.00000000000E+00 0.  1.
         23    2    1    2    0    0 -0.18217712071E+03  0.48291616429E+03 -0.34712320786E+03  0.62896893012E+03  0.93332034002E+02 0.  0.
        254    2    1    2    0    0  0.18217712071E+03 -0.48291616429E+03 -0.13361779149E+04  0.16942400529E+04  0.90481015237E+03 0.  0.
         23    2    4    4    0    0 -0.22015006387E+03  0.10141301703E+03 -0.66264777624E+03  0.71180460632E+03  0.93877961047E+02 0.  0.
         23    2    4    4    0    0  0.40232718457E+03 -0.58432918132E+03 -0.67353013861E+03  0.98243544663E+03  0.90712753198E+02 0.  0.
          2    1    3    3  502    0 -0.13133203295E+03  0.23606382903E+03 -0.14990128921E+03  0.30894114449E+03  0.00000000000E+00 0. -1.
         -2    1    3    3    0  502 -0.50845087763E+02  0.24685233527E+03 -0.19722191865E+03  0.32002778563E+03  0.00000000000E+00 0.  1.
         13    1    5    5    0    0 -0.87590956764E+01 -0.13648089670E+02 -0.21201935705E+02  0.26692961363E+02  0.00000000000E+00 0.  1.
        -13    1    5    5    0    0 -0.21139096819E+03  0.11506110670E+03 -0.64144584054E+03  0.68511164495E+03  0.00000000000E+00 0. -1.
          3    1    6    6  503    0  0.23153254800E+03 -0.38899908314E+03 -0.47104733499E+03  0.65330942077E+03  0.00000000000E+00 0. -1.
         -3    1    6    6    0  503  0.17079463657E+03 -0.19533009818E+03 -0.20248280363E+03  0.32912602586E+03  0.00000000000E+00 0.  1.
<mgrwt>
<rscale>  0 0.16011862E+04</rscale>
<asrwt>0</asrwt>
<pdfrwt beam="1">  1        2 0.30819309E+00 0.16011862E+04</pdfrwt>
<pdfrwt beam="2">  1       -2 0.49223681E-01 0.16011862E+04</pdfrwt>
<totfact> 0.24930849E+01</totfact>
</mgrwt>
</event>
<event>
12    3  0.4634846E-008  0.1616410E+04  0.7818608E-02  0.8810530E-01
         -1   -1    0    0    0  501 -0.00000000000E+00  0.00000000000E+00  0.41409206179E+03  0.41409206179E+03  0.00000000000E+00 0.  1.
          1   -1    0    0  501    0  0.00000000000E+00 -0.00000000000E+00 -0.15774149443E+04  0.15774149443E+04  0.00000000000E+00 0. -1.
         23    2    1    2    0    0 -0.30163372925E+03 -0.43999951318E+03 -0.57822584526E+03  0.79201722246E+03  0.91453126450E+02 0.  0.
        254    2    1    2    0    0  0.30163372925E+03  0.43999951318E+03 -0.58509703724E+03  0.11994897836E+04  0.90102981071E+03 0.  0.
         23    2    4    4    0    0 -0.41719608422E+02  0.32090854203E+03  0.15349233617E+03  0.37115444018E+03  0.97328840147E+02 0.  0.
         23    2    4    4    0    0  0.34335333767E+03  0.11909097115E+03 -0.73858937342E+03  0.82833534344E+03  0.92471643036E+02 0.  0.
          2    1    3    3  502    0 -0.22380508159E+03 -0.28756708723E+03 -0.33771365659E+03  0.49682397089E+03  0.00000000000E+00 0. -1.
         -2    1    3    3    0  502 -0.77828647656E+02 -0.15243242595E+03 -0.24051218866E+03  0.29519325157E+03  0.00000000000E+00 0.  1.
         13    1    5    5    0    0 -0.45033530745E+02  0.20025474662E+03  0.14267313248E+03  0.24997120868E+03  0.00000000000E+00 0.  1.
        -13    1    5    5    0    0  0.33139223232E+01  0.12065379541E+03  0.10819203691E+02  0.12118323150E+03  0.00000000000E+00 0. -1.
          1    1    6    6  503    0  0.13604069847E+03  0.38738463136E+02 -0.39016606122E+03  0.41501481359E+03  0.00000000000E+00 0. -1.
         -1    1    6    6    0  503  0.20731263920E+03  0.80352508011E+02 -0.34842331220E+03  0.41332052985E+03  0.00000000000E+00 0.  1.
<mgrwt>
<rscale>  0 0.16164096E+04</rscale>
<asrwt>0</asrwt>
<pdfrwt beam="1">  1        1 0.24267922E+00 0.16164096E+04</pdfrwt>
<pdfrwt beam="2">  1       -1 0.63706471E-01 0.16164096E+04</pdfrwt>
<totfact> 0.13847891E+01</totfact>
</mgrwt>
</event>
<event>
12    3  0.4634846E-008  0.1711596E+04  0.7818608E-02  0.8754778E-01
         -2   -1    0    0    0  501 -0.00000000000E+00  0.00000000000E+00  0.27456691475E+03  0.27456691475E+03  0.00000000000E+00 0.  1.
          2   -1    0    0  501    0  0.00000000000E+00 -0.00000000000E+00 -0.26674378103E+04  0.26674378103E+04  0.00000000000E+00 0. -1.
         23    2    1    2    0    0  0.58969101417E+02 -0.51029112764E+03 -0.29471805209E+03  0.60223460466E+03  0.10933160091E+03 0.  0.
        254    2    1    2    0    0 -0.58969101417E+02  0.51029112764E+03 -0.20981528435E+04  0.23397701204E+04  0.89911315854E+03 0.  0.
         23    2    4    4    0    0  0.20952692858E+03  0.13495009332E+03 -0.93791996452E+02  0.28078166809E+03  0.89041254765E+02 0.  0.
         23    2    4    4    0    0 -0.26849603000E+03  0.37534103432E+03 -0.20043608470E+04  0.20589884523E+04  0.94868495749E+02 0.  0.
          3    1    3    3  502    0  0.92364681308E+01 -0.29404653255E+03 -0.22260897161E+03  0.36892198348E+03  0.00000000000E+00 0. -1.
         -3    1    3    3    0  502  0.49732633286E+02 -0.21624459509E+03 -0.72109080477E+02  0.23331262119E+03  0.00000000000E+00 0.  1.
         13    1    5    5    0    0  0.27852003750E+01  0.28826593632E+02  0.28470357233E+01  0.29100437350E+02  0.00000000000E+00 0.  1.
        -13    1    5    5    0    0  0.20674172821E+03  0.10612349969E+03 -0.96639032176E+02  0.25168123074E+03  0.00000000000E+00 0. -1.
          1    1    6    6  503    0 -0.14153583231E+03  0.24745279895E+03 -0.13802894266E+04  0.14094198029E+04  0.00000000000E+00 0. -1.
         -1    1    6    6    0  503 -0.12696019769E+03  0.12788823537E+03 -0.62407142041E+03  0.64956864942E+03  0.00000000000E+00 0.  1.
<mgrwt>
<rscale>  0 0.17115959E+04</rscale>
<asrwt>0</asrwt>
<pdfrwt beam="1">  1        2 0.41037505E+00 0.17115959E+04</pdfrwt>
<pdfrwt beam="2">  1       -2 0.42241064E-01 0.17115959E+04</pdfrwt>
<totfact> 0.14056255E+01</totfact>
</mgrwt>
</event>
<event>
12    3  0.4634846E-008  0.1413979E+04  0.7818608E-02  0.8943762E-01
          2   -1    0    0  501    0  0.00000000000E+00  0.00000000000E+00  0.11329023145E+04  0.11329023145E+04  0.00000000000E+00 0. -1.
         -2   -1    0    0    0  501 -0.00000000000E+00 -0.00000000000E+00 -0.44119766259E+03  0.44119766259E+03  0.00000000000E+00 0.  1.
         23    2    1    2    0    0  0.29147902371E+03 -0.26039842228E+03  0.34787048179E+03  0.53156091171E+03  0.93679086064E+02 0.  0.
        254    2    1    2    0    0 -0.29147902371E+03  0.26039842228E+03  0.34383417012E+03  0.10425390654E+04  0.90327094867E+03 0.  0.
         23    2    4    4    0    0 -0.41000407597E+03 -0.22446909482E+03  0.18191722884E+03  0.51021877209E+03  0.93485829976E+02 0.  0.
         23    2    4    4    0    0  0.11852505226E+03  0.48486751710E+03  0.16191694128E+03  0.53232029329E+03  0.89460055989E+02 0.  0.
          4    1    3    3  502    0  0.29191077913E+03 -0.23845909600E+03  0.31105669883E+03  0.48870329785E+03  0.00000000000E+00 0. -1.
         -4    1    3    3    0  502 -0.43175541904E+00 -0.21939326283E+02  0.36813782953E+02  0.42857613861E+02  0.00000000000E+00 0.  1.
         13    1    5    5    0    0 -0.29757253187E+02 -0.26444130242E+02 -0.91521652365E+01  0.40847867386E+02  0.00000000000E+00 0.  1.
        -13    1    5    5    0    0 -0.38024682278E+03 -0.19802496458E+03  0.19106939408E+03  0.46937090471E+03  0.00000000000E+00 0. -1.
          3    1    6    6  503    0  0.10674253129E+03  0.27321762465E+03  0.11596042130E+03  0.31541822666E+03  0.00000000000E+00 0. -1.
         -3    1    6    6    0  503  0.11782520969E+02  0.21164989245E+03  0.45956519982E+02  0.21690206662E+03  0.00000000000E+00 0.  1.
<mgrwt>
<rscale>  0 0.14139786E+04</rscale>
<asrwt>0</asrwt>
<pdfrwt beam="1">  1        2 0.17429266E+00 0.14139786E+04</pdfrwt>
<pdfrwt beam="2">  1       -2 0.67876564E-01 0.14139786E+04</pdfrwt>
<totfact> 0.40201789E+01</totfact>
</mgrwt>
</event>
<event>
12    3  0.4634846E-008  0.2265172E+04  0.7818608E-02  0.8491781E-01
         -1   -1    0    0    0  501 -0.00000000000E+00  0.00000000000E+00  0.35740743982E+03  0.35740743982E+03  0.00000000000E+00 0.  1.
          1   -1    0    0  501    0  0.00000000000E+00 -0.00000000000E+00 -0.35890439573E+04  0.35890439573E+04  0.00000000000E+00 0. -1.
         23    2    1    2    0    0  0.46510575864E+03  0.38691075313E+03 -0.84574566371E+02  0.61725242245E+03  0.88455628048E+02 0.  0.
        254    2    1    2    0    0 -0.46510575864E+03 -0.38691075313E+03 -0.31470619512E+04  0.33291989747E+04  0.90196651335E+03 0.  0.
         23    2    4    4    0    0 -0.53793253072E+01 -0.14508505621E+03 -0.39247938905E+02  0.17695118783E+03  0.93234711830E+02 0.  0.
         23    2    4    4    0    0 -0.45972643333E+03 -0.24182569691E+03 -0.31078140123E+04  0.31522477869E+04  0.91269457940E+02 0.  0.
          4    1    3    3  502    0  0.26514782746E+03  0.22179426623E+03 -0.92388483746E+02  0.35781517418E+03  0.00000000000E+00 0. -1.
         -4    1    3    3    0  502  0.19995793118E+03  0.16511648689E+03  0.78139173755E+01  0.25943724827E+03  0.00000000000E+00 0.  1.
         13    1    5    5    0    0  0.12025393539E+01 -0.15303985676E+03 -0.50990161666E+02  0.16131534473E+03  0.00000000000E+00 0.  1.
        -13    1    5    5    0    0 -0.65818646611E+01  0.79548005485E+01  0.11742222761E+02  0.15635843103E+02  0.00000000000E+00 0. -1.
          3    1    6    6  503    0 -0.69642642358E+02 -0.35508019086E+02 -0.30246748328E+03  0.31240597865E+03  0.00000000000E+00 0. -1.
         -3    1    6    6    0  503 -0.39008379098E+03 -0.20631767783E+03 -0.28053465290E+04  0.28398418082E+04  0.00000000000E+00 0.  1.
<mgrwt>
<rscale>  0 0.22651720E+04</rscale>
<asrwt>0</asrwt>
<pdfrwt beam="1">  1        1 0.55216059E+00 0.22651720E+04</pdfrwt>
<pdfrwt beam="2">  1       -1 0.54985762E-01 0.22651720E+04</pdfrwt>
<totfact> 0.64502731E-01</totfact>
</mgrwt>
</event>
<event>
12    3  0.4634846E-008  0.1430356E+04  0.7818608E-02  0.8932133E-01
          1   -1    0    0  501    0  0.00000000000E+00  0.00000000000E+00  0.38615723269E+03  0.38615723269E+03  0.00000000000E+00 0. -1.
         -1   -1    0    0    0  501 -0.00000000000E+00 -0.00000000000E+00 -0.13245377940E+04  0.13245377940E+04  0.00000000000E+00 0.  1.
         23    2    1    2    0    0 -0.21584734323E+02  0.32145555913E+03  0.46423472561E+02  0.33788847605E+03  0.90630602929E+02 0.  0.
        254    2    1    2    0    0  0.21584734323E+02 -0.32145555913E+03 -0.98480403387E+03  0.13728065506E+04  0.90053276624E+03 0.  0.
         23    2    4    4    0    0  0.41229248706E+03 -0.26144318404E+02 -0.27173006508E+03  0.50288473524E+03  0.91581703412E+02 0.  0.
         23    2    4    4    0    0 -0.39070775274E+03 -0.29531124073E+03 -0.71307396879E+03  0.86992181539E+03  0.91805244809E+02 0.  0.
          4    1    3    3  502    0  0.29668334573E+02  0.13120868284E+03  0.41574361054E+02  0.14079899157E+03  0.00000000000E+00 0. -1.
         -4    1    3    3    0  502 -0.51253068896E+02  0.19024687629E+03  0.48491115075E+01  0.19708948448E+03  0.00000000000E+00 0.  1.
         13    1    5    5    0    0  0.71319528078E+02  0.86920853622E+01 -0.11998682801E+02  0.72842266729E+02  0.00000000000E+00 0. -1.
        -13    1    5    5    0    0  0.34097295898E+03 -0.34836403766E+02 -0.25973138228E+03  0.43004246851E+03  0.00000000000E+00 0.  1.
          1    1    6    6  503    0 -0.33367441649E+02  0.17902507964E+01 -0.42599203401E+02  0.54141327011E+02  0.00000000000E+00 0. -1.
         -1    1    6    6    0  503 -0.35734031109E+03 -0.29710149153E+03 -0.67047476539E+03  0.81578048838E+03  0.00000000000E+00 0.  1.
<mgrwt>
<rscale>  0 0.14303564E+04</rscale>
<asrwt>0</asrwt>
<pdfrwt beam="1">  1        1 0.59408805E-01 0.14303564E+04</pdfrwt>
<pdfrwt beam="2">  1       -1 0.20377505E+00 0.14303564E+04</pdfrwt>
<totfact> 0.86704670E+00</totfact>
</mgrwt>
</event>
<event>
12    3  0.4634846E-008  0.1278268E+04  0.7818608E-02  0.9046978E-01
         -1   -1    0    0    0  501 -0.00000000000E+00  0.00000000000E+00  0.19897858381E+03  0.19897858381E+03  0.00000000000E+00 0.  1.
          1   -1    0    0  501    0  0.00000000000E+00 -0.00000000000E+00 -0.20529471175E+04  0.20529471175E+04  0.00000000000E+00 0. -1.
         23    2    1    2    0    0 -0.22988644151E+03  0.78746591560E+00 -0.81937756533E+03  0.85671783146E+03  0.98678529049E+02 0.  0.
        254    2    1    2    0    0  0.22988644151E+03 -0.78746591560E+00 -0.10345909684E+04  0.13952078699E+04  0.90740185814E+03 0.  0.
         23    2    4    4    0    0  0.24894183881E+03 -0.35582476539E+03 -0.90331477373E+03  0.10062892919E+04  0.89762217514E+02 0.  0.
         23    2    4    4    0    0 -0.19055397299E+02  0.35503729948E+03 -0.13127619465E+03  0.38891857800E+03  0.87233186601E+02 0.  0.
          4    1    3    3  502    0 -0.60635516596E+02 -0.41905288367E+01 -0.39764313317E+03  0.40226146691E+03  0.00000000000E+00 0. -1.
         -4    1    3    3    0  502 -0.16925092491E+03  0.49779947523E+01 -0.42173443216E+03  0.45445636456E+03  0.00000000000E+00 0.  1.
         13    1    5    5    0    0  0.12022308358E+03 -0.24354079733E+03 -0.58749583539E+03  0.64723802916E+03  0.00000000000E+00 0.  1.
        -13    1    5    5    0    0  0.12871875522E+03 -0.11228396806E+03 -0.31581893834E+03  0.35905126270E+03  0.00000000000E+00 0. -1.
          3    1    6    6  503    0 -0.45391564664E+02  0.12310065571E+03 -0.30704625268E+02  0.13474768863E+03  0.00000000000E+00 0. -1.
         -3    1    6    6    0  503  0.26336167365E+02  0.23193664377E+03 -0.10057156938E+03  0.25417088937E+03  0.00000000000E+00 0.  1.
<mgrwt>
<rscale>  0 0.12782684E+04</rscale>
<asrwt>0</asrwt>
<pdfrwt beam="1">  1        1 0.31583801E+00 0.12782684E+04</pdfrwt>
<pdfrwt beam="2">  1       -1 0.30612090E-01 0.12782684E+04</pdfrwt>
<totfact> 0.26628782E+01</totfact>
</mgrwt>
</event>
<event>
12    3  0.4953779E-008  0.2214894E+04  0.7818608E-02  0.8512255E-01
          1   -1    0    0  501    0  0.00000000000E+00  0.00000000000E+00  0.20577502431E+04  0.20577502431E+04  0.00000000000E+00 0. -1.
         -1   -1    0    0    0  501 -0.00000000000E+00 -0.00000000000E+00 -0.59600939709E+03  0.59600939709E+03  0.00000000000E+00 0.  1.
         23    2    1    2    0    0 -0.36715534919E+03 -0.46695259399E+03  0.14635929330E+04  0.15821809345E+04  0.91348018014E+02 0.  0.
        254    2    1    2    0    0  0.36715534919E+03  0.46695259399E+03 -0.18520870560E+01  0.10715787057E+04  0.89186866562E+03 0.  0.
         23    2    4    4    0    0  0.61026018327E+03  0.11658969988E+03  0.56640832472E+02  0.63150145019E+03  0.97853197599E+02 0.  0.
         23    2    4    4    0    0 -0.24310483409E+03  0.35036289411E+03 -0.58492919528E+02  0.44007725546E+03  0.91610322656E+02 0.  0.
          3    1    3    3  502    0 -0.35265381914E+03 -0.40685020336E+03  0.12873261040E+04  0.13953853598E+04  0.00000000000E+00 0. -1.
         -3    1    3    3    0  502 -0.14501530045E+02 -0.60102390623E+02  0.17626682903E+03  0.18679557475E+03  0.00000000000E+00 0.  1.
         13    1    5    5    0    0  0.40538799769E+02  0.36513866825E+00  0.28136418221E+02  0.49347600177E+02  0.00000000000E+00 0.  1.
        -13    1    5    5    0    0  0.56972138350E+03  0.11622456121E+03  0.28504414251E+02  0.58215385001E+03  0.00000000000E+00 0. -1.
          3    1    6    6  503    0 -0.24083246244E+03  0.34644902584E+03 -0.70011229017E+02  0.42770173563E+03  0.00000000000E+00 0. -1.
         -3    1    6    6    0  503 -0.22723716514E+01  0.39138682640E+01  0.11518309489E+02  0.12375519835E+02  0.00000000000E+00 0.  1.
<mgrwt>
<rscale>  0 0.22148937E+04</rscale>
<asrwt>0</asrwt>
<pdfrwt beam="1">  1        1 0.31657696E+00 0.22148937E+04</pdfrwt>
<pdfrwt beam="2">  1       -1 0.91693755E-01 0.22148937E+04</pdfrwt>
<totfact> 0.28728382E+00</totfact>
</mgrwt>
</event>
<event>
12    3  0.4634846E-008  0.1495852E+04  0.7818608E-02  0.8887216E-01
          2   -1    0    0  501    0  0.00000000000E+00  0.00000000000E+00  0.12317780384E+04  0.12317780384E+04  0.00000000000E+00 0. -1.
         -2   -1    0    0    0  501 -0.00000000000E+00 -0.00000000000E+00 -0.45413501686E+03  0.45413501686E+03  0.00000000000E+00 0.  1.
         23    2    1    2    0    0 -0.36242910589E+03 -0.20172812742E+03  0.78308638871E+01  0.42501722259E+03  0.92353791915E+02 0.  0.
        254    2    1    2    0    0  0.36242910589E+03  0.20172812742E+03  0.76981215763E+03  0.12608958327E+04  0.90840434201E+03 0.  0.
         23    2    4    4    0    0  0.45949748307E+02 -0.17362137001E+03 -0.12491238940E+03  0.23628970669E+03  0.89297037840E+02 0.  0.
         23    2    4    4    0    0  0.31647935759E+03  0.37534949743E+03  0.89472454703E+03  0.10246061260E+04  0.90770420899E+02 0.  0.
          2    1    3    3  502    0 -0.27417983117E+03 -0.11018340015E+03  0.25727927255E+02  0.29660898120E+03  0.00000000000E+00 0.  1.
         -2    1    3    3    0  502 -0.88249274723E+02 -0.91544727269E+02 -0.17897063368E+02  0.12840824139E+03  0.00000000000E+00 0. -1.
         13    1    5    5    0    0  0.10621097064E+02 -0.45333734795E+02 -0.85762395366E+02  0.97586595761E+02  0.00000000000E+00 0. -1.
        -13    1    5    5    0    0  0.35328651243E+02 -0.12828763521E+03 -0.39149994034E+02  0.13870311092E+03  0.00000000000E+00 0.  1.
          4    1    6    6  503    0 -0.50509446935E+01  0.14008483939E+02  0.18514969086E+02  0.23760339745E+02  0.00000000000E+00 0. -1.
         -4    1    6    6    0  503  0.32153030228E+03  0.36134101349E+03  0.87620957795E+03  0.10008457862E+04  0.00000000000E+00 0.  1.
<mgrwt>
<rscale>  0 0.14958523E+04</rscale>
<asrwt>0</asrwt>
<pdfrwt beam="1">  1        2 0.18950431E+00 0.14958523E+04</pdfrwt>
<pdfrwt beam="2">  1       -2 0.69866926E-01 0.14958523E+04</pdfrwt>
<totfact> 0.32715531E+01</totfact>
</mgrwt>
</event>
<event>
12    3  0.4634846E-008  0.1205124E+04  0.7818608E-02  0.9108383E-01
         -2   -1    0    0    0  501 -0.00000000000E+00  0.00000000000E+00  0.33592731766E+03  0.33592731766E+03  0.00000000000E+00 0.  1.
          2   -1    0    0  501    0  0.00000000000E+00 -0.00000000000E+00 -0.10808325931E+04  0.10808325931E+04  0.00000000000E+00 0. -1.
         23    2    1    2    0    0  0.35949427292E+02  0.30316756167E+03 -0.83996077125E+01  0.31852464263E+03  0.90468020739E+02 0.  0.
        254    2    1    2    0    0 -0.35949427292E+02 -0.30316756167E+03 -0.73650566768E+03  0.10982352681E+04  0.75529939347E+03 0.  0.
         23    2    4    4    0    0 -0.25244471006E+03 -0.45229297564E+03 -0.39446307881E+03  0.65778376356E+03  0.93707478946E+02 0.  0.
         23    2    4    4    0    0  0.21649528277E+03  0.14912541397E+03 -0.34204258887E+03  0.44045150453E+03  0.88858306792E+02 0.  0.
          3    1    3    3  502    0  0.89067442011E+01  0.39007880538E+02 -0.32976093478E+02  0.51849470368E+02  0.00000000000E+00 0. -1.
         -3    1    3    3    0  502  0.27042683091E+02  0.26415968114E+03  0.24576485765E+02  0.26667517226E+03  0.00000000000E+00 0.  1.
         13    1    5    5    0    0 -0.22528174173E+02 -0.70567235728E+02 -0.96804888956E+02  0.12189520054E+03  0.00000000000E+00 0.  1.
        -13    1    5    5    0    0 -0.22991653589E+03 -0.38172573991E+03 -0.29765818985E+03  0.53588856302E+03  0.00000000000E+00 0. -1.
          4    1    6    6  503    0  0.17194718578E+03  0.10462308885E+03 -0.19389137695E+03  0.27947395491E+03  0.00000000000E+00 0. -1.
         -4    1    6    6    0  503  0.44548096989E+02  0.44502325116E+02 -0.14815121192E+03  0.16097754962E+03  0.00000000000E+00 0.  1.
<mgrwt>
<rscale>  0 0.12051244E+04</rscale>
<asrwt>0</asrwt>
<pdfrwt beam="1">  1        2 0.16628194E+00 0.12051244E+04</pdfrwt>
<pdfrwt beam="2">  1       -2 0.51681126E-01 0.12051244E+04</pdfrwt>
<totfact> 0.78090343E+01</totfact>
</mgrwt>
</event>
<event>
12    3  0.4634846E-008  0.1986137E+04  0.7818608E-02  0.8613129E-01
         -2   -1    0    0    0  501 -0.00000000000E+00  0.00000000000E+00  0.19658632482E+04  0.19658632482E+04  0.00000000000E+00 0.  1.
          2   -1    0    0  501    0  0.00000000000E+00 -0.00000000000E+00 -0.50165518210E+03  0.50165518210E+03  0.00000000000E+00 0. -1.
         23    2    1    2    0    0 -0.23258402734E+03 -0.35561875953E+03 -0.23658100592E+03  0.49453534056E+03  0.89635923578E+02 0.  0.
        254    2    1    2    0    0  0.23258402734E+03  0.35561875953E+03  0.17007890720E+04  0.19729830897E+04  0.90521752801E+03 0.  0.
         23    2    4    4    0    0 -0.30391481123E+02  0.31839164781E+03  0.99848496113E+02  0.34776002162E+03  0.93115127319E+02 0.  0.
         23    2    4    4    0    0  0.26297550846E+03  0.37227111719E+02  0.16009405759E+04  0.16252230681E+04  0.88302421932E+02 0.  0.
          2    1    3    3  502    0 -0.15051891983E+03 -0.28511417834E+03 -0.20407220236E+03  0.38156454722E+03  0.00000000000E+00 0. -1.
         -2    1    3    3    0  502 -0.82065107504E+02 -0.70504581194E+02 -0.32508803556E+02  0.11297079334E+03  0.00000000000E+00 0.  1.
         13    1    5    5    0    0  0.21259848575E+02  0.21506148861E+03  0.49285535515E+02  0.22165849647E+03  0.00000000000E+00 0. -1.
        -13    1    5    5    0    0 -0.51651329698E+02  0.10333015921E+03  0.50562960599E+02  0.12610152515E+03  0.00000000000E+00 0.  1.
          2    1    6    6  503    0  0.13234106597E+03  0.62350989225E+02  0.89008753193E+03  0.90202972129E+03  0.00000000000E+00 0. -1.
         -2    1    6    6    0  503  0.13063444249E+03 -0.25123877506E+02  0.71085304393E+03  0.72319334680E+03  0.00000000000E+00 0.  1.
<mgrwt>
<rscale>  0 0.19861374E+04</rscale>
<asrwt>0</asrwt>
<pdfrwt beam="1">  1        2 0.77177721E-01 0.19861374E+04</pdfrwt>
<pdfrwt beam="2">  1       -2 0.30244050E+00 0.19861374E+04</pdfrwt>
<totfact> 0.17540708E+00</totfact>
</mgrwt>
</event>
<event>
12    3  0.4634846E-008  0.1530168E+04  0.7818608E-02  0.8864636E-01
         -2   -1    0    0    0  501 -0.00000000000E+00  0.00000000000E+00  0.58082348998E+03  0.58082348998E+03  0.00000000000E+00 0.  1.
          2   -1    0    0  501    0  0.00000000000E+00 -0.00000000000E+00 -0.10077987768E+04  0.10077987768E+04  0.00000000000E+00 0. -1.
         23    2    1    2    0    0  0.45697275016E+03 -0.12606163992E+03  0.62925150814E+00  0.48308055755E+03  0.93009664446E+02 0.  0.
        254    2    1    2    0    0 -0.45697275016E+03  0.12606163992E+03 -0.42760453836E+03  0.11055417093E+04  0.90258583983E+03 0.  0.
         23    2    4    4    0    0  0.84147135169E+02  0.38999372169E+03 -0.19832198232E+03  0.45490429096E+03  0.91817547078E+02 0.  0.
         23    2    4    4    0    0 -0.54111988532E+03 -0.26393208177E+03 -0.22928255604E+03  0.65063741831E+03  0.91036726186E+02 0.  0.
          2    1    3    3  502    0  0.81208483713E+02  0.21433170682E+01 -0.25619215962E+02  0.85180724707E+02  0.00000000000E+00 0. -1.
         -2    1    3    3    0  502  0.37576426644E+03 -0.12820495699E+03  0.26248467470E+02  0.39789983284E+03  0.00000000000E+00 0.  1.
         13    1    5    5    0    0  0.55428847208E+02  0.80219964929E+02 -0.59562326001E+02  0.11425966285E+03  0.00000000000E+00 0. -1.
        -13    1    5    5    0    0  0.28718287962E+02  0.30977375676E+03 -0.13875965632E+03  0.34064462811E+03  0.00000000000E+00 0.  1.
          2    1    6    6  503    0 -0.46802335453E+03 -0.23770941801E+03 -0.16627831560E+03  0.55063609220E+03  0.00000000000E+00 0.  1.
         -2    1    6    6    0  503 -0.73096530795E+02 -0.26222663755E+02 -0.63004240444E+02  0.10000132610E+03  0.00000000000E+00 0. -1.
<mgrwt>
<rscale>  0 0.15301676E+04</rscale>
<asrwt>0</asrwt>
<pdfrwt beam="1">  1        2 0.15504596E+00 0.15301676E+04</pdfrwt>
<pdfrwt beam="2">  1       -2 0.89357461E-01 0.15301676E+04</pdfrwt>
<totfact> 0.25795971E+01</totfact>
</mgrwt>
</event>
<event>
12    3  0.4634846E-008  0.1430493E+04  0.7818608E-02  0.8932037E-01
          2   -1    0    0  501    0  0.00000000000E+00  0.00000000000E+00  0.18796818364E+04  0.18796818364E+04  0.00000000000E+00 0. -1.
         -2   -1    0    0    0  501 -0.00000000000E+00 -0.00000000000E+00 -0.27216175494E+03  0.27216175494E+03  0.00000000000E+00 0.  1.
         23    2    1    2    0    0 -0.34375471621E+03 -0.25608265261E+02  0.12029737602E+03  0.38131639761E+03  0.11003475925E+03 0.  0.
        254    2    1    2    0    0  0.34375471621E+03  0.25608265261E+02  0.14872227054E+04  0.17705271937E+04  0.89672296723E+03 0.  0.
         23    2    4    4    0    0  0.22806017622E+03  0.22474795275E+03  0.77974360008E+02  0.33987408474E+03  0.83134267393E+02 0.  0.
         23    2    4    4    0    0  0.11569453999E+03 -0.19913968749E+03  0.14092483454E+04  0.14306531090E+04  0.88008962213E+02 0.  0.
          1    1    3    3  502    0 -0.27176550121E+03  0.65698113536E+00  0.13474290276E+03  0.30333573663E+03  0.00000000000E+00 0. -1.
         -1    1    3    3    0  502 -0.71989214993E+02 -0.26265246397E+02 -0.14445526740E+02  0.77980660977E+02  0.00000000000E+00 0.  1.
         13    1    5    5    0    0  0.34698621765E+02  0.74278602552E+02  0.42388990112E+02  0.92293724772E+02  0.00000000000E+00 0. -1.
        -13    1    5    5    0    0  0.19336155445E+03  0.15046935019E+03  0.35585369896E+02  0.24758035996E+03  0.00000000000E+00 0.  1.
          2    1    6    6  503    0 -0.64381599521E+01 -0.71871964963E+01  0.14161003934E+02  0.17135919277E+02  0.00000000000E+00 0. -1.
         -2    1    6    6    0  503  0.12213269994E+03 -0.19195249099E+03  0.13950873415E+04  0.14135171897E+04  0.00000000000E+00 0.  1.
<mgrwt>
<rscale>  0 0.14304929E+04</rscale>
<asrwt>0</asrwt>
<pdfrwt beam="1">  1        2 0.28918181E+00 0.14304929E+04</pdfrwt>
<pdfrwt beam="2">  1       -2 0.41871040E-01 0.14304929E+04</pdfrwt>
<totfact> 0.40917359E+01</totfact>
</mgrwt>
</event>
<event>
12    3  0.4634846E-008  0.2094467E+04  0.7818608E-02  0.8563684E-01
          1   -1    0    0  501    0  0.00000000000E+00  0.00000000000E+00  0.57670873839E+03  0.57670873839E+03  0.00000000000E+00 0. -1.
         -1   -1    0    0    0  501 -0.00000000000E+00 -0.00000000000E+00 -0.19016504430E+04  0.19016504430E+04  0.00000000000E+00 0.  1.
         23    2    1    2    0    0  0.39354447911E+03 -0.68367807508E+03 -0.17828724426E+03  0.81728083442E+03  0.11776524728E+03 0.  0.
        254    2    1    2    0    0 -0.39354447911E+03  0.68367807508E+03 -0.11466544603E+04  0.16610783470E+04  0.90668178318E+03 0.  0.
         23    2    4    4    0    0 -0.30531789789E+03  0.42960005200E+03 -0.12492741277E+04  0.13589537262E+04  0.91072281319E+02 0.  0.
         23    2    4    4    0    0 -0.88226581217E+02  0.25407802308E+03  0.10261966731E+03  0.30212462078E+03  0.91700157665E+02 0.  0.
          1    1    3    3  502    0  0.31028927402E+03 -0.60806061635E+03 -0.17515780427E+03  0.70476762349E+03  0.00000000000E+00 0. -1.
         -1    1    3    3    0  502  0.83255205089E+02 -0.75617458737E+02 -0.31294399881E+01  0.11251321094E+03  0.00000000000E+00 0.  1.
         13    1    5    5    0    0 -0.65147401092E+02  0.13345907502E+03 -0.43925711176E+03  0.46368342520E+03  0.00000000000E+00 0. -1.
        -13    1    5    5    0    0 -0.24017049680E+03  0.29614097698E+03 -0.81001701589E+03  0.89527030098E+03  0.00000000000E+00 0.  1.
          1    1    6    6  503    0 -0.93491059613E+02  0.19198014298E+03  0.47115468182E+02  0.21867057614E+03  0.00000000000E+00 0. -1.
         -1    1    6    6    0  503  0.52644783961E+01  0.62097880096E+02  0.55504199132E+02  0.83454044639E+02  0.00000000000E+00 0.  1.
<mgrwt>
<rscale>  0 0.20944674E+04</rscale>
<asrwt>0</asrwt>
<pdfrwt beam="1">  1        1 0.88724421E-01 0.20944674E+04</pdfrwt>
<pdfrwt beam="2">  1       -1 0.29256161E+00 0.20944674E+04</pdfrwt>
<totfact> 0.12316650E+00</totfact>
</mgrwt>
</event>
<event>
12    3  0.4634846E-008  0.1871680E+04  0.7818608E-02  0.8669083E-01
         -1   -1    0    0    0  501 -0.00000000000E+00  0.00000000000E+00  0.79479895506E+03  0.79479895506E+03  0.00000000000E+00 0.  1.
          1   -1    0    0  501    0  0.00000000000E+00 -0.00000000000E+00 -0.11019092499E+04  0.11019092499E+04  0.00000000000E+00 0. -1.
         23    2    1    2    0    0 -0.31275258894E+03  0.49201236586E+03  0.33248926745E+03  0.67792695032E+03  0.95632039366E+02 0.  0.
        254    2    1    2    0    0  0.31275258894E+03 -0.49201236586E+03 -0.63959956224E+03  0.12187812546E+04  0.85816653191E+03 0.  0.
         23    2    4    4    0    0  0.11822343404E+03 -0.15477238563E+03  0.19707607967E+03  0.29179584625E+03  0.91512638473E+02 0.  0.
         23    2    4    4    0    0  0.19452915489E+03 -0.33723998023E+03 -0.83667564191E+03  0.92698540835E+03  0.87769135549E+02 0.  0.
          2    1    3    3  502    0 -0.13337438971E+02 -0.36647155088E+00  0.16570785154E+01  0.13444980064E+02  0.00000000000E+00 0. -1.
         -2    1    3    3    0  502 -0.29941514997E+03  0.49237883741E+03  0.33083218893E+03  0.66448197025E+03  0.00000000000E+00 0.  1.
         13    1    5    5    0    0  0.67925516240E+02 -0.11384478152E+03  0.18209868764E+03  0.22524307331E+03  0.00000000000E+00 0.  1.
        -13    1    5    5    0    0  0.50297917804E+02 -0.40927604105E+02  0.14977392030E+02  0.66552772934E+02  0.00000000000E+00 0. -1.
          3    1    6    6  503    0  0.69638904550E+02 -0.75529156655E+02 -0.29807370343E+03  0.31528108603E+03  0.00000000000E+00 0. -1.
         -3    1    6    6    0  503  0.12489025034E+03 -0.26171082358E+03 -0.53860193848E+03  0.61170432232E+03  0.00000000000E+00 0.  1.
<mgrwt>
<rscale>  0 0.18716798E+04</rscale>
<asrwt>0</asrwt>
<pdfrwt beam="1">  1        1 0.16952450E+00 0.18716798E+04</pdfrwt>
<pdfrwt beam="2">  1       -1 0.12227676E+00 0.18716798E+04</pdfrwt>
<totfact> 0.70061709E+00</totfact>
</mgrwt>
</event>
<event>
12    3  0.4634846E-008  0.2611547E+04  0.7818608E-02  0.8364290E-01
          2   -1    0    0  501    0  0.00000000000E+00  0.00000000000E+00  0.16430070979E+04  0.16430070979E+04  0.00000000000E+00 0. -1.
         -2   -1    0    0    0  501 -0.00000000000E+00 -0.00000000000E+00 -0.10377583275E+04  0.10377583275E+04  0.00000000000E+00 0.  1.
         23    2    1    2    0    0 -0.35675563579E+03 -0.60250030414E+03  0.12023908502E+04  0.13943531719E+04  0.90530718328E+02 0.  0.
        254    2    1    2    0    0  0.35675563579E+03  0.60250030414E+03 -0.59714207991E+03  0.12864122536E+04  0.89888632338E+03 0.  0.
         23    2    4    4    0    0 -0.13290201976E+03 -0.34893005853E+02  0.12146316932E+03  0.20444709274E+03  0.90359523661E+02 0.  0.
         23    2    4    4    0    0  0.48965765554E+03  0.63739330999E+03 -0.71860524923E+03  0.10819651608E+04  0.90665615081E+02 0.  0.
          3    1    3    3  502    0 -0.21257623783E+03 -0.38334768836E+03  0.83296932213E+03  0.94126616781E+03  0.00000000000E+00 0. -1.
         -3    1    3    3    0  502 -0.14417939796E+03 -0.21915261578E+03  0.36942152811E+03  0.45308700404E+03  0.00000000000E+00 0.  1.
         13    1    5    5    0    0  0.64078607470E+00  0.16046504723E+02  0.32068832918E+02  0.35865177615E+02  0.00000000000E+00 0.  1.
        -13    1    5    5    0    0 -0.13354280583E+03 -0.50939510576E+02  0.89394336402E+02  0.16858191513E+03  0.00000000000E+00 0. -1.
          2    1    6    6  503    0  0.13697500685E+03  0.12098691055E+03 -0.14331879454E+03  0.23225042927E+03  0.00000000000E+00 0. -1.
         -2    1    6    6    0  503  0.35268264869E+03  0.51640639944E+03 -0.57528645469E+03  0.84971473155E+03  0.00000000000E+00 0.  1.
<mgrwt>
<rscale>  0 0.26115469E+04</rscale>
<asrwt>0</asrwt>
<pdfrwt beam="1">  1        2 0.25277032E+00 0.26115469E+04</pdfrwt>
<pdfrwt beam="2">  1       -2 0.15965513E+00 0.26115469E+04</pdfrwt>
<totfact> 0.23629690E+00</totfact>
</mgrwt>
</event>
<event>
12    3  0.4634846E-008  0.2623134E+04  0.7818608E-02  0.8360385E-01
         -1   -1    0    0    0  501 -0.00000000000E+00  0.00000000000E+00  0.15072813417E+04  0.15072813417E+04  0.00000000000E+00 0.  1.
          1   -1    0    0  501    0  0.00000000000E+00 -0.00000000000E+00 -0.11412652405E+04  0.11412652405E+04  0.00000000000E+00 0. -1.
         23    2    1    2    0    0  0.35291240147E+03 -0.10317847565E+04 -0.25026130733E+03  0.11224353193E+04  0.90018760324E+02 0.  0.
        254    2    1    2    0    0 -0.35291240147E+03  0.10317847565E+04  0.61627740848E+03  0.15261112628E+04  0.87183186191E+03 0.  0.
         23    2    4    4    0    0 -0.40930408144E+03  0.10824895646E+04  0.72316202072E+03  0.13672918307E+04  0.84912621996E+02 0.  0.
         23    2    4    4    0    0  0.56391679973E+02 -0.50704808098E+02 -0.10688461224E+03  0.15881943218E+03  0.89712276580E+02 0.  0.
          4    1    3    3  502    0  0.24130048204E+02 -0.13220654965E+03 -0.53542395605E+02  0.14466381415E+03  0.00000000000E+00 0. -1.
         -4    1    3    3    0  502  0.32878235327E+03 -0.89957820688E+03 -0.19671891172E+03  0.97777150518E+03  0.00000000000E+00 0.  1.
         13    1    5    5    0    0 -0.31351512953E+03  0.73272085849E+03  0.51996949817E+03  0.95159858761E+03  0.00000000000E+00 0.  1.
        -13    1    5    5    0    0 -0.95788951911E+02  0.34976870613E+03  0.20319252255E+03  0.41569324305E+03  0.00000000000E+00 0. -1.
          1    1    6    6  503    0  0.66055520211E+02 -0.60316139756E+02 -0.54622494878E+02  0.10480928114E+03  0.00000000000E+00 0. -1.
         -1    1    6    6    0  503 -0.96638402380E+01  0.96113316587E+01 -0.52262117363E+02  0.54010151043E+02  0.00000000000E+00 0.  1.
<mgrwt>
<rscale>  0 0.26231339E+04</rscale>
<asrwt>0</asrwt>
<pdfrwt beam="1">  1        1 0.17557927E+00 0.26231339E+04</pdfrwt>
<pdfrwt beam="2">  1       -1 0.23188944E+00 0.26231339E+04</pdfrwt>
<totfact> 0.95177661E-01</totfact>
</mgrwt>
</event>
<event>
12    3  0.4634846E-008  0.1164877E+04  0.7818608E-02  0.9144168E-01
         -2   -1    0    0    0  501 -0.00000000000E+00  0.00000000000E+00  0.15173778160E+03  0.15173778160E+03  0.00000000000E+00 0.  1.
          2   -1    0    0  501    0  0.00000000000E+00 -0.00000000000E+00 -0.22356635401E+04  0.22356635401E+04  0.00000000000E+00 0. -1.
         23    2    1    2    0    0  0.82296977935E+02 -0.22595207699E+03 -0.13820753554E+03  0.29324099058E+03  0.95193602729E+02 0.  0.
        254    2    1    2    0    0 -0.82296977935E+02  0.22595207699E+03 -0.19457182230E+04  0.20941603311E+04  0.73611205369E+03 0.  0.
         23    2    4    4    0    0 -0.22319909544E+03  0.65926658297E+02 -0.18063451930E+04  0.18239219815E+04  0.98205283817E+02 0.  0.
         23    2    4    4    0    0  0.14090211750E+03  0.16002541870E+03 -0.13937302999E+03  0.27023834967E+03  0.90235152777E+02 0.  0.
          1    1    3    3  502    0 -0.13603322824E+02 -0.78840288950E+02 -0.64595042018E+02  0.10282684964E+03  0.00000000000E+00 0. -1.
         -1    1    3    3    0  502  0.95900300759E+02 -0.14711178804E+03 -0.73612493524E+02  0.19041414094E+03  0.00000000000E+00 0.  1.
         13    1    5    5    0    0 -0.40422832281E+01 -0.15270768370E+02 -0.61614363520E+02  0.63607123911E+02  0.00000000000E+00 0. -1.
        -13    1    5    5    0    0 -0.21915681221E+03  0.81197426667E+02 -0.17447308295E+04  0.17603148576E+04  0.00000000000E+00 0.  1.
          4    1    6    6  503    0  0.14596932236E+03  0.15360356049E+03 -0.10803465730E+03  0.23784991916E+03  0.00000000000E+00 0.  1.
         -4    1    6    6    0  503 -0.50672048571E+01  0.64218582047E+01 -0.31338372693E+02  0.32388430510E+02  0.00000000000E+00 0. -1.
<mgrwt>
<rscale>  0 0.11648770E+04</rscale>
<asrwt>0</asrwt>
<pdfrwt beam="1">  1        2 0.34394821E+00 0.11648770E+04</pdfrwt>
<pdfrwt beam="2">  1       -2 0.23344276E-01 0.11648770E+04</pdfrwt>
<totfact> 0.79467639E+01</totfact>
</mgrwt>
</event>
<event>
12    3  0.4634846E-008  0.1431963E+04  0.7818608E-02  0.8931002E-01
          2   -1    0    0  501    0  0.00000000000E+00  0.00000000000E+00  0.10268490491E+04  0.10268490491E+04  0.00000000000E+00 0. -1.
         -2   -1    0    0    0  501 -0.00000000000E+00 -0.00000000000E+00 -0.49922582901E+03  0.49922582901E+03  0.00000000000E+00 0.  1.
         23    2    1    2    0    0 -0.41749338217E+03  0.24718875421E+02  0.93611911153E+02  0.43793084368E+03  0.90047137521E+02 0.  0.
        254    2    1    2    0    0  0.41749338217E+03 -0.24718875421E+02  0.43401130891E+03  0.10881440344E+04  0.90596902619E+03 0.  0.
         23    2    4    4    0    0 -0.27129217206E+03  0.63913982306E+02  0.17682013505E+03  0.34215586198E+03  0.90115669934E+02 0.  0.
         23    2    4    4    0    0  0.68878555423E+03 -0.88632857727E+02  0.25719117386E+03  0.74598817244E+03  0.89831677690E+02 0.  0.
          2    1    3    3  502    0 -0.18708680984E+03  0.38570502197E+02  0.78790972202E+02  0.20663294838E+03  0.00000000000E+00 0. -1.
         -2    1    3    3    0  502 -0.23040657233E+03 -0.13851626776E+02  0.14820938951E+02  0.23129789529E+03  0.00000000000E+00 0.  1.
         13    1    5    5    0    0 -0.36418457695E+02  0.27907092331E+02  0.64949561946E+02  0.79520786341E+02  0.00000000000E+00 0. -1.
        -13    1    5    5    0    0 -0.23487371437E+03  0.36006889974E+02  0.11187057311E+03  0.26263507564E+03  0.00000000000E+00 0.  1.
          1    1    6    6  503    0  0.22923760473E+03 -0.69479476929E+02  0.10474240146E+03  0.26143497815E+03  0.00000000000E+00 0. -1.
         -1    1    6    6    0  503  0.45954794950E+03 -0.19153380798E+02  0.15244877240E+03  0.48455319429E+03  0.00000000000E+00 0.  1.
<mgrwt>
<rscale>  0 0.14319631E+04</rscale>
<asrwt>0</asrwt>
<pdfrwt beam="1">  1        2 0.15797678E+00 0.14319631E+04</pdfrwt>
<pdfrwt beam="2">  1       -2 0.76803974E-01 0.14319631E+04</pdfrwt>
<totfact> 0.35616744E+01</totfact>
</mgrwt>
</event>
<event>
12    3  0.4634846E-008  0.1213212E+04  0.7818608E-02  0.9101370E-01
          3   -1    0    0  501    0  0.00000000000E+00  0.00000000000E+00  0.33298134389E+03  0.33298134389E+03  0.00000000000E+00 0. -1.
         -3   -1    0    0    0  501 -0.00000000000E+00 -0.00000000000E+00 -0.11050799571E+04  0.11050799571E+04  0.00000000000E+00 0.  1.
         23    2    1    2    0    0 -0.20855374389E+03 -0.29036254515E+02  0.87789421168E+01  0.22983810976E+03  0.91709970595E+02 0.  0.
        254    2    1    2    0    0  0.20855374389E+03  0.29036254515E+02 -0.78087755537E+03  0.12082231913E+04  0.89760556776E+03 0.  0.
         23    2    4    4    0    0  0.40244798151E+01  0.48827387018E+02  0.18720766993E+03  0.21443498350E+03  0.92386905503E+02 0.  0.
         23    2    4    4    0    0  0.20452926407E+03 -0.19791132503E+02 -0.96808522530E+03  0.99378820777E+03  0.90565388864E+02 0.  0.
          2    1    3    3  502    0 -0.15957826609E+03 -0.48843671015E+02  0.35523566718E+02  0.17062488388E+03  0.00000000000E+00 0. -1.
         -2    1    3    3    0  502 -0.48975477802E+02  0.19807416500E+02 -0.26744624601E+02  0.59213225883E+02  0.00000000000E+00 0.  1.
         13    1    5    5    0    0 -0.17156257050E+02  0.13243829674E+02 -0.10283930813E+01  0.21697782669E+02  0.00000000000E+00 0. -1.
        -13    1    5    5    0    0  0.21180736865E+02  0.35583557344E+02  0.18823606301E+03  0.19273720083E+03  0.00000000000E+00 0.  1.
          4    1    6    6  503    0  0.22975102715E+02 -0.33862126673E+02 -0.22696071855E+03  0.23062017850E+03  0.00000000000E+00 0. -1.
         -4    1    6    6    0  503  0.18155416136E+03  0.14070994170E+02 -0.74112450676E+03  0.76316802927E+03  0.00000000000E+00 0.  1.
<mgrwt>
<rscale>  0 0.12132123E+04</rscale>
<asrwt>0</asrwt>
<pdfrwt beam="1">  1        3 0.51227898E-01 0.12132123E+04</pdfrwt>
<pdfrwt beam="2">  1       -3 0.17001230E+00 0.12132123E+04</pdfrwt>
<totfact> 0.22560395E+00</totfact>
</mgrwt>
</event>
<event>
12    3  0.4634846E-008  0.1294472E+04  0.7818608E-02  0.9033961E-01
         -1   -1    0    0    0  501 -0.00000000000E+00  0.00000000000E+00  0.56682166912E+03  0.56682166912E+03  0.00000000000E+00 0.  1.
          1   -1    0    0  501    0  0.00000000000E+00 -0.00000000000E+00 -0.73905820539E+03  0.73905820539E+03  0.00000000000E+00 0. -1.
         23    2    1    2    0    0 -0.12890673477E+03 -0.21237209652E+02  0.25353403141E+03  0.29956134205E+03  0.91594362411E+02 0.  0.
        254    2    1    2    0    0  0.12890673477E+03  0.21237209652E+02 -0.42577056768E+03  0.10063185325E+04  0.90240148887E+03 0.  0.
         23    2    4    4    0    0  0.41351223075E+03  0.17091510877E+03 -0.48596809161E+03  0.66672615672E+03  0.90301952381E+02 0.  0.
         23    2    4    4    0    0 -0.28460549598E+03 -0.14967789912E+03  0.60197523936E+02  0.33959237574E+03  0.91079514415E+02 0.  0.
          3    1    3    3  502    0 -0.17112893303E+01  0.19746451125E+02  0.68540745111E+02  0.71349033515E+02  0.00000000000E+00 0. -1.
         -3    1    3    3    0  502 -0.12719544544E+03 -0.40983660777E+02  0.18499328630E+03  0.22821230854E+03  0.00000000000E+00 0.  1.
         13    1    5    5    0    0  0.37781103661E+03  0.13902402745E+03 -0.39536370221E+03  0.56425288357E+03  0.00000000000E+00 0.  1.
        -13    1    5    5    0    0  0.35701194140E+02  0.31891081324E+02 -0.90604389406E+02  0.10247327315E+03  0.00000000000E+00 0. -1.
          1    1    6    6  503    0 -0.14600479354E+03 -0.72447362327E+02  0.76577549412E+02  0.18008370586E+03  0.00000000000E+00 0. -1.
         -1    1    6    6    0  503 -0.13860070244E+03 -0.77230536791E+02 -0.16380025477E+02  0.15950866987E+03  0.00000000000E+00 0.  1.
<mgrwt>
<rscale>  0 0.12944716E+04</rscale>
<asrwt>0</asrwt>
<pdfrwt beam="1">  1        1 0.11370126E+00 0.12944716E+04</pdfrwt>
<pdfrwt beam="2">  1       -1 0.87203334E-01 0.12944716E+04</pdfrwt>
<totfact> 0.31909282E+01</totfact>
</mgrwt>
</event>
<event>
12    3  0.4634846E-008  0.3681509E+04  0.7818608E-02  0.8072072E-01
          1   -1    0    0  501    0  0.00000000000E+00  0.00000000000E+00  0.20342905755E+04  0.20342905755E+04  0.00000000000E+00 0. -1.
         -1   -1    0    0    0  501 -0.00000000000E+00 -0.00000000000E+00 -0.16656304207E+04  0.16656304207E+04  0.00000000000E+00 0.  1.
         23    2    1    2    0    0  0.27648806335E+03  0.17047847179E+04  0.60040741594E+02  0.17307153080E+04  0.95047374564E+02 0.  0.
        254    2    1    2    0    0 -0.27648806335E+03 -0.17047847179E+04  0.30861941323E+03  0.19692056881E+04  0.89430896033E+03 0.  0.
         23    2    4    4    0    0  0.77931099510E+02  0.13740710909E+02 -0.10945345790E+03  0.16288670556E+03  0.91049195468E+02 0.  0.
         23    2    4    4    0    0 -0.35441916286E+03 -0.17185254288E+04  0.41807287113E+03  0.18063189826E+04  0.95187966160E+02 0.  0.
          1    1    3    3  502    0  0.28413116675E+03  0.16565977520E+04  0.55312577501E+02  0.16816973904E+04  0.00000000000E+00 0. -1.
         -1    1    3    3    0  502 -0.76431033966E+01  0.48186965888E+02  0.47281640931E+01  0.49017917609E+02  0.00000000000E+00 0.  1.
         13    1    5    5    0    0  0.74591240449E+02 -0.76831681849E+01 -0.11780968620E+03  0.13964958428E+03  0.00000000000E+00 0.  1.
        -13    1    5    5    0    0  0.33398590604E+01  0.21423879093E+02  0.83562283081E+01  0.23237121282E+02  0.00000000000E+00 0. -1.
          4    1    6    6  503    0 -0.16624265060E+01 -0.17566416472E+02 -0.50986713044E+01  0.18366793369E+02  0.00000000000E+00 0. -1.
         -4    1    6    6    0  503 -0.35275673636E+03 -0.17009590123E+04  0.42317154243E+03  0.17879521892E+04  0.00000000000E+00 0.  1.
<mgrwt>
<rscale>  0 0.36815085E+04</rscale>
<asrwt>0</asrwt>
<pdfrwt beam="1">  1        1 0.31296778E+00 0.36815085E+04</pdfrwt>
<pdfrwt beam="2">  1       -1 0.25625084E+00 0.36815085E+04</pdfrwt>
<totfact> 0.14406117E-01</totfact>
</mgrwt>
</event>
<event>
12    3  0.4634846E-008  0.2226303E+04  0.7818608E-02  0.8507559E-01
         -2   -1    0    0    0  501 -0.00000000000E+00  0.00000000000E+00  0.48289457266E+03  0.48289457266E+03  0.00000000000E+00 0.  1.
          2   -1    0    0  501    0  0.00000000000E+00 -0.00000000000E+00 -0.25659966283E+04  0.25659966283E+04  0.00000000000E+00 0. -1.
         23    2    1    2    0    0 -0.84757978336E+03 -0.36457411637E+03 -0.59716234974E+03  0.11027793015E+04  0.90628584900E+02 0.  0.
        254    2    1    2    0    0  0.84757978336E+03  0.36457411637E+03 -0.14859397059E+04  0.19461118995E+04  0.85324611931E+03 0.  0.
         23    2    4    4    0    0  0.10002539441E+04  0.38286647824E+03 -0.13243225022E+04  0.17055464003E+04  0.89239794872E+02 0.  0.
         23    2    4    4    0    0 -0.15267416070E+03 -0.18292361867E+02 -0.16161720370E+03  0.24056549915E+03  0.90042373355E+02 0.  0.
          1    1    3    3  502    0 -0.19452374539E+03 -0.11336035771E+03 -0.17910070344E+03  0.28769275311E+03  0.00000000000E+00 0. -1.
         -1    1    3    3    0  502 -0.65305603798E+03 -0.25121375866E+03 -0.41806164630E+03  0.81508654840E+03  0.00000000000E+00 0.  1.
         13    1    5    5    0    0  0.41240141758E+03  0.12209951890E+03 -0.57593066411E+03  0.71880411212E+03  0.00000000000E+00 0. -1.
        -13    1    5    5    0    0  0.58785252649E+03  0.26076695934E+03 -0.74839183812E+03  0.98674228821E+03  0.00000000000E+00 0.  1.
          2    1    6    6  503    0  0.18979012222E+01  0.14594664945E+02 -0.35327993441E+02  0.38271051651E+02  0.00000000000E+00 0. -1.
         -2    1    6    6    0  503 -0.15457206192E+03 -0.32887026812E+02 -0.12628921026E+03  0.20229444750E+03  0.00000000000E+00 0.  1.
<mgrwt>
<rscale>  0 0.22263026E+04</rscale>
<asrwt>0</asrwt>
<pdfrwt beam="1">  1        2 0.39476872E+00 0.22263026E+04</pdfrwt>
<pdfrwt beam="2">  1       -2 0.74291471E-01 0.22263026E+04</pdfrwt>
<totfact> 0.47397258E+00</totfact>
</mgrwt>
</event>
<event>
12    3  0.4634846E-008  0.2806140E+04  0.7818608E-02  0.8301365E-01
          1   -1    0    0  501    0  0.00000000000E+00  0.00000000000E+00  0.14122226367E+04  0.14122226367E+04  0.00000000000E+00 0. -1.
         -1   -1    0    0    0  501 -0.00000000000E+00 -0.00000000000E+00 -0.13939766746E+04  0.13939766746E+04  0.00000000000E+00 0.  1.
         23    2    1    2    0    0  0.51964522550E+03 -0.41508674966E+03 -0.10562880505E+04  0.12515825736E+04  0.91576868047E+02 0.  0.
        254    2    1    2    0    0 -0.51964522550E+03  0.41508674966E+03  0.10745340126E+04  0.15546167377E+04  0.90547318381E+03 0.  0.
         23    2    4    4    0    0 -0.65296977989E+03  0.25786475475E+03  0.11190966929E+04  0.13244944420E+04  0.95101807505E+02 0.  0.
         23    2    4    4    0    0  0.13332455439E+03  0.15722199491E+03 -0.44562680220E+02  0.23012229565E+03  0.92066530276E+02 0.  0.
          2    1    3    3  502    0  0.65418553197E+02 -0.20466066874E+02 -0.13120412966E+03  0.14803030310E+03  0.00000000000E+00 0. -1.
         -2    1    3    3    0  502  0.45422667230E+03 -0.39462068279E+03 -0.92508392088E+03  0.11035522705E+04  0.00000000000E+00 0.  1.
         13    1    5    5    0    0 -0.32132593156E+03  0.13141612441E+03  0.64201070426E+03  0.72986183379E+03  0.00000000000E+00 0.  1.
        -13    1    5    5    0    0 -0.33164384834E+03  0.12644863033E+03  0.47708598861E+03  0.59463260824E+03  0.00000000000E+00 0. -1.
          4    1    6    6  503    0  0.66210468030E+02  0.30882981695E+02  0.15969881234E+02  0.74783833425E+02  0.00000000000E+00 0. -1.
         -4    1    6    6    0  503  0.67114086360E+02  0.12633901322E+03 -0.60532561454E+02  0.15533846222E+03  0.00000000000E+00 0.  1.
<mgrwt>
<rscale>  0 0.28061400E+04</rscale>
<asrwt>0</asrwt>
<pdfrwt beam="1">  1        1 0.21726502E+00 0.28061400E+04</pdfrwt>
<pdfrwt beam="2">  1       -1 0.21445795E+00 0.28061400E+04</pdfrwt>
<totfact> 0.78161730E-01</totfact>
</mgrwt>
</event>
<event>
12    3  0.4634846E-008  0.1083646E+04  0.7818608E-02  0.9221280E-01
         -2   -1    0    0    0  501 -0.00000000000E+00  0.00000000000E+00  0.23456768262E+03  0.23456768262E+03  0.00000000000E+00 0.  1.
          2   -1    0    0  501    0  0.00000000000E+00 -0.00000000000E+00 -0.12515448922E+04  0.12515448922E+04  0.00000000000E+00 0. -1.
         23    2    1    2    0    0  0.62111478927E+01  0.42442961699E+02  0.29385960267E+02  0.10936371242E+03  0.96212803608E+02 0.  0.
        254    2    1    2    0    0 -0.62111478927E+01 -0.42442961699E+02 -0.10463631698E+04  0.13767488624E+04  0.89371223754E+03 0.  0.
         23    2    4    4    0    0  0.16620425117E+03  0.37851365943E+03 -0.40942460430E+03  0.58922820994E+03  0.93085623536E+02 0.  0.
         23    2    4    4    0    0 -0.17241539906E+03 -0.42095662113E+03 -0.63693856552E+03  0.78752065242E+03  0.86985602464E+02 0.  0.
          3    1    3    3  502    0 -0.36049925482E+02 -0.86667108643E+01  0.63939572708E+00  0.37082581239E+02  0.00000000000E+00 0. -1.
         -3    1    3    3    0  502  0.42261073375E+02  0.51109672563E+02  0.28746564540E+02  0.72281131183E+02  0.00000000000E+00 0.  1.
         13    1    5    5    0    0  0.58085834768E+01  0.80095714974E+02 -0.46722294235E+02  0.92908750814E+02  0.00000000000E+00 0.  1.
        -13    1    5    5    0    0  0.16039566769E+03  0.29841794446E+03 -0.36270231006E+03  0.49631945913E+03  0.00000000000E+00 0. -1.
          4    1    6    6  503    0 -0.14573964873E+03 -0.40807637022E+03 -0.60156928418E+03  0.74138517170E+03  0.00000000000E+00 0. -1.
         -4    1    6    6    0  503 -0.26675750325E+02 -0.12880250907E+02 -0.35369281345E+02  0.46135480724E+02  0.00000000000E+00 0.  1.
<mgrwt>
<rscale>  0 0.10836457E+04</rscale>
<asrwt>0</asrwt>
<pdfrwt beam="1">  1        2 0.19254537E+00 0.10836457E+04</pdfrwt>
<pdfrwt beam="2">  1       -2 0.36087336E-01 0.10836457E+04</pdfrwt>
<totfact> 0.12658624E+02</totfact>
</mgrwt>
</event>
<event>
12    3  0.4634846E-008  0.1667258E+04  0.7818608E-02  0.8780262E-01
          1   -1    0    0  501    0  0.00000000000E+00  0.00000000000E+00  0.76212642662E+03  0.76212642662E+03  0.00000000000E+00 0. -1.
         -1   -1    0    0    0  501 -0.00000000000E+00 -0.00000000000E+00 -0.91184011652E+03  0.91184011652E+03  0.00000000000E+00 0.  1.
         23    2    1    2    0    0 -0.49077037693E+03 -0.32986423606E+03 -0.87090129729E+02  0.60442931203E+03  0.89911764820E+02 0.  0.
        254    2    1    2    0    0  0.49077037693E+03  0.32986423606E+03 -0.62623560167E+02  0.10695372311E+04  0.88900067566E+03 0.  0.
         23    2    4    4    0    0  0.68021041011E+03  0.14448344299E+03 -0.23668865967E+03  0.74020987922E+03  0.91255007280E+02 0.  0.
         23    2    4    4    0    0 -0.18944003319E+03  0.18538079306E+03  0.17406509950E+03  0.32932735188E+03  0.88906024683E+02 0.  0.
          3    1    3    3  502    0 -0.36667110183E+03 -0.21665825411E+03 -0.29749008488E+02  0.42693500617E+03  0.00000000000E+00 0. -1.
         -3    1    3    3    0  502 -0.12409927510E+03 -0.11320598195E+03 -0.57341121241E+02  0.17749430586E+03  0.00000000000E+00 0.  1.
         13    1    5    5    0    0  0.27230475095E+03  0.10380152685E+03 -0.98763864594E+02  0.30769942365E+03  0.00000000000E+00 0.  1.
        -13    1    5    5    0    0  0.40790565917E+03  0.40681916141E+02 -0.13792479507E+03  0.43251045557E+03  0.00000000000E+00 0. -1.
          4    1    6    6  503    0 -0.15973601532E+03  0.18347379351E+03  0.17479670368E+03  0.29955319246E+03  0.00000000000E+00 0. -1.
         -4    1    6    6    0  503 -0.29704017865E+02  0.19069995510E+01 -0.73160418196E+00  0.29774159422E+02  0.00000000000E+00 0.  1.
<mgrwt>
<rscale>  0 0.16672582E+04</rscale>
<asrwt>0</asrwt>
<pdfrwt beam="1">  1        1 0.11725022E+00 0.16672582E+04</pdfrwt>
<pdfrwt beam="2">  1       -1 0.14028310E+00 0.16672582E+04</pdfrwt>
<totfact> 0.95037563E+00</totfact>
</mgrwt>
</event>
<event>
12    3  0.4634846E-008  0.1235286E+04  0.7818608E-02  0.9082519E-01
          2   -1    0    0  501    0  0.00000000000E+00  0.00000000000E+00  0.10974650056E+04  0.10974650056E+04  0.00000000000E+00 0.  1.
         -2   -1    0    0    0  501 -0.00000000000E+00 -0.00000000000E+00 -0.34760361234E+03  0.34760361234E+03  0.00000000000E+00 0. -1.
         23    2    1    2    0    0 -0.19454896116E+03 -0.70853274651E+02  0.33802849732E+03  0.40638653213E+03  0.89539173968E+02 0.  0.
        254    2    1    2    0    0  0.19454896116E+03  0.70853274651E+02  0.41183289595E+03  0.10386820858E+04  0.93079786013E+03 0.  0.
         23    2    4    4    0    0 -0.83204677581E+02  0.45455745917E+03  0.20759929715E+03  0.51487142413E+03  0.91921777369E+02 0.  0.
         23    2    4    4    0    0  0.27775363874E+03 -0.38370418451E+03  0.20423359880E+03  0.52381066170E+03  0.91050872510E+02 0.  0.
          4    1    3    3  502    0 -0.11307887709E+03 -0.85078944392E+02  0.23437585901E+03  0.27378331306E+03  0.00000000000E+00 0.  1.
         -4    1    3    3    0  502 -0.81470084071E+02  0.14225669741E+02  0.10365263831E+03  0.13260321906E+03  0.00000000000E+00 0. -1.
         13    1    5    5    0    0 -0.51361268306E+02  0.78838976711E+02  0.42380488533E+02  0.10319723804E+03  0.00000000000E+00 0.  1.
        -13    1    5    5    0    0 -0.31843409275E+02  0.37571848245E+03  0.16521880862E+03  0.41167418609E+03  0.00000000000E+00 0. -1.
          1    1    6    6  503    0  0.25223513698E+03 -0.37993632703E+03  0.19858951005E+03  0.49740523763E+03  0.00000000000E+00 0. -1.
         -1    1    6    6    0  503  0.25518501764E+02 -0.37678574845E+01  0.56440887423E+01  0.26405424065E+02  0.00000000000E+00 0.  1.
<mgrwt>
<rscale>  0 0.12352859E+04</rscale>
<asrwt>0</asrwt>
<pdfrwt beam="1">  1        2 0.16884077E+00 0.12352859E+04</pdfrwt>
<pdfrwt beam="2">  1       -2 0.53477479E-01 0.12352859E+04</pdfrwt>
<totfact> 0.70929376E+01</totfact>
</mgrwt>
</event>
<event>
12    3  0.4634846E-008  0.1539116E+04  0.7818608E-02  0.8858850E-01
         -1   -1    0    0    0  501 -0.00000000000E+00  0.00000000000E+00  0.55573986506E+03  0.55573986506E+03  0.00000000000E+00 0.  1.
          1   -1    0    0  501    0  0.00000000000E+00 -0.00000000000E+00 -0.10656415967E+04  0.10656415967E+04  0.00000000000E+00 0. -1.
         23    2    1    2    0    0 -0.13500798074E+03 -0.42774298780E+02 -0.68098885741E+03  0.70127582986E+03  0.89359779142E+02 0.  0.
        254    2    1    2    0    0  0.13500798074E+03  0.42774298780E+02  0.17108712582E+03  0.92010563186E+03  0.89289796374E+03 0.  0.
         23    2    4    4    0    0 -0.36434318091E+03  0.84139730203E+02  0.54965987164E+01  0.38486537327E+03  0.90915869173E+02 0.  0.
         23    2    4    4    0    0  0.49935116166E+03 -0.41365431424E+02  0.16559052710E+03  0.53524025859E+03  0.89438415592E+02 0.  0.
          4    1    3    3  502    0 -0.13622512801E+03 -0.20527661108E+02 -0.49019252960E+03  0.50918305789E+03  0.00000000000E+00 0. -1.
         -4    1    3    3    0  502  0.12171472669E+01 -0.22246637672E+02 -0.19079632781E+03  0.19209277197E+03  0.00000000000E+00 0.  1.
         13    1    5    5    0    0 -0.30503445612E+03  0.50499541580E+02 -0.24950202054E+02  0.31019145008E+03  0.00000000000E+00 0. -1.
        -13    1    5    5    0    0 -0.59308724790E+02  0.33640188624E+02  0.30446800770E+02  0.74673923186E+02  0.00000000000E+00 0.  1.
          2    1    6    6  503    0  0.14104830536E+03  0.36567877300E+01  0.82647210477E+01  0.14133754688E+03  0.00000000000E+00 0.  1.
         -2    1    6    6    0  503  0.35830285629E+03 -0.45022219154E+02  0.15732580605E+03  0.39390271171E+03  0.00000000000E+00 0. -1.
<mgrwt>
<rscale>  0 0.15391160E+04</rscale>
<asrwt>0</asrwt>
<pdfrwt beam="1">  1        1 0.16394486E+00 0.15391160E+04</pdfrwt>
<pdfrwt beam="2">  1       -1 0.85498441E-01 0.15391160E+04</pdfrwt>
<totfact> 0.17552773E+01</totfact>
</mgrwt>
</event>
<event>
12    3  0.4634846E-008  0.2094189E+04  0.7818608E-02  0.8563808E-01
         -1   -1    0    0    0  501 -0.00000000000E+00  0.00000000000E+00  0.94360880301E+03  0.94360880301E+03  0.00000000000E+00 0.  1.
          1   -1    0    0  501    0  0.00000000000E+00 -0.00000000000E+00 -0.11619294252E+04  0.11619294252E+04  0.00000000000E+00 0. -1.
         23    2    1    2    0    0  0.28484250684E+03 -0.14119785346E+03 -0.88980192675E+03  0.94852226495E+03  0.82915202017E+02 0.  0.
        254    2    1    2    0    0 -0.28484250684E+03  0.14119785346E+03  0.67148130459E+03  0.11570159632E+04  0.88697616045E+03 0.  0.
         23    2    4    4    0    0 -0.27006409233E+03  0.43220667627E+03  0.12699978731E+03  0.53301916858E+03  0.90792417719E+02 0.  0.
         23    2    4    4    0    0 -0.14778414515E+02 -0.29100882281E+03  0.54448151729E+03  0.62399679465E+03  0.89483744777E+02 0.  0.
          3    1    3    3  502    0  0.23091140027E+03 -0.74992528450E+02 -0.63782996380E+03  0.68247418766E+03  0.00000000000E+00 0. -1.
         -3    1    3    3    0  502  0.53931106567E+02 -0.66205325013E+02 -0.25197196295E+03  0.26604807729E+03  0.00000000000E+00 0.  1.
         13    1    5    5    0    0 -0.39780641797E+02  0.13734193828E+03  0.46145847715E+02  0.15024894919E+03  0.00000000000E+00 0. -1.
        -13    1    5    5    0    0 -0.23028345053E+03  0.29486473799E+03  0.80853939594E+02  0.38277021938E+03  0.00000000000E+00 0.  1.
          1    1    6    6  503    0 -0.21832759760E+02 -0.15423171014E+02  0.29071473450E+02  0.39492963569E+02  0.00000000000E+00 0. -1.
         -1    1    6    6    0  503  0.70543452450E+01 -0.27558565179E+03  0.51541004383E+03  0.58450383108E+03  0.00000000000E+00 0.  1.
<mgrwt>
<rscale>  0 0.20941889E+04</rscale>
<asrwt>0</asrwt>
<pdfrwt beam="1">  1        1 0.17875837E+00 0.20941889E+04</pdfrwt>
<pdfrwt beam="2">  1       -1 0.14517058E+00 0.20941889E+04</pdfrwt>
<totfact> 0.39949674E+00</totfact>
</mgrwt>
</event>
<event>
12    3  0.4634846E-008  0.2235848E+04  0.7818608E-02  0.8503654E-01
         -1   -1    0    0    0  501 -0.00000000000E+00  0.00000000000E+00  0.44752935686E+03  0.44752935686E+03  0.00000000000E+00 0.  1.
          1   -1    0    0  501    0  0.00000000000E+00 -0.00000000000E+00 -0.27925629539E+04  0.27925629539E+04  0.00000000000E+00 0. -1.
         23    2    1    2    0    0  0.45934686638E+03 -0.54711162263E+03 -0.11120731560E+03  0.72849001007E+03  0.89442475741E+02 0.  0.
        254    2    1    2    0    0 -0.45934686638E+03  0.54711162263E+03 -0.22338262814E+04  0.25116023007E+04  0.89879674558E+03 0.  0.
         23    2    4    4    0    0  0.87103779408E+02  0.28752001072E+03 -0.16723982090E+03  0.35606020694E+03  0.92492639266E+02 0.  0.
         23    2    4    4    0    0 -0.54645064578E+03  0.25959161191E+03 -0.20665864605E+04  0.21555420937E+04  0.97908149707E+02 0.  0.
          3    1    3    3  502    0  0.28639152549E+03 -0.27836970535E+03 -0.80622396092E+02  0.40744296469E+03  0.00000000000E+00 0. -1.
         -3    1    3    3    0  502  0.17295534089E+03 -0.26874191728E+03 -0.30584919510E+02  0.32104704538E+03  0.00000000000E+00 0.  1.
         13    1    5    5    0    0  0.41953490174E+02  0.20395793638E+03 -0.15648464154E+03  0.26047337328E+03  0.00000000000E+00 0. -1.
        -13    1    5    5    0    0  0.45150289234E+02  0.83562074337E+02 -0.10755179364E+02  0.95586833657E+02  0.00000000000E+00 0.  1.
          3    1    6    6  503    0 -0.26367831162E+03  0.17830343451E+03 -0.10391992031E+04  0.10868547974E+04  0.00000000000E+00 0. -1.
         -3    1    6    6    0  503 -0.28277233416E+03  0.81288177396E+02 -0.10273872574E+04  0.10686872963E+04  0.00000000000E+00 0.  1.
<mgrwt>
<rscale>  0 0.22358479E+04</rscale>
<asrwt>0</asrwt>
<pdfrwt beam="1">  1        1 0.42962507E+00 0.22358479E+04</pdfrwt>
<pdfrwt beam="2">  1       -1 0.68850670E-01 0.22358479E+04</pdfrwt>
<totfact> 0.16372903E+00</totfact>
</mgrwt>
</event>
<event>
12    3  0.4634846E-008  0.1472738E+04  0.7818608E-02  0.8902787E-01
          1   -1    0    0  501    0  0.00000000000E+00  0.00000000000E+00  0.19855943224E+04  0.19855943224E+04  0.00000000000E+00 0. -1.
         -1   -1    0    0    0  501 -0.00000000000E+00 -0.00000000000E+00 -0.27308658516E+03  0.27308658516E+03  0.00000000000E+00 0.  1.
         23    2    1    2    0    0 -0.20714198450E+03 -0.25265634236E+03  0.10175880612E+04  0.10726648988E+04  0.91550497821E+02 0.  0.
        254    2    1    2    0    0  0.20714198450E+03  0.25265634236E+03  0.69491967598E+03  0.11860160087E+04  0.90386812526E+03 0.  0.
         23    2    4    4    0    0  0.43567754183E+03  0.23799369096E+03  0.77752560735E+03  0.92637098682E+03  0.84623978521E+02 0.  0.
         23    2    4    4    0    0 -0.22853555733E+03  0.14662651396E+02 -0.82605931369E+02  0.25964502193E+03  0.90267952252E+02 0.  0.
          2    1    3    3  502    0 -0.21744640719E+01 -0.40785627543E+02  0.18426009795E+03  0.18873256053E+03  0.00000000000E+00 0.  1.
         -2    1    3    3    0  502 -0.20496752043E+03 -0.21187071482E+03  0.83332796327E+03  0.88393233824E+03  0.00000000000E+00 0. -1.
         13    1    5    5    0    0  0.37804109286E+03  0.19332079519E+03  0.70832660409E+03  0.82584173775E+03  0.00000000000E+00 0. -1.
        -13    1    5    5    0    0  0.57636448975E+02  0.44672895769E+02  0.69199003258E+02  0.10052924907E+03  0.00000000000E+00 0.  1.
          2    1    6    6  503    0 -0.19017822565E+03 -0.11552684360E+02 -0.36120006674E+02  0.19392234763E+03  0.00000000000E+00 0. -1.
         -2    1    6    6    0  503 -0.38357331683E+02  0.26215335756E+02 -0.46485924695E+02  0.65722674302E+02  0.00000000000E+00 0.  1.
<mgrwt>
<rscale>  0 0.14727378E+04</rscale>
<asrwt>0</asrwt>
<pdfrwt beam="1">  1        1 0.30547604E+00 0.14727378E+04</pdfrwt>
<pdfrwt beam="2">  1       -1 0.42013322E-01 0.14727378E+04</pdfrwt>
<totfact> 0.16452810E+01</totfact>
</mgrwt>
</event>
<event>
12    3  0.4634846E-008  0.1524934E+04  0.7818608E-02  0.8868040E-01
         -2   -1    0    0    0  501 -0.00000000000E+00  0.00000000000E+00  0.30751023789E+03  0.30751023789E+03  0.00000000000E+00 0. -1.
          2   -1    0    0  501    0  0.00000000000E+00 -0.00000000000E+00 -0.18905243372E+04  0.18905243372E+04  0.00000000000E+00 0.  1.
         23    2    1    2    0    0  0.14892041616E+03  0.25618485547E+03 -0.10830481126E+04  0.11264285427E+04  0.89666476568E+02 0.  0.
        254    2    1    2    0    0 -0.14892041616E+03 -0.25618485547E+03 -0.49996598669E+03  0.10716060324E+04  0.90031412868E+03 0.  0.
         23    2    4    4    0    0 -0.42692722658E+03 -0.29128476587E+03 -0.56335808256E+03  0.76994357032E+03  0.91252948812E+02 0.  0.
         23    2    4    4    0    0  0.27800681042E+03  0.35099910400E+02  0.63392095870E+02  0.30166246207E+03  0.91988547406E+02 0.  0.
          2    1    3    3  502    0  0.95485759659E+02  0.15210007806E+03 -0.48820992625E+03  0.52019313349E+03  0.00000000000E+00 0. -1.
         -2    1    3    3    0  502  0.53434656504E+02  0.10408477741E+03 -0.59483818635E+03  0.60623540919E+03  0.00000000000E+00 0.  1.
         13    1    5    5    0    0 -0.16841248640E+03 -0.13233150879E+03 -0.17192564214E+03  0.27465035995E+03  0.00000000000E+00 0.  1.
        -13    1    5    5    0    0 -0.25851474018E+03 -0.15895325708E+03 -0.39143244043E+03  0.49529321038E+03  0.00000000000E+00 0. -1.
          3    1    6    6  503    0  0.19997646162E+03  0.20514939975E+02  0.86706273712E+02  0.21892790106E+03  0.00000000000E+00 0. -1.
         -3    1    6    6    0  503  0.78030348804E+02  0.14584970425E+02 -0.23314177842E+02  0.82734561008E+02  0.00000000000E+00 0.  1.
<mgrwt>
<rscale>  0 0.15249336E+04</rscale>
<asrwt>0</asrwt>
<pdfrwt beam="1">  1        2 0.29084989E+00 0.15249336E+04</pdfrwt>
<pdfrwt beam="2">  1       -2 0.47309268E-01 0.15249336E+04</pdfrwt>
<totfact> 0.31390414E+01</totfact>
</mgrwt>
</event>
<event>
12    3  0.4634846E-008  0.1607382E+04  0.7818608E-02  0.8816026E-01
          1   -1    0    0  501    0  0.00000000000E+00  0.00000000000E+00  0.14019815724E+04  0.14019815724E+04  0.00000000000E+00 0. -1.
         -1   -1    0    0    0  501 -0.00000000000E+00 -0.00000000000E+00 -0.46071860777E+03  0.46071860777E+03  0.00000000000E+00 0.  1.
         23    2    1    2    0    0  0.43836742135E+03 -0.11787532920E+03  0.68442716047E+03  0.82671109473E+03  0.94605004156E+02 0.  0.
        254    2    1    2    0    0 -0.43836742135E+03  0.11787532920E+03  0.25683580416E+03  0.10359890855E+04  0.89512466481E+03 0.  0.
         23    2    4    4    0    0  0.22875778399E+03 -0.13418653657E+03  0.30667900738E+02  0.28214070624E+03  0.91250795362E+02 0.  0.
         23    2    4    4    0    0 -0.66712520534E+03  0.25206186577E+03  0.22616790343E+03  0.75384837922E+03  0.92435028730E+02 0.  0.
          2    1    3    3  502    0  0.21819906376E+03 -0.91563886662E+02  0.29064754236E+03  0.37479430445E+03  0.00000000000E+00 0. -1.
         -2    1    3    3    0  502  0.22016835759E+03 -0.26311442541E+02  0.39377961811E+03  0.45191679028E+03  0.00000000000E+00 0.  1.
         13    1    5    5    0    0  0.97172989650E+02 -0.99505358255E+02  0.42809476127E+02  0.14552167359E+03  0.00000000000E+00 0.  1.
        -13    1    5    5    0    0  0.13158479434E+03 -0.34681178310E+02 -0.12141575390E+02  0.13661903265E+03  0.00000000000E+00 0. -1.
          2    1    6    6  503    0 -0.55481156953E+03  0.18683317849E+03  0.21434136930E+03  0.62342981711E+03  0.00000000000E+00 0. -1.
         -2    1    6    6    0  503 -0.11231363581E+03  0.65228687282E+02  0.11826534128E+02  0.13041856211E+03  0.00000000000E+00 0.  1.
<mgrwt>
<rscale>  0 0.16073817E+04</rscale>
<asrwt>0</asrwt>
<pdfrwt beam="1">  1        1 0.21568947E+00 0.16073817E+04</pdfrwt>
<pdfrwt beam="2">  1       -1 0.70879786E-01 0.16073817E+04</pdfrwt>
<totfact> 0.14766779E+01</totfact>
</mgrwt>
</event>
<event>
12    3  0.4634846E-008  0.1982776E+04  0.7818608E-02  0.8614716E-01
          1   -1    0    0  501    0  0.00000000000E+00  0.00000000000E+00  0.51796149492E+03  0.51796149492E+03  0.00000000000E+00 0. -1.
         -1   -1    0    0    0  501 -0.00000000000E+00 -0.00000000000E+00 -0.18975360098E+04  0.18975360098E+04  0.00000000000E+00 0.  1.
         23    2    1    2    0    0  0.17305738622E+03  0.10621752040E+03  0.37073001820E+03  0.43300053577E+03  0.93902593242E+02 0.  0.
        254    2    1    2    0    0 -0.17305738622E+03 -0.10621752040E+03 -0.17503045331E+04  0.19824969690E+04  0.90856879367E+03 0.  0.
         23    2    4    4    0    0 -0.49463046670E+03 -0.28970234534E+02 -0.60699734086E+03  0.78858472850E+03  0.89002972587E+02 0.  0.
         23    2    4    4    0    0  0.32157308048E+03 -0.77247285866E+02 -0.11433071923E+04  0.11939122405E+04  0.94332989275E+02 0.  0.
          1    1    3    3  502    0  0.14185894621E+03  0.12299673223E+03  0.30031350173E+03  0.35417560063E+03  0.00000000000E+00 0. -1.
         -1    1    3    3    0  502  0.31198440015E+02 -0.16779211826E+02  0.70416516471E+02  0.78824935146E+02  0.00000000000E+00 0.  1.
         13    1    5    5    0    0 -0.47418027575E+03 -0.30447215257E+02 -0.60297039077E+03  0.76768955898E+03  0.00000000000E+00 0.  1.
        -13    1    5    5    0    0 -0.20450190950E+02  0.14769807229E+01 -0.40269500906E+01  0.20895169513E+02  0.00000000000E+00 0. -1.
          1    1    6    6  503    0  0.15349230430E+03 -0.15114259809E+02 -0.38556873913E+03  0.41527289934E+03  0.00000000000E+00 0. -1.
         -1    1    6    6    0  503  0.16808077618E+03 -0.62133026058E+02 -0.75773845313E+03  0.77863934116E+03  0.00000000000E+00 0.  1.
<mgrwt>
<rscale>  0 0.19827764E+04</rscale>
<asrwt>0</asrwt>
<pdfrwt beam="1">  1        1 0.79686384E-01 0.19827764E+04</pdfrwt>
<pdfrwt beam="2">  1       -1 0.29192862E+00 0.19827764E+04</pdfrwt>
<totfact> 0.14614035E+00</totfact>
</mgrwt>
</event>
<event>
12    3  0.4634846E-008  0.2055545E+04  0.7818608E-02  0.8581083E-01
          2   -1    0    0  501    0  0.00000000000E+00  0.00000000000E+00  0.74721660795E+03  0.74721660795E+03  0.00000000000E+00 0. -1.
         -2   -1    0    0    0  501 -0.00000000000E+00 -0.00000000000E+00 -0.14136674709E+04  0.14136674709E+04  0.00000000000E+00 0.  1.
         23    2    1    2    0    0  0.61320405441E+03  0.95720667544E+02 -0.84578932845E+03  0.10529064199E+04  0.89836976480E+02 0.  0.
        254    2    1    2    0    0 -0.61320405441E+03 -0.95720667544E+02  0.17933846553E+03  0.11079776590E+04  0.90015029245E+03 0.  0.
         23    2    4    4    0    0 -0.17675076913E+03  0.34890878013E+03 -0.10784101207E+03  0.41589213039E+03  0.91424334814E+02 0.  0.
         23    2    4    4    0    0 -0.43645328528E+03 -0.44462944768E+03  0.28717947759E+03  0.69208552857E+03  0.91233275334E+02 0.  0.
          1    1    3    3  502    0  0.59606544660E+01 -0.28463268700E+01  0.52195612307E+00  0.66259653265E+01  0.00000000000E+00 0. -1.
         -1    1    3    3    0  502  0.60724339995E+03  0.98566994414E+02 -0.84631128458E+03  0.10462804546E+04  0.00000000000E+00 0.  1.
         13    1    5    5    0    0  0.10917398538E+02  0.15887945718E+02 -0.74788832966E+01  0.20677284767E+02  0.00000000000E+00 0.  1.
        -13    1    5    5    0    0 -0.18766816767E+03  0.33302083441E+03 -0.10036212877E+03  0.39521484563E+03  0.00000000000E+00 0. -1.
          3    1    6    6  503    0 -0.41970949382E+03 -0.39143118899E+03  0.26273796575E+03  0.63119384784E+03  0.00000000000E+00 0. -1.
         -3    1    6    6    0  503 -0.16743791468E+02 -0.53198258687E+02  0.24441511846E+02  0.60891680724E+02  0.00000000000E+00 0.  1.
<mgrwt>
<rscale>  0 0.20555445E+04</rscale>
<asrwt>0</asrwt>
<pdfrwt beam="1">  1        2 0.11495640E+00 0.20555445E+04</pdfrwt>
<pdfrwt beam="2">  1       -2 0.21748730E+00 0.20555445E+04</pdfrwt>
<totfact> 0.35717103E+00</totfact>
</mgrwt>
</event>
<event>
12    3  0.4634846E-008  0.2188564E+04  0.7818608E-02  0.8523203E-01
          1   -1    0    0  501    0  0.00000000000E+00  0.00000000000E+00  0.73888373954E+03  0.73888373954E+03  0.00000000000E+00 0. -1.
         -1   -1    0    0    0  501 -0.00000000000E+00 -0.00000000000E+00 -0.16206247242E+04  0.16206247242E+04  0.00000000000E+00 0.  1.
         23    2    1    2    0    0  0.60411476762E+03 -0.49075452068E+03 -0.87874039180E+03  0.11773578893E+04  0.90511166852E+02 0.  0.
        254    2    1    2    0    0 -0.60411476762E+03  0.49075452068E+03 -0.30005928412E+01  0.11821505744E+04  0.88976194850E+03 0.  0.
         23    2    4    4    0    0 -0.41270365754E+03  0.68379845060E+03  0.20424386603E+03  0.82832784970E+03  0.80664984900E+02 0.  0.
         23    2    4    4    0    0 -0.19141111009E+03 -0.19304392992E+03 -0.20724445887E+03  0.35382272471E+03  0.91302151386E+02 0.  0.
          3    1    3    3  502    0  0.27678729377E+03 -0.22339925062E+03 -0.33435563433E+03  0.48817222512E+03  0.00000000000E+00 0. -1.
         -3    1    3    3    0  502  0.32732747386E+03 -0.26735527006E+03 -0.54438475747E+03  0.68918566420E+03  0.00000000000E+00 0.  1.
         13    1    5    5    0    0 -0.18979207920E+03  0.25408122014E+03  0.56020449526E+02  0.32205060242E+03  0.00000000000E+00 0. -1.
        -13    1    5    5    0    0 -0.22291157834E+03  0.42971723046E+03  0.14822341651E+03  0.50627724728E+03  0.00000000000E+00 0.  1.
          4    1    6    6  503    0 -0.60122501003E+02 -0.95163026017E+02 -0.13236224813E+03  0.17375408306E+03  0.00000000000E+00 0. -1.
         -4    1    6    6    0  503 -0.13128860908E+03 -0.97880903900E+02 -0.74882210740E+02  0.18006864166E+03  0.00000000000E+00 0.  1.
<mgrwt>
<rscale>  0 0.21885641E+04</rscale>
<asrwt>0</asrwt>
<pdfrwt beam="1">  1        1 0.11367442E+00 0.21885641E+04</pdfrwt>
<pdfrwt beam="2">  1       -1 0.24932688E+00 0.21885641E+04</pdfrwt>
<totfact> 0.16112864E+00</totfact>
</mgrwt>
</event>
<event>
12    3  0.4634846E-008  0.1752560E+04  0.7818608E-02  0.8731942E-01
         -2   -1    0    0    0  501 -0.00000000000E+00  0.00000000000E+00  0.67458535533E+03  0.67458535533E+03  0.00000000000E+00 0.  1.
          2   -1    0    0  501    0  0.00000000000E+00 -0.00000000000E+00 -0.11382800793E+04  0.11382800793E+04  0.00000000000E+00 0. -1.
         23    2    1    2    0    0 -0.40017459281E+03 -0.27302257126E+03 -0.60396891860E+03  0.78010984391E+03  0.95456193061E+02 0.  0.
        254    2    1    2    0    0  0.40017459281E+03  0.27302257126E+03  0.14027419462E+03  0.10327555907E+04  0.90123594654E+03 0.  0.
         23    2    4    4    0    0 -0.18830886094E+03  0.11085875171E+03 -0.21444470789E+03  0.32087838269E+03  0.96054743756E+02 0.  0.
         23    2    4    4    0    0  0.58848345375E+03  0.16216381954E+03  0.35471890251E+03  0.71187720802E+03  0.91289538258E+02 0.  0.
          3    1    3    3  502    0 -0.31229738834E+03 -0.19521469555E+03 -0.51349419060E+03  0.63191353831E+03  0.00000000000E+00 0. -1.
         -3    1    3    3    0  502 -0.87877204472E+02 -0.77807875708E+02 -0.90474727995E+02  0.14819630560E+03  0.00000000000E+00 0.  1.
         13    1    5    5    0    0 -0.48883872156E+02  0.83265704756E+02 -0.88421730774E+02  0.13092445539E+03  0.00000000000E+00 0. -1.
        -13    1    5    5    0    0 -0.13942498878E+03  0.27593046958E+02 -0.12602297712E+03  0.18995392731E+03  0.00000000000E+00 0.  1.
          4    1    6    6  503    0  0.49039234085E+03  0.14621148124E+03  0.25753028101E+03  0.57287371283E+03  0.00000000000E+00 0. -1.
         -4    1    6    6    0  503  0.98091112900E+02  0.15952338305E+02  0.97188621499E+02  0.13900349519E+03  0.00000000000E+00 0.  1.
<mgrwt>
<rscale>  0 0.17525605E+04</rscale>
<asrwt>0</asrwt>
<pdfrwt beam="1">  1        2 0.17512001E+00 0.17525605E+04</pdfrwt>
<pdfrwt beam="2">  1       -2 0.10378236E+00 0.17525605E+04</pdfrwt>
<totfact> 0.14787342E+01</totfact>
</mgrwt>
</event>
<event>
12    3  0.4701337E-008  0.3216191E+04  0.7818608E-02  0.8184554E-01
          2   -1    0    0  501    0  0.00000000000E+00  0.00000000000E+00  0.15132659506E+04  0.15132659506E+04  0.00000000000E+00 0. -1.
         -2   -1    0    0    0  501 -0.00000000000E+00 -0.00000000000E+00 -0.17088674016E+04  0.17088674016E+04  0.00000000000E+00 0.  1.
         23    2    1    2    0    0  0.12365016869E+04  0.31954315302E+03  0.66107146319E+03  0.14411238587E+04  0.93692307430E+02 0.  0.
        254    2    1    2    0    0 -0.12365016869E+04 -0.31954315302E+03 -0.85667291419E+03  0.17810094935E+04  0.89836634271E+03 0.  0.
         23    2    4    4    0    0 -0.13012979870E+04 -0.29460249537E+03 -0.94547318586E+03  0.16381040899E+04  0.96428122802E+02 0.  0.
         23    2    4    4    0    0  0.64796300173E+02 -0.24940657655E+02  0.88800271678E+02  0.14290540357E+03  0.87840020484E+02 0.  0.
          3    1    3    3  502    0  0.12056873909E+04  0.32202909044E+03  0.65576879527E+03  0.14097579695E+04  0.00000000000E+00 0. -1.
         -3    1    3    3    0  502  0.30814295988E+02 -0.24859374129E+01  0.53026679150E+01  0.31365889260E+02  0.00000000000E+00 0.  1.
         13    1    5    5    0    0 -0.11966860991E+04 -0.25552829187E+03 -0.89212398402E+03  0.15143439274E+04  0.00000000000E+00 0.  1.
        -13    1    5    5    0    0 -0.10461188797E+03 -0.39074203502E+02 -0.53349201842E+02  0.12376016250E+03  0.00000000000E+00 0. -1.
          2    1    6    6  503    0  0.11260872110E+02 -0.49226787678E+01 -0.17986872680E+02  0.21784572425E+02  0.00000000000E+00 0. -1.
         -2    1    6    6    0  503  0.53535428063E+02 -0.20017978887E+02  0.10678714436E+03  0.12112083114E+03  0.00000000000E+00 0.  1.
<mgrwt>
<rscale>  0 0.32161908E+04</rscale>
<asrwt>0</asrwt>
<pdfrwt beam="1">  1        2 0.23281015E+00 0.32161908E+04</pdfrwt>
<pdfrwt beam="2">  1       -2 0.26290268E+00 0.32161908E+04</pdfrwt>
<totfact> 0.56193627E-01</totfact>
</mgrwt>
</event>
<event>
12    3  0.4634846E-008  0.1024358E+04  0.7818608E-02  0.9282226E-01
          2   -1    0    0  501    0  0.00000000000E+00  0.00000000000E+00  0.52938688751E+03  0.52938688751E+03  0.00000000000E+00 0. -1.
         -2   -1    0    0    0  501 -0.00000000000E+00 -0.00000000000E+00 -0.49553030298E+03  0.49553030298E+03  0.00000000000E+00 0.  1.
         23    2    1    2    0    0  0.32669882363E+02 -0.58288879766E+02 -0.13010752775E+02  0.11738736057E+03  0.95632620038E+02 0.  0.
        254    2    1    2    0    0 -0.32669882363E+02  0.58288879766E+02  0.46867337305E+02  0.90752982992E+03  0.90385227232E+03 0.  0.
         23    2    4    4    0    0  0.83774478755E+01  0.33701772685E+03  0.34308603893E+03  0.48881564984E+03  0.87072266415E+02 0.  0.
         23    2    4    4    0    0 -0.41047330239E+02 -0.27872884708E+03 -0.29621870163E+03  0.41871418008E+03  0.90561536481E+02 0.  0.
          4    1    3    3  502    0 -0.51721730083E+01 -0.14313856779E+02  0.37495866034E+02  0.40466996913E+02  0.00000000000E+00 0. -1.
         -4    1    3    3    0  502  0.37842055371E+02 -0.43975022987E+02 -0.50506618808E+02  0.76920363655E+02  0.00000000000E+00 0.  1.
         13    1    5    5    0    0 -0.19870134325E+02  0.43821669365E+02  0.21442925776E+02  0.52677889194E+02  0.00000000000E+00 0. -1.
        -13    1    5    5    0    0  0.28247582201E+02  0.29319605748E+03  0.32164311315E+03  0.43613776065E+03  0.00000000000E+00 0.  1.
          4    1    6    6  503    0  0.11973305737E+00 -0.97450775425E+02 -0.48078035436E+02  0.10866538298E+03  0.00000000000E+00 0. -1.
         -4    1    6    6    0  503 -0.41167063296E+02 -0.18127807166E+03 -0.24814066619E+03  0.31004879710E+03  0.00000000000E+00 0.  1.
<mgrwt>
<rscale>  0 0.10243578E+04</rscale>
<asrwt>0</asrwt>
<pdfrwt beam="1">  1        2 0.81444137E-01 0.10243578E+04</pdfrwt>
<pdfrwt beam="2">  1       -2 0.76235431E-01 0.10243578E+04</pdfrwt>
<totfact> 0.88497127E+01</totfact>
</mgrwt>
</event>
<event>
12    3  0.4634846E-008  0.1222778E+04  0.7818608E-02  0.9093150E-01
          2   -1    0    0  501    0  0.00000000000E+00  0.00000000000E+00  0.14507446182E+04  0.14507446182E+04  0.00000000000E+00 0.  1.
         -2   -1    0    0    0  501 -0.00000000000E+00 -0.00000000000E+00 -0.25765819065E+03  0.25765819065E+03  0.00000000000E+00 0. -1.
         23    2    1    2    0    0 -0.19555575465E+02  0.25796259453E+03  0.13941917064E+03  0.30716887896E+03  0.89375020848E+02 0.  0.
        254    2    1    2    0    0  0.19555575465E+02 -0.25796259453E+03  0.10536672569E+04  0.14012339299E+04  0.88674388481E+03 0.  0.
         23    2    4    4    0    0  0.17893924206E+03 -0.29256909583E+03  0.11415247828E+04  0.11953022049E+04  0.89736298173E+02 0.  0.
         23    2    4    4    0    0 -0.15938366660E+03  0.34606501301E+02 -0.87857525907E+02  0.20593172493E+03  0.89934239094E+02 0.  0.
          4    1    3    3  502    0 -0.26168231661E+02  0.83187287263E+02  0.64159308841E+01  0.87441782230E+02  0.00000000000E+00 0. -1.
         -4    1    3    3    0  502  0.66126561955E+01  0.17477530727E+03  0.13300323976E+03  0.21972709673E+03  0.00000000000E+00 0.  1.
         13    1    5    5    0    0  0.15779919417E+03 -0.21584667559E+03  0.76270881350E+03  0.80821724013E+03  0.00000000000E+00 0. -1.
        -13    1    5    5    0    0  0.21140047894E+02 -0.76722420246E+02  0.37881596929E+03  0.38708496481E+03  0.00000000000E+00 0.  1.
          3    1    6    6  503    0 -0.13901061716E+03  0.55341519077E+02 -0.49074801666E+02  0.15746419141E+03  0.00000000000E+00 0. -1.
         -3    1    6    6    0  503 -0.20373049435E+02 -0.20735017776E+02 -0.38782724240E+02  0.48467533514E+02  0.00000000000E+00 0.  1.
<mgrwt>
<rscale>  0 0.12227775E+04</rscale>
<asrwt>0</asrwt>
<pdfrwt beam="1">  1        2 0.22319147E+00 0.12227775E+04</pdfrwt>
<pdfrwt beam="2">  1       -2 0.39639723E-01 0.12227775E+04</pdfrwt>
<totfact> 0.80248956E+01</totfact>
</mgrwt>
</event>
<event>
12    3  0.4634846E-008  0.1703638E+04  0.7818608E-02  0.8759292E-01
          1   -1    0    0  501    0  0.00000000000E+00  0.00000000000E+00  0.17691618210E+04  0.17691618210E+04  0.00000000000E+00 0. -1.
         -1   -1    0    0    0  501 -0.00000000000E+00 -0.00000000000E+00 -0.41013545200E+03  0.41013545200E+03  0.00000000000E+00 0.  1.
         23    2    1    2    0    0 -0.59999546297E+03 -0.87648876946E+02  0.31305003723E+03  0.68848285350E+03  0.91276681253E+02 0.  0.
        254    2    1    2    0    0  0.59999546297E+03  0.87648876946E+02  0.10459763317E+04  0.14908144195E+04  0.87222947985E+03 0.  0.
         23    2    4    4    0    0  0.21424126826E+03  0.19211952785E+03  0.10364425983E+04  0.10795377802E+04  0.91538654582E+02 0.  0.
         23    2    4    4    0    0  0.38575419471E+03 -0.10447065091E+03  0.95337334652E+01  0.41127663930E+03  0.96629013908E+02 0.  0.
          2    1    3    3  502    0 -0.54955906296E+01  0.17139274755E+01  0.17815094243E+02  0.18722089804E+02  0.00000000000E+00 0. -1.
         -2    1    3    3    0  502 -0.59449987234E+03 -0.89362804422E+02  0.29523494299E+03  0.66976076370E+03  0.00000000000E+00 0.  1.
         13    1    5    5    0    0  0.30056662750E+02 -0.10183057262E+01  0.57779387550E+02  0.65137527953E+02  0.00000000000E+00 0. -1.
        -13    1    5    5    0    0  0.18418460551E+03  0.19313783358E+03  0.97866321072E+03  0.10144002522E+04  0.00000000000E+00 0.  1.
          1    1    6    6  503    0  0.14526519768E+03  0.38309673229E+01  0.23278833708E+02  0.14716846832E+03  0.00000000000E+00 0. -1.
         -1    1    6    6    0  503  0.24048899702E+03 -0.10830161823E+03 -0.13745100243E+02  0.26410817099E+03  0.00000000000E+00 0.  1.
<mgrwt>
<rscale>  0 0.17036384E+04</rscale>
<asrwt>0</asrwt>
<pdfrwt beam="1">  1        1 0.27217874E+00 0.17036384E+04</pdfrwt>
<pdfrwt beam="2">  1       -1 0.63097763E-01 0.17036384E+04</pdfrwt>
<totfact> 0.10362314E+01</totfact>
</mgrwt>
</event>
<event>
12    3  0.4634846E-008  0.1488909E+04  0.7818608E-02  0.8891862E-01
          1   -1    0    0  501    0  0.00000000000E+00  0.00000000000E+00  0.15770902809E+04  0.15770902809E+04  0.00000000000E+00 0. -1.
         -1   -1    0    0    0  501 -0.00000000000E+00 -0.00000000000E+00 -0.35141474403E+03  0.35141474403E+03  0.00000000000E+00 0.  1.
         23    2    1    2    0    0 -0.20826954357E+03  0.30193106182E+03  0.20817017233E+02  0.37995518104E+03  0.96922765752E+02 0.  0.
        254    2    1    2    0    0  0.20826954357E+03 -0.30193106182E+03  0.12048585196E+04  0.15485498439E+04  0.90099056477E+03 0.  0.
         23    2    4    4    0    0  0.43955234485E+03 -0.32295209777E+03  0.11723905823E+04  0.12962479885E+04  0.90856199064E+02 0.  0.
         23    2    4    4    0    0 -0.23128280128E+03  0.21021035954E+02  0.32467937366E+02  0.25230185542E+03  0.93104463747E+02 0.  0.
          4    1    3    3  502    0 -0.87714975194E+01  0.46519103452E+02  0.29445923153E+02  0.55749695470E+02  0.00000000000E+00 0. -1.
         -4    1    3    3    0  502 -0.19949804605E+03  0.25541195837E+03 -0.86289059199E+01  0.32420548557E+03  0.00000000000E+00 0.  1.
         13    1    5    5    0    0  0.96212868192E+02 -0.40184904857E+02  0.28825584751E+03  0.30653413547E+03  0.00000000000E+00 0.  1.
        -13    1    5    5    0    0  0.34333947666E+03 -0.28276719292E+03  0.88413473478E+03  0.98971385302E+03  0.00000000000E+00 0. -1.
          1    1    6    6  503    0 -0.22807832998E+03 -0.30296938967E+00  0.34374332639E+02  0.23065431091E+03  0.00000000000E+00 0. -1.
         -1    1    6    6    0  503 -0.32044712985E+01  0.21324005343E+02 -0.19063952729E+01  0.21647544506E+02  0.00000000000E+00 0.  1.
<mgrwt>
<rscale>  0 0.14889094E+04</rscale>
<asrwt>0</asrwt>
<pdfrwt beam="1">  1        1 0.24262927E+00 0.14889094E+04</pdfrwt>
<pdfrwt beam="2">  1       -1 0.54063808E-01 0.14889094E+04</pdfrwt>
<totfact> 0.19351582E+01</totfact>
</mgrwt>
</event>
<event>
12    3  0.4634846E-008  0.3264021E+04  0.7818608E-02  0.8172111E-01
          1   -1    0    0  501    0  0.00000000000E+00  0.00000000000E+00  0.18805247362E+04  0.18805247362E+04  0.00000000000E+00 0. -1.
         -1   -1    0    0    0  501 -0.00000000000E+00 -0.00000000000E+00 -0.14163376458E+04  0.14163376458E+04  0.00000000000E+00 0.  1.
         23    2    1    2    0    0  0.11253932192E+04  0.77824447136E+02  0.12159354557E+04  0.16612667786E+04  0.93497245937E+02 0.  0.
        254    2    1    2    0    0 -0.11253932192E+04 -0.77824447136E+02 -0.75174836524E+03  0.16355956034E+04  0.91513978752E+03 0.  0.
         23    2    4    4    0    0 -0.78698779430E+03  0.11099180665E+03 -0.17715397171E+02  0.79997207706E+03  0.89288964940E+02 0.  0.
         23    2    4    4    0    0 -0.33840542491E+03 -0.18881625379E+03 -0.73403296806E+03  0.83562352630E+03  0.96397459502E+02 0.  0.
          2    1    3    3  502    0  0.60716451486E+03 -0.44595488720E+01  0.64466980699E+03  0.88558895416E+03  0.00000000000E+00 0. -1.
         -2    1    3    3    0  502  0.51822870434E+03  0.82283996008E+02  0.57126564870E+03  0.77567782448E+03  0.00000000000E+00 0.  1.
         13    1    5    5    0    0 -0.16127351637E+03  0.26285271067E+02  0.32333278966E+02  0.16656981565E+03  0.00000000000E+00 0.  1.
        -13    1    5    5    0    0 -0.62571427793E+03  0.84706535588E+02 -0.50048676138E+02  0.63340226141E+03  0.00000000000E+00 0. -1.
          3    1    6    6  503    0 -0.31684577205E+03 -0.18389032880E+03 -0.62570456343E+03  0.72506075400E+03  0.00000000000E+00 0. -1.
         -3    1    6    6    0  503 -0.21559652859E+02 -0.49259249890E+01 -0.10832840463E+03  0.11056277230E+03  0.00000000000E+00 0.  1.
<mgrwt>
<rscale>  0 0.32640208E+04</rscale>
<asrwt>0</asrwt>
<pdfrwt beam="1">  1        1 0.28931150E+00 0.32640208E+04</pdfrwt>
<pdfrwt beam="2">  1       -1 0.21789810E+00 0.32640208E+04</pdfrwt>
<totfact> 0.33981068E-01</totfact>
</mgrwt>
</event>
<event>
12    3  0.4634846E-008  0.1796592E+04  0.7818608E-02  0.8708114E-01
         -2   -1    0    0    0  501 -0.00000000000E+00  0.00000000000E+00  0.13976196895E+04  0.13976196895E+04  0.00000000000E+00 0.  1.
          2   -1    0    0  501    0  0.00000000000E+00 -0.00000000000E+00 -0.57736426147E+03  0.57736426147E+03  0.00000000000E+00 0. -1.
         23    2    1    2    0    0  0.50560854850E+03  0.42286150512E+03  0.13540182996E+03  0.67892762683E+03  0.90317274629E+02 0.  0.
        254    2    1    2    0    0 -0.50560854850E+03 -0.42286150512E+03  0.68485359812E+03  0.12960563242E+04  0.88107076206E+03 0.  0.
         23    2    4    4    0    0 -0.67967359126E+03 -0.11534707047E+03  0.60464915429E+03  0.92148737564E+03  0.90979373233E+02 0.  0.
         23    2    4    4    0    0  0.17406504276E+03 -0.30751443464E+03  0.80204443833E+02  0.37456894854E+03  0.94896668946E+02 0.  0.
          2    1    3    3  502    0  0.31409556659E+03  0.21872233047E+03  0.48328458346E+02  0.38578636923E+03  0.00000000000E+00 0. -1.
         -2    1    3    3    0  502  0.19151298191E+03  0.20413917465E+03  0.87073371612E+02  0.29314125761E+03  0.00000000000E+00 0.  1.
         13    1    5    5    0    0 -0.38011253034E+03 -0.36656214977E+02  0.38117211986E+03  0.53955666873E+03  0.00000000000E+00 0.  1.
        -13    1    5    5    0    0 -0.29956106092E+03 -0.78690855496E+02  0.22347703443E+03  0.38193070690E+03  0.00000000000E+00 0. -1.
          3    1    6    6  503    0  0.48300525519E+02 -0.30389532529E+02  0.34891262623E+02  0.66886954335E+02  0.00000000000E+00 0. -1.
         -3    1    6    6    0  503  0.12576451724E+03 -0.27712490211E+03  0.45313181210E+02  0.30768199421E+03  0.00000000000E+00 0.  1.
<mgrwt>
<rscale>  0 0.17965920E+04</rscale>
<asrwt>0</asrwt>
<pdfrwt beam="1">  1        2 0.88825271E-01 0.17965920E+04</pdfrwt>
<pdfrwt beam="2">  1       -2 0.21501841E+00 0.17965920E+04</pdfrwt>
<totfact> 0.52122046E+00</totfact>
</mgrwt>
</event>
<event>
12    3  0.4634846E-008  0.2738962E+04  0.7818608E-02  0.8322473E-01
         -2   -1    0    0    0  501 -0.00000000000E+00  0.00000000000E+00  0.13941314962E+04  0.13941314962E+04  0.00000000000E+00 0.  1.
          2   -1    0    0  501    0  0.00000000000E+00 -0.00000000000E+00 -0.13452660407E+04  0.13452660407E+04  0.00000000000E+00 0. -1.
         23    2    1    2    0    0  0.11070704068E+03  0.11162164413E+04  0.50936825576E+03  0.12336993406E+04  0.66051876539E+02 0.  0.
        254    2    1    2    0    0 -0.11070704068E+03 -0.11162164413E+04 -0.46050280036E+03  0.15056981963E+04  0.89267521330E+03 0.  0.
         23    2    4    4    0    0  0.36519973964E+03 -0.46341162943E+03 -0.61292317211E+02  0.59953079514E+03  0.86943878740E+02 0.  0.
         23    2    4    4    0    0 -0.47590678032E+03 -0.65280481188E+03 -0.39921048314E+03  0.90616740113E+03  0.95545607237E+02 0.  0.
          4    1    3    3  502    0  0.82849033363E+02  0.61929196595E+03  0.25608031273E+03  0.67525078895E+03  0.00000000000E+00 0. -1.
         -4    1    3    3    0  502  0.27858007314E+02  0.49692447536E+03  0.25328794304E+03  0.55844855167E+03  0.00000000000E+00 0.  1.
         13    1    5    5    0    0  0.22983652895E+03 -0.27512091402E+03  0.43615562151E+01  0.35851829876E+03  0.00000000000E+00 0.  1.
        -13    1    5    5    0    0  0.13536321069E+03 -0.18829071540E+03 -0.65653873426E+02  0.24101249638E+03  0.00000000000E+00 0. -1.
          4    1    6    6  503    0 -0.42342222510E+03 -0.62259268262E+03 -0.36979492169E+03  0.83884224576E+03  0.00000000000E+00 0. -1.
         -4    1    6    6    0  503 -0.52484555215E+02 -0.30212129254E+02 -0.29415561460E+02  0.67325155374E+02  0.00000000000E+00 0.  1.
<mgrwt>
<rscale>  0 0.27389617E+04</rscale>
<asrwt>0</asrwt>
<pdfrwt beam="1">  1        2 0.20696401E+00 0.27389617E+04</pdfrwt>
<pdfrwt beam="2">  1       -2 0.21448177E+00 0.27389617E+04</pdfrwt>
<totfact> 0.14582780E+00</totfact>
</mgrwt>
</event>
<event>
12    3  0.4634846E-008  0.1667706E+04  0.7818608E-02  0.8780000E-01
         -4   -1    0    0    0  501 -0.00000000000E+00  0.00000000000E+00  0.13211070947E+04  0.13211070947E+04  0.00000000000E+00 0.  1.
          4   -1    0    0  501    0  0.00000000000E+00 -0.00000000000E+00 -0.52630894860E+03  0.52630894860E+03  0.00000000000E+00 0. -1.
         23    2    1    2    0    0  0.12888919963E+03 -0.55170627676E+03  0.10998685885E+03  0.58402555106E+03  0.89423115474E+02 0.  0.
        254    2    1    2    0    0 -0.12888919963E+03  0.55170627676E+03  0.68481128726E+03  0.12633904922E+04  0.89788462239E+03 0.  0.
         23    2    4    4    0    0 -0.11386584531E+03 -0.22714585811E+03  0.12730151831E+03  0.30102213451E+03  0.99236975538E+02 0.  0.
         23    2    4    4    0    0 -0.15023354317E+02  0.77885213487E+03  0.55750976894E+03  0.96236835773E+03  0.92191997090E+02 0.  0.
          3    1    3    3  502    0  0.12280455083E+03 -0.54853031366E+03  0.98543190522E+02  0.57068136741E+03  0.00000000000E+00 0. -1.
         -3    1    3    3    0  502  0.60846487947E+01 -0.31759630945E+01  0.11443668328E+02  0.13344183652E+02  0.00000000000E+00 0.  1.
         13    1    5    5    0    0 -0.10310243877E+03 -0.14872051315E+03  0.44265332654E+02  0.18629901661E+03  0.00000000000E+00 0.  1.
        -13    1    5    5    0    0 -0.10763406534E+02 -0.78425344958E+02  0.83036185660E+02  0.11472311790E+03  0.00000000000E+00 0. -1.
          3    1    6    6  503    0 -0.11534138958E+02  0.51341377857E+03  0.31269067984E+03  0.60125053484E+03  0.00000000000E+00 0. -1.
         -3    1    6    6    0  503 -0.34892153589E+01  0.26543835630E+03  0.24481908911E+03  0.36111782289E+03  0.00000000000E+00 0.  1.
<mgrwt>
<rscale>  0 0.16677056E+04</rscale>
<asrwt>0</asrwt>
<pdfrwt beam="1">  1        4 0.80970608E-01 0.16677056E+04</pdfrwt>
<pdfrwt beam="2">  1       -4 0.20324724E+00 0.16677056E+04</pdfrwt>
<totfact> 0.32272223E-01</totfact>
</mgrwt>
</event>
<event>
12    3  0.4634846E-008  0.1836204E+04  0.7818608E-02  0.8687280E-01
          1   -1    0    0  501    0  0.00000000000E+00  0.00000000000E+00  0.91595904125E+03  0.91595904125E+03  0.00000000000E+00 0. -1.
         -1   -1    0    0    0  501 -0.00000000000E+00 -0.00000000000E+00 -0.92025001872E+03  0.92025001872E+03  0.00000000000E+00 0.  1.
         23    2    1    2    0    0 -0.27757748003E+03 -0.62590073305E+03  0.22644703461E+03  0.72717146738E+03  0.93268957483E+02 0.  0.
        254    2    1    2    0    0  0.27757748003E+03  0.62590073305E+03 -0.23073801208E+03  0.11090375926E+04  0.84138181968E+03 0.  0.
         23    2    4    4    0    0  0.81681380633E+02  0.47509361652E+03 -0.52252344942E+03  0.71602955939E+03  0.85333359977E+02 0.  0.
         23    2    4    4    0    0  0.19589609940E+03  0.15080711653E+03  0.29178543734E+03  0.39300803319E+03  0.90545593802E+02 0.  0.
          1    1    3    3  502    0 -0.13499256434E+03 -0.20793623315E+03  0.10442533204E+03  0.26900765687E+03  0.00000000000E+00 0. -1.
         -1    1    3    3    0  502 -0.14258491569E+03 -0.41796449990E+03  0.12202170257E+03  0.45816381051E+03  0.00000000000E+00 0.  1.
         13    1    5    5    0    0  0.84638495495E+02  0.24817313660E+03 -0.29467501626E+03  0.39444511134E+03  0.00000000000E+00 0. -1.
        -13    1    5    5    0    0 -0.29571148619E+01  0.22692047993E+03 -0.22784843315E+03  0.32158444805E+03  0.00000000000E+00 0.  1.
          3    1    6    6  503    0  0.42484646327E+02  0.87384301883E+02  0.10225034225E+03  0.14105351424E+03  0.00000000000E+00 0. -1.
         -3    1    6    6    0  503  0.15341145307E+03  0.63422814645E+02  0.18953509509E+03  0.25195451896E+03  0.00000000000E+00 0.  1.
<mgrwt>
<rscale>  0 0.18362040E+04</rscale>
<asrwt>0</asrwt>
<pdfrwt beam="1">  1        1 0.14091678E+00 0.18362040E+04</pdfrwt>
<pdfrwt beam="2">  1       -1 0.14157693E+00 0.18362040E+04</pdfrwt>
<totfact> 0.67615336E+00</totfact>
</mgrwt>
</event>
<event>
12    3  0.4634846E-008  0.1533938E+04  0.7818608E-02  0.8862193E-01
         -2   -1    0    0    0  501 -0.00000000000E+00  0.00000000000E+00  0.31731283035E+03  0.31731283035E+03  0.00000000000E+00 0.  1.
          2   -1    0    0  501    0  0.00000000000E+00 -0.00000000000E+00 -0.18538216309E+04  0.18538216309E+04  0.00000000000E+00 0. -1.
         23    2    1    2    0    0  0.24472858568E+03  0.38652822004E+03 -0.81633318874E+03  0.94026659595E+03  0.91680155354E+02 0.  0.
        254    2    1    2    0    0 -0.24472858568E+03 -0.38652822004E+03 -0.72017561185E+03  0.12308678653E+04  0.88717903745E+03 0.  0.
         23    2    4    4    0    0  0.23396001081E+03  0.10499122279E+03 -0.35810542747E+03  0.44968620522E+03  0.90651764777E+02 0.  0.
         23    2    4    4    0    0 -0.47868859649E+03 -0.49151944284E+03 -0.36207018437E+03  0.78118166012E+03  0.91737847153E+02 0.  0.
          2    1    3    3  502    0  0.68873981413E+02  0.15948276397E+03 -0.38106719566E+03  0.41879659135E+03  0.00000000000E+00 0. -1.
         -2    1    3    3    0  502  0.17585460427E+03  0.22704545608E+03 -0.43526599307E+03  0.52147000460E+03  0.00000000000E+00 0.  1.
         13    1    5    5    0    0  0.23319847962E+03  0.10182768829E+03 -0.36330351819E+03  0.44355366680E+03  0.00000000000E+00 0.  1.
        -13    1    5    5    0    0  0.76153118208E+00  0.31635345084E+01  0.51980907190E+01  0.61325384182E+01  0.00000000000E+00 0. -1.
          2    1    6    6  503    0 -0.23626889949E+03 -0.28095819683E+03 -0.15109603817E+03  0.39697671719E+03  0.00000000000E+00 0.  1.
         -2    1    6    6    0  503 -0.24241969700E+03 -0.21056124600E+03 -0.21097414620E+03  0.38420494294E+03  0.00000000000E+00 0. -1.
<mgrwt>
<rscale>  0 0.15339379E+04</rscale>
<asrwt>0</asrwt>
<pdfrwt beam="1">  1        2 0.28520333E+00 0.15339379E+04</pdfrwt>
<pdfrwt beam="2">  1       -2 0.48817358E-01 0.15339379E+04</pdfrwt>
<totfact> 0.30847091E+01</totfact>
</mgrwt>
</event>
<event>
12    3  0.4634846E-008  0.2799735E+04  0.7818608E-02  0.8303351E-01
         -1   -1    0    0    0  501 -0.00000000000E+00  0.00000000000E+00  0.79799145094E+03  0.79799145094E+03  0.00000000000E+00 0.  1.
          1   -1    0    0  501    0  0.00000000000E+00 -0.00000000000E+00 -0.24557019413E+04  0.24557019413E+04  0.00000000000E+00 0. -1.
         23    2    1    2    0    0  0.18055867335E+03 -0.22083555628E+03 -0.21487590192E+04  0.21695408202E+04  0.91500112121E+02 0.  0.
        254    2    1    2    0    0 -0.18055867335E+03  0.22083555628E+03  0.49104852890E+03  0.10841525720E+04  0.92351955266E+03 0.  0.
         23    2    4    4    0    0  0.11296960180E+03 -0.19098953133E+02  0.64555407006E+03  0.66199713768E+03  0.91505475127E+02 0.  0.
         23    2    4    4    0    0 -0.29352827514E+03  0.23993450942E+03 -0.15450554116E+03  0.42215543429E+03  0.10303315649E+03 0.  0.
          3    1    3    3  502    0  0.98473209231E+02 -0.15834327042E+03 -0.16293699661E+04  0.16400048935E+04  0.00000000000E+00 0. -1.
         -3    1    3    3    0  502  0.82085464115E+02 -0.62492285864E+02 -0.51938905310E+03  0.52953592672E+03  0.00000000000E+00 0.  1.
         13    1    5    5    0    0  0.11576589420E+03  0.90639756938E+01  0.55900677746E+03  0.57093999261E+03  0.00000000000E+00 0. -1.
        -13    1    5    5    0    0 -0.27962923980E+01 -0.28162928826E+02  0.86547292607E+02  0.91057145073E+02  0.00000000000E+00 0.  1.
          4    1    6    6  503    0 -0.19292157338E+03  0.10428181026E+03 -0.54851482351E+02  0.22605776816E+03  0.00000000000E+00 0. -1.
         -4    1    6    6    0  503 -0.10060670176E+03  0.13565269916E+03 -0.99654058810E+02  0.19609766614E+03  0.00000000000E+00 0.  1.
<mgrwt>
<rscale>  0 0.27997351E+04</rscale>
<asrwt>0</asrwt>
<pdfrwt beam="1">  1        1 0.37780030E+00 0.27997351E+04</pdfrwt>
<pdfrwt beam="2">  1       -1 0.12276792E+00 0.27997351E+04</pdfrwt>
<totfact> 0.73640122E-01</totfact>
</mgrwt>
</event>
<event>
12    3  0.4634846E-008  0.1281476E+04  0.7818608E-02  0.9044386E-01
          2   -1    0    0  501    0  0.00000000000E+00  0.00000000000E+00  0.82920437375E+03  0.82920437375E+03  0.00000000000E+00 0. -1.
         -2   -1    0    0    0  501 -0.00000000000E+00 -0.00000000000E+00 -0.49510706765E+03  0.49510706765E+03  0.00000000000E+00 0.  1.
         23    2    1    2    0    0 -0.22630954801E+03 -0.13248447894E+03  0.58925294949E+00  0.27755565664E+03  0.90932099027E+02 0.  0.
        254    2    1    2    0    0  0.22630954801E+03  0.13248447894E+03  0.33350805315E+03  0.10467557848E+04  0.95692314359E+03 0.  0.
         23    2    4    4    0    0  0.16081051071E+03 -0.20212509039E+03 -0.24595379562E+03  0.36812005348E+03  0.91129203194E+02 0.  0.
         23    2    4    4    0    0  0.65499037307E+02  0.33460956933E+03  0.57946184877E+03  0.67863573129E+03  0.92286151844E+02 0.  0.
          4    1    3    3  502    0 -0.36419753998E+02 -0.62228143292E+02 -0.17755588940E+02  0.74256321195E+02  0.00000000000E+00 0. -1.
         -4    1    3    3    0  502 -0.18988979401E+03 -0.70256335651E+02  0.18344841889E+02  0.20329933545E+03  0.00000000000E+00 0.  1.
         13    1    5    5    0    0  0.10101183961E+03 -0.80750395212E+02 -0.72914569905E+02  0.14846060950E+03  0.00000000000E+00 0.  1.
        -13    1    5    5    0    0  0.59798671098E+02 -0.12137469518E+03 -0.17303922571E+03  0.21965944398E+03  0.00000000000E+00 0. -1.
          2    1    6    6  503    0  0.41650202008E+02  0.40590437408E+02  0.89967366235E+02  0.10712819388E+03  0.00000000000E+00 0.  1.
         -2    1    6    6    0  503  0.23848835299E+02  0.29401913193E+03  0.48949448253E+03  0.57150753741E+03  0.00000000000E+00 0. -1.
<mgrwt>
<rscale>  0 0.12814756E+04</rscale>
<asrwt>0</asrwt>
<pdfrwt beam="1">  1        2 0.12756990E+00 0.12814756E+04</pdfrwt>
<pdfrwt beam="2">  1       -2 0.76170318E-01 0.12814756E+04</pdfrwt>
<totfact> 0.49723289E+01</totfact>
</mgrwt>
</event>
<event>
12    3  0.4634846E-008  0.2484423E+04  0.7818608E-02  0.8408556E-01
          2   -1    0    0  501    0  0.00000000000E+00  0.00000000000E+00  0.20850359686E+04  0.20850359686E+04  0.00000000000E+00 0. -1.
         -2   -1    0    0    0  501 -0.00000000000E+00 -0.00000000000E+00 -0.74007801923E+03  0.74007801923E+03  0.00000000000E+00 0.  1.
         23    2    1    2    0    0  0.68955651439E+03 -0.52204697200E+03 -0.15402040240E+03  0.88288963469E+03  0.88037464652E+02 0.  0.
        254    2    1    2    0    0 -0.68955651439E+03  0.52204697200E+03  0.14989783517E+04  0.19422243531E+04  0.88163377391E+03 0.  0.
         23    2    4    4    0    0 -0.74411448865E+02  0.30567658544E+02  0.99467166454E+03  0.10022257662E+04  0.92807977587E+02 0.  0.
         23    2    4    4    0    0 -0.61514506552E+03  0.49147931346E+03  0.50430668721E+03  0.93999858692E+03  0.96523269010E+02 0.  0.
          2    1    3    3  502    0  0.50093473615E+02 -0.41419747256E+02 -0.35941218024E+02  0.74274643820E+02  0.00000000000E+00 0. -1.
         -2    1    3    3    0  502  0.63946304077E+03 -0.48062722475E+03 -0.11807918437E+03  0.80861499087E+03  0.00000000000E+00 0.  1.
         13    1    5    5    0    0  0.20734978451E+02 -0.46311360738E+01  0.15573773511E+03  0.15718024332E+03  0.00000000000E+00 0.  1.
        -13    1    5    5    0    0 -0.95146427317E+02  0.35198794618E+02  0.83893392943E+03  0.84504552287E+03  0.00000000000E+00 0. -1.
          4    1    6    6  503    0 -0.16614935855E+03  0.14250128567E+03  0.91244899477E+02  0.23714522438E+03  0.00000000000E+00 0. -1.
         -4    1    6    6    0  503 -0.44899570698E+03  0.34897802778E+03  0.41306178773E+03  0.70285336255E+03  0.00000000000E+00 0.  1.
<mgrwt>
<rscale>  0 0.24844229E+04</rscale>
<asrwt>0</asrwt>
<pdfrwt beam="1">  1        2 0.32077476E+00 0.24844229E+04</pdfrwt>
<pdfrwt beam="2">  1       -2 0.11385816E+00 0.24844229E+04</pdfrwt>
<totfact> 0.32318270E+00</totfact>
</mgrwt>
</event>
<event>
12    3  0.4634846E-008  0.2814245E+04  0.7818608E-02  0.8298859E-01
          1   -1    0    0  501    0  0.00000000000E+00  0.00000000000E+00  0.19453145456E+04  0.19453145456E+04  0.00000000000E+00 0. -1.
         -1   -1    0    0    0  501 -0.00000000000E+00 -0.00000000000E+00 -0.10178271800E+04  0.10178271800E+04  0.00000000000E+00 0.  1.
         23    2    1    2    0    0 -0.11815101043E+04 -0.38848981496E+03  0.63035615757E+03  0.13972678783E+04  0.90100916980E+02 0.  0.
        254    2    1    2    0    0  0.11815101043E+04  0.38848981496E+03  0.29713120807E+03  0.15658738474E+04  0.90376074714E+03 0.  0.
         23    2    4    4    0    0  0.22028553701E+03  0.24771152479E+03  0.46220436992E+03  0.57659082358E+03  0.94537722257E+02 0.  0.
         23    2    4    4    0    0  0.96122456732E+03  0.14077829016E+03 -0.16507316185E+03  0.98928302378E+03  0.87524605453E+02 0.  0.
          3    1    3    3  502    0 -0.13494950428E+03 -0.49485002488E+02  0.10600282382E+03  0.17859656446E+03  0.00000000000E+00 0. -1.
         -3    1    3    3    0  502 -0.10465606000E+04 -0.33900481247E+03  0.52435333375E+03  0.12186713138E+04  0.00000000000E+00 0.  1.
         13    1    5    5    0    0 -0.52271619397E+01  0.97842676643E+01  0.43109622854E+02  0.44513983177E+02  0.00000000000E+00 0. -1.
        -13    1    5    5    0    0  0.22551269895E+03  0.23792725713E+03  0.41909474707E+03  0.53207684040E+03  0.00000000000E+00 0.  1.
          3    1    6    6  503    0  0.42768455241E+03  0.69736475795E+02 -0.30145601450E+02  0.43438002914E+03  0.00000000000E+00 0. -1.
         -3    1    6    6    0  503  0.53354001491E+03  0.71041814369E+02 -0.13492756040E+03  0.55490299464E+03  0.00000000000E+00 0.  1.
<mgrwt>
<rscale>  0 0.28142452E+04</rscale>
<asrwt>0</asrwt>
<pdfrwt beam="1">  1        1 0.29927916E+00 0.28142452E+04</pdfrwt>
<pdfrwt beam="2">  1       -1 0.15658880E+00 0.28142452E+04</pdfrwt>
<totfact> 0.87078962E-01</totfact>
</mgrwt>
</event>
<event>
12    3  0.4634846E-008  0.1929102E+04  0.7818608E-02  0.8640505E-01
         -2   -1    0    0    0  501 -0.00000000000E+00  0.00000000000E+00  0.45261504572E+03  0.45261504572E+03  0.00000000000E+00 0.  1.
          2   -1    0    0  501    0  0.00000000000E+00 -0.00000000000E+00 -0.20555180481E+04  0.20555180481E+04  0.00000000000E+00 0. -1.
         23    2    1    2    0    0  0.70641698743E+03 -0.24042725691E+03 -0.56430523574E+03  0.93991590542E+03  0.90395155703E+02 0.  0.
        254    2    1    2    0    0 -0.70641698743E+03  0.24042725691E+03 -0.10385977666E+04  0.15682171884E+04  0.90762856010E+03 0.  0.
         23    2    4    4    0    0 -0.59328088878E+03  0.16598118415E+03 -0.11768796533E+03  0.63386916266E+03  0.91693466030E+02 0.  0.
         23    2    4    4    0    0 -0.11313609865E+03  0.74446072764E+02 -0.92090980129E+03  0.93434802572E+03  0.81174974448E+02 0.  0.
          4    1    3    3  502    0  0.53521089261E+03 -0.18725190871E+03 -0.37862386870E+03  0.68181376550E+03  0.00000000000E+00 0. -1.
         -4    1    3    3    0  502  0.17120609482E+03 -0.53175348197E+02 -0.18568136705E+03  0.25810213992E+03  0.00000000000E+00 0.  1.
         13    1    5    5    0    0 -0.34903728104E+02  0.16113852857E+02  0.14013823705E+02  0.40918379053E+02  0.00000000000E+00 0.  1.
        -13    1    5    5    0    0 -0.55837716067E+03  0.14986733129E+03 -0.13170178903E+03  0.59295078361E+03  0.00000000000E+00 0. -1.
          2    1    6    6  503    0 -0.46818302186E+02  0.63786941950E+02 -0.31748509896E+03  0.32719644779E+03  0.00000000000E+00 0.  1.
         -2    1    6    6    0  503 -0.66317796468E+02  0.10659130814E+02 -0.60342470233E+03  0.60715157793E+03  0.00000000000E+00 0. -1.
<mgrwt>
<rscale>  0 0.19291018E+04</rscale>
<asrwt>0</asrwt>
<pdfrwt beam="1">  1        2 0.31623354E+00 0.19291018E+04</pdfrwt>
<pdfrwt beam="2">  1       -2 0.69633085E-01 0.19291018E+04</pdfrwt>
<totfact> 0.10931353E+01</totfact>
</mgrwt>
</event>
<event>
12    3  0.4634846E-008  0.1310982E+04  0.7818608E-02  0.9020901E-01
          2   -1    0    0  501    0  0.00000000000E+00  0.00000000000E+00  0.25405685589E+04  0.25405685589E+04  0.00000000000E+00 0.  1.
         -2   -1    0    0    0  501 -0.00000000000E+00 -0.00000000000E+00 -0.16912307877E+03  0.16912307877E+03  0.00000000000E+00 0. -1.
         23    2    1    2    0    0  0.29540528185E+03 -0.15998757520E+03  0.51220583491E+03  0.61825172061E+03  0.83785845788E+02 0.  0.
        254    2    1    2    0    0 -0.29540528185E+03  0.15998757520E+03  0.18592396452E+04  0.20914399170E+04  0.89693286458E+03 0.  0.
         23    2    4    4    0    0  0.24173324754E+03  0.16807093864E+03  0.26375262411E+03  0.40521500023E+03  0.89168078961E+02 0.  0.
         23    2    4    4    0    0 -0.53713852939E+03 -0.80833634336E+01  0.15954870211E+04  0.16862249168E+04  0.95877500553E+02 0.  0.
          2    1    3    3  502    0  0.19374253925E+03 -0.14154628585E+03  0.39344338053E+03  0.46083534612E+03  0.00000000000E+00 0. -1.
         -2    1    3    3    0  502  0.10166274260E+03 -0.18441289351E+02  0.11876245438E+03  0.15741637449E+03  0.00000000000E+00 0.  1.
         13    1    5    5    0    0  0.55789579002E+02 -0.15794528032E+01  0.52052583504E+02  0.76318040107E+02  0.00000000000E+00 0.  1.
        -13    1    5    5    0    0  0.18594366854E+03  0.16965039144E+03  0.21170004061E+03  0.32889696012E+03  0.00000000000E+00 0. -1.
          4    1    6    6  503    0 -0.37990077132E+03 -0.47696043494E+02  0.10822990127E+04  0.11480290334E+04  0.00000000000E+00 0. -1.
         -4    1    6    6    0  503 -0.15723775807E+03  0.39612680060E+02  0.51318800836E+03  0.53819588341E+03  0.00000000000E+00 0.  1.
<mgrwt>
<rscale>  0 0.13109825E+04</rscale>
<asrwt>0</asrwt>
<pdfrwt beam="1">  1        2 0.39085667E+00 0.13109825E+04</pdfrwt>
<pdfrwt beam="2">  1       -2 0.26018937E-01 0.13109825E+04</pdfrwt>
<totfact> 0.43295252E+01</totfact>
</mgrwt>
</event>
<event>
12    3  0.4634846E-008  0.2090951E+04  0.7818608E-02  0.8565240E-01
          2   -1    0    0  501    0  0.00000000000E+00  0.00000000000E+00  0.43335717293E+03  0.43335717293E+03  0.00000000000E+00 0. -1.
         -2   -1    0    0    0  501 -0.00000000000E+00 -0.00000000000E+00 -0.25222122415E+04  0.25222122415E+04  0.00000000000E+00 0.  1.
         23    2    1    2    0    0  0.15132327502E+03  0.70661343770E+03 -0.24766948371E+03  0.76906334580E+03  0.88977372284E+02 0.  0.
        254    2    1    2    0    0 -0.15132327502E+03 -0.70661343770E+03 -0.18411855849E+04  0.21865060686E+04  0.93201027161E+03 0.  0.
         23    2    4    4    0    0  0.17604459420E+03  0.15442637712E+03 -0.33329882108E+03  0.41711633087E+03  0.89770397421E+02 0.  0.
         23    2    4    4    0    0 -0.32736786922E+03 -0.86103981483E+03 -0.15078867638E+04  0.17693897378E+04  0.91968838212E+02 0.  0.
          1    1    3    3  502    0  0.16008252902E+03  0.67908084299E+03 -0.24711969180E+03  0.74016575811E+03  0.00000000000E+00 0. -1.
         -1    1    3    3    0  502 -0.87592540036E+01  0.27532594718E+02 -0.54979190636E+00  0.28897587680E+02  0.00000000000E+00 0.  1.
         13    1    5    5    0    0  0.16304634741E+03  0.12593409050E+03 -0.22814543410E+03  0.30739851277E+03  0.00000000000E+00 0.  1.
        -13    1    5    5    0    0  0.12998246788E+02  0.28492286623E+02 -0.10515338697E+03  0.10971781810E+03  0.00000000000E+00 0. -1.
          3    1    6    6  503    0 -0.41298165231E+02 -0.13782555265E+03 -0.30090860236E+03  0.33353771659E+03  0.00000000000E+00 0. -1.
         -3    1    6    6    0  503 -0.28606970399E+03 -0.72321426218E+03 -0.12069781614E+04  0.14358520212E+04  0.00000000000E+00 0.  1.
<mgrwt>
<rscale>  0 0.20909508E+04</rscale>
<asrwt>0</asrwt>
<pdfrwt beam="1">  1        2 0.66670334E-01 0.20909508E+04</pdfrwt>
<pdfrwt beam="2">  1       -2 0.38803265E+00 0.20909508E+04</pdfrwt>
<totfact> 0.59616598E-01</totfact>
</mgrwt>
</event>
<event>
12    3  0.4634846E-008  0.1014176E+04  0.7818608E-02  0.9293132E-01
          3   -1    0    0  501    0  0.00000000000E+00  0.00000000000E+00  0.40632456893E+03  0.40632456893E+03  0.00000000000E+00 0. -1.
         -3   -1    0    0    0  501 -0.00000000000E+00 -0.00000000000E+00 -0.63283993807E+03  0.63283993807E+03  0.00000000000E+00 0.  1.
         23    2    1    2    0    0  0.14471243387E+02  0.58416666980E+02 -0.36742237312E+02  0.11516979541E+03  0.91061330469E+02 0.  0.
        254    2    1    2    0    0 -0.14471243387E+02 -0.58416666980E+02 -0.18977313182E+03  0.92399471159E+03  0.90229178297E+03 0.  0.
         23    2    4    4    0    0 -0.69156301955E+01  0.34997354857E+02  0.35264171556E+03  0.36590431658E+03  0.90868853577E+02 0.  0.
         23    2    4    4    0    0 -0.75556131916E+01 -0.93414021837E+02 -0.54241484738E+03  0.55809039501E+03  0.92020408480E+02 0.  0.
          4    1    3    3  502    0  0.15693893232E+02 -0.41121692662E+01  0.23353270517E+02  0.28435602063E+02  0.00000000000E+00 0. -1.
         -4    1    3    3    0  502 -0.12226498445E+01  0.62528836246E+02 -0.60095507830E+02  0.86734193351E+02  0.00000000000E+00 0.  1.
         13    1    5    5    0    0  0.22971728619E+02 -0.13557578870E+02  0.39816285404E+02  0.47925409168E+02  0.00000000000E+00 0. -1.
        -13    1    5    5    0    0 -0.29887358815E+02  0.48554933727E+02  0.31282543015E+03  0.31797890741E+03  0.00000000000E+00 0.  1.
          2    1    6    6  503    0 -0.26244813107E+02  0.34854679182E+01 -0.58449531999E+02  0.64166085221E+02  0.00000000000E+00 0. -1.
         -2    1    6    6    0  503  0.18689199916E+02 -0.96899489756E+02 -0.48396531538E+03  0.49392430979E+03  0.00000000000E+00 0.  1.
<mgrwt>
<rscale>  0 0.10141763E+04</rscale>
<asrwt>0</asrwt>
<pdfrwt beam="1">  1        3 0.62511472E-01 0.10141763E+04</pdfrwt>
<pdfrwt beam="2">  1       -3 0.97359991E-01 0.10141763E+04</pdfrwt>
<totfact> 0.60537994E+00</totfact>
</mgrwt>
</event>
<event>
12    3  0.4634846E-008  0.1342129E+04  0.7818608E-02  0.8996808E-01
         -1   -1    0    0    0  501 -0.00000000000E+00  0.00000000000E+00  0.31641671170E+03  0.31641671170E+03  0.00000000000E+00 0.  1.
          1   -1    0    0  501    0  0.00000000000E+00 -0.00000000000E+00 -0.14232103417E+04  0.14232103417E+04  0.00000000000E+00 0. -1.
         23    2    1    2    0    0 -0.93845204179E+02  0.29678929494E+03 -0.65986727171E+02  0.33635150859E+03  0.10902880917E+03 0.  0.
        254    2    1    2    0    0  0.93845204179E+02 -0.29678929494E+03 -0.10408069028E+04  0.14032755448E+04  0.88826372084E+03 0.  0.
         23    2    4    4    0    0  0.56250486320E+02 -0.14778153091E+02 -0.10948125401E+04  0.10996399113E+04  0.84917168951E+02 0.  0.
         23    2    4    4    0    0  0.37594717860E+02 -0.28201114185E+03  0.54005637261E+02  0.30363563351E+03  0.91292618228E+02 0.  0.
          2    1    3    3  502    0  0.35207203355E+01  0.10642660722E+03 -0.60482416245E+02  0.12246281424E+03  0.00000000000E+00 0. -1.
         -2    1    3    3    0  502 -0.97365924515E+02  0.19036268772E+03 -0.55043109263E+01  0.21388869435E+03  0.00000000000E+00 0.  1.
         13    1    5    5    0    0  0.23926508748E+02  0.30697406808E+02 -0.25254514400E+03  0.25552662946E+03  0.00000000000E+00 0. -1.
        -13    1    5    5    0    0  0.32323977571E+02 -0.45475559899E+02 -0.84226739608E+03  0.84411328184E+03  0.00000000000E+00 0.  1.
          4    1    6    6  503    0  0.14144796328E+02 -0.24144797607E+03  0.14408600338E+02  0.24229075132E+03  0.00000000000E+00 0. -1.
         -4    1    6    6    0  503  0.23449921532E+02 -0.40563165781E+02  0.39597036923E+02  0.61344882192E+02  0.00000000000E+00 0.  1.
<mgrwt>
<rscale>  0 0.13421290E+04</rscale>
<asrwt>0</asrwt>
<pdfrwt beam="1">  1        1 0.21895544E+00 0.13421290E+04</pdfrwt>
<pdfrwt beam="2">  1       -1 0.48679495E-01 0.13421290E+04</pdfrwt>
<totfact> 0.30605804E+01</totfact>
</mgrwt>
</event>
<event>
12    3  0.4634846E-008  0.1361645E+04  0.7818608E-02  0.8982059E-01
         -1   -1    0    0    0  501 -0.00000000000E+00  0.00000000000E+00  0.11119953859E+04  0.11119953859E+04  0.00000000000E+00 0.  1.
          1   -1    0    0  501    0  0.00000000000E+00 -0.00000000000E+00 -0.41683565065E+03  0.41683565065E+03  0.00000000000E+00 0. -1.
         23    2    1    2    0    0  0.55273251820E+02  0.31427632978E+03 -0.67443850202E+01  0.33232670799E+03  0.92578670816E+02 0.  0.
        254    2    1    2    0    0 -0.55273251820E+02 -0.31427632978E+03  0.70190412023E+03  0.11965043285E+04  0.91494725003E+03 0.  0.
         23    2    4    4    0    0  0.31370853512E+03 -0.45674891773E+03  0.43693216606E+03  0.71165736246E+03  0.92270607189E+02 0.  0.
         23    2    4    4    0    0 -0.36898178694E+03  0.14247258795E+03  0.26497195416E+03  0.48484696605E+03  0.91762991385E+02 0.  0.
          2    1    3    3  502    0  0.17511651974E+02  0.26458161044E+03  0.16624959392E+02  0.26568115442E+03  0.00000000000E+00 0. -1.
         -2    1    3    3    0  502  0.37761599845E+02  0.49694719338E+02 -0.23369344412E+02  0.66645553574E+02  0.00000000000E+00 0.  1.
         13    1    5    5    0    0  0.27108148010E+03 -0.37359348143E+03  0.40134451861E+03  0.61166549751E+03  0.00000000000E+00 0.  1.
        -13    1    5    5    0    0  0.42627055015E+02 -0.83155436304E+02  0.35587647451E+02  0.99991864956E+02  0.00000000000E+00 0. -1.
          3    1    6    6  503    0 -0.40744842696E+02  0.35704844740E+02  0.69685927303E+02  0.88267245388E+02  0.00000000000E+00 0. -1.
         -3    1    6    6    0  503 -0.32823694424E+03  0.10676774321E+03  0.19528602686E+03  0.39657972067E+03  0.00000000000E+00 0.  1.
<mgrwt>
<rscale>  0 0.13616451E+04</rscale>
<asrwt>0</asrwt>
<pdfrwt beam="1">  1        1 0.64128562E-01 0.13616451E+04</pdfrwt>
<pdfrwt beam="2">  1       -1 0.17107621E+00 0.13616451E+04</pdfrwt>
<totfact> 0.13414798E+01</totfact>
</mgrwt>
</event>
<event>
12    3  0.4634846E-008  0.2467829E+04  0.7818608E-02  0.8414537E-01
         -2   -1    0    0    0  501 -0.00000000000E+00  0.00000000000E+00  0.14970834703E+04  0.14970834703E+04  0.00000000000E+00 0.  1.
          2   -1    0    0  501    0  0.00000000000E+00 -0.00000000000E+00 -0.10170076960E+04  0.10170076960E+04  0.00000000000E+00 0. -1.
         23    2    1    2    0    0 -0.81778883456E+02 -0.27436675828E+03 -0.84026732081E+03  0.89227433326E+03  0.90218687327E+02 0.  0.
        254    2    1    2    0    0  0.81778883456E+02  0.27436675828E+03  0.13203430951E+04  0.16218168330E+04  0.89722853677E+03 0.  0.
         23    2    4    4    0    0  0.28601934794E+02 -0.30560086401E+03  0.67630631341E+03  0.74853934058E+03  0.93332502816E+02 0.  0.
         23    2    4    4    0    0  0.53176948662E+02  0.57996762229E+03  0.64403678171E+03  0.87327749244E+03  0.92951448779E+02 0.  0.
          2    1    3    3  502    0 -0.37278673364E+02 -0.24018277234E+03 -0.70939658524E+03  0.74988064301E+03  0.00000000000E+00 0. -1.
         -2    1    3    3    0  502 -0.44500210093E+02 -0.34183985942E+02 -0.13087073557E+03  0.14239369024E+03  0.00000000000E+00 0.  1.
         13    1    5    5    0    0 -0.27758689897E+02 -0.38288221322E+02  0.88217305853E+02  0.10009408478E+03  0.00000000000E+00 0. -1.
        -13    1    5    5    0    0  0.56360624691E+02 -0.26731264269E+03  0.58808900756E+03  0.64844525580E+03  0.00000000000E+00 0.  1.
          3    1    6    6  503    0  0.41054013817E+01  0.87503870465E+02  0.15179558042E+03  0.17525889393E+03  0.00000000000E+00 0. -1.
         -3    1    6    6    0  503  0.49071547280E+02  0.49246375182E+03  0.49224120129E+03  0.69801859850E+03  0.00000000000E+00 0.  1.
<mgrwt>
<rscale>  0 0.24678293E+04</rscale>
<asrwt>0</asrwt>
<pdfrwt beam="1">  1        2 0.15646272E+00 0.24678293E+04</pdfrwt>
<pdfrwt beam="2">  1       -2 0.23032054E+00 0.24678293E+04</pdfrwt>
<totfact> 0.18691114E+00</totfact>
</mgrwt>
</event>
<event>
12    3  0.4634846E-008  0.2095200E+04  0.7818608E-02  0.8563361E-01
          1   -1    0    0  501    0  0.00000000000E+00  0.00000000000E+00  0.78434558158E+03  0.78434558158E+03  0.00000000000E+00 0. -1.
         -1   -1    0    0    0  501 -0.00000000000E+00 -0.00000000000E+00 -0.13992119097E+04  0.13992119097E+04  0.00000000000E+00 0.  1.
         23    2    1    2    0    0 -0.44006490142E+03  0.11116868766E+03  0.50408515540E+03  0.68480548734E+03  0.94027214206E+02 0.  0.
        254    2    1    2    0    0  0.44006490142E+03 -0.11116868766E+03 -0.11189514835E+04  0.14987520040E+04  0.88780040115E+03 0.  0.
         23    2    4    4    0    0  0.50967272154E+03 -0.28151342579E+03 -0.31376276855E+03  0.66761803125E+03  0.90833191857E+02 0.  0.
         23    2    4    4    0    0 -0.69607820118E+02  0.17034473813E+03 -0.80518871498E+03  0.83113397270E+03  0.92694311691E+02 0.  0.
          4    1    3    3  502    0 -0.57743484530E+01 -0.77618315838E+01  0.11336749731E+01  0.97403464279E+01  0.00000000000E+00 0.  1.
         -4    1    3    3    0  502 -0.43429055297E+03  0.11893051924E+03  0.50295148043E+03  0.67506514091E+03  0.00000000000E+00 0. -1.
         13    1    5    5    0    0  0.31624048560E+03 -0.12377921892E+03 -0.17476803586E+03  0.38193351009E+03  0.00000000000E+00 0.  1.
        -13    1    5    5    0    0  0.19343223594E+03 -0.15773420687E+03 -0.13899473269E+03  0.28568452116E+03  0.00000000000E+00 0. -1.
          3    1    6    6  503    0 -0.49407644097E+02  0.16365143647E+03 -0.57258288827E+03  0.59755675203E+03  0.00000000000E+00 0. -1.
         -3    1    6    6    0  503 -0.20200176021E+02  0.66933016516E+01 -0.23260582671E+03  0.23357722067E+03  0.00000000000E+00 0.  1.
<mgrwt>
<rscale>  0 0.20951999E+04</rscale>
<asrwt>0</asrwt>
<pdfrwt beam="1">  1        1 0.12066855E+00 0.20951999E+04</pdfrwt>
<pdfrwt beam="2">  1       -1 0.21526337E+00 0.20951999E+04</pdfrwt>
<totfact> 0.24862631E+00</totfact>
</mgrwt>
</event>
<event>
12    3  0.4634846E-008  0.1409089E+04  0.7818608E-02  0.8947265E-01
         -1   -1    0    0    0  501 -0.00000000000E+00  0.00000000000E+00  0.61014937368E+03  0.61014937368E+03  0.00000000000E+00 0.  1.
          1   -1    0    0  501    0  0.00000000000E+00 -0.00000000000E+00 -0.81354369270E+03  0.81354369270E+03  0.00000000000E+00 0. -1.
         23    2    1    2    0    0 -0.65288215871E+02  0.34103618194E+03 -0.27508858900E+03  0.45200074430E+03  0.89792608395E+02 0.  0.
        254    2    1    2    0    0  0.65288215871E+02 -0.34103618194E+03  0.71694269987E+02  0.97169232208E+03  0.90469755826E+03 0.  0.
         23    2    4    4    0    0  0.87077140154E+02 -0.12142382743E+03  0.47472357614E+03  0.50513106773E+03  0.86421916407E+02 0.  0.
         23    2    4    4    0    0 -0.21788924283E+02 -0.21961235451E+03 -0.40302930616E+03  0.46656125435E+03  0.80885344545E+02 0.  0.
          3    1    3    3  502    0 -0.13702471578E+02  0.27255986752E+03 -0.20757199926E+03  0.34287428307E+03  0.00000000000E+00 0. -1.
         -3    1    3    3    0  502 -0.51585744294E+02  0.68476314419E+02 -0.67516589744E+02  0.10912646123E+03  0.00000000000E+00 0.  1.
         13    1    5    5    0    0  0.53786269488E+02 -0.12292097679E+02  0.11141235160E+03  0.12432526107E+03  0.00000000000E+00 0. -1.
        -13    1    5    5    0    0  0.33290870666E+02 -0.10913172975E+03  0.36331122455E+03  0.38080580666E+03  0.00000000000E+00 0.  1.
          1    1    6    6  503    0 -0.51076246117E+02 -0.13091392697E+03 -0.21950405276E+03  0.26063243921E+03  0.00000000000E+00 0. -1.
         -1    1    6    6    0  503  0.29287321835E+02 -0.88698427542E+02 -0.18352525340E+03  0.20592881514E+03  0.00000000000E+00 0.  1.
<mgrwt>
<rscale>  0 0.14090893E+04</rscale>
<asrwt>0</asrwt>
<pdfrwt beam="1">  1        1 0.12516057E+00 0.14090893E+04</pdfrwt>
<pdfrwt beam="2">  1       -1 0.93869134E-01 0.14090893E+04</pdfrwt>
<totfact> 0.23071144E+01</totfact>
</mgrwt>
</event>
<event>
12    3  0.4634846E-008  0.1812502E+04  0.7818608E-02  0.8699679E-01
          2   -1    0    0  501    0  0.00000000000E+00  0.00000000000E+00  0.20357122992E+04  0.20357122992E+04  0.00000000000E+00 0. -1.
         -2   -1    0    0    0  501 -0.00000000000E+00 -0.00000000000E+00 -0.40344131537E+03  0.40344131537E+03  0.00000000000E+00 0.  1.
         23    2    1    2    0    0 -0.15444541231E+03 -0.18940787911E+03 -0.23526148689E+03  0.35096348973E+03  0.89992632249E+02 0.  0.
        254    2    1    2    0    0  0.15444541231E+03  0.18940787911E+03  0.18675324707E+04  0.20881901248E+04  0.90173817608E+03 0.  0.
         23    2    4    4    0    0 -0.12188195459E+02 -0.94529970154E+02 -0.50666716069E+02  0.13985887401E+03  0.88932115438E+02 0.  0.
         23    2    4    4    0    0  0.16663360777E+03  0.28393784926E+03  0.19181991868E+04  0.19483312508E+04  0.90105944607E+02 0.  0.
          1    1    3    3  502    0 -0.12117706245E+02  0.63901867670E+01 -0.42412412949E+00  0.13705953919E+02  0.00000000000E+00 0. -1.
         -1    1    3    3    0  502 -0.14232770606E+03 -0.19579806587E+03 -0.23483736276E+03  0.33725753581E+03  0.00000000000E+00 0.  1.
         13    1    5    5    0    0 -0.31090865577E+02 -0.10312491669E+03 -0.33159423771E+02  0.11269843721E+03  0.00000000000E+00 0.  1.
        -13    1    5    5    0    0  0.18902670118E+02  0.85949465363E+01 -0.17507292298E+02  0.27160436800E+02  0.00000000000E+00 0. -1.
          3    1    6    6  503    0 -0.13643699431E+01  0.66673933140E+02  0.37153468829E+03  0.37747224993E+03  0.00000000000E+00 0. -1.
         -3    1    6    6    0  503  0.16799797771E+03  0.21726391612E+03  0.15466644985E+04  0.15708590009E+04  0.00000000000E+00 0.  1.
<mgrwt>
<rscale>  0 0.18125015E+04</rscale>
<asrwt>0</asrwt>
<pdfrwt beam="1">  1        2 0.31318650E+00 0.18125015E+04</pdfrwt>
<pdfrwt beam="2">  1       -2 0.62067896E-01 0.18125015E+04</pdfrwt>
<totfact> 0.14506718E+01</totfact>
</mgrwt>
</event>
<event>
12    3  0.4634846E-008  0.1625070E+04  0.7818608E-02  0.8805293E-01
          1   -1    0    0  501    0  0.00000000000E+00  0.00000000000E+00  0.14911958009E+04  0.14911958009E+04  0.00000000000E+00 0. -1.
         -1   -1    0    0    0  501 -0.00000000000E+00 -0.00000000000E+00 -0.44274071958E+03  0.44274071958E+03  0.00000000000E+00 0.  1.
         23    2    1    2    0    0  0.12333381197E+02 -0.56745496015E+03  0.36463495758E+03  0.68053709196E+03  0.89525622904E+02 0.  0.
        254    2    1    2    0    0 -0.12333381197E+02  0.56745496015E+03  0.68382012371E+03  0.12533994285E+04  0.88387947234E+03 0.  0.
         23    2    4    4    0    0  0.29409888868E+03  0.46220629886E+03  0.72566876187E+03  0.91387966742E+03  0.91935170363E+02 0.  0.
         23    2    4    4    0    0 -0.30643226987E+03  0.10524866129E+03 -0.41848638162E+02  0.33951976105E+03  0.92435614915E+02 0.  0.
          3    1    3    3  502    0  0.15138332785E+02 -0.17374336970E+03  0.16062437295E+03  0.23709938174E+03  0.00000000000E+00 0. -1.
         -3    1    3    3    0  502 -0.28049515883E+01 -0.39371159045E+03  0.20401058462E+03  0.44343771022E+03  0.00000000000E+00 0.  1.
         13    1    5    5    0    0  0.16023255138E+02  0.83538391704E+02  0.96056610467E+02  0.12830541691E+03  0.00000000000E+00 0.  1.
        -13    1    5    5    0    0  0.27807563354E+03  0.37866790716E+03  0.62961215140E+03  0.78557425052E+03  0.00000000000E+00 0. -1.
          4    1    6    6  503    0 -0.29073632589E+03  0.74017290039E+02 -0.25981492044E+02  0.30113320698E+03  0.00000000000E+00 0. -1.
         -4    1    6    6    0  503 -0.15695943988E+02  0.31231371251E+02 -0.15867146118E+02  0.38386554075E+02  0.00000000000E+00 0.  1.
<mgrwt>
<rscale>  0 0.16250700E+04</rscale>
<asrwt>0</asrwt>
<pdfrwt beam="1">  1        1 0.22941474E+00 0.16250700E+04</pdfrwt>
<pdfrwt beam="2">  1       -1 0.68113957E-01 0.16250700E+04</pdfrwt>
<totfact> 0.13861659E+01</totfact>
</mgrwt>
</event>
<event>
12    3  0.4634846E-008  0.2360594E+04  0.7818608E-02  0.8454406E-01
          1   -1    0    0  501    0  0.00000000000E+00  0.00000000000E+00  0.19735494471E+04  0.19735494471E+04  0.00000000000E+00 0. -1.
         -1   -1    0    0    0  501 -0.00000000000E+00 -0.00000000000E+00 -0.70588580674E+03  0.70588580674E+03  0.00000000000E+00 0.  1.
         23    2    1    2    0    0  0.44393944422E+01 -0.10067037089E+04  0.52707448608E+03  0.11399061666E+04  0.90036042599E+02 0.  0.
        254    2    1    2    0    0 -0.44393944422E+01  0.10067037089E+04  0.74058915433E+03  0.15395290873E+04  0.89900247454E+03 0.  0.
         23    2    4    4    0    0  0.30804149430E+03  0.72195834635E+03  0.14450654968E+03  0.80309590709E+03  0.89260724915E+02 0.  0.
         23    2    4    4    0    0 -0.31248088874E+03  0.28474536260E+03  0.59608260464E+03  0.73643318018E+03  0.91077604069E+02 0.  0.
          3    1    3    3  502    0  0.22464702105E+02 -0.17482488880E+03  0.63106962366E+02  0.18721883795E+03  0.00000000000E+00 0. -1.
         -3    1    3    3    0  502 -0.18025307662E+02 -0.83187882015E+03  0.46396752371E+03  0.95268732866E+03  0.00000000000E+00 0.  1.
         13    1    5    5    0    0  0.26523096813E+03  0.62815866244E+03  0.94080225156E+02  0.68831813896E+03  0.00000000000E+00 0.  1.
        -13    1    5    5    0    0  0.42810526173E+02  0.93799683912E+02  0.50426324528E+02  0.11477776814E+03  0.00000000000E+00 0. -1.
          2    1    6    6  503    0 -0.18710085667E+02  0.33431680706E+02  0.21599398984E+02  0.43980434479E+02  0.00000000000E+00 0. -1.
         -2    1    6    6    0  503 -0.29377080308E+03  0.25131368189E+03  0.57448320566E+03  0.69245274570E+03  0.00000000000E+00 0.  1.
<mgrwt>
<rscale>  0 0.23605936E+04</rscale>
<asrwt>0</asrwt>
<pdfrwt beam="1">  1        1 0.30362299E+00 0.23605936E+04</pdfrwt>
<pdfrwt beam="2">  1       -1 0.10859782E+00 0.23605936E+04</pdfrwt>
<totfact> 0.21964882E+00</totfact>
</mgrwt>
</event>
<event>
12    3  0.4634846E-008  0.1422604E+04  0.7818608E-02  0.8937617E-01
          1   -1    0    0  501    0  0.00000000000E+00  0.00000000000E+00  0.19513769262E+03  0.19513769262E+03  0.00000000000E+00 0. -1.
         -1   -1    0    0    0  501 -0.00000000000E+00 -0.00000000000E+00 -0.25927891081E+04  0.25927891081E+04  0.00000000000E+00 0.  1.
         23    2    1    2    0    0  0.92282254713E+02 -0.30885260338E+03 -0.12905327706E+04  0.13333264398E+04  0.91534791741E+02 0.  0.
        254    2    1    2    0    0 -0.92282254713E+02  0.30885260338E+03 -0.11071186449E+04  0.14546003609E+04  0.88670433111E+03 0.  0.
         23    2    4    4    0    0 -0.35998869417E+03  0.46631527034E+03 -0.55365266490E+03  0.81335814550E+03  0.89321935865E+02 0.  0.
         23    2    4    4    0    0  0.26770643946E+03 -0.15746266696E+03 -0.55346598001E+03  0.64124221538E+03  0.91682923937E+02 0.  0.
          4    1    3    3  502    0  0.57635003677E+01 -0.11174938991E+03 -0.31375899390E+03  0.33311537091E+03  0.00000000000E+00 0. -1.
         -4    1    3    3    0  502  0.86518754346E+02 -0.19710321347E+03 -0.97677377668E+03  0.10002110689E+04  0.00000000000E+00 0.  1.
         13    1    5    5    0    0 -0.35822425100E+03  0.44608940810E+03 -0.51533395046E+03  0.76999315226E+03  0.00000000000E+00 0.  1.
        -13    1    5    5    0    0 -0.17644431676E+01  0.20225862232E+02 -0.38318714441E+02  0.43364993245E+02  0.00000000000E+00 0. -1.
          2    1    6    6  503    0 -0.58163078338E+01 -0.10023768550E+01 -0.22542478131E+01  0.63178975442E+01  0.00000000000E+00 0. -1.
         -2    1    6    6    0  503  0.27352274729E+03 -0.15646029010E+03 -0.55121173220E+03  0.63492431783E+03  0.00000000000E+00 0.  1.
<mgrwt>
<rscale>  0 0.14226045E+04</rscale>
<asrwt>0</asrwt>
<pdfrwt beam="1">  1        1 0.30021184E-01 0.14226045E+04</pdfrwt>
<pdfrwt beam="2">  1       -1 0.39889063E+00 0.14226045E+04</pdfrwt>
<totfact> 0.10978904E+00</totfact>
</mgrwt>
</event>
<event>
12    3  0.4634846E-008  0.1915361E+04  0.7818608E-02  0.8647248E-01
         -1   -1    0    0    0  501 -0.00000000000E+00  0.00000000000E+00  0.52726456683E+03  0.52726456683E+03  0.00000000000E+00 0.  1.
          1   -1    0    0  501    0  0.00000000000E+00 -0.00000000000E+00 -0.17394525832E+04  0.17394525832E+04  0.00000000000E+00 0. -1.
         23    2    1    2    0    0 -0.46088963543E+03 -0.57646561253E+03 -0.52586532360E+03  0.91082681217E+03  0.91319684137E+02 0.  0.
        254    2    1    2    0    0  0.46088963543E+03  0.57646561253E+03 -0.68632269279E+03  0.13558903379E+04  0.90701042511E+03 0.  0.
         23    2    4    4    0    0  0.48482641029E+03  0.29597302088E+03  0.33150373133E+02  0.57807651616E+03  0.10206289288E+03 0.  0.
         23    2    4    4    0    0 -0.23936774855E+02  0.28049259166E+03 -0.71947306592E+03  0.77781382172E+03  0.90021028165E+02 0.  0.
          4    1    3    3  502    0 -0.10333421384E+03 -0.12357182085E+03 -0.70826178557E+02  0.17596676455E+03  0.00000000000E+00 0. -1.
         -4    1    3    3    0  502 -0.35755542159E+03 -0.45289379169E+03 -0.45503914505E+03  0.73486004762E+03  0.00000000000E+00 0.  1.
         13    1    5    5    0    0  0.43476287345E+03  0.24245258816E+03  0.37908647055E+00  0.49779730548E+03  0.00000000000E+00 0.  1.
        -13    1    5    5    0    0  0.50063536838E+02  0.53520432713E+02  0.32771286663E+02  0.80279210684E+02  0.00000000000E+00 0. -1.
          2    1    6    6  503    0  0.32786296775E+02  0.95547852568E+02 -0.21594057554E+03  0.23840022138E+03  0.00000000000E+00 0. -1.
         -2    1    6    6    0  503 -0.56723071630E+02  0.18494473909E+03 -0.50353249038E+03  0.53941360035E+03  0.00000000000E+00 0.  1.
<mgrwt>
<rscale>  0 0.19153608E+04</rscale>
<asrwt>0</asrwt>
<pdfrwt beam="1">  1        1 0.26760809E+00 0.19153608E+04</pdfrwt>
<pdfrwt beam="2">  1       -1 0.81117626E-01 0.19153608E+04</pdfrwt>
<totfact> 0.63379416E+00</totfact>
</mgrwt>
</event>
<event>
12    3  0.4634846E-008  0.2068589E+04  0.7818608E-02  0.8575208E-01
          1   -1    0    0  501    0  0.00000000000E+00  0.00000000000E+00  0.80538213575E+03  0.80538213575E+03  0.00000000000E+00 0. -1.
         -1   -1    0    0    0  501 -0.00000000000E+00 -0.00000000000E+00 -0.13282696137E+04  0.13282696137E+04  0.00000000000E+00 0.  1.
         23    2    1    2    0    0 -0.10741612602E+03  0.53378578522E+03 -0.86199543518E+03  0.10233185564E+04  0.87631324075E+02 0.  0.
        254    2    1    2    0    0  0.10741612602E+03 -0.53378578522E+03  0.33910795722E+03  0.11103331931E+04  0.90630022859E+03 0.  0.
         23    2    4    4    0    0  0.12157761174E+03 -0.63305529544E+03 -0.92322864728E+02  0.65780276982E+03  0.92956171758E+02 0.  0.
         23    2    4    4    0    0 -0.14161485717E+02  0.99269510219E+02  0.43143082195E+03  0.45253042325E+03  0.92715945230E+02 0.  0.
          3    1    3    3  502    0 -0.11100107719E+02  0.26258434774E+03 -0.38268522960E+03  0.46424318738E+03  0.00000000000E+00 0. -1.
         -3    1    3    3    0  502 -0.96316018299E+02  0.27120143748E+03 -0.47931020557E+03  0.55907536902E+03  0.00000000000E+00 0.  1.
         13    1    5    5    0    0  0.73143877571E+02 -0.17086376753E+03 -0.40274133297E+02  0.19017481351E+03  0.00000000000E+00 0. -1.
        -13    1    5    5    0    0  0.48433734165E+02 -0.46219152791E+03 -0.52048731431E+02  0.46762795631E+03  0.00000000000E+00 0.  1.
          2    1    6    6  503    0 -0.22789956842E+02 -0.10931796491E+02  0.10034177782E+03  0.10347636775E+03  0.00000000000E+00 0. -1.
         -2    1    6    6    0  503  0.86284711247E+01  0.11020130671E+03  0.33108904414E+03  0.34905405550E+03  0.00000000000E+00 0.  1.
<mgrwt>
<rscale>  0 0.20685885E+04</rscale>
<asrwt>0</asrwt>
<pdfrwt beam="1">  1        1 0.12390495E+00 0.20685885E+04</pdfrwt>
<pdfrwt beam="2">  1       -1 0.20434917E+00 0.20685885E+04</pdfrwt>
<totfact> 0.28333052E+00</totfact>
</mgrwt>
</event>
<event>
12    3  0.4634846E-008  0.1530397E+04  0.7818608E-02  0.8864487E-01
         -1   -1    0    0    0  501 -0.00000000000E+00  0.00000000000E+00  0.24038334526E+04  0.24038334526E+04  0.00000000000E+00 0.  1.
          1   -1    0    0  501    0  0.00000000000E+00 -0.00000000000E+00 -0.24358124894E+03  0.24358124894E+03  0.00000000000E+00 0. -1.
         23    2    1    2    0    0  0.46206438999E+03  0.15317407302E+03  0.98886453200E+03  0.11060027335E+04  0.91777920401E+02 0.  0.
        254    2    1    2    0    0 -0.46206438999E+03 -0.15317407302E+03  0.11713876717E+04  0.15414119681E+04  0.87569171562E+03 0.  0.
         23    2    4    4    0    0  0.49864007557E+02 -0.25378088319E+03  0.91075966675E+03  0.95119402062E+03  0.91628261800E+02 0.  0.
         23    2    4    4    0    0 -0.51192839755E+03  0.10060681016E+03  0.26062800492E+03  0.59021794744E+03  0.90762624854E+02 0.  0.
          3    1    3    3  502    0 -0.40207740320E+01  0.46145601493E+01  0.10450054380E+02  0.12110508897E+02  0.00000000000E+00 0. -1.
         -3    1    3    3    0  502  0.46608516402E+03  0.14855951288E+03  0.97841447762E+03  0.10938922246E+04  0.00000000000E+00 0.  1.
         13    1    5    5    0    0  0.73084017157E+00 -0.46536954323E+02  0.71379716682E+02  0.85213180897E+02  0.00000000000E+00 0. -1.
        -13    1    5    5    0    0  0.49133167385E+02 -0.20724392887E+03  0.83937995006E+03  0.86598083972E+03  0.00000000000E+00 0.  1.
          4    1    6    6  503    0 -0.99370125431E+02  0.56839074461E+02  0.49646817849E+02  0.12477944036E+03  0.00000000000E+00 0. -1.
         -4    1    6    6    0  503 -0.41255827211E+03  0.43767735704E+02  0.21098118707E+03  0.46543850709E+03  0.00000000000E+00 0.  1.
<mgrwt>
<rscale>  0 0.15303970E+04</rscale>
<asrwt>0</asrwt>
<pdfrwt beam="1">  1        1 0.37474040E-01 0.15303970E+04</pdfrwt>
<pdfrwt beam="2">  1       -1 0.36982052E+00 0.15303970E+04</pdfrwt>
<totfact> 0.12790204E+00</totfact>
</mgrwt>
</event>
<event>
12    3  0.4634846E-008  0.1637916E+04  0.7818608E-02  0.8797587E-01
          1   -1    0    0  501    0  0.00000000000E+00  0.00000000000E+00  0.23879082311E+04  0.23879082311E+04  0.00000000000E+00 0. -1.
         -1   -1    0    0    0  501 -0.00000000000E+00 -0.00000000000E+00 -0.28087029238E+03  0.28087029238E+03  0.00000000000E+00 0.  1.
         23    2    1    2    0    0 -0.11646760506E+02 -0.47710675390E+03  0.25912610888E+03  0.55049195088E+03  0.90158449584E+02 0.  0.
        254    2    1    2    0    0  0.11646760506E+02  0.47710675390E+03  0.18479118299E+04  0.21182865726E+04  0.91901761198E+03 0.  0.
         23    2    4    4    0    0 -0.21995310985E+03 -0.28267428294E+02  0.13353297808E+04  0.13566876344E+04  0.91199208895E+02 0.  0.
         23    2    4    4    0    0  0.23159987036E+03  0.50537418219E+03  0.51258204908E+03  0.76159893827E+03  0.90835135034E+02 0.  0.
          2    1    3    3  502    0 -0.62305006267E+01 -0.45757433848E+03  0.22298168377E+03  0.50905198720E+03  0.00000000000E+00 0. -1.
         -2    1    3    3    0  502 -0.54162598797E+01 -0.19532415419E+02  0.36144425111E+02  0.41439963680E+02  0.00000000000E+00 0.  1.
         13    1    5    5    0    0 -0.20831806123E+03 -0.49102657726E+02  0.11411827301E+04  0.11610794586E+04  0.00000000000E+00 0.  1.
        -13    1    5    5    0    0 -0.11635048623E+02  0.20835229432E+02  0.19414705069E+03  0.19560817578E+03  0.00000000000E+00 0. -1.
          3    1    6    6  503    0  0.47473086153E+02  0.18556936683E+03  0.14046302524E+03  0.23752798840E+03  0.00000000000E+00 0. -1.
         -3    1    6    6    0  503  0.18412678421E+03  0.31980481536E+03  0.37211902384E+03  0.52407094987E+03  0.00000000000E+00 0.  1.
<mgrwt>
<rscale>  0 0.16379163E+04</rscale>
<asrwt>0</asrwt>
<pdfrwt beam="1">  1        1 0.36737048E+00 0.16379163E+04</pdfrwt>
<pdfrwt beam="2">  1       -1 0.43210816E-01 0.16379163E+04</pdfrwt>
<totfact> 0.81939605E+00</totfact>
</mgrwt>
</event>
<event>
12    3  0.4634846E-008  0.1044839E+04  0.7818608E-02  0.9260689E-01
         -2   -1    0    0    0  501 -0.00000000000E+00  0.00000000000E+00  0.14052245489E+03  0.14052245489E+03  0.00000000000E+00 0.  1.
          2   -1    0    0  501    0  0.00000000000E+00 -0.00000000000E+00 -0.19421952349E+04  0.19421952349E+04  0.00000000000E+00 0. -1.
         23    2    1    2    0    0  0.90990244493E+02 -0.93953949899E+02 -0.31749889009E+03  0.35346386059E+03  0.83812804746E+02 0.  0.
        254    2    1    2    0    0 -0.90990244493E+02  0.93953949899E+02 -0.14841738899E+04  0.17292538292E+04  0.87774717373E+03 0.  0.
         23    2    4    4    0    0 -0.44039736013E+03  0.22335701987E+03 -0.89367542979E+03  0.10250636096E+04  0.90892445982E+02 0.  0.
         23    2    4    4    0    0  0.34940711564E+03 -0.12940306997E+03 -0.59049846015E+03  0.70419021964E+03  0.91460084312E+02 0.  0.
          4    1    3    3  502    0  0.60080082485E+02 -0.84643025383E+02 -0.14710374996E+03  0.18003769414E+03  0.00000000000E+00 0. -1.
         -4    1    3    3    0  502  0.30910162008E+02 -0.93109245160E+01 -0.17039514013E+03  0.17342616645E+03  0.00000000000E+00 0.  1.
         13    1    5    5    0    0 -0.12537243424E+03  0.10727531331E+03 -0.33076167958E+03  0.36963431766E+03  0.00000000000E+00 0.  1.
        -13    1    5    5    0    0 -0.31502492589E+03  0.11608170656E+03 -0.56291375021E+03  0.65542929191E+03  0.00000000000E+00 0. -1.
          3    1    6    6  503    0  0.65233810641E+02 -0.90655955183E+01 -0.17226707435E+03  0.18442770936E+03  0.00000000000E+00 0. -1.
         -3    1    6    6    0  503  0.28417330500E+03 -0.12033747445E+03 -0.41823138580E+03  0.51976251028E+03  0.00000000000E+00 0.  1.
<mgrwt>
<rscale>  0 0.10448388E+04</rscale>
<asrwt>0</asrwt>
<pdfrwt beam="1">  1        2 0.29879926E+00 0.10448388E+04</pdfrwt>
<pdfrwt beam="2">  1       -2 0.21618840E-01 0.10448388E+04</pdfrwt>
<totfact> 0.13376930E+02</totfact>
</mgrwt>
</event>
<event>
12    3  0.4634846E-008  0.1672667E+04  0.7818608E-02  0.8777109E-01
          1   -1    0    0  501    0  0.00000000000E+00  0.00000000000E+00  0.15027273622E+04  0.15027273622E+04  0.00000000000E+00 0. -1.
         -1   -1    0    0    0  501 -0.00000000000E+00 -0.00000000000E+00 -0.46545613675E+03  0.46545613675E+03  0.00000000000E+00 0.  1.
         23    2    1    2    0    0  0.26690700541E+03 -0.66341951089E+02 -0.28909100721E+03  0.40929935977E+03  0.91168807462E+02 0.  0.
        254    2    1    2    0    0 -0.26690700541E+03  0.66341951089E+02  0.13263622327E+04  0.15588841392E+04  0.77151952867E+03 0.  0.
         23    2    4    4    0    0  0.24976777248E+03 -0.67577417115E+02  0.38358430370E+03  0.47168022737E+03  0.91622439224E+02 0.  0.
         23    2    4    4    0    0 -0.51667477789E+03  0.13391936820E+03  0.94277792895E+03  0.10872039118E+04  0.91076337326E+02 0.  0.
          1    1    3    3  502    0  0.10365524415E+02 -0.92341365472E+01 -0.57011975793E+02  0.58677753518E+02  0.00000000000E+00 0. -1.
         -1    1    3    3    0  502  0.25654148099E+03 -0.57107814542E+02 -0.23207903141E+03  0.35062160626E+03  0.00000000000E+00 0.  1.
         13    1    5    5    0    0  0.16942103298E+03 -0.61368274137E+02  0.18932282833E+03  0.26136695432E+03  0.00000000000E+00 0. -1.
        -13    1    5    5    0    0  0.80346739507E+02 -0.62091429779E+01  0.19426147537E+03  0.21031327304E+03  0.00000000000E+00 0.  1.
          3    1    6    6  503    0 -0.16327734119E+03  0.29516309646E+02  0.21628270084E+03  0.27259660556E+03  0.00000000000E+00 0.  1.
         -3    1    6    6    0  503 -0.35339743670E+03  0.10440305856E+03  0.72649522812E+03  0.81460730624E+03  0.00000000000E+00 0. -1.
<mgrwt>
<rscale>  0 0.16726669E+04</rscale>
<asrwt>0</asrwt>
<pdfrwt beam="1">  1        1 0.23118882E+00 0.16726669E+04</pdfrwt>
<pdfrwt beam="2">  1       -1 0.71608637E-01 0.16726669E+04</pdfrwt>
<totfact> 0.12229718E+01</totfact>
</mgrwt>
</event>
<event>
12    3  0.4634846E-008  0.2602358E+04  0.7818608E-02  0.8367401E-01
          2   -1    0    0  501    0  0.00000000000E+00  0.00000000000E+00  0.35524334614E+04  0.35524334614E+04  0.00000000000E+00 0. -1.
         -2   -1    0    0    0  501 -0.00000000000E+00 -0.00000000000E+00 -0.47659343174E+03  0.47659343174E+03  0.00000000000E+00 0.  1.
         23    2    1    2    0    0 -0.89219957058E+03  0.14950649164E+02  0.24589301002E+03  0.93010125517E+03  0.91549859887E+02 0.  0.
        254    2    1    2    0    0  0.89219957058E+03 -0.14950649164E+02  0.28299470196E+04  0.30989256379E+04  0.89358624656E+03 0.  0.
         23    2    4    4    0    0  0.10416811269E+04 -0.11730091978E+02  0.20714599626E+04  0.23204807025E+04  0.91908372127E+02 0.  0.
         23    2    4    4    0    0 -0.14948155633E+03 -0.32205571861E+01  0.75848705701E+03  0.77844493542E+03  0.91207423861E+02 0.  0.
          4    1    3    3  502    0 -0.33018277294E+03 -0.37639752051E+02  0.81285325882E+02  0.34211798942E+03  0.00000000000E+00 0. -1.
         -4    1    3    3    0  502 -0.56201679764E+03  0.52590401214E+02  0.16460768414E+03  0.58798326575E+03  0.00000000000E+00 0.  1.
         13    1    5    5    0    0  0.92255652032E+03 -0.28925299081E+02  0.18794299846E+04  0.20938491525E+04  0.00000000000E+00 0. -1.
        -13    1    5    5    0    0  0.11912460659E+03  0.17195207103E+02  0.19202997796E+03  0.22663155005E+03  0.00000000000E+00 0.  1.
          1    1    6    6  503    0 -0.10850613308E+03  0.38880098986E+02  0.45906295054E+03  0.47331177417E+03  0.00000000000E+00 0. -1.
         -1    1    6    6    0  503 -0.40975423257E+02 -0.42100656172E+02  0.29942410647E+03  0.30513316125E+03  0.00000000000E+00 0.  1.
<mgrwt>
<rscale>  0 0.26023577E+04</rscale>
<asrwt>0</asrwt>
<pdfrwt beam="1">  1        2 0.54652821E+00 0.26023577E+04</pdfrwt>
<pdfrwt beam="2">  1       -2 0.73322069E-01 0.26023577E+04</pdfrwt>
<totfact> 0.11094501E+00</totfact>
</mgrwt>
</event>
<event>
12    3  0.4634846E-008  0.1817911E+04  0.7818608E-02  0.8696832E-01
         -2   -1    0    0    0  501 -0.00000000000E+00  0.00000000000E+00  0.28920602120E+03  0.28920602120E+03  0.00000000000E+00 0.  1.
          2   -1    0    0  501    0  0.00000000000E+00 -0.00000000000E+00 -0.28567882218E+04  0.28567882218E+04  0.00000000000E+00 0. -1.
         23    2    1    2    0    0 -0.57189750982E+03  0.36871118082E+03 -0.93434143005E+03  0.11597513491E+04  0.94945180591E+02 0.  0.
        254    2    1    2    0    0  0.57189750982E+03 -0.36871118082E+03 -0.16332407706E+04  0.19862428939E+04  0.90259111573E+03 0.  0.
         23    2    4    4    0    0  0.32161968048E+03 -0.65027384211E+03 -0.11942954780E+04  0.14006612243E+04  0.95994208252E+02 0.  0.
         23    2    4    4    0    0  0.25027782934E+03  0.28156266129E+03 -0.43894529260E+03  0.58558166955E+03  0.91194285584E+02 0.  0.
          3    1    3    3  502    0 -0.96687013073E+02  0.10024828702E+03 -0.15618880873E+03  0.20926787025E+03  0.00000000000E+00 0. -1.
         -3    1    3    3    0  502 -0.47521049675E+03  0.26846289380E+03 -0.77815262132E+03  0.95048347888E+03  0.00000000000E+00 0.  1.
         13    1    5    5    0    0  0.12983404842E+03 -0.16762719185E+03 -0.32541255275E+03  0.38839295188E+03  0.00000000000E+00 0. -1.
        -13    1    5    5    0    0  0.19178563206E+03 -0.48264665025E+03 -0.86888292520E+03  0.10122682724E+04  0.00000000000E+00 0.  1.
          3    1    6    6  503    0  0.49695275589E+02  0.11180772154E+02 -0.58281074351E+02  0.77403576851E+02  0.00000000000E+00 0. -1.
         -3    1    6    6    0  503  0.20058255375E+03  0.27038188914E+03 -0.38066421825E+03  0.50817809270E+03  0.00000000000E+00 0.  1.
<mgrwt>
<rscale>  0 0.18179113E+04</rscale>
<asrwt>0</asrwt>
<pdfrwt beam="1">  1        2 0.43950589E+00 0.18179113E+04</pdfrwt>
<pdfrwt beam="2">  1       -2 0.44493233E-01 0.18179113E+04</pdfrwt>
<totfact> 0.96714392E+00</totfact>
</mgrwt>
</event>
<event>
12    3  0.4634846E-008  0.1890234E+04  0.7818608E-02  0.8659733E-01
          2   -1    0    0  501    0  0.00000000000E+00  0.00000000000E+00  0.78202668618E+03  0.78202668618E+03  0.00000000000E+00 0. -1.
         -2   -1    0    0    0  501 -0.00000000000E+00 -0.00000000000E+00 -0.11422189868E+04  0.11422189868E+04  0.00000000000E+00 0.  1.
         23    2    1    2    0    0  0.14502211671E+03 -0.35258340408E+03  0.49160301470E+03  0.62727472729E+03  0.80334228459E+02 0.  0.
        254    2    1    2    0    0 -0.14502211671E+03  0.35258340408E+03 -0.85179531529E+03  0.12969709457E+04  0.90068413085E+03 0.  0.
         23    2    4    4    0    0 -0.29213731094E+03 -0.22158275038E+03 -0.31728314388E+03  0.49357828531E+03  0.92237772265E+02 0.  0.
         23    2    4    4    0    0  0.14711519423E+03  0.57416615446E+03 -0.53451217142E+03  0.80339266035E+03  0.91797886699E+02 0.  0.
          3    1    3    3  502    0  0.12171282446E+03 -0.26392351942E+03  0.42094651630E+03  0.51153260436E+03  0.00000000000E+00 0. -1.
         -3    1    3    3    0  502  0.23309292253E+02 -0.88659884657E+02  0.70656498406E+02  0.11574212293E+03  0.00000000000E+00 0.  1.
         13    1    5    5    0    0 -0.23293185964E+03 -0.19372648037E+03 -0.21255438293E+03  0.37008994330E+03  0.00000000000E+00 0. -1.
        -13    1    5    5    0    0 -0.59205451302E+02 -0.27856270018E+02 -0.10472876095E+03  0.12348834201E+03  0.00000000000E+00 0.  1.
          2    1    6    6  503    0  0.11373951081E+03  0.41545770880E+03 -0.43970650913E+03  0.61553521288E+03  0.00000000000E+00 0. -1.
         -2    1    6    6    0  503  0.33375683417E+02  0.15870844566E+03 -0.94805662288E+02  0.18785744747E+03  0.00000000000E+00 0.  1.
<mgrwt>
<rscale>  0 0.18902336E+04</rscale>
<asrwt>0</asrwt>
<pdfrwt beam="1">  1        2 0.12031180E+00 0.18902336E+04</pdfrwt>
<pdfrwt beam="2">  1       -2 0.17572600E+00 0.18902336E+04</pdfrwt>
<totfact> 0.64579709E+00</totfact>
</mgrwt>
</event>
<event>
12    3  0.4634846E-008  0.1903072E+04  0.7818608E-02  0.8653329E-01
         -2   -1    0    0    0  501 -0.00000000000E+00  0.00000000000E+00  0.64483595602E+03  0.64483595602E+03  0.00000000000E+00 0.  1.
          2   -1    0    0  501    0  0.00000000000E+00 -0.00000000000E+00 -0.14041104466E+04  0.14041104466E+04  0.00000000000E+00 0. -1.
         23    2    1    2    0    0 -0.75844667275E+02 -0.47966764329E+03  0.30471849932E+03  0.58064165156E+03  0.91966853389E+02 0.  0.
        254    2    1    2    0    0  0.75844667275E+02  0.47966764329E+03 -0.10639929900E+04  0.14683047511E+04  0.88769606165E+03 0.  0.
         23    2    4    4    0    0 -0.34266008728E+03  0.14487745041E+02 -0.23430640986E+03  0.42506325346E+03  0.90296431626E+02 0.  0.
         23    2    4    4    0    0  0.41850475455E+03  0.46517989825E+03 -0.82968658009E+03  0.10432414976E+04  0.91839174159E+02 0.  0.
          3    1    3    3  502    0  0.18800062301E+02 -0.47443601332E+02  0.22051675542E+02  0.55593291359E+02  0.00000000000E+00 0. -1.
         -3    1    3    3    0  502 -0.94644729576E+02 -0.43222404196E+03  0.28266682378E+03  0.52504836020E+03  0.00000000000E+00 0.  1.
         13    1    5    5    0    0 -0.11672188782E+03  0.88387747697E+00 -0.13335492366E+03  0.17722391486E+03  0.00000000000E+00 0. -1.
        -13    1    5    5    0    0 -0.22593819946E+03  0.13603867564E+02 -0.10095148621E+03  0.24783933859E+03  0.00000000000E+00 0.  1.
          2    1    6    6  503    0  0.65455540284E+02  0.76595403433E+02 -0.19549400464E+03  0.21992996483E+03  0.00000000000E+00 0.  1.
         -2    1    6    6    0  503  0.35304921427E+03  0.38858449482E+03 -0.63419257545E+03  0.82331153281E+03  0.00000000000E+00 0. -1.
<mgrwt>
<rscale>  0 0.19030722E+04</rscale>
<asrwt>0</asrwt>
<pdfrwt beam="1">  1        2 0.21601699E+00 0.19030722E+04</pdfrwt>
<pdfrwt beam="2">  1       -2 0.99205531E-01 0.19030722E+04</pdfrwt>
<totfact> 0.11345034E+01</totfact>
</mgrwt>
</event>
<event>
12    3  0.4634846E-008  0.1366565E+04  0.7818608E-02  0.8978382E-01
          2   -1    0    0  501    0  0.00000000000E+00  0.00000000000E+00  0.67692713523E+03  0.67692713523E+03  0.00000000000E+00 0. -1.
         -2   -1    0    0    0  501 -0.00000000000E+00 -0.00000000000E+00 -0.68969781224E+03  0.68969781224E+03  0.00000000000E+00 0.  1.
         23    2    1    2    0    0  0.12239230115E+03  0.24623396341E+03  0.25642196101E+03  0.38736237653E+03  0.93200582315E+02 0.  0.
        254    2    1    2    0    0 -0.12239230115E+03 -0.24623396341E+03 -0.26919263802E+03  0.97926257094E+03  0.90048845987E+03 0.  0.
         23    2    4    4    0    0 -0.15492300865E+03 -0.56308094531E+03 -0.78391868459E+02  0.59627511966E+03  0.91309603560E+02 0.  0.
         23    2    4    4    0    0  0.32530707509E+02  0.31684698190E+03 -0.19080076956E+03  0.38298745128E+03  0.93937198734E+02 0.  0.
          1    1    3    3  502    0  0.13702983185E+03  0.22333258398E+03  0.24159036965E+03  0.35639938915E+03  0.00000000000E+00 0. -1.
         -1    1    3    3    0  502 -0.14637530700E+02  0.22901379429E+02  0.14831591368E+02  0.30962987376E+02  0.00000000000E+00 0.  1.
         13    1    5    5    0    0 -0.12272642736E+03 -0.33924321875E+03 -0.82597031512E+02  0.37009459204E+03  0.00000000000E+00 0.  1.
        -13    1    5    5    0    0 -0.32196581290E+02 -0.22383772656E+03  0.42051630537E+01  0.22618052762E+03  0.00000000000E+00 0. -1.
          2    1    6    6  503    0  0.32226195729E+02  0.33754261709E+02 -0.43804225395E+02  0.64005375065E+02  0.00000000000E+00 0. -1.
         -2    1    6    6    0  503  0.30451177959E+00  0.28309272019E+03 -0.14699654416E+03  0.31898207622E+03  0.00000000000E+00 0.  1.
<mgrwt>
<rscale>  0 0.13665653E+04</rscale>
<asrwt>0</asrwt>
<pdfrwt beam="1">  1        2 0.10414264E+00 0.13665653E+04</pdfrwt>
<pdfrwt beam="2">  1       -2 0.10610736E+00 0.13665653E+04</pdfrwt>
<totfact> 0.29894133E+01</totfact>
</mgrwt>
</event>
<event>
12    3  0.4634846E-008  0.1677460E+04  0.7818608E-02  0.8774325E-01
         -2   -1    0    0    0  501 -0.00000000000E+00  0.00000000000E+00  0.13901649625E+03  0.13901649625E+03  0.00000000000E+00 0.  1.
          2   -1    0    0  501    0  0.00000000000E+00 -0.00000000000E+00 -0.50603175340E+04  0.50603175340E+04  0.00000000000E+00 0. -1.
         23    2    1    2    0    0 -0.22280141938E+03  0.54901074903E+03 -0.16784102610E+04  0.17821570955E+04  0.89272805282E+02 0.  0.
        254    2    1    2    0    0  0.22280141938E+03 -0.54901074903E+03 -0.32428907768E+04  0.34171769348E+04  0.89983572859E+03 0.  0.
         23    2    4    4    0    0  0.67661337695E+02  0.22951101610E+03 -0.11026255422E+04  0.11325288263E+04  0.97903488995E+02 0.  0.
         23    2    4    4    0    0  0.15514008168E+03 -0.77852176513E+03 -0.21402652346E+04  0.22846481084E+04  0.93365524225E+02 0.  0.
          4    1    3    3  502    0 -0.14640773960E+03  0.38348560599E+03 -0.12754652804E+04  0.13398910843E+04  0.00000000000E+00 0. -1.
         -4    1    3    3    0  502 -0.76393679774E+02  0.16552514304E+03 -0.40294498061E+03  0.44226601123E+03  0.00000000000E+00 0.  1.
         13    1    5    5    0    0 -0.37549278060E+01 -0.35272183598E+01 -0.24995266122E+01  0.57261143432E+01  0.00000000000E+00 0.  1.
        -13    1    5    5    0    0  0.71416265501E+02  0.23303823446E+03 -0.11001260155E+04  0.11268027120E+04  0.00000000000E+00 0. -1.
          3    1    6    6  503    0  0.11876300922E+03 -0.39836657840E+03 -0.10405401185E+04  0.11205018168E+04  0.00000000000E+00 0. -1.
         -3    1    6    6    0  503  0.36377072463E+02 -0.38015518673E+03 -0.10997251161E+04  0.11641462917E+04  0.00000000000E+00 0.  1.
<mgrwt>
<rscale>  0 0.16774595E+04</rscale>
<asrwt>0</asrwt>
<pdfrwt beam="1">  1        2 0.77851045E+00 0.16774595E+04</pdfrwt>
<pdfrwt beam="2">  1       -2 0.21387152E-01 0.16774595E+04</pdfrwt>
<totfact> 0.54192965E-01</totfact>
</mgrwt>
</event>
<event>
12    3  0.4634846E-008  0.1423945E+04  0.7818608E-02  0.8936666E-01
         -2   -1    0    0    0  501 -0.00000000000E+00  0.00000000000E+00  0.78594463255E+03  0.78594463255E+03  0.00000000000E+00 0. -1.
          2   -1    0    0  501    0  0.00000000000E+00 -0.00000000000E+00 -0.64496245824E+03  0.64496245824E+03  0.00000000000E+00 0.  1.
         23    2    1    2    0    0  0.10111938670E+03 -0.19837435289E+03 -0.34983044088E+03  0.42426630672E+03  0.89683038530E+02 0.  0.
        254    2    1    2    0    0 -0.10111938670E+03  0.19837435289E+03  0.49081261519E+03  0.10066407841E+04  0.85020652237E+03 0.  0.
         23    2    4    4    0    0 -0.16872815507E+03 -0.23369272196E+03  0.47002911563E+03  0.55844777095E+03  0.88628803069E+02 0.  0.
         23    2    4    4    0    0  0.67608768367E+02  0.43206707485E+03  0.20783499559E+02  0.44819301312E+03  0.95875546566E+02 0.  0.
          3    1    3    3  502    0  0.24833942539E+02 -0.28567987636E+02 -0.14126165939E+02  0.40403009587E+02  0.00000000000E+00 0. -1.
         -3    1    3    3    0  502  0.76285444166E+02 -0.16980636525E+03 -0.33570427494E+03  0.38386329713E+03  0.00000000000E+00 0.  1.
         13    1    5    5    0    0 -0.89919968202E+02 -0.76853830949E+02  0.12982664285E+03  0.17563333740E+03  0.00000000000E+00 0. -1.
        -13    1    5    5    0    0 -0.78808186870E+02 -0.15683889101E+03  0.34020247278E+03  0.38281443355E+03  0.00000000000E+00 0.  1.
          4    1    6    6  503    0  0.36304938542E+02  0.67006269191E+02  0.29419252639E+02  0.81690765080E+02  0.00000000000E+00 0. -1.
         -4    1    6    6    0  503  0.31303829826E+02  0.36506080566E+03 -0.86357530802E+01  0.36650224804E+03  0.00000000000E+00 0.  1.
<mgrwt>
<rscale>  0 0.14239449E+04</rscale>
<asrwt>0</asrwt>
<pdfrwt beam="1">  1        2 0.99224994E-01 0.14239449E+04</pdfrwt>
<pdfrwt beam="2">  1       -2 0.12091456E+00 0.14239449E+04</pdfrwt>
<totfact> 0.22979121E+01</totfact>
</mgrwt>
</event>
<event>
12    3  0.4634846E-008  0.1862664E+04  0.7818608E-02  0.8673667E-01
          2   -1    0    0  501    0  0.00000000000E+00  0.00000000000E+00  0.17375054625E+04  0.17375054625E+04  0.00000000000E+00 0. -1.
         -2   -1    0    0    0  501 -0.00000000000E+00 -0.00000000000E+00 -0.49920979564E+03  0.49920979564E+03  0.00000000000E+00 0.  1.
         23    2    1    2    0    0  0.52560873202E+03 -0.24665729502E+03  0.97407474537E+03  0.11375571382E+04  0.90057052635E+02 0.  0.
        254    2    1    2    0    0 -0.52560873202E+03  0.24665729502E+03  0.26422092148E+03  0.10991581199E+04  0.89511536515E+03 0.  0.
         23    2    4    4    0    0  0.47919938961E+02 -0.26870322192E+03  0.10472170653E+03  0.30645279285E+03  0.91918096179E+02 0.  0.
         23    2    4    4    0    0 -0.57352867098E+03  0.51536051694E+03  0.15949921495E+03  0.79270532709E+03  0.91706800044E+02 0.  0.
          2    1    3    3  502    0  0.26493289345E+02 -0.25958659215E+02  0.32762160024E+02  0.49488438023E+02  0.00000000000E+00 0.  1.
         -2    1    3    3    0  502  0.49911544267E+03 -0.22069863581E+03  0.94131258535E+03  0.10880687002E+04  0.00000000000E+00 0. -1.
         13    1    5    5    0    0  0.37735403537E+02 -0.25655854130E+03  0.70488286693E+02  0.26872819791E+03  0.00000000000E+00 0. -1.
        -13    1    5    5    0    0  0.10184535424E+02 -0.12144680622E+02  0.34233419836E+02  0.37724594933E+02  0.00000000000E+00 0.  1.
          3    1    6    6  503    0 -0.51162681561E+03  0.48261456283E+03  0.12396107269E+03  0.71417446205E+03  0.00000000000E+00 0. -1.
         -3    1    6    6    0  503 -0.61901855368E+02  0.32745954117E+02  0.35538142260E+02  0.78530865042E+02  0.00000000000E+00 0.  1.
<mgrwt>
<rscale>  0 0.18626645E+04</rscale>
<asrwt>0</asrwt>
<pdfrwt beam="1">  1        2 0.26730853E+00 0.18626645E+04</pdfrwt>
<pdfrwt beam="2">  1       -2 0.76801508E-01 0.18626645E+04</pdfrwt>
<totfact> 0.13297622E+01</totfact>
</mgrwt>
</event>
<event>
12    3  0.4634846E-008  0.1596323E+04  0.7818608E-02  0.8822810E-01
         -2   -1    0    0    0  501 -0.00000000000E+00  0.00000000000E+00  0.78892228808E+03  0.78892228808E+03  0.00000000000E+00 0.  1.
          2   -1    0    0  501    0  0.00000000000E+00 -0.00000000000E+00 -0.80750856216E+03  0.80750856216E+03  0.00000000000E+00 0. -1.
         23    2    1    2    0    0 -0.41870075253E+03 -0.90524389693E+02  0.24452722525E+03  0.50160446002E+03  0.91150892070E+02 0.  0.
        254    2    1    2    0    0  0.41870075253E+03  0.90524389693E+02 -0.26311349933E+03  0.10948263902E+04  0.97257962444E+03 0.  0.
         23    2    4    4    0    0  0.10472787576E+03 -0.41695381283E+03 -0.31122540211E+01  0.43780443445E+03  0.82732259144E+02 0.  0.
         23    2    4    4    0    0  0.31397287677E+03  0.50747820253E+03 -0.26000124531E+03  0.65702195576E+03  0.89241859024E+02 0.  0.
          3    1    3    3  502    0 -0.53436832265E+02 -0.28882469155E+02  0.68267042296E+02  0.91378778340E+02  0.00000000000E+00 0. -1.
         -3    1    3    3    0  502 -0.36526392027E+03 -0.61641920538E+02  0.17626018295E+03  0.41022568168E+03  0.00000000000E+00 0.  1.
         13    1    5    5    0    0  0.86662676754E+02 -0.18203199205E+03 -0.12561432546E+02  0.20199964173E+03  0.00000000000E+00 0.  1.
        -13    1    5    5    0    0  0.18065199009E+02 -0.23492182079E+03  0.94491785248E+01  0.23580479273E+03  0.00000000000E+00 0. -1.
          2    1    6    6  503    0  0.24045560961E+03  0.30777113029E+03 -0.16625214203E+03  0.42447820152E+03  0.00000000000E+00 0. -1.
         -2    1    6    6    0  503  0.73517267157E+02  0.19970707223E+03 -0.93749103283E+02  0.23254375424E+03  0.00000000000E+00 0.  1.
<mgrwt>
<rscale>  0 0.15963227E+04</rscale>
<asrwt>0</asrwt>
<pdfrwt beam="1">  1        2 0.12423209E+00 0.15963227E+04</pdfrwt>
<pdfrwt beam="2">  1       -2 0.12137266E+00 0.15963227E+04</pdfrwt>
<totfact> 0.16841822E+01</totfact>
</mgrwt>
</event>
<event>
12    3  0.4634846E-008  0.1976495E+04  0.7818608E-02  0.8617690E-01
          2   -1    0    0  501    0  0.00000000000E+00  0.00000000000E+00  0.11481851275E+04  0.11481851275E+04  0.00000000000E+00 0. -1.
         -2   -1    0    0    0  501 -0.00000000000E+00 -0.00000000000E+00 -0.85058841796E+03  0.85058841796E+03  0.00000000000E+00 0.  1.
         23    2    1    2    0    0 -0.33862084125E+03 -0.51921780990E+03 -0.35336826713E+03  0.71929473500E+03  0.90909709765E+02 0.  0.
        254    2    1    2    0    0  0.33862084125E+03  0.51921780990E+03  0.65096497666E+03  0.12794788104E+04  0.91052699976E+03 0.  0.
         23    2    4    4    0    0  0.25020849056E+03  0.45887755468E+03 -0.78715663175E+02  0.53641464107E+03  0.91496516815E+02 0.  0.
         23    2    4    4    0    0  0.88412350693E+02  0.60340255224E+02  0.72968063984E+03  0.74306416938E+03  0.90845107191E+02 0.  0.
          1    1    3    3  502    0 -0.17310083288E+03 -0.27390352858E+03 -0.13265950000E+03  0.35012224187E+03  0.00000000000E+00 0. -1.
         -1    1    3    3    0  502 -0.16552000838E+03 -0.24531428132E+03 -0.22070876713E+03  0.36917249313E+03  0.00000000000E+00 0.  1.
         13    1    5    5    0    0  0.13129030576E+03  0.14850404573E+03 -0.27524627816E+02  0.20012046653E+03  0.00000000000E+00 0.  1.
        -13    1    5    5    0    0  0.11891818480E+03  0.31037350895E+03 -0.51191035359E+02  0.33629417455E+03  0.00000000000E+00 0. -1.
          4    1    6    6  503    0  0.71247152668E+02  0.81565915098E+02  0.64678370409E+03  0.65578831580E+03  0.00000000000E+00 0.  1.
         -4    1    6    6    0  503  0.17165198025E+02 -0.21225659873E+02  0.82896935751E+02  0.87275853575E+02  0.00000000000E+00 0. -1.
<mgrwt>
<rscale>  0 0.19764948E+04</rscale>
<asrwt>0</asrwt>
<pdfrwt beam="1">  1        2 0.17664387E+00 0.19764948E+04</pdfrwt>
<pdfrwt beam="2">  1       -2 0.13085976E+00 0.19764948E+04</pdfrwt>
<totfact> 0.80927527E+00</totfact>
</mgrwt>
</event>
<event>
12    3  0.4634846E-008  0.1408173E+04  0.7818608E-02  0.8947924E-01
          2   -1    0    0  501    0  0.00000000000E+00  0.00000000000E+00  0.14409270561E+04  0.14409270561E+04  0.00000000000E+00 0. -1.
         -2   -1    0    0    0  501 -0.00000000000E+00 -0.00000000000E+00 -0.34404097165E+03  0.34404097165E+03  0.00000000000E+00 0.  1.
         23    2    1    2    0    0  0.37878770316E+03  0.11781446500E+03  0.16501757061E+03  0.43920240270E+03  0.91145925320E+02 0.  0.
        254    2    1    2    0    0 -0.37878770316E+03 -0.11781446500E+03  0.93186851381E+03  0.13457656250E+04  0.88619739236E+03 0.  0.
         23    2    4    4    0    0 -0.21912984049E+03 -0.38296101946E+03  0.91920929630E+03  0.10238068787E+04  0.92508189324E+02 0.  0.
         23    2    4    4    0    0 -0.15965786267E+03  0.26514655445E+03  0.12659217509E+02  0.32195874630E+03  0.87771579005E+02 0.  0.
          2    1    3    3  502    0  0.10898620411E+03  0.27767644846E+02  0.44002709406E+01  0.11255397448E+03  0.00000000000E+00 0. -1.
         -2    1    3    3    0  502  0.26980149905E+03  0.90046820159E+02  0.16061729967E+03  0.32664842823E+03  0.00000000000E+00 0.  1.
         13    1    5    5    0    0 -0.12488990110E+03 -0.23358262319E+03  0.64926699539E+03  0.70121748449E+03  0.00000000000E+00 0.  1.
        -13    1    5    5    0    0 -0.94239939392E+02 -0.14937839627E+03  0.26994230091E+03  0.32258939423E+03  0.00000000000E+00 0. -1.
          3    1    6    6  503    0 -0.10603526033E+02  0.60596220580E+02  0.29655320276E+02  0.68291835044E+02  0.00000000000E+00 0. -1.
         -3    1    6    6    0  503 -0.14905433663E+03  0.20455033387E+03 -0.16996102768E+02  0.25366691126E+03  0.00000000000E+00 0.  1.
<mgrwt>
<rscale>  0 0.14081732E+04</rscale>
<asrwt>0</asrwt>
<pdfrwt beam="1">  1        2 0.22168108E+00 0.14081732E+04</pdfrwt>
<pdfrwt beam="2">  1       -2 0.52929381E-01 0.14081732E+04</pdfrwt>
<totfact> 0.44894607E+01</totfact>
</mgrwt>
</event>
<event>
12    3  0.4634846E-008  0.1105771E+04  0.7818608E-02  0.9199585E-01
          2   -1    0    0  501    0  0.00000000000E+00  0.00000000000E+00  0.11288111851E+04  0.11288111851E+04  0.00000000000E+00 0. -1.
         -2   -1    0    0    0  501 -0.00000000000E+00 -0.00000000000E+00 -0.27080049463E+03  0.27080049463E+03  0.00000000000E+00 0.  1.
         23    2    1    2    0    0 -0.11298986894E+03 -0.79882967381E+02  0.26301895865E+03  0.31074512350E+03  0.90749987359E+02 0.  0.
        254    2    1    2    0    0  0.11298986894E+03  0.79882967381E+02  0.59499173186E+03  0.10888665563E+04  0.90136963418E+03 0.  0.
         23    2    4    4    0    0  0.46997763839E+03  0.21260349695E+01  0.14231694805E+03  0.50024745017E+03  0.95445780869E+02 0.  0.
         23    2    4    4    0    0 -0.35698776945E+03  0.77756932412E+02  0.45267478381E+03  0.58861910610E+03  0.89841995188E+02 0.  0.
          3    1    3    3  502    0 -0.12793270152E+03 -0.76463593593E+02  0.22648176743E+03  0.27112257051E+03  0.00000000000E+00 0. -1.
         -3    1    3    3    0  502  0.14942832579E+02 -0.34193737881E+01  0.36537191221E+02  0.39622552983E+02  0.00000000000E+00 0.  1.
         13    1    5    5    0    0  0.28957820601E+03  0.24784403935E+02  0.45237658330E+02  0.29413644760E+03  0.00000000000E+00 0. -1.
        -13    1    5    5    0    0  0.18039943238E+03 -0.22658368966E+02  0.97079289724E+02  0.20611100257E+03  0.00000000000E+00 0.  1.
          3    1    6    6  503    0 -0.78918403838E+02  0.18091584917E+02  0.16659779883E+03  0.18523025262E+03  0.00000000000E+00 0. -1.
         -3    1    6    6    0  503 -0.27806936561E+03  0.59665347495E+02  0.28607698498E+03  0.40338885349E+03  0.00000000000E+00 0.  1.
<mgrwt>
<rscale>  0 0.11057715E+04</rscale>
<asrwt>0</asrwt>
<pdfrwt beam="1">  1        2 0.17366326E+00 0.11057715E+04</pdfrwt>
<pdfrwt beam="2">  1       -2 0.41661615E-01 0.11057715E+04</pdfrwt>
<totfact> 0.11324697E+02</totfact>
</mgrwt>
</event>
<event>
12    3  0.4634846E-008  0.2002813E+04  0.7818608E-02  0.8605307E-01
         -1   -1    0    0    0  501 -0.00000000000E+00  0.00000000000E+00  0.13402831290E+04  0.13402831290E+04  0.00000000000E+00 0.  1.
          1   -1    0    0  501    0  0.00000000000E+00 -0.00000000000E+00 -0.74821103119E+03  0.74821103119E+03  0.00000000000E+00 0. -1.
         23    2    1    2    0    0  0.69892816996E+03  0.25459920136E+02  0.63126737775E+03  0.94702638720E+03  0.95977505407E+02 0.  0.
        254    2    1    2    0    0 -0.69892816996E+03 -0.25459920136E+02 -0.39195279984E+02  0.11414677729E+04  0.90125668508E+03 0.  0.
         23    2    4    4    0    0 -0.83931810759E+03  0.19138042085E+03 -0.15762898009E+02  0.86610440826E+03  0.93845755639E+02 0.  0.
         23    2    4    4    0    0  0.14038993762E+03 -0.21684034099E+03 -0.23432381975E+02  0.27536336469E+03  0.92449110435E+02 0.  0.
          1    1    3    3  502    0  0.27176798238E+03  0.46449338937E+02  0.20857437137E+03  0.34571468833E+03  0.00000000000E+00 0. -1.
         -1    1    3    3    0  502  0.42716018758E+03 -0.20989418801E+02  0.42269300638E+03  0.60131169887E+03  0.00000000000E+00 0.  1.
         13    1    5    5    0    0 -0.18066985312E+03  0.10722689244E+02 -0.27281405077E+02  0.18303236587E+03  0.00000000000E+00 0.  1.
        -13    1    5    5    0    0 -0.65864825446E+03  0.18065773161E+03  0.11518507068E+02  0.68307204240E+03  0.00000000000E+00 0. -1.
          2    1    6    6  503    0  0.14078252256E+03 -0.14360154316E+03 -0.18817468819E+02  0.20197826366E+03  0.00000000000E+00 0. -1.
         -2    1    6    6    0  503 -0.39258493449E+00 -0.73238797825E+02 -0.46149131559E+01  0.73385101030E+02  0.00000000000E+00 0.  1.
<mgrwt>
<rscale>  0 0.20028126E+04</rscale>
<asrwt>0</asrwt>
<pdfrwt beam="1">  1        1 0.11510939E+00 0.20028126E+04</pdfrwt>
<pdfrwt beam="2">  1       -1 0.20619740E+00 0.20028126E+04</pdfrwt>
<totfact> 0.31107919E+00</totfact>
</mgrwt>
</event>
<event>
12    3  0.4634846E-008  0.1762212E+04  0.7818608E-02  0.8726657E-01
          1   -1    0    0  501    0  0.00000000000E+00  0.00000000000E+00  0.67362806721E+03  0.67362806721E+03  0.00000000000E+00 0. -1.
         -1   -1    0    0    0  501 -0.00000000000E+00 -0.00000000000E+00 -0.11524874051E+04  0.11524874051E+04  0.00000000000E+00 0.  1.
         23    2    1    2    0    0  0.42021174860E+02 -0.71012012527E+03 -0.41080397873E+02  0.71821313802E+03  0.90034110667E+02 0.  0.
        254    2    1    2    0    0 -0.42021174860E+02  0.71012012527E+03 -0.43777894001E+03  0.11079023343E+04  0.72784669440E+03 0.  0.
         23    2    4    4    0    0 -0.31878315620E+03  0.34169874725E+03 -0.42658680378E+03  0.63915468992E+03  0.90342027544E+02 0.  0.
         23    2    4    4    0    0  0.27676198134E+03  0.36842137801E+03 -0.11192136234E+02  0.46874764436E+03  0.85250126650E+02 0.  0.
          2    1    3    3  502    0  0.61470945291E+01 -0.17269576664E+03 -0.48708851385E+02  0.17953876124E+03  0.00000000000E+00 0. -1.
         -2    1    3    3    0  502  0.35874080331E+02 -0.53742435863E+03  0.76284535120E+01  0.53867437677E+03  0.00000000000E+00 0.  1.
         13    1    5    5    0    0 -0.18287370840E+03  0.19444788385E+03 -0.30261855875E+03  0.40352294217E+03  0.00000000000E+00 0.  1.
        -13    1    5    5    0    0 -0.13590944780E+03  0.14725086340E+03 -0.12396824503E+03  0.23563174775E+03  0.00000000000E+00 0. -1.
          2    1    6    6  503    0  0.26713676678E+03  0.34152025587E+03 -0.29866371292E+02  0.43461493010E+03  0.00000000000E+00 0.  1.
         -2    1    6    6    0  503  0.96252145561E+01  0.26901122147E+02  0.18674235058E+02  0.34132714264E+02  0.00000000000E+00 0. -1.
<mgrwt>
<rscale>  0 0.17622121E+04</rscale>
<asrwt>0</asrwt>
<pdfrwt beam="1">  1        1 0.10363509E+00 0.17622121E+04</pdfrwt>
<pdfrwt beam="2">  1       -1 0.17730575E+00 0.17622121E+04</pdfrwt>
<totfact> 0.59481969E+00</totfact>
</mgrwt>
</event>
<event>
12    3  0.4634846E-008  0.1628369E+04  0.7818608E-02  0.8803307E-01
          2   -1    0    0  501    0  0.00000000000E+00  0.00000000000E+00  0.23472035604E+04  0.23472035604E+04  0.00000000000E+00 0.  1.
         -2   -1    0    0    0  501 -0.00000000000E+00 -0.00000000000E+00 -0.28241972751E+03  0.28241972751E+03  0.00000000000E+00 0. -1.
         23    2    1    2    0    0  0.52536312346E+03  0.55531342478E+01  0.39410318142E+03  0.66277129533E+03  0.88945058975E+02 0.  0.
        254    2    1    2    0    0 -0.52536312346E+03 -0.55531342478E+01  0.16706806515E+04  0.19668519926E+04  0.89515120103E+03 0.  0.
         23    2    4    4    0    0 -0.45270616620E+03  0.38589914285E+03  0.76423347373E+03  0.97275715336E+03  0.91338139271E+02 0.  0.
         23    2    4    4    0    0 -0.72656957265E+02 -0.39145227709E+03  0.90644717775E+03  0.99409483922E+03  0.89800582594E+02 0.  0.
          3    1    3    3  502    0  0.46162102639E+03 -0.17739173805E+02  0.36575334640E+03  0.58922335383E+03  0.00000000000E+00 0. -1.
         -3    1    3    3    0  502  0.63742097075E+02  0.23292308053E+02  0.28349835013E+02  0.73547941503E+02  0.00000000000E+00 0.  1.
         13    1    5    5    0    0 -0.42313964157E+03  0.32417383705E+03  0.68745173837E+03  0.86989983647E+03  0.00000000000E+00 0.  1.
        -13    1    5    5    0    0 -0.29566524629E+02  0.61725305797E+02  0.76781735355E+02  0.10285731689E+03  0.00000000000E+00 0. -1.
          4    1    6    6  503    0 -0.16180014747E+02 -0.14036659150E+03  0.42946942072E+03  0.45211564474E+03  0.00000000000E+00 0. -1.
         -4    1    6    6    0  503 -0.56476942518E+02 -0.25108568560E+03  0.47697775703E+03  0.54197919448E+03  0.00000000000E+00 0.  1.
<mgrwt>
<rscale>  0 0.16283692E+04</rscale>
<asrwt>0</asrwt>
<pdfrwt beam="1">  1        2 0.36110823E+00 0.16283692E+04</pdfrwt>
<pdfrwt beam="2">  1       -2 0.43449190E-01 0.16283692E+04</pdfrwt>
<totfact> 0.20507847E+01</totfact>
</mgrwt>
</event>
<event>
12    3  0.4634846E-008  0.1871564E+04  0.7818608E-02  0.8669142E-01
          2   -1    0    0  501    0  0.00000000000E+00  0.00000000000E+00  0.77034409661E+03  0.77034409661E+03  0.00000000000E+00 0.  1.
         -2   -1    0    0    0  501 -0.00000000000E+00 -0.00000000000E+00 -0.11367492003E+04  0.11367492003E+04  0.00000000000E+00 0. -1.
         23    2    1    2    0    0  0.23781231778E+03 -0.89161622569E+02 -0.82043263786E+03  0.86360053883E+03  0.90507922208E+02 0.  0.
        254    2    1    2    0    0 -0.23781231778E+03  0.89161622569E+02  0.45402753413E+03  0.10434927581E+04  0.90456157395E+03 0.  0.
         23    2    4    4    0    0 -0.55952051288E+03  0.11409603116E+03  0.16824151790E+03  0.60275250957E+03  0.94468358692E+02 0.  0.
         23    2    4    4    0    0  0.32170819510E+03 -0.24934408594E+02  0.28578601623E+03  0.44074024855E+03  0.91980607139E+02 0.  0.
          1    1    3    3  502    0  0.24214167731E+03 -0.79105997410E+02 -0.80711873986E+03  0.84636340360E+03  0.00000000000E+00 0. -1.
         -1    1    3    3    0  502 -0.43293595267E+01 -0.10055625158E+02 -0.13313897999E+02  0.17237135236E+02  0.00000000000E+00 0.  1.
         13    1    5    5    0    0 -0.15765397390E+03  0.15910931388E+02  0.65533988928E+01  0.15859029056E+03  0.00000000000E+00 0. -1.
        -13    1    5    5    0    0 -0.40186653898E+03  0.98185099775E+02  0.16168811901E+03  0.44416221901E+03  0.00000000000E+00 0.  1.
          2    1    6    6  503    0  0.14134303639E+03 -0.18231222177E+02  0.18658520504E+03  0.23478558333E+03  0.00000000000E+00 0. -1.
         -2    1    6    6    0  503  0.18036515871E+03 -0.67031864173E+01  0.99200811189E+02  0.20595466522E+03  0.00000000000E+00 0.  1.
<mgrwt>
<rscale>  0 0.18715641E+04</rscale>
<asrwt>0</asrwt>
<pdfrwt beam="1">  1        2 0.11851448E+00 0.18715641E+04</pdfrwt>
<pdfrwt beam="2">  1       -2 0.17488449E+00 0.18715641E+04</pdfrwt>
<totfact> 0.66873125E+00</totfact>
</mgrwt>
</event>
<event>
12    3  0.4634846E-008  0.1738186E+04  0.7818608E-02  0.8739880E-01
          1   -1    0    0  501    0  0.00000000000E+00  0.00000000000E+00  0.78182000061E+03  0.78182000061E+03  0.00000000000E+00 0. -1.
         -1   -1    0    0    0  501 -0.00000000000E+00 -0.00000000000E+00 -0.96610827909E+03  0.96610827909E+03  0.00000000000E+00 0.  1.
         23    2    1    2    0    0  0.26157374817E+03  0.44847545029E+03 -0.42883781899E+03  0.67961102458E+03  0.91750828298E+02 0.  0.
        254    2    1    2    0    0 -0.26157374817E+03 -0.44847545029E+03  0.24454954051E+03  0.10683172551E+04  0.90108058717E+03 0.  0.
         23    2    4    4    0    0 -0.38609325359E+03 -0.12365979644E+03 -0.22867379482E+03  0.47367338402E+03  0.87835212565E+02 0.  0.
         23    2    4    4    0    0  0.12451950542E+03 -0.32481565385E+03  0.47322333533E+03  0.59464387110E+03  0.93009096939E+02 0.  0.
          3    1    3    3  502    0  0.54157480369E+02  0.35681721064E+02 -0.44349351388E+02  0.78568968853E+02  0.00000000000E+00 0. -1.
         -3    1    3    3    0  502  0.20741626780E+03  0.41279372923E+03 -0.38448846760E+03  0.60104205573E+03  0.00000000000E+00 0.  1.
         13    1    5    5    0    0 -0.57854478693E+02  0.90973469247E+01 -0.16281499102E+02  0.60786426436E+02  0.00000000000E+00 0. -1.
        -13    1    5    5    0    0 -0.32823877490E+03 -0.13275714337E+03 -0.21239229572E+03  0.41288695758E+03  0.00000000000E+00 0.  1.
          4    1    6    6  503    0  0.87545961392E+02 -0.10680458768E+03  0.16219224535E+03  0.21302074959E+03  0.00000000000E+00 0. -1.
         -4    1    6    6    0  503  0.36973544033E+02 -0.21801106617E+03  0.31103108999E+03  0.38162312151E+03  0.00000000000E+00 0.  1.
<mgrwt>
<rscale>  0 0.17381862E+04</rscale>
<asrwt>0</asrwt>
<pdfrwt beam="1">  1        1 0.12028000E+00 0.17381862E+04</pdfrwt>
<pdfrwt beam="2">  1       -1 0.14863204E+00 0.17381862E+04</pdfrwt>
<totfact> 0.77819304E+00</totfact>
</mgrwt>
</event>
<event>
12    3  0.4634846E-008  0.2457183E+04  0.7818608E-02  0.8418400E-01
         -2   -1    0    0    0  501 -0.00000000000E+00  0.00000000000E+00  0.67045360604E+03  0.67045360604E+03  0.00000000000E+00 0.  1.
          2   -1    0    0  501    0  0.00000000000E+00 -0.00000000000E+00 -0.22513667519E+04  0.22513667519E+04  0.00000000000E+00 0. -1.
         23    2    1    2    0    0 -0.10847166488E+03  0.48129957757E+03  0.43243811940E+03  0.66219204499E+03  0.89889887610E+02 0.  0.
        254    2    1    2    0    0  0.10847166488E+03 -0.48129957757E+03 -0.20133512652E+04  0.22596283129E+04  0.89940058367E+03 0.  0.
         23    2    4    4    0    0 -0.24168480275E+03  0.13484458596E+03 -0.41081749330E+03  0.50506553930E+03  0.98618355013E+02 0.  0.
         23    2    4    4    0    0  0.35015646763E+03 -0.61614416353E+03 -0.16025337719E+04  0.17545627736E+04  0.90182339304E+02 0.  0.
          1    1    3    3  502    0 -0.41929646405E+02  0.29661016072E+03  0.21185145797E+03  0.36690151667E+03  0.00000000000E+00 0. -1.
         -1    1    3    3    0  502 -0.66542018471E+02  0.18468941685E+03  0.22058666143E+03  0.29529052833E+03  0.00000000000E+00 0.  1.
         13    1    5    5    0    0 -0.27691771607E+02 -0.15669268360E+02 -0.52733973436E+02  0.61589220973E+02  0.00000000000E+00 0. -1.
        -13    1    5    5    0    0 -0.21399303115E+03  0.15051385432E+03 -0.35808351986E+03  0.44347631833E+03  0.00000000000E+00 0.  1.
          3    1    6    6  503    0  0.49244174002E+02 -0.15226202224E+03 -0.40807368271E+03  0.43832960499E+03  0.00000000000E+00 0. -1.
         -3    1    6    6    0  503  0.30091229363E+03 -0.46388214129E+03 -0.11944600892E+04  0.13162331686E+04  0.00000000000E+00 0.  1.
<mgrwt>
<rscale>  0 0.24571829E+04</rscale>
<asrwt>0</asrwt>
<pdfrwt beam="1">  1        2 0.34636411E+00 0.24571829E+04</pdfrwt>
<pdfrwt beam="2">  1       -2 0.10314671E+00 0.24571829E+04</pdfrwt>
<totfact> 0.33162945E+00</totfact>
</mgrwt>
</event>
<event>
12    3  0.4761136E-008  0.1912037E+04  0.7818608E-02  0.8648888E-01
          2   -1    0    0  501    0  0.00000000000E+00  0.00000000000E+00  0.18672060733E+04  0.18672060733E+04  0.00000000000E+00 0. -1.
         -2   -1    0    0    0  501 -0.00000000000E+00 -0.00000000000E+00 -0.48948596833E+03  0.48948596833E+03  0.00000000000E+00 0.  1.
         23    2    1    2    0    0  0.63912443277E+02 -0.38637679006E+03 -0.24051468507E+03  0.46842572541E+03  0.90573297351E+02 0.  0.
        254    2    1    2    0    0 -0.63912443277E+02  0.38637679006E+03  0.16182347901E+04  0.18882663162E+04  0.89078281359E+03 0.  0.
         23    2    4    4    0    0  0.13327799031E+03  0.56583427317E+03  0.63669596940E+03  0.86710072671E+03  0.92468726630E+02 0.  0.
         23    2    4    4    0    0 -0.19719043359E+03 -0.17945748311E+03  0.98153882065E+03  0.10211655895E+04  0.90948608859E+02 0.  0.
          1    1    3    3  502    0  0.36418698748E+01  0.35921882807E+01  0.17325527340E+01  0.54008121431E+01  0.00000000000E+00 0. -1.
         -1    1    3    3    0  502  0.60270573402E+02 -0.38996897834E+03 -0.24224723780E+03  0.46302491327E+03  0.00000000000E+00 0.  1.
         13    1    5    5    0    0  0.13271903095E+03  0.54076495162E+03  0.57458091117E+03  0.80011517768E+03  0.00000000000E+00 0.  1.
        -13    1    5    5    0    0  0.55895936738E+00  0.25069321546E+02  0.62115058237E+02  0.66985549024E+02  0.00000000000E+00 0. -1.
          3    1    6    6  503    0 -0.52479665010E+02 -0.91362388954E+02  0.27230805658E+03  0.29198095663E+03  0.00000000000E+00 0. -1.
         -3    1    6    6    0  503 -0.14471076858E+03 -0.88095094155E+02  0.70923076407E+03  0.72918463290E+03  0.00000000000E+00 0.  1.
<mgrwt>
<rscale>  0 0.19120368E+04</rscale>
<asrwt>0</asrwt>
<pdfrwt beam="1">  1        2 0.28726247E+00 0.19120368E+04</pdfrwt>
<pdfrwt beam="2">  1       -2 0.75305534E-01 0.19120368E+04</pdfrwt>
<totfact> 0.11723419E+01</totfact>
</mgrwt>
</event>
<event>
12    3  0.4634846E-008  0.2065946E+04  0.7818608E-02  0.8576394E-01
          2   -1    0    0  501    0  0.00000000000E+00  0.00000000000E+00  0.35543179889E+04  0.35543179889E+04  0.00000000000E+00 0.  1.
         -2   -1    0    0    0  501 -0.00000000000E+00 -0.00000000000E+00 -0.30020764470E+03  0.30020764470E+03  0.00000000000E+00 0. -1.
         23    2    1    2    0    0  0.59076964914E+03  0.65235297067E+03  0.15959119818E+04  0.18247499268E+04  0.90576293566E+02 0.  0.
        254    2    1    2    0    0 -0.59076964914E+03 -0.65235297067E+03  0.16581983624E+04  0.20297757068E+04  0.77187721448E+03 0.  0.
         23    2    4    4    0    0  0.11091845674E+03 -0.12082004790E+03  0.49193579284E+02  0.19330448843E+03  0.89700774719E+02 0.  0.
         23    2    4    4    0    0 -0.70168810588E+03 -0.53153292277E+03  0.16090047831E+04  0.18364712184E+04  0.94003712396E+02 0.  0.
          1    1    3    3  502    0  0.35119336229E+03  0.36691323930E+03  0.83169624284E+03  0.97451564546E+03  0.00000000000E+00 0. -1.
         -1    1    3    3    0  502  0.23957628685E+03  0.28543973137E+03  0.76421573896E+03  0.85023428133E+03  0.00000000000E+00 0.  1.
         13    1    5    5    0    0  0.10811685409E+03 -0.13453769112E+03  0.48522090934E+02  0.17928758401E+03  0.00000000000E+00 0. -1.
        -13    1    5    5    0    0  0.28016026584E+01  0.13717643225E+02  0.67148835027E+00  0.14016904427E+02  0.00000000000E+00 0.  1.
          3    1    6    6  503    0 -0.25773375133E+03 -0.14676933197E+03  0.49525200137E+03  0.57727157235E+03  0.00000000000E+00 0. -1.
         -3    1    6    6    0  503 -0.44395435455E+03 -0.38476359080E+03  0.11137527817E+04  0.12591996460E+04  0.00000000000E+00 0.  1.
<mgrwt>
<rscale>  0 0.20659462E+04</rscale>
<asrwt>0</asrwt>
<pdfrwt beam="1">  1        2 0.54681812E+00 0.20659462E+04</pdfrwt>
<pdfrwt beam="2">  1       -2 0.46185794E-01 0.20659462E+04</pdfrwt>
<totfact> 0.30735806E+00</totfact>
</mgrwt>
</event>
<event>
12    3  0.4634846E-008  0.1929421E+04  0.7818608E-02  0.8640349E-01
         -1   -1    0    0    0  501 -0.00000000000E+00  0.00000000000E+00  0.47591823391E+03  0.47591823391E+03  0.00000000000E+00 0.  1.
          1   -1    0    0  501    0  0.00000000000E+00 -0.00000000000E+00 -0.19555175591E+04  0.19555175591E+04  0.00000000000E+00 0. -1.
         23    2    1    2    0    0  0.36711065213E+03  0.59805688217E+03 -0.25070534831E+03  0.75452386967E+03  0.11836736465E+03 0.  0.
        254    2    1    2    0    0 -0.36711065213E+03 -0.59805688217E+03 -0.12288939769E+04  0.16769119234E+04  0.89967267773E+03 0.  0.
         23    2    4    4    0    0 -0.24566821969E+03 -0.74097574270E+03 -0.12407147678E+04  0.14686402361E+04  0.90183604958E+02 0.  0.
         23    2    4    4    0    0 -0.12144243245E+03  0.14291886053E+03  0.11820790836E+02  0.20827168733E+03  0.89795877149E+02 0.  0.
          1    1    3    3  502    0  0.17665115525E+02  0.15797690893E+02 -0.34518404041E+02  0.41870557217E+02  0.00000000000E+00 0. -1.
         -1    1    3    3    0  502  0.34944553661E+03  0.58225919128E+03 -0.21618694427E+03  0.71265331245E+03  0.00000000000E+00 0.  1.
         13    1    5    5    0    0 -0.16210626377E+03 -0.54568225124E+03 -0.83332982707E+03  0.10092007535E+04  0.00000000000E+00 0.  1.
        -13    1    5    5    0    0 -0.83561955916E+02 -0.19529349145E+03 -0.40738494069E+03  0.45943948261E+03  0.00000000000E+00 0. -1.
          2    1    6    6  503    0 -0.12580527685E+03  0.10313692356E+03 -0.94447985297E+01  0.16295213072E+03  0.00000000000E+00 0.  1.
         -2    1    6    6    0  503  0.43628444092E+01  0.39781936966E+02  0.21265589365E+02  0.45319556608E+02  0.00000000000E+00 0. -1.
<mgrwt>
<rscale>  0 0.19294211E+04</rscale>
<asrwt>0</asrwt>
<pdfrwt beam="1">  1        1 0.30084885E+00 0.19294211E+04</pdfrwt>
<pdfrwt beam="2">  1       -1 0.73218192E-01 0.19294211E+04</pdfrwt>
<totfact> 0.56046711E+00</totfact>
</mgrwt>
</event>
<event>
12    3  0.4634846E-008  0.2642746E+04  0.7818608E-02  0.8353825E-01
          2   -1    0    0  501    0  0.00000000000E+00  0.00000000000E+00  0.15038539675E+04  0.15038539675E+04  0.00000000000E+00 0.  1.
         -2   -1    0    0    0  501 -0.00000000000E+00 -0.00000000000E+00 -0.11610346495E+04  0.11610346495E+04  0.00000000000E+00 0. -1.
         23    2    1    2    0    0  0.55527399529E+03 -0.90412785914E+03 -0.31304699178E+03  0.11098685593E+04  0.89629260270E+02 0.  0.
        254    2    1    2    0    0 -0.55527399529E+03  0.90412785914E+03  0.65586630983E+03  0.15550200578E+04  0.92852052650E+03 0.  0.
         23    2    4    4    0    0 -0.40142989518E+03  0.10099142796E+04  0.28066900574E+03  0.11261434580E+04  0.91384814559E+02 0.  0.
         23    2    4    4    0    0 -0.15384410012E+03 -0.10578642041E+03  0.37519730410E+03  0.42887659980E+03  0.91122702847E+02 0.  0.
          3    1    3    3  502    0  0.30393004226E+03 -0.57123133242E+03 -0.20887131909E+03  0.67993083006E+03  0.00000000000E+00 0. -1.
         -3    1    3    3    0  502  0.25134395303E+03 -0.33289652672E+03 -0.10417567269E+03  0.42993772922E+03  0.00000000000E+00 0.  1.
         13    1    5    5    0    0 -0.21644724204E+03  0.65426507354E+03  0.15957296571E+03  0.70737241000E+03  0.00000000000E+00 0.  1.
        -13    1    5    5    0    0 -0.18498265313E+03  0.35564920602E+03  0.12109604003E+03  0.41877104796E+03  0.00000000000E+00 0. -1.
          3    1    6    6  503    0 -0.49549196002E+02 -0.62379615914E+02  0.80434603893E+02  0.11320805983E+03  0.00000000000E+00 0. -1.
         -3    1    6    6    0  503 -0.10429490411E+03 -0.43406804496E+02  0.29476270020E+03  0.31566853998E+03  0.00000000000E+00 0.  1.
<mgrwt>
<rscale>  0 0.26427460E+04</rscale>
<asrwt>0</asrwt>
<pdfrwt beam="1">  1        2 0.23136215E+00 0.26427460E+04</pdfrwt>
<pdfrwt beam="2">  1       -2 0.17862071E+00 0.26427460E+04</pdfrwt>
<totfact> 0.20639288E+00</totfact>
</mgrwt>
</event>
<event>
12    3  0.4634846E-008  0.2037018E+04  0.7818608E-02  0.8589506E-01
         -2   -1    0    0    0  501 -0.00000000000E+00  0.00000000000E+00  0.29503306836E+04  0.29503306836E+04  0.00000000000E+00 0.  1.
          2   -1    0    0  501    0  0.00000000000E+00 -0.00000000000E+00 -0.35160834555E+03  0.35160834555E+03  0.00000000000E+00 0. -1.
         23    2    1    2    0    0 -0.74514746603E+03 -0.10219931847E+03  0.56626373184E+03  0.94648223097E+03  0.97388668398E+02 0.  0.
        254    2    1    2    0    0  0.74514746603E+03  0.10219931847E+03  0.20324586062E+04  0.23554567982E+04  0.92282137780E+03 0.  0.
         23    2    4    4    0    0  0.47009536379E+03 -0.38938316276E+03  0.96937760566E+03  0.11488682403E+04  0.87157287791E+02 0.  0.
         23    2    4    4    0    0  0.27505210223E+03  0.49158248123E+03  0.10630810006E+04  0.12065885579E+04  0.91693725929E+02 0.  0.
          4    1    3    3  502    0 -0.70743621069E+03 -0.92241536866E+02  0.56004299698E+03  0.90698547496E+03  0.00000000000E+00 0. -1.
         -4    1    3    3    0  502 -0.37711255339E+02 -0.99577816025E+01  0.62207348571E+01  0.39496756017E+02  0.00000000000E+00 0.  1.
         13    1    5    5    0    0  0.24088716944E+03 -0.15448038171E+03  0.50058829472E+03  0.57661031689E+03  0.00000000000E+00 0. -1.
        -13    1    5    5    0    0  0.22920819436E+03 -0.23490278105E+03  0.46878931094E+03  0.57225792346E+03  0.00000000000E+00 0.  1.
          1    1    6    6  503    0  0.66020547249E+02  0.12238436783E+03  0.18551511315E+03  0.23184586120E+03  0.00000000000E+00 0. -1.
         -1    1    6    6    0  503  0.20903155498E+03  0.36919811340E+03  0.87756588743E+03  0.97474269666E+03  0.00000000000E+00 0.  1.
<mgrwt>
<rscale>  0 0.20370183E+04</rscale>
<asrwt>0</asrwt>
<pdfrwt beam="1">  1        2 0.54093594E-01 0.20370183E+04</pdfrwt>
<pdfrwt beam="2">  1       -2 0.45389701E+00 0.20370183E+04</pdfrwt>
<totfact> 0.27886150E-01</totfact>
</mgrwt>
</event>
<event>
12    3  0.4634846E-008  0.1373774E+04  0.7818608E-02  0.8973024E-01
          1   -1    0    0  501    0  0.00000000000E+00  0.00000000000E+00  0.39274636071E+03  0.39274636071E+03  0.00000000000E+00 0. -1.
         -1   -1    0    0    0  501 -0.00000000000E+00 -0.00000000000E+00 -0.12013185120E+04  0.12013185120E+04  0.00000000000E+00 0.  1.
         23    2    1    2    0    0  0.96840193334E+02 -0.18222234857E+02 -0.66887376367E+03  0.68271443902E+03  0.94851571593E+02 0.  0.
        254    2    1    2    0    0 -0.96840193334E+02  0.18222234857E+02 -0.13969838763E+03  0.91135043370E+03  0.89517255354E+03 0.  0.
         23    2    4    4    0    0  0.12236756591E+03  0.10230157519E+03 -0.46441934798E+03  0.49979430554E+03  0.93110598765E+02 0.  0.
         23    2    4    4    0    0 -0.21920775924E+03 -0.84079340332E+02  0.32472096034E+03  0.41155612816E+03  0.93879536427E+02 0.  0.
          3    1    3    3  502    0 -0.18464771658E+02 -0.12832208155E+01 -0.13538890284E+03  0.13664826915E+03  0.00000000000E+00 0. -1.
         -3    1    3    3    0  502  0.11530496499E+03 -0.16939014041E+02 -0.53348486083E+03  0.54606616988E+03  0.00000000000E+00 0.  1.
         13    1    5    5    0    0  0.39946954220E+02  0.14890018722E+02 -0.25348505107E+03  0.25704502120E+03  0.00000000000E+00 0.  1.
        -13    1    5    5    0    0  0.82420611686E+02  0.87411556467E+02 -0.21093429691E+03  0.24274928434E+03  0.00000000000E+00 0. -1.
          2    1    6    6  503    0 -0.15090224343E+03 -0.57918640680E+02  0.14355083926E+03  0.21617793473E+03  0.00000000000E+00 0. -1.
         -2    1    6    6    0  503 -0.68305515809E+02 -0.26160699652E+02  0.18117012109E+03  0.19537819344E+03  0.00000000000E+00 0.  1.
<mgrwt>
<rscale>  0 0.13737736E+04</rscale>
<asrwt>0</asrwt>
<pdfrwt beam="1">  1        1 0.60422517E-01 0.13737736E+04</pdfrwt>
<pdfrwt beam="2">  1       -1 0.18481823E+00 0.13737736E+04</pdfrwt>
<totfact> 0.11546244E+01</totfact>
</mgrwt>
</event>
<event>
12    3  0.4634846E-008  0.1263324E+04  0.7818608E-02  0.9059166E-01
          2   -1    0    0  501    0  0.00000000000E+00  0.00000000000E+00  0.11480232552E+04  0.11480232552E+04  0.00000000000E+00 0.  1.
         -2   -1    0    0    0  501 -0.00000000000E+00 -0.00000000000E+00 -0.34755123698E+03  0.34755123698E+03  0.00000000000E+00 0. -1.
         23    2    1    2    0    0  0.26040724701E+03  0.13630297233E+03  0.28753330158E+03  0.42126259263E+03  0.91631533171E+02 0.  0.
        254    2    1    2    0    0 -0.26040724701E+03 -0.13630297233E+03  0.51293871659E+03  0.10743118995E+04  0.89702257266E+03 0.  0.
         23    2    4    4    0    0  0.12303427204E+03 -0.41761638592E+03  0.34486762104E+03  0.56237936697E+03  0.88294951566E+02 0.  0.
         23    2    4    4    0    0 -0.38344151905E+03  0.28131341358E+03  0.16807109555E+03  0.51193253253E+03  0.87535075835E+02 0.  0.
          1    1    3    3  502    0  0.20521923597E+03  0.11099870721E+03  0.16901975378E+03  0.28810297635E+03  0.00000000000E+00 0. -1.
         -1    1    3    3    0  502  0.55188011044E+02  0.25304265125E+02  0.11851354781E+03  0.13315961629E+03  0.00000000000E+00 0.  1.
         13    1    5    5    0    0 -0.13100674103E+02 -0.24872355882E+02  0.28302528377E+02  0.39891037360E+02  0.00000000000E+00 0.  1.
        -13    1    5    5    0    0  0.13613494614E+03 -0.39274403003E+03  0.31656509266E+03  0.52248832961E+03  0.00000000000E+00 0. -1.
          2    1    6    6  503    0 -0.37686128759E+03  0.28621291768E+03  0.15791782596E+03  0.49887904755E+03  0.00000000000E+00 0. -1.
         -2    1    6    6    0  503 -0.65802314667E+01 -0.48995040960E+01  0.10153269596E+02  0.13053484977E+02  0.00000000000E+00 0.  1.
<mgrwt>
<rscale>  0 0.12633240E+04</rscale>
<asrwt>0</asrwt>
<pdfrwt beam="1">  1        2 0.17661896E+00 0.12633240E+04</pdfrwt>
<pdfrwt beam="2">  1       -2 0.53469422E-01 0.12633240E+04</pdfrwt>
<totfact> 0.65938204E+01</totfact>
</mgrwt>
</event>
<event>
12    3  0.4634846E-008  0.1352798E+04  0.7818608E-02  0.8988713E-01
         -2   -1    0    0    0  501 -0.00000000000E+00  0.00000000000E+00  0.35788567430E+03  0.35788567430E+03  0.00000000000E+00 0.  1.
          2   -1    0    0  501    0  0.00000000000E+00 -0.00000000000E+00 -0.12783839338E+04  0.12783839338E+04  0.00000000000E+00 0. -1.
         23    2    1    2    0    0 -0.11775341072E+03 -0.22321507785E+02  0.16491350595E+03  0.22410100491E+03  0.93062777252E+02 0.  0.
        254    2    1    2    0    0  0.11775341072E+03  0.22321507785E+02 -0.10854117654E+04  0.14121686032E+04  0.89539787122E+03 0.  0.
         23    2    4    4    0    0 -0.25243367180E+03 -0.30154159987E+03 -0.46544638059E+03  0.61568102263E+03  0.88162879457E+02 0.  0.
         23    2    4    4    0    0  0.37018708252E+03  0.32386310766E+03 -0.61996538485E+03  0.79648758054E+03  0.90053311876E+02 0.  0.
          4    1    3    3  502    0 -0.81379070214E+02  0.30046895323E+02  0.10891371761E+03  0.13923924329E+03  0.00000000000E+00 0. -1.
         -4    1    3    3    0  502 -0.36374340508E+02 -0.52368403108E+02  0.55999788343E+02  0.84861761624E+02  0.00000000000E+00 0.  1.
         13    1    5    5    0    0 -0.48411323121E+02 -0.21499960147E+02 -0.92737378901E+02  0.10679946600E+03  0.00000000000E+00 0.  1.
        -13    1    5    5    0    0 -0.20402234868E+03 -0.28004163972E+03 -0.37270900169E+03  0.50888155663E+03  0.00000000000E+00 0. -1.
          4    1    6    6  503    0  0.10448796759E+03  0.53298759289E+02 -0.10853633231E+03  0.15980809912E+03  0.00000000000E+00 0.  1.
         -4    1    6    6    0  503  0.26569911493E+03  0.27056434837E+03 -0.51142905254E+03  0.63667948142E+03  0.00000000000E+00 0. -1.
<mgrwt>
<rscale>  0 0.13527975E+04</rscale>
<asrwt>0</asrwt>
<pdfrwt beam="1">  1        2 0.19667445E+00 0.13527975E+04</pdfrwt>
<pdfrwt beam="2">  1       -2 0.55059334E-01 0.13527975E+04</pdfrwt>
<totfact> 0.51553060E+01</totfact>
</mgrwt>
</event>
<event>
12    3  0.4634846E-008  0.1162197E+04  0.7818608E-02  0.9146604E-01
          1   -1    0    0  501    0  0.00000000000E+00  0.00000000000E+00  0.40984955003E+03  0.40984955003E+03  0.00000000000E+00 0. -1.
         -1   -1    0    0    0  501 -0.00000000000E+00 -0.00000000000E+00 -0.82390167169E+03  0.82390167169E+03  0.00000000000E+00 0.  1.
         23    2    1    2    0    0  0.63330046759E+02  0.20113824449E+03 -0.31315138631E+02  0.23109522118E+03  0.89202439014E+02 0.  0.
        254    2    1    2    0    0 -0.63330046759E+02 -0.20113824449E+03 -0.38273698303E+03  0.10026560005E+04  0.90242128135E+03 0.  0.
         23    2    4    4    0    0 -0.85423889474E+02 -0.54598518254E+03 -0.30149888127E+03  0.63593932428E+03  0.90112087475E+02 0.  0.
         23    2    4    4    0    0  0.22093842716E+02  0.34484693805E+03 -0.81238101757E+02  0.36671667626E+03  0.92054021670E+02 0.  0.
          2    1    3    3  502    0  0.95960630204E+01  0.14353797173E+03  0.58887405391E+01  0.14397885615E+03  0.00000000000E+00 0. -1.
         -2    1    3    3    0  502  0.53733983738E+02  0.57600272761E+02 -0.37203879170E+02  0.87116365029E+02  0.00000000000E+00 0.  1.
         13    1    5    5    0    0  0.12706821984E+02 -0.19172205665E+03 -0.11118926421E+03  0.22199518645E+03  0.00000000000E+00 0.  1.
        -13    1    5    5    0    0 -0.98130711459E+02 -0.35426312589E+03 -0.19030961706E+03  0.41394413783E+03  0.00000000000E+00 0. -1.
          4    1    6    6  503    0 -0.88661576708E+01  0.18222860877E+03 -0.28730733454E+00  0.18244439468E+03  0.00000000000E+00 0.  1.
         -4    1    6    6    0  503  0.30960000387E+02  0.16261832928E+03 -0.80950794422E+02  0.18427228158E+03  0.00000000000E+00 0. -1.
<mgrwt>
<rscale>  0 0.11621975E+04</rscale>
<asrwt>0</asrwt>
<pdfrwt beam="1">  1        1 0.63053778E-01 0.11621975E+04</pdfrwt>
<pdfrwt beam="2">  1       -1 0.12675410E+00 0.11621975E+04</pdfrwt>
<totfact> 0.31158408E+01</totfact>
</mgrwt>
</event>
<event>
12    3  0.4634846E-008  0.1230504E+04  0.7818608E-02  0.9086567E-01
         -1   -1    0    0    0  501 -0.00000000000E+00  0.00000000000E+00  0.27179291166E+03  0.27179291166E+03  0.00000000000E+00 0.  1.
          1   -1    0    0  501    0  0.00000000000E+00 -0.00000000000E+00 -0.13927343139E+04  0.13927343139E+04  0.00000000000E+00 0. -1.
         23    2    1    2    0    0 -0.51842532967E+02  0.11811814715E+03 -0.57921434196E+03  0.60034488541E+03  0.91022978375E+02 0.  0.
        254    2    1    2    0    0  0.51842532967E+02 -0.11811814715E+03 -0.54172706032E+03  0.10641823402E+04  0.90684965699E+03 0.  0.
         23    2    4    4    0    0 -0.11560872053E+03  0.15710343476E+03  0.17178958889E+03  0.27620168600E+03  0.93428277427E+02 0.  0.
         23    2    4    4    0    0  0.16745125350E+03 -0.27522158191E+03 -0.71351664922E+03  0.78798065419E+03  0.89558144400E+02 0.  0.
          3    1    3    3  502    0 -0.68995917022E+02  0.12188078280E+03 -0.50308448340E+03  0.52221581670E+03  0.00000000000E+00 0. -1.
         -3    1    3    3    0  502  0.17153384055E+02 -0.37626356496E+01 -0.76129858566E+02  0.78129068705E+02  0.00000000000E+00 0.  1.
         13    1    5    5    0    0  0.10326589113E+02  0.25831189489E+01 -0.30258821994E+01  0.11066476824E+02  0.00000000000E+00 0. -1.
        -13    1    5    5    0    0 -0.12593530964E+03  0.15452031581E+03  0.17481547109E+03  0.26513520918E+03  0.00000000000E+00 0.  1.
          4    1    6    6  503    0  0.84052233585E+02 -0.21371915157E+03 -0.46121975212E+03  0.51523229078E+03  0.00000000000E+00 0.  1.
         -4    1    6    6    0  503  0.83399019914E+02 -0.61502430343E+02 -0.25229689709E+03  0.27274836341E+03  0.00000000000E+00 0. -1.
<mgrwt>
<rscale>  0 0.12305045E+04</rscale>
<asrwt>0</asrwt>
<pdfrwt beam="1">  1        1 0.21426681E+00 0.12305045E+04</pdfrwt>
<pdfrwt beam="2">  1       -1 0.41814295E-01 0.12305045E+04</pdfrwt>
<totfact> 0.43081459E+01</totfact>
</mgrwt>
</event>
<event>
12    3  0.4634846E-008  0.4352052E+04  0.7818608E-02  0.7937063E-01
          2   -1    0    0  501    0  0.00000000000E+00  0.00000000000E+00  0.15084527825E+04  0.15084527825E+04  0.00000000000E+00 0. -1.
         -2   -1    0    0    0  501 -0.00000000000E+00 -0.00000000000E+00 -0.31390364416E+04  0.31390364416E+04  0.00000000000E+00 0.  1.
         23    2    1    2    0    0  0.15177858653E+04  0.14152339946E+04 -0.96376278485E+03  0.22899465993E+04  0.91953954784E+02 0.  0.
        254    2    1    2    0    0 -0.15177858653E+04 -0.14152339946E+04 -0.66682087420E+03  0.23575426248E+04  0.89821821248E+03 0.  0.
         23    2    4    4    0    0 -0.95967014153E+03 -0.12707914154E+04 -0.19533415589E+03  0.16069723824E+04  0.91253510492E+02 0.  0.
         23    2    4    4    0    0 -0.55811572375E+03 -0.14444257917E+03 -0.47148671830E+03  0.75057024245E+03  0.93269199282E+02 0.  0.
          1    1    3    3  502    0  0.10591208166E+04  0.99867828906E+03 -0.72118358987E+03  0.16245617869E+04  0.00000000000E+00 0. -1.
         -1    1    3    3    0  502  0.45866504871E+03  0.41655570552E+03 -0.24257919498E+03  0.66538481238E+03  0.00000000000E+00 0.  1.
         13    1    5    5    0    0 -0.82694760974E+03 -0.10931060787E+04 -0.19976478353E+03  0.13851459191E+04  0.00000000000E+00 0. -1.
        -13    1    5    5    0    0 -0.13272253179E+03 -0.17768533672E+03  0.44306276355E+01  0.22182646323E+03  0.00000000000E+00 0.  1.
          1    1    6    6  503    0 -0.42734494555E+03 -0.74126947271E+02 -0.37620652955E+03  0.57415142574E+03  0.00000000000E+00 0. -1.
         -1    1    6    6    0  503 -0.13077077820E+03 -0.70315631902E+02 -0.95280188759E+02  0.17641881671E+03  0.00000000000E+00 0.  1.
<mgrwt>
<rscale>  0 0.43520516E+04</rscale>
<asrwt>0</asrwt>
<pdfrwt beam="1">  1        2 0.23206966E+00 0.43520516E+04</pdfrwt>
<pdfrwt beam="2">  1       -2 0.48292868E+00 0.43520516E+04</pdfrwt>
<totfact> 0.20404125E-02</totfact>
</mgrwt>
</event>
<event>
12    3  0.4634846E-008  0.2123136E+04  0.7818608E-02  0.8551120E-01
          2   -1    0    0  501    0  0.00000000000E+00  0.00000000000E+00  0.14680534779E+04  0.14680534779E+04  0.00000000000E+00 0. -1.
         -2   -1    0    0    0  501 -0.00000000000E+00 -0.00000000000E+00 -0.76763350801E+03  0.76763350801E+03  0.00000000000E+00 0.  1.
         23    2    1    2    0    0 -0.10929849107E+03 -0.76486606030E+03  0.71329116065E+03  0.10562318907E+04  0.99374426934E+02 0.  0.
        254    2    1    2    0    0  0.10929849107E+03  0.76486606030E+03 -0.12871190797E+02  0.11794550952E+04  0.89105690258E+03 0.  0.
         23    2    4    4    0    0  0.44113685940E+03  0.35175813917E+03 -0.20723246586E+03  0.60783314102E+03  0.90445095097E+02 0.  0.
         23    2    4    4    0    0 -0.33183836833E+03  0.41310792113E+03  0.19436127506E+03  0.57162195416E+03  0.90556590238E+02 0.  0.
          4    1    3    3  502    0 -0.12524133635E+03 -0.71221152639E+03  0.67484739391E+03  0.98911559270E+03  0.00000000000E+00 0. -1.
         -4    1    3    3    0  502  0.15942845276E+02 -0.52654533902E+02  0.38443766740E+02  0.67116297999E+02  0.00000000000E+00 0.  1.
         13    1    5    5    0    0  0.50226508552E+02  0.17246235579E+02 -0.41182886991E+02  0.67202417992E+02  0.00000000000E+00 0. -1.
        -13    1    5    5    0    0  0.39091035085E+03  0.33451190359E+03 -0.16604957887E+03  0.54063072303E+03  0.00000000000E+00 0.  1.
          1    1    6    6  503    0 -0.19053497689E+02  0.56946317176E+02  0.43620739039E+02  0.74220534143E+02  0.00000000000E+00 0. -1.
         -1    1    6    6    0  503 -0.31278487064E+03  0.35616160395E+03  0.15074053602E+03  0.49740142001E+03  0.00000000000E+00 0.  1.
<mgrwt>
<rscale>  0 0.21231364E+04</rscale>
<asrwt>0</asrwt>
<pdfrwt beam="1">  1        2 0.22585438E+00 0.21231364E+04</pdfrwt>
<pdfrwt beam="2">  1       -2 0.11809746E+00 0.21231364E+04</pdfrwt>
<totfact> 0.67261519E+00</totfact>
</mgrwt>
</event>
<event>
12    3  0.4634846E-008  0.1676957E+04  0.7818608E-02  0.8774617E-01
         -1   -1    0    0    0  501 -0.00000000000E+00  0.00000000000E+00  0.32988181162E+03  0.32988181162E+03  0.00000000000E+00 0.  1.
          1   -1    0    0  501    0  0.00000000000E+00 -0.00000000000E+00 -0.21312051734E+04  0.21312051734E+04  0.00000000000E+00 0. -1.
         23    2    1    2    0    0  0.27423366513E+02 -0.24576135436E+03 -0.14616104330E+04  0.14852968383E+04  0.93010513300E+02 0.  0.
        254    2    1    2    0    0 -0.27423366513E+02  0.24576135436E+03 -0.33971292876E+03  0.97579014673E+03  0.88068771546E+03 0.  0.
         23    2    4    4    0    0  0.37559517037E+03  0.28958972425E+03 -0.27576848851E+03  0.55565353547E+03  0.88139955933E+02 0.  0.
         23    2    4    4    0    0 -0.40301853689E+03 -0.43828369884E+02 -0.63944440252E+02  0.42013661126E+03  0.89894458122E+02 0.  0.
          4    1    3    3  502    0  0.17041410951E+01 -0.23686729830E+03 -0.13237091264E+04  0.13447359861E+04  0.00000000000E+00 0. -1.
         -4    1    3    3    0  502  0.25719225418E+02 -0.88940560639E+01 -0.13790130660E+03  0.14056085213E+03  0.00000000000E+00 0.  1.
         13    1    5    5    0    0 -0.27787641719E+01  0.10302188916E+02 -0.13408335737E+02  0.17135929914E+02  0.00000000000E+00 0.  1.
        -13    1    5    5    0    0  0.37837393454E+03  0.27928753533E+03 -0.26236015277E+03  0.53851760556E+03  0.00000000000E+00 0. -1.
          2    1    6    6  503    0 -0.21869110311E+02  0.16446244798E+02 -0.14870810352E+02  0.31142863617E+02  0.00000000000E+00 0.  1.
         -2    1    6    6    0  503 -0.38114942657E+03 -0.60274614682E+02 -0.49073629900E+02  0.38899374764E+03  0.00000000000E+00 0. -1.
<mgrwt>
<rscale>  0 0.16769566E+04</rscale>
<asrwt>0</asrwt>
<pdfrwt beam="1">  1        1 0.32787771E+00 0.16769566E+04</pdfrwt>
<pdfrwt beam="2">  1       -1 0.50751050E-01 0.16769566E+04</pdfrwt>
<totfact> 0.90319281E+00</totfact>
</mgrwt>
</event>
<event>
12    3  0.4634846E-008  0.1894334E+04  0.7818608E-02  0.8657682E-01
          2   -1    0    0  501    0  0.00000000000E+00  0.00000000000E+00  0.15900319564E+04  0.15900319564E+04  0.00000000000E+00 0.  1.
         -2   -1    0    0    0  501 -0.00000000000E+00 -0.00000000000E+00 -0.56421836482E+03  0.56421836482E+03  0.00000000000E+00 0. -1.
         23    2    1    2    0    0 -0.83612701409E+02 -0.31111691177E+03  0.10967283389E+04  0.11466544855E+04  0.90656731863E+02 0.  0.
        254    2    1    2    0    0  0.83612701409E+02  0.31111691177E+03 -0.70914747319E+02  0.10075958358E+04  0.95206914152E+03 0.  0.
         23    2    4    4    0    0 -0.35962551238E+03  0.39844844738E+03 -0.29475328826E+02  0.54484091866E+03  0.88832185914E+02 0.  0.
         23    2    4    4    0    0  0.44323821379E+03 -0.87331535609E+02 -0.41439418493E+02  0.46275491711E+03  0.91312521753E+02 0.  0.
          3    1    3    3  502    0 -0.65415641708E+01 -0.15076584413E+01  0.30250452664E+01  0.73631511352E+01  0.00000000000E+00 0. -1.
         -3    1    3    3    0  502 -0.77071137238E+02 -0.30960925333E+03  0.10937032936E+04  0.11392913343E+04  0.00000000000E+00 0.  1.
         13    1    5    5    0    0 -0.20560876479E+03  0.17621668863E+03  0.13185862826E+02  0.27111095974E+03  0.00000000000E+00 0. -1.
        -13    1    5    5    0    0 -0.15401674759E+03  0.22223175875E+03 -0.42661191653E+02  0.27372995891E+03  0.00000000000E+00 0.  1.
          3    1    6    6  503    0  0.16448319050E+02 -0.24454420196E+02 -0.14136499345E+01  0.29505326177E+02  0.00000000000E+00 0. -1.
         -3    1    6    6    0  503  0.42678989474E+03 -0.62877115413E+02 -0.40025768559E+02  0.43324959094E+03  0.00000000000E+00 0.  1.
<mgrwt>
<rscale>  0 0.18943339E+04</rscale>
<asrwt>0</asrwt>
<pdfrwt beam="1">  1        2 0.24462030E+00 0.18943339E+04</pdfrwt>
<pdfrwt beam="2">  1       -2 0.86802826E-01 0.18943339E+04</pdfrwt>
<totfact> 0.12156125E+01</totfact>
</mgrwt>
</event>
<event>
12    3  0.4634846E-008  0.1256936E+04  0.7818608E-02  0.9064430E-01
         -4   -1    0    0    0  501 -0.00000000000E+00  0.00000000000E+00  0.45771160734E+03  0.45771160734E+03  0.00000000000E+00 0.  1.
          4   -1    0    0  501    0  0.00000000000E+00 -0.00000000000E+00 -0.86292722838E+03  0.86292722838E+03  0.00000000000E+00 0. -1.
         23    2    1    2    0    0  0.14611216504E+02  0.19183442219E+02  0.25565702934E+03  0.27279392600E+03  0.92057141517E+02 0.  0.
        254    2    1    2    0    0 -0.14611216504E+02 -0.19183442219E+02 -0.66087265038E+03  0.10478449097E+04  0.81280059221E+03 0.  0.
         23    2    4    4    0    0 -0.18259342673E+03 -0.63309516547E+01  0.12500319632E+03  0.23900817325E+03  0.90103647850E+02 0.  0.
         23    2    4    4    0    0  0.16798221023E+03 -0.12852490564E+02 -0.78587584670E+03  0.80883673647E+03  0.90734835436E+02 0.  0.
          2    1    3    3  502    0 -0.21527631578E+02  0.21408282095E+01  0.21393282979E+03  0.21502390036E+03  0.00000000000E+00 0. -1.
         -2    1    3    3    0  502  0.36138848081E+02  0.17042614009E+02  0.41724199556E+02  0.57770025632E+02  0.00000000000E+00 0.  1.
         13    1    5    5    0    0 -0.25694227006E+01 -0.16489052940E+02  0.32082471917E+02  0.36163182993E+02  0.00000000000E+00 0.  1.
        -13    1    5    5    0    0 -0.18002400403E+03  0.10158101286E+02  0.92920724406E+02  0.20284499026E+03  0.00000000000E+00 0. -1.
          3    1    6    6  503    0  0.16454940455E+03 -0.35815996290E+01 -0.78033541909E+03  0.79750404431E+03  0.00000000000E+00 0. -1.
         -3    1    6    6    0  503  0.34328056741E+01 -0.92708909349E+01 -0.55404276116E+01  0.11332692162E+02  0.00000000000E+00 0.  1.
<mgrwt>
<rscale>  0 0.12569357E+04</rscale>
<asrwt>0</asrwt>
<pdfrwt beam="1">  1        4 0.13275803E+00 0.12569357E+04</pdfrwt>
<pdfrwt beam="2">  1       -4 0.70417171E-01 0.12569357E+04</pdfrwt>
<totfact> 0.14861836E+00</totfact>
</mgrwt>
</event>
<event>
12    3  0.4634846E-008  0.1744206E+04  0.7818608E-02  0.8736546E-01
         -2   -1    0    0    0  501 -0.00000000000E+00  0.00000000000E+00  0.13230157368E+04  0.13230157368E+04  0.00000000000E+00 0.  1.
          2   -1    0    0  501    0  0.00000000000E+00 -0.00000000000E+00 -0.57487141693E+03  0.57487141693E+03  0.00000000000E+00 0. -1.
         23    2    1    2    0    0  0.31182237793E+03 -0.51566066732E+03  0.47562187679E+03  0.77305489981E+03  0.90876780578E+02 0.  0.
        254    2    1    2    0    0 -0.31182237793E+03  0.51566066732E+03  0.27252244309E+03  0.11248322539E+04  0.90985713071E+03 0.  0.
         23    2    4    4    0    0 -0.25269597344E+03  0.51348009457E+03  0.56703119058E+03  0.81093951394E+03  0.92636179068E+02 0.  0.
         23    2    4    4    0    0 -0.59126404485E+02  0.21805727475E+01 -0.29450874748E+03  0.31389273999E+03  0.91063512279E+02 0.  0.
          4    1    3    3  502    0  0.12219540333E+03 -0.25310089832E+03  0.17449198578E+03  0.33081601295E+03  0.00000000000E+00 0. -1.
         -4    1    3    3    0  502  0.18962697460E+03 -0.26255976900E+03  0.30112989101E+03  0.44223888686E+03  0.00000000000E+00 0.  1.
         13    1    5    5    0    0 -0.42700931689E+02  0.81112675966E+02  0.47801086342E+02  0.10338075075E+03  0.00000000000E+00 0.  1.
        -13    1    5    5    0    0 -0.20999504175E+03  0.43236741860E+03  0.51923010423E+03  0.70755876319E+03  0.00000000000E+00 0. -1.
          1    1    6    6  503    0 -0.83068580756E+02 -0.41950214354E+01 -0.24037849236E+03  0.25436156727E+03  0.00000000000E+00 0. -1.
         -1    1    6    6    0  503  0.23942176271E+02  0.63755941829E+01 -0.54130255119E+02  0.59531172717E+02  0.00000000000E+00 0.  1.
<mgrwt>
<rscale>  0 0.17442063E+04</rscale>
<asrwt>0</asrwt>
<pdfrwt beam="1">  1        2 0.88441756E-01 0.17442063E+04</pdfrwt>
<pdfrwt beam="2">  1       -2 0.20354088E+00 0.17442063E+04</pdfrwt>
<totfact> 0.62384278E+00</totfact>
</mgrwt>
</event>
<event>
12    3  0.4634846E-008  0.1769321E+04  0.7818608E-02  0.8722787E-01
          1   -1    0    0  501    0  0.00000000000E+00  0.00000000000E+00  0.98760522069E+03  0.98760522069E+03  0.00000000000E+00 0. -1.
         -1   -1    0    0    0  501 -0.00000000000E+00 -0.00000000000E+00 -0.79244632432E+03  0.79244632432E+03  0.00000000000E+00 0.  1.
         23    2    1    2    0    0  0.58825893676E+02  0.64291953996E+03  0.75857940571E+02  0.65649079499E+03  0.91759011166E+02 0.  0.
        254    2    1    2    0    0 -0.58825893676E+02 -0.64291953996E+03  0.11930095580E+03  0.11235607500E+04  0.91178397676E+03 0.  0.
         23    2    4    4    0    0  0.34367929459E+02 -0.55323105111E+03  0.47382482929E+03  0.73467789672E+03  0.89419755039E+02 0.  0.
         23    2    4    4    0    0 -0.93193823134E+02 -0.89688488855E+02 -0.35452387349E+03  0.38888285330E+03  0.93880684969E+02 0.  0.
          3    1    3    3  502    0  0.38089797171E+02  0.61784896670E+03  0.77833317405E+02  0.62389598780E+03  0.00000000000E+00 0. -1.
         -3    1    3    3    0  502  0.20736096505E+02  0.25070573263E+02 -0.19753768348E+01  0.32594807188E+02  0.00000000000E+00 0.  1.
         13    1    5    5    0    0  0.43161842382E+02 -0.14531422938E+03  0.10247032899E+03  0.18297359980E+03  0.00000000000E+00 0. -1.
        -13    1    5    5    0    0 -0.87939129235E+01 -0.40791682172E+03  0.37135450030E+03  0.55170429692E+03  0.00000000000E+00 0.  1.
          3    1    6    6  503    0 -0.84390947876E+02 -0.24966857360E+02 -0.14708534595E+03  0.17140383614E+03  0.00000000000E+00 0. -1.
         -3    1    6    6    0  503 -0.88028752588E+01 -0.64721631495E+02 -0.20743852754E+03  0.21747901715E+03  0.00000000000E+00 0.  1.
<mgrwt>
<rscale>  0 0.17693209E+04</rscale>
<asrwt>0</asrwt>
<pdfrwt beam="1">  1        1 0.15193927E+00 0.17693209E+04</pdfrwt>
<pdfrwt beam="2">  1       -1 0.12191482E+00 0.17693209E+04</pdfrwt>
<totfact> 0.87181079E+00</totfact>
</mgrwt>
</event>
<event>
12    3  0.4634846E-008  0.1358763E+04  0.7818608E-02  0.8984221E-01
         -1   -1    0    0    0  501 -0.00000000000E+00  0.00000000000E+00  0.24125662066E+03  0.24125662066E+03  0.00000000000E+00 0.  1.
          1   -1    0    0  501    0  0.00000000000E+00 -0.00000000000E+00 -0.19131458004E+04  0.19131458004E+04  0.00000000000E+00 0. -1.
         23    2    1    2    0    0 -0.22763449464E+02  0.30971797354E+03 -0.15117362930E+03  0.35734810975E+03  0.91655919515E+02 0.  0.
        254    2    1    2    0    0  0.22763449464E+02 -0.30971797354E+03 -0.15207155504E+04  0.17970543113E+04  0.90575107766E+03 0.  0.
         23    2    4    4    0    0 -0.36016035671E+02  0.10537333285E+03 -0.13128573586E+04  0.13207413030E+04  0.91446438813E+02 0.  0.
         23    2    4    4    0    0  0.58779485135E+02 -0.41509130639E+03 -0.20785819181E+03  0.47631300834E+03  0.88956357267E+02 0.  0.
          2    1    3    3  502    0  0.29105630938E+02  0.43549654165E+02 -0.19469422448E+02  0.55881737094E+02  0.00000000000E+00 0. -1.
         -2    1    3    3    0  502 -0.51869080402E+02  0.26616831938E+03 -0.13170420685E+03  0.30146637266E+03  0.00000000000E+00 0.  1.
         13    1    5    5    0    0 -0.10411477945E+02 -0.15519190897E+02 -0.11271595319E+03  0.11425467283E+03  0.00000000000E+00 0. -1.
        -13    1    5    5    0    0 -0.25604557726E+02  0.12089252375E+03 -0.12001414054E+04  0.12064866301E+04  0.00000000000E+00 0.  1.
          3    1    6    6  503    0 -0.15775880203E+02 -0.88914638594E+02 -0.19629057614E+02  0.92412073104E+02  0.00000000000E+00 0. -1.
         -3    1    6    6    0  503  0.74555365339E+02 -0.32617666780E+03 -0.18822913420E+03  0.38390093524E+03  0.00000000000E+00 0.  1.
<mgrwt>
<rscale>  0 0.13587628E+04</rscale>
<asrwt>0</asrwt>
<pdfrwt beam="1">  1        1 0.29433012E+00 0.13587628E+04</pdfrwt>
<pdfrwt beam="2">  1       -1 0.37116404E-01 0.13587628E+04</pdfrwt>
<totfact> 0.23322747E+01</totfact>
</mgrwt>
</event>
<event>
12    3  0.4634846E-008  0.1570300E+04  0.7818608E-02  0.8839004E-01
         -2   -1    0    0    0  501 -0.00000000000E+00  0.00000000000E+00  0.72367672410E+03  0.72367672410E+03  0.00000000000E+00 0.  1.
          2   -1    0    0  501    0  0.00000000000E+00 -0.00000000000E+00 -0.85184539905E+03  0.85184539905E+03  0.00000000000E+00 0. -1.
         23    2    1    2    0    0  0.22755833684E+03 -0.14113515658E+03 -0.48984997384E+03  0.56563827975E+03  0.91058978458E+02 0.  0.
        254    2    1    2    0    0 -0.22755833684E+03  0.14113515658E+03  0.36168129889E+03  0.10098838434E+04  0.90407415962E+03 0.  0.
         23    2    4    4    0    0 -0.43047709630E+03 -0.54438605770E+02 -0.10637354297E+03  0.45571238886E+03  0.89913060677E+02 0.  0.
         23    2    4    4    0    0  0.20291875946E+03  0.19557376235E+03  0.46805484187E+03  0.55417145454E+03  0.92766085245E+02 0.  0.
          1    1    3    3  502    0  0.16001339324E+03 -0.12732064904E+03 -0.29493184876E+03  0.35888665216E+03  0.00000000000E+00 0. -1.
         -1    1    3    3    0  502  0.67544943602E+02 -0.13814507541E+02 -0.19491812508E+03  0.20675162759E+03  0.00000000000E+00 0.  1.
         13    1    5    5    0    0 -0.12006679560E+03 -0.49789152218E+02 -0.54585951925E+02  0.14097737844E+03  0.00000000000E+00 0. -1.
        -13    1    5    5    0    0 -0.31041030069E+03 -0.46494535520E+01 -0.51787591048E+02  0.31473501042E+03  0.00000000000E+00 0.  1.
          3    1    6    6  503    0  0.16864883141E+03  0.20058240940E+03  0.41237148746E+03  0.48859592197E+03  0.00000000000E+00 0. -1.
         -3    1    6    6    0  503  0.34269928049E+02 -0.50086470488E+01  0.55683354406E+02  0.65575532569E+02  0.00000000000E+00 0.  1.
<mgrwt>
<rscale>  0 0.15703002E+04</rscale>
<asrwt>0</asrwt>
<pdfrwt beam="1">  1        2 0.13105314E+00 0.15703002E+04</pdfrwt>
<pdfrwt beam="2">  1       -2 0.11133488E+00 0.15703002E+04</pdfrwt>
<totfact> 0.19407642E+01</totfact>
</mgrwt>
</event>
<event>
12    3  0.4634846E-008  0.2162352E+04  0.7818608E-02  0.8534264E-01
          2   -1    0    0  501    0  0.00000000000E+00  0.00000000000E+00  0.22895130295E+04  0.22895130295E+04  0.00000000000E+00 0. -1.
         -2   -1    0    0    0  501 -0.00000000000E+00 -0.00000000000E+00 -0.51056323254E+03  0.51056323254E+03  0.00000000000E+00 0.  1.
         23    2    1    2    0    0 -0.71543082599E+03  0.42598714083E+03  0.32305828515E+03  0.89752273630E+03  0.88736101123E+02 0.  0.
        254    2    1    2    0    0  0.71543082599E+03 -0.42598714083E+03  0.14558915118E+04  0.19025535257E+04  0.89821128538E+03 0.  0.
         23    2    4    4    0    0  0.14839309666E+03 -0.30071326296E+03  0.12195947921E+04  0.12681802724E+04  0.91764746592E+02 0.  0.
         23    2    4    4    0    0  0.56703772932E+03 -0.12527387787E+03  0.23629671970E+03  0.63437325333E+03  0.96788190655E+02 0.  0.
          1    1    3    3  502    0 -0.20466700858E+03  0.14730287829E+03  0.13507912310E+03  0.28606483854E+03  0.00000000000E+00 0. -1.
         -1    1    3    3    0  502 -0.51076381741E+03  0.27868426255E+03  0.18797916204E+03  0.61145789776E+03  0.00000000000E+00 0.  1.
         13    1    5    5    0    0  0.89833062013E+02 -0.20659297801E+03  0.95679004184E+03  0.98295362136E+03  0.00000000000E+00 0. -1.
        -13    1    5    5    0    0  0.58560034651E+02 -0.94120284953E+02  0.26280475025E+03  0.28522665102E+03  0.00000000000E+00 0.  1.
          3    1    6    6  503    0  0.29644315926E+03 -0.92228308518E+02  0.81893087897E+02  0.32107800518E+03  0.00000000000E+00 0. -1.
         -3    1    6    6    0  503  0.27059457007E+03 -0.33045569349E+02  0.15440363181E+03  0.31329524816E+03  0.00000000000E+00 0.  1.
<mgrwt>
<rscale>  0 0.21623517E+04</rscale>
<asrwt>0</asrwt>
<pdfrwt beam="1">  1        2 0.35223277E+00 0.21623517E+04</pdfrwt>
<pdfrwt beam="2">  1       -2 0.78548191E-01 0.21623517E+04</pdfrwt>
<totfact> 0.60694395E+00</totfact>
</mgrwt>
</event>
<event>
12    3  0.4634846E-008  0.1076537E+04  0.7818608E-02  0.9228367E-01
          2   -1    0    0  501    0  0.00000000000E+00  0.00000000000E+00  0.10086654191E+04  0.10086654191E+04  0.00000000000E+00 0. -1.
         -2   -1    0    0    0  501 -0.00000000000E+00 -0.00000000000E+00 -0.28724375129E+03  0.28724375129E+03  0.00000000000E+00 0.  1.
         23    2    1    2    0    0 -0.12493290401E+03 -0.17581299860E+03  0.12471473861E+03  0.26566430170E+03  0.92224260307E+02 0.  0.
        254    2    1    2    0    0  0.12493290401E+03  0.17581299860E+03  0.59670692920E+03  0.10302448687E+04  0.81168151951E+03 0.  0.
         23    2    4    4    0    0 -0.66738279575E+02  0.46587078514E+03  0.38008063226E+03  0.61169150293E+03  0.90640064705E+02 0.  0.
         23    2    4    4    0    0  0.19167118358E+03 -0.29005778655E+03  0.21662629694E+03  0.41855336575E+03  0.85956996838E+02 0.  0.
          1    1    3    3  502    0 -0.13115219860E+03 -0.15753654656E+03  0.13332188341E+03  0.24452686416E+03  0.00000000000E+00 0. -1.
         -1    1    3    3    0  502  0.62192945890E+01 -0.18276452036E+02 -0.86071447951E+01  0.21137437539E+02  0.00000000000E+00 0.  1.
         13    1    5    5    0    0 -0.53677375900E+02  0.44695262916E+03  0.33516257056E+03  0.56123244926E+03  0.00000000000E+00 0.  1.
        -13    1    5    5    0    0 -0.13060903674E+02  0.18918155979E+02  0.44918061698E+02  0.50459053669E+02  0.00000000000E+00 0. -1.
          2    1    6    6  503    0  0.54073969538E+02 -0.12731364029E+03  0.12550702597E+03  0.18677465233E+03  0.00000000000E+00 0. -1.
         -2    1    6    6    0  503  0.13759721405E+03 -0.16274414625E+03  0.91119270969E+02  0.23177871342E+03  0.00000000000E+00 0.  1.
<mgrwt>
<rscale>  0 0.10765367E+04</rscale>
<asrwt>0</asrwt>
<pdfrwt beam="1">  1        2 0.15517929E+00 0.10765367E+04</pdfrwt>
<pdfrwt beam="2">  1       -2 0.44191347E-01 0.10765367E+04</pdfrwt>
<totfact> 0.11999901E+02</totfact>
</mgrwt>
</event>
<event>
12    3  0.4634846E-008  0.1756157E+04  0.7818608E-02  0.8729968E-01
          2   -1    0    0  501    0  0.00000000000E+00  0.00000000000E+00  0.19495675650E+04  0.19495675650E+04  0.00000000000E+00 0.  1.
         -2   -1    0    0    0  501 -0.00000000000E+00 -0.00000000000E+00 -0.39548355569E+03  0.39548355569E+03  0.00000000000E+00 0. -1.
         23    2    1    2    0    0  0.40322296008E+03  0.23647654521E+03  0.11735444667E+04  0.12664859511E+04  0.90940293567E+02 0.  0.
        254    2    1    2    0    0 -0.40322296008E+03 -0.23647654521E+03  0.38053954259E+03  0.10785651696E+04  0.89441744704E+03 0.  0.
         23    2    4    4    0    0 -0.25900522623E+02 -0.22705720060E+03  0.58851770841E+03  0.63764524859E+03  0.89512907047E+02 0.  0.
         23    2    4    4    0    0 -0.37732243746E+03 -0.94193446164E+01 -0.20797816582E+03  0.44091992098E+03  0.93244374611E+02 0.  0.
          4    1    3    3  502    0  0.30946728381E+02 -0.23840008184E+01  0.11798322275E+03  0.12199764059E+03  0.00000000000E+00 0. -1.
         -4    1    3    3    0  502  0.37227623170E+03  0.23886054603E+03  0.10555612439E+04  0.11444883105E+04  0.00000000000E+00 0.  1.
         13    1    5    5    0    0 -0.16504797145E+02 -0.20797305374E+03  0.57677621919E+03  0.61334819347E+03  0.00000000000E+00 0. -1.
        -13    1    5    5    0    0 -0.93957254777E+01 -0.19084146861E+02  0.11741489221E+02  0.24297055126E+02  0.00000000000E+00 0.  1.
          2    1    6    6  503    0 -0.75371134471E+02 -0.31986779186E+02 -0.71853635974E+02  0.10893533383E+03  0.00000000000E+00 0. -1.
         -2    1    6    6    0  503 -0.30195130299E+03  0.22567434570E+02 -0.13612452985E+03  0.33198458715E+03  0.00000000000E+00 0.  1.
<mgrwt>
<rscale>  0 0.17561571E+04</rscale>
<asrwt>0</asrwt>
<pdfrwt beam="1">  1        2 0.29993347E+00 0.17561571E+04</pdfrwt>
<pdfrwt beam="2">  1       -2 0.60843625E-01 0.17561571E+04</pdfrwt>
<totfact> 0.16976480E+01</totfact>
</mgrwt>
</event>
<event>
12    3  0.4634846E-008  0.2254930E+04  0.7818608E-02  0.8495907E-01
         -2   -1    0    0    0  501 -0.00000000000E+00  0.00000000000E+00  0.61496275357E+03  0.61496275357E+03  0.00000000000E+00 0.  1.
          2   -1    0    0  501    0  0.00000000000E+00 -0.00000000000E+00 -0.20670793584E+04  0.20670793584E+04  0.00000000000E+00 0. -1.
         23    2    1    2    0    0  0.63565718774E+03 -0.54530378928E+03 -0.84630198087E+02  0.84682791162E+03  0.92406485446E+02 0.  0.
        254    2    1    2    0    0 -0.63565718774E+03  0.54530378928E+03 -0.13674864067E+04  0.18352142003E+04  0.89251095545E+03 0.  0.
         23    2    4    4    0    0 -0.62309760177E+03 -0.13815647722E+02 -0.91160622114E+03  0.11079674386E+04  0.90135726539E+02 0.  0.
         23    2    4    4    0    0 -0.12559585968E+02  0.55911943700E+03 -0.45588018559E+03  0.72724676170E+03  0.91042961072E+02 0.  0.
          3    1    3    3  502    0  0.29654912635E+03 -0.30191715370E+03 -0.71625882312E+02  0.42921511978E+03  0.00000000000E+00 0. -1.
         -3    1    3    3    0  502  0.33910806139E+03 -0.24338663558E+03 -0.13004315775E+02  0.41761279184E+03  0.00000000000E+00 0.  1.
         13    1    5    5    0    0 -0.13562750998E+02 -0.50428855615E+01 -0.53168153923E+02  0.55102009954E+02  0.00000000000E+00 0. -1.
        -13    1    5    5    0    0 -0.60953485077E+03 -0.87727621600E+01 -0.85843806722E+03  0.10528654287E+04  0.00000000000E+00 0.  1.
          4    1    6    6  503    0 -0.28772984590E+02  0.12442386150E+03 -0.69316743748E+02  0.14530654809E+03  0.00000000000E+00 0. -1.
         -4    1    6    6    0  503  0.16213398622E+02  0.43469557550E+03 -0.38656344184E+03  0.58194021361E+03  0.00000000000E+00 0.  1.
<mgrwt>
<rscale>  0 0.22549295E+04</rscale>
<asrwt>0</asrwt>
<pdfrwt beam="1">  1        2 0.31801220E+00 0.22549295E+04</pdfrwt>
<pdfrwt beam="2">  1       -2 0.94609656E-01 0.22549295E+04</pdfrwt>
<totfact> 0.52485447E+00</totfact>
</mgrwt>
</event>
<event>
12    3  0.4634846E-008  0.1722241E+04  0.7818608E-02  0.8748780E-01
          2   -1    0    0  501    0  0.00000000000E+00  0.00000000000E+00  0.52459607134E+03  0.52459607134E+03  0.00000000000E+00 0. -1.
         -2   -1    0    0    0  501 -0.00000000000E+00 -0.00000000000E+00 -0.14135220971E+04  0.14135220971E+04  0.00000000000E+00 0.  1.
         23    2    1    2    0    0 -0.49654922665E+03  0.25439284086E+03 -0.61312824520E+03  0.83388097505E+03  0.90301625311E+02 0.  0.
        254    2    1    2    0    0  0.49654922665E+03 -0.25439284086E+03 -0.27579778061E+03  0.11042371934E+04  0.91213952419E+03 0.  0.
         23    2    4    4    0    0  0.46861470607E+03 -0.40636241856E+03  0.14892510232E+03  0.64308656654E+03  0.81556655191E+02 0.  0.
         23    2    4    4    0    0  0.27934520581E+02  0.15196957770E+03 -0.42472288293E+03  0.46115062689E+03  0.91625779162E+02 0.  0.
          2    1    3    3  502    0 -0.43484311494E+03  0.22959185187E+03 -0.49145227810E+03  0.69521672499E+03  0.00000000000E+00 0. -1.
         -2    1    3    3    0  502 -0.61706111705E+02  0.24800988991E+02 -0.12167596710E+03  0.13866425006E+03  0.00000000000E+00 0.  1.
         13    1    5    5    0    0  0.38432853161E+03 -0.30767066182E+03  0.89652830089E+02  0.50040712054E+03  0.00000000000E+00 0. -1.
        -13    1    5    5    0    0  0.84286174459E+02 -0.98691756743E+02  0.59272272235E+02  0.14267944600E+03  0.00000000000E+00 0.  1.
          1    1    6    6  503    0  0.58812417346E+02  0.12183370520E+03 -0.34345885385E+03  0.36914270472E+03  0.00000000000E+00 0. -1.
         -1    1    6    6    0  503 -0.30877896764E+02  0.30135872493E+02 -0.81264029083E+02  0.92007922172E+02  0.00000000000E+00 0.  1.
<mgrwt>
<rscale>  0 0.17222406E+04</rscale>
<asrwt>0</asrwt>
<pdfrwt beam="1">  1        2 0.80707088E-01 0.17222406E+04</pdfrwt>
<pdfrwt beam="2">  1       -2 0.21746494E+00 0.17222406E+04</pdfrwt>
<totfact> 0.56676619E+00</totfact>
</mgrwt>
</event>
<event>
12    3  0.4634846E-008  0.1574395E+04  0.7818608E-02  0.8836435E-01
         -2   -1    0    0    0  501 -0.00000000000E+00  0.00000000000E+00  0.34590411286E+03  0.34590411286E+03  0.00000000000E+00 0. -1.
          2   -1    0    0  501    0  0.00000000000E+00 -0.00000000000E+00 -0.17914780105E+04  0.17914780105E+04  0.00000000000E+00 0.  1.
         23    2    1    2    0    0 -0.20559823170E+03  0.11427653441E+03  0.15127127411E+03  0.29334290774E+03  0.88528548814E+02 0.  0.
        254    2    1    2    0    0  0.20559823170E+03 -0.11427653441E+03 -0.15968451718E+04  0.18440392157E+04  0.89176026319E+03 0.  0.
         23    2    4    4    0    0  0.44239693482E+03 -0.14978075795E+03 -0.14903769796E+04  0.15644899888E+04  0.90862865315E+02 0.  0.
         23    2    4    4    0    0 -0.23679870312E+03  0.35504223542E+02 -0.10646819219E+03  0.27954922687E+03  0.97355629563E+02 0.  0.
          1    1    3    3  502    0 -0.15100901993E+03  0.55663676486E+02  0.59632879651E+02  0.17163405640E+03  0.00000000000E+00 0. -1.
         -1    1    3    3    0  502 -0.54589211769E+02  0.58612857920E+02  0.91638394460E+02  0.12170885134E+03  0.00000000000E+00 0.  1.
         13    1    5    5    0    0  0.21505497819E+03 -0.49882086172E+02 -0.83355719584E+03  0.86229604249E+03  0.00000000000E+00 0.  1.
        -13    1    5    5    0    0  0.22734195663E+03 -0.99898671775E+02 -0.65681978378E+03  0.70219394631E+03  0.00000000000E+00 0. -1.
          4    1    6    6  503    0 -0.93601039190E+02  0.49430851435E+02 -0.81348295681E+02  0.13349947124E+03  0.00000000000E+00 0. -1.
         -4    1    6    6    0  503 -0.14319766393E+03 -0.13926627893E+02 -0.25119896506E+02  0.14604975563E+03  0.00000000000E+00 0.  1.
<mgrwt>
<rscale>  0 0.15743946E+04</rscale>
<asrwt>0</asrwt>
<pdfrwt beam="1">  1        2 0.27561200E+00 0.15743946E+04</pdfrwt>
<pdfrwt beam="2">  1       -2 0.53216017E-01 0.15743946E+04</pdfrwt>
<totfact> 0.27900985E+01</totfact>
</mgrwt>
</event>
<event>
12    3  0.4634846E-008  0.1327767E+04  0.7818608E-02  0.9007831E-01
         -2   -1    0    0    0  501 -0.00000000000E+00  0.00000000000E+00  0.59363956044E+03  0.59363956044E+03  0.00000000000E+00 0. -1.
          2   -1    0    0  501    0  0.00000000000E+00 -0.00000000000E+00 -0.74243965501E+03  0.74243965501E+03  0.00000000000E+00 0.  1.
         23    2    1    2    0    0  0.15751969449E+03 -0.16508530984E+03  0.20186551700E+03  0.32093700479E+03  0.10092205119E+03 0.  0.
        254    2    1    2    0    0 -0.15751969449E+03  0.16508530984E+03 -0.35066561156E+03  0.10151422107E+04  0.92492254975E+03 0.  0.
         23    2    4    4    0    0 -0.43134693628E+03  0.37665958283E+03 -0.13467728649E+03  0.59598769250E+03  0.95554891778E+02 0.  0.
         23    2    4    4    0    0  0.27382724178E+03 -0.21157427299E+03 -0.21598832507E+03  0.41915451815E+03  0.96408102290E+02 0.  0.
          1    1    3    3  502    0  0.12536081709E+03 -0.12781006411E+03  0.20430580494E+03  0.27164610964E+03  0.00000000000E+00 0. -1.
         -1    1    3    3    0  502  0.32158877401E+02 -0.37275245733E+02 -0.24402879433E+01  0.49290895157E+02  0.00000000000E+00 0.  1.
         13    1    5    5    0    0 -0.13025037259E+03  0.74790683380E+02 -0.47572865313E+01  0.15027121366E+03  0.00000000000E+00 0.  1.
        -13    1    5    5    0    0 -0.30109656369E+03  0.30186889945E+03 -0.12991999996E+03  0.44571647884E+03  0.00000000000E+00 0. -1.
          3    1    6    6  503    0  0.12522934110E+03 -0.90895880151E+02 -0.15305503433E+03  0.21764717419E+03  0.00000000000E+00 0.  1.
         -3    1    6    6    0  503  0.14859790069E+03 -0.12067839284E+03 -0.62933290743E+02  0.20150734396E+03  0.00000000000E+00 0. -1.
<mgrwt>
<rscale>  0 0.13277674E+04</rscale>
<asrwt>0</asrwt>
<pdfrwt beam="1">  1        2 0.11422148E+00 0.13277674E+04</pdfrwt>
<pdfrwt beam="2">  1       -2 0.91329164E-01 0.13277674E+04</pdfrwt>
<totfact> 0.37986524E+01</totfact>
</mgrwt>
</event>
<event>
12    3  0.4634846E-008  0.1696249E+04  0.7818608E-02  0.8763506E-01
          1   -1    0    0  501    0  0.00000000000E+00  0.00000000000E+00  0.97543425575E+03  0.97543425575E+03  0.00000000000E+00 0. -1.
         -1   -1    0    0    0  501 -0.00000000000E+00 -0.00000000000E+00 -0.73743089858E+03  0.73743089858E+03  0.00000000000E+00 0.  1.
         23    2    1    2    0    0 -0.18878174716E+03  0.54692348959E+03  0.26365985726E+03  0.64279411538E+03  0.94360494441E+02 0.  0.
        254    2    1    2    0    0  0.18878174716E+03 -0.54692348959E+03 -0.25656500085E+02  0.10700710389E+04  0.89979437699E+03 0.  0.
         23    2    4    4    0    0  0.45036772334E+03 -0.56839601351E+03  0.14320265156E+03  0.74467281545E+03  0.90141490221E+02 0.  0.
         23    2    4    4    0    0 -0.26158597617E+03  0.21472523917E+02 -0.16885915164E+03  0.32539822350E+03  0.92099394954E+02 0.  0.
          2    1    3    3  502    0 -0.19388125430E+03  0.54494113728E+03  0.26624898332E+03  0.63674116012E+03  0.00000000000E+00 0. -1.
         -2    1    3    3    0  502  0.50995071358E+01  0.19823523109E+01 -0.25891260572E+01  0.60529552660E+01  0.00000000000E+00 0.  1.
         13    1    5    5    0    0  0.12371203923E+03 -0.12851319920E+03  0.71154531298E+02  0.19205019745E+03  0.00000000000E+00 0.  1.
        -13    1    5    5    0    0  0.32665568411E+03 -0.43988281431E+03  0.72048120259E+02  0.55262261799E+03  0.00000000000E+00 0. -1.
          2    1    6    6  503    0 -0.18745371069E+03 -0.18229817432E+02 -0.14586155628E+03  0.23821589682E+03  0.00000000000E+00 0.  1.
         -2    1    6    6    0  503 -0.74132265477E+02  0.39702341349E+02 -0.22997595365E+02  0.87182326683E+02  0.00000000000E+00 0. -1.
<mgrwt>
<rscale>  0 0.16962492E+04</rscale>
<asrwt>0</asrwt>
<pdfrwt beam="1">  1        1 0.15006681E+00 0.16962492E+04</pdfrwt>
<pdfrwt beam="2">  1       -1 0.11345091E+00 0.16962492E+04</pdfrwt>
<totfact> 0.10680477E+01</totfact>
</mgrwt>
</event>
<event>
12    3  0.4634846E-008  0.1416919E+04  0.7818608E-02  0.8941662E-01
          3   -1    0    0  501    0  0.00000000000E+00  0.00000000000E+00  0.87393138589E+03  0.87393138589E+03  0.00000000000E+00 0. -1.
         -3   -1    0    0    0  501 -0.00000000000E+00 -0.00000000000E+00 -0.57431866390E+03  0.57431866390E+03  0.00000000000E+00 0.  1.
         23    2    1    2    0    0 -0.13573338523E+03  0.25508063163E+03  0.38768992964E+03  0.49234135650E+03  0.92773106416E+02 0.  0.
        254    2    1    2    0    0  0.13573338523E+03 -0.25508063163E+03 -0.88077207649E+02  0.95590869329E+03  0.90692566117E+03 0.  0.
         23    2    4    4    0    0  0.41911200947E+03 -0.18169463743E+03 -0.32613694147E+03  0.56852462837E+03  0.90482764771E+02 0.  0.
         23    2    4    4    0    0 -0.28337862424E+03 -0.73385994206E+02  0.23805973382E+03  0.38738406492E+03  0.87778289241E+02 0.  0.
          2    1    3    3  502    0 -0.14774152228E+03  0.21747626418E+03  0.35013350757E+03  0.43785494860E+03  0.00000000000E+00 0. -1.
         -2    1    3    3    0  502  0.12008137058E+02  0.37604367451E+02  0.37556422072E+02  0.54486407900E+02  0.00000000000E+00 0.  1.
         13    1    5    5    0    0  0.15949528529E+03 -0.22430070983E+02 -0.10941292814E+03  0.19471271905E+03  0.00000000000E+00 0. -1.
        -13    1    5    5    0    0  0.25961672417E+03 -0.15926456644E+03 -0.21672401333E+03  0.37381190932E+03  0.00000000000E+00 0.  1.
          3    1    6    6  503    0 -0.12630890450E+03 -0.77928292931E+02  0.11196883587E+03  0.18591336262E+03  0.00000000000E+00 0. -1.
         -3    1    6    6    0  503 -0.15706971974E+03  0.45422987248E+01  0.12609089795E+03  0.20147070230E+03  0.00000000000E+00 0.  1.
<mgrwt>
<rscale>  0 0.14169193E+04</rscale>
<asrwt>0</asrwt>
<pdfrwt beam="1">  1        3 0.13445098E+00 0.14169193E+04</pdfrwt>
<pdfrwt beam="2">  1       -3 0.88356718E-01 0.14169193E+04</pdfrwt>
<totfact> 0.12664330E+00</totfact>
</mgrwt>
</event>
<event>
12    3  0.4634846E-008  0.1717122E+04  0.7818608E-02  0.8751659E-01
          2   -1    0    0  501    0  0.00000000000E+00  0.00000000000E+00  0.20594597923E+04  0.20594597923E+04  0.00000000000E+00 0. -1.
         -2   -1    0    0    0  501 -0.00000000000E+00 -0.00000000000E+00 -0.35792266377E+03  0.35792266377E+03  0.00000000000E+00 0.  1.
         23    2    1    2    0    0  0.32373947757E+01  0.22382893981E+03 -0.19193238340E+03  0.30932811860E+03  0.93466411800E+02 0.  0.
        254    2    1    2    0    0 -0.32373947757E+01 -0.22382893981E+03  0.18934695119E+04  0.21080543375E+04  0.89919765462E+03 0.  0.
         23    2    4    4    0    0  0.67565895573E+02  0.28393891240E+03  0.28909366627E+03  0.42140388777E+03  0.93912898655E+02 0.  0.
         23    2    4    4    0    0 -0.70803290348E+02 -0.50776785221E+03  0.16043758457E+04  0.16866504497E+04  0.89031385755E+02 0.  0.
          2    1    3    3  502    0  0.17716233220E+02  0.16200110142E+03 -0.82145553715E+02  0.18249962679E+03  0.00000000000E+00 0.  1.
         -2    1    3    3    0  502 -0.14478838444E+02  0.61827838389E+02 -0.10978682969E+03  0.12682849181E+03  0.00000000000E+00 0. -1.
         13    1    5    5    0    0  0.56676391862E+02  0.20797388759E+03  0.15022398636E+03  0.26274055148E+03  0.00000000000E+00 0. -1.
        -13    1    5    5    0    0  0.10889503710E+02  0.75965024808E+02  0.13886967991E+03  0.15866333629E+03  0.00000000000E+00 0.  1.
          4    1    6    6  503    0 -0.30786675438E+02 -0.15914419677E+03  0.38363029946E+03  0.41646956842E+03  0.00000000000E+00 0. -1.
         -4    1    6    6    0  503 -0.40016614911E+02 -0.34862365543E+03  0.12207455462E+04  0.12701808813E+04  0.00000000000E+00 0.  1.
<mgrwt>
<rscale>  0 0.17171224E+04</rscale>
<asrwt>0</asrwt>
<pdfrwt beam="1">  1        2 0.31683996E+00 0.17171224E+04</pdfrwt>
<pdfrwt beam="2">  1       -2 0.55065026E-01 0.17171224E+04</pdfrwt>
<totfact> 0.18247092E+01</totfact>
</mgrwt>
</event>
<event>
12    3  0.4634846E-008  0.1228287E+04  0.7818608E-02  0.9088451E-01
          2   -1    0    0  501    0  0.00000000000E+00  0.00000000000E+00  0.15327436274E+04  0.15327436274E+04  0.00000000000E+00 0. -1.
         -2   -1    0    0    0  501 -0.00000000000E+00 -0.00000000000E+00 -0.24607656179E+03  0.24607656179E+03  0.00000000000E+00 0.  1.
         23    2    1    2    0    0 -0.18310641648E+02  0.15621088879E+03 -0.25057848446E+02  0.18228092971E+03  0.88664086261E+02 0.  0.
        254    2    1    2    0    0  0.18310641648E+02 -0.15621088879E+03  0.13117249141E+04  0.15965392595E+04  0.89642525373E+03 0.  0.
         23    2    4    4    0    0  0.40470800028E+02  0.36193000693E+03  0.45455555226E+03  0.59073784133E+03  0.98586162877E+02 0.  0.
         23    2    4    4    0    0 -0.22160158380E+02 -0.51814089573E+03  0.85716936180E+03  0.10058014182E+04  0.89084889335E+02 0.  0.
          2    1    3    3  502    0  0.22330867895E+02  0.40524884905E+01 -0.70325399856E+01  0.23760196601E+02  0.00000000000E+00 0. -1.
         -2    1    3    3    0  502 -0.40641509543E+02  0.15215840030E+03 -0.18025308460E+02  0.15852073311E+03  0.00000000000E+00 0.  1.
         13    1    5    5    0    0  0.16853651828E+02  0.25378514909E+01  0.23199145435E+02  0.28786917498E+02  0.00000000000E+00 0.  1.
        -13    1    5    5    0    0  0.23617148200E+02  0.35939215544E+03  0.43135640683E+03  0.56195092383E+03  0.00000000000E+00 0. -1.
          1    1    6    6  503    0 -0.53197109215E+02 -0.35130287206E+03  0.61120058887E+03  0.70697227681E+03  0.00000000000E+00 0. -1.
         -1    1    6    6    0  503  0.31036950836E+02 -0.16683802367E+03  0.24596877293E+03  0.29882914134E+03  0.00000000000E+00 0.  1.
<mgrwt>
<rscale>  0 0.12282871E+04</rscale>
<asrwt>0</asrwt>
<pdfrwt beam="1">  1        2 0.23580671E+00 0.12282871E+04</pdfrwt>
<pdfrwt beam="2">  1       -2 0.37857933E-01 0.12282871E+04</pdfrwt>
<totfact> 0.78857369E+01</totfact>
</mgrwt>
</event>
<event>
12    3  0.4634846E-008  0.1274478E+04  0.7818608E-02  0.9050053E-01
         -2   -1    0    0    0  501 -0.00000000000E+00  0.00000000000E+00  0.47592453977E+03  0.47592453977E+03  0.00000000000E+00 0.  1.
          2   -1    0    0  501    0  0.00000000000E+00 -0.00000000000E+00 -0.85323134705E+03  0.85323134705E+03  0.00000000000E+00 0. -1.
         23    2    1    2    0    0 -0.15440383300E+03  0.24770784173E+03 -0.15369574662E+03  0.35167481749E+03  0.12187319733E+03 0.  0.
        254    2    1    2    0    0  0.15440383300E+03 -0.24770784173E+03 -0.22361106066E+03  0.97748106933E+03  0.90568626795E+03 0.  0.
         23    2    4    4    0    0  0.47904562588E+03  0.62743692017E+02 -0.90465428418E+02  0.50023477942E+03  0.92894339132E+02 0.  0.
         23    2    4    4    0    0 -0.32464179287E+03 -0.31045153374E+03 -0.13314563224E+03  0.47724628991E+03  0.90905518883E+02 0.  0.
          3    1    3    3  502    0 -0.11965060016E+03  0.19494625461E+03 -0.17166745181E+03  0.28598954931E+03  0.00000000000E+00 0. -1.
         -3    1    3    3    0  502 -0.34753232845E+02  0.52761587117E+02  0.17971705186E+02  0.65685268177E+02  0.00000000000E+00 0.  1.
         13    1    5    5    0    0  0.45639670583E+02 -0.10419948524E+02 -0.32275248656E+02  0.56861643786E+02  0.00000000000E+00 0. -1.
        -13    1    5    5    0    0  0.43340595529E+03  0.73163640541E+02 -0.58190179762E+02  0.44337313563E+03  0.00000000000E+00 0.  1.
          1    1    6    6  503    0 -0.20962636207E+02  0.37460127810E+01 -0.49664026345E+01  0.21866181277E+02  0.00000000000E+00 0. -1.
         -1    1    6    6    0  503 -0.30367915667E+03 -0.31419754652E+03 -0.12817922961E+03  0.45538010863E+03  0.00000000000E+00 0.  1.
<mgrwt>
<rscale>  0 0.12744783E+04</rscale>
<asrwt>0</asrwt>
<pdfrwt beam="1">  1        2 0.13126636E+00 0.12744783E+04</pdfrwt>
<pdfrwt beam="2">  1       -2 0.73219160E-01 0.12744783E+04</pdfrwt>
<totfact> 0.52229756E+01</totfact>
</mgrwt>
</event>
<event>
12    3  0.4634846E-008  0.1572720E+04  0.7818608E-02  0.8837485E-01
          2   -1    0    0  501    0  0.00000000000E+00  0.00000000000E+00  0.18784363201E+04  0.18784363201E+04  0.00000000000E+00 0. -1.
         -2   -1    0    0    0  501 -0.00000000000E+00 -0.00000000000E+00 -0.32918986796E+03  0.32918986796E+03  0.00000000000E+00 0.  1.
         23    2    1    2    0    0 -0.99934865115E+02  0.99304427493E+02 -0.18670966427E+03  0.24893728045E+03  0.85211057276E+02 0.  0.
        254    2    1    2    0    0  0.99934865115E+02 -0.99304427493E+02  0.17359561164E+04  0.19586889076E+04  0.89614187055E+03 0.  0.
         23    2    4    4    0    0  0.35360150255E+03  0.22948077969E+03  0.55185024177E+03  0.70064054939E+03  0.93075449280E+02 0.  0.
         23    2    4    4    0    0 -0.25366663744E+03 -0.32878520718E+03  0.11841058746E+04  0.12580483582E+04  0.90180229934E+02 0.  0.
          2    1    3    3  502    0 -0.63795980142E+01  0.52406057741E+01  0.91824941920E+01  0.12348336701E+02  0.00000000000E+00 0. -1.
         -2    1    3    3    0  502 -0.93555267100E+02  0.94063821719E+02 -0.19589215846E+03  0.23658894375E+03  0.00000000000E+00 0.  1.
         13    1    5    5    0    0  0.23319801174E+03  0.18996175734E+03  0.34152417080E+03  0.45508849818E+03  0.00000000000E+00 0. -1.
        -13    1    5    5    0    0  0.12040349081E+03  0.39519022347E+02  0.21032607097E+03  0.24555205122E+03  0.00000000000E+00 0.  1.
          3    1    6    6  503    0 -0.18413505619E+03 -0.20524080284E+03  0.88667977857E+03  0.92856369507E+03  0.00000000000E+00 0. -1.
         -3    1    6    6    0  503 -0.69531581247E+02 -0.12354440435E+03  0.29742609607E+03  0.32948466316E+03  0.00000000000E+00 0.  1.
<mgrwt>
<rscale>  0 0.15727202E+04</rscale>
<asrwt>0</asrwt>
<pdfrwt beam="1">  1        2 0.28899020E+00 0.15727202E+04</pdfrwt>
<pdfrwt beam="2">  1       -2 0.50644596E-01 0.15727202E+04</pdfrwt>
<totfact> 0.27651370E+01</totfact>
</mgrwt>
</event>
<event>
12    3  0.4634846E-008  0.3176475E+04  0.7818608E-02  0.8195058E-01
         -2   -1    0    0    0  501 -0.00000000000E+00  0.00000000000E+00  0.20766012730E+04  0.20766012730E+04  0.00000000000E+00 0.  1.
          2   -1    0    0  501    0  0.00000000000E+00 -0.00000000000E+00 -0.12147246689E+04  0.12147246689E+04  0.00000000000E+00 0. -1.
         23    2    1    2    0    0  0.13754762176E+04 -0.18879797444E+02 -0.10301888818E+03  0.13823802695E+04  0.89839001561E+02 0.  0.
        254    2    1    2    0    0 -0.13754762176E+04  0.18879797444E+02  0.96489549224E+03  0.19089456724E+04  0.90595750302E+03 0.  0.
         23    2    4    4    0    0 -0.62358355367E+03  0.65478907347E+02 -0.57129871570E+02  0.63642957049E+03  0.92923841171E+02 0.  0.
         23    2    4    4    0    0 -0.75189266397E+03 -0.46599109903E+02  0.10220253638E+04  0.12725161019E+04  0.85131252975E+02 0.  0.
          3    1    3    3  502    0  0.60880578864E+03  0.24867357815E+02 -0.15716873492E+02  0.60951611454E+03  0.00000000000E+00 0. -1.
         -3    1    3    3    0  502  0.76667042900E+03 -0.43747155259E+02 -0.87302014692E+02  0.77286415499E+03  0.00000000000E+00 0.  1.
         13    1    5    5    0    0 -0.55503835890E+03  0.62127316729E+02 -0.21061713744E+02  0.55890158268E+03  0.00000000000E+00 0.  1.
        -13    1    5    5    0    0 -0.68545194768E+02  0.33515906174E+01 -0.36068157826E+02  0.77527987814E+02  0.00000000000E+00 0. -1.
          3    1    6    6  503    0 -0.11318146730E+03  0.18729515587E+02  0.18364414774E+03  0.21653178125E+03  0.00000000000E+00 0. -1.
         -3    1    6    6    0  503 -0.63871119667E+03 -0.65328625490E+02  0.83838121607E+03  0.10559843207E+04  0.00000000000E+00 0.  1.
<mgrwt>
<rscale>  0 0.31764753E+04</rscale>
<asrwt>0</asrwt>
<pdfrwt beam="1">  1        2 0.18688072E+00 0.31764753E+04</pdfrwt>
<pdfrwt beam="2">  1       -2 0.31947712E+00 0.31764753E+04</pdfrwt>
<totfact> 0.37769009E-01</totfact>
</mgrwt>
</event>
<event>
12    3  0.4634846E-008  0.2320056E+04  0.7818608E-02  0.8470055E-01
         -2   -1    0    0    0  501 -0.00000000000E+00  0.00000000000E+00  0.55535127659E+03  0.55535127659E+03  0.00000000000E+00 0.  1.
          2   -1    0    0  501    0  0.00000000000E+00 -0.00000000000E+00 -0.24230882510E+04  0.24230882510E+04  0.00000000000E+00 0. -1.
         23    2    1    2    0    0  0.82283213496E+03 -0.20008833055E+03 -0.13640455958E+04  0.16082782823E+04  0.94077540649E+02 0.  0.
        254    2    1    2    0    0 -0.82283213496E+03  0.20008833055E+03 -0.50369137861E+03  0.13701612453E+04  0.95212854742E+03 0.  0.
         23    2    4    4    0    0 -0.27527376735E+03  0.34081142304E+03  0.17665142614E+03  0.48074036363E+03  0.89316839363E+02 0.  0.
         23    2    4    4    0    0 -0.54755836760E+03 -0.14072309249E+03 -0.68034280476E+03  0.88942088164E+03  0.92628386712E+02 0.  0.
          4    1    3    3  502    0  0.81005549514E+03 -0.19485169366E+03 -0.13100290028E+04  0.15525247425E+04  0.00000000000E+00 0. -1.
         -4    1    3    3    0  502  0.12776639818E+02 -0.52366368860E+01 -0.54016592960E+02  0.55753539851E+02  0.00000000000E+00 0.  1.
         13    1    5    5    0    0 -0.47417150190E+02  0.66498691621E+02 -0.24030926231E+01  0.81708242996E+02  0.00000000000E+00 0. -1.
        -13    1    5    5    0    0 -0.22785661716E+03  0.27431273142E+03  0.17905451877E+03  0.39903212063E+03  0.00000000000E+00 0.  1.
          3    1    6    6  503    0 -0.48376257434E+02  0.10057703052E+02 -0.82022315575E+02  0.95755312784E+02  0.00000000000E+00 0. -1.
         -3    1    6    6    0  503 -0.49918211017E+03 -0.15078079554E+03 -0.59832048918E+03  0.79366556886E+03  0.00000000000E+00 0.  1.
<mgrwt>
<rscale>  0 0.23200562E+04</rscale>
<asrwt>0</asrwt>
<pdfrwt beam="1">  1        2 0.37278280E+00 0.23200562E+04</pdfrwt>
<pdfrwt beam="2">  1       -2 0.85438659E-01 0.23200562E+04</pdfrwt>
<totfact> 0.41558551E+00</totfact>
</mgrwt>
</event>
<event>
12    3  0.4634846E-008  0.2020745E+04  0.7818608E-02  0.8596982E-01
         -1   -1    0    0    0  501 -0.00000000000E+00  0.00000000000E+00  0.79430354523E+03  0.79430354523E+03  0.00000000000E+00 0.  1.
          1   -1    0    0  501    0  0.00000000000E+00 -0.00000000000E+00 -0.12852178197E+04  0.12852178197E+04  0.00000000000E+00 0. -1.
         23    2    1    2    0    0 -0.63933683969E+03 -0.25935333701E+03 -0.63360745259E+03  0.94097078748E+03  0.89173263382E+02 0.  0.
        254    2    1    2    0    0  0.63933683969E+03  0.25935333701E+03  0.14269317808E+03  0.11385505775E+04  0.89438265102E+03 0.  0.
         23    2    4    4    0    0  0.76512627276E+03  0.23780476311E+03 -0.13716512763E+03  0.81787272436E+03  0.90178724705E+02 0.  0.
         23    2    4    4    0    0 -0.12578943307E+03  0.21548573897E+02  0.27985830571E+03  0.32067785314E+03  0.90698906890E+02 0.  0.
          4    1    3    3  502    0 -0.41492356418E+02 -0.48747534943E+01 -0.16654293617E+02  0.44974930335E+02  0.00000000000E+00 0.  1.
         -4    1    3    3    0  502 -0.59784448327E+03 -0.25447858352E+03 -0.61695315897E+03  0.89599585714E+03  0.00000000000E+00 0. -1.
         13    1    5    5    0    0  0.46186469681E+03  0.11998529472E+03 -0.42755199004E+02  0.47910695690E+03  0.00000000000E+00 0. -1.
        -13    1    5    5    0    0  0.30326157595E+03  0.11781946839E+03 -0.94409928631E+02  0.33876576746E+03  0.00000000000E+00 0.  1.
          4    1    6    6  503    0 -0.11600945653E+03  0.30302285765E+02  0.28285146773E+03  0.30721551934E+03  0.00000000000E+00 0. -1.
         -4    1    6    6    0  503 -0.97799765388E+01 -0.87537118680E+01 -0.29931620158E+01  0.13462333803E+02  0.00000000000E+00 0.  1.
<mgrwt>
<rscale>  0 0.20207455E+04</rscale>
<asrwt>0</asrwt>
<pdfrwt beam="1">  1        1 0.19772581E+00 0.20207455E+04</pdfrwt>
<pdfrwt beam="2">  1       -1 0.12220055E+00 0.20207455E+04</pdfrwt>
<totfact> 0.50814300E+00</totfact>
</mgrwt>
</event>
<event>
12    3  0.4634846E-008  0.2000024E+04  0.7818608E-02  0.8606609E-01
         -2   -1    0    0    0  501 -0.00000000000E+00  0.00000000000E+00  0.94120844216E+03  0.94120844216E+03  0.00000000000E+00 0.  1.
          2   -1    0    0  501    0  0.00000000000E+00 -0.00000000000E+00 -0.10624893198E+04  0.10624893198E+04  0.00000000000E+00 0. -1.
         23    2    1    2    0    0 -0.31635194500E+03  0.32656174834E+03 -0.67565798886E+03  0.81962591100E+03  0.92475875165E+02 0.  0.
        254    2    1    2    0    0  0.31635194500E+03 -0.32656174834E+03  0.55437711126E+03  0.11840718509E+04  0.94232215195E+03 0.  0.
         23    2    4    4    0    0  0.51509740383E+02  0.51414223874E+02 -0.23630904483E+03  0.26376778214E+03  0.91841180611E+02 0.  0.
         23    2    4    4    0    0  0.26484220462E+03 -0.37797597221E+03  0.79068615610E+03  0.92030406877E+03  0.93636278441E+02 0.  0.
          3    1    3    3  502    0 -0.31016829137E+03  0.32576757654E+03 -0.67740982236E+03  0.81315001711E+03  0.00000000000E+00 0. -1.
         -3    1    3    3    0  502 -0.61836536341E+01  0.79417180107E+00  0.17518334978E+01  0.64758938935E+01  0.00000000000E+00 0.  1.
         13    1    5    5    0    0  0.95636291010E+00 -0.23794393451E+02 -0.75699612986E+02  0.79356910197E+02  0.00000000000E+00 0.  1.
        -13    1    5    5    0    0  0.50553377473E+02  0.75208617325E+02 -0.16060943185E+03  0.18441087195E+03  0.00000000000E+00 0. -1.
          1    1    6    6  503    0  0.26092228812E+03 -0.38187661670E+03  0.76430003956E+03  0.89334469343E+03  0.00000000000E+00 0. -1.
         -1    1    6    6    0  503  0.39199165033E+01  0.39006444835E+01  0.26386116542E+02  0.26959375344E+02  0.00000000000E+00 0.  1.
<mgrwt>
<rscale>  0 0.20000239E+04</rscale>
<asrwt>0</asrwt>
<pdfrwt beam="1">  1        2 0.16345989E+00 0.20000239E+04</pdfrwt>
<pdfrwt beam="2">  1       -2 0.14480130E+00 0.20000239E+04</pdfrwt>
<totfact> 0.70237910E+00</totfact>
</mgrwt>
</event>
<event>
12    3  0.4656249E-008  0.2496750E+04  0.7818608E-02  0.8404144E-01
         -1   -1    0    0    0  501 -0.00000000000E+00  0.00000000000E+00  0.84166690347E+03  0.84166690347E+03  0.00000000000E+00 0.  1.
          1   -1    0    0  501    0  0.00000000000E+00 -0.00000000000E+00 -0.18516114852E+04  0.18516114852E+04  0.00000000000E+00 0. -1.
         23    2    1    2    0    0 -0.51300036099E+03 -0.40918027862E+03 -0.13632789437E+04  0.15156260493E+04  0.89414608359E+02 0.  0.
        254    2    1    2    0    0  0.51300036099E+03  0.40918027862E+03  0.35333436201E+03  0.11776523393E+04  0.91182344243E+03 0.  0.
         23    2    4    4    0    0  0.39268258244E+03  0.13502443332E+03  0.62989809645E+03  0.75998323373E+03  0.91496969785E+02 0.  0.
         23    2    4    4    0    0  0.12031777855E+03  0.27415584530E+03 -0.27656373444E+03  0.41766910561E+03  0.91226022738E+02 0.  0.
          3    1    3    3  502    0 -0.41843067630E+03 -0.31085345568E+03 -0.10026150800E+04  0.11300226106E+04  0.00000000000E+00 0. -1.
         -3    1    3    3    0  502 -0.94569684694E+02 -0.98326822941E+02 -0.36066386374E+03  0.38560343876E+03  0.00000000000E+00 0.  1.
         13    1    5    5    0    0  0.35469130856E+03  0.10915644325E+03  0.59885536780E+03  0.70452026586E+03  0.00000000000E+00 0. -1.
        -13    1    5    5    0    0  0.37991273882E+02  0.25867990077E+02  0.31042728656E+02  0.55462967864E+02  0.00000000000E+00 0.  1.
          3    1    6    6  503    0 -0.51048125360E+00  0.30214960284E+02 -0.88132066157E+00  0.30232121033E+02  0.00000000000E+00 0.  1.
         -3    1    6    6    0  503  0.12082825981E+03  0.24394088502E+03 -0.27568241378E+03  0.38743698457E+03  0.00000000000E+00 0. -1.
<mgrwt>
<rscale>  0 0.24967500E+04</rscale>
<asrwt>0</asrwt>
<pdfrwt beam="1">  1        1 0.28486330E+00 0.24967500E+04</pdfrwt>
<pdfrwt beam="2">  1       -1 0.12948722E+00 0.24967500E+04</pdfrwt>
<totfact> 0.17104318E+00</totfact>
</mgrwt>
</event>
<event>
12    3  0.4634846E-008  0.2510834E+04  0.7818608E-02  0.8399136E-01
         -2   -1    0    0    0  501 -0.00000000000E+00  0.00000000000E+00  0.78973366154E+03  0.78973366154E+03  0.00000000000E+00 0.  1.
          2   -1    0    0  501    0  0.00000000000E+00 -0.00000000000E+00 -0.19957010238E+04  0.19957010238E+04  0.00000000000E+00 0. -1.
         23    2    1    2    0    0 -0.41126254716E+02 -0.10940968753E+04 -0.50652550649E+03  0.12080829571E+04  0.64474811705E+02 0.  0.
        254    2    1    2    0    0  0.41126254716E+02  0.10940968753E+04 -0.69944185577E+03  0.15773517282E+04  0.89447203621E+03 0.  0.
         23    2    4    4    0    0 -0.18391255051E+03  0.10074588150E+04 -0.24800968768E+03  0.10575109543E+04  0.89574120971E+02 0.  0.
         23    2    4    4    0    0  0.22503880522E+03  0.86638060293E+02 -0.45143216809E+03  0.51984077391E+03  0.91075850208E+02 0.  0.
          2    1    3    3  502    0 -0.22528481101E+02 -0.98891051897E+03 -0.44332719473E+03  0.10839698098E+04  0.00000000000E+00 0. -1.
         -2    1    3    3    0  502 -0.18597773615E+02 -0.10518635629E+03 -0.63198311756E+02  0.12411314734E+03  0.00000000000E+00 0.  1.
         13    1    5    5    0    0 -0.14009152112E+03  0.86403758969E+03 -0.18397739054E+03  0.89444634882E+03  0.00000000000E+00 0. -1.
        -13    1    5    5    0    0 -0.43821029390E+02  0.14342122528E+03 -0.64032297139E+02  0.16306460546E+03  0.00000000000E+00 0.  1.
          1    1    6    6  503    0  0.18400788653E+03  0.61141950811E+02 -0.27211989561E+03  0.33413541872E+03  0.00000000000E+00 0. -1.
         -1    1    6    6    0  503  0.41030918691E+02  0.25496109482E+02 -0.17931227247E+03  0.18570535519E+03  0.00000000000E+00 0.  1.
<mgrwt>
<rscale>  0 0.25108343E+04</rscale>
<asrwt>0</asrwt>
<pdfrwt beam="1">  1        2 0.30703092E+00 0.25108343E+04</pdfrwt>
<pdfrwt beam="2">  1       -2 0.12149749E+00 0.25108343E+04</pdfrwt>
<totfact> 0.30821000E+00</totfact>
</mgrwt>
</event>
<event>
12    3  0.4634846E-008  0.2225476E+04  0.7818608E-02  0.8507899E-01
         -2   -1    0    0    0  501 -0.00000000000E+00  0.00000000000E+00  0.14377150712E+04  0.14377150712E+04  0.00000000000E+00 0.  1.
          2   -1    0    0  501    0  0.00000000000E+00 -0.00000000000E+00 -0.86121777023E+03  0.86121777023E+03  0.00000000000E+00 0. -1.
         23    2    1    2    0    0  0.10677642494E+03  0.56345908483E+03 -0.51198980656E+03  0.77441570131E+03  0.93267203331E+02 0.  0.
        254    2    1    2    0    0 -0.10677642494E+03 -0.56345908483E+03  0.10884871075E+04  0.15245171401E+04  0.90025606470E+03 0.  0.
         23    2    4    4    0    0  0.36578973558E+03 -0.20543003037E+03  0.25786393512E+03  0.50014521185E+03  0.87451677384E+02 0.  0.
         23    2    4    4    0    0 -0.47256616052E+03 -0.35802905446E+03  0.83062317239E+03  0.10243719282E+04  0.88878641699E+02 0.  0.
          3    1    3    3  502    0  0.10132699491E+03  0.54207023005E+03 -0.51177333036E+03  0.75234249905E+03  0.00000000000E+00 0. -1.
         -3    1    3    3    0  502  0.54494300244E+01  0.21388854775E+02 -0.21647620223E+00  0.22073202263E+02  0.00000000000E+00 0.  1.
         13    1    5    5    0    0  0.23318525943E+03 -0.16036518327E+03  0.13378570186E+03  0.31303509586E+03  0.00000000000E+00 0.  1.
        -13    1    5    5    0    0  0.13260447615E+03 -0.45064847099E+02  0.12407823326E+03  0.18711011599E+03  0.00000000000E+00 0. -1.
          1    1    6    6  503    0 -0.28078216138E+03 -0.23585014732E+03  0.44414442470E+03  0.57595849168E+03  0.00000000000E+00 0. -1.
         -1    1    6    6    0  503 -0.19178399913E+03 -0.12217890713E+03  0.38647874769E+03  0.44841343656E+03  0.00000000000E+00 0.  1.
<mgrwt>
<rscale>  0 0.22254759E+04</rscale>
<asrwt>0</asrwt>
<pdfrwt beam="1">  1        2 0.13249504E+00 0.22254759E+04</pdfrwt>
<pdfrwt beam="2">  1       -2 0.22118693E+00 0.22254759E+04</pdfrwt>
<totfact> 0.27611035E+00</totfact>
</mgrwt>
</event>
<event>
12    3  0.4634846E-008  0.1436473E+04  0.7818608E-02  0.8927832E-01
         -2   -1    0    0    0  501 -0.00000000000E+00  0.00000000000E+00  0.74129604991E+03  0.74129604991E+03  0.00000000000E+00 0. -1.
          2   -1    0    0  501    0  0.00000000000E+00 -0.00000000000E+00 -0.69589468189E+03  0.69589468189E+03  0.00000000000E+00 0.  1.
         23    2    1    2    0    0 -0.26197475283E+01  0.17170216385E+02 -0.41298404226E+03  0.42513292101E+03  0.99400714085E+02 0.  0.
        254    2    1    2    0    0  0.26197475283E+01 -0.17170216385E+02  0.45838541028E+03  0.10120578108E+04  0.90213200176E+03 0.  0.
         23    2    4    4    0    0  0.22140179717E+03 -0.20532666531E+03 -0.13682215871E+03  0.34386017994E+03  0.91333044181E+02 0.  0.
         23    2    4    4    0    0 -0.21878204964E+03  0.18815644893E+03  0.59520756899E+03  0.66819763084E+03  0.94591697119E+02 0.  0.
          1    1    3    3  502    0  0.27227160398E+02 -0.22318582151E+01 -0.30301029566E+02  0.40797694141E+02  0.00000000000E+00 0. -1.
         -1    1    3    3    0  502 -0.29846907926E+02  0.19402074600E+02 -0.38268301269E+03  0.38433522687E+03  0.00000000000E+00 0.  1.
         13    1    5    5    0    0  0.18890328129E+03 -0.12144702292E+03 -0.85541398350E+02  0.24031471010E+03  0.00000000000E+00 0. -1.
        -13    1    5    5    0    0  0.32498515879E+02 -0.83879642397E+02 -0.51280760358E+02  0.10354546985E+03  0.00000000000E+00 0.  1.
          2    1    6    6  503    0 -0.16381229407E+03  0.86685603263E+02  0.41055152289E+03  0.45044579524E+03  0.00000000000E+00 0. -1.
         -2    1    6    6    0  503 -0.54969755571E+02  0.10147084567E+03  0.18465604609E+03  0.21775183560E+03  0.00000000000E+00 0.  1.
<mgrwt>
<rscale>  0 0.14364734E+04</rscale>
<asrwt>0</asrwt>
<pdfrwt beam="1">  1        2 0.10706072E+00 0.14364734E+04</pdfrwt>
<pdfrwt beam="2">  1       -2 0.11404555E+00 0.14364734E+04</pdfrwt>
<totfact> 0.24113585E+01</totfact>
</mgrwt>
</event>
<event>
12    3  0.4634846E-008  0.1672297E+04  0.7818608E-02  0.8777324E-01
         -1   -1    0    0    0  501 -0.00000000000E+00  0.00000000000E+00  0.53894362885E+03  0.53894362885E+03  0.00000000000E+00 0.  1.
          1   -1    0    0  501    0  0.00000000000E+00 -0.00000000000E+00 -0.12972489103E+04  0.12972489103E+04  0.00000000000E+00 0. -1.
         23    2    1    2    0    0 -0.46161375296E+03 -0.63858237748E+02  0.13645950052E+03  0.49446225812E+03  0.93309152633E+02 0.  0.
        254    2    1    2    0    0  0.46161375296E+03  0.63858237748E+02 -0.89476478198E+03  0.13417302810E+04  0.88457390903E+03 0.  0.
         23    2    4    4    0    0  0.53710547062E+03  0.39325855955E+02 -0.10258854770E+04  0.11620305630E+04  0.88573177891E+02 0.  0.
         23    2    4    4    0    0 -0.75491717652E+02  0.24532381793E+02  0.13112069501E+03  0.17969971808E+03  0.93800398859E+02 0.  0.
          2    1    3    3  502    0 -0.42791066191E+01 -0.87365788772E+01 -0.70121844970E+01  0.11992051341E+02  0.00000000000E+00 0. -1.
         -2    1    3    3    0  502 -0.45733464635E+03 -0.55121658871E+02  0.14347168502E+03  0.48247020678E+03  0.00000000000E+00 0.  1.
         13    1    5    5    0    0  0.34800002419E+03  0.39954561785E+01 -0.57979825253E+03  0.67622924674E+03  0.00000000000E+00 0.  1.
        -13    1    5    5    0    0  0.18910544642E+03  0.35330399777E+02 -0.44608722446E+03  0.48580131622E+03  0.00000000000E+00 0. -1.
          4    1    6    6  503    0 -0.21879103215E+00  0.29600217859E+02  0.13978387817E+01  0.29634012892E+02  0.00000000000E+00 0. -1.
         -4    1    6    6    0  503 -0.75272926619E+02 -0.50678360662E+01  0.12972285623E+03  0.15006570519E+03  0.00000000000E+00 0.  1.
<mgrwt>
<rscale>  0 0.16722967E+04</rscale>
<asrwt>0</asrwt>
<pdfrwt beam="1">  1        1 0.19957675E+00 0.16722967E+04</pdfrwt>
<pdfrwt beam="2">  1       -1 0.82914406E-01 0.16722967E+04</pdfrwt>
<totfact> 0.12521863E+01</totfact>
</mgrwt>
</event>
<event>
12    3  0.4634846E-008  0.1473127E+04  0.7818608E-02  0.8902522E-01
         -1   -1    0    0    0  501 -0.00000000000E+00  0.00000000000E+00  0.80377755225E+03  0.80377755225E+03  0.00000000000E+00 0.  1.
          1   -1    0    0  501    0  0.00000000000E+00 -0.00000000000E+00 -0.67497004437E+03  0.67497004437E+03  0.00000000000E+00 0. -1.
         23    2    1    2    0    0 -0.38730603944E+03  0.25106022325E+03 -0.38840058292E+02  0.47069747923E+03  0.83727910199E+02 0.  0.
        254    2    1    2    0    0  0.38730603944E+03 -0.25106022325E+03  0.16764756617E+03  0.10080501174E+04  0.88035341132E+03 0.  0.
         23    2    4    4    0    0  0.40636149585E+03  0.23048358188E+03  0.20019254433E+03  0.51642318152E+03  0.91452177589E+02 0.  0.
         23    2    4    4    0    0 -0.19055456412E+02 -0.48154380513E+03 -0.32544978156E+02  0.49162693586E+03  0.91598699681E+02 0.  0.
          2    1    3    3  502    0 -0.28722851847E+03  0.19829526254E+03 -0.63873682107E+02  0.35482542219E+03  0.00000000000E+00 0. -1.
         -2    1    3    3    0  502 -0.10007752097E+03  0.52764960709E+02  0.25033623815E+02  0.11587205704E+03  0.00000000000E+00 0.  1.
         13    1    5    5    0    0  0.90588967265E+02  0.86406754231E+02  0.82475859650E+02  0.14991582836E+03  0.00000000000E+00 0. -1.
        -13    1    5    5    0    0  0.31577252858E+03  0.14407682765E+03  0.11771668468E+03  0.36650735317E+03  0.00000000000E+00 0.  1.
          2    1    6    6  503    0  0.28632149406E+02 -0.32715795212E+03 -0.32812489248E+02  0.33004361085E+03  0.00000000000E+00 0. -1.
         -2    1    6    6    0  503 -0.47687605818E+02 -0.15438585301E+03  0.26751109271E+00  0.16158332501E+03  0.00000000000E+00 0.  1.
<mgrwt>
<rscale>  0 0.14731270E+04</rscale>
<asrwt>0</asrwt>
<pdfrwt beam="1">  1        1 0.10384155E+00 0.14731270E+04</pdfrwt>
<pdfrwt beam="2">  1       -1 0.12365808E+00 0.14731270E+04</pdfrwt>
<totfact> 0.16048125E+01</totfact>
</mgrwt>
</event>
<event>
12    3  0.4634846E-008  0.1988908E+04  0.7818608E-02  0.8611824E-01
          1   -1    0    0  501    0  0.00000000000E+00  0.00000000000E+00  0.30618280067E+04  0.30618280067E+04  0.00000000000E+00 0. -1.
         -1   -1    0    0    0  501 -0.00000000000E+00 -0.00000000000E+00 -0.32298971842E+03  0.32298971842E+03  0.00000000000E+00 0.  1.
         23    2    1    2    0    0  0.94530811747E+02  0.62850724023E+03  0.18852109166E+04  0.19914035983E+04  0.87810396865E+02 0.  0.
        254    2    1    2    0    0 -0.94530811747E+02 -0.62850724023E+03  0.85362737172E+03  0.13934141269E+04  0.89942526861E+03 0.  0.
         23    2    4    4    0    0  0.17939007800E+02 -0.61607244154E+03  0.10626678569E+03  0.63213692730E+03  0.91855342227E+02 0.  0.
         23    2    4    4    0    0 -0.11246981955E+03 -0.12434798690E+02  0.74736058602E+03  0.76127719956E+03  0.90504389420E+02 0.  0.
          2    1    3    3  502    0  0.84438267497E+02  0.61918159555E+03  0.18072693773E+04  0.19122599905E+04  0.00000000000E+00 0. -1.
         -2    1    3    3    0  502  0.10092544250E+02  0.93256446762E+01  0.77941539344E+02  0.79143607786E+02  0.00000000000E+00 0.  1.
         13    1    5    5    0    0  0.40171880574E+02 -0.57050871417E+03  0.90458448347E+02  0.57903083149E+03  0.00000000000E+00 0. -1.
        -13    1    5    5    0    0 -0.22232872774E+02 -0.45563727366E+02  0.15808337345E+02  0.53106095817E+02  0.00000000000E+00 0.  1.
          3    1    6    6  503    0 -0.12674585938E+03 -0.43847141342E+01  0.61768169173E+03  0.63056673785E+03  0.00000000000E+00 0. -1.
         -3    1    6    6    0  503  0.14276039838E+02 -0.80500845553E+01  0.12967889430E+03  0.13071046171E+03  0.00000000000E+00 0.  1.
<mgrwt>
<rscale>  0 0.19889082E+04</rscale>
<asrwt>0</asrwt>
<pdfrwt beam="1">  1        1 0.47105044E+00 0.19889082E+04</pdfrwt>
<pdfrwt beam="2">  1       -1 0.49690728E-01 0.19889082E+04</pdfrwt>
<totfact> 0.20353276E+00</totfact>
</mgrwt>
</event>
<event>
12    3  0.4634846E-008  0.3477637E+04  0.7818608E-02  0.8119110E-01
          2   -1    0    0  501    0  0.00000000000E+00  0.00000000000E+00  0.30744603744E+04  0.30744603744E+04  0.00000000000E+00 0. -1.
         -2   -1    0    0    0  501 -0.00000000000E+00 -0.00000000000E+00 -0.98342141595E+03  0.98342141595E+03  0.00000000000E+00 0.  1.
         23    2    1    2    0    0 -0.44368787217E+03 -0.49406143371E+03 -0.74904047690E+03  0.10050369108E+04  0.89899543495E+02 0.  0.
        254    2    1    2    0    0  0.44368787217E+03  0.49406143371E+03  0.28400794354E+04  0.30528448795E+04  0.90158473320E+03 0.  0.
         23    2    4    4    0    0  0.53266052717E+03  0.49718791794E+03  0.11944653185E+04  0.14022285761E+04  0.92598701790E+02 0.  0.
         23    2    4    4    0    0 -0.88972655004E+02 -0.31264842247E+01  0.16456141168E+04  0.16506163034E+04  0.92533514616E+02 0.  0.
          4    1    3    3  502    0 -0.35549249752E+03 -0.39827017504E+03 -0.65183789974E+03  0.84254774088E+03  0.00000000000E+00 0. -1.
         -4    1    3    3    0  502 -0.88195374647E+02 -0.95791258679E+02 -0.97202577151E+02  0.16248916996E+03  0.00000000000E+00 0.  1.
         13    1    5    5    0    0  0.23982421513E+03  0.18600860791E+03  0.56636140886E+03  0.64255746967E+03  0.00000000000E+00 0. -1.
        -13    1    5    5    0    0  0.29283631205E+03  0.31117931003E+03  0.62810390966E+03  0.75967110645E+03  0.00000000000E+00 0.  1.
          2    1    6    6  503    0  0.19714011341E+01 -0.31679796961E+01  0.15527241533E+01  0.40414688027E+01  0.00000000000E+00 0. -1.
         -2    1    6    6    0  503 -0.90944056138E+02  0.41495471479E-01  0.16440613927E+04  0.16465748346E+04  0.00000000000E+00 0.  1.
<mgrwt>
<rscale>  0 0.34776372E+04</rscale>
<asrwt>0</asrwt>
<pdfrwt beam="1">  1        2 0.47299390E+00 0.34776372E+04</pdfrwt>
<pdfrwt beam="2">  1       -2 0.15129560E+00 0.34776372E+04</pdfrwt>
<totfact> 0.37634175E-01</totfact>
</mgrwt>
</event>
<event>
12    3  0.4634846E-008  0.1108576E+04  0.7818608E-02  0.9196874E-01
          2   -1    0    0  501    0  0.00000000000E+00  0.00000000000E+00  0.91434846423E+03  0.91434846423E+03  0.00000000000E+00 0. -1.
         -2   -1    0    0    0  501 -0.00000000000E+00 -0.00000000000E+00 -0.33601517605E+03  0.33601517605E+03  0.00000000000E+00 0.  1.
         23    2    1    2    0    0 -0.63535594434E+02 -0.14397831565E+03  0.15892511454E+03  0.24227523092E+03  0.93131994239E+02 0.  0.
        254    2    1    2    0    0  0.63535594434E+02  0.14397831565E+03  0.41940817365E+03  0.10080884094E+04  0.90309052581E+03 0.  0.
         23    2    4    4    0    0 -0.50547550897E+02 -0.36219413450E+03  0.25983943490E+03  0.45747918684E+03  0.89616005808E+02 0.  0.
         23    2    4    4    0    0  0.11408314533E+03  0.50617245015E+03  0.15956873875E+03  0.55060922251E+03  0.92102226862E+02 0.  0.
          3    1    3    3  502    0 -0.83725085933E+02 -0.10338689544E+03  0.14005775106E+03  0.19317068565E+03  0.00000000000E+00 0. -1.
         -3    1    3    3    0  502  0.20189491498E+02 -0.40591420215E+02  0.18867363475E+02  0.49104545274E+02  0.00000000000E+00 0.  1.
         13    1    5    5    0    0 -0.23126768492E+02 -0.25018996634E+03  0.12685866665E+03  0.28146578475E+03  0.00000000000E+00 0. -1.
        -13    1    5    5    0    0 -0.27420782405E+02 -0.11200416815E+03  0.13298076825E+03  0.17601340209E+03  0.00000000000E+00 0.  1.
          3    1    6    6  503    0  0.92520534208E+02  0.33483914237E+03  0.14780861530E+03  0.37752441944E+03  0.00000000000E+00 0. -1.
         -3    1    6    6    0  503  0.21562611123E+02  0.17133330778E+03  0.11760123445E+02  0.17308480307E+03  0.00000000000E+00 0.  1.
<mgrwt>
<rscale>  0 0.11085756E+04</rscale>
<asrwt>0</asrwt>
<pdfrwt beam="1">  1        2 0.14066899E+00 0.11085756E+04</pdfrwt>
<pdfrwt beam="2">  1       -2 0.51694643E-01 0.11085756E+04</pdfrwt>
<totfact> 0.10056758E+02</totfact>
</mgrwt>
</event>
<event>
12    3  0.4634846E-008  0.1614133E+04  0.7818608E-02  0.8811912E-01
          2   -1    0    0  501    0  0.00000000000E+00  0.00000000000E+00  0.66812521389E+03  0.66812521389E+03  0.00000000000E+00 0. -1.
         -2   -1    0    0    0  501 -0.00000000000E+00 -0.00000000000E+00 -0.97490216777E+03  0.97490216777E+03  0.00000000000E+00 0.  1.
         23    2    1    2    0    0 -0.73670351573E+01  0.31687392757E+03  0.35275774646E+03  0.48354064498E+03  0.94393688784E+02 0.  0.
        254    2    1    2    0    0  0.73670351573E+01 -0.31687392757E+03 -0.65953470035E+03  0.11594867367E+04  0.89942209912E+03 0.  0.
         23    2    4    4    0    0  0.19985402804E+03 -0.47947671558E+03 -0.96317052598E+02  0.53594007082E+03  0.90084580129E+02 0.  0.
         23    2    4    4    0    0 -0.19248699289E+03  0.16260278801E+03 -0.56321764775E+03  0.62354666586E+03  0.90030087546E+02 0.  0.
          1    1    3    3  502    0  0.54333245074E+01  0.28103998221E+03  0.25846722000E+03  0.38186161948E+03  0.00000000000E+00 0. -1.
         -1    1    3    3    0  502 -0.12800359665E+02  0.35833945361E+02  0.94290526461E+02  0.10167902551E+03  0.00000000000E+00 0.  1.
         13    1    5    5    0    0  0.10858351830E+03 -0.30801368853E+03 -0.19871569420E+02  0.32719671764E+03  0.00000000000E+00 0. -1.
        -13    1    5    5    0    0  0.91270509745E+02 -0.17146302705E+03 -0.76445483178E+02  0.20874335317E+03  0.00000000000E+00 0.  1.
          1    1    6    6  503    0 -0.81514953786E+01  0.40174192809E+02 -0.14121121139E+03  0.14704087481E+03  0.00000000000E+00 0. -1.
         -1    1    6    6    0  503 -0.18433549751E+03  0.12242859520E+03 -0.42200643637E+03  0.47650579105E+03  0.00000000000E+00 0.  1.
<mgrwt>
<rscale>  0 0.16141335E+04</rscale>
<asrwt>0</asrwt>
<pdfrwt beam="1">  1        2 0.10278849E+00 0.16141335E+04</pdfrwt>
<pdfrwt beam="2">  1       -2 0.14998495E+00 0.16141335E+04</pdfrwt>
<totfact> 0.12465771E+01</totfact>
</mgrwt>
</event>
<event>
12    3  0.4634846E-008  0.1502634E+04  0.7818608E-02  0.8882703E-01
         -1   -1    0    0    0  501 -0.00000000000E+00  0.00000000000E+00  0.32053165040E+03  0.32053165040E+03  0.00000000000E+00 0.  1.
          1   -1    0    0  501    0  0.00000000000E+00 -0.00000000000E+00 -0.17610655562E+04  0.17610655562E+04  0.00000000000E+00 0. -1.
         23    2    1    2    0    0 -0.38516059367E+03  0.20181067718E+03 -0.74243395873E+03  0.86516384477E+03  0.90686619131E+02 0.  0.
        254    2    1    2    0    0  0.38516059367E+03 -0.20181067718E+03 -0.69809994704E+03  0.12164333618E+04  0.89626466810E+03 0.  0.
         23    2    4    4    0    0  0.13301601184E+03 -0.64558038602E+02  0.20296299839E+03  0.26636267340E+03  0.88848721493E+02 0.  0.
         23    2    4    4    0    0  0.25214458184E+03 -0.13725263857E+03 -0.90106294544E+03  0.95007068839E+03  0.91130150666E+02 0.  0.
          1    1    3    3  502    0 -0.34648695827E+03  0.16302162379E+03 -0.69110247482E+03  0.79009612882E+03  0.00000000000E+00 0. -1.
         -1    1    3    3    0  502 -0.38673635403E+02  0.38789053390E+02 -0.51331483902E+02  0.75067715948E+02  0.00000000000E+00 0.  1.
         13    1    5    5    0    0  0.67586911664E+01 -0.22284952069E+02  0.86136684663E+02  0.89229072839E+02  0.00000000000E+00 0.  1.
        -13    1    5    5    0    0  0.12625732067E+03 -0.42273086533E+02  0.11682631373E+03  0.17713360056E+03  0.00000000000E+00 0. -1.
          3    1    6    6  503    0  0.79661161958E+02 -0.66327616387E+02 -0.45369481503E+03  0.46538611776E+03  0.00000000000E+00 0. -1.
         -3    1    6    6    0  503  0.17248341988E+03 -0.70925022187E+02 -0.44736813041E+03  0.48468457063E+03  0.00000000000E+00 0.  1.
<mgrwt>
<rscale>  0 0.15026340E+04</rscale>
<asrwt>0</asrwt>
<pdfrwt beam="1">  1        1 0.27093316E+00 0.15026340E+04</pdfrwt>
<pdfrwt beam="2">  1       -1 0.49312563E-01 0.15026340E+04</pdfrwt>
<totfact> 0.17261751E+01</totfact>
</mgrwt>
</event>
<event>
12    3  0.4634846E-008  0.1875555E+04  0.7818608E-02  0.8667121E-01
         -1   -1    0    0    0  501 -0.00000000000E+00  0.00000000000E+00  0.11713335077E+04  0.11713335077E+04  0.00000000000E+00 0.  1.
          1   -1    0    0  501    0  0.00000000000E+00 -0.00000000000E+00 -0.75079119495E+03  0.75079119495E+03  0.00000000000E+00 0. -1.
         23    2    1    2    0    0  0.22368332402E+03  0.23349526801E+03 -0.49671913883E+03  0.59955205809E+03  0.90435047652E+02 0.  0.
        254    2    1    2    0    0 -0.22368332402E+03 -0.23349526801E+03  0.91726145162E+03  0.13225726446E+04  0.89625641419E+03 0.  0.
         23    2    4    4    0    0 -0.53912894690E+03 -0.81636762098E+02  0.72879065510E+03  0.91491505383E+03  0.92785529339E+02 0.  0.
         23    2    4    4    0    0  0.31544562288E+03 -0.15185850592E+03  0.18847079652E+03  0.40765759077E+03  0.89980683222E+02 0.  0.
          2    1    3    3  502    0  0.19335341751E+03  0.15661722531E+03 -0.32822692302E+03  0.41188276527E+03  0.00000000000E+00 0. -1.
         -2    1    3    3    0  502  0.30329906509E+02  0.76878042707E+02 -0.16849221581E+03  0.18766929282E+03  0.00000000000E+00 0.  1.
         13    1    5    5    0    0 -0.46341661304E+03 -0.43813829897E+02  0.57946444253E+03  0.74327225771E+03  0.00000000000E+00 0. -1.
        -13    1    5    5    0    0 -0.75712333868E+02 -0.37822932200E+02  0.14932621257E+03  0.17164279612E+03  0.00000000000E+00 0.  1.
          4    1    6    6  503    0  0.28346463329E+03 -0.14577240395E+03  0.19607172632E+03  0.37422708874E+03  0.00000000000E+00 0. -1.
         -4    1    6    6    0  503  0.31980989590E+02 -0.60861019655E+01 -0.76009297973E+01  0.33430502031E+02  0.00000000000E+00 0.  1.
<mgrwt>
<rscale>  0 0.18755553E+04</rscale>
<asrwt>0</asrwt>
<pdfrwt beam="1">  1        1 0.11550634E+00 0.18755553E+04</pdfrwt>
<pdfrwt beam="2">  1       -1 0.18020516E+00 0.18755553E+04</pdfrwt>
<totfact> 0.47544826E+00</totfact>
</mgrwt>
</event>
<event>
12    3  0.4634846E-008  0.1422585E+04  0.7818608E-02  0.8937631E-01
         -1   -1    0    0    0  501 -0.00000000000E+00  0.00000000000E+00  0.67277649597E+03  0.67277649597E+03  0.00000000000E+00 0.  1.
          1   -1    0    0  501    0  0.00000000000E+00 -0.00000000000E+00 -0.75201318672E+03  0.75201318672E+03  0.00000000000E+00 0. -1.
         23    2    1    2    0    0 -0.13154385024E+03  0.20053187462E+03 -0.36021517118E+03  0.44166618863E+03  0.88301955560E+02 0.  0.
        254    2    1    2    0    0  0.13154385024E+03 -0.20053187462E+03  0.28097848043E+03  0.98312349406E+03  0.91107962376E+03 0.  0.
         23    2    4    4    0    0  0.51453146709E+03 -0.14477903823E+03  0.12572945574E+03  0.55665040513E+03  0.91368358653E+02 0.  0.
         23    2    4    4    0    0 -0.38298761684E+03 -0.55752836386E+02  0.15524902469E+03  0.42647308892E+03  0.89382003141E+02 0.  0.
          1    1    3    3  502    0 -0.58348672406E+02  0.29236614032E+02 -0.13054779121E+03  0.14595229687E+03  0.00000000000E+00 0. -1.
         -1    1    3    3    0  502 -0.73195177836E+02  0.17129526059E+03 -0.22966737997E+03  0.29571389176E+03  0.00000000000E+00 0.  1.
         13    1    5    5    0    0  0.50744480418E+03 -0.14962478458E+03  0.11249031709E+03  0.54087140513E+03  0.00000000000E+00 0. -1.
        -13    1    5    5    0    0  0.70866629054E+01  0.48457463514E+01  0.13239138651E+02  0.15779000002E+02  0.00000000000E+00 0.  1.
          2    1    6    6  503    0 -0.22304378151E+03 -0.12675205198E+02  0.46125383666E+02  0.22811562927E+03  0.00000000000E+00 0. -1.
         -2    1    6    6    0  503 -0.15994383534E+03 -0.43077631188E+02  0.10912364103E+03  0.19835745966E+03  0.00000000000E+00 0.  1.
<mgrwt>
<rscale>  0 0.14225847E+04</rscale>
<asrwt>0</asrwt>
<pdfrwt beam="1">  1        1 0.11569434E+00 0.14225847E+04</pdfrwt>
<pdfrwt beam="2">  1       -1 0.10350408E+00 0.14225847E+04</pdfrwt>
<totfact> 0.20906165E+01</totfact>
</mgrwt>
</event>
<event>
12    3  0.4634846E-008  0.1352215E+04  0.7818608E-02  0.8989153E-01
         -2   -1    0    0    0  501 -0.00000000000E+00  0.00000000000E+00  0.41548306405E+03  0.41548306405E+03  0.00000000000E+00 0.  1.
          2   -1    0    0  501    0  0.00000000000E+00 -0.00000000000E+00 -0.11002171874E+04  0.11002171874E+04  0.00000000000E+00 0. -1.
         23    2    1    2    0    0 -0.23288414999E+02 -0.36369067609E+03 -0.25951874776E+03  0.45638975649E+03  0.90157480198E+02 0.  0.
        254    2    1    2    0    0  0.23288414999E+02  0.36369067609E+03 -0.42521537557E+03  0.10593104950E+04  0.89917592881E+03 0.  0.
         23    2    4    4    0    0  0.22335230734E+03 -0.84192044713E+02  0.15054117942E+03  0.29751362150E+03  0.94218653610E+02 0.  0.
         23    2    4    4    0    0 -0.20006389234E+03  0.44788272081E+03 -0.57575655500E+03  0.76179687346E+03  0.90633179206E+02 0.  0.
          1    1    3    3  502    0  0.33281465903E+01 -0.54063693603E+02 -0.82640801854E+02  0.98810230527E+02  0.00000000000E+00 0. -1.
         -1    1    3    3    0  502 -0.26616561589E+02 -0.30962698249E+03 -0.17687794591E+03  0.35757952596E+03  0.00000000000E+00 0.  1.
         13    1    5    5    0    0  0.12314345453E+02 -0.18045741355E+02 -0.10198204618E+02  0.24110065583E+02  0.00000000000E+00 0.  1.
        -13    1    5    5    0    0  0.21103796189E+03 -0.66146303358E+02  0.16073938404E+03  0.27340355591E+03  0.00000000000E+00 0. -1.
          1    1    6    6  503    0 -0.14386563824E+03  0.24999173127E+03 -0.38654756714E+03  0.48229887956E+03  0.00000000000E+00 0. -1.
         -1    1    6    6    0  503 -0.56198254103E+02  0.19789098954E+03 -0.18920898786E+03  0.27949799389E+03  0.00000000000E+00 0.  1.
<mgrwt>
<rscale>  0 0.13522154E+04</rscale>
<asrwt>0</asrwt>
<pdfrwt beam="1">  1        2 0.16926418E+00 0.13522154E+04</pdfrwt>
<pdfrwt beam="2">  1       -2 0.63920473E-01 0.13522154E+04</pdfrwt>
<totfact> 0.48142763E+01</totfact>
</mgrwt>
</event>
<event>
12    3  0.4634846E-008  0.1788805E+04  0.7818608E-02  0.8712276E-01
          1   -1    0    0  501    0  0.00000000000E+00  0.00000000000E+00  0.66737508879E+03  0.66737508879E+03  0.00000000000E+00 0. -1.
         -1   -1    0    0    0  501 -0.00000000000E+00 -0.00000000000E+00 -0.11986599928E+04  0.11986599928E+04  0.00000000000E+00 0.  1.
         23    2    1    2    0    0 -0.61546926209E+03 -0.96161394910E+02  0.24816511202E+02  0.63011502623E+03  0.91540486126E+02 0.  0.
        254    2    1    2    0    0  0.61546926209E+03  0.96161394910E+02 -0.55610141519E+03  0.12359200553E+04  0.91115321037E+03 0.  0.
         23    2    4    4    0    0  0.20941825395E+02 -0.28494052300E+03  0.44679247777E+02  0.30298684101E+03  0.90416419658E+02 0.  0.
         23    2    4    4    0    0  0.59452743669E+03  0.38110191792E+03 -0.60078066297E+03  0.93293321433E+03  0.10356366436E+03 0.  0.
          4    1    3    3  502    0 -0.26469005830E+03 -0.16234524012E+02 -0.27303980521E+02  0.26658937354E+03  0.00000000000E+00 0. -1.
         -4    1    3    3    0  502 -0.35077920379E+03 -0.79926870899E+02  0.52120491723E+02  0.36352565268E+03  0.00000000000E+00 0.  1.
         13    1    5    5    0    0 -0.12325497555E+01  0.47113346066E+01 -0.63884354063E+01  0.80329297032E+01  0.00000000000E+00 0. -1.
        -13    1    5    5    0    0  0.22174375151E+02 -0.28965185761E+03  0.51067683183E+02  0.29495391131E+03  0.00000000000E+00 0.  1.
          3    1    6    6  503    0  0.30233818597E+02  0.36637548957E+02 -0.72468407504E+02  0.86649084627E+02  0.00000000000E+00 0. -1.
         -3    1    6    6    0  503  0.56429361810E+03  0.34446436896E+03 -0.52831225547E+03  0.84628412970E+03  0.00000000000E+00 0.  1.
<mgrwt>
<rscale>  0 0.17888050E+04</rscale>
<asrwt>0</asrwt>
<pdfrwt beam="1">  1        1 0.10267309E+00 0.17888050E+04</pdfrwt>
<pdfrwt beam="2">  1       -1 0.18440923E+00 0.17888050E+04</pdfrwt>
<totfact> 0.53517912E+00</totfact>
</mgrwt>
</event>
<event>
12    3  0.4634846E-008  0.2178637E+04  0.7818608E-02  0.8527373E-01
          2   -1    0    0  501    0  0.00000000000E+00  0.00000000000E+00  0.18572820456E+04  0.18572820456E+04  0.00000000000E+00 0. -1.
         -2   -1    0    0    0  501 -0.00000000000E+00 -0.00000000000E+00 -0.63889840210E+03  0.63889840210E+03  0.00000000000E+00 0.  1.
         23    2    1    2    0    0 -0.59806119098E+02  0.89106953727E+03  0.47928992262E+03  0.10176807863E+04  0.91507709047E+02 0.  0.
        254    2    1    2    0    0  0.59806119098E+02 -0.89106953727E+03  0.73909372088E+03  0.14784996614E+04  0.91767098042E+03 0.  0.
         23    2    4    4    0    0  0.39757642364E+03 -0.20628347393E+03  0.77119330882E+02  0.46374996303E+03  0.92177832271E+02 0.  0.
         23    2    4    4    0    0 -0.33777030454E+03 -0.68478606334E+03  0.66197439000E+03  0.10147496983E+04  0.92120172065E+02 0.  0.
          3    1    3    3  502    0 -0.20896045424E+02  0.76269742475E+03  0.42096208654E+03  0.87140867837E+03  0.00000000000E+00 0. -1.
         -3    1    3    3    0  502 -0.38910073674E+02  0.12837211252E+03  0.58327836077E+02  0.14627210796E+03  0.00000000000E+00 0.  1.
         13    1    5    5    0    0  0.33917261705E+03 -0.20962978639E+03  0.69891476636E+02  0.40480554592E+03  0.00000000000E+00 0. -1.
        -13    1    5    5    0    0  0.58403806584E+02  0.33463124673E+01  0.72278542461E+01  0.58944417103E+02  0.00000000000E+00 0.  1.
          3    1    6    6  503    0 -0.11832599210E+03 -0.16174772546E+03  0.20107668720E+03  0.28389293974E+03  0.00000000000E+00 0. -1.
         -3    1    6    6    0  503 -0.21944431244E+03 -0.52303833788E+03  0.46089770279E+03  0.73085675860E+03  0.00000000000E+00 0.  1.
<mgrwt>
<rscale>  0 0.21786368E+04</rscale>
<asrwt>0</asrwt>
<pdfrwt beam="1">  1        2 0.28573570E+00 0.21786368E+04</pdfrwt>
<pdfrwt beam="2">  1       -2 0.98292063E-01 0.21786368E+04</pdfrwt>
<totfact> 0.63174383E+00</totfact>
</mgrwt>
</event>
<event>
12    3  0.4634846E-008  0.2408345E+04  0.7818608E-02  0.8436386E-01
          2   -1    0    0  501    0  0.00000000000E+00  0.00000000000E+00  0.20030152855E+04  0.20030152855E+04  0.00000000000E+00 0. -1.
         -2   -1    0    0    0  501 -0.00000000000E+00 -0.00000000000E+00 -0.72392425070E+03  0.72392425070E+03  0.00000000000E+00 0.  1.
         23    2    1    2    0    0  0.81685469589E+03  0.17356660035E+03  0.12386002026E+04  0.14965849071E+04  0.90878838412E+02 0.  0.
        254    2    1    2    0    0 -0.81685469589E+03 -0.17356660035E+03  0.40490832193E+02  0.12303546291E+04  0.90263838103E+03 0.  0.
         23    2    4    4    0    0 -0.59700819174E+03 -0.50835868574E+03  0.15338832098E+03  0.80369336586E+03  0.86877585944E+02 0.  0.
         23    2    4    4    0    0 -0.21984650415E+03  0.33479208539E+03 -0.11289748879E+03  0.42666126324E+03  0.94211277201E+02 0.  0.
          3    1    3    3  502    0  0.28423480406E+03  0.10489802599E+03  0.44184955081E+03  0.53574625080E+03  0.00000000000E+00 0.  1.
         -3    1    3    3    0  502  0.53261989183E+03  0.68668574360E+02  0.79675065182E+03  0.96083865631E+03  0.00000000000E+00 0. -1.
         13    1    5    5    0    0 -0.20434620062E+03 -0.12226786004E+03  0.40229454892E+02  0.24150612487E+03  0.00000000000E+00 0. -1.
        -13    1    5    5    0    0 -0.39266199112E+03 -0.38609082570E+03  0.11315886609E+03  0.56218724099E+03  0.00000000000E+00 0.  1.
          2    1    6    6  503    0 -0.54908005092E+02  0.53181643442E+02  0.11694441486E+02  0.77330047097E+02  0.00000000000E+00 0. -1.
         -2    1    6    6    0  503 -0.16493849906E+03  0.28161044195E+03 -0.12459193027E+03  0.34933121615E+03  0.00000000000E+00 0.  1.
<mgrwt>
<rscale>  0 0.24083449E+04</rscale>
<asrwt>0</asrwt>
<pdfrwt beam="1">  1        2 0.30815620E+00 0.24083449E+04</pdfrwt>
<pdfrwt beam="2">  1       -2 0.11137296E+00 0.24083449E+04</pdfrwt>
<totfact> 0.38127919E+00</totfact>
</mgrwt>
</event>
<event>
12    3  0.4634846E-008  0.1830158E+04  0.7818608E-02  0.8690424E-01
          1   -1    0    0  501    0  0.00000000000E+00  0.00000000000E+00  0.34248530132E+04  0.34248530132E+04  0.00000000000E+00 0. -1.
         -1   -1    0    0    0  501 -0.00000000000E+00 -0.00000000000E+00 -0.24449784169E+03  0.24449784169E+03  0.00000000000E+00 0.  1.
         23    2    1    2    0    0  0.51441212715E+03 -0.56090714402E+02  0.29217232500E+03  0.60108129119E+03  0.90377244505E+02 0.  0.
        254    2    1    2    0    0 -0.51441212715E+03  0.56090714402E+02  0.28881828466E+04  0.30682695638E+04  0.89716885585E+03 0.  0.
         23    2    4    4    0    0 -0.70272188282E+03  0.23611944302E+03  0.23134882678E+04  0.24307480081E+04  0.82082138339E+02 0.  0.
         23    2    4    4    0    0  0.18830975567E+03 -0.18002872862E+03  0.57469457872E+03  0.63752155566E+03  0.91043769256E+02 0.  0.
          1    1    3    3  502    0  0.25629728313E+03 -0.16034847725E+02  0.19477733916E+03  0.32230982847E+03  0.00000000000E+00 0. -1.
         -1    1    3    3    0  502  0.25811484402E+03 -0.40055866678E+02  0.97394985840E+02  0.27877146272E+03  0.00000000000E+00 0.  1.
         13    1    5    5    0    0 -0.30830923788E+03  0.13864297478E+03  0.11287003502E+04  0.11782363690E+04  0.00000000000E+00 0.  1.
        -13    1    5    5    0    0 -0.39441264494E+03  0.97476468237E+02  0.11847879176E+04  0.12525116391E+04  0.00000000000E+00 0. -1.
          1    1    6    6  503    0  0.12757854566E+03 -0.16357311998E+03  0.38030731198E+03  0.43320445801E+03  0.00000000000E+00 0. -1.
         -1    1    6    6    0  503  0.60731210009E+02 -0.16455608639E+02  0.19438726673E+03  0.20431709765E+03  0.00000000000E+00 0.  1.
<mgrwt>
<rscale>  0 0.18301576E+04</rscale>
<asrwt>0</asrwt>
<pdfrwt beam="1">  1        1 0.52690043E+00 0.18301576E+04</pdfrwt>
<pdfrwt beam="2">  1       -1 0.37615055E-01 0.18301576E+04</pdfrwt>
<totfact> 0.18455294E+00</totfact>
</mgrwt>
</event>
<event>
12    3  0.4634846E-008  0.1922582E+04  0.7818608E-02  0.8643697E-01
          1   -1    0    0  501    0  0.00000000000E+00  0.00000000000E+00  0.17549635559E+04  0.17549635559E+04  0.00000000000E+00 0. -1.
         -1   -1    0    0    0  501 -0.00000000000E+00 -0.00000000000E+00 -0.52655234929E+03  0.52655234929E+03  0.00000000000E+00 0.  1.
         23    2    1    2    0    0  0.56278542526E+03 -0.47467593348E+03  0.49887767586E+03  0.89384769373E+03  0.89666534459E+02 0.  0.
        254    2    1    2    0    0 -0.56278542526E+03  0.47467593348E+03  0.72953353073E+03  0.13876682115E+04  0.92269128959E+03 0.  0.
         23    2    4    4    0    0  0.14876193271E+03  0.32553322913E+03  0.23745558409E+02  0.36995426260E+03  0.90555557442E+02 0.  0.
         23    2    4    4    0    0 -0.71154735797E+03  0.14914270436E+03  0.70578797233E+03  0.10177139488E+04  0.95193649518E+02 0.  0.
          1    1    3    3  502    0  0.42655713195E+03 -0.40064458782E+03  0.37126872254E+03  0.69304223313E+03  0.00000000000E+00 0. -1.
         -1    1    3    3    0  502  0.13622829331E+03 -0.74031345661E+02  0.12760895332E+03  0.20080546059E+03  0.00000000000E+00 0.  1.
         13    1    5    5    0    0  0.15497175471E+03  0.32579384789E+03  0.28830205926E+02  0.36192410372E+03  0.00000000000E+00 0. -1.
        -13    1    5    5    0    0 -0.62098219961E+01 -0.26061875915E+00 -0.50846475164E+01  0.80301588856E+01  0.00000000000E+00 0.  1.
          1    1    6    6  503    0 -0.60516259215E+03  0.16061070146E+03  0.59673016341E+03  0.86493031412E+03  0.00000000000E+00 0. -1.
         -1    1    6    6    0  503 -0.10638476582E+03 -0.11467997100E+02  0.10905780891E+03  0.15278363473E+03  0.00000000000E+00 0.  1.
<mgrwt>
<rscale>  0 0.19225818E+04</rscale>
<asrwt>0</asrwt>
<pdfrwt beam="1">  1        1 0.26999439E+00 0.19225818E+04</pdfrwt>
<pdfrwt beam="2">  1       -1 0.81008055E-01 0.19225818E+04</pdfrwt>
<totfact> 0.61996872E+00</totfact>
</mgrwt>
</event>
<event>
12    3  0.4634846E-008  0.2953933E+04  0.7818608E-02  0.8257009E-01
         -1   -1    0    0    0  501 -0.00000000000E+00  0.00000000000E+00  0.17452733591E+04  0.17452733591E+04  0.00000000000E+00 0.  1.
          1   -1    0    0  501    0  0.00000000000E+00 -0.00000000000E+00 -0.12499075878E+04  0.12499075878E+04  0.00000000000E+00 0. -1.
         23    2    1    2    0    0  0.84578544539E+03  0.10022548594E+04 -0.58554707222E+02  0.13167142869E+04  0.10217649783E+03 0.  0.
        254    2    1    2    0    0 -0.84578544539E+03 -0.10022548594E+04  0.55392047848E+03  0.16784666601E+04  0.88913137932E+03 0.  0.
         23    2    4    4    0    0 -0.23004167863E+03 -0.48973934234E+03 -0.19074671109E+03  0.58076003321E+03  0.90189306703E+02 0.  0.
         23    2    4    4    0    0 -0.61574376675E+03 -0.51251551704E+03  0.74466718956E+03  0.10977066268E+04  0.92833581831E+02 0.  0.
          4    1    3    3  502    0  0.76743085970E+03  0.89269018162E+03 -0.23180927422E+02  0.11774477654E+04  0.00000000000E+00 0. -1.
         -4    1    3    3    0  502  0.78354585688E+02  0.10956467776E+03 -0.35373779800E+02  0.13926652149E+03  0.00000000000E+00 0.  1.
         13    1    5    5    0    0 -0.34864940165E+02 -0.11812324302E+03 -0.94343155628E+01  0.12352194504E+03  0.00000000000E+00 0. -1.
        -13    1    5    5    0    0 -0.19517673847E+03 -0.37161609932E+03 -0.18131239552E+03  0.45723808818E+03  0.00000000000E+00 0.  1.
          4    1    6    6  503    0 -0.69736659285E+02 -0.88579755802E+02  0.13611152944E+03  0.17673687570E+03  0.00000000000E+00 0. -1.
         -4    1    6    6    0  503 -0.54600710747E+03 -0.42393576124E+03  0.60855566012E+03  0.92096975115E+03  0.00000000000E+00 0.  1.
<mgrwt>
<rscale>  0 0.29539333E+04</rscale>
<asrwt>0</asrwt>
<pdfrwt beam="1">  1        1 0.19229347E+00 0.29539333E+04</pdfrwt>
<pdfrwt beam="2">  1       -1 0.26850359E+00 0.29539333E+04</pdfrwt>
<totfact> 0.44367199E-01</totfact>
</mgrwt>
</event>
<event>
12    3  0.4634846E-008  0.3947379E+04  0.7818608E-02  0.8015247E-01
          2   -1    0    0  501    0  0.00000000000E+00  0.00000000000E+00  0.14497227686E+04  0.14497227686E+04  0.00000000000E+00 0. -1.
         -2   -1    0    0    0  501 -0.00000000000E+00 -0.00000000000E+00 -0.26870311906E+04  0.26870311906E+04  0.00000000000E+00 0.  1.
         23    2    1    2    0    0 -0.15241254834E+03  0.86790489964E+03  0.11400700042E+04  0.14438168187E+04  0.91426975271E+02 0.  0.
        254    2    1    2    0    0  0.15241254834E+03 -0.86790489964E+03 -0.23773784263E+04  0.26929371405E+04  0.90746557033E+03 0.  0.
         23    2    4    4    0    0  0.29550154419E+03  0.49214857334E+02 -0.41134686863E+03  0.51685485029E+03  0.90495442625E+02 0.  0.
         23    2    4    4    0    0 -0.14308899585E+03 -0.91711975698E+03 -0.19660315576E+04  0.21760822902E+04  0.92037703178E+02 0.  0.
          2    1    3    3  502    0 -0.16146569859E+03  0.84964799783E+03  0.11215569556E+04  0.14162848925E+04  0.00000000000E+00 0. -1.
         -2    1    3    3    0  502  0.90531502544E+01  0.18256901814E+02  0.18513048632E+02  0.27531926250E+02  0.00000000000E+00 0.  1.
         13    1    5    5    0    0  0.24202716835E+03  0.10354710714E+02 -0.28329142608E+03  0.37274441960E+03  0.00000000000E+00 0.  1.
        -13    1    5    5    0    0  0.53474375840E+02  0.38860146620E+02 -0.12805544255E+03  0.14411043069E+03  0.00000000000E+00 0. -1.
          1    1    6    6  503    0 -0.39424389142E+02 -0.11396596498E+03 -0.20639995609E+03  0.23904699435E+03  0.00000000000E+00 0. -1.
         -1    1    6    6    0  503 -0.10366460671E+03 -0.80315379200E+03 -0.17596316015E+04  0.19370352959E+04  0.00000000000E+00 0.  1.
<mgrwt>
<rscale>  0 0.39473790E+04</rscale>
<asrwt>0</asrwt>
<pdfrwt beam="1">  1        2 0.22303427E+00 0.39473790E+04</pdfrwt>
<pdfrwt beam="2">  1       -2 0.41338941E+00 0.39473790E+04</pdfrwt>
<totfact> 0.65067417E-02</totfact>
</mgrwt>
</event>
<event>
12    3  0.4634846E-008  0.2976406E+04  0.7818608E-02  0.8250501E-01
         -2   -1    0    0    0  501 -0.00000000000E+00  0.00000000000E+00  0.54750178769E+03  0.54750178769E+03  0.00000000000E+00 0.  1.
          2   -1    0    0  501    0  0.00000000000E+00 -0.00000000000E+00 -0.40451890686E+04  0.40451890686E+04  0.00000000000E+00 0. -1.
         23    2    1    2    0    0  0.51336079439E+03  0.49922521261E+03 -0.33608769722E+04  0.34377400342E+04  0.98981827809E+02 0.  0.
        254    2    1    2    0    0 -0.51336079439E+03 -0.49922521261E+03 -0.13681030864E+03  0.11549508220E+04  0.89578413843E+03 0.  0.
         23    2    4    4    0    0 -0.30826675580E+03  0.21847647322E+03 -0.10283241168E+03  0.40295598228E+03  0.95071850119E+02 0.  0.
         23    2    4    4    0    0 -0.20509403859E+03 -0.71770168582E+03 -0.33977896960E+02  0.75199483976E+03  0.84749436811E+02 0.  0.
          3    1    3    3  502    0  0.27688481072E+03  0.31989365223E+03 -0.18182543906E+04  0.18668278378E+04  0.00000000000E+00 0. -1.
         -3    1    3    3    0  502  0.23647598367E+03  0.17933156038E+03 -0.15426225816E+04  0.15709121964E+04  0.00000000000E+00 0.  1.
         13    1    5    5    0    0 -0.19789670107E+03  0.84508534937E+02 -0.70132097613E+02  0.22632566776E+03  0.00000000000E+00 0. -1.
        -13    1    5    5    0    0 -0.11037005473E+03  0.13396793828E+03 -0.32700314065E+02  0.17663031452E+03  0.00000000000E+00 0.  1.
          4    1    6    6  503    0 -0.80131766194E+02 -0.42811568161E+03 -0.29817554442E+02  0.43656983788E+03  0.00000000000E+00 0. -1.
         -4    1    6    6    0  503 -0.12496227240E+03 -0.28958600421E+03 -0.41603425186E+01  0.31542500188E+03  0.00000000000E+00 0.  1.
<mgrwt>
<rscale>  0 0.29764061E+04</rscale>
<asrwt>0</asrwt>
<pdfrwt beam="1">  1        2 0.62233681E+00 0.29764061E+04</pdfrwt>
<pdfrwt beam="2">  1       -2 0.84231040E-01 0.29764061E+04</pdfrwt>
<totfact> 0.33141095E-01</totfact>
</mgrwt>
</event>
<event>
12    3  0.4634846E-008  0.1781061E+04  0.7818608E-02  0.8716436E-01
          1   -1    0    0  501    0  0.00000000000E+00  0.00000000000E+00  0.11826873535E+04  0.11826873535E+04  0.00000000000E+00 0. -1.
         -1   -1    0    0    0  501 -0.00000000000E+00 -0.00000000000E+00 -0.67054480604E+03  0.67054480604E+03  0.00000000000E+00 0.  1.
         23    2    1    2    0    0 -0.39205515127E+02 -0.23359518550E+03 -0.43990142135E+03  0.50838696253E+03  0.94022657170E+02 0.  0.
        254    2    1    2    0    0  0.39205515127E+02  0.23359518550E+03  0.95204396883E+03  0.13448451970E+04  0.91984623838E+03 0.  0.
         23    2    4    4    0    0 -0.19622163977E+03 -0.90395121241E+02 -0.68935087150E+02  0.24426219971E+03  0.90762140286E+02 0.  0.
         23    2    4    4    0    0  0.23542715489E+03  0.32399030674E+03  0.10209790560E+04  0.11005829973E+04  0.92135970752E+02 0.  0.
          2    1    3    3  502    0 -0.13530196167E+02  0.18113613500E+01 -0.53349196907E+02  0.55067994778E+02  0.00000000000E+00 0. -1.
         -2    1    3    3    0  502 -0.25675318960E+02 -0.23540654685E+03 -0.38655222445E+03  0.45331896776E+03  0.00000000000E+00 0.  1.
         13    1    5    5    0    0 -0.11659992429E+03 -0.40899979979E+02  0.67847337257E+01  0.12375129623E+03  0.00000000000E+00 0. -1.
        -13    1    5    5    0    0 -0.79621715477E+02 -0.49495141262E+02 -0.75719820876E+02  0.12051090348E+03  0.00000000000E+00 0.  1.
          3    1    6    6  503    0  0.11128363152E+03  0.12012110087E+03  0.30974442043E+03  0.35036371316E+03  0.00000000000E+00 0. -1.
         -3    1    6    6    0  503  0.12414352338E+03  0.20386920587E+03  0.71123463556E+03  0.75021928415E+03  0.00000000000E+00 0.  1.
<mgrwt>
<rscale>  0 0.17810613E+04</rscale>
<asrwt>0</asrwt>
<pdfrwt beam="1">  1        1 0.18195190E+00 0.17810613E+04</pdfrwt>
<pdfrwt beam="2">  1       -1 0.10316074E+00 0.17810613E+04</pdfrwt>
<totfact> 0.92260886E+00</totfact>
</mgrwt>
</event>
<event>
12    3  0.4634846E-008  0.1410663E+04  0.7818608E-02  0.8946136E-01
         -2   -1    0    0    0  501 -0.00000000000E+00  0.00000000000E+00  0.19379451596E+03  0.19379451596E+03  0.00000000000E+00 0.  1.
          2   -1    0    0  501    0  0.00000000000E+00 -0.00000000000E+00 -0.25671151084E+04  0.25671151084E+04  0.00000000000E+00 0. -1.
         23    2    1    2    0    0 -0.17294949740E+03  0.23677914115E+03 -0.12772740447E+04  0.13137224337E+04  0.91987809553E+02 0.  0.
        254    2    1    2    0    0  0.17294949740E+03 -0.23677914115E+03 -0.10960465478E+04  0.14471871907E+04  0.89836342300E+03 0.  0.
         23    2    4    4    0    0  0.38894377953E+03  0.15159075926E+03 -0.27323165750E+03  0.50733212400E+03  0.92050657062E+02 0.  0.
         23    2    4    4    0    0 -0.21599428212E+03 -0.38836990041E+03 -0.82281489026E+03  0.93985506671E+03  0.93906833260E+02 0.  0.
          2    1    3    3  502    0 -0.13750022537E+03  0.18918959950E+03 -0.11465398354E+04  0.11701506786E+04  0.00000000000E+00 0. -1.
         -2    1    3    3    0  502 -0.35449272027E+02  0.47589541648E+02 -0.13073420929E+03  0.14357175502E+03  0.00000000000E+00 0.  1.
         13    1    5    5    0    0  0.22631477275E+03  0.13238638690E+03 -0.14717120823E+03  0.30067240700E+03  0.00000000000E+00 0. -1.
        -13    1    5    5    0    0  0.16262900678E+03  0.19204372361E+02 -0.12606044927E+03  0.20665971700E+03  0.00000000000E+00 0.  1.
          4    1    6    6  503    0 -0.19489512725E+03 -0.26448578404E+03 -0.59589234655E+03  0.68045905775E+03  0.00000000000E+00 0.  1.
         -4    1    6    6    0  503 -0.21099154870E+02 -0.12388411636E+03 -0.22692254371E+03  0.25939600896E+03  0.00000000000E+00 0. -1.
<mgrwt>
<rscale>  0 0.14106634E+04</rscale>
<asrwt>0</asrwt>
<pdfrwt beam="1">  1        2 0.39494078E+00 0.14106634E+04</pdfrwt>
<pdfrwt beam="2">  1       -2 0.29814542E-01 0.14106634E+04</pdfrwt>
<totfact> 0.32231536E+01</totfact>
</mgrwt>
</event>
<event>
12    3  0.4634846E-008  0.1700459E+04  0.7818608E-02  0.8761103E-01
          2   -1    0    0  501    0  0.00000000000E+00  0.00000000000E+00  0.55904288935E+04  0.55904288935E+04  0.00000000000E+00 0. -1.
         -2   -1    0    0    0  501 -0.00000000000E+00 -0.00000000000E+00 -0.12930856425E+03  0.12930856425E+03  0.00000000000E+00 0.  1.
         23    2    1    2    0    0 -0.40740759437E+03  0.78829081599E+02  0.48034758316E+03  0.64131456859E+03  0.91408988500E+02 0.  0.
        254    2    1    2    0    0  0.40740759437E+03 -0.78829081599E+02  0.49807727461E+04  0.50784228892E+04  0.90004828816E+03 0.  0.
         23    2    4    4    0    0 -0.11062587526E+03  0.21575353700E+03  0.29134138635E+04  0.29249327723E+04  0.91998420960E+02 0.  0.
         23    2    4    4    0    0  0.51803346963E+03 -0.29458261860E+03  0.20673588826E+04  0.21534901169E+04  0.91702449199E+02 0.  0.
          2    1    3    3  502    0 -0.48837837815E+01  0.16975013753E+02  0.20129854952E+02  0.26780841965E+02  0.00000000000E+00 0. -1.
         -2    1    3    3    0  502 -0.40252381059E+03  0.61854067845E+02  0.46021772821E+03  0.61453372662E+03  0.00000000000E+00 0.  1.
         13    1    5    5    0    0 -0.90999478341E+01  0.38226675000E+02  0.20003852011E+03  0.20386146585E+03  0.00000000000E+00 0.  1.
        -13    1    5    5    0    0 -0.10152592743E+03  0.17752686200E+03  0.27133753434E+04  0.27210713064E+04  0.00000000000E+00 0. -1.
          1    1    6    6  503    0  0.38857305938E+03 -0.25151162751E+03  0.14905577143E+04  0.15607720592E+04  0.00000000000E+00 0. -1.
         -1    1    6    6    0  503  0.12946041025E+03 -0.43070991089E+02  0.57680116836E+03  0.59271805769E+03  0.00000000000E+00 0.  1.
<mgrwt>
<rscale>  0 0.17004592E+04</rscale>
<asrwt>0</asrwt>
<pdfrwt beam="1">  1        2 0.86006579E+00 0.17004592E+04</pdfrwt>
<pdfrwt beam="2">  1       -2 0.19893630E-01 0.17004592E+04</pdfrwt>
<totfact> 0.87557371E-02</totfact>
</mgrwt>
</event>
<event>
12    3  0.4634846E-008  0.1721574E+04  0.7818608E-02  0.8749155E-01
          2   -1    0    0  501    0  0.00000000000E+00  0.00000000000E+00  0.14268523970E+04  0.14268523970E+04  0.00000000000E+00 0. -1.
         -2   -1    0    0    0  501 -0.00000000000E+00 -0.00000000000E+00 -0.51929294234E+03  0.51929294234E+03  0.00000000000E+00 0.  1.
         23    2    1    2    0    0 -0.56373116551E+03 -0.14293235611E+03  0.57400406253E+03  0.82250375698E+03  0.93857770364E+02 0.  0.
        254    2    1    2    0    0  0.56373116551E+03  0.14293235611E+03  0.33355539209E+03  0.11236415823E+04  0.90171432313E+03 0.  0.
         23    2    4    4    0    0  0.26698229003E+03  0.48851167438E+03  0.34270061733E+03  0.66049163951E+03  0.94245920603E+02 0.  0.
         23    2    4    4    0    0  0.29674887548E+03 -0.34557931827E+03 -0.91452252462E+01  0.46314994280E+03  0.83302305229E+02 0.  0.
          2    1    3    3  502    0 -0.17726117585E+03 -0.55302689604E+02  0.12608485319E+03  0.22444888538E+03  0.00000000000E+00 0. -1.
         -2    1    3    3    0  502 -0.38646998966E+03 -0.87629666504E+02  0.44791920933E+03  0.59805487160E+03  0.00000000000E+00 0.  1.
         13    1    5    5    0    0  0.22034145589E+03  0.43957907443E+03  0.32869413307E+03  0.59145579123E+03  0.00000000000E+00 0. -1.
        -13    1    5    5    0    0  0.46640834139E+02  0.48932599954E+02  0.14006484261E+02  0.69035848288E+02  0.00000000000E+00 0.  1.
          4    1    6    6  503    0  0.19781915177E+03 -0.20276593396E+03 -0.41891938274E+02  0.28635882259E+03  0.00000000000E+00 0. -1.
         -4    1    6    6    0  503  0.98929723704E+02 -0.14281338432E+03  0.32746713028E+02  0.17679112021E+03  0.00000000000E+00 0.  1.
<mgrwt>
<rscale>  0 0.17215741E+04</rscale>
<asrwt>0</asrwt>
<pdfrwt beam="1">  1        2 0.21951575E+00 0.17215741E+04</pdfrwt>
<pdfrwt beam="2">  1       -2 0.79891223E-01 0.17215741E+04</pdfrwt>
<totfact> 0.18397919E+01</totfact>
</mgrwt>
</event>
<event>
12    3  0.4634846E-008  0.1831059E+04  0.7818608E-02  0.8689955E-01
         -2   -1    0    0    0  501 -0.00000000000E+00  0.00000000000E+00  0.34405445465E+03  0.34405445465E+03  0.00000000000E+00 0.  1.
          2   -1    0    0  501    0  0.00000000000E+00 -0.00000000000E+00 -0.24362256526E+04  0.24362256526E+04  0.00000000000E+00 0. -1.
         23    2    1    2    0    0  0.15881087583E+03  0.26944845284E+03  0.13764755511E+03  0.35481821675E+03  0.95528814976E+02 0.  0.
        254    2    1    2    0    0 -0.15881087583E+03 -0.26944845284E+03 -0.22298187530E+04  0.24254618905E+04  0.90163759225E+03 0.  0.
         23    2    4    4    0    0  0.11324552424E+03 -0.50397528971E+03 -0.16995731702E+04  0.17786044158E+04  0.89827977222E+02 0.  0.
         23    2    4    4    0    0 -0.27205640007E+03  0.23452683687E+03 -0.53024558283E+03  0.64685747472E+03  0.90811301366E+02 0.  0.
          3    1    3    3  502    0  0.32420252825E+02  0.36483564163E+01  0.11326800324E+02  0.34535195140E+02  0.00000000000E+00 0. -1.
         -3    1    3    3    0  502  0.12639062301E+03  0.26580009642E+03  0.12632075479E+03  0.32028302161E+03  0.00000000000E+00 0.  1.
         13    1    5    5    0    0  0.54111330463E+02 -0.38574716660E+03 -0.13415727335E+04  0.13969775631E+04  0.00000000000E+00 0. -1.
        -13    1    5    5    0    0  0.59134193773E+02 -0.11822812311E+03 -0.35800043670E+03  0.38162685262E+03  0.00000000000E+00 0.  1.
          2    1    6    6  503    0 -0.87089534229E+01  0.39406863819E+02 -0.37690854832E+02  0.55220895717E+02  0.00000000000E+00 0. -1.
         -2    1    6    6    0  503 -0.26334744664E+03  0.19511997305E+03 -0.49255472800E+03  0.59163657900E+03  0.00000000000E+00 0.  1.
<mgrwt>
<rscale>  0 0.18310590E+04</rscale>
<asrwt>0</asrwt>
<pdfrwt beam="1">  1        2 0.37480394E+00 0.18310590E+04</pdfrwt>
<pdfrwt beam="2">  1       -2 0.52931456E-01 0.18310590E+04</pdfrwt>
<totfact> 0.12022829E+01</totfact>
</mgrwt>
</event>
<event>
12    3  0.4634846E-008  0.1817511E+04  0.7818608E-02  0.8697042E-01
          2   -1    0    0  501    0  0.00000000000E+00  0.00000000000E+00  0.21825388976E+04  0.21825388976E+04  0.00000000000E+00 0. -1.
         -2   -1    0    0    0  501 -0.00000000000E+00 -0.00000000000E+00 -0.37838346143E+03  0.37838346143E+03  0.00000000000E+00 0.  1.
         23    2    1    2    0    0 -0.39252268174E+03  0.52893351639E+03  0.43922325307E+03  0.79655507092E+03  0.87967008166E+02 0.  0.
        254    2    1    2    0    0  0.39252268174E+03 -0.52893351639E+03  0.13649321830E+04  0.17643672881E+04  0.90338659636E+03 0.  0.
         23    2    4    4    0    0  0.48634207198E+03  0.67798707945E+02  0.72047963233E+03  0.87630042502E+03  0.87671309532E+02 0.  0.
         23    2    4    4    0    0 -0.93819390244E+02 -0.59673222433E+03  0.64445255072E+03  0.88806686306E+03  0.91936051617E+02 0.  0.
          2    1    3    3  502    0 -0.53861184755E+02  0.92372998594E+02  0.10990296024E+03  0.15333772778E+03  0.00000000000E+00 0. -1.
         -2    1    3    3    0  502 -0.33866149698E+03  0.43656051779E+03  0.32932029284E+03  0.64321734313E+03  0.00000000000E+00 0.  1.
         13    1    5    5    0    0  0.69438429157E+02  0.41585727219E+02  0.10930224244E+03  0.13600753051E+03  0.00000000000E+00 0.  1.
        -13    1    5    5    0    0  0.41690364282E+03  0.26212980726E+02  0.61117738988E+03  0.74029289451E+03  0.00000000000E+00 0. -1.
          2    1    6    6  503    0  0.17232615543E+02 -0.94351317923E+02  0.11599650929E+03  0.15051353560E+03  0.00000000000E+00 0.  1.
         -2    1    6    6    0  503 -0.11105200579E+03 -0.50238090641E+03  0.52845604143E+03  0.73755332746E+03  0.00000000000E+00 0. -1.
<mgrwt>
<rscale>  0 0.18175111E+04</rscale>
<asrwt>0</asrwt>
<pdfrwt beam="1">  1        2 0.33577521E+00 0.18175111E+04</pdfrwt>
<pdfrwt beam="2">  1       -2 0.58212842E-01 0.18175111E+04</pdfrwt>
<totfact> 0.13749845E+01</totfact>
</mgrwt>
</event>
<event>
12    3  0.4634846E-008  0.4395890E+04  0.7818608E-02  0.7929121E-01
         -2   -1    0    0    0  501 -0.00000000000E+00  0.00000000000E+00  0.19094373070E+04  0.19094373070E+04  0.00000000000E+00 0. -1.
          2   -1    0    0  501    0  0.00000000000E+00 -0.00000000000E+00 -0.25300454752E+04  0.25300454752E+04  0.00000000000E+00 0.  1.
         23    2    1    2    0    0  0.58702996664E+03  0.20114106308E+04 -0.97082622256E+02  0.20995246564E+04  0.90564011721E+02 0.  0.
        254    2    1    2    0    0 -0.58702996664E+03 -0.20114106308E+04 -0.52352554601E+03  0.23399581258E+04  0.90052658245E+03 0.  0.
         23    2    4    4    0    0 -0.20419052133E+03 -0.13455370804E+04 -0.71939843240E+03  0.15421767731E+04  0.92797043431E+02 0.  0.
         23    2    4    4    0    0 -0.38283944531E+03 -0.66587355034E+03  0.19587288639E+03  0.79778135262E+03  0.90195748415E+02 0.  0.
          3    1    3    3  502    0  0.29303615017E+03  0.10879094204E+04 -0.90788775412E+02  0.11303360979E+04  0.00000000000E+00 0. -1.
         -3    1    3    3    0  502  0.29399381647E+03  0.92350121032E+03 -0.62938468432E+01  0.96918855859E+03  0.00000000000E+00 0.  1.
         13    1    5    5    0    0 -0.73403235738E+02 -0.59695454101E+03 -0.26956659116E+03  0.65909703847E+03  0.00000000000E+00 0. -1.
        -13    1    5    5    0    0 -0.13078728559E+03 -0.74858253941E+03 -0.44983184125E+03  0.88307973466E+03  0.00000000000E+00 0.  1.
          2    1    6    6  503    0 -0.36124140364E+03 -0.57697773646E+03  0.15838669601E+03  0.69891702336E+03  0.00000000000E+00 0. -1.
         -2    1    6    6    0  503 -0.21598041671E+02 -0.88895813880E+02  0.37486190384E+02  0.98864329254E+02  0.00000000000E+00 0.  1.
<mgrwt>
<rscale>  0 0.43958905E+04</rscale>
<asrwt>0</asrwt>
<pdfrwt beam="1">  1        2 0.38923776E+00 0.43958905E+04</pdfrwt>
<pdfrwt beam="2">  1       -2 0.29375959E+00 0.43958905E+04</pdfrwt>
<totfact> 0.88671930E-02</totfact>
</mgrwt>
</event>
<event>
12    3  0.4634846E-008  0.1369978E+04  0.7818608E-02  0.8975841E-01
         -2   -1    0    0    0  501 -0.00000000000E+00  0.00000000000E+00  0.42597940003E+03  0.42597940003E+03  0.00000000000E+00 0.  1.
          2   -1    0    0  501    0  0.00000000000E+00 -0.00000000000E+00 -0.11014848722E+04  0.11014848722E+04  0.00000000000E+00 0. -1.
         23    2    1    2    0    0  0.21096176194E+02  0.25573072156E+03  0.11211128111E+03  0.30246882430E+03  0.11434683958E+03 0.  0.
        254    2    1    2    0    0 -0.21096176194E+02 -0.25573072156E+03 -0.78761675329E+03  0.12249954479E+04  0.90245800280E+03 0.  0.
         23    2    4    4    0    0 -0.21403048412E+02  0.22051296666E+03  0.61991717395E+02  0.24714561985E+03  0.90299088806E+02 0.  0.
         23    2    4    4    0    0  0.30687221801E+00 -0.47624368822E+03 -0.84960847068E+03  0.97784982809E+03  0.86876855934E+02 0.  0.
          1    1    3    3  502    0 -0.44261005608E+02  0.99643569349E+02  0.23824381772E+02  0.11160411595E+03  0.00000000000E+00 0. -1.
         -1    1    3    3    0  502  0.65357181802E+02  0.15608715221E+03  0.88286899339E+02  0.19086470835E+03  0.00000000000E+00 0.  1.
         13    1    5    5    0    0 -0.15574170386E+02  0.22122736322E+03  0.73986260165E+02  0.23379064933E+03  0.00000000000E+00 0. -1.
        -13    1    5    5    0    0 -0.58288780255E+01 -0.71439655591E+00 -0.11994542770E+02  0.13354970525E+02  0.00000000000E+00 0.  1.
          4    1    6    6  503    0  0.11909671321E+02 -0.41419050046E+03 -0.67338023371E+03  0.79065577219E+03  0.00000000000E+00 0. -1.
         -4    1    6    6    0  503 -0.11602799103E+02 -0.62053187759E+02 -0.17622823697E+03  0.18719405590E+03  0.00000000000E+00 0.  1.
<mgrwt>
<rscale>  0 0.13699779E+04</rscale>
<asrwt>0</asrwt>
<pdfrwt beam="1">  1        2 0.16945921E+00 0.13699779E+04</pdfrwt>
<pdfrwt beam="2">  1       -2 0.65535294E-01 0.13699779E+04</pdfrwt>
<totfact> 0.45489132E+01</totfact>
</mgrwt>
</event>
<event>
12    3  0.4634846E-008  0.1683611E+04  0.7818608E-02  0.8770767E-01
         -2   -1    0    0    0  501 -0.00000000000E+00  0.00000000000E+00  0.82446356297E+03  0.82446356297E+03  0.00000000000E+00 0. -1.
          2   -1    0    0  501    0  0.00000000000E+00 -0.00000000000E+00 -0.85951218601E+03  0.85951218601E+03  0.00000000000E+00 0.  1.
         23    2    1    2    0    0  0.11390707499E+03  0.49376527389E+03 -0.32690036488E+03  0.61003314249E+03  0.92182530566E+02 0.  0.
        254    2    1    2    0    0 -0.11390707499E+03 -0.49376527389E+03  0.29185174183E+03  0.10739426065E+04  0.90077539676E+03 0.  0.
         23    2    4    4    0    0 -0.85068763023E+02 -0.50749459210E+03 -0.20949059122E+03  0.56291230817E+03  0.90534542762E+02 0.  0.
         23    2    4    4    0    0 -0.28838311967E+02  0.13729318204E+02  0.50134233305E+03  0.51103029832E+03  0.93742671610E+02 0.  0.
          1    1    3    3  502    0  0.54758048041E+02  0.14621813507E+03 -0.57680290264E+02  0.16644879913E+03  0.00000000000E+00 0. -1.
         -1    1    3    3    0  502  0.59149026950E+02  0.34754713882E+03 -0.26922007461E+03  0.44358434335E+03  0.00000000000E+00 0.  1.
         13    1    5    5    0    0 -0.95295178501E+02 -0.47655228217E+03 -0.21202737096E+03  0.53022528676E+03  0.00000000000E+00 0.  1.
        -13    1    5    5    0    0  0.10226415478E+02 -0.30942309931E+02  0.25367797416E+01  0.32687021413E+02  0.00000000000E+00 0. -1.
          1    1    6    6  503    0 -0.11588416002E+02  0.36645454103E+02  0.80424361915E+02  0.89136180540E+02  0.00000000000E+00 0. -1.
         -1    1    6    6    0  503 -0.17249895965E+02 -0.22916135899E+02  0.42091797114E+03  0.42189411778E+03  0.00000000000E+00 0.  1.
<mgrwt>
<rscale>  0 0.16836110E+04</rscale>
<asrwt>0</asrwt>
<pdfrwt beam="1">  1        2 0.13223264E+00 0.16836110E+04</pdfrwt>
<pdfrwt beam="2">  1       -2 0.12684055E+00 0.16836110E+04</pdfrwt>
<totfact> 0.13762775E+01</totfact>
</mgrwt>
</event>
<event>
12    3  0.4634846E-008  0.1130777E+04  0.7818608E-02  0.9175703E-01
          2   -1    0    0  501    0  0.00000000000E+00  0.00000000000E+00  0.17527567158E+04  0.17527567158E+04  0.00000000000E+00 0. -1.
         -2   -1    0    0    0  501 -0.00000000000E+00 -0.00000000000E+00 -0.18237808704E+03  0.18237808704E+03  0.00000000000E+00 0.  1.
         23    2    1    2    0    0 -0.90484365866E+02 -0.41619130379E+02  0.55106421366E+03  0.56793309269E+03  0.94639620184E+02 0.  0.
        254    2    1    2    0    0  0.90484365866E+02  0.41619130379E+02  0.10193144151E+04  0.13672017101E+04  0.90571467191E+03 0.  0.
         23    2    4    4    0    0  0.28065908948E+02  0.38526149445E+03  0.90566952829E+03  0.98892271027E+03  0.92286066453E+02 0.  0.
         23    2    4    4    0    0  0.62418456919E+02 -0.34364236407E+03  0.11364488678E+03  0.37827899985E+03  0.90519076952E+02 0.  0.
          1    1    3    3  502    0 -0.43118783424E+02  0.91765260048E+01  0.39064449406E+03  0.39312410109E+03  0.00000000000E+00 0. -1.
         -1    1    3    3    0  502 -0.47365582442E+02 -0.50795656383E+02  0.16041971960E+03  0.17480899160E+03  0.00000000000E+00 0.  1.
         13    1    5    5    0    0 -0.26116866243E+02  0.63934683869E+02  0.20156305194E+03  0.21306665251E+03  0.00000000000E+00 0. -1.
        -13    1    5    5    0    0  0.54182775191E+02  0.32132681058E+03  0.70410647635E+03  0.77585605776E+03  0.00000000000E+00 0.  1.
          4    1    6    6  503    0  0.85735634507E+02 -0.26988441730E+03  0.95258354274E+02  0.29876805683E+03  0.00000000000E+00 0. -1.
         -4    1    6    6    0  503 -0.23317177588E+02 -0.73757946769E+02  0.18386532505E+02  0.79510943020E+02  0.00000000000E+00 0.  1.
<mgrwt>
<rscale>  0 0.11307775E+04</rscale>
<asrwt>0</asrwt>
<pdfrwt beam="1">  1        2 0.26965487E+00 0.11307775E+04</pdfrwt>
<pdfrwt beam="2">  1       -2 0.28058168E-01 0.11307775E+04</pdfrwt>
<totfact> 0.10550589E+02</totfact>
</mgrwt>
</event>
<event>
12    3  0.4634846E-008  0.1303748E+04  0.7818608E-02  0.9026598E-01
         -1   -1    0    0    0  501 -0.00000000000E+00  0.00000000000E+00  0.31262954594E+03  0.31262954594E+03  0.00000000000E+00 0.  1.
          1   -1    0    0  501    0  0.00000000000E+00 -0.00000000000E+00 -0.13592445181E+04  0.13592445181E+04  0.00000000000E+00 0. -1.
         23    2    1    2    0    0  0.14334260208E+03 -0.15120386236E+03  0.67192310344E+02  0.23601198956E+03  0.88188111921E+02 0.  0.
        254    2    1    2    0    0 -0.14334260208E+03  0.15120386236E+03 -0.11138072825E+04  0.14358620745E+04  0.88188634459E+03 0.  0.
         23    2    4    4    0    0 -0.46549194062E+03  0.24289873230E+02 -0.34307605418E+03  0.58595341398E+03  0.91473928928E+02 0.  0.
         23    2    4    4    0    0  0.32214933854E+03  0.12691398913E+03 -0.77073122834E+03  0.84990866051E+03  0.91819104264E+02 0.  0.
          4    1    3    3  502    0  0.55547989675E+02 -0.52835747715E+02 -0.18370511982E+02  0.78833185297E+02  0.00000000000E+00 0. -1.
         -4    1    3    3    0  502  0.87794612405E+02 -0.98368114649E+02  0.85562822325E+02  0.15717880427E+03  0.00000000000E+00 0.  1.
         13    1    5    5    0    0 -0.10448656138E+03 -0.21998067819E+02 -0.11248446735E+03  0.15509388090E+03  0.00000000000E+00 0. -1.
        -13    1    5    5    0    0 -0.36100537924E+03  0.46287941048E+02 -0.23059158683E+03  0.43085953308E+03  0.00000000000E+00 0.  1.
          3    1    6    6  503    0  0.26193444744E+02 -0.99079615711E+01 -0.32636442563E+02  0.43004669900E+02  0.00000000000E+00 0. -1.
         -3    1    6    6    0  503  0.29595589380E+03  0.13682195071E+03 -0.73809478577E+03  0.80690399061E+03  0.00000000000E+00 0.  1.
<mgrwt>
<rscale>  0 0.13037484E+04</rscale>
<asrwt>0</asrwt>
<pdfrwt beam="1">  1        1 0.20911454E+00 0.13037484E+04</pdfrwt>
<pdfrwt beam="2">  1       -1 0.48096854E-01 0.13037484E+04</pdfrwt>
<totfact> 0.34832937E+01</totfact>
</mgrwt>
</event>
<event>
12    3  0.4634846E-008  0.2349482E+04  0.7818608E-02  0.8458663E-01
          1   -1    0    0  501    0  0.00000000000E+00  0.00000000000E+00  0.33547321331E+04  0.33547321331E+04  0.00000000000E+00 0. -1.
         -1   -1    0    0    0  501 -0.00000000000E+00 -0.00000000000E+00 -0.41136407939E+03  0.41136407939E+03  0.00000000000E+00 0.  1.
         23    2    1    2    0    0  0.48337591313E+03 -0.30986978325E+03  0.25727891339E+04  0.26375501872E+04  0.88065353456E+02 0.  0.
        254    2    1    2    0    0 -0.48337591313E+03  0.30986978325E+03  0.37057891981E+03  0.11285460253E+04  0.89811794296E+03 0.  0.
         23    2    4    4    0    0 -0.48338282834E+03  0.53384942351E+03  0.51334047652E+02  0.72786074044E+03  0.92151545299E+02 0.  0.
         23    2    4    4    0    0  0.69152143159E-02 -0.22397964026E+03  0.31924487216E+03  0.40068528487E+03  0.92002879389E+02 0.  0.
          3    1    3    3  502    0  0.35133206717E+03 -0.26348069130E+03  0.18586523514E+04  0.19098284895E+04  0.00000000000E+00 0. -1.
         -3    1    3    3    0  502  0.13204384596E+03 -0.46389091948E+02  0.71413678255E+03  0.72772169770E+03  0.00000000000E+00 0.  1.
         13    1    5    5    0    0 -0.44221832325E+03  0.49182528300E+03  0.21138148312E+02  0.66173708958E+03  0.00000000000E+00 0. -1.
        -13    1    5    5    0    0 -0.41164505089E+02  0.42024140512E+02  0.30195899340E+02  0.66123650851E+02  0.00000000000E+00 0.  1.
          3    1    6    6  503    0 -0.12501749474E+02 -0.10747587642E+03  0.22731726964E+03  0.25175483874E+03  0.00000000000E+00 0. -1.
         -3    1    6    6    0  503  0.12508664689E+02 -0.11650376384E+03  0.91927602518E+02  0.14893044613E+03  0.00000000000E+00 0.  1.
<mgrwt>
<rscale>  0 0.23494819E+04</rscale>
<asrwt>0</asrwt>
<pdfrwt beam="1">  1        1 0.51611262E+00 0.23494819E+04</pdfrwt>
<pdfrwt beam="2">  1       -1 0.63286784E-01 0.23494819E+04</pdfrwt>
<totfact> 0.74000438E-01</totfact>
</mgrwt>
</event>
<event>
12    3  0.4634846E-008  0.1618495E+04  0.7818608E-02  0.8809266E-01
          2   -1    0    0  501    0  0.00000000000E+00  0.00000000000E+00  0.25606264149E+04  0.25606264149E+04  0.00000000000E+00 0. -1.
         -2   -1    0    0    0  501 -0.00000000000E+00 -0.00000000000E+00 -0.25575058094E+03  0.25575058094E+03  0.00000000000E+00 0.  1.
         23    2    1    2    0    0  0.99800951719E+02  0.32759918087E+02  0.18232955302E+04  0.18298500246E+04  0.11362693273E+03 0.  0.
        254    2    1    2    0    0 -0.99800951719E+02 -0.32759918087E+02  0.48158030370E+03  0.98652697120E+03  0.85456564043E+03 0.  0.
         23    2    4    4    0    0 -0.28712678724E+03  0.18155524985E+03  0.57479941287E+03  0.67395409525E+03  0.91736888805E+02 0.  0.
         23    2    4    4    0    0  0.18732583552E+03 -0.21431516794E+03 -0.93219109164E+02  0.31257287596E+03  0.89387027081E+02 0.  0.
          1    1    3    3  502    0  0.75654850369E+02  0.30487075339E+02  0.17626293581E+04  0.17645156197E+04  0.00000000000E+00 0. -1.
         -1    1    3    3    0  502  0.24146101350E+02  0.22728427476E+01  0.60666172143E+02  0.65334404926E+02  0.00000000000E+00 0.  1.
         13    1    5    5    0    0 -0.26796043331E+03  0.14399215816E+03  0.45840644779E+03  0.55015725643E+03  0.00000000000E+00 0. -1.
        -13    1    5    5    0    0 -0.19166353928E+02  0.37563091694E+02  0.11639296508E+03  0.12379683881E+03  0.00000000000E+00 0.  1.
          4    1    6    6  503    0  0.11230793542E+03 -0.18181110444E+03 -0.47558970448E+02  0.21892968215E+03  0.00000000000E+00 0. -1.
         -4    1    6    6    0  503  0.75017900102E+02 -0.32504063499E+02 -0.45660138716E+02  0.93643193811E+02  0.00000000000E+00 0.  1.
<mgrwt>
<rscale>  0 0.16184952E+04</rscale>
<asrwt>0</asrwt>
<pdfrwt beam="1">  1        2 0.39394251E+00 0.16184952E+04</pdfrwt>
<pdfrwt beam="2">  1       -2 0.39346245E-01 0.16184952E+04</pdfrwt>
<totfact> 0.18816536E+01</totfact>
</mgrwt>
</event>
<event>
12    3  0.4634846E-008  0.1187233E+04  0.7818608E-02  0.9124106E-01
          2   -1    0    0  501    0  0.00000000000E+00  0.00000000000E+00  0.14370063916E+04  0.14370063916E+04  0.00000000000E+00 0. -1.
         -2   -1    0    0    0  501 -0.00000000000E+00 -0.00000000000E+00 -0.24521845204E+03  0.24521845204E+03  0.00000000000E+00 0.  1.
         23    2    1    2    0    0  0.40390172576E+02 -0.22820621353E+03  0.26943086056E+03  0.36974909550E+03  0.10203902716E+03 0.  0.
        254    2    1    2    0    0 -0.40390172576E+02  0.22820621353E+03  0.92235707904E+03  0.13124757482E+04  0.90451123065E+03 0.  0.
         23    2    4    4    0    0  0.13112279950E+03 -0.19827963257E+03 -0.25690138853E+02  0.25480046249E+03  0.88064131224E+02 0.  0.
         23    2    4    4    0    0 -0.17151297208E+03  0.42648584611E+03  0.94804721790E+03  0.10576752857E+04  0.92609967477E+02 0.  0.
          4    1    3    3  502    0  0.12008706207E+02  0.81091408710E+01  0.22675693660E+02  0.26910114704E+02  0.00000000000E+00 0. -1.
         -4    1    3    3    0  502  0.28381466369E+02 -0.23631535441E+03  0.24675516690E+03  0.34283898079E+03  0.00000000000E+00 0.  1.
         13    1    5    5    0    0  0.99368458033E+02 -0.17506928648E+03 -0.51460236437E+02  0.20777752875E+03  0.00000000000E+00 0. -1.
        -13    1    5    5    0    0  0.31754341470E+02 -0.23210346096E+02  0.25770097583E+02  0.47022933740E+02  0.00000000000E+00 0.  1.
          1    1    6    6  503    0 -0.13265793491E+03  0.40029715043E+03  0.84031494492E+03  0.94019420493E+03  0.00000000000E+00 0. -1.
         -1    1    6    6    0  503 -0.38855037169E+02  0.26188695678E+02  0.10773227298E+03  0.11748108076E+03  0.00000000000E+00 0.  1.
<mgrwt>
<rscale>  0 0.11872329E+04</rscale>
<asrwt>0</asrwt>
<pdfrwt beam="1">  1        2 0.22107790E+00 0.11872329E+04</pdfrwt>
<pdfrwt beam="2">  1       -2 0.37725916E-01 0.11872329E+04</pdfrwt>
<totfact> 0.90178236E+01</totfact>
</mgrwt>
</event>
<event>
12    3  0.4634846E-008  0.1839206E+04  0.7818608E-02  0.8685723E-01
         -2   -1    0    0    0  501 -0.00000000000E+00  0.00000000000E+00  0.34159439807E+03  0.34159439807E+03  0.00000000000E+00 0.  1.
          2   -1    0    0  501    0  0.00000000000E+00 -0.00000000000E+00 -0.24756554092E+04  0.24756554092E+04  0.00000000000E+00 0. -1.
         23    2    1    2    0    0 -0.55246151230E+02  0.57260135642E+03 -0.22178591644E+03  0.62347873666E+03  0.92802433869E+02 0.  0.
        254    2    1    2    0    0  0.55246151230E+02 -0.57260135642E+03 -0.19122750947E+04  0.21937710706E+04  0.90824612407E+03 0.  0.
         23    2    4    4    0    0  0.39124253942E+03 -0.29194325634E+03 -0.46470800095E+03  0.67876824271E+03  0.80443841194E+02 0.  0.
         23    2    4    4    0    0 -0.33599638819E+03 -0.28065810009E+03 -0.14475670937E+04  0.15150028279E+04  0.90114014807E+02 0.  0.
          3    1    3    3  502    0 -0.81344366303E+00  0.53431951283E+02  0.63025701626E+01  0.53808526268E+02  0.00000000000E+00 0. -1.
         -3    1    3    3    0  502 -0.54432707567E+02  0.51916940514E+03 -0.22808848660E+03  0.56967021039E+03  0.00000000000E+00 0.  1.
         13    1    5    5    0    0  0.35835614563E+02 -0.41971916053E+02 -0.24987342756E+02  0.60582178124E+02  0.00000000000E+00 0.  1.
        -13    1    5    5    0    0  0.35540692486E+03 -0.24997134028E+03 -0.43972065819E+03  0.61818606458E+03  0.00000000000E+00 0. -1.
          4    1    6    6  503    0 -0.28123566143E+03 -0.23011576114E+03 -0.10661996188E+04  0.11264228282E+04  0.00000000000E+00 0. -1.
         -4    1    6    6    0  503 -0.54760726761E+02 -0.50542338943E+02 -0.38136747493E+03  0.38857999969E+03  0.00000000000E+00 0.  1.
<mgrwt>
<rscale>  0 0.18392064E+04</rscale>
<asrwt>0</asrwt>
<pdfrwt beam="1">  1        2 0.38087005E+00 0.18392064E+04</pdfrwt>
<pdfrwt beam="2">  1       -2 0.52552986E-01 0.18392064E+04</pdfrwt>
<totfact> 0.11573019E+01</totfact>
</mgrwt>
</event>
<event>
12    3  0.4634846E-008  0.2927516E+04  0.7818608E-02  0.8264737E-01
         -1   -1    0    0    0  501 -0.00000000000E+00  0.00000000000E+00  0.14934494761E+04  0.14934494761E+04  0.00000000000E+00 0.  1.
          1   -1    0    0  501    0  0.00000000000E+00 -0.00000000000E+00 -0.14346571517E+04  0.14346571517E+04  0.00000000000E+00 0. -1.
         23    2    1    2    0    0  0.82222908438E+03  0.92828195664E+03  0.48454174779E+03  0.13344759855E+04  0.90980174931E+02 0.  0.
        254    2    1    2    0    0 -0.82222908438E+03 -0.92828195664E+03 -0.42574942336E+03  0.15936306424E+04  0.90588519942E+03 0.  0.
         23    2    4    4    0    0 -0.94572161602E+03 -0.52533097052E+03 -0.19109825911E+03  0.11023745075E+04  0.91372897976E+02 0.  0.
         23    2    4    4    0    0  0.12349253163E+03 -0.40295098613E+03 -0.23465116425E+03  0.49125613489E+03  0.93013539863E+02 0.  0.
          4    1    3    3  502    0  0.57036135564E+03  0.64164752033E+03  0.38000817543E+03  0.93884494447E+03  0.00000000000E+00 0. -1.
         -4    1    3    3    0  502  0.25186772874E+03  0.28663443631E+03  0.10453357236E+03  0.39563104101E+03  0.00000000000E+00 0.  1.
         13    1    5    5    0    0 -0.39191871653E+03 -0.26825414253E+03 -0.93852230303E+02  0.48411652160E+03  0.00000000000E+00 0. -1.
        -13    1    5    5    0    0 -0.55380289949E+03 -0.25707682799E+03 -0.97246028807E+02  0.61825798587E+03  0.00000000000E+00 0.  1.
          2    1    6    6  503    0  0.23972357660E+02 -0.16502103625E+02 -0.33473995672E+02  0.44356529870E+02  0.00000000000E+00 0. -1.
         -2    1    6    6    0  503  0.99520173972E+02 -0.38644888250E+03 -0.20117716857E+03  0.44689960502E+03  0.00000000000E+00 0.  1.
<mgrwt>
<rscale>  0 0.29275163E+04</rscale>
<asrwt>0</asrwt>
<pdfrwt beam="1">  1        1 0.22071648E+00 0.29275163E+04</pdfrwt>
<pdfrwt beam="2">  1       -1 0.22976146E+00 0.29275163E+04</pdfrwt>
<totfact> 0.58937417E-01</totfact>
</mgrwt>
</event>
<event>
12    3  0.4634846E-008  0.1479429E+04  0.7818608E-02  0.8898249E-01
         -2   -1    0    0    0  501 -0.00000000000E+00  0.00000000000E+00  0.22708545841E+04  0.22708545841E+04  0.00000000000E+00 0.  1.
          2   -1    0    0  501    0  0.00000000000E+00 -0.00000000000E+00 -0.24095668757E+03  0.24095668757E+03  0.00000000000E+00 0. -1.
         23    2    1    2    0    0  0.17942226939E+03  0.19177413883E+03  0.12602505564E+04  0.12909001981E+04  0.96032210686E+02 0.  0.
        254    2    1    2    0    0 -0.17942226939E+03 -0.19177413883E+03  0.76964734009E+03  0.12209110735E+04  0.91065753733E+03 0.  0.
         23    2    4    4    0    0 -0.14435722645E+02 -0.45788717861E+03  0.76223762336E+03  0.89391101788E+03  0.90562989094E+02 0.  0.
         23    2    4    4    0    0 -0.16498654674E+03  0.26611303978E+03  0.74097167307E+01  0.32700005565E+03  0.94007563250E+02 0.  0.
          2    1    3    3  502    0  0.62204684802E+02  0.38894343117E+02  0.19445315972E+03  0.20783220170E+03  0.00000000000E+00 0. -1.
         -2    1    3    3    0  502  0.11721758458E+03  0.15287979571E+03  0.10657973967E+04  0.10830679964E+04  0.00000000000E+00 0.  1.
         13    1    5    5    0    0 -0.18942808061E+02 -0.19485421608E+03  0.24494957538E+03  0.31357182587E+03  0.00000000000E+00 0. -1.
        -13    1    5    5    0    0  0.45070854157E+01 -0.26303296254E+03  0.51728804798E+03  0.58033919201E+03  0.00000000000E+00 0.  1.
          3    1    6    6  503    0 -0.14030787266E+02  0.10519859943E+03 -0.21999995385E+01  0.10615294773E+03  0.00000000000E+00 0. -1.
         -3    1    6    6    0  503 -0.15095575948E+03  0.16091444035E+03  0.96097162692E+01  0.22084710793E+03  0.00000000000E+00 0.  1.
<mgrwt>
<rscale>  0 0.14794291E+04</rscale>
<asrwt>0</asrwt>
<pdfrwt beam="1">  1        2 0.37070261E-01 0.14794291E+04</pdfrwt>
<pdfrwt beam="2">  1       -2 0.34936223E+00 0.14794291E+04</pdfrwt>
<totfact> 0.21474073E+00</totfact>
</mgrwt>
</event>
<event>
12    3  0.4634846E-008  0.2218473E+04  0.7818608E-02  0.8510778E-01
         -1   -1    0    0    0  501 -0.00000000000E+00  0.00000000000E+00  0.59542038676E+03  0.59542038676E+03  0.00000000000E+00 0.  1.
          1   -1    0    0  501    0  0.00000000000E+00 -0.00000000000E+00 -0.20664494570E+04  0.20664494570E+04  0.00000000000E+00 0. -1.
         23    2    1    2    0    0 -0.11583309173E+03  0.44881643683E+03  0.34208830741E+03  0.58332944030E+03  0.91626015685E+02 0.  0.
        254    2    1    2    0    0  0.11583309173E+03 -0.44881643683E+03 -0.18131173777E+04  0.20785404035E+04  0.90447890225E+03 0.  0.
         23    2    4    4    0    0  0.39791581911E+03 -0.59861822389E+02 -0.13249066896E+04  0.13877235030E+04  0.92077944069E+02 0.  0.
         23    2    4    4    0    0 -0.28208272738E+03 -0.38895461444E+03 -0.48821068807E+03  0.69081690048E+03  0.89565377601E+02 0.  0.
          1    1    3    3  502    0 -0.53790698839E+02  0.74602657991E+02  0.50814013493E+02  0.10507644754E+03  0.00000000000E+00 0. -1.
         -1    1    3    3    0  502 -0.62042392892E+02  0.37421377884E+03  0.29127429391E+03  0.47825299276E+03  0.00000000000E+00 0.  1.
         13    1    5    5    0    0  0.35516626204E+03 -0.72534110146E+02 -0.10922289772E+04  0.11508120652E+04  0.00000000000E+00 0. -1.
        -13    1    5    5    0    0  0.42749557062E+02  0.12672287757E+02 -0.23267771241E+03  0.23691143779E+03  0.00000000000E+00 0.  1.
          1    1    6    6  503    0 -0.20946375373E+03 -0.25864540129E+03 -0.28154952203E+03  0.43593880429E+03  0.00000000000E+00 0. -1.
         -1    1    6    6    0  503 -0.72618973642E+02 -0.13030921315E+03 -0.20666116604E+03  0.25487809618E+03  0.00000000000E+00 0.  1.
<mgrwt>
<rscale>  0 0.22184735E+04</rscale>
<asrwt>0</asrwt>
<pdfrwt beam="1">  1        1 0.31791530E+00 0.22184735E+04</pdfrwt>
<pdfrwt beam="2">  1       -1 0.91603136E-01 0.22184735E+04</pdfrwt>
<totfact> 0.28393453E+00</totfact>
</mgrwt>
</event>
<event>
12    3  0.4634846E-008  0.2560643E+04  0.7818608E-02  0.8381694E-01
          2   -1    0    0  501    0  0.00000000000E+00  0.00000000000E+00  0.86786407213E+03  0.86786407213E+03  0.00000000000E+00 0. -1.
         -2   -1    0    0    0  501 -0.00000000000E+00 -0.00000000000E+00 -0.18888018303E+04  0.18888018303E+04  0.00000000000E+00 0.  1.
         23    2    1    2    0    0 -0.11111654208E+04  0.10720272004E+03 -0.54100734730E+03  0.12438548575E+04  0.91131448988E+02 0.  0.
        254    2    1    2    0    0  0.11111654208E+04 -0.10720272004E+03 -0.47993041085E+03  0.15128110449E+04  0.90115650294E+03 0.  0.
         23    2    4    4    0    0  0.59998716317E+03 -0.47502569029E+03 -0.40877379892E+03  0.87231167784E+03  0.90540831729E+02 0.  0.
         23    2    4    4    0    0  0.51117825767E+03  0.36782297025E+03 -0.71156611933E+02  0.64049936710E+03  0.92624118254E+02 0.  0.
          1    1    3    3  502    0 -0.77348294595E+03  0.10198914415E+03 -0.34187573054E+03  0.85179614247E+03  0.00000000000E+00 0. -1.
         -1    1    3    3    0  502 -0.33768247489E+03  0.52135758932E+01 -0.19913161675E+03  0.39205871500E+03  0.00000000000E+00 0.  1.
         13    1    5    5    0    0  0.86168844829E+02 -0.32118378381E+02 -0.41260835315E+02  0.10079244307E+03  0.00000000000E+00 0. -1.
        -13    1    5    5    0    0  0.51381831834E+03 -0.44290731191E+03 -0.36751296360E+03  0.77151923477E+03  0.00000000000E+00 0.  1.
          1    1    6    6  503    0 -0.26869186610E+01  0.89606503753E+01  0.17064217309E+01  0.95091883020E+01  0.00000000000E+00 0. -1.
         -1    1    6    6    0  503  0.51386517633E+03  0.35886231987E+03 -0.72863033663E+02  0.63099017880E+03  0.00000000000E+00 0.  1.
<mgrwt>
<rscale>  0 0.25606431E+04</rscale>
<asrwt>0</asrwt>
<pdfrwt beam="1">  1        2 0.13351755E+00 0.25606431E+04</pdfrwt>
<pdfrwt beam="2">  1       -2 0.29058490E+00 0.25606431E+04</pdfrwt>
<totfact> 0.99340913E-01</totfact>
</mgrwt>
</event>
<event>
12    3  0.4634846E-008  0.2169327E+04  0.7818608E-02  0.8531304E-01
         -2   -1    0    0    0  501 -0.00000000000E+00  0.00000000000E+00  0.17402176241E+04  0.17402176241E+04  0.00000000000E+00 0.  1.
          2   -1    0    0  501    0  0.00000000000E+00 -0.00000000000E+00 -0.67606201144E+03  0.67606201144E+03  0.00000000000E+00 0. -1.
         23    2    1    2    0    0 -0.33965077985E+03  0.44988034364E+03  0.12196765734E+04  0.13463913599E+04  0.86045188803E+02 0.  0.
        254    2    1    2    0    0  0.33965077985E+03 -0.44988034364E+03 -0.15552096079E+03  0.10698882756E+04  0.89594596774E+03 0.  0.
         23    2    4    4    0    0  0.30454430976E+03 -0.52733585152E+03  0.23554725912E+03  0.65974069619E+03  0.94577682460E+02 0.  0.
         23    2    4    4    0    0  0.35106470086E+02  0.77455507880E+02 -0.39106821992E+03  0.41014757939E+03  0.89748895836E+02 0.  0.
          4    1    3    3  502    0 -0.19777970683E+03  0.25909595935E+03  0.60281433771E+03  0.68529749331E+03  0.00000000000E+00 0. -1.
         -4    1    3    3    0  502 -0.14187107302E+03  0.19078438429E+03  0.61686223570E+03  0.66109386662E+03  0.00000000000E+00 0.  1.
         13    1    5    5    0    0  0.61476186025E+02 -0.13676264569E+03  0.99718024462E+02  0.18007505964E+03  0.00000000000E+00 0.  1.
        -13    1    5    5    0    0  0.24306812374E+03 -0.39057320583E+03  0.13582923466E+03  0.47966563654E+03  0.00000000000E+00 0. -1.
          1    1    6    6  503    0  0.86237688508E+01  0.95829022957E+01 -0.56306468443E+00  0.12904202705E+02  0.00000000000E+00 0. -1.
         -1    1    6    6    0  503  0.26482701236E+02  0.67872605584E+02 -0.39050515523E+03  0.39724337668E+03  0.00000000000E+00 0.  1.
<mgrwt>
<rscale>  0 0.21693271E+04</rscale>
<asrwt>0</asrwt>
<pdfrwt beam="1">  1        2 0.10400954E+00 0.21693271E+04</pdfrwt>
<pdfrwt beam="2">  1       -2 0.26772579E+00 0.21693271E+04</pdfrwt>
<totfact> 0.19632423E+00</totfact>
</mgrwt>
</event>
<event>
12    3  0.4634846E-008  0.1293635E+04  0.7818608E-02  0.9034628E-01
         -1   -1    0    0    0  501 -0.00000000000E+00  0.00000000000E+00  0.13910517695E+03  0.13910517695E+03  0.00000000000E+00 0.  1.
          1   -1    0    0  501    0  0.00000000000E+00 -0.00000000000E+00 -0.30075999009E+04  0.30075999009E+04  0.00000000000E+00 0. -1.
         23    2    1    2    0    0  0.82854079697E+02  0.27653480806E+03 -0.92143811160E+03  0.96996408208E+03  0.91901188336E+02 0.  0.
        254    2    1    2    0    0 -0.82854079697E+02 -0.27653480806E+03 -0.19470566123E+04  0.21767409957E+04  0.92942757243E+03 0.  0.
         23    2    4    4    0    0 -0.26989364405E+03  0.22825963350E+03 -0.11788347084E+04  0.12342698625E+04  0.93945645240E+02 0.  0.
         23    2    4    4    0    0  0.18703956435E+03 -0.50479444156E+03 -0.76822190392E+03  0.94247113329E+03  0.91025911460E+02 0.  0.
          4    1    3    3  502    0  0.12702699037E+01  0.16776162183E+01  0.20834787197E+01  0.29612270058E+01  0.00000000000E+00 0.  1.
         -4    1    3    3    0  502  0.81583809794E+02  0.27485719184E+03 -0.92352159032E+03  0.96700285507E+03  0.00000000000E+00 0. -1.
         13    1    5    5    0    0 -0.27209197611E+03  0.22276479333E+03 -0.10917815010E+04  0.11470157115E+04  0.00000000000E+00 0.  1.
        -13    1    5    5    0    0  0.21983320632E+01  0.54948401710E+01 -0.87053207407E+02  0.87254150917E+02  0.00000000000E+00 0. -1.
          3    1    6    6  503    0  0.17741364602E+02 -0.22228985884E+02 -0.15303561098E+02  0.32296792622E+02  0.00000000000E+00 0. -1.
         -3    1    6    6    0  503  0.16929819975E+03 -0.48256545568E+03 -0.75291834282E+03  0.91017434067E+03  0.00000000000E+00 0.  1.
<mgrwt>
<rscale>  0 0.12936347E+04</rscale>
<asrwt>0</asrwt>
<pdfrwt beam="1">  1        1 0.46270765E+00 0.12936347E+04</pdfrwt>
<pdfrwt beam="2">  1       -1 0.21400798E-01 0.12936347E+04</pdfrwt>
<totfact> 0.10698905E+01</totfact>
</mgrwt>
</event>
<event>
12    3  0.4634846E-008  0.4676132E+04  0.7818608E-02  0.7880506E-01
          2   -1    0    0  501    0  0.00000000000E+00  0.00000000000E+00  0.27156581717E+04  0.27156581717E+04  0.00000000000E+00 0.  1.
         -2   -1    0    0    0  501 -0.00000000000E+00 -0.00000000000E+00 -0.20129754214E+04  0.20129754214E+04  0.00000000000E+00 0. -1.
         23    2    1    2    0    0  0.17820479840E+04 -0.13709951252E+04  0.38825084912E+03  0.22835211415E+04  0.91692044475E+02 0.  0.
        254    2    1    2    0    0 -0.17820479840E+04  0.13709951252E+04  0.31443190118E+03  0.24451124517E+04  0.90795640325E+03 0.  0.
         23    2    4    4    0    0 -0.12535238047E+04  0.42833628628E+03  0.29544195766E+03  0.13603002810E+04  0.91307180167E+02 0.  0.
         23    2    4    4    0    0 -0.52852417935E+03  0.94265883889E+03  0.18989943517E+02  0.10848121706E+04  0.92267724230E+02 0.  0.
          1    1    3    3  502    0  0.36520897357E+03 -0.32286392830E+03  0.65903936332E+02  0.49189637059E+03  0.00000000000E+00 0. -1.
         -1    1    3    3    0  502  0.14168390105E+04 -0.10481311969E+04  0.32234691279E+03  0.17916247709E+04  0.00000000000E+00 0.  1.
         13    1    5    5    0    0 -0.50139937085E+03  0.16122419890E+03  0.72867444470E+02  0.53169938487E+03  0.00000000000E+00 0. -1.
        -13    1    5    5    0    0 -0.75212443384E+03  0.26711208738E+03  0.22257451319E+03  0.82860089616E+03  0.00000000000E+00 0.  1.
          2    1    6    6  503    0 -0.13423582844E+03  0.27342648240E+03 -0.32683574767E+02  0.30634868202E+03  0.00000000000E+00 0. -1.
         -2    1    6    6    0  503 -0.39428835091E+03  0.66923235649E+03  0.51673518284E+02  0.77846348863E+03  0.00000000000E+00 0.  1.
<mgrwt>
<rscale>  0 0.46761322E+04</rscale>
<asrwt>0</asrwt>
<pdfrwt beam="1">  1        2 0.41779356E+00 0.46761322E+04</pdfrwt>
<pdfrwt beam="2">  1       -2 0.30968853E+00 0.46761322E+04</pdfrwt>
<totfact> 0.53805692E-02</totfact>
</mgrwt>
</event>
<event>
12    3  0.4634846E-008  0.2975468E+04  0.7818608E-02  0.8250771E-01
         -2   -1    0    0    0  501 -0.00000000000E+00  0.00000000000E+00  0.63770911286E+03  0.63770911286E+03  0.00000000000E+00 0. -1.
          2   -1    0    0  501    0  0.00000000000E+00 -0.00000000000E+00 -0.34707857998E+04  0.34707857998E+04  0.00000000000E+00 0.  1.
         23    2    1    2    0    0 -0.42623848750E+03 -0.69991193573E+03  0.18416849229E+03  0.84521988631E+03  0.94459815082E+02 0.  0.
        254    2    1    2    0    0  0.42623848750E+03  0.69991193573E+03 -0.30172451792E+04  0.32632750264E+04  0.93468682459E+03 0.  0.
         23    2    4    4    0    0  0.11981642595E+03  0.74471384564E+03 -0.27208223018E+04  0.28249347035E+04  0.91800834980E+02 0.  0.
         23    2    4    4    0    0  0.30642206154E+03 -0.44801909917E+02 -0.29642287742E+03  0.43834032283E+03  0.91509701311E+02 0.  0.
          1    1    3    3  502    0 -0.21246733909E+03 -0.26167055463E+03  0.65161192687E+02  0.34330719534E+03  0.00000000000E+00 0. -1.
         -1    1    3    3    0  502 -0.21377114840E+03 -0.43824138110E+03  0.11900729960E+03  0.50191269097E+03  0.00000000000E+00 0.  1.
         13    1    5    5    0    0  0.23909939120E+02  0.55014399439E+02 -0.30079592540E+03  0.30671885836E+03  0.00000000000E+00 0.  1.
        -13    1    5    5    0    0  0.95906486834E+02  0.68969944620E+03 -0.24200263764E+04  0.25182158452E+04  0.00000000000E+00 0. -1.
          2    1    6    6  503    0  0.22701261840E+03  0.28415870405E+01 -0.23762031749E+03  0.32864299600E+03  0.00000000000E+00 0. -1.
         -2    1    6    6    0  503  0.79409443137E+02 -0.47643496958E+02 -0.58802559926E+02  0.10969732684E+03  0.00000000000E+00 0.  1.
<mgrwt>
<rscale>  0 0.29754675E+04</rscale>
<asrwt>0</asrwt>
<pdfrwt beam="1">  1        2 0.53396706E+00 0.29754675E+04</pdfrwt>
<pdfrwt beam="2">  1       -2 0.98109092E-01 0.29754675E+04</pdfrwt>
<totfact> 0.63108997E-01</totfact>
</mgrwt>
</event>
<event>
12    3  0.4634846E-008  0.1737833E+04  0.7818608E-02  0.8740076E-01
          2   -1    0    0  501    0  0.00000000000E+00  0.00000000000E+00  0.15640075014E+04  0.15640075014E+04  0.00000000000E+00 0.  1.
         -2   -1    0    0    0  501 -0.00000000000E+00 -0.00000000000E+00 -0.48274450869E+03  0.48274450869E+03  0.00000000000E+00 0. -1.
         23    2    1    2    0    0  0.26431134617E+03 -0.54956951729E+03  0.23600527519E+03  0.66339234894E+03  0.11182028736E+03 0.  0.
        254    2    1    2    0    0 -0.26431134617E+03  0.54956951729E+03  0.84525771755E+03  0.13833596612E+04  0.90958023343E+03 0.  0.
         23    2    4    4    0    0 -0.13911494784E+03  0.76225296864E+03  0.42942082790E+03  0.89062359255E+03  0.91790954045E+02 0.  0.
         23    2    4    4    0    0 -0.12519639834E+03 -0.21268345136E+03  0.41583688965E+03  0.49273606863E+03  0.94657941546E+02 0.  0.
          3    1    3    3  502    0  0.18330915062E+03 -0.47245840354E+03  0.17593687057E+03  0.53644475037E+03  0.00000000000E+00 0. -1.
         -3    1    3    3    0  502  0.81002195557E+02 -0.77111113746E+02  0.60068404619E+02  0.12694759857E+03  0.00000000000E+00 0.  1.
         13    1    5    5    0    0 -0.18391671156E+02  0.18561179264E+02  0.21610292112E+02  0.33908342171E+02  0.00000000000E+00 0. -1.
        -13    1    5    5    0    0 -0.12072327668E+03  0.74369178938E+03  0.40781053579E+03  0.85671525037E+03  0.00000000000E+00 0.  1.
          1    1    6    6  503    0 -0.56582142446E+02 -0.17306960894E+03  0.25372813490E+03  0.31230208904E+03  0.00000000000E+00 0. -1.
         -1    1    6    6    0  503 -0.68614255891E+02 -0.39613842420E+02  0.16210875475E+03  0.18043397959E+03  0.00000000000E+00 0.  1.
<mgrwt>
<rscale>  0 0.17378332E+04</rscale>
<asrwt>0</asrwt>
<pdfrwt beam="1">  1        2 0.24061654E+00 0.17378332E+04</pdfrwt>
<pdfrwt beam="2">  1       -2 0.74268387E-01 0.17378332E+04</pdfrwt>
<totfact> 0.18085884E+01</totfact>
</mgrwt>
</event>
<event>
12    3  0.4634846E-008  0.1919366E+04  0.7818608E-02  0.8645276E-01
         -2   -1    0    0    0  501 -0.00000000000E+00  0.00000000000E+00  0.22523828362E+03  0.22523828362E+03  0.00000000000E+00 0.  1.
          2   -1    0    0  501    0  0.00000000000E+00 -0.00000000000E+00 -0.40889665265E+04  0.40889665265E+04  0.00000000000E+00 0. -1.
         23    2    1    2    0    0 -0.26226341295E+03  0.69084182845E+03 -0.12219228397E+04  0.14307972931E+04  0.89671277067E+02 0.  0.
        254    2    1    2    0    0  0.26226341295E+03 -0.69084182845E+03 -0.26418054031E+04  0.28834075170E+04  0.88817711718E+03 0.  0.
         23    2    4    4    0    0  0.54745089331E+03 -0.35117460040E+03 -0.19379674242E+04  0.20465922908E+04  0.98975687808E+02 0.  0.
         23    2    4    4    0    0 -0.28518748036E+03 -0.33966722805E+03 -0.70383797887E+03  0.83681522620E+03  0.90366462465E+02 0.  0.
          3    1    3    3  502    0 -0.12305595014E+03  0.24310643444E+03 -0.38836377135E+03  0.47441534991E+03  0.00000000000E+00 0.  1.
         -3    1    3    3    0  502 -0.13920746281E+03  0.44773539401E+03 -0.83355906840E+03  0.95638194319E+03  0.00000000000E+00 0. -1.
         13    1    5    5    0    0  0.15211017406E+01  0.55332639987E+01 -0.15514652255E+02  0.16541922367E+02  0.00000000000E+00 0. -1.
        -13    1    5    5    0    0  0.54592979157E+03 -0.35670786440E+03 -0.19224527720E+04  0.20300503684E+04  0.00000000000E+00 0.  1.
          2    1    6    6  503    0 -0.89549773375E+02 -0.10739579893E+03 -0.30495199389E+03  0.33548284325E+03  0.00000000000E+00 0. -1.
         -2    1    6    6    0  503 -0.19563770699E+03 -0.23227142912E+03 -0.39888598498E+03  0.50133238295E+03  0.00000000000E+00 0.  1.
<mgrwt>
<rscale>  0 0.19193664E+04</rscale>
<asrwt>0</asrwt>
<pdfrwt beam="1">  1        2 0.62907173E+00 0.19193664E+04</pdfrwt>
<pdfrwt beam="2">  1       -2 0.34652046E-01 0.19193664E+04</pdfrwt>
<totfact> 0.21388811E+00</totfact>
</mgrwt>
</event>
<event>
12    3  0.4634846E-008  0.1187191E+04  0.7818608E-02  0.9124143E-01
         -1   -1    0    0    0  501 -0.00000000000E+00  0.00000000000E+00  0.13033388725E+03  0.13033388725E+03  0.00000000000E+00 0.  1.
          1   -1    0    0  501    0  0.00000000000E+00 -0.00000000000E+00 -0.27034829974E+04  0.27034829974E+04  0.00000000000E+00 0. -1.
         23    2    1    2    0    0 -0.66101429429E+02 -0.21101068240E+03 -0.39427334434E+03  0.46104313599E+03  0.90633305843E+02 0.  0.
        254    2    1    2    0    0  0.66101429429E+02  0.21101068240E+03 -0.21788757658E+04  0.23727737487E+04  0.91305024637E+03 0.  0.
         23    2    4    4    0    0 -0.34682855957E+03  0.29214086945E+03 -0.14936223072E+04  0.15635861981E+04  0.90872796336E+02 0.  0.
         23    2    4    4    0    0  0.41292998900E+03 -0.81130187046E+02 -0.68525345864E+03  0.80918755054E+03  0.90104973831E+02 0.  0.
          2    1    3    3  502    0 -0.68047873321E+02 -0.71321152476E+02 -0.18063319906E+03  0.20578039862E+03  0.00000000000E+00 0. -1.
         -2    1    3    3    0  502  0.19464438927E+01 -0.13968952993E+03 -0.21364014528E+03  0.25526273737E+03  0.00000000000E+00 0.  1.
         13    1    5    5    0    0 -0.34095905228E+03  0.29893797168E+03 -0.14610706083E+04  0.15298183908E+04  0.00000000000E+00 0. -1.
        -13    1    5    5    0    0 -0.58695072920E+01 -0.67971022322E+01 -0.32551698866E+02  0.33767807357E+02  0.00000000000E+00 0.  1.
          3    1    6    6  503    0  0.22122164315E+03  0.36875138915E+00 -0.32780660323E+03  0.39546974663E+03  0.00000000000E+00 0. -1.
         -3    1    6    6    0  503  0.19170834585E+03 -0.81498938435E+02 -0.35744685541E+03  0.41371780391E+03  0.00000000000E+00 0.  1.
<mgrwt>
<rscale>  0 0.11871907E+04</rscale>
<asrwt>0</asrwt>
<pdfrwt beam="1">  1        1 0.41592046E+00 0.11871907E+04</pdfrwt>
<pdfrwt beam="2">  1       -1 0.20051367E-01 0.11871907E+04</pdfrwt>
<totfact> 0.19870090E+01</totfact>
</mgrwt>
</event>
<event>
12    3  0.4634846E-008  0.1720986E+04  0.7818608E-02  0.8749485E-01
         -1   -1    0    0    0  501 -0.00000000000E+00  0.00000000000E+00  0.35480660708E+03  0.35480660708E+03  0.00000000000E+00 0.  1.
          1   -1    0    0  501    0  0.00000000000E+00 -0.00000000000E+00 -0.20869067656E+04  0.20869067656E+04  0.00000000000E+00 0. -1.
         23    2    1    2    0    0 -0.22396270328E+03 -0.44214145814E+03 -0.10176101693E+03  0.51359647273E+03  0.88191103705E+02 0.  0.
        254    2    1    2    0    0  0.22396270328E+03  0.44214145814E+03 -0.16303391416E+04  0.19281169000E+04  0.90220879062E+03 0.  0.
         23    2    4    4    0    0 -0.31215718495E+03  0.13294613990E+03 -0.31660914266E+03  0.47310536637E+03  0.92035613979E+02 0.  0.
         23    2    4    4    0    0  0.53611988824E+03  0.30919531823E+03 -0.13137299990E+04  0.14550115336E+04  0.90253938538E+02 0.  0.
          3    1    3    3  502    0 -0.27159358847E+02 -0.11609978083E+03 -0.49870118484E+02  0.12924325359E+03  0.00000000000E+00 0. -1.
         -3    1    3    3    0  502 -0.19680334444E+03 -0.32604167731E+03 -0.51890898451E+02  0.38435321914E+03  0.00000000000E+00 0.  1.
         13    1    5    5    0    0 -0.45536862342E+02  0.57748907392E+02 -0.52500739302E+02  0.90359668902E+02  0.00000000000E+00 0. -1.
        -13    1    5    5    0    0 -0.26662032261E+03  0.75197232512E+02 -0.26410840336E+03  0.38274569747E+03  0.00000000000E+00 0.  1.
          1    1    6    6  503    0  0.47710563262E+02  0.60614624056E+02 -0.17657330988E+03  0.19268773770E+03  0.00000000000E+00 0. -1.
         -1    1    6    6    0  503  0.48840932497E+03  0.24858069418E+03 -0.11371566891E+04  0.12623237959E+04  0.00000000000E+00 0.  1.
<mgrwt>
<rscale>  0 0.17209861E+04</rscale>
<asrwt>0</asrwt>
<pdfrwt beam="1">  1        1 0.32106257E+00 0.17209861E+04</pdfrwt>
<pdfrwt beam="2">  1       -1 0.54585633E-01 0.17209861E+04</pdfrwt>
<totfact> 0.83811097E+00</totfact>
</mgrwt>
</event>
<event>
12    3  0.4634846E-008  0.1799678E+04  0.7818608E-02  0.8706471E-01
         -2   -1    0    0    0  501 -0.00000000000E+00  0.00000000000E+00  0.14358829949E+04  0.14358829949E+04  0.00000000000E+00 0.  1.
          2   -1    0    0  501    0  0.00000000000E+00 -0.00000000000E+00 -0.56391102600E+03  0.56391102600E+03  0.00000000000E+00 0. -1.
         23    2    1    2    0    0  0.47703514186E+02 -0.67103678718E+03  0.35847598709E+03  0.76567583496E+03  0.72030937197E+02 0.  0.
        254    2    1    2    0    0 -0.47703514186E+02  0.67103678718E+03  0.51349598185E+03  0.12341181860E+04  0.89822245494E+03 0.  0.
         23    2    4    4    0    0  0.26139494165E+03  0.25103204186E+03 -0.13514913255E+03  0.39719362752E+03  0.90294452530E+02 0.  0.
         23    2    4    4    0    0 -0.30909845583E+03  0.42000474532E+03  0.64864511439E+03  0.83692455845E+03  0.88070373070E+02 0.  0.
          1    1    3    3  502    0 -0.10364436244E+02 -0.16631772053E+02  0.10726254253E+02  0.22340320289E+02  0.00000000000E+00 0. -1.
         -1    1    3    3    0  502  0.58067950430E+02 -0.65440501513E+03  0.34774973284E+03  0.74333551468E+03  0.00000000000E+00 0.  1.
         13    1    5    5    0    0  0.24067243720E+03  0.18814828571E+03 -0.12559143514E+03  0.33029715110E+03  0.00000000000E+00 0.  1.
        -13    1    5    5    0    0  0.20722504446E+02  0.62883756154E+02 -0.95576974096E+01  0.66896476427E+02  0.00000000000E+00 0. -1.
          1    1    6    6  503    0 -0.53888009620E+02  0.86923691183E+02  0.18650619016E+03  0.21270685142E+03  0.00000000000E+00 0. -1.
         -1    1    6    6    0  503 -0.25521044621E+03  0.33308105414E+03  0.46213892423E+03  0.62421770703E+03  0.00000000000E+00 0.  1.
<mgrwt>
<rscale>  0 0.17996780E+04</rscale>
<asrwt>0</asrwt>
<pdfrwt beam="1">  1        2 0.86755543E-01 0.17996780E+04</pdfrwt>
<pdfrwt beam="2">  1       -2 0.22090507E+00 0.17996780E+04</pdfrwt>
<totfact> 0.49176598E+00</totfact>
</mgrwt>
</event>
<event>
12    3  0.4634846E-008  0.1117460E+04  0.7818608E-02  0.9188339E-01
         -1   -1    0    0    0  501 -0.00000000000E+00  0.00000000000E+00  0.20642700827E+04  0.20642700827E+04  0.00000000000E+00 0.  1.
          1   -1    0    0  501    0  0.00000000000E+00 -0.00000000000E+00 -0.15122993844E+03  0.15122993844E+03  0.00000000000E+00 0. -1.
         23    2    1    2    0    0  0.15226372091E+03 -0.47551907663E+02  0.17086906667E+03  0.25034578979E+03  0.89617810135E+02 0.  0.
        254    2    1    2    0    0 -0.15226372091E+03  0.47551907663E+02  0.17421710776E+04  0.19651542313E+04  0.89511209620E+03 0.  0.
         23    2    4    4    0    0  0.32781146879E+03 -0.16055288138E+03  0.78076051472E+03  0.86665268640E+03  0.90897253582E+02 0.  0.
         23    2    4    4    0    0 -0.48007518970E+03  0.20810478905E+03  0.96141056286E+03  0.10985015449E+04  0.92820164113E+02 0.  0.
          1    1    3    3  502    0  0.12068290947E+03 -0.33445768172E+02  0.69469947393E+02  0.14320983778E+03  0.00000000000E+00 0. -1.
         -1    1    3    3    0  502  0.31580811442E+02 -0.14106139491E+02  0.10139911928E+03  0.10713595201E+03  0.00000000000E+00 0.  1.
         13    1    5    5    0    0  0.14283001913E+03 -0.31179444541E+02  0.24537138554E+03  0.28562158352E+03  0.00000000000E+00 0.  1.
        -13    1    5    5    0    0  0.18498144966E+03 -0.12937343684E+03  0.53538912917E+03  0.58103110288E+03  0.00000000000E+00 0. -1.
          1    1    6    6  503    0 -0.47798809710E+03  0.20590153462E+03  0.92022925560E+03  0.10572085630E+04  0.00000000000E+00 0. -1.
         -1    1    6    6    0  503 -0.20870926031E+01  0.22032544273E+01  0.41181307264E+02  0.41292981893E+02  0.00000000000E+00 0.  1.
<mgrwt>
<rscale>  0 0.11174604E+04</rscale>
<asrwt>0</asrwt>
<pdfrwt beam="1">  1        1 0.23266146E-01 0.11174604E+04</pdfrwt>
<pdfrwt beam="2">  1       -1 0.31757999E+00 0.11174604E+04</pdfrwt>
<totfact> 0.54826600E+00</totfact>
</mgrwt>
</event>
<event>
12    3  0.4634846E-008  0.2476094E+04  0.7818608E-02  0.8411552E-01
         -1   -1    0    0    0  501 -0.00000000000E+00  0.00000000000E+00  0.67869220848E+03  0.67869220848E+03  0.00000000000E+00 0.  1.
          1   -1    0    0  501    0  0.00000000000E+00 -0.00000000000E+00 -0.22584028265E+04  0.22584028265E+04  0.00000000000E+00 0. -1.
         23    2    1    2    0    0 -0.91162109704E+03  0.33949433617E+03 -0.14983270941E+03  0.98832616962E+03  0.89606628601E+02 0.  0.
        254    2    1    2    0    0  0.91162109704E+03 -0.33949433617E+03 -0.14298779086E+04  0.19487688653E+04  0.89824263323E+03 0.  0.
         23    2    4    4    0    0  0.88677773747E+03 -0.45834332113E+03 -0.74917973714E+03  0.12514572850E+04  0.91769830689E+02 0.  0.
         23    2    4    4    0    0  0.24843359566E+02  0.11884898496E+03 -0.68069817143E+03  0.69731158036E+03  0.90283806846E+02 0.  0.
          2    1    3    3  502    0 -0.48019929531E+02  0.38651060143E+02 -0.70932454222E-01  0.61642705276E+02  0.00000000000E+00 0. -1.
         -2    1    3    3    0  502 -0.86360116751E+03  0.30084327602E+03 -0.14976177696E+03  0.92668346435E+03  0.00000000000E+00 0.  1.
         13    1    5    5    0    0  0.63363927947E+03 -0.28529429335E+03 -0.54392786769E+03  0.88246761728E+03  0.00000000000E+00 0. -1.
        -13    1    5    5    0    0  0.25313845801E+03 -0.17304902778E+03 -0.20525186945E+03  0.36898966767E+03  0.00000000000E+00 0.  1.
          3    1    6    6  503    0 -0.17819519646E+02  0.51857547510E+02 -0.44991807756E+03  0.45324719197E+03  0.00000000000E+00 0. -1.
         -3    1    6    6    0  503  0.42662879212E+02  0.66991437448E+02 -0.23078009387E+03  0.24406438839E+03  0.00000000000E+00 0.  1.
<mgrwt>
<rscale>  0 0.24760940E+04</rscale>
<asrwt>0</asrwt>
<pdfrwt beam="1">  1        1 0.34744659E+00 0.24760940E+04</pdfrwt>
<pdfrwt beam="2">  1       -1 0.10441418E+00 0.24760940E+04</pdfrwt>
<totfact> 0.15255608E+00</totfact>
</mgrwt>
</event>
<event>
12    3  0.4634846E-008  0.1539431E+04  0.7818608E-02  0.8858647E-01
         -1   -1    0    0    0  501 -0.00000000000E+00  0.00000000000E+00  0.16421792501E+03  0.16421792501E+03  0.00000000000E+00 0.  1.
          1   -1    0    0  501    0  0.00000000000E+00 -0.00000000000E+00 -0.36077807001E+04  0.36077807001E+04  0.00000000000E+00 0. -1.
         23    2    1    2    0    0  0.25258278037E+03  0.15738501355E+03 -0.21147220927E+04  0.21374848331E+04  0.90685053151E+02 0.  0.
        254    2    1    2    0    0 -0.25258278037E+03 -0.15738501355E+03 -0.13288406824E+04  0.16345137920E+04  0.90401862466E+03 0.  0.
         23    2    4    4    0    0 -0.42886706125E+03  0.13073505933E+02 -0.21037322935E+03  0.48577701813E+03  0.87318628786E+02 0.  0.
         23    2    4    4    0    0  0.17628428088E+03 -0.17045851948E+03 -0.11184674530E+04  0.11487367739E+04  0.92165490536E+02 0.  0.
          4    1    3    3  502    0  0.14520494122E+03  0.10910708439E+03 -0.15511046671E+04  0.15617024426E+04  0.00000000000E+00 0. -1.
         -4    1    3    3    0  502  0.10737783915E+03  0.48277929156E+02 -0.56361742554E+03  0.57578239046E+03  0.00000000000E+00 0.  1.
         13    1    5    5    0    0 -0.38612753881E+03 -0.15121834885E+02 -0.19079886111E+03  0.43096096287E+03  0.00000000000E+00 0.  1.
        -13    1    5    5    0    0 -0.42739522449E+02  0.28195340818E+02 -0.19574368242E+02  0.54816055267E+02  0.00000000000E+00 0. -1.
          4    1    6    6  503    0  0.18745490453E+03 -0.16191730353E+03 -0.10678283940E+04  0.10961815695E+04  0.00000000000E+00 0.  1.
         -4    1    6    6    0  503 -0.11170623642E+02 -0.85412159557E+01 -0.50639059091E+02  0.52555204387E+02  0.00000000000E+00 0. -1.
<mgrwt>
<rscale>  0 0.15394314E+04</rscale>
<asrwt>0</asrwt>
<pdfrwt beam="1">  1        1 0.55504323E+00 0.15394314E+04</pdfrwt>
<pdfrwt beam="2">  1       -1 0.25264294E-01 0.15394314E+04</pdfrwt>
<totfact> 0.27532420E+00</totfact>
</mgrwt>
</event>
<event>
12    3  0.4634846E-008  0.1999486E+04  0.7818608E-02  0.8606861E-01
         -2   -1    0    0    0  501 -0.00000000000E+00  0.00000000000E+00  0.10948876835E+04  0.10948876835E+04  0.00000000000E+00 0. -1.
          2   -1    0    0  501    0  0.00000000000E+00 -0.00000000000E+00 -0.91286654121E+03  0.91286654121E+03  0.00000000000E+00 0.  1.
         23    2    1    2    0    0  0.38475540074E+03  0.40499792699E+02 -0.62403236158E+03  0.73994896502E+03  0.91821189936E+02 0.  0.
        254    2    1    2    0    0 -0.38475540074E+03 -0.40499792699E+02  0.80605350384E+03  0.12678052597E+04  0.89884980600E+03 0.  0.
         23    2    4    4    0    0 -0.21464215824E+03 -0.33316970527E+03  0.82432042000E+03  0.91899834700E+03  0.89333635062E+02 0.  0.
         23    2    4    4    0    0 -0.17011324250E+03  0.29266991258E+03 -0.18266916159E+02  0.34880691265E+03  0.82087691444E+02 0.  0.
          1    1    3    3  502    0  0.26826451034E+03  0.60238239584E+02 -0.38246074272E+03  0.47103154113E+03  0.00000000000E+00 0. -1.
         -1    1    3    3    0  502  0.11649089041E+03 -0.19738446885E+02 -0.24157161886E+03  0.26891742389E+03  0.00000000000E+00 0.  1.
         13    1    5    5    0    0 -0.98925803587E+00 -0.90310886317E+01  0.15212023875E+01  0.92115823852E+01  0.00000000000E+00 0. -1.
        -13    1    5    5    0    0 -0.21365290021E+03 -0.32413861664E+03  0.82279921761E+03  0.90978676462E+03  0.00000000000E+00 0.  1.
          2    1    6    6  503    0 -0.39811298692E+02  0.11107079959E+03  0.26326730918E+02  0.12089151660E+03  0.00000000000E+00 0. -1.
         -2    1    6    6    0  503 -0.13030194381E+03  0.18159911298E+03 -0.44593647077E+02  0.22791539605E+03  0.00000000000E+00 0.  1.
<mgrwt>
<rscale>  0 0.19994863E+04</rscale>
<asrwt>0</asrwt>
<pdfrwt beam="1">  1        2 0.14044101E+00 0.19994863E+04</pdfrwt>
<pdfrwt beam="2">  1       -2 0.16844426E+00 0.19994863E+04</pdfrwt>
<totfact> 0.58369989E+00</totfact>
</mgrwt>
</event>
<event>
12    3  0.4634846E-008  0.1876192E+04  0.7818608E-02  0.8666799E-01
         -1   -1    0    0    0  501 -0.00000000000E+00  0.00000000000E+00  0.88513698421E+03  0.88513698421E+03  0.00000000000E+00 0.  1.
          1   -1    0    0  501    0  0.00000000000E+00 -0.00000000000E+00 -0.99422391619E+03  0.99422391619E+03  0.00000000000E+00 0. -1.
         23    2    1    2    0    0  0.14876806683E+03  0.11763525831E+03 -0.73211030074E+03  0.76170768934E+03  0.90791628728E+02 0.  0.
        254    2    1    2    0    0 -0.14876806683E+03 -0.11763525831E+03  0.62302336876E+03  0.11176532111E+04  0.90830644084E+03 0.  0.
         23    2    4    4    0    0 -0.46848025235E+03 -0.23203118023E+03  0.19605168657E+03  0.56513136871E+03  0.87321158098E+02 0.  0.
         23    2    4    4    0    0  0.31971218552E+03  0.11439592192E+03  0.42697168219E+03  0.55252184236E+03  0.87597148156E+02 0.  0.
          1    1    3    3  502    0  0.14751211573E+03  0.13061514009E+03 -0.67800514967E+03  0.70605320061E+03  0.00000000000E+00 0. -1.
         -1    1    3    3    0  502  0.12559511019E+01 -0.12979881779E+02 -0.54105151067E+02  0.55654488733E+02  0.00000000000E+00 0.  1.
         13    1    5    5    0    0 -0.25455277265E+03 -0.83772860075E+02  0.12253091591E+03  0.29466732344E+03  0.00000000000E+00 0. -1.
        -13    1    5    5    0    0 -0.21392747970E+03 -0.14825832015E+03  0.73520770664E+02  0.27046404527E+03  0.00000000000E+00 0.  1.
          1    1    6    6  503    0  0.16472224572E+03  0.13978552793E+02  0.18445624806E+03  0.24769522729E+03  0.00000000000E+00 0. -1.
         -1    1    6    6    0  503  0.15498993980E+03  0.10041736913E+03  0.24251543413E+03  0.30482661507E+03  0.00000000000E+00 0.  1.
<mgrwt>
<rscale>  0 0.18761923E+04</rscale>
<asrwt>0</asrwt>
<pdfrwt beam="1">  1        1 0.15295753E+00 0.18761923E+04</pdfrwt>
<pdfrwt beam="2">  1       -1 0.13617492E+00 0.18761923E+04</pdfrwt>
<totfact> 0.64581797E+00</totfact>
</mgrwt>
</event>
<event>
12    3  0.4634846E-008  0.1618936E+04  0.7818608E-02  0.8808998E-01
         -2   -1    0    0    0  501 -0.00000000000E+00  0.00000000000E+00  0.28034754955E+03  0.28034754955E+03  0.00000000000E+00 0.  1.
          2   -1    0    0  501    0  0.00000000000E+00 -0.00000000000E+00 -0.23372369365E+04  0.23372369365E+04  0.00000000000E+00 0. -1.
         23    2    1    2    0    0 -0.25837684643E+03  0.45825374497E+03 -0.44930203772E+03  0.69735283883E+03  0.87598922223E+02 0.  0.
        254    2    1    2    0    0  0.25837684643E+03 -0.45825374497E+03 -0.16075873492E+04  0.19202316472E+04  0.90895401646E+03 0.  0.
         23    2    4    4    0    0  0.19876510214E+02 -0.66870379953E+03 -0.79569437116E+03  0.10436335685E+04  0.92095851347E+02 0.  0.
         23    2    4    4    0    0  0.23850033621E+03  0.21045005456E+03 -0.81189297802E+03  0.87659807869E+03  0.89901879576E+02 0.  0.
          1    1    3    3  502    0 -0.24102890515E+03  0.45285424539E+03 -0.44390931879E+03  0.67840060730E+03  0.00000000000E+00 0. -1.
         -1    1    3    3    0  502 -0.17347941281E+02  0.53994995807E+01 -0.53927189397E+01  0.18952231530E+02  0.00000000000E+00 0.  1.
         13    1    5    5    0    0 -0.10181572628E+01 -0.62864725990E+03 -0.72344040950E+03  0.95841767519E+03  0.00000000000E+00 0. -1.
        -13    1    5    5    0    0  0.20894667477E+02 -0.40056539629E+02 -0.72253961665E+02  0.85215893308E+02  0.00000000000E+00 0.  1.
          4    1    6    6  503    0  0.14650076159E+03  0.17450172568E+03 -0.50064784602E+03  0.55005598909E+03  0.00000000000E+00 0. -1.
         -4    1    6    6    0  503  0.91999574627E+02  0.35948328887E+02 -0.31124513201E+03  0.32654208960E+03  0.00000000000E+00 0.  1.
<mgrwt>
<rscale>  0 0.16189363E+04</rscale>
<asrwt>0</asrwt>
<pdfrwt beam="1">  1        2 0.35957490E+00 0.16189363E+04</pdfrwt>
<pdfrwt beam="2">  1       -2 0.43130394E-01 0.16189363E+04</pdfrwt>
<totfact> 0.21099551E+01</totfact>
</mgrwt>
</event>
<event>
12    3  0.4634846E-008  0.1311787E+04  0.7818608E-02  0.9020270E-01
         -2   -1    0    0    0  501 -0.00000000000E+00  0.00000000000E+00  0.37189332840E+03  0.37189332840E+03  0.00000000000E+00 0.  1.
          2   -1    0    0  501    0  0.00000000000E+00 -0.00000000000E+00 -0.11567739001E+04  0.11567739001E+04  0.00000000000E+00 0. -1.
         23    2    1    2    0    0 -0.22772049767E+03 -0.15472707884E+03 -0.43755060391E+03  0.52473479408E+03  0.89994328416E+02 0.  0.
        254    2    1    2    0    0  0.22772049767E+03  0.15472707884E+03 -0.34732996781E+03  0.10039324344E+04  0.90080249355E+03 0.  0.
         23    2    4    4    0    0  0.22343865351E+03  0.45417771950E+03 -0.44038025023E+03  0.67713750821E+03  0.91532548671E+02 0.  0.
         23    2    4    4    0    0  0.42818441627E+01 -0.29945064066E+03  0.93050282418E+02  0.32679492622E+03  0.91910545446E+02 0.  0.
          4    1    3    3  502    0 -0.19570141369E+03 -0.11755358145E+03 -0.40781213866E+03  0.46736348625E+03  0.00000000000E+00 0. -1.
         -4    1    3    3    0  502 -0.32019083979E+02 -0.37173497392E+02 -0.29738465243E+02  0.57371307830E+02  0.00000000000E+00 0.  1.
         13    1    5    5    0    0  0.13661256263E+02  0.96789116361E+02 -0.60468881465E+02  0.11494019573E+03  0.00000000000E+00 0. -1.
        -13    1    5    5    0    0  0.20977739725E+03  0.35738860314E+03 -0.37991136876E+03  0.56219731248E+03  0.00000000000E+00 0.  1.
          3    1    6    6  503    0  0.31932259461E+02 -0.76225133372E+02 -0.18479917259E+01  0.82664110866E+02  0.00000000000E+00 0. -1.
         -3    1    6    6    0  503 -0.27650415298E+02 -0.22322550729E+03  0.94898274144E+02  0.24413081535E+03  0.00000000000E+00 0.  1.
<mgrwt>
<rscale>  0 0.13117873E+04</rscale>
<asrwt>0</asrwt>
<pdfrwt beam="1">  1        2 0.17796521E+00 0.13117873E+04</pdfrwt>
<pdfrwt beam="2">  1       -2 0.57214359E-01 0.13117873E+04</pdfrwt>
<totfact> 0.56384715E+01</totfact>
</mgrwt>
</event>
<event>
12    3  0.4634846E-008  0.1153379E+04  0.7818608E-02  0.9154672E-01
          2   -1    0    0  501    0  0.00000000000E+00  0.00000000000E+00  0.82401394381E+03  0.82401394381E+03  0.00000000000E+00 0.  1.
         -2   -1    0    0    0  501 -0.00000000000E+00 -0.00000000000E+00 -0.40359874529E+03  0.40359874529E+03  0.00000000000E+00 0. -1.
         23    2    1    2    0    0  0.14153182220E+03 -0.11514815770E+03 -0.20246955366E+02  0.20507717517E+03  0.91413093474E+02 0.  0.
        254    2    1    2    0    0 -0.14153182220E+03  0.11514815770E+03  0.44066215389E+03  0.10225355139E+04  0.90449178463E+03 0.  0.
         23    2    4    4    0    0 -0.28285617568E+03 -0.89432056596E+02 -0.17186734072E+03  0.35526377631E+03  0.93103485902E+02 0.  0.
         23    2    4    4    0    0  0.14132435348E+03  0.20458021429E+03  0.61252949461E+03  0.66727173762E+03  0.90738928173E+02 0.  0.
          1    1    3    3  502    0  0.13207523887E+03 -0.11668433159E+03 -0.42118809740E+02  0.18119905104E+03  0.00000000000E+00 0. -1.
         -1    1    3    3    0  502  0.94565833272E+01  0.15361738951E+01  0.21871854374E+02  0.23878124136E+02  0.00000000000E+00 0.  1.
         13    1    5    5    0    0 -0.28472587541E+03 -0.80296364451E+02 -0.17687890238E+03  0.34467735113E+03  0.00000000000E+00 0. -1.
        -13    1    5    5    0    0  0.18696997289E+01 -0.91356921453E+01  0.50115616577E+01  0.10586425190E+02  0.00000000000E+00 0.  1.
          4    1    6    6  503    0  0.94100011553E+02  0.11754589434E+03  0.47144285884E+03  0.49490425196E+03  0.00000000000E+00 0. -1.
         -4    1    6    6    0  503  0.47224341927E+02  0.87034319954E+02  0.14108663577E+03  0.17236748566E+03  0.00000000000E+00 0.  1.
<mgrwt>
<rscale>  0 0.11533794E+04</rscale>
<asrwt>0</asrwt>
<pdfrwt beam="1">  1        2 0.12677138E+00 0.11533794E+04</pdfrwt>
<pdfrwt beam="2">  1       -2 0.62092115E-01 0.11533794E+04</pdfrwt>
<totfact> 0.78924583E+01</totfact>
</mgrwt>
</event>
<event>
12    3  0.4634846E-008  0.1267188E+04  0.7818608E-02  0.9055998E-01
          2   -1    0    0  501    0  0.00000000000E+00  0.00000000000E+00  0.97993607487E+03  0.97993607487E+03  0.00000000000E+00 0.  1.
         -2   -1    0    0    0  501 -0.00000000000E+00 -0.00000000000E+00 -0.40966088474E+03  0.40966088474E+03  0.00000000000E+00 0. -1.
         23    2    1    2    0    0  0.25004967476E+03  0.97189070767E+02 -0.11667745426E+02  0.28377601136E+03  0.91772179982E+02 0.  0.
        254    2    1    2    0    0 -0.25004967476E+03 -0.97189070767E+02  0.58194293556E+03  0.11058209483E+04  0.90122795897E+03 0.  0.
         23    2    4    4    0    0  0.15236518014E+03  0.77635099155E+02  0.62551836692E+03  0.65570695704E+03  0.97139226959E+02 0.  0.
         23    2    4    4    0    0 -0.40241485490E+03 -0.17482416992E+03 -0.43575431367E+02  0.45011399121E+03  0.90568101646E+02 0.  0.
          2    1    3    3  502    0  0.19461627282E+03  0.96072904175E+02  0.23207011944E+02  0.21827519778E+03  0.00000000000E+00 0. -1.
         -2    1    3    3    0  502  0.55433401936E+02  0.11161665923E+01 -0.34874757370E+02  0.65500813581E+02  0.00000000000E+00 0.  1.
         13    1    5    5    0    0  0.15834284248E+03  0.90569949840E+02  0.57916954870E+03  0.60721720802E+03  0.00000000000E+00 0.  1.
        -13    1    5    5    0    0 -0.59776623353E+01 -0.12934850685E+02  0.46348818223E+02  0.48489749019E+02  0.00000000000E+00 0. -1.
          2    1    6    6  503    0 -0.15011051815E+03 -0.45517495395E+02  0.23939835847E+02  0.15867616641E+03  0.00000000000E+00 0. -1.
         -2    1    6    6    0  503 -0.25230433675E+03 -0.12930667453E+03 -0.67515267214E+02  0.29143782481E+03  0.00000000000E+00 0.  1.
<mgrwt>
<rscale>  0 0.12671882E+04</rscale>
<asrwt>0</asrwt>
<pdfrwt beam="1">  1        2 0.15075940E+00 0.12671882E+04</pdfrwt>
<pdfrwt beam="2">  1       -2 0.63024752E-01 0.12671882E+04</pdfrwt>
<totfact> 0.59479737E+01</totfact>
</mgrwt>
</event>
<event>
12    3  0.4634846E-008  0.1526298E+04  0.7818608E-02  0.8867151E-01
          1   -1    0    0  501    0  0.00000000000E+00  0.00000000000E+00  0.10355620780E+04  0.10355620780E+04  0.00000000000E+00 0. -1.
         -1   -1    0    0    0  501 -0.00000000000E+00 -0.00000000000E+00 -0.56239655323E+03  0.56239655323E+03  0.00000000000E+00 0.  1.
         23    2    1    2    0    0 -0.84185255537E+02 -0.41669127428E+03 -0.10172853872E+03  0.44711151345E+03  0.94027839300E+02 0.  0.
        254    2    1    2    0    0  0.84185255537E+02  0.41669127428E+03  0.57489406350E+03  0.11508471178E+04  0.90179106726E+03 0.  0.
         23    2    4    4    0    0 -0.74768936808E+02  0.51314772550E+03 -0.13551585254E+02  0.52709048071E+03  0.93433116701E+02 0.  0.
         23    2    4    4    0    0  0.15895419235E+03 -0.96456451220E+02  0.58844564876E+03  0.62375663710E+03  0.90740170451E+02 0.  0.
          2    1    3    3  502    0 -0.11086640524E+02  0.95605653624E+00 -0.51161923625E+01  0.12247573903E+02  0.00000000000E+00 0. -1.
         -2    1    3    3    0  502 -0.73098615013E+02 -0.41764733081E+03 -0.96612346354E+02  0.43486393955E+03  0.00000000000E+00 0.  1.
         13    1    5    5    0    0 -0.59690785181E+02  0.30357790173E+03 -0.51300520989E+02  0.31361485250E+03  0.00000000000E+00 0.  1.
        -13    1    5    5    0    0 -0.15078151627E+02  0.20956982376E+03  0.37748935736E+02  0.21347562821E+03  0.00000000000E+00 0. -1.
          1    1    6    6  503    0  0.22599733525E+02 -0.56182168940E+02  0.23763557914E+03  0.24523020314E+03  0.00000000000E+00 0. -1.
         -1    1    6    6    0  503  0.13635445882E+03 -0.40274282279E+02  0.35081006962E+03  0.37852643395E+03  0.00000000000E+00 0.  1.
<mgrwt>
<rscale>  0 0.15262982E+04</rscale>
<asrwt>0</asrwt>
<pdfrwt beam="1">  1        1 0.15931724E+00 0.15262982E+04</pdfrwt>
<pdfrwt beam="2">  1       -1 0.86522547E-01 0.15262982E+04</pdfrwt>
<totfact> 0.18055882E+01</totfact>
</mgrwt>
</event>
<event>
12    3  0.4634846E-008  0.1158180E+04  0.7818608E-02  0.9150270E-01
         -2   -1    0    0    0  501 -0.00000000000E+00  0.00000000000E+00  0.11363347316E+03  0.11363347316E+03  0.00000000000E+00 0.  1.
          2   -1    0    0  501    0  0.00000000000E+00 -0.00000000000E+00 -0.29511126873E+04  0.29511126873E+04  0.00000000000E+00 0. -1.
         23    2    1    2    0    0  0.20533681098E+03 -0.12349193490E+02 -0.45035909749E+03  0.50402816303E+03  0.94368235729E+02 0.  0.
        254    2    1    2    0    0 -0.20533681098E+03  0.12349193490E+02 -0.23871201166E+04  0.25607179974E+04  0.90366946527E+03 0.  0.
         23    2    4    4    0    0 -0.40925336418E+03  0.32583790218E+03 -0.15706418125E+04  0.16579927639E+04  0.91463913546E+02 0.  0.
         23    2    4    4    0    0  0.20391655320E+03 -0.31348870869E+03 -0.81647830416E+03  0.90272523349E+03  0.91754536030E+02 0.  0.
          2    1    3    3  502    0  0.15916199084E+03 -0.10448646112E+02 -0.41858385227E+03  0.44794436587E+03  0.00000000000E+00 0. -1.
         -2    1    3    3    0  502  0.46174820138E+02 -0.19005473774E+01 -0.31775245216E+02  0.56083797158E+02  0.00000000000E+00 0.  1.
         13    1    5    5    0    0  0.36244942932E+01  0.72213661146E+01 -0.12456133143E+02  0.14847233423E+02  0.00000000000E+00 0. -1.
        -13    1    5    5    0    0 -0.41287785848E+03  0.31861653607E+03 -0.15581856793E+04  0.16431455305E+04  0.00000000000E+00 0.  1.
          2    1    6    6  503    0  0.92015828308E+02 -0.11718129139E+03 -0.42947652053E+03  0.45458601980E+03  0.00000000000E+00 0. -1.
         -2    1    6    6    0  503  0.11190072489E+03 -0.19630741731E+03 -0.38700178362E+03  0.44813921369E+03  0.00000000000E+00 0.  1.
<mgrwt>
<rscale>  0 0.11581799E+04</rscale>
<asrwt>0</asrwt>
<pdfrwt beam="1">  1        2 0.45401726E+00 0.11581799E+04</pdfrwt>
<pdfrwt beam="2">  1       -2 0.17482076E-01 0.11581799E+04</pdfrwt>
<totfact> 0.50705868E+01</totfact>
</mgrwt>
</event>
<event>
12    3  0.4634846E-008  0.1269054E+04  0.7818608E-02  0.9054472E-01
         -2   -1    0    0    0  501 -0.00000000000E+00  0.00000000000E+00  0.11317016909E+03  0.11317016909E+03  0.00000000000E+00 0. -1.
          2   -1    0    0  501    0  0.00000000000E+00 -0.00000000000E+00 -0.35576903345E+04  0.35576903345E+04  0.00000000000E+00 0.  1.
         23    2    1    2    0    0  0.12982176811E+03  0.12674327347E+03 -0.15756745003E+04  0.15887007445E+04  0.91117375064E+02 0.  0.
        254    2    1    2    0    0 -0.12982176811E+03 -0.12674327347E+03 -0.18688456652E+04  0.20821597591E+04  0.89993754967E+03 0.  0.
         23    2    4    4    0    0 -0.11067542534E+03 -0.11999695466E+03 -0.19487110256E+04  0.19577397134E+04  0.92853674726E+02 0.  0.
         23    2    4    4    0    0 -0.19146342766E+02 -0.67463188057E+01  0.79865360471E+02  0.12442004573E+03  0.93218971876E+02 0.  0.
          3    1    3    3  502    0  0.21791297691E+02  0.70133219315E+01 -0.54554061789E+03  0.54602070758E+03  0.00000000000E+00 0. -1.
         -3    1    3    3    0  502  0.10803047042E+03  0.11972995153E+03 -0.10301338824E+04  0.10426800369E+04  0.00000000000E+00 0.  1.
         13    1    5    5    0    0 -0.89442237939E+02 -0.47703581648E+02 -0.77321799855E+03  0.77983435350E+03  0.00000000000E+00 0. -1.
        -13    1    5    5    0    0 -0.21233187404E+02 -0.72293373012E+02 -0.11754930271E+04  0.11779053599E+04  0.00000000000E+00 0.  1.
          1    1    6    6  503    0  0.37666640153E+02 -0.34726159580E+01  0.24790401294E+02  0.45226085816E+02  0.00000000000E+00 0. -1.
         -1    1    6    6    0  503 -0.56812982918E+02 -0.32737028477E+01  0.55074959177E+02  0.79193959913E+02  0.00000000000E+00 0.  1.
<mgrwt>
<rscale>  0 0.12690538E+04</rscale>
<asrwt>0</asrwt>
<pdfrwt beam="1">  1        2 0.54733686E+00 0.12690538E+04</pdfrwt>
<pdfrwt beam="2">  1       -2 0.17410799E-01 0.12690538E+04</pdfrwt>
<totfact> 0.20259289E+01</totfact>
</mgrwt>
</event>
<event>
12    3  0.4634846E-008  0.1235613E+04  0.7818608E-02  0.9082243E-01
          2   -1    0    0  501    0  0.00000000000E+00  0.00000000000E+00  0.17430319002E+03  0.17430319002E+03  0.00000000000E+00 0. -1.
         -2   -1    0    0    0  501 -0.00000000000E+00 -0.00000000000E+00 -0.21897759824E+04  0.21897759824E+04  0.00000000000E+00 0.  1.
         23    2    1    2    0    0  0.27444952829E+03 -0.67711638700E+02 -0.53504008854E+03  0.61181340176E+03  0.90223791977E+02 0.  0.
        254    2    1    2    0    0 -0.27444952829E+03  0.67711638700E+02 -0.14804327039E+04  0.17522657707E+04  0.89378237333E+03 0.  0.
         23    2    4    4    0    0 -0.10809356201E+03  0.29139648994E+03 -0.97497870956E+02  0.33852674483E+03  0.92186710685E+02 0.  0.
         23    2    4    4    0    0 -0.16635596628E+03 -0.22368485124E+03 -0.13829348329E+04  0.14137390259E+04  0.91869804574E+02 0.  0.
          4    1    3    3  502    0  0.32604624866E+02  0.19440142551E+02 -0.49065072172E+02  0.62035167545E+02  0.00000000000E+00 0. -1.
         -4    1    3    3    0  502  0.24184490342E+03 -0.87151781250E+02 -0.48597501637E+03  0.54977823422E+03  0.00000000000E+00 0.  1.
         13    1    5    5    0    0 -0.12291545644E+03  0.27894290388E+03 -0.91603830311E+02  0.31829014245E+03  0.00000000000E+00 0.  1.
        -13    1    5    5    0    0  0.14821894436E+02  0.12453586059E+02 -0.58940406456E+01  0.20236602372E+02  0.00000000000E+00 0. -1.
          1    1    6    6  503    0  0.10892286559E+02 -0.49848444362E+01 -0.52871021290E+02  0.54211027225E+02  0.00000000000E+00 0. -1.
         -1    1    6    6    0  503 -0.17724825284E+03 -0.21870000680E+03 -0.13300638116E+04  0.13595279987E+04  0.00000000000E+00 0.  1.
<mgrwt>
<rscale>  0 0.12356131E+04</rscale>
<asrwt>0</asrwt>
<pdfrwt beam="1">  1        2 0.26815875E-01 0.12356131E+04</pdfrwt>
<pdfrwt beam="2">  1       -2 0.33688862E+00 0.12356131E+04</pdfrwt>
<totfact> 0.37912759E+00</totfact>
</mgrwt>
</event>
<event>
12    3  0.4634846E-008  0.2538976E+04  0.7818608E-02  0.8389230E-01
          2   -1    0    0  501    0  0.00000000000E+00  0.00000000000E+00  0.12189646874E+04  0.12189646874E+04  0.00000000000E+00 0. -1.
         -2   -1    0    0    0  501 -0.00000000000E+00 -0.00000000000E+00 -0.13221054247E+04  0.13221054247E+04  0.00000000000E+00 0.  1.
         23    2    1    2    0    0 -0.73750496453E+03 -0.57062267622E+03  0.55974609733E+03  0.10915399605E+04  0.92843850160E+02 0.  0.
        254    2    1    2    0    0  0.73750496453E+03  0.57062267622E+03 -0.66288683465E+03  0.14495301516E+04  0.89005330930E+03 0.  0.
         23    2    4    4    0    0  0.38461479777E+02  0.35789479874E+02 -0.54714829713E+03  0.55718938138E+03  0.91261028773E+02 0.  0.
         23    2    4    4    0    0  0.69904348475E+03  0.53483319634E+03 -0.11573853752E+03  0.89234077017E+03  0.90378645494E+02 0.  0.
          2    1    3    3  502    0 -0.45917427223E+03 -0.37474734453E+03  0.30602572683E+03  0.66702948210E+03  0.00000000000E+00 0.  1.
         -2    1    3    3    0  502 -0.27833069230E+03 -0.19587533168E+03  0.25372037050E+03  0.42451047837E+03  0.00000000000E+00 0. -1.
         13    1    5    5    0    0  0.30903960772E+02 -0.28714419635E+01 -0.52596616419E+02  0.61071302828E+02  0.00000000000E+00 0.  1.
        -13    1    5    5    0    0  0.75575190050E+01  0.38660921838E+02 -0.49455168071E+03  0.49611807855E+03  0.00000000000E+00 0. -1.
          1    1    6    6  503    0  0.56651524030E+03  0.39817590592E+03 -0.11526117841E+03  0.70197486336E+03  0.00000000000E+00 0. -1.
         -1    1    6    6    0  503  0.13252824445E+03  0.13665729043E+03 -0.47735911016E+00  0.19036590681E+03  0.00000000000E+00 0.  1.
<mgrwt>
<rscale>  0 0.25389760E+04</rscale>
<asrwt>0</asrwt>
<pdfrwt beam="1">  1        2 0.18753303E+00 0.25389760E+04</pdfrwt>
<pdfrwt beam="2">  1       -2 0.20340083E+00 0.25389760E+04</pdfrwt>
<totfact> 0.20728537E+00</totfact>
</mgrwt>
</event>
<event>
12    3  0.4634846E-008  0.1526179E+04  0.7818608E-02  0.8867228E-01
          2   -1    0    0  501    0  0.00000000000E+00  0.00000000000E+00  0.87673686602E+03  0.87673686602E+03  0.00000000000E+00 0. -1.
         -2   -1    0    0    0  501 -0.00000000000E+00 -0.00000000000E+00 -0.66417392367E+03  0.66417392367E+03  0.00000000000E+00 0.  1.
         23    2    1    2    0    0 -0.41747828626E+02 -0.76571182004E+02 -0.42148751313E+03  0.43972276626E+03  0.89990890274E+02 0.  0.
        254    2    1    2    0    0  0.41747828626E+02  0.76571182004E+02  0.63405045548E+03  0.11011880234E+04  0.89609656609E+03 0.  0.
         23    2    4    4    0    0 -0.28311151956E+03 -0.23029985534E+03  0.81526794335E+02  0.38465429639E+03  0.90122991854E+02 0.  0.
         23    2    4    4    0    0  0.32485934819E+03  0.30687103734E+03  0.55252366115E+03  0.71653372705E+03  0.91840928807E+02 0.  0.
          2    1    3    3  502    0 -0.45233548244E+02 -0.62187671239E+02 -0.41732215109E+03  0.42434792108E+03  0.00000000000E+00 0.  1.
         -2    1    3    3    0  502  0.34857196172E+01 -0.14383510765E+02 -0.41653620439E+01  0.15374845174E+02  0.00000000000E+00 0. -1.
         13    1    5    5    0    0 -0.72794477314E+01 -0.10887330737E+02  0.24269628054E+02  0.27577874750E+02  0.00000000000E+00 0. -1.
        -13    1    5    5    0    0 -0.27583207183E+03 -0.21941252460E+03  0.57257166281E+02  0.35707642164E+03  0.00000000000E+00 0.  1.
          3    1    6    6  503    0  0.10605447581E+03  0.12488137577E+03  0.14082885041E+03  0.21604553909E+03  0.00000000000E+00 0. -1.
         -3    1    6    6    0  503  0.21880487238E+03  0.18198966157E+03  0.41169481074E+03  0.50048818795E+03  0.00000000000E+00 0.  1.
<mgrwt>
<rscale>  0 0.15261792E+04</rscale>
<asrwt>0</asrwt>
<pdfrwt beam="1">  1        2 0.13488260E+00 0.15261792E+04</pdfrwt>
<pdfrwt beam="2">  1       -2 0.10218060E+00 0.15261792E+04</pdfrwt>
<totfact> 0.23015237E+01</totfact>
</mgrwt>
</event>
<event>
12    3  0.4634846E-008  0.1670150E+04  0.7818608E-02  0.8778574E-01
         -2   -1    0    0    0  501 -0.00000000000E+00  0.00000000000E+00  0.34319448571E+04  0.34319448571E+04  0.00000000000E+00 0.  1.
          2   -1    0    0  501    0  0.00000000000E+00 -0.00000000000E+00 -0.20319387914E+03  0.20319387914E+03  0.00000000000E+00 0. -1.
         23    2    1    2    0    0 -0.27376098607E+03  0.49956002741E+03  0.14483709248E+04  0.15589087164E+04  0.88953649688E+02 0.  0.
        254    2    1    2    0    0  0.27376098607E+03 -0.49956002741E+03  0.17803800531E+04  0.20762300198E+04  0.90358876879E+03 0.  0.
         23    2    4    4    0    0  0.58232080492E+03 -0.29637855089E+03  0.13435870324E+04  0.14968997417E+04  0.92438940133E+02 0.  0.
         23    2    4    4    0    0 -0.30855981885E+03 -0.20318147653E+03  0.43679302072E+03  0.57933027815E+03  0.91343056736E+02 0.  0.
          3    1    3    3  502    0 -0.19659591412E+03  0.38625674683E+03  0.11891822425E+04  0.12657008468E+04  0.00000000000E+00 0. -1.
         -3    1    3    3    0  502 -0.77165071954E+02  0.11330328058E+03  0.25918868239E+03  0.29320786960E+03  0.00000000000E+00 0.  1.
         13    1    5    5    0    0  0.22970758326E+03 -0.10691748345E+03  0.62383739558E+03  0.67332757125E+03  0.00000000000E+00 0.  1.
        -13    1    5    5    0    0  0.35261322167E+03 -0.18946106744E+03  0.71974963681E+03  0.82357217040E+03  0.00000000000E+00 0. -1.
          2    1    6    6  503    0 -0.25352296381E+03 -0.17573487081E+03  0.40782355893E+03  0.51134791798E+03  0.00000000000E+00 0. -1.
         -2    1    6    6    0  503 -0.55036855041E+02 -0.27446605721E+02  0.28969461791E+02  0.67982360174E+02  0.00000000000E+00 0.  1.
<mgrwt>
<rscale>  0 0.16701499E+04</rscale>
<asrwt>0</asrwt>
<pdfrwt beam="1">  1        2 0.31260599E-01 0.16701499E+04</pdfrwt>
<pdfrwt beam="2">  1       -2 0.52799147E+00 0.16701499E+04</pdfrwt>
<totfact> 0.18099002E-01</totfact>
</mgrwt>
</event>
<event>
12    3  0.4634846E-008  0.1721415E+04  0.7818608E-02  0.8749244E-01
          2   -1    0    0  501    0  0.00000000000E+00  0.00000000000E+00  0.19911887524E+04  0.19911887524E+04  0.00000000000E+00 0. -1.
         -2   -1    0    0    0  501 -0.00000000000E+00 -0.00000000000E+00 -0.37204781771E+03  0.37204781771E+03  0.00000000000E+00 0.  1.
         23    2    1    2    0    0 -0.31096838044E+03 -0.45465796088E+03  0.99076301634E+03  0.11399491976E+04  0.12023985867E+03 0.  0.
        254    2    1    2    0    0  0.31096838044E+03  0.45465796088E+03  0.62837791834E+03  0.12232873725E+04  0.89339688402E+03 0.  0.
         23    2    4    4    0    0 -0.99320688468E+02 -0.16352552940E+03  0.38085278313E+03  0.43593035298E+03  0.91549070483E+02 0.  0.
         23    2    4    4    0    0  0.41028906891E+03  0.61818349028E+03  0.24752513521E+03  0.78735701950E+03  0.90412586897E+02 0.  0.
          1    1    3    3  502    0 -0.10934118440E+03 -0.16791605316E+03  0.24965993804E+03  0.32012713127E+03  0.00000000000E+00 0. -1.
         -1    1    3    3    0  502 -0.20162719604E+03 -0.28674190772E+03  0.74110307830E+03  0.81982206636E+03  0.00000000000E+00 0.  1.
         13    1    5    5    0    0 -0.42316181326E+02 -0.30504039528E+02  0.18622622743E+03  0.19339432104E+03  0.00000000000E+00 0.  1.
        -13    1    5    5    0    0 -0.57004507142E+02 -0.13302148987E+03  0.19462655570E+03  0.24253603193E+03  0.00000000000E+00 0. -1.
          1    1    6    6  503    0  0.23278668798E+03  0.26967421600E+03  0.12371244352E+03  0.37711880563E+03  0.00000000000E+00 0.  1.
         -1    1    6    6    0  503  0.17750238092E+03  0.34850927428E+03  0.12381269169E+03  0.41023821387E+03  0.00000000000E+00 0. -1.
<mgrwt>
<rscale>  0 0.17214150E+04</rscale>
<asrwt>0</asrwt>
<pdfrwt beam="1">  1        2 0.30633672E+00 0.17214150E+04</pdfrwt>
<pdfrwt beam="2">  1       -2 0.57238127E-01 0.17214150E+04</pdfrwt>
<totfact> 0.18361397E+01</totfact>
</mgrwt>
</event>
<event>
12    3  0.4634846E-008  0.1420890E+04  0.7818608E-02  0.8938834E-01
         -2   -1    0    0    0  501 -0.00000000000E+00  0.00000000000E+00  0.13911270272E+04  0.13911270272E+04  0.00000000000E+00 0.  1.
          2   -1    0    0  501    0  0.00000000000E+00 -0.00000000000E+00 -0.36282260767E+03  0.36282260767E+03  0.00000000000E+00 0. -1.
         23    2    1    2    0    0  0.31430027285E+03  0.26176831601E+03  0.29207227003E+03  0.51073384882E+03  0.90749879507E+02 0.  0.
        254    2    1    2    0    0 -0.31430027285E+03 -0.26176831601E+03  0.73623214949E+03  0.12432157860E+04  0.91446180889E+03 0.  0.
         23    2    4    4    0    0 -0.44867155766E+03  0.47812807029E+02  0.39093966761E+02  0.46324618059E+03  0.97347082268E+02 0.  0.
         23    2    4    4    0    0  0.13437128481E+03 -0.30958112304E+03  0.69713818273E+03  0.77996960544E+03  0.91950126001E+02 0.  0.
          4    1    3    3  502    0  0.32048949482E+03  0.25906612920E+03  0.28572127474E+03  0.50146328124E+03  0.00000000000E+00 0.  1.
         -4    1    3    3    0  502 -0.61892219706E+01  0.27021868044E+01  0.63509952845E+01  0.92705675787E+01  0.00000000000E+00 0. -1.
         13    1    5    5    0    0 -0.33419799520E+03  0.54387184122E+02  0.67178972967E+02  0.34519455413E+03  0.00000000000E+00 0. -1.
        -13    1    5    5    0    0 -0.11447356246E+03 -0.65743770921E+01 -0.28085006206E+02  0.11805162646E+03  0.00000000000E+00 0.  1.
          1    1    6    6  503    0  0.87615754016E+02 -0.17016681161E+03  0.29361960541E+03  0.35049356172E+03  0.00000000000E+00 0. -1.
         -1    1    6    6    0  503  0.46755530796E+02 -0.13941431143E+03  0.40351857732E+03  0.42947604372E+03  0.00000000000E+00 0.  1.
<mgrwt>
<rscale>  0 0.14208903E+04</rscale>
<asrwt>0</asrwt>
<pdfrwt beam="1">  1        2 0.55818863E-01 0.14208903E+04</pdfrwt>
<pdfrwt beam="2">  1       -2 0.21401954E+00 0.14208903E+04</pdfrwt>
<totfact> 0.93006134E+00</totfact>
</mgrwt>
</event>
<event>
12    3  0.4634846E-008  0.1187239E+04  0.7818608E-02  0.9124100E-01
         -1   -1    0    0    0  501 -0.00000000000E+00  0.00000000000E+00  0.55487443856E+03  0.55487443856E+03  0.00000000000E+00 0.  1.
          1   -1    0    0  501    0  0.00000000000E+00 -0.00000000000E+00 -0.63507035041E+03  0.63507035041E+03  0.00000000000E+00 0. -1.
         23    2    1    2    0    0 -0.42928216323E+02 -0.20928767386E+03 -0.22977571007E+03  0.32664742619E+03  0.90870797924E+02 0.  0.
        254    2    1    2    0    0  0.42928216323E+02  0.20928767386E+03  0.14957979821E+03  0.86329736278E+03  0.82296054484E+03 0.  0.
         23    2    4    4    0    0 -0.29023900042E+03  0.27939082410E+03  0.26711186737E+03  0.49143069515E+03  0.88642362876E+02 0.  0.
         23    2    4    4    0    0  0.33316721674E+03 -0.70103150235E+02 -0.11753206916E+03  0.37186666762E+03  0.92499649858E+02 0.  0.
          3    1    3    3  502    0 -0.42709229163E+02 -0.21488189819E+03 -0.20096090267E+03  0.29729378202E+03  0.00000000000E+00 0. -1.
         -3    1    3    3    0  502 -0.21898715960E+00  0.55942243262E+01 -0.28814807392E+02  0.29353644173E+02  0.00000000000E+00 0.  1.
         13    1    5    5    0    0 -0.23500281875E+03  0.26666980051E+03  0.23741838173E+03  0.42744192039E+03  0.00000000000E+00 0. -1.
        -13    1    5    5    0    0 -0.55236181661E+02  0.12721023586E+02  0.29693485643E+02  0.63988774759E+02  0.00000000000E+00 0.  1.
          2    1    6    6  503    0  0.22573471196E+03 -0.85596688033E+02 -0.58902289101E+02  0.24850036790E+03  0.00000000000E+00 0. -1.
         -2    1    6    6    0  503  0.10743250478E+03  0.15493537797E+02 -0.58629780062E+02  0.12336629972E+03  0.00000000000E+00 0.  1.
<mgrwt>
<rscale>  0 0.11872393E+04</rscale>
<asrwt>0</asrwt>
<pdfrwt beam="1">  1        1 0.97703130E-01 0.11872393E+04</pdfrwt>
<pdfrwt beam="2">  1       -1 0.85365299E-01 0.11872393E+04</pdfrwt>
<totfact> 0.42377135E+01</totfact>
</mgrwt>
</event>
<event>
12    3  0.4634846E-008  0.1012666E+04  0.7818608E-02  0.9294761E-01
          1   -1    0    0  501    0  0.00000000000E+00  0.00000000000E+00  0.13349474340E+04  0.13349474340E+04  0.00000000000E+00 0. -1.
         -1   -1    0    0    0  501 -0.00000000000E+00 -0.00000000000E+00 -0.19204739464E+03  0.19204739464E+03  0.00000000000E+00 0.  1.
         23    2    1    2    0    0 -0.84641596186E+01 -0.22411900686E+03  0.16172865533E+03  0.29068438538E+03  0.89667623555E+02 0.  0.
        254    2    1    2    0    0  0.84641596186E+01  0.22411900686E+03  0.98117138404E+03  0.12363104433E+04  0.71795909078E+03 0.  0.
         23    2    4    4    0    0  0.90873633897E+02 -0.22716635130E+03  0.21719597560E+03  0.33969447384E+03  0.91409382699E+02 0.  0.
         23    2    4    4    0    0 -0.82409474279E+02  0.45128535816E+03  0.76397540845E+03  0.89661596943E+03  0.99055418723E+02 0.  0.
          2    1    3    3  502    0  0.21965027164E+02 -0.14099413366E+02  0.34479182926E+02  0.43244305183E+02  0.00000000000E+00 0. -1.
         -2    1    3    3    0  502 -0.30429186782E+02 -0.21001959350E+03  0.12724947240E+03  0.24744008020E+03  0.00000000000E+00 0.  1.
         13    1    5    5    0    0 -0.16889450824E+02 -0.46769017903E+02  0.28743772416E+02  0.57435172477E+02  0.00000000000E+00 0.  1.
        -13    1    5    5    0    0  0.10776308472E+03 -0.18039733339E+03  0.18845220318E+03  0.28225930137E+03  0.00000000000E+00 0. -1.
          4    1    6    6  503    0 -0.95475761638E+02  0.36727245040E+03  0.66908371239E+03  0.76920588146E+03  0.00000000000E+00 0. -1.
         -4    1    6    6    0  503  0.13066287359E+02  0.84012907761E+02  0.94891696056E+02  0.12741008797E+03  0.00000000000E+00 0.  1.
<mgrwt>
<rscale>  0 0.10126661E+04</rscale>
<asrwt>0</asrwt>
<pdfrwt beam="1">  1        1 0.20537652E+00 0.10126661E+04</pdfrwt>
<pdfrwt beam="2">  1       -1 0.29545754E-01 0.10126661E+04</pdfrwt>
<totfact> 0.89618007E+01</totfact>
</mgrwt>
</event>
<event>
12    3  0.4634846E-008  0.1996195E+04  0.7818608E-02  0.8608402E-01
          2   -1    0    0  501    0  0.00000000000E+00  0.00000000000E+00  0.16888422985E+04  0.16888422985E+04  0.00000000000E+00 0. -1.
         -2   -1    0    0    0  501 -0.00000000000E+00 -0.00000000000E+00 -0.58987067552E+03  0.58987067552E+03  0.00000000000E+00 0.  1.
         23    2    1    2    0    0  0.58118889643E+03 -0.44875789062E+03  0.76653198376E+03  0.10657173992E+04  0.94963756561E+02 0.  0.
        254    2    1    2    0    0 -0.58118889643E+03  0.44875789062E+03  0.33243963919E+03  0.12129955748E+04  0.90646454597E+03 0.  0.
         23    2    4    4    0    0 -0.70814898850E+03  0.52990809262E+03  0.64121282914E+02  0.89211412690E+03  0.97357588048E+02 0.  0.
         23    2    4    4    0    0  0.12696009208E+03 -0.81150202003E+02  0.26831835628E+03  0.32088144792E+03  0.90917231791E+02 0.  0.
          1    1    3    3  502    0  0.19373219298E+03 -0.13420251490E+03  0.30937711651E+03  0.38891731489E+03  0.00000000000E+00 0. -1.
         -1    1    3    3    0  502  0.38745670344E+03 -0.31455537572E+03  0.45715486725E+03  0.67680008428E+03  0.00000000000E+00 0.  1.
         13    1    5    5    0    0 -0.62451626779E+03  0.43181113741E+03  0.73803810287E+02  0.76284233597E+03  0.00000000000E+00 0. -1.
        -13    1    5    5    0    0 -0.83632720709E+02  0.98096955212E+02 -0.96825273730E+01  0.12927179093E+03  0.00000000000E+00 0.  1.
          2    1    6    6  503    0  0.54835046833E+02 -0.17928062340E+02  0.32296876049E+02  0.66116457732E+02  0.00000000000E+00 0. -1.
         -2    1    6    6    0  503  0.72125045244E+02 -0.63222139662E+02  0.23602148023E+03  0.25476499018E+03  0.00000000000E+00 0.  1.
<mgrwt>
<rscale>  0 0.19961949E+04</rscale>
<asrwt>0</asrwt>
<pdfrwt beam="1">  1        2 0.25982189E+00 0.19961949E+04</pdfrwt>
<pdfrwt beam="2">  1       -2 0.90749336E-01 0.19961949E+04</pdfrwt>
<totfact> 0.95850641E+00</totfact>
</mgrwt>
</event>
<event>
12    3  0.4634846E-008  0.1701038E+04  0.7818608E-02  0.8760773E-01
          2   -1    0    0  501    0  0.00000000000E+00  0.00000000000E+00  0.28529673518E+04  0.28529673518E+04  0.00000000000E+00 0. -1.
         -2   -1    0    0    0  501 -0.00000000000E+00 -0.00000000000E+00 -0.25355434301E+03  0.25355434301E+03  0.00000000000E+00 0.  1.
         23    2    1    2    0    0  0.36111185195E+02 -0.38499857991E+03  0.85842065086E+02  0.40696467440E+03  0.93399474519E+02 0.  0.
        254    2    1    2    0    0 -0.36111185195E+02  0.38499857991E+03  0.25135709437E+04  0.26995570204E+04  0.90556131386E+03 0.  0.
         23    2    4    4    0    0  0.16066079319E+03 -0.25134037371E+03  0.85211363608E+03  0.90733868178E+03  0.90454191335E+02 0.  0.
         23    2    4    4    0    0 -0.19677197839E+03  0.63633895362E+03  0.16614573077E+04  0.17922183387E+04  0.89217223065E+02 0.  0.
          1    1    3    3  502    0  0.44726255816E+02 -0.11294614352E+03 -0.26756324037E+00  0.12147979620E+03  0.00000000000E+00 0. -1.
         -1    1    3    3    0  502 -0.86150706202E+01 -0.27205243640E+03  0.86109628326E+02  0.28548487820E+03  0.00000000000E+00 0.  1.
         13    1    5    5    0    0  0.11960266306E+03 -0.24034450491E+03  0.75582124198E+03  0.80208230742E+03  0.00000000000E+00 0.  1.
        -13    1    5    5    0    0  0.41058130132E+02 -0.10995868792E+02  0.96292394108E+02  0.10525637436E+03  0.00000000000E+00 0. -1.
          1    1    6    6  503    0 -0.63922178140E+02  0.29530988203E+03  0.84793359798E+03  0.90015851819E+03  0.00000000000E+00 0. -1.
         -1    1    6    6    0  503 -0.13284980025E+03  0.34102907158E+03  0.81352370968E+03  0.89205982047E+03  0.00000000000E+00 0.  1.
<mgrwt>
<rscale>  0 0.17010376E+04</rscale>
<asrwt>0</asrwt>
<pdfrwt beam="1">  1        2 0.43891803E+00 0.17010376E+04</pdfrwt>
<pdfrwt beam="2">  1       -2 0.39008362E-01 0.17010376E+04</pdfrwt>
<totfact> 0.12737430E+01</totfact>
</mgrwt>
</event>
<event>
12    3  0.4634846E-008  0.2411489E+04  0.7818608E-02  0.8435215E-01
          2   -1    0    0  501    0  0.00000000000E+00  0.00000000000E+00  0.23041358725E+04  0.23041358725E+04  0.00000000000E+00 0. -1.
         -2   -1    0    0    0  501 -0.00000000000E+00 -0.00000000000E+00 -0.63096099099E+03  0.63096099099E+03  0.00000000000E+00 0.  1.
         23    2    1    2    0    0  0.12033477074E+03 -0.57310728761E+03 -0.33190241371E+03  0.67950171694E+03  0.92902911379E+02 0.  0.
        254    2    1    2    0    0 -0.12033477074E+03  0.57310728761E+03  0.20050772952E+04  0.22555951466E+04  0.85114163640E+03 0.  0.
         23    2    4    4    0    0  0.33570673588E+02  0.75208690539E+03  0.16849495228E+04  0.18477365193E+04  0.91179203140E+02 0.  0.
         23    2    4    4    0    0 -0.15390544433E+03 -0.17897961777E+03  0.32012777249E+03  0.40785862730E+03  0.90256743630E+02 0.  0.
          1    1    3    3  502    0  0.10985175691E+03 -0.30342355220E+03 -0.16920540065E+03  0.36436757284E+03  0.00000000000E+00 0. -1.
         -1    1    3    3    0  502  0.10483013830E+02 -0.26968373541E+03 -0.16269701305E+03  0.31513414411E+03  0.00000000000E+00 0.  1.
         13    1    5    5    0    0  0.28746852952E+02  0.15351436862E+03  0.28064178550E+03  0.32117418124E+03  0.00000000000E+00 0. -1.
        -13    1    5    5    0    0  0.48238206361E+01  0.59857253677E+03  0.14043077373E+04  0.15265623380E+04  0.00000000000E+00 0.  1.
          1    1    6    6  503    0 -0.15622629671E+02  0.93291378171E+01  0.15138118448E+02  0.23669854253E+02  0.00000000000E+00 0. -1.
         -1    1    6    6    0  503 -0.13828281466E+03 -0.18830875559E+03  0.30498965404E+03  0.38418877305E+03  0.00000000000E+00 0.  1.
<mgrwt>
<rscale>  0 0.24114890E+04</rscale>
<asrwt>0</asrwt>
<pdfrwt beam="1">  1        2 0.35448244E+00 0.24114890E+04</pdfrwt>
<pdfrwt beam="2">  1       -2 0.97070923E-01 0.24114890E+04</pdfrwt>
<totfact> 0.35887992E+00</totfact>
</mgrwt>
</event>
<event>
12    3  0.4634846E-008  0.1131827E+04  0.7818608E-02  0.9174715E-01
          1   -1    0    0  501    0  0.00000000000E+00  0.00000000000E+00  0.29039050121E+04  0.29039050121E+04  0.00000000000E+00 0. -1.
         -1   -1    0    0    0  501 -0.00000000000E+00 -0.00000000000E+00 -0.11028522591E+03  0.11028522591E+03  0.00000000000E+00 0.  1.
         23    2    1    2    0    0  0.10391827553E+03 -0.15465580336E+03  0.54585981565E+03  0.58397299496E+03  0.91346018008E+02 0.  0.
        254    2    1    2    0    0 -0.10391827553E+03  0.15465580336E+03  0.22477599705E+04  0.24302172430E+04  0.90488316246E+03 0.  0.
         23    2    4    4    0    0  0.30052437836E+03 -0.58777966618E+02  0.34210797658E+03  0.46828958452E+03  0.92127715634E+02 0.  0.
         23    2    4    4    0    0 -0.40444265389E+03  0.21343376998E+03  0.19056519940E+04  0.19619276585E+04  0.92318907649E+02 0.  0.
          4    1    3    3  502    0  0.94198813833E+02 -0.93345188018E+02  0.45500028878E+03  0.47393248828E+03  0.00000000000E+00 0. -1.
         -4    1    3    3    0  502  0.97194616972E+01 -0.61310615342E+02  0.90859526863E+02  0.11004050668E+03  0.00000000000E+00 0.  1.
         13    1    5    5    0    0  0.63332674763E+02  0.18402792055E+02  0.10592822156E+03  0.12478172370E+03  0.00000000000E+00 0. -1.
        -13    1    5    5    0    0  0.23719170359E+03 -0.77180758673E+02  0.23617975502E+03  0.34350786082E+03  0.00000000000E+00 0.  1.
          1    1    6    6  503    0 -0.80179764136E+02  0.61580864441E+02  0.58130393253E+03  0.59002988011E+03  0.00000000000E+00 0. -1.
         -1    1    6    6    0  503 -0.32426288975E+03  0.15185290554E+03  0.13243480614E+04  0.13718977784E+04  0.00000000000E+00 0.  1.
<mgrwt>
<rscale>  0 0.11318265E+04</rscale>
<asrwt>0</asrwt>
<pdfrwt beam="1">  1        1 0.44675456E+00 0.11318265E+04</pdfrwt>
<pdfrwt beam="2">  1       -1 0.16966960E-01 0.11318265E+04</pdfrwt>
<totfact> 0.19033429E+01</totfact>
</mgrwt>
</event>
<event>
12    3  0.4634846E-008  0.1950235E+04  0.7818608E-02  0.8630248E-01
         -2   -1    0    0    0  501 -0.00000000000E+00  0.00000000000E+00  0.28746658594E+03  0.28746658594E+03  0.00000000000E+00 0.  1.
          2   -1    0    0  501    0  0.00000000000E+00 -0.00000000000E+00 -0.33077025389E+04  0.33077025389E+04  0.00000000000E+00 0. -1.
         23    2    1    2    0    0  0.69717375716E+03  0.12789829914E+03 -0.66574720676E+03  0.97627985076E+03  0.86566628014E+02 0.  0.
        254    2    1    2    0    0 -0.69717375716E+03 -0.12789829914E+03 -0.23544887462E+04  0.26188892741E+04  0.90141807800E+03 0.  0.
         23    2    4    4    0    0 -0.30671675062E+03  0.45732491794E+02 -0.12413211243E+03  0.34611557695E+03  0.90667443726E+02 0.  0.
         23    2    4    4    0    0 -0.39045700654E+03 -0.17363079094E+03 -0.22303566338E+04  0.22727736972E+04  0.91680090946E+02 0.  0.
          3    1    3    3  502    0  0.29156247062E+02  0.24432960289E+02 -0.38162000314E+02  0.53883156544E+02  0.00000000000E+00 0. -1.
         -3    1    3    3    0  502  0.66801751010E+03  0.10346533886E+03 -0.62758520645E+03  0.92239669421E+03  0.00000000000E+00 0.  1.
         13    1    5    5    0    0 -0.11818857534E+03  0.58808331741E+01 -0.93900591216E+02  0.15106437227E+03  0.00000000000E+00 0. -1.
        -13    1    5    5    0    0 -0.18852817528E+03  0.39851658620E+02 -0.30231521216E+02  0.19505120468E+03  0.00000000000E+00 0.  1.
          2    1    6    6  503    0 -0.62602632871E+02 -0.56967921398E+02 -0.57851691446E+03  0.58467619588E+03  0.00000000000E+00 0. -1.
         -2    1    6    6    0  503 -0.32785437367E+03 -0.11666286954E+03 -0.16518397194E+04  0.16880975013E+04  0.00000000000E+00 0.  1.
<mgrwt>
<rscale>  0 0.19502348E+04</rscale>
<asrwt>0</asrwt>
<pdfrwt beam="1">  1        2 0.50887733E+00 0.19502348E+04</pdfrwt>
<pdfrwt beam="2">  1       -2 0.44225627E-01 0.19502348E+04</pdfrwt>
<totfact> 0.50017244E+00</totfact>
</mgrwt>
</event>
<event>
12    3  0.4634846E-008  0.2898407E+04  0.7818608E-02  0.8273352E-01
          2   -1    0    0  501    0  0.00000000000E+00  0.00000000000E+00  0.35118349887E+04  0.35118349887E+04  0.00000000000E+00 0. -1.
         -2   -1    0    0    0  501 -0.00000000000E+00 -0.00000000000E+00 -0.59803232012E+03  0.59803232012E+03  0.00000000000E+00 0.  1.
         23    2    1    2    0    0 -0.31918904641E+03 -0.10727557710E+04  0.35205334494E+03  0.11770410366E+04  0.93794736776E+02 0.  0.
        254    2    1    2    0    0  0.31918904641E+03  0.10727557710E+04  0.25617493236E+04  0.29328262722E+04  0.88669259297E+03 0.  0.
         23    2    4    4    0    0  0.61631277084E+03  0.76710342958E+03  0.18755320247E+04  0.21197875824E+04  0.87120122182E+02 0.  0.
         23    2    4    4    0    0 -0.29712372443E+03  0.30565234138E+03  0.68621729896E+03  0.81303868984E+03  0.91825205537E+02 0.  0.
          4    1    3    3  502    0 -0.17381505285E+02 -0.16215670581E+03  0.36045535958E+02  0.16702153942E+03  0.00000000000E+00 0. -1.
         -4    1    3    3    0  502 -0.30180754113E+03 -0.91059906514E+03  0.31600780898E+03  0.10100194972E+04  0.00000000000E+00 0.  1.
         13    1    5    5    0    0  0.33355781274E+03  0.48114128488E+03  0.11356502766E+04  0.12776773071E+04  0.00000000000E+00 0.  1.
        -13    1    5    5    0    0  0.28275495810E+03  0.28596214470E+03  0.73988174810E+03  0.84211027527E+03  0.00000000000E+00 0. -1.
          2    1    6    6  503    0 -0.26423474958E+03  0.30368067392E+03  0.64444343224E+03  0.75983504259E+03  0.00000000000E+00 0.  1.
         -2    1    6    6    0  503 -0.32888974852E+02  0.19716674617E+01  0.41773866721E+02  0.53203647246E+02  0.00000000000E+00 0. -1.
<mgrwt>
<rscale>  0 0.28984070E+04</rscale>
<asrwt>0</asrwt>
<pdfrwt beam="1">  1        2 0.54028229E+00 0.28984070E+04</pdfrwt>
<pdfrwt beam="2">  1       -2 0.92004975E-01 0.28984070E+04</pdfrwt>
<totfact> 0.69103483E-01</totfact>
</mgrwt>
</event>
<event>
12    3  0.4634846E-008  0.1823188E+04  0.7818608E-02  0.8694065E-01
          1   -1    0    0  501    0  0.00000000000E+00  0.00000000000E+00  0.76019470836E+03  0.76019470836E+03  0.00000000000E+00 0. -1.
         -1   -1    0    0    0  501 -0.00000000000E+00 -0.00000000000E+00 -0.10931457871E+04  0.10931457871E+04  0.00000000000E+00 0.  1.
         23    2    1    2    0    0 -0.15625935694E+03  0.21470531008E+03  0.50218063919E+03  0.57536192170E+03  0.91326829352E+02 0.  0.
        254    2    1    2    0    0  0.15625935694E+03 -0.21470531008E+03 -0.83513171793E+03  0.12779785738E+04  0.93019830783E+03 0.  0.
         23    2    4    4    0    0 -0.15688128487E+03 -0.34298627649E+03 -0.84280427145E+03  0.92761459071E+03  0.88873311682E+02 0.  0.
         23    2    4    4    0    0  0.31314064181E+03  0.12828096640E+03  0.76725535198E+01  0.35036398305E+03  0.90459851019E+02 0.  0.
          1    1    3    3  502    0 -0.15321602827E+03  0.16150424864E+03  0.35713673101E+03  0.42083894578E+03  0.00000000000E+00 0. -1.
         -1    1    3    3    0  502 -0.30433286678E+01  0.53201061441E+02  0.14504390819E+03  0.15452297593E+03  0.00000000000E+00 0.  1.
         13    1    5    5    0    0 -0.14057354950E+03 -0.34256394694E+03 -0.79265653993E+03  0.87488020372E+03  0.00000000000E+00 0.  1.
        -13    1    5    5    0    0 -0.16307735371E+02 -0.42232954319E+00 -0.50147731516E+02  0.52734386991E+02  0.00000000000E+00 0. -1.
          3    1    6    6  503    0  0.38180961049E+02 -0.12175457226E+02  0.11114169831E+02  0.41587886653E+02  0.00000000000E+00 0. -1.
         -3    1    6    6    0  503  0.27495968076E+03  0.14045642363E+03 -0.34416163109E+01  0.30877609640E+03  0.00000000000E+00 0.  1.
<mgrwt>
<rscale>  0 0.18231880E+04</rscale>
<asrwt>0</asrwt>
<pdfrwt beam="1">  1        1 0.11695303E+00 0.18231880E+04</pdfrwt>
<pdfrwt beam="2">  1       -1 0.16817627E+00 0.18231880E+04</pdfrwt>
<totfact> 0.57314845E+00</totfact>
</mgrwt>
</event>
<event>
12    3  0.4634846E-008  0.1396004E+04  0.7818608E-02  0.8956716E-01
         -2   -1    0    0    0  501 -0.00000000000E+00  0.00000000000E+00  0.31090306274E+03  0.31090306274E+03  0.00000000000E+00 0. -1.
          2   -1    0    0  501    0  0.00000000000E+00 -0.00000000000E+00 -0.15670691576E+04  0.15670691576E+04  0.00000000000E+00 0.  1.
         23    2    1    2    0    0  0.14402762182E+02 -0.34031646319E+03 -0.66862255081E+03  0.75574731850E+03  0.89861890078E+02 0.  0.
        254    2    1    2    0    0 -0.14402762182E+02  0.34031646319E+03 -0.58754354403E+03  0.11222249018E+04  0.89339721259E+03 0.  0.
         23    2    4    4    0    0 -0.30641443388E+03  0.42064832607E+03 -0.94678903447E+02  0.53676471096E+03  0.91200003572E+02 0.  0.
         23    2    4    4    0    0  0.29201167170E+03 -0.80331862882E+02 -0.49286464059E+03  0.58546019087E+03  0.90133548383E+02 0.  0.
          1    1    3    3  502    0 -0.30270640719E+02 -0.66963343439E+02 -0.17340154275E+03  0.18833081554E+03  0.00000000000E+00 0. -1.
         -1    1    3    3    0  502  0.44673402902E+02 -0.27335311975E+03 -0.49522100807E+03  0.56741650296E+03  0.00000000000E+00 0.  1.
         13    1    5    5    0    0 -0.25387362911E+03  0.30604874592E+03 -0.10189736900E+03  0.41048840209E+03  0.00000000000E+00 0. -1.
        -13    1    5    5    0    0 -0.52540804771E+02  0.11459958015E+03  0.72184655547E+01  0.12627630887E+03  0.00000000000E+00 0.  1.
          3    1    6    6  503    0  0.29532924781E+03 -0.83961064639E+02 -0.46536461898E+03  0.55752403857E+03  0.00000000000E+00 0. -1.
         -3    1    6    6    0  503 -0.33175761072E+01  0.36292017568E+01 -0.27500021611E+02  0.27936152298E+02  0.00000000000E+00 0.  1.
<mgrwt>
<rscale>  0 0.13960037E+04</rscale>
<asrwt>0</asrwt>
<pdfrwt beam="1">  1        2 0.24108756E+00 0.13960037E+04</pdfrwt>
<pdfrwt beam="2">  1       -2 0.47831241E-01 0.13960037E+04</pdfrwt>
<totfact> 0.46908512E+01</totfact>
</mgrwt>
</event>
<event>
12    3  0.4634846E-008  0.1579557E+04  0.7818608E-02  0.8833206E-01
         -1   -1    0    0    0  501 -0.00000000000E+00  0.00000000000E+00  0.39125184126E+03  0.39125184126E+03  0.00000000000E+00 0.  1.
          1   -1    0    0  501    0  0.00000000000E+00 -0.00000000000E+00 -0.15942425881E+04  0.15942425881E+04  0.00000000000E+00 0. -1.
         23    2    1    2    0    0  0.14179256670E+03 -0.30768712034E+03 -0.79201916802E+03  0.86697980950E+03  0.97893470532E+02 0.  0.
        254    2    1    2    0    0 -0.14179256670E+03  0.30768712034E+03 -0.41097157884E+03  0.11185146199E+04  0.98356536147E+03 0.  0.
         23    2    4    4    0    0  0.46911770520E+02  0.44311147447E+03  0.17062665937E+03  0.48613488065E+03  0.93086907105E+02 0.  0.
         23    2    4    4    0    0 -0.18870433722E+03 -0.13542435414E+03 -0.58159823821E+03  0.63237973923E+03  0.87741331906E+02 0.  0.
          2    1    3    3  502    0  0.93927069214E+02 -0.20827331564E+03 -0.63675601114E+03  0.67650446122E+03  0.00000000000E+00 0. -1.
         -2    1    3    3    0  502  0.47865497482E+02 -0.99413804701E+02 -0.15526315688E+03  0.19047534827E+03  0.00000000000E+00 0.  1.
         13    1    5    5    0    0  0.55698366429E+02  0.35285318762E+03  0.16961271749E+03  0.39544424888E+03  0.00000000000E+00 0. -1.
        -13    1    5    5    0    0 -0.87865959088E+01  0.90258286850E+02  0.10139418810E+01  0.90690631770E+02  0.00000000000E+00 0.  1.
          1    1    6    6  503    0 -0.10958729979E+03 -0.91130229403E+02 -0.45399546107E+03  0.47584238321E+03  0.00000000000E+00 0. -1.
         -1    1    6    6    0  503 -0.79117037423E+02 -0.44294124733E+02 -0.12760277714E+03  0.15653735602E+03  0.00000000000E+00 0.  1.
<mgrwt>
<rscale>  0 0.15795573E+04</rscale>
<asrwt>0</asrwt>
<pdfrwt beam="1">  1        1 0.24526809E+00 0.15795573E+04</pdfrwt>
<pdfrwt beam="2">  1       -1 0.60192591E-01 0.15795573E+04</pdfrwt>
<totfact> 0.15146972E+01</totfact>
</mgrwt>
</event>
<event>
12    3  0.4634846E-008  0.2140156E+04  0.7818608E-02  0.8543758E-01
          2   -1    0    0  501    0  0.00000000000E+00  0.00000000000E+00  0.80799762302E+03  0.80799762302E+03  0.00000000000E+00 0.  1.
         -2   -1    0    0    0  501 -0.00000000000E+00 -0.00000000000E+00 -0.14171661834E+04  0.14171661834E+04  0.00000000000E+00 0. -1.
         23    2    1    2    0    0  0.24661907327E+03  0.31147650533E+03 -0.10649089250E+04  0.11401992506E+04  0.90469508481E+02 0.  0.
        254    2    1    2    0    0 -0.24661907327E+03 -0.31147650533E+03  0.45574036461E+03  0.10849645558E+04  0.90089412624E+03 0.  0.
         23    2    4    4    0    0  0.30091078947E+03 -0.79105919946E+02  0.34530148338E+03  0.47321920803E+03  0.88872125189E+02 0.  0.
         23    2    4    4    0    0 -0.54752986274E+03 -0.23237058539E+03  0.11043888123E+03  0.61174534775E+03  0.90832727931E+02 0.  0.
          1    1    3    3  502    0  0.18582882349E+03  0.16945694672E+03 -0.61153012624E+03  0.66122394371E+03  0.00000000000E+00 0. -1.
         -1    1    3    3    0  502  0.60790249774E+02  0.14201955861E+03 -0.45337879875E+03  0.47897530694E+03  0.00000000000E+00 0.  1.
         13    1    5    5    0    0  0.24036699195E+03 -0.96826939622E+02  0.29404848825E+03  0.39193910305E+03  0.00000000000E+00 0. -1.
        -13    1    5    5    0    0  0.60543797515E+02  0.17721019676E+02  0.51252995130E+02  0.81280104981E+02  0.00000000000E+00 0.  1.
          3    1    6    6  503    0 -0.47591455566E+03 -0.20334802048E+03  0.63714919321E+02  0.52144479350E+03  0.00000000000E+00 0. -1.
         -3    1    6    6    0  503 -0.71615307079E+02 -0.29022564904E+02  0.46723961910E+02  0.90300554252E+02  0.00000000000E+00 0.  1.
<mgrwt>
<rscale>  0 0.21401560E+04</rscale>
<asrwt>0</asrwt>
<pdfrwt beam="1">  1        2 0.12430733E+00 0.21401560E+04</pdfrwt>
<pdfrwt beam="2">  1       -2 0.21802557E+00 0.21401560E+04</pdfrwt>
<totfact> 0.31749219E+00</totfact>
</mgrwt>
</event>
<event>
12    3  0.4634846E-008  0.1977713E+04  0.7818608E-02  0.8617112E-01
          2   -1    0    0  501    0  0.00000000000E+00  0.00000000000E+00  0.13266796862E+04  0.13266796862E+04  0.00000000000E+00 0. -1.
         -2   -1    0    0    0  501 -0.00000000000E+00 -0.00000000000E+00 -0.73705567324E+03  0.73705567324E+03  0.00000000000E+00 0.  1.
         23    2    1    2    0    0 -0.48338963438E+03 -0.41502285906E+03 -0.25766592755E+03  0.69304536882E+03  0.89502183542E+02 0.  0.
        254    2    1    2    0    0  0.48338963438E+03  0.41502285906E+03  0.84728994051E+03  0.13706899906E+04  0.86889659622E+03 0.  0.
         23    2    4    4    0    0  0.29765177805E+02  0.25942837994E+03  0.83845168235E+03  0.88283398232E+03  0.90584582473E+02 0.  0.
         23    2    4    4    0    0  0.45362445657E+03  0.15559447912E+03  0.88382581648E+01  0.48785600830E+03  0.89109934869E+02 0.  0.
          1    1    3    3  502    0 -0.10481331942E+02  0.25482862742E+01 -0.11700586982E+02  0.15914013257E+02  0.00000000000E+00 0. -1.
         -1    1    3    3    0  502 -0.47290830244E+03 -0.41757114533E+03 -0.24596534056E+03  0.67713135556E+03  0.00000000000E+00 0.  1.
         13    1    5    5    0    0  0.29863379245E+02  0.26209156914E+03  0.83950151012E+03  0.87996965716E+03  0.00000000000E+00 0. -1.
        -13    1    5    5    0    0 -0.98201439901E-01 -0.26631892012E+01 -0.10498277742E+01  0.28643251561E+01  0.00000000000E+00 0.  1.
          4    1    6    6  503    0  0.94906820050E+02 -0.43077813531E+01  0.38065683358E+01  0.95080762695E+02  0.00000000000E+00 0.  1.
         -4    1    6    6    0  503  0.35871763652E+03  0.15990226047E+03  0.50316898290E+01  0.39277524560E+03  0.00000000000E+00 0. -1.
<mgrwt>
<rscale>  0 0.19777126E+04</rscale>
<asrwt>0</asrwt>
<pdfrwt beam="1">  1        2 0.20410457E+00 0.19777126E+04</pdfrwt>
<pdfrwt beam="2">  1       -2 0.11339318E+00 0.19777126E+04</pdfrwt>
<totfact> 0.90611927E+00</totfact>
</mgrwt>
</event>
<event>
12    3  0.4634846E-008  0.2372749E+04  0.7818608E-02  0.8449777E-01
          2   -1    0    0  501    0  0.00000000000E+00  0.00000000000E+00  0.13154991765E+04  0.13154991765E+04  0.00000000000E+00 0.  1.
         -2   -1    0    0    0  501 -0.00000000000E+00 -0.00000000000E+00 -0.10699246610E+04  0.10699246610E+04  0.00000000000E+00 0. -1.
         23    2    1    2    0    0 -0.10193473733E+03  0.71219151917E+03 -0.61226325777E+03  0.94897862493E+03  0.89925986755E+02 0.  0.
        254    2    1    2    0    0  0.10193473733E+03 -0.71219151917E+03  0.85783777326E+03  0.14364452125E+04  0.89993430468E+03 0.  0.
         23    2    4    4    0    0 -0.20944470483E+02 -0.68957990729E+03  0.14980826273E+03  0.71185792089E+03  0.91323953974E+02 0.  0.
         23    2    4    4    0    0  0.12287920781E+03 -0.22611611883E+02  0.70802951053E+03  0.72458729165E+03  0.90057596749E+02 0.  0.
          4    1    3    3  502    0 -0.11364571588E+03  0.58129657130E+03 -0.52253345994E+03  0.78984952320E+03  0.00000000000E+00 0. -1.
         -4    1    3    3    0  502  0.11710978552E+02  0.13089494788E+03 -0.89729797837E+02  0.15912910173E+03  0.00000000000E+00 0.  1.
         13    1    5    5    0    0 -0.25925620682E+02 -0.50461843939E+03  0.69076601402E+02  0.50998380763E+03  0.00000000000E+00 0.  1.
        -13    1    5    5    0    0  0.49811501983E+01 -0.18496146790E+03  0.80731661327E+02  0.20187411326E+03  0.00000000000E+00 0. -1.
          2    1    6    6  503    0  0.67153543270E+02 -0.54006382452E+02  0.48374846364E+03  0.49136428828E+03  0.00000000000E+00 0. -1.
         -2    1    6    6    0  503  0.55725664540E+02  0.31394770569E+02  0.22428104689E+03  0.23322300337E+03  0.00000000000E+00 0.  1.
<mgrwt>
<rscale>  0 0.23727495E+04</rscale>
<asrwt>0</asrwt>
<pdfrwt beam="1">  1        2 0.20238449E+00 0.23727495E+04</pdfrwt>
<pdfrwt beam="2">  1       -2 0.16460379E+00 0.23727495E+04</pdfrwt>
<totfact> 0.34011195E+00</totfact>
</mgrwt>
</event>
<event>
12    3  0.4634846E-008  0.2427213E+04  0.7818608E-02  0.8429385E-01
         -2   -1    0    0    0  501 -0.00000000000E+00  0.00000000000E+00  0.10666739071E+04  0.10666739071E+04  0.00000000000E+00 0.  1.
          2   -1    0    0  501    0  0.00000000000E+00 -0.00000000000E+00 -0.13807792685E+04  0.13807792685E+04  0.00000000000E+00 0. -1.
         23    2    1    2    0    0  0.46096515035E+02 -0.92815113277E+03 -0.61983986613E+03  0.11197123209E+04  0.77232169864E+02 0.  0.
        254    2    1    2    0    0 -0.46096515035E+02  0.92815113277E+03  0.30573450478E+03  0.13277408547E+04  0.89768189010E+03 0.  0.
         23    2    4    4    0    0 -0.28405219602E+03  0.48144671861E+03  0.52185261442E+03  0.76994349787E+03  0.89477627519E+02 0.  0.
         23    2    4    4    0    0  0.23795568098E+03  0.44670441416E+03 -0.21611810963E+03  0.55779735681E+03  0.90901673282E+02 0.  0.
          1    1    3    3  502    0 -0.11276833779E+01 -0.28777467443E+03 -0.23117731224E+03  0.36913206933E+03  0.00000000000E+00 0. -1.
         -1    1    3    3    0  502  0.47224198413E+02 -0.64037645834E+03 -0.38866255389E+03  0.75058025161E+03  0.00000000000E+00 0.  1.
         13    1    5    5    0    0 -0.16826214738E+03  0.32962442830E+03  0.29390968786E+03  0.47259635905E+03  0.00000000000E+00 0.  1.
        -13    1    5    5    0    0 -0.11579004864E+03  0.15182229031E+03  0.22794292656E+03  0.29734713882E+03  0.00000000000E+00 0. -1.
          2    1    6    6  503    0  0.25705368214E+02  0.94714758414E+02 -0.73915419777E+02  0.12286228346E+03  0.00000000000E+00 0. -1.
         -2    1    6    6    0  503  0.21225031277E+03  0.35198965575E+03 -0.14220268986E+03  0.43493507334E+03  0.00000000000E+00 0.  1.
<mgrwt>
<rscale>  0 0.24272134E+04</rscale>
<asrwt>0</asrwt>
<pdfrwt beam="1">  1        2 0.21242758E+00 0.24272134E+04</pdfrwt>
<pdfrwt beam="2">  1       -2 0.16410368E+00 0.24272134E+04</pdfrwt>
<totfact> 0.31302354E+00</totfact>
</mgrwt>
</event>
<event>
12    3  0.4634846E-008  0.1575720E+04  0.7818608E-02  0.8835605E-01
         -1   -1    0    0    0  501 -0.00000000000E+00  0.00000000000E+00  0.27900340125E+03  0.27900340125E+03  0.00000000000E+00 0.  1.
          1   -1    0    0  501    0  0.00000000000E+00 -0.00000000000E+00 -0.22247872924E+04  0.22247872924E+04  0.00000000000E+00 0. -1.
         23    2    1    2    0    0 -0.94636376728E+02  0.38272796260E+03 -0.10378931584E+03  0.41824952667E+03  0.93400788681E+02 0.  0.
        254    2    1    2    0    0  0.94636376728E+02 -0.38272796260E+03 -0.18419945753E+04  0.20855411670E+04  0.89504257246E+03 0.  0.
         23    2    4    4    0    0  0.65983970091E+02 -0.66351845847E+03 -0.13957146507E+04  0.15494802415E+04  0.90879060529E+02 0.  0.
         23    2    4    4    0    0  0.28652406638E+02  0.28079049587E+03 -0.44627992459E+03  0.53606092544E+03  0.92364937667E+02 0.  0.
          2    1    3    3  502    0  0.24059541504E+01  0.12886705061E+01  0.85224354457E+01  0.89488095841E+01  0.00000000000E+00 0. -1.
         -2    1    3    3    0  502 -0.97042330879E+02  0.38143929209E+03 -0.11231175129E+03  0.40930071709E+03  0.00000000000E+00 0.  1.
         13    1    5    5    0    0 -0.22847292554E+02 -0.14713196436E+03 -0.31942694237E+03  0.35242500653E+03  0.00000000000E+00 0.  1.
        -13    1    5    5    0    0  0.88831262644E+02 -0.51638649412E+03 -0.10762877083E+04  0.11970552350E+04  0.00000000000E+00 0. -1.
          1    1    6    6  503    0  0.10286416169E+02  0.27824367147E+03 -0.41795406942E+03  0.50220608839E+03  0.00000000000E+00 0. -1.
         -1    1    6    6    0  503  0.18365990469E+02  0.25468244032E+01 -0.28325855172E+02  0.33854837050E+02  0.00000000000E+00 0.  1.
<mgrwt>
<rscale>  0 0.15757198E+04</rscale>
<asrwt>0</asrwt>
<pdfrwt beam="1">  1        1 0.34227496E+00 0.15757198E+04</pdfrwt>
<pdfrwt beam="2">  1       -1 0.42923601E-01 0.15757198E+04</pdfrwt>
<totfact> 0.10784847E+01</totfact>
</mgrwt>
</event>
<event>
12    3  0.4634846E-008  0.2053567E+04  0.7818608E-02  0.8581978E-01
          1   -1    0    0  501    0  0.00000000000E+00  0.00000000000E+00  0.12666082943E+04  0.12666082943E+04  0.00000000000E+00 0. -1.
         -1   -1    0    0    0  501 -0.00000000000E+00 -0.00000000000E+00 -0.83236796654E+03  0.83236796654E+03  0.00000000000E+00 0.  1.
         23    2    1    2    0    0  0.70441816526E+02  0.34233228688E+03  0.94101921435E+03  0.10079543234E+04  0.91111537042E+02 0.  0.
        254    2    1    2    0    0 -0.70441816526E+02 -0.34233228688E+03 -0.50677888657E+03  0.10910219374E+04  0.90075001189E+03 0.  0.
         23    2    4    4    0    0  0.89496115727E+02  0.25066041121E+03 -0.35447851207E+03  0.45207191819E+03  0.88734475933E+02 0.  0.
         23    2    4    4    0    0 -0.15993793225E+03 -0.59299269809E+03 -0.15230037450E+03  0.63895001924E+03  0.88550781225E+02 0.  0.
          3    1    3    3  502    0  0.28893261555E+00  0.19406196428E+03  0.57489513557E+03  0.60676564370E+03  0.00000000000E+00 0. -1.
         -3    1    3    3    0  502  0.70152883910E+02  0.14827032260E+03  0.36612407877E+03  0.40118867973E+03  0.00000000000E+00 0.  1.
         13    1    5    5    0    0 -0.20235492652E+01  0.36909539227E+02 -0.10366904154E+03  0.11006215976E+03  0.00000000000E+00 0.  1.
        -13    1    5    5    0    0  0.91519664992E+02  0.21375087198E+03 -0.25080947053E+03  0.34200975843E+03  0.00000000000E+00 0. -1.
          2    1    6    6  503    0 -0.99633336974E+02 -0.39096297898E+03 -0.14249979713E+03  0.42788438269E+03  0.00000000000E+00 0. -1.
         -2    1    6    6    0  503 -0.60304595279E+02 -0.20202971911E+03 -0.98005773681E+01  0.21106563655E+03  0.00000000000E+00 0.  1.
<mgrwt>
<rscale>  0 0.20535668E+04</rscale>
<asrwt>0</asrwt>
<pdfrwt beam="1">  1        1 0.19486281E+00 0.20535668E+04</pdfrwt>
<pdfrwt beam="2">  1       -1 0.12805661E+00 0.20535668E+04</pdfrwt>
<totfact> 0.46501198E+00</totfact>
</mgrwt>
</event>
<event>
12    3  0.4634846E-008  0.1945708E+04  0.7818608E-02  0.8632433E-01
         -1   -1    0    0    0  501 -0.00000000000E+00  0.00000000000E+00  0.87001138396E+03  0.87001138396E+03  0.00000000000E+00 0.  1.
          1   -1    0    0  501    0  0.00000000000E+00 -0.00000000000E+00 -0.10878531184E+04  0.10878531184E+04  0.00000000000E+00 0. -1.
         23    2    1    2    0    0  0.55675126995E+03  0.47012218771E+03 -0.30576942254E+03  0.79458372355E+03  0.82954843148E+02 0.  0.
        254    2    1    2    0    0 -0.55675126995E+03 -0.47012218771E+03  0.87927688124E+02  0.11632807788E+04  0.90249877784E+03 0.  0.
         23    2    4    4    0    0  0.35474267633E+02 -0.48914081903E+03 -0.14631349074E+03  0.51956202249E+03  0.89553856080E+02 0.  0.
         23    2    4    4    0    0 -0.59222553758E+03  0.19018631322E+02  0.23424117886E+03  0.64371875630E+03  0.91717564498E+02 0.  0.
          3    1    3    3  502    0  0.79468052982E+02  0.57796589938E+02 -0.72466931423E+02  0.12209452651E+03  0.00000000000E+00 0. -1.
         -3    1    3    3    0  502  0.47728321697E+03  0.41232559777E+03 -0.23330249112E+03  0.67248919704E+03  0.00000000000E+00 0.  1.
         13    1    5    5    0    0 -0.24203167198E+02 -0.17704731249E+03 -0.30001514903E+02  0.18119501941E+03  0.00000000000E+00 0.  1.
        -13    1    5    5    0    0  0.59677434830E+02 -0.31209350654E+03 -0.11631197584E+03  0.33836700308E+03  0.00000000000E+00 0. -1.
          2    1    6    6  503    0 -0.40212713262E+03  0.84565559563E+01  0.20382519942E+03  0.45091291404E+03  0.00000000000E+00 0. -1.
         -2    1    6    6    0  503 -0.19009840496E+03  0.10562075366E+02  0.30415979442E+02  0.19280584227E+03  0.00000000000E+00 0.  1.
<mgrwt>
<rscale>  0 0.19457077E+04</rscale>
<asrwt>0</asrwt>
<pdfrwt beam="1">  1        1 0.16736202E+00 0.19457077E+04</pdfrwt>
<pdfrwt beam="2">  1       -1 0.13384791E+00 0.19457077E+04</pdfrwt>
<totfact> 0.56834543E+00</totfact>
</mgrwt>
</event>
<event>
12    3  0.4634846E-008  0.1491289E+04  0.7818608E-02  0.8890266E-01
          2   -1    0    0  501    0  0.00000000000E+00  0.00000000000E+00  0.50384521395E+03  0.50384521395E+03  0.00000000000E+00 0. -1.
         -2   -1    0    0    0  501 -0.00000000000E+00 -0.00000000000E+00 -0.11034854449E+04  0.11034854449E+04  0.00000000000E+00 0.  1.
         23    2    1    2    0    0  0.42158611065E+03 -0.13529687491E+03 -0.16918536454E+02  0.45395216346E+03  0.98723030625E+02 0.  0.
        254    2    1    2    0    0 -0.42158611065E+03  0.13529687491E+03 -0.58272169447E+03  0.11533784954E+04  0.89144673833E+03 0.  0.
         23    2    4    4    0    0 -0.47546318840E+03  0.42199003019E+03 -0.21875087754E+03  0.67851754901E+03  0.91614893918E+02 0.  0.
         23    2    4    4    0    0  0.53877077742E+02 -0.28669315528E+03 -0.36397081693E+03  0.47486094635E+03  0.89008190632E+02 0.  0.
          4    1    3    3  502    0  0.25862743765E+03 -0.10962928376E+03 -0.51013375261E+02  0.28549797866E+03  0.00000000000E+00 0. -1.
         -4    1    3    3    0  502  0.16295867301E+03 -0.25667591147E+02  0.34094838807E+02  0.16845418480E+03  0.00000000000E+00 0.  1.
         13    1    5    5    0    0 -0.25150630728E+03  0.28261685925E+03 -0.12091145824E+03  0.39717413368E+03  0.00000000000E+00 0. -1.
        -13    1    5    5    0    0 -0.22395688112E+03  0.13937317094E+03 -0.97839419294E+02  0.28134341532E+03  0.00000000000E+00 0.  1.
          3    1    6    6  503    0 -0.21475467531E+02 -0.44579475176E+02 -0.41125044756E+02  0.64341235758E+02  0.00000000000E+00 0. -1.
         -3    1    6    6    0  503  0.75352545273E+02 -0.24211368011E+03 -0.32284577217E+03  0.41051971059E+03  0.00000000000E+00 0.  1.
<mgrwt>
<rscale>  0 0.14912892E+04</rscale>
<asrwt>0</asrwt>
<pdfrwt beam="1">  1        2 0.77514650E-01 0.14912892E+04</pdfrwt>
<pdfrwt beam="2">  1       -2 0.16976699E+00 0.14912892E+04</pdfrwt>
<totfact> 0.12611184E+01</totfact>
</mgrwt>
</event>
<event>
12    3  0.4634846E-008  0.3539389E+04  0.7818608E-02  0.8104518E-01
          2   -1    0    0  501    0  0.00000000000E+00  0.00000000000E+00  0.18894776092E+04  0.18894776092E+04  0.00000000000E+00 0.  1.
         -2   -1    0    0    0  501 -0.00000000000E+00 -0.00000000000E+00 -0.16575051197E+04  0.16575051197E+04  0.00000000000E+00 0. -1.
         23    2    1    2    0    0  0.12187084868E+04 -0.10115372139E+04 -0.38802362835E+03  0.16331045974E+04  0.89500720384E+02 0.  0.
        254    2    1    2    0    0 -0.12187084868E+04  0.10115372139E+04  0.61999611783E+03  0.19138781315E+04  0.87753997354E+03 0.  0.
         23    2    4    4    0    0 -0.58948782892E+03  0.66840395294E+03  0.76349651720E+03  0.11770086438E+04  0.90347502085E+02 0.  0.
         23    2    4    4    0    0 -0.62922065788E+03  0.34313326094E+03 -0.14350039937E+03  0.73686948764E+03  0.93408811859E+02 0.  0.
          3    1    3    3  502    0  0.92188758376E+03 -0.80797393316E+03 -0.28146877414E+03  0.12577453099E+04  0.00000000000E+00 0. -1.
         -3    1    3    3    0  502  0.29682090304E+03 -0.20356328072E+03 -0.10655485421E+03  0.37535928748E+03  0.00000000000E+00 0.  1.
         13    1    5    5    0    0 -0.45992738289E+02  0.30425805044E+02  0.27515277135E+02  0.61629149465E+02  0.00000000000E+00 0.  1.
        -13    1    5    5    0    0 -0.54349509063E+03  0.63797814789E+03  0.73598124007E+03  0.11153794944E+04  0.00000000000E+00 0. -1.
          3    1    6    6  503    0 -0.40065142048E+03  0.16642799018E+03 -0.87944076728E+02  0.44266691460E+03  0.00000000000E+00 0. -1.
         -3    1    6    6    0  503 -0.22856923739E+03  0.17670527076E+03 -0.55556322646E+02  0.29420257304E+03  0.00000000000E+00 0.  1.
<mgrwt>
<rscale>  0 0.35393891E+04</rscale>
<asrwt>0</asrwt>
<pdfrwt beam="1">  1        2 0.29068886E+00 0.35393891E+04</pdfrwt>
<pdfrwt beam="2">  1       -2 0.25500079E+00 0.35393891E+04</pdfrwt>
<totfact> 0.37743841E-01</totfact>
</mgrwt>
</event>
<event>
12    3  0.4634846E-008  0.1472357E+04  0.7818608E-02  0.8903046E-01
          1   -1    0    0  501    0  0.00000000000E+00  0.00000000000E+00  0.26709598628E+04  0.26709598628E+04  0.00000000000E+00 0. -1.
         -1   -1    0    0    0  501 -0.00000000000E+00 -0.00000000000E+00 -0.20290778122E+03  0.20290778122E+03  0.00000000000E+00 0.  1.
         23    2    1    2    0    0  0.52428060522E+02 -0.20172705271E+03  0.13394375839E+04  0.13604819162E+04  0.11565248718E+03 0.  0.
        254    2    1    2    0    0 -0.52428060522E+02  0.20172705271E+03  0.11286144977E+04  0.15133857278E+04  0.98647005607E+03 0.  0.
         23    2    4    4    0    0  0.17933018803E+03  0.39759275507E+03  0.11099489894E+04  0.11960567570E+04  0.91245228982E+02 0.  0.
         23    2    4    4    0    0 -0.23175824856E+03 -0.19586570235E+03  0.18665508287E+02  0.31732897079E+03  0.90961614811E+02 0.  0.
          2    1    3    3  502    0  0.75039807500E+02 -0.17420870545E+03  0.12483482856E+04  0.12626769531E+04  0.00000000000E+00 0. -1.
         -2    1    3    3    0  502 -0.22611746977E+02 -0.27518347260E+02  0.91089298273E+02  0.97804963050E+02  0.00000000000E+00 0.  1.
         13    1    5    5    0    0  0.16681823214E+03  0.38805658111E+03  0.10083285583E+04  0.10932258295E+04  0.00000000000E+00 0.  1.
        -13    1    5    5    0    0  0.12511955898E+02  0.95361739548E+01  0.10162043106E+03  0.10283092756E+03  0.00000000000E+00 0. -1.
          1    1    6    6  503    0 -0.53128443862E+02 -0.51310339211E+01 -0.10458806663E+02  0.54390676527E+02  0.00000000000E+00 0. -1.
         -1    1    6    6    0  503 -0.17862980469E+03 -0.19073466843E+03  0.29124314950E+02  0.26293829426E+03  0.00000000000E+00 0.  1.
<mgrwt>
<rscale>  0 0.14723567E+04</rscale>
<asrwt>0</asrwt>
<pdfrwt beam="1">  1        1 0.41091688E+00 0.14723567E+04</pdfrwt>
<pdfrwt beam="2">  1       -1 0.31216584E-01 0.14723567E+04</pdfrwt>
<totfact> 0.95264662E+00</totfact>
</mgrwt>
</event>
<event>
12    3  0.4634846E-008  0.1736606E+04  0.7818608E-02  0.8740758E-01
         -2   -1    0    0    0  501 -0.00000000000E+00  0.00000000000E+00  0.35124578147E+03  0.35124578147E+03  0.00000000000E+00 0.  1.
          2   -1    0    0  501    0  0.00000000000E+00 -0.00000000000E+00 -0.21465022299E+04  0.21465022299E+04  0.00000000000E+00 0. -1.
         23    2    1    2    0    0  0.43466940797E+03  0.28492268712E+03 -0.23931395523E+03  0.57935666551E+03  0.90909542058E+02 0.  0.
        254    2    1    2    0    0 -0.43466940797E+03 -0.28492268712E+03 -0.15559424932E+04  0.19183913459E+04  0.99456014493E+03 0.  0.
         23    2    4    4    0    0 -0.63803975413E+03 -0.33452503978E+03 -0.15239615369E+04  0.16882672230E+04  0.93732172951E+02 0.  0.
         23    2    4    4    0    0  0.20337034616E+03  0.49602352656E+02 -0.31980956305E+02  0.23012412286E+03  0.90080182457E+02 0.  0.
          4    1    3    3  502    0  0.30123017427E+03  0.15366894522E+03 -0.17955630106E+03  0.38287625660E+03  0.00000000000E+00 0. -1.
         -4    1    3    3    0  502  0.13343923370E+03  0.13125374190E+03 -0.59757654179E+02  0.19648040892E+03  0.00000000000E+00 0.  1.
         13    1    5    5    0    0 -0.39366190687E+03 -0.25061926043E+03 -0.92911632439E+03  0.10397292219E+04  0.00000000000E+00 0.  1.
        -13    1    5    5    0    0 -0.24437784726E+03 -0.83905779346E+02 -0.59484521250E+03  0.64853800110E+03  0.00000000000E+00 0. -1.
          4    1    6    6  503    0  0.13769529806E+03 -0.35742023676E+01  0.51139589914E+01  0.13783657935E+03  0.00000000000E+00 0.  1.
         -4    1    6    6    0  503  0.65675048101E+02  0.53176555023E+02 -0.37094915296E+02  0.92287543515E+02  0.00000000000E+00 0. -1.
<mgrwt>
<rscale>  0 0.17366057E+04</rscale>
<asrwt>0</asrwt>
<pdfrwt beam="1">  1        2 0.33023112E+00 0.17366057E+04</pdfrwt>
<pdfrwt beam="2">  1       -2 0.54037811E-01 0.17366057E+04</pdfrwt>
<totfact> 0.16939263E+01</totfact>
</mgrwt>
</event>
<event>
12    3  0.4634846E-008  0.1764369E+04  0.7818608E-02  0.8725480E-01
         -1   -1    0    0    0  501 -0.00000000000E+00  0.00000000000E+00  0.44368384918E+03  0.44368384918E+03  0.00000000000E+00 0.  1.
          1   -1    0    0  501    0  0.00000000000E+00 -0.00000000000E+00 -0.17540634539E+04  0.17540634539E+04  0.00000000000E+00 0. -1.
         23    2    1    2    0    0  0.31638787914E+03 -0.24124083282E+03  0.15455344258E+03  0.43615818779E+03  0.89714930073E+02 0.  0.
        254    2    1    2    0    0 -0.31638787914E+03  0.24124083282E+03 -0.14649330473E+04  0.17615891153E+04  0.89379469039E+03 0.  0.
         23    2    4    4    0    0 -0.47869266595E+03 -0.16322562994E+03 -0.60755291829E+03  0.79550192391E+03  0.88957786140E+02 0.  0.
         23    2    4    4    0    0  0.16230478681E+03  0.40446646276E+03 -0.85738012898E+03  0.96608719136E+03  0.91037423202E+02 0.  0.
          1    1    3    3  502    0  0.74420003971E+02 -0.14192487853E+02  0.35122198409E+02  0.83506481926E+02  0.00000000000E+00 0. -1.
         -1    1    3    3    0  502  0.24196787517E+03 -0.22704834497E+03  0.11943124417E+03  0.35265170586E+03  0.00000000000E+00 0.  1.
         13    1    5    5    0    0 -0.44744470279E+03 -0.16651225936E+03 -0.59175520207E+03  0.76033368579E+03  0.00000000000E+00 0. -1.
        -13    1    5    5    0    0 -0.31247963163E+02  0.32866294172E+01 -0.15797716226E+02  0.35168238124E+02  0.00000000000E+00 0.  1.
          1    1    6    6  503    0  0.51917283349E+02  0.24826364133E+03 -0.50676458897E+03  0.56669267557E+03  0.00000000000E+00 0. -1.
         -1    1    6    6    0  503  0.11038750346E+03  0.15620282143E+03 -0.35061554001E+03  0.39939451579E+03  0.00000000000E+00 0.  1.
<mgrwt>
<rscale>  0 0.17643692E+04</rscale>
<asrwt>0</asrwt>
<pdfrwt beam="1">  1        1 0.26985592E+00 0.17643692E+04</pdfrwt>
<pdfrwt beam="2">  1       -1 0.68259052E-01 0.17643692E+04</pdfrwt>
<totfact> 0.90023753E+00</totfact>
</mgrwt>
</event>
<event>
12    3  0.4634846E-008  0.2317711E+04  0.7818608E-02  0.8470970E-01
          2   -1    0    0  501    0  0.00000000000E+00  0.00000000000E+00  0.92736890393E+03  0.92736890393E+03  0.00000000000E+00 0. -1.
         -2   -1    0    0    0  501 -0.00000000000E+00 -0.00000000000E+00 -0.14481255617E+04  0.14481255617E+04  0.00000000000E+00 0.  1.
         23    2    1    2    0    0  0.76995834432E+03  0.33338071806E+03  0.31733817068E+03  0.90204833873E+03  0.94916466724E+02 0.  0.
        254    2    1    2    0    0 -0.76995834432E+03 -0.33338071806E+03 -0.83809482845E+03  0.14734461269E+04  0.87444953669E+03 0.  0.
         23    2    4    4    0    0 -0.34994068872E+03  0.27356734013E+03 -0.20935535244E+03  0.49953157003E+03  0.91676336413E+02 0.  0.
         23    2    4    4    0    0 -0.42001765561E+03 -0.60694805820E+03 -0.62873947601E+03  0.97391455686E+03  0.91626737354E+02 0.  0.
          2    1    3    3  502    0  0.27037084031E+03  0.16715801467E+03  0.11943097588E+03  0.33956729990E+03  0.00000000000E+00 0.  1.
         -2    1    3    3    0  502  0.49958750401E+03  0.16622270339E+03  0.19790719480E+03  0.56248103883E+03  0.00000000000E+00 0. -1.
         13    1    5    5    0    0 -0.33069409462E+02 -0.10802507301E+00 -0.43906852095E+01  0.33359790589E+02  0.00000000000E+00 0. -1.
        -13    1    5    5    0    0 -0.31687127926E+03  0.27367536521E+03 -0.20496466723E+03  0.46617177944E+03  0.00000000000E+00 0.  1.
          2    1    6    6  503    0 -0.82071935043E+02 -0.15760692130E+03 -0.19494645944E+03  0.26377995794E+03  0.00000000000E+00 0. -1.
         -2    1    6    6    0  503 -0.33794572056E+03 -0.44934113690E+03 -0.43379301657E+03  0.71013459892E+03  0.00000000000E+00 0.  1.
<mgrwt>
<rscale>  0 0.23177115E+04</rscale>
<asrwt>0</asrwt>
<pdfrwt beam="1">  1        2 0.14267214E+00 0.23177115E+04</pdfrwt>
<pdfrwt beam="2">  1       -2 0.22278855E+00 0.23177115E+04</pdfrwt>
<totfact> 0.24139759E+00</totfact>
</mgrwt>
</event>
<event>
12    3  0.4634846E-008  0.1530053E+04  0.7818608E-02  0.8864711E-01
         -1   -1    0    0    0  501 -0.00000000000E+00  0.00000000000E+00  0.66593386536E+03  0.66593386536E+03  0.00000000000E+00 0.  1.
          1   -1    0    0  501    0  0.00000000000E+00 -0.00000000000E+00 -0.87886396597E+03  0.87886396597E+03  0.00000000000E+00 0. -1.
         23    2    1    2    0    0  0.42341313735E+03 -0.10941372902E+03 -0.24878986972E+03  0.51192208687E+03  0.94433970430E+02 0.  0.
        254    2    1    2    0    0 -0.42341313735E+03  0.10941372902E+03  0.35859769104E+02  0.10328757445E+04  0.93503814439E+03 0.  0.
         23    2    4    4    0    0 -0.39245671460E+03 -0.19575154738E+03 -0.32248179392E+03  0.55256070362E+03  0.94804444191E+02 0.  0.
         23    2    4    4    0    0 -0.30956422758E+02  0.30516527640E+03  0.35834156302E+03  0.48031504084E+03  0.90607486658E+02 0.  0.
          4    1    3    3  502    0  0.40577304404E+03 -0.83036426024E+02 -0.21955792259E+03  0.46877765805E+03  0.00000000000E+00 0. -1.
         -4    1    3    3    0  502  0.17640093318E+02 -0.26377302996E+02 -0.29231947129E+02  0.43144428824E+02  0.00000000000E+00 0.  1.
         13    1    5    5    0    0 -0.25512475868E+03 -0.90531623664E+02 -0.23602050360E+03  0.35915218988E+03  0.00000000000E+00 0.  1.
        -13    1    5    5    0    0 -0.13733195592E+03 -0.10521992372E+03 -0.86461290318E+02  0.19340851374E+03  0.00000000000E+00 0. -1.
          1    1    6    6  503    0 -0.88178426908E+01 -0.31906046249E+01  0.43637254281E+01  0.10342939969E+02  0.00000000000E+00 0. -1.
         -1    1    6    6    0  503 -0.22138580067E+02  0.30835588103E+03  0.35397783760E+03  0.46997210087E+03  0.00000000000E+00 0.  1.
<mgrwt>
<rscale>  0 0.15300527E+04</rscale>
<asrwt>0</asrwt>
<pdfrwt beam="1">  1        1 0.13520984E+00 0.15300527E+04</pdfrwt>
<pdfrwt beam="2">  1       -1 0.10245136E+00 0.15300527E+04</pdfrwt>
<totfact> 0.16482582E+01</totfact>
</mgrwt>
</event>
<event>
12    3  0.4634846E-008  0.2134565E+04  0.7818608E-02  0.8546168E-01
         -2   -1    0    0    0  501 -0.00000000000E+00  0.00000000000E+00  0.10573103194E+04  0.10573103194E+04  0.00000000000E+00 0.  1.
          2   -1    0    0  501    0  0.00000000000E+00 -0.00000000000E+00 -0.10773488368E+04  0.10773488368E+04  0.00000000000E+00 0. -1.
         23    2    1    2    0    0  0.43402437054E+03  0.18318977335E+03 -0.74746874766E+03  0.88853980095E+03  0.94115895900E+02 0.  0.
        254    2    1    2    0    0 -0.43402437054E+03 -0.18318977335E+03  0.72743023028E+03  0.12461193552E+04  0.89538989283E+03 0.  0.
         23    2    4    4    0    0 -0.66202842356E+03 -0.27537811876E+03  0.39764254512E+03  0.82489668089E+03  0.90665310739E+02 0.  0.
         23    2    4    4    0    0  0.22800405302E+03  0.92188345413E+02  0.32978768517E+03  0.42122267430E+03  0.90465931906E+02 0.  0.
          3    1    3    3  502    0  0.40757550426E+03  0.19453689069E+03 -0.70385818829E+03  0.83628867189E+03  0.00000000000E+00 0. -1.
         -3    1    3    3    0  502  0.26448866273E+02 -0.11347117337E+02 -0.43610559377E+02  0.52251129061E+02  0.00000000000E+00 0.  1.
         13    1    5    5    0    0 -0.17443655828E+03 -0.35340324751E+02  0.77342269236E+02  0.19405895504E+03  0.00000000000E+00 0. -1.
        -13    1    5    5    0    0 -0.48759186527E+03 -0.24003779401E+03  0.32030027588E+03  0.63083772586E+03  0.00000000000E+00 0.  1.
          1    1    6    6  503    0  0.69984893227E+02  0.11722805738E+02  0.16303002709E+03  0.17780354099E+03  0.00000000000E+00 0. -1.
         -1    1    6    6    0  503  0.15801915979E+03  0.80465539675E+02  0.16675765807E+03  0.24341913331E+03  0.00000000000E+00 0.  1.
<mgrwt>
<rscale>  0 0.21345651E+04</rscale>
<asrwt>0</asrwt>
<pdfrwt beam="1">  1        2 0.16574597E+00 0.21345651E+04</pdfrwt>
<pdfrwt beam="2">  1       -2 0.16266313E+00 0.21345651E+04</pdfrwt>
<totfact> 0.49787016E+00</totfact>
</mgrwt>
</event>
<event>
12    3  0.4634846E-008  0.1521278E+04  0.7818608E-02  0.8870426E-01
         -3   -1    0    0    0  501 -0.00000000000E+00  0.00000000000E+00  0.47840136096E+03  0.47840136096E+03  0.00000000000E+00 0.  1.
          3   -1    0    0  501    0  0.00000000000E+00 -0.00000000000E+00 -0.12093847466E+04  0.12093847466E+04  0.00000000000E+00 0. -1.
         23    2    1    2    0    0 -0.38323422604E+03  0.10924613505E+03  0.24985091087E+02  0.41444788429E+03  0.11108377011E+03 0.  0.
        254    2    1    2    0    0  0.38323422604E+03 -0.10924613505E+03 -0.75596847673E+03  0.12733382233E+04  0.94398024502E+03 0.  0.
         23    2    4    4    0    0  0.11809055425E+03  0.25069925213E+03  0.95300538708E+02  0.30749925008E+03  0.93156331489E+02 0.  0.
         23    2    4    4    0    0  0.26514367180E+03 -0.35994538719E+03 -0.85126901544E+03  0.96583897319E+03  0.91236708837E+02 0.  0.
          1    1    3    3  502    0 -0.29214744648E+03  0.68643770624E+02 -0.28200391304E+02  0.30142554603E+03  0.00000000000E+00 0. -1.
         -1    1    3    3    0  502 -0.91086779562E+02  0.40602364429E+02  0.53185482392E+02  0.11302233826E+03  0.00000000000E+00 0.  1.
         13    1    5    5    0    0  0.57883509947E+02  0.14680991574E+03  0.61161211287E+01  0.15792738528E+03  0.00000000000E+00 0. -1.
        -13    1    5    5    0    0  0.60207044301E+02  0.10388933639E+03  0.89184417580E+02  0.14957186480E+03  0.00000000000E+00 0.  1.
          1    1    6    6  503    0  0.18495813913E+03 -0.28038663742E+03 -0.55453768600E+03  0.64833496347E+03  0.00000000000E+00 0. -1.
         -1    1    6    6    0  503  0.80185532667E+02 -0.79558749766E+02 -0.29673132944E+03  0.31750400971E+03  0.00000000000E+00 0.  1.
<mgrwt>
<rscale>  0 0.15212775E+04</rscale>
<asrwt>0</asrwt>
<pdfrwt beam="1">  1        3 0.18605919E+00 0.15212775E+04</pdfrwt>
<pdfrwt beam="2">  1       -3 0.73600210E-01 0.15212775E+04</pdfrwt>
<totfact> 0.80017430E-01</totfact>
</mgrwt>
</event>
<event>
12    3  0.4634846E-008  0.1103973E+04  0.7818608E-02  0.9201328E-01
          1   -1    0    0  501    0  0.00000000000E+00  0.00000000000E+00  0.93195263407E+03  0.93195263407E+03  0.00000000000E+00 0. -1.
         -1   -1    0    0    0  501 -0.00000000000E+00 -0.00000000000E+00 -0.32693625830E+03  0.32693625830E+03  0.00000000000E+00 0.  1.
         23    2    1    2    0    0  0.17117531903E+02  0.11254290495E+03  0.22874995389E+03  0.27123514744E+03  0.91011254536E+02 0.  0.
        254    2    1    2    0    0 -0.17117531903E+02 -0.11254290495E+03  0.37626642188E+03  0.98765374493E+03  0.90604888626E+03 0.  0.
         23    2    4    4    0    0  0.21701514572E+03 -0.16215423529E+03 -0.20537628741E+03  0.35260748604E+03  0.93611165409E+02 0.  0.
         23    2    4    4    0    0 -0.23413267762E+03  0.49611330338E+02  0.58164270929E+03  0.63504625889E+03  0.87727503210E+02 0.  0.
          4    1    3    3  502    0  0.52878135094E+02  0.84424550102E+02  0.16843015015E+03  0.19568422857E+03  0.00000000000E+00 0. -1.
         -4    1    3    3    0  502 -0.35760603191E+02  0.28118354846E+02  0.60319803735E+02  0.75550918872E+02  0.00000000000E+00 0.  1.
         13    1    5    5    0    0  0.33300986853E+02 -0.50415010715E+02 -0.84069578218E+01  0.61002507905E+02  0.00000000000E+00 0. -1.
        -13    1    5    5    0    0  0.18371415887E+03 -0.11173922457E+03 -0.19696932959E+03  0.29160497814E+03  0.00000000000E+00 0.  1.
          2    1    6    6  503    0 -0.40597281941E+02  0.14556683135E+02  0.40091249981E+02  0.58884162981E+02  0.00000000000E+00 0. -1.
         -2    1    6    6    0  503 -0.19353539568E+03  0.35054647204E+02  0.54155145931E+03  0.57616209590E+03  0.00000000000E+00 0.  1.
<mgrwt>
<rscale>  0 0.11039730E+04</rscale>
<asrwt>0</asrwt>
<pdfrwt beam="1">  1        1 0.14337733E+00 0.11039730E+04</pdfrwt>
<pdfrwt beam="2">  1       -1 0.50297886E-01 0.11039730E+04</pdfrwt>
<totfact> 0.67735981E+01</totfact>
</mgrwt>
</event>
<event>
12    3  0.4634846E-008  0.1686159E+04  0.7818608E-02  0.8769298E-01
         -2   -1    0    0    0  501 -0.00000000000E+00  0.00000000000E+00  0.38809192313E+03  0.38809192313E+03  0.00000000000E+00 0. -1.
          2   -1    0    0  501    0  0.00000000000E+00 -0.00000000000E+00 -0.18314812075E+04  0.18314812075E+04  0.00000000000E+00 0.  1.
         23    2    1    2    0    0 -0.10486323517E+03  0.55098859176E+03 -0.78418837386E+03  0.96796159954E+03  0.86101835987E+02 0.  0.
        254    2    1    2    0    0  0.10486323517E+03 -0.55098859176E+03 -0.65920091047E+03  0.12516115310E+04  0.90410223866E+03 0.  0.
         23    2    4    4    0    0  0.20770443686E+03 -0.32787905481E+03 -0.84210573956E+03  0.93126178891E+03  0.86374968687E+02 0.  0.
         23    2    4    4    0    0 -0.10284120170E+03 -0.22310953694E+03  0.18290482909E+03  0.32034974213E+03  0.93891440160E+02 0.  0.
          1    1    3    3  502    0 -0.50910083501E+02  0.29838354366E+03 -0.49496599313E+03  0.58018609952E+03  0.00000000000E+00 0. -1.
         -1    1    3    3    0  502 -0.53953151666E+02  0.25260504810E+03 -0.28922238073E+03  0.38777550002E+03  0.00000000000E+00 0.  1.
         13    1    5    5    0    0  0.25406795073E+02 -0.52781101707E+01 -0.74706774168E+02  0.79085180593E+02  0.00000000000E+00 0.  1.
        -13    1    5    5    0    0  0.18229764179E+03 -0.32260094464E+03 -0.76739896539E+03  0.85217660832E+03  0.00000000000E+00 0. -1.
          2    1    6    6  503    0 -0.10767653631E+03 -0.13064675796E+03  0.13208458248E+03  0.21473040951E+03  0.00000000000E+00 0. -1.
         -2    1    6    6    0  503  0.48353346157E+01 -0.92462778980E+02  0.50820246611E+02  0.10561933262E+03  0.00000000000E+00 0.  1.
<mgrwt>
<rscale>  0 0.16861590E+04</rscale>
<asrwt>0</asrwt>
<pdfrwt beam="1">  1        2 0.28176633E+00 0.16861590E+04</pdfrwt>
<pdfrwt beam="2">  1       -2 0.59706451E-01 0.16861590E+04</pdfrwt>
<totfact> 0.20660639E+01</totfact>
</mgrwt>
</event>
<event>
12    3  0.4634846E-008  0.1555554E+04  0.7818608E-02  0.8848328E-01
         -1   -1    0    0    0  501 -0.00000000000E+00  0.00000000000E+00  0.21469723336E+03  0.21469723336E+03  0.00000000000E+00 0.  1.
          1   -1    0    0  501    0  0.00000000000E+00 -0.00000000000E+00 -0.28176294186E+04  0.28176294186E+04  0.00000000000E+00 0. -1.
         23    2    1    2    0    0 -0.27380346423E+03  0.36492748952E+03 -0.49302206707E+03  0.67785080630E+03  0.90942549702E+02 0.  0.
        254    2    1    2    0    0  0.27380346423E+03 -0.36492748952E+03 -0.21099101181E+04  0.23544758456E+04  0.94005073876E+03 0.  0.
         23    2    4    4    0    0 -0.31046806230E+03 -0.30726203998E+03 -0.83133354174E+03  0.94391161303E+03  0.95148813342E+02 0.  0.
         23    2    4    4    0    0  0.58427152653E+03 -0.57665449545E+02 -0.12785765764E+04  0.14105642326E+04  0.10116754327E+03 0.  0.
          2    1    3    3  502    0 -0.50330642755E+02  0.34964170338E+02 -0.10535022758E+03  0.12187837076E+03  0.00000000000E+00 0. -1.
         -2    1    3    3    0  502 -0.22347282147E+03  0.32996331919E+03 -0.38767183949E+03  0.55597243554E+03  0.00000000000E+00 0.  1.
         13    1    5    5    0    0 -0.45645139443E+01 -0.40565329232E+02 -0.65176695600E+02  0.76905021765E+02  0.00000000000E+00 0. -1.
        -13    1    5    5    0    0 -0.30590354835E+03 -0.26669671075E+03 -0.76615684614E+03  0.86700659127E+03  0.00000000000E+00 0.  1.
          3    1    6    6  503    0  0.60088509110E+02 -0.13955280618E+02 -0.22030508450E+03  0.22877873380E+03  0.00000000000E+00 0. -1.
         -3    1    6    6    0  503  0.52418301741E+03 -0.43710168928E+02 -0.10582714919E+04  0.11817854988E+04  0.00000000000E+00 0.  1.
<mgrwt>
<rscale>  0 0.15555542E+04</rscale>
<asrwt>0</asrwt>
<pdfrwt beam="1">  1        1 0.43348140E+00 0.15555542E+04</pdfrwt>
<pdfrwt beam="2">  1       -1 0.33030347E-01 0.15555542E+04</pdfrwt>
<totfact> 0.67377127E+00</totfact>
</mgrwt>
</event>
<event>
12    3  0.4634846E-008  0.2719812E+04  0.7818608E-02  0.8328605E-01
         -1   -1    0    0    0  501 -0.00000000000E+00  0.00000000000E+00  0.43426294459E+03  0.43426294459E+03  0.00000000000E+00 0. -1.
          1   -1    0    0  501    0  0.00000000000E+00 -0.00000000000E+00 -0.42585809858E+04  0.42585809858E+04  0.00000000000E+00 0.  1.
         23    2    1    2    0    0 -0.98904754385E+02 -0.11907357189E+04 -0.20413633028E+04  0.23671321079E+04  0.92285316636E+02 0.  0.
        254    2    1    2    0    0  0.98904754385E+02  0.11907357189E+04 -0.17829547384E+04  0.23257118225E+04  0.89575341425E+03 0.  0.
         23    2    4    4    0    0 -0.85771434338E+02 -0.15948758277E+02 -0.63676064033E+03  0.64877218656E+03  0.88488050868E+02 0.  0.
         23    2    4    4    0    0  0.18467618872E+03  0.12066844772E+04 -0.11461940981E+04  0.16769396359E+04  0.90404146865E+02 0.  0.
          3    1    3    3  502    0  0.17297915584E+02 -0.19792379111E+03 -0.35145121828E+03  0.40372144333E+03  0.00000000000E+00 0. -1.
         -3    1    3    3    0  502 -0.11620266997E+03 -0.99281192781E+03 -0.16899120845E+04  0.19634106646E+04  0.00000000000E+00 0.  1.
         13    1    5    5    0    0  0.36166648066E+01  0.25140898370E+02 -0.10898949504E+03  0.11191003111E+03  0.00000000000E+00 0. -1.
        -13    1    5    5    0    0 -0.89388099144E+02 -0.41089656647E+02 -0.52777114529E+03  0.53686215545E+03  0.00000000000E+00 0.  1.
          1    1    6    6  503    0  0.12073765751E+03  0.51025624998E+03 -0.51169772544E+03  0.73264833638E+03  0.00000000000E+00 0. -1.
         -1    1    6    6    0  503  0.63938531208E+02  0.69642822723E+03 -0.63449637267E+03  0.94429129954E+03  0.00000000000E+00 0.  1.
<mgrwt>
<rscale>  0 0.27198117E+04</rscale>
<asrwt>0</asrwt>
<pdfrwt beam="1">  1        1 0.65516629E+00 0.27198117E+04</pdfrwt>
<pdfrwt beam="2">  1       -1 0.66809686E-01 0.27198117E+04</pdfrwt>
<totfact> 0.11041592E-01</totfact>
</mgrwt>
</event>
<event>
12    3  0.4634846E-008  0.2416760E+04  0.7818608E-02  0.8433255E-01
          2   -1    0    0  501    0  0.00000000000E+00  0.00000000000E+00  0.21198464870E+04  0.21198464870E+04  0.00000000000E+00 0.  1.
         -2   -1    0    0    0  501 -0.00000000000E+00 -0.00000000000E+00 -0.68881521205E+03  0.68881521205E+03  0.00000000000E+00 0. -1.
         23    2    1    2    0    0  0.47559370205E+03 -0.55960543635E+03 -0.23510182937E+03  0.77686281595E+03  0.94315167371E+02 0.  0.
        254    2    1    2    0    0 -0.47559370205E+03  0.55960543635E+03  0.16661331043E+04  0.20317988831E+04  0.90158724825E+03 0.  0.
         23    2    4    4    0    0 -0.48378698211E+03  0.68968191950E+03  0.84960973641E+03  0.11999660124E+04  0.91491707934E+02 0.  0.
         23    2    4    4    0    0  0.81932800563E+01 -0.13007648315E+03  0.81652336790E+03  0.83183287067E+03  0.90821214949E+02 0.  0.
          3    1    3    3  502    0  0.41888126080E+03 -0.44673733631E+03 -0.21448866560E+03  0.64887683421E+03  0.00000000000E+00 0. -1.
         -3    1    3    3    0  502  0.56712441251E+02 -0.11286810004E+03 -0.20613163773E+02  0.12798598173E+03  0.00000000000E+00 0.  1.
         13    1    5    5    0    0 -0.12161787003E+03  0.13308850555E+03  0.22499036314E+03  0.28831253897E+03  0.00000000000E+00 0.  1.
        -13    1    5    5    0    0 -0.36216911209E+03  0.55659341395E+03  0.62461937327E+03  0.91165347345E+03  0.00000000000E+00 0. -1.
          4    1    6    6  503    0  0.11404505161E+02 -0.77697071380E+02  0.69552967834E+03  0.69994887749E+03  0.00000000000E+00 0. -1.
         -4    1    6    6    0  503 -0.32112251048E+01 -0.52379411769E+02  0.12099368956E+03  0.13188399318E+03  0.00000000000E+00 0.  1.
<mgrwt>
<rscale>  0 0.24167602E+04</rscale>
<asrwt>0</asrwt>
<pdfrwt beam="1">  1        2 0.32613023E+00 0.24167602E+04</pdfrwt>
<pdfrwt beam="2">  1       -2 0.10597157E+00 0.24167602E+04</pdfrwt>
<totfact> 0.36975804E+00</totfact>
</mgrwt>
</event>
<event>
12    3  0.4634846E-008  0.1642576E+04  0.7818608E-02  0.8794811E-01
         -2   -1    0    0    0  501 -0.00000000000E+00  0.00000000000E+00  0.48209638705E+03  0.48209638705E+03  0.00000000000E+00 0.  1.
          2   -1    0    0  501    0  0.00000000000E+00 -0.00000000000E+00 -0.13991267565E+04  0.13991267565E+04  0.00000000000E+00 0. -1.
         23    2    1    2    0    0  0.41952351057E+03  0.19778611811E+03 -0.70850994009E+03  0.85226919096E+03  0.96213898264E+02 0.  0.
        254    2    1    2    0    0 -0.41952351057E+03 -0.19778611811E+03 -0.20852042932E+03  0.10289539525E+04  0.89450888344E+03 0.  0.
         23    2    4    4    0    0 -0.56656954781E+03 -0.11248745279E+03 -0.43713045231E+03  0.72959861400E+03  0.87043814672E+02 0.  0.
         23    2    4    4    0    0  0.14704603724E+03 -0.85298665326E+02  0.22861002299E+03  0.29935533854E+03  0.91938439871E+02 0.  0.
          3    1    3    3  502    0  0.11504053465E+03  0.26878446961E+02 -0.24463004694E+03  0.27166272360E+03  0.00000000000E+00 0. -1.
         -3    1    3    3    0  502  0.30448297592E+03  0.17090767115E+03 -0.46387989314E+03  0.58060646736E+03  0.00000000000E+00 0.  1.
         13    1    5    5    0    0 -0.25205536698E+03 -0.71583808600E+02 -0.15086531535E+03  0.30235160501E+03  0.00000000000E+00 0. -1.
        -13    1    5    5    0    0 -0.31451418084E+03 -0.40903644188E+02 -0.28626513696E+03  0.42724700899E+03  0.00000000000E+00 0.  1.
          3    1    6    6  503    0 -0.63437421663E+00  0.13926687180E+02  0.27557603924E+02  0.30883273475E+02  0.00000000000E+00 0. -1.
         -3    1    6    6    0  503  0.14768041145E+03 -0.99225352505E+02  0.20105241907E+03  0.26847206506E+03  0.00000000000E+00 0.  1.
<mgrwt>
<rscale>  0 0.16425760E+04</rscale>
<asrwt>0</asrwt>
<pdfrwt beam="1">  1        2 0.21525027E+00 0.16425760E+04</pdfrwt>
<pdfrwt beam="2">  1       -2 0.74168676E-01 0.16425760E+04</pdfrwt>
<totfact> 0.22664150E+01</totfact>
</mgrwt>
</event>
<event>
12    3  0.4634846E-008  0.1782983E+04  0.7818608E-02  0.8715401E-01
          1   -1    0    0  501    0  0.00000000000E+00  0.00000000000E+00  0.13061469109E+04  0.13061469109E+04  0.00000000000E+00 0. -1.
         -1   -1    0    0    0  501 -0.00000000000E+00 -0.00000000000E+00 -0.60847466529E+03  0.60847466529E+03  0.00000000000E+00 0.  1.
         23    2    1    2    0    0  0.49816630686E+03 -0.40361901760E+03  0.35663087598E+03  0.74175206727E+03  0.10923628945E+03 0.  0.
        254    2    1    2    0    0 -0.49816630686E+03  0.40361901760E+03  0.34104136965E+03  0.11728695089E+04  0.92099711647E+03 0.  0.
         23    2    4    4    0    0 -0.13570087370E+03  0.36480943825E+03  0.59755399643E+03  0.71940929853E+03  0.94753927642E+02 0.  0.
         23    2    4    4    0    0 -0.36246543315E+03  0.38809579355E+02 -0.25651262678E+03  0.45346021042E+03  0.83307028853E+02 0.  0.
          4    1    3    3  502    0  0.48274942364E+03 -0.37729480814E+03  0.31165488115E+03  0.68740609775E+03  0.00000000000E+00 0. -1.
         -4    1    3    3    0  502  0.15416883217E+02 -0.26324209461E+02  0.44975994831E+02  0.54345969518E+02  0.00000000000E+00 0.  1.
         13    1    5    5    0    0 -0.86703412216E+02  0.27596630766E+03  0.50550260468E+03  0.58241545995E+03  0.00000000000E+00 0.  1.
        -13    1    5    5    0    0 -0.48997461487E+02  0.88843130587E+02  0.92051391743E+02  0.13699383857E+03  0.00000000000E+00 0. -1.
          1    1    6    6  503    0 -0.10088032251E+03  0.35384423176E+02 -0.11098653751E+03  0.15410031921E+03  0.00000000000E+00 0. -1.
         -1    1    6    6    0  503 -0.26158511065E+03  0.34251561790E+01 -0.14552608927E+03  0.29935989121E+03  0.00000000000E+00 0.  1.
<mgrwt>
<rscale>  0 0.17829832E+04</rscale>
<asrwt>0</asrwt>
<pdfrwt beam="1">  1        1 0.20094568E+00 0.17829832E+04</pdfrwt>
<pdfrwt beam="2">  1       -1 0.93611487E-01 0.17829832E+04</pdfrwt>
<totfact> 0.93653457E+00</totfact>
</mgrwt>
</event>
<event>
12    3  0.4634846E-008  0.2965226E+04  0.7818608E-02  0.8253731E-01
         -1   -1    0    0    0  501 -0.00000000000E+00  0.00000000000E+00  0.15831245719E+04  0.15831245719E+04  0.00000000000E+00 0.  1.
          1   -1    0    0  501    0  0.00000000000E+00 -0.00000000000E+00 -0.13884825178E+04  0.13884825178E+04  0.00000000000E+00 0. -1.
         23    2    1    2    0    0 -0.54858609688E+03  0.45671302223E+03  0.12339900783E+04  0.14283882726E+04  0.89599406387E+02 0.  0.
        254    2    1    2    0    0  0.54858609688E+03 -0.45671302223E+03 -0.10393480242E+04  0.15432188171E+04  0.88980138890E+03 0.  0.
         23    2    4    4    0    0  0.48811958544E+03  0.15123283134E+03 -0.53531464208E+03  0.74566260845E+03  0.91207788317E+02 0.  0.
         23    2    4    4    0    0  0.60466511441E+02 -0.60794585357E+03 -0.50403338217E+03  0.79755620868E+03  0.93765109689E+02 0.  0.
          1    1    3    3  502    0 -0.49010564508E+02  0.18416370423E+02  0.12478804066E+03  0.13532646905E+03  0.00000000000E+00 0. -1.
         -1    1    3    3    0  502 -0.49957553237E+03  0.43829665181E+03  0.11092020376E+04  0.12930618035E+04  0.00000000000E+00 0.  1.
         13    1    5    5    0    0  0.10349162874E+03  0.11879320061E+01 -0.78317506586E+02  0.12979044741E+03  0.00000000000E+00 0. -1.
        -13    1    5    5    0    0  0.38462795670E+03  0.15004489933E+03 -0.45699713549E+03  0.61587216104E+03  0.00000000000E+00 0.  1.
          1    1    6    6  503    0  0.95713218533E+01 -0.44109025202E+03 -0.39240550132E+03  0.59045262138E+03  0.00000000000E+00 0. -1.
         -1    1    6    6    0  503  0.50895189587E+02 -0.16685560155E+03 -0.11162788084E+03  0.20710358730E+03  0.00000000000E+00 0.  1.
<mgrwt>
<rscale>  0 0.29652257E+04</rscale>
<asrwt>0</asrwt>
<pdfrwt beam="1">  1        1 0.21361270E+00 0.29652257E+04</pdfrwt>
<pdfrwt beam="2">  1       -1 0.24355763E+00 0.29652257E+04</pdfrwt>
<totfact> 0.51333305E-01</totfact>
</mgrwt>
</event>
<event>
12    3  0.4634846E-008  0.1265160E+04  0.7818608E-02  0.9057659E-01
          1   -1    0    0  501    0  0.00000000000E+00  0.00000000000E+00  0.95387841434E+03  0.95387841434E+03  0.00000000000E+00 0. -1.
         -1   -1    0    0    0  501 -0.00000000000E+00 -0.00000000000E+00 -0.41950595329E+03  0.41950595329E+03  0.00000000000E+00 0.  1.
         23    2    1    2    0    0 -0.14591074821E+03 -0.19024763369E+03  0.41827245236E+03  0.49036022699E+03  0.89538814163E+02 0.  0.
        254    2    1    2    0    0  0.14591074821E+03  0.19024763369E+03  0.11610000869E+03  0.88302414065E+03  0.84188378793E+03 0.  0.
         23    2    4    4    0    0  0.42890294032E+03  0.25293038193E+03  0.23272412459E+03  0.55714023261E+03  0.91176807966E+02 0.  0.
         23    2    4    4    0    0 -0.28299219211E+03 -0.62682748233E+02 -0.11662411590E+03  0.32588390804E+03  0.92657592147E+02 0.  0.
          2    1    3    3  502    0 -0.16470554547E+02 -0.55895183225E+02  0.17064831915E+03  0.18032304207E+03  0.00000000000E+00 0. -1.
         -2    1    3    3    0  502 -0.12944019366E+03 -0.13435245047E+03  0.24762413321E+03  0.31003718492E+03  0.00000000000E+00 0.  1.
         13    1    5    5    0    0  0.19719383544E+03  0.14132904648E+03  0.15723422660E+03  0.28910536164E+03  0.00000000000E+00 0.  1.
        -13    1    5    5    0    0  0.23170910488E+03  0.11160133544E+03  0.75489897995E+02  0.26803487097E+03  0.00000000000E+00 0. -1.
          2    1    6    6  503    0 -0.22833881806E+01  0.84412622377E+01  0.68214099224E+01  0.11090554679E+02  0.00000000000E+00 0. -1.
         -2    1    6    6    0  503 -0.28070880393E+03 -0.71124010471E+02 -0.12344552583E+03  0.31479335336E+03  0.00000000000E+00 0.  1.
<mgrwt>
<rscale>  0 0.12651603E+04</rscale>
<asrwt>0</asrwt>
<pdfrwt beam="1">  1        1 0.14675052E+00 0.12651603E+04</pdfrwt>
<pdfrwt beam="2">  1       -1 0.64539378E-01 0.12651603E+04</pdfrwt>
<totfact> 0.39468061E+01</totfact>
</mgrwt>
</event>
<event>
12    3  0.4634846E-008  0.1528364E+04  0.7818608E-02  0.8865807E-01
         -1   -1    0    0    0  501 -0.00000000000E+00  0.00000000000E+00  0.46779073100E+03  0.46779073100E+03  0.00000000000E+00 0.  1.
          1   -1    0    0  501    0  0.00000000000E+00 -0.00000000000E+00 -0.12483666634E+04  0.12483666634E+04  0.00000000000E+00 0. -1.
         23    2    1    2    0    0  0.21103933442E+03  0.36336479625E+03  0.38671029044E+02  0.42811006420E+03  0.72188660875E+02 0.  0.
        254    2    1    2    0    0 -0.21103933442E+03 -0.36336479625E+03 -0.81924696148E+03  0.12880473302E+04  0.90073790038E+03 0.  0.
         23    2    4    4    0    0 -0.53597867656E+03 -0.31740075464E+03 -0.39212701083E+03  0.74167432515E+03  0.91108897360E+02 0.  0.
         23    2    4    4    0    0  0.32493934214E+03 -0.45964041605E+02 -0.42711995064E+03  0.54637300508E+03  0.91617352328E+02 0.  0.
          2    1    3    3  502    0 -0.58103772985E+01  0.10154124070E+02 -0.10478703021E+01  0.11745839781E+02  0.00000000000E+00 0. -1.
         -2    1    3    3    0  502  0.21684971172E+03  0.35321067218E+03  0.39718899346E+02  0.41636422442E+03  0.00000000000E+00 0.  1.
         13    1    5    5    0    0 -0.33043392968E+03 -0.18550908014E+03 -0.28899845890E+03  0.47657141117E+03  0.00000000000E+00 0. -1.
        -13    1    5    5    0    0 -0.20554474689E+03 -0.13189167450E+03 -0.10312855193E+03  0.26510291398E+03  0.00000000000E+00 0.  1.
          1    1    6    6  503    0  0.25463849480E+03 -0.63523684459E+02 -0.28886869346E+03  0.39028341444E+03  0.00000000000E+00 0. -1.
         -1    1    6    6    0  503  0.70300847337E+02  0.17559642853E+02 -0.13825125718E+03  0.15608959064E+03  0.00000000000E+00 0.  1.
<mgrwt>
<rscale>  0 0.15283643E+04</rscale>
<asrwt>0</asrwt>
<pdfrwt beam="1">  1        1 0.19205641E+00 0.15283643E+04</pdfrwt>
<pdfrwt beam="2">  1       -1 0.71967806E-01 0.15283643E+04</pdfrwt>
<totfact> 0.18530360E+01</totfact>
</mgrwt>
</event>
<event>
12    3  0.4634846E-008  0.1881953E+04  0.7818608E-02  0.8663892E-01
          1   -1    0    0  501    0  0.00000000000E+00  0.00000000000E+00  0.96075085308E+03  0.96075085308E+03  0.00000000000E+00 0. -1.
         -1   -1    0    0    0  501 -0.00000000000E+00 -0.00000000000E+00 -0.92160883160E+03  0.92160883160E+03  0.00000000000E+00 0.  1.
         23    2    1    2    0    0  0.25199903107E+03  0.55267981475E+03 -0.37620789725E+03  0.72033256722E+03  0.91586768396E+02 0.  0.
        254    2    1    2    0    0 -0.25199903107E+03 -0.55267981475E+03  0.41534991873E+03  0.11620271175E+04  0.89935142043E+03 0.  0.
         23    2    4    4    0    0 -0.27919698022E+03 -0.78116414197E+03  0.35570953315E+03  0.90738165308E+03  0.92972156653E+02 0.  0.
         23    2    4    4    0    0  0.27197949152E+02  0.22848432722E+03  0.59640385583E+02  0.25464546438E+03  0.91337400397E+02 0.  0.
          4    1    3    3  502    0  0.12752525496E+03  0.17741909705E+03 -0.14679398627E+03  0.26322747018E+03  0.00000000000E+00 0. -1.
         -4    1    3    3    0  502  0.12447377611E+03  0.37526071770E+03 -0.22941391098E+03  0.45710509704E+03  0.00000000000E+00 0.  1.
         13    1    5    5    0    0 -0.12238165067E+03 -0.46293405642E+03  0.22775250534E+03  0.53024184360E+03  0.00000000000E+00 0.  1.
        -13    1    5    5    0    0 -0.15681532955E+03 -0.31823008556E+03  0.12795702781E+03  0.37713980949E+03  0.00000000000E+00 0. -1.
          1    1    6    6  503    0 -0.16228648558E+02  0.23739159579E+02 -0.15001750029E+02  0.32434075222E+02  0.00000000000E+00 0. -1.
         -1    1    6    6    0  503  0.43426597710E+02  0.20474516764E+03  0.74642135613E+02  0.22221138916E+03  0.00000000000E+00 0.  1.
<mgrwt>
<rscale>  0 0.18819527E+04</rscale>
<asrwt>0</asrwt>
<pdfrwt beam="1">  1        1 0.14780782E+00 0.18819527E+04</pdfrwt>
<pdfrwt beam="2">  1       -1 0.14178597E+00 0.18819527E+04</pdfrwt>
<totfact> 0.61743828E+00</totfact>
</mgrwt>
</event>
<event>
12    3  0.4634846E-008  0.1817814E+04  0.7818608E-02  0.8696883E-01
         -1   -1    0    0    0  501 -0.00000000000E+00  0.00000000000E+00  0.90211012158E+03  0.90211012158E+03  0.00000000000E+00 0.  1.
          1   -1    0    0  501    0  0.00000000000E+00 -0.00000000000E+00 -0.91575514932E+03  0.91575514932E+03  0.00000000000E+00 0. -1.
         23    2    1    2    0    0  0.10193468229E+03 -0.59245998835E+02 -0.63090821472E+03  0.64823040704E+03  0.90866481000E+02 0.  0.
        254    2    1    2    0    0 -0.10193468229E+03  0.59245998835E+02  0.61726318699E+03  0.11696348639E+04  0.98647407718E+03 0.  0.
         23    2    4    4    0    0 -0.39738116738E+03  0.71560826252E+02  0.73097897726E+03  0.83973961355E+03  0.88315396979E+02 0.  0.
         23    2    4    4    0    0  0.29544648508E+03 -0.12314827417E+02 -0.11371579027E+03  0.32989525031E+03  0.91974532900E+02 0.  0.
          1    1    3    3  502    0  0.23493333470E+02 -0.19800500224E+02 -0.40023240211E+03  0.40140998023E+03  0.00000000000E+00 0. -1.
         -1    1    3    3    0  502  0.78441348824E+02 -0.39445498612E+02 -0.23067581261E+03  0.24682042681E+03  0.00000000000E+00 0.  1.
         13    1    5    5    0    0 -0.38876549849E+03  0.67326634176E+02  0.73036120028E+03  0.83011985362E+03  0.00000000000E+00 0. -1.
        -13    1    5    5    0    0 -0.86156688865E+01  0.42341920760E+01  0.61777697123E+00  0.96197599391E+01  0.00000000000E+00 0.  1.
          4    1    6    6  503    0  0.25906260065E+03 -0.42341535936E+02 -0.96876267043E+02  0.27980573232E+03  0.00000000000E+00 0. -1.
         -4    1    6    6    0  503  0.36383884432E+02  0.30026708519E+02 -0.16839523228E+02  0.50089517999E+02  0.00000000000E+00 0.  1.
<mgrwt>
<rscale>  0 0.18178141E+04</rscale>
<asrwt>0</asrwt>
<pdfrwt beam="1">  1        1 0.14088541E+00 0.18178141E+04</pdfrwt>
<pdfrwt beam="2">  1       -1 0.13878617E+00 0.18178141E+04</pdfrwt>
<totfact> 0.71377088E+00</totfact>
</mgrwt>
</event>
<event>
12    3  0.4634846E-008  0.2742091E+04  0.7818608E-02  0.8321476E-01
         -2   -1    0    0    0  501 -0.00000000000E+00  0.00000000000E+00  0.86326773862E+03  0.86326773862E+03  0.00000000000E+00 0.  1.
          2   -1    0    0  501    0  0.00000000000E+00 -0.00000000000E+00 -0.21774999445E+04  0.21774999445E+04  0.00000000000E+00 0. -1.
         23    2    1    2    0    0  0.93218752193E+03  0.73329868542E+03 -0.24793617555E+03  0.12145611665E+04  0.83581947159E+02 0.  0.
        254    2    1    2    0    0 -0.93218752193E+03 -0.73329868542E+03 -0.10662960304E+04  0.18262065167E+04  0.88957432464E+03 0.  0.
         23    2    4    4    0    0 -0.10863551002E+04 -0.58542650728E+03 -0.98166081592E+03  0.15793447929E+04  0.88206679683E+02 0.  0.
         23    2    4    4    0    0  0.15416757826E+03 -0.14787217815E+03 -0.84635214434E+02  0.24686172372E+03  0.90242827178E+02 0.  0.
          3    1    3    3  502    0  0.76162170309E+03  0.61141823086E+03 -0.23484669664E+03  0.10045162231E+04  0.00000000000E+00 0.  1.
         -3    1    3    3    0  502  0.17056581884E+03  0.12188045457E+03 -0.13089478907E+02  0.21004494333E+03  0.00000000000E+00 0. -1.
         13    1    5    5    0    0 -0.60645674942E+03 -0.37436330705E+03 -0.55006212520E+03  0.90028107620E+03  0.00000000000E+00 0.  1.
        -13    1    5    5    0    0 -0.47989835078E+03 -0.21106320023E+03 -0.43159869072E+03  0.67906371675E+03  0.00000000000E+00 0. -1.
          4    1    6    6  503    0 -0.43991549316E+01 -0.91763531160E+00 -0.21033453007E+02  0.21508155757E+02  0.00000000000E+00 0. -1.
         -4    1    6    6    0  503  0.15856673319E+03 -0.14695454283E+03 -0.63601761427E+02  0.22535356796E+03  0.00000000000E+00 0.  1.
<mgrwt>
<rscale>  0 0.27420908E+04</rscale>
<asrwt>0</asrwt>
<pdfrwt beam="1">  1        2 0.33499999E+00 0.27420908E+04</pdfrwt>
<pdfrwt beam="2">  1       -2 0.13281042E+00 0.27420908E+04</pdfrwt>
<totfact> 0.19118287E+00</totfact>
</mgrwt>
</event>
<event>
12    3  0.4634846E-008  0.1822853E+04  0.7818608E-02  0.8694240E-01
         -2   -1    0    0    0  501 -0.00000000000E+00  0.00000000000E+00  0.18086931336E+04  0.18086931336E+04  0.00000000000E+00 0.  1.
          2   -1    0    0  501    0  0.00000000000E+00 -0.00000000000E+00 -0.45928099009E+03  0.45928099009E+03  0.00000000000E+00 0. -1.
         23    2    1    2    0    0  0.48839346950E+03 -0.47645860601E+03  0.54314857000E+03  0.87679604213E+03  0.90663918498E+02 0.  0.
        254    2    1    2    0    0 -0.48839346950E+03  0.47645860601E+03  0.80626357353E+03  0.13911780816E+04  0.90541400495E+03 0.  0.
         23    2    4    4    0    0 -0.14439949872E+03  0.19165667534E+03  0.89009950392E+03  0.92622232026E+03  0.89594437467E+02 0.  0.
         23    2    4    4    0    0 -0.34399397078E+03  0.28480193067E+03 -0.83835930393E+02  0.46495576132E+03  0.98546461690E+02 0.  0.
          4    1    3    3  502    0  0.45169555964E+03 -0.42566021889E+03  0.45932519607E+03  0.77213673419E+03  0.00000000000E+00 0. -1.
         -4    1    3    3    0  502  0.36697909859E+02 -0.50798387125E+02  0.83823373925E+02  0.10465930794E+03  0.00000000000E+00 0.  1.
         13    1    5    5    0    0 -0.75230782930E+02  0.12055624803E+03  0.36209807307E+03  0.38898392532E+03  0.00000000000E+00 0.  1.
        -13    1    5    5    0    0 -0.69168715789E+02  0.71100427313E+02  0.52800143086E+03  0.53723839494E+03  0.00000000000E+00 0. -1.
          2    1    6    6  503    0 -0.32875124845E+03  0.26010092842E+03 -0.52885054383E+02  0.42252420676E+03  0.00000000000E+00 0. -1.
         -2    1    6    6    0  503 -0.15242722326E+02  0.24701002254E+02 -0.30950876010E+02  0.42431554556E+02  0.00000000000E+00 0.  1.
<mgrwt>
<rscale>  0 0.18228531E+04</rscale>
<asrwt>0</asrwt>
<pdfrwt beam="1">  1        2 0.70658615E-01 0.18228531E+04</pdfrwt>
<pdfrwt beam="2">  1       -2 0.27826048E+00 0.18228531E+04</pdfrwt>
<totfact> 0.27649614E+00</totfact>
</mgrwt>
</event>
<event>
12    3  0.4634846E-008  0.1746526E+04  0.7818608E-02  0.8735265E-01
         -1   -1    0    0    0  501 -0.00000000000E+00  0.00000000000E+00  0.31792678681E+03  0.31792678681E+03  0.00000000000E+00 0.  1.
          1   -1    0    0  501    0  0.00000000000E+00 -0.00000000000E+00 -0.23986284446E+04  0.23986284446E+04  0.00000000000E+00 0. -1.
         23    2    1    2    0    0 -0.30746757071E+03  0.14113996902E+03 -0.15975570412E+04  0.16354020875E+04  0.88852068248E+02 0.  0.
        254    2    1    2    0    0  0.30746757071E+03 -0.14113996902E+03 -0.48314461661E+03  0.10811531439E+04  0.90609414641E+03 0.  0.
         23    2    4    4    0    0  0.56123474124E+03 -0.24215308249E+02 -0.69301106760E+02  0.57345183973E+03  0.92051904741E+02 0.  0.
         23    2    4    4    0    0 -0.25376717053E+03 -0.11692466077E+03 -0.41384350985E+03  0.50770130419E+03  0.91787855937E+02 0.  0.
          2    1    3    3  502    0 -0.28932647760E+03  0.15350481678E+03 -0.14793005505E+04  0.15151249645E+04  0.00000000000E+00 0. -1.
         -2    1    3    3    0  502 -0.18141093106E+02 -0.12364847766E+02 -0.11825649067E+03  0.12027712295E+03  0.00000000000E+00 0.  1.
         13    1    5    5    0    0  0.90493860727E+02  0.61903600068E+01 -0.44616557138E+02  0.10108460099E+03  0.00000000000E+00 0. -1.
        -13    1    5    5    0    0  0.47074088051E+03 -0.30405668255E+02 -0.24684549622E+02  0.47236723874E+03  0.00000000000E+00 0.  1.
          3    1    6    6  503    0 -0.48488000046E+02  0.11552208453E+02 -0.95392034546E+02  0.10762982822E+03  0.00000000000E+00 0. -1.
         -3    1    6    6    0  503 -0.20527917048E+03 -0.12847686922E+03 -0.31845147531E+03  0.40007147597E+03  0.00000000000E+00 0.  1.
<mgrwt>
<rscale>  0 0.17465260E+04</rscale>
<asrwt>0</asrwt>
<pdfrwt beam="1">  1        1 0.36901976E+00 0.17465260E+04</pdfrwt>
<pdfrwt beam="2">  1       -1 0.48911814E-01 0.17465260E+04</pdfrwt>
<totfact> 0.63231949E+00</totfact>
</mgrwt>
</event>
<event>
12    3  0.4634846E-008  0.1222251E+04  0.7818608E-02  0.9093600E-01
          2   -1    0    0  501    0  0.00000000000E+00  0.00000000000E+00  0.62290819415E+03  0.62290819415E+03  0.00000000000E+00 0. -1.
         -2   -1    0    0    0  501 -0.00000000000E+00 -0.00000000000E+00 -0.59956566056E+03  0.59956566056E+03  0.00000000000E+00 0.  1.
         23    2    1    2    0    0 -0.11299787059E+02 -0.26853428434E+03  0.24542914808E+02  0.28412983910E+03  0.88820401637E+02 0.  0.
        254    2    1    2    0    0  0.11299787059E+02  0.26853428434E+03 -0.12003812142E+01  0.93834401561E+03  0.89902708728E+03 0.  0.
         23    2    4    4    0    0  0.42884410401E+03  0.23392059139E+02 -0.56406755718E+02  0.44274986271E+03  0.91603847441E+02 0.  0.
         23    2    4    4    0    0 -0.41754431695E+03  0.24514222520E+03  0.55206374503E+02  0.49559415289E+03  0.90154608314E+02 0.  0.
          2    1    3    3  502    0  0.13633902031E+02 -0.23948328909E+03  0.23581496836E+01  0.23988265862E+03  0.00000000000E+00 0. -1.
         -2    1    3    3    0  502 -0.24933689090E+02 -0.29050995248E+02  0.22184765125E+02  0.44247180477E+02  0.00000000000E+00 0.  1.
         13    1    5    5    0    0  0.38968220204E+03  0.59944188729E+01 -0.26768508044E+02  0.39064652138E+03  0.00000000000E+00 0.  1.
        -13    1    5    5    0    0  0.39161901972E+02  0.17397640266E+02 -0.29638247674E+02  0.52103341333E+02  0.00000000000E+00 0. -1.
          1    1    6    6  503    0 -0.46483618200E+02  0.16935752529E+01 -0.83941143477E+01  0.47265802794E+02  0.00000000000E+00 0. -1.
         -1    1    6    6    0  503 -0.37106069875E+03  0.24344864995E+03  0.63600488851E+02  0.44832835010E+03  0.00000000000E+00 0.  1.
<mgrwt>
<rscale>  0 0.12222510E+04</rscale>
<asrwt>0</asrwt>
<pdfrwt beam="1">  1        2 0.95832030E-01 0.12222510E+04</pdfrwt>
<pdfrwt beam="2">  1       -2 0.92240871E-01 0.12222510E+04</pdfrwt>
<totfact> 0.46625852E+01</totfact>
</mgrwt>
</event>
<event>
12    3  0.4634846E-008  0.1074762E+04  0.7818608E-02  0.9230146E-01
         -2   -1    0    0    0  501 -0.00000000000E+00  0.00000000000E+00  0.13530483814E+03  0.13530483814E+03  0.00000000000E+00 0.  1.
          2   -1    0    0  501    0  0.00000000000E+00 -0.00000000000E+00 -0.21342783207E+04  0.21342783207E+04  0.00000000000E+00 0. -1.
         23    2    1    2    0    0  0.69038444194E+01 -0.19170640736E+03 -0.30138916450E+03  0.37035429375E+03  0.97610781824E+02 0.  0.
        254    2    1    2    0    0 -0.69038444194E+01  0.19170640736E+03 -0.16975843180E+04  0.18992288651E+04  0.82974619939E+03 0.  0.
         23    2    4    4    0    0  0.38903810638E+03 -0.40279467009E+01 -0.82576962174E+03  0.91731275474E+03  0.90555779833E+02 0.  0.
         23    2    4    4    0    0 -0.39594195080E+03  0.19573435406E+03 -0.87181469630E+03  0.98191611033E+03  0.94954817077E+02 0.  0.
          2    1    3    3  502    0  0.26239458202E+02 -0.32845464590E+02 -0.12646623690E+03  0.13327056234E+03  0.00000000000E+00 0. -1.
         -2    1    3    3    0  502 -0.19335613783E+02 -0.15886094277E+03 -0.17492292761E+03  0.23708373141E+03  0.00000000000E+00 0.  1.
         13    1    5    5    0    0  0.19812052663E+03  0.42228497346E+02 -0.44088878474E+03  0.48519883509E+03  0.00000000000E+00 0. -1.
        -13    1    5    5    0    0  0.19091757975E+03 -0.46256444047E+02 -0.38488083699E+03  0.43211391965E+03  0.00000000000E+00 0.  1.
          1    1    6    6  503    0 -0.15584959601E+03  0.43345086556E+02 -0.39349399554E+03  0.42544731475E+03  0.00000000000E+00 0. -1.
         -1    1    6    6    0  503 -0.24009235479E+03  0.15238926750E+03 -0.47832070075E+03  0.55646879557E+03  0.00000000000E+00 0.  1.
<mgrwt>
<rscale>  0 0.10747617E+04</rscale>
<asrwt>0</asrwt>
<pdfrwt beam="1">  1        2 0.32835054E+00 0.10747617E+04</pdfrwt>
<pdfrwt beam="2">  1       -2 0.20816127E-01 0.10747617E+04</pdfrwt>
<totfact> 0.11179366E+02</totfact>
</mgrwt>
</event>
<event>
12    3  0.4634846E-008  0.3136087E+04  0.7818608E-02  0.8205903E-01
          4   -1    0    0  501    0  0.00000000000E+00  0.00000000000E+00  0.16250886438E+04  0.16250886438E+04  0.00000000000E+00 0. -1.
         -4   -1    0    0    0  501 -0.00000000000E+00 -0.00000000000E+00 -0.15130008379E+04  0.15130008379E+04  0.00000000000E+00 0.  1.
         23    2    1    2    0    0 -0.78164013481E+03 -0.11900172010E+04  0.25293319937E+03  0.14492607246E+04  0.96328632382E+02 0.  0.
        254    2    1    2    0    0  0.78164013481E+03  0.11900172010E+04 -0.14084539346E+03  0.16888287571E+04  0.89733099069E+03 0.  0.
         23    2    4    4    0    0 -0.12392346654E+03  0.33303313964E+03 -0.23274266604E+03  0.43553632975E+03  0.96201082545E+02 0.  0.
         23    2    4    4    0    0  0.90556360135E+03  0.85698406136E+03  0.91897272579E+02  0.12532924273E+04  0.88485491239E+02 0.  0.
          2    1    3    3  502    0 -0.46527383355E+03 -0.78037846646E+03  0.18559318335E+03  0.92731608463E+03  0.00000000000E+00 0.  1.
         -2    1    3    3    0  502 -0.31636630126E+03 -0.40963873454E+03  0.67340016014E+02  0.52194463994E+03  0.00000000000E+00 0. -1.
         13    1    5    5    0    0 -0.13754675013E+03  0.28550817474E+03 -0.18580980540E+03  0.36736808530E+03  0.00000000000E+00 0.  1.
        -13    1    5    5    0    0  0.13623283585E+02  0.47524964900E+02 -0.46932860638E+02  0.68168244455E+02  0.00000000000E+00 0. -1.
          2    1    6    6  503    0  0.28633630935E+03  0.32902345691E+03  0.32638473377E+02  0.43739020016E+03  0.00000000000E+00 0. -1.
         -2    1    6    6    0  503  0.61922729200E+03  0.52796060445E+03  0.59258799202E+02  0.81590222716E+03  0.00000000000E+00 0.  1.
<mgrwt>
<rscale>  0 0.31360870E+04</rscale>
<asrwt>0</asrwt>
<pdfrwt beam="1">  1        4 0.25001364E+00 0.31360870E+04</pdfrwt>
<pdfrwt beam="2">  1       -4 0.23276936E+00 0.31360870E+04</pdfrwt>
<totfact> 0.85715052E-03</totfact>
</mgrwt>
</event>
<event>
12    3  0.4634846E-008  0.1145152E+04  0.7818608E-02  0.9162268E-01
          1   -1    0    0  501    0  0.00000000000E+00  0.00000000000E+00  0.10115253154E+04  0.10115253154E+04  0.00000000000E+00 0. -1.
         -1   -1    0    0    0  501 -0.00000000000E+00 -0.00000000000E+00 -0.32410767911E+03  0.32410767911E+03  0.00000000000E+00 0.  1.
         23    2    1    2    0    0 -0.17346168448E+03 -0.37839213302E+01  0.36612343924E+01  0.19644145238E+03  0.92046540024E+02 0.  0.
        254    2    1    2    0    0  0.17346168448E+03  0.37839213302E+01  0.68375640193E+03  0.11391915422E+04  0.89450057491E+03 0.  0.
         23    2    4    4    0    0  0.14467719636E+03 -0.40426678417E+03  0.15875575803E+03  0.46729580530E+03  0.93802212183E+02 0.  0.
         23    2    4    4    0    0  0.28784488129E+02  0.40805070550E+03  0.52500064390E+03  0.67189573687E+03  0.92110152037E+02 0.  0.
          2    1    3    3  502    0 -0.95115246228E+02  0.29950944319E+02  0.34826213917E+02  0.10562591683E+03  0.00000000000E+00 0. -1.
         -2    1    3    3    0  502 -0.78346438257E+02 -0.33734865650E+02 -0.31164979525E+02  0.90815535547E+02  0.00000000000E+00 0.  1.
         13    1    5    5    0    0  0.97756083062E+01  0.85388952915E+00 -0.36395511206E+01  0.10466039243E+02  0.00000000000E+00 0.  1.
        -13    1    5    5    0    0  0.13490158805E+03 -0.40512067370E+03  0.16239530915E+03  0.45682976606E+03  0.00000000000E+00 0. -1.
          2    1    6    6  503    0  0.13253783062E+02  0.24734600601E+03  0.24327891566E+03  0.34718919951E+03  0.00000000000E+00 0. -1.
         -2    1    6    6    0  503  0.15530705067E+02  0.16070469950E+03  0.28172172824E+03  0.32470653735E+03  0.00000000000E+00 0.  1.
<mgrwt>
<rscale>  0 0.11451517E+04</rscale>
<asrwt>0</asrwt>
<pdfrwt beam="1">  1        1 0.15561928E+00 0.11451517E+04</pdfrwt>
<pdfrwt beam="2">  1       -1 0.49862720E-01 0.11451517E+04</pdfrwt>
<totfact> 0.59392265E+01</totfact>
</mgrwt>
</event>
<event>
12    3  0.4634846E-008  0.1630779E+04  0.7818608E-02  0.8801860E-01
          2   -1    0    0  501    0  0.00000000000E+00  0.00000000000E+00  0.10418350152E+04  0.10418350152E+04  0.00000000000E+00 0. -1.
         -2   -1    0    0    0  501 -0.00000000000E+00 -0.00000000000E+00 -0.63816214768E+03  0.63816214768E+03  0.00000000000E+00 0.  1.
         23    2    1    2    0    0 -0.18111298444E+03 -0.40124222298E+03 -0.22060425646E+03  0.50067600675E+03  0.90625554548E+02 0.  0.
        254    2    1    2    0    0  0.18111298444E+03  0.40124222298E+03  0.62427712397E+03  0.11793211561E+04  0.89848718805E+03 0.  0.
         23    2    4    4    0    0  0.22611673702E+03  0.62690387500E+03  0.64597186014E+03  0.93248460324E+03  0.90059113647E+02 0.  0.
         23    2    4    4    0    0 -0.45003752576E+02 -0.22566165202E+03 -0.21694736165E+02  0.24683655286E+03  0.86655082440E+02 0.  0.
          3    1    3    3  502    0 -0.10958934947E+02 -0.11883308572E+03 -0.68170996095E+02  0.13743611325E+03  0.00000000000E+00 0. -1.
         -3    1    3    3    0  502 -0.17015404950E+03 -0.28240913725E+03 -0.15243326037E+03  0.36323989350E+03  0.00000000000E+00 0.  1.
         13    1    5    5    0    0  0.16421081196E+03  0.37278650323E+03  0.34564810379E+03  0.53423550931E+03  0.00000000000E+00 0. -1.
        -13    1    5    5    0    0  0.61905925056E+02  0.25411737177E+03  0.30032375635E+03  0.39824909393E+03  0.00000000000E+00 0.  1.
          3    1    6    6  503    0 -0.35733140647E+02 -0.23454207299E+02 -0.10993423822E+02  0.44134029364E+02  0.00000000000E+00 0. -1.
         -3    1    6    6    0  503 -0.92706119283E+01 -0.20220744472E+03 -0.10701312342E+02  0.20270252350E+03  0.00000000000E+00 0.  1.
<mgrwt>
<rscale>  0 0.16307786E+04</rscale>
<asrwt>0</asrwt>
<pdfrwt beam="1">  1        2 0.16028231E+00 0.16307786E+04</pdfrwt>
<pdfrwt beam="2">  1       -2 0.98178792E-01 0.16307786E+04</pdfrwt>
<totfact> 0.19553379E+01</totfact>
</mgrwt>
</event>
<event>
12    3  0.4634846E-008  0.1951450E+04  0.7818608E-02  0.8629662E-01
          2   -1    0    0  501    0  0.00000000000E+00  0.00000000000E+00  0.60854658911E+03  0.60854658911E+03  0.00000000000E+00 0. -1.
         -2   -1    0    0    0  501 -0.00000000000E+00 -0.00000000000E+00 -0.15644482365E+04  0.15644482365E+04  0.00000000000E+00 0.  1.
         23    2    1    2    0    0  0.30874434448E+03  0.59486169534E+03 -0.46681353930E+01  0.67620085371E+03  0.89678850535E+02 0.  0.
        254    2    1    2    0    0 -0.30874434448E+03 -0.59486169534E+03 -0.95123351204E+03  0.14967939719E+04  0.94146879565E+03 0.  0.
         23    2    4    4    0    0  0.54085283352E+02  0.21456305724E+03 -0.34165188949E+03  0.41659742396E+03  0.88684139790E+02 0.  0.
         23    2    4    4    0    0 -0.36282962783E+03 -0.80942475259E+03 -0.60958162255E+03  0.10801965480E+04  0.91766327110E+02 0.  0.
          4    1    3    3  502    0  0.15955809001E+03  0.35444849555E+03 -0.41322425282E+02  0.39089648619E+03  0.00000000000E+00 0. -1.
         -4    1    3    3    0  502  0.14918625447E+03  0.24041319979E+03  0.36654289889E+02  0.28530436752E+03  0.00000000000E+00 0.  1.
         13    1    5    5    0    0 -0.22584206155E+02  0.35995160171E+02 -0.81072419194E+02  0.91533791997E+02  0.00000000000E+00 0.  1.
        -13    1    5    5    0    0  0.76669489507E+02  0.17856789707E+03 -0.26057947030E+03  0.32506363197E+03  0.00000000000E+00 0. -1.
          3    1    6    6  503    0 -0.21801077591E+03 -0.40007084779E+03 -0.34757971396E+03  0.57305936797E+03  0.00000000000E+00 0. -1.
         -3    1    6    6    0  503 -0.14481885192E+03 -0.40935390480E+03 -0.26200190860E+03  0.50713718001E+03  0.00000000000E+00 0.  1.
<mgrwt>
<rscale>  0 0.19514504E+04</rscale>
<asrwt>0</asrwt>
<pdfrwt beam="1">  1        2 0.93622552E-01 0.19514504E+04</pdfrwt>
<pdfrwt beam="2">  1       -2 0.24068434E+00 0.19514504E+04</pdfrwt>
<totfact> 0.33344400E+00</totfact>
</mgrwt>
</event>
<event>
12    3  0.4634846E-008  0.2531992E+04  0.7818608E-02  0.8391676E-01
          4   -1    0    0  501    0  0.00000000000E+00  0.00000000000E+00  0.61645221219E+03  0.61645221219E+03  0.00000000000E+00 0. -1.
         -4   -1    0    0    0  501 -0.00000000000E+00 -0.00000000000E+00 -0.25999510868E+04  0.25999510868E+04  0.00000000000E+00 0.  1.
         23    2    1    2    0    0 -0.54181127766E+03 -0.28390913953E+03 -0.20195673905E+04  0.21119588560E+04  0.86913201261E+02 0.  0.
        254    2    1    2    0    0  0.54181127766E+03  0.28390913953E+03  0.36068515846E+02  0.11044444430E+04  0.91887579673E+03 0.  0.
         23    2    4    4    0    0 -0.13243246642E+03  0.11450241211E+03  0.29655506965E+03  0.35659940219E+03  0.92569237684E+02 0.  0.
         23    2    4    4    0    0  0.67424374408E+03  0.16940672742E+03 -0.26048655381E+03  0.74784504084E+03  0.90087150472E+02 0.  0.
          3    1    3    3  502    0 -0.42825165879E+02 -0.16109270760E+02 -0.24450116894E+03  0.24874550257E+03  0.00000000000E+00 0. -1.
         -3    1    3    3    0  502 -0.49898611178E+03 -0.26779986877E+03 -0.17750662215E+04  0.18632133534E+04  0.00000000000E+00 0.  1.
         13    1    5    5    0    0 -0.14193305014E+03  0.10579031179E+03  0.29441051590E+03  0.34353185102E+03  0.00000000000E+00 0. -1.
        -13    1    5    5    0    0  0.95005837167E+01  0.87121003179E+01  0.21445537523E+01  0.13067551175E+02  0.00000000000E+00 0.  1.
          1    1    6    6  503    0  0.36675805021E+03  0.72353282019E+02 -0.96400596753E+02  0.38605639467E+03  0.00000000000E+00 0. -1.
         -1    1    6    6    0  503  0.30748569386E+03  0.97053445398E+02 -0.16408595706E+03  0.36178864617E+03  0.00000000000E+00 0.  1.
<mgrwt>
<rscale>  0 0.25319918E+04</rscale>
<asrwt>0</asrwt>
<pdfrwt beam="1">  1        4 0.94838803E-01 0.25319918E+04</pdfrwt>
<pdfrwt beam="2">  1       -4 0.39999247E+00 0.25319918E+04</pdfrwt>
<totfact> 0.11328783E-02</totfact>
</mgrwt>
</event>
<event>
12    3  0.4634846E-008  0.2269941E+04  0.7818608E-02  0.8489868E-01
         -2   -1    0    0    0  501 -0.00000000000E+00  0.00000000000E+00  0.43096926725E+03  0.43096926725E+03  0.00000000000E+00 0.  1.
          2   -1    0    0  501    0  0.00000000000E+00 -0.00000000000E+00 -0.29889794867E+04  0.29889794867E+04  0.00000000000E+00 0. -1.
         23    2    1    2    0    0 -0.59878691443E+03  0.63858911498E+03 -0.51391624502E+03  0.10191130202E+04  0.90219811076E+02 0.  0.
        254    2    1    2    0    0  0.59878691443E+03 -0.63858911498E+03 -0.20440939744E+04  0.24008357337E+04  0.90517966040E+03 0.  0.
         23    2    4    4    0    0  0.36990128706E+03  0.22562599046E+02 -0.20987187289E+03  0.43550646366E+03  0.91014525309E+02 0.  0.
         23    2    4    4    0    0  0.22888562737E+03 -0.66115171403E+03 -0.18342221015E+04  0.19653292701E+04  0.92941932563E+02 0.  0.
          1    1    3    3  502    0 -0.16370497096E+03  0.14048404407E+03 -0.16328497219E+03  0.27054956348E+03  0.00000000000E+00 0. -1.
         -1    1    3    3    0  502 -0.43508194347E+03  0.49810507091E+03 -0.35063127283E+03  0.74856345669E+03  0.00000000000E+00 0.  1.
         13    1    5    5    0    0  0.68901609661E+02  0.18492083675E+02 -0.52801116896E+01  0.71535086161E+02  0.00000000000E+00 0.  1.
        -13    1    5    5    0    0  0.30099967740E+03  0.40705153713E+01 -0.20459176120E+03  0.36397137750E+03  0.00000000000E+00 0. -1.
          2    1    6    6  503    0  0.32151445850E+02 -0.10984672519E+03 -0.40553466271E+03  0.42137676866E+03  0.00000000000E+00 0. -1.
         -2    1    6    6    0  503  0.19673418152E+03 -0.55130498884E+03 -0.14286874388E+04  0.15439525014E+04  0.00000000000E+00 0.  1.
<mgrwt>
<rscale>  0 0.22699412E+04</rscale>
<asrwt>0</asrwt>
<pdfrwt beam="1">  1        2 0.45984300E+00 0.22699412E+04</pdfrwt>
<pdfrwt beam="2">  1       -2 0.66302964E-01 0.22699412E+04</pdfrwt>
<totfact> 0.33659614E+00</totfact>
</mgrwt>
</event>
<event>
12    3  0.4634846E-008  0.1990761E+04  0.7818608E-02  0.8610952E-01
          2   -1    0    0  501    0  0.00000000000E+00  0.00000000000E+00  0.26726081324E+04  0.26726081324E+04  0.00000000000E+00 0. -1.
         -2   -1    0    0    0  501 -0.00000000000E+00 -0.00000000000E+00 -0.37071755095E+03  0.37071755095E+03  0.00000000000E+00 0.  1.
         23    2    1    2    0    0  0.70882841314E+03  0.28426040844E+03  0.12193435170E+04  0.14416304632E+04  0.90873982768E+02 0.  0.
        254    2    1    2    0    0 -0.70882841314E+03 -0.28426040844E+03  0.10825470643E+04  0.16016952201E+04  0.90015428262E+03 0.  0.
         23    2    4    4    0    0 -0.28851014699E+03  0.30851336213E+03  0.27388544167E+03  0.51149991411E+03  0.90555659363E+02 0.  0.
         23    2    4    4    0    0 -0.42031826615E+03 -0.59277377057E+03  0.80866162268E+03  0.10901953060E+04  0.80894976987E+02 0.  0.
          2    1    3    3  502    0  0.60987747217E+03  0.27060105561E+03  0.10232849397E+04  0.12215922111E+04  0.00000000000E+00 0. -1.
         -2    1    3    3    0  502  0.98950940977E+02  0.13659352829E+02  0.19605857735E+03  0.22003825211E+03  0.00000000000E+00 0.  1.
         13    1    5    5    0    0 -0.24802696192E+03  0.25781692502E+03  0.18883951228E+03  0.40453343751E+03  0.00000000000E+00 0. -1.
        -13    1    5    5    0    0 -0.40483185076E+02  0.50696437108E+02  0.85045929398E+02  0.10696647660E+03  0.00000000000E+00 0.  1.
          2    1    6    6  503    0 -0.26817023720E+03 -0.42980467362E+03  0.59408184362E+03  0.78075640920E+03  0.00000000000E+00 0. -1.
         -2    1    6    6    0  503 -0.15214802895E+03 -0.16296909695E+03  0.21457977905E+03  0.30943889680E+03  0.00000000000E+00 0.  1.
<mgrwt>
<rscale>  0 0.19907614E+04</rscale>
<asrwt>0</asrwt>
<pdfrwt beam="1">  1        2 0.41117047E+00 0.19907614E+04</pdfrwt>
<pdfrwt beam="2">  1       -2 0.57033471E-01 0.19907614E+04</pdfrwt>
<totfact> 0.73953713E+00</totfact>
</mgrwt>
</event>
<event>
12    3  0.4634846E-008  0.1639316E+04  0.7818608E-02  0.8796752E-01
         -2   -1    0    0    0  501 -0.00000000000E+00  0.00000000000E+00  0.51048697719E+03  0.51048697719E+03  0.00000000000E+00 0.  1.
          2   -1    0    0  501    0  0.00000000000E+00 -0.00000000000E+00 -0.13160754587E+04  0.13160754587E+04  0.00000000000E+00 0. -1.
         23    2    1    2    0    0 -0.20211548089E+02 -0.32236772004E+03  0.24409362869E+03  0.41519352637E+03  0.92057108206E+02 0.  0.
        254    2    1    2    0    0  0.20211548089E+02  0.32236772004E+03 -0.10496821102E+04  0.14113689095E+04  0.88645372845E+03 0.  0.
         23    2    4    4    0    0 -0.38560704982E+03  0.29487619663E+03 -0.38300689177E+03  0.62515489848E+03  0.92084742155E+02 0.  0.
         23    2    4    4    0    0  0.40581859791E+03  0.27491523414E+02 -0.66667521841E+03  0.78621401103E+03  0.90730954008E+02 0.  0.
          2    1    3    3  502    0 -0.20083585837E+02 -0.12246867991E+02  0.61684783647E+01  0.24318435825E+02  0.00000000000E+00 0. -1.
         -2    1    3    3    0  502 -0.12796225259E+00 -0.31012085205E+03  0.23792515032E+03  0.39087509054E+03  0.00000000000E+00 0.  1.
         13    1    5    5    0    0 -0.34543571199E+03  0.24560553737E+03 -0.36428440938E+03  0.55888374643E+03  0.00000000000E+00 0. -1.
        -13    1    5    5    0    0 -0.40171337828E+02  0.49270659256E+02 -0.18722482384E+02  0.66271152042E+02  0.00000000000E+00 0.  1.
          3    1    6    6  503    0  0.16184524179E+03 -0.33461721954E+02 -0.26624154677E+03  0.31336580917E+03  0.00000000000E+00 0. -1.
         -3    1    6    6    0  503  0.24397335612E+03  0.60953245368E+02 -0.40043367164E+03  0.47284820186E+03  0.00000000000E+00 0.  1.
<mgrwt>
<rscale>  0 0.16393162E+04</rscale>
<asrwt>0</asrwt>
<pdfrwt beam="1">  1        2 0.20247315E+00 0.16393162E+04</pdfrwt>
<pdfrwt beam="2">  1       -2 0.78536458E-01 0.16393162E+04</pdfrwt>
<totfact> 0.22287451E+01</totfact>
</mgrwt>
</event>
<event>
12    3  0.4634846E-008  0.2403053E+04  0.7818608E-02  0.8438362E-01
         -2   -1    0    0    0  501 -0.00000000000E+00  0.00000000000E+00  0.47467050734E+03  0.47467050734E+03  0.00000000000E+00 0.  1.
          2   -1    0    0  501    0  0.00000000000E+00 -0.00000000000E+00 -0.30414056953E+04  0.30414056953E+04  0.00000000000E+00 0. -1.
         23    2    1    2    0    0  0.86256630910E+03 -0.49895067474E+03 -0.72825781561E+03  0.12386352022E+04  0.10433266427E+03 0.  0.
        254    2    1    2    0    0 -0.86256630910E+03  0.49895067474E+03 -0.18384773724E+04  0.22774410004E+04  0.90208982270E+03 0.  0.
         23    2    4    4    0    0 -0.20571646794E+03  0.83577771061E+00 -0.12252902860E+04  0.12459326107E+04  0.93229940783E+02 0.  0.
         23    2    4    4    0    0 -0.65684984116E+03  0.49811489703E+03 -0.61318708644E+03  0.10315083897E+04  0.91874863942E+02 0.  0.
          2    1    3    3  502    0  0.60032028509E+02 -0.35574014794E+02 -0.20985730506E+02  0.72868071611E+02  0.00000000000E+00 0.  1.
         -2    1    3    3    0  502  0.80253428059E+03 -0.46337665994E+03 -0.70727208510E+03  0.11657671306E+04  0.00000000000E+00 0. -1.
         13    1    5    5    0    0 -0.13507300788E+03  0.44305260470E+02 -0.82191516949E+03  0.83411762923E+03  0.00000000000E+00 0.  1.
        -13    1    5    5    0    0 -0.70643460057E+02 -0.43469482759E+02 -0.40337511647E+03  0.41181498148E+03  0.00000000000E+00 0. -1.
          1    1    6    6  503    0 -0.85905834093E+02  0.30046794701E+02 -0.73928604760E+02  0.11725212495E+03  0.00000000000E+00 0. -1.
         -1    1    6    6    0  503 -0.57094400707E+03  0.46806810232E+03 -0.53925848168E+03  0.91425626478E+03  0.00000000000E+00 0.  1.
<mgrwt>
<rscale>  0 0.24030527E+04</rscale>
<asrwt>0</asrwt>
<pdfrwt beam="1">  1        2 0.46790857E+00 0.24030527E+04</pdfrwt>
<pdfrwt beam="2">  1       -2 0.73026231E-01 0.24030527E+04</pdfrwt>
<totfact> 0.24982753E+00</totfact>
</mgrwt>
</event>
<event>
12    3  0.4634846E-008  0.1157918E+04  0.7818608E-02  0.9150510E-01
         -1   -1    0    0    0  501 -0.00000000000E+00  0.00000000000E+00  0.11770410076E+04  0.11770410076E+04  0.00000000000E+00 0.  1.
          1   -1    0    0  501    0  0.00000000000E+00 -0.00000000000E+00 -0.28477621891E+03  0.28477621891E+03  0.00000000000E+00 0. -1.
         23    2    1    2    0    0 -0.16688272411E+03 -0.87886151007E+02  0.30237159902E+03  0.36805036363E+03  0.91971012426E+02 0.  0.
        254    2    1    2    0    0  0.16688272411E+03  0.87886151007E+02  0.58989318971E+03  0.10937668629E+04  0.90154209886E+03 0.  0.
         23    2    4    4    0    0 -0.32604403872E+03 -0.14261174785E+03  0.20678696177E+03  0.42203939475E+03  0.93346544432E+02 0.  0.
         23    2    4    4    0    0  0.49292676283E+03  0.23049789885E+03  0.38310622794E+03  0.67172746817E+03  0.91330907772E+02 0.  0.
          4    1    3    3  502    0 -0.19892575313E+02  0.18903185503E+02  0.50691986295E+02  0.57643060721E+02  0.00000000000E+00 0. -1.
         -4    1    3    3    0  502 -0.14699014880E+03 -0.10678933651E+03  0.25167961272E+03  0.31040730290E+03  0.00000000000E+00 0.  1.
         13    1    5    5    0    0 -0.30075361370E+02  0.13840289074E+02  0.20041686209E+02  0.38700777115E+02  0.00000000000E+00 0. -1.
        -13    1    5    5    0    0 -0.29596867735E+03 -0.15645203692E+03  0.18674527556E+03  0.38333861764E+03  0.00000000000E+00 0.  1.
          4    1    6    6  503    0 -0.62491404992E+00  0.35656302024E+01 -0.34543634358E+01  0.50036849478E+01  0.00000000000E+00 0. -1.
         -4    1    6    6    0  503  0.49355167688E+03  0.22693226865E+03  0.38656059137E+03  0.66672378322E+03  0.00000000000E+00 0.  1.
<mgrwt>
<rscale>  0 0.11579176E+04</rscale>
<asrwt>0</asrwt>
<pdfrwt beam="1">  1        1 0.43811727E-01 0.11579176E+04</pdfrwt>
<pdfrwt beam="2">  1       -1 0.18108323E+00 0.11579176E+04</pdfrwt>
<totfact> 0.19044724E+01</totfact>
</mgrwt>
</event>
<event>
12    3  0.4634846E-008  0.1966342E+04  0.7818608E-02  0.8622520E-01
          2   -1    0    0  501    0  0.00000000000E+00  0.00000000000E+00  0.11900792737E+04  0.11900792737E+04  0.00000000000E+00 0. -1.
         -2   -1    0    0    0  501 -0.00000000000E+00 -0.00000000000E+00 -0.81223614498E+03  0.81223614498E+03  0.00000000000E+00 0.  1.
         23    2    1    2    0    0 -0.12098359833E+03  0.53808810542E+03  0.70299672404E+03  0.89823285087E+03  0.91880466449E+02 0.  0.
        254    2    1    2    0    0  0.12098359833E+03 -0.53808810542E+03 -0.32515359529E+03  0.11040825678E+04  0.89949853575E+03 0.  0.
         23    2    4    4    0    0 -0.14965948758E+03 -0.63539347308E+03 -0.42754671498E+03  0.78559718024E+03  0.90795970429E+02 0.  0.
         23    2    4    4    0    0  0.27064308591E+03  0.97305367664E+02  0.10239311970E+03  0.31848538760E+03  0.90733547412E+02 0.  0.
          2    1    3    3  502    0 -0.97547596205E+02  0.44093510569E+03  0.62689463034E+03  0.77261644981E+03  0.00000000000E+00 0. -1.
         -2    1    3    3    0  502 -0.23436002122E+02  0.97152999728E+02  0.76102093695E+02  0.12561640106E+03  0.00000000000E+00 0.  1.
         13    1    5    5    0    0 -0.76432515503E+02 -0.24338761906E+03 -0.11960520264E+03  0.28175320236E+03  0.00000000000E+00 0.  1.
        -13    1    5    5    0    0 -0.73226972082E+02 -0.39200585402E+03 -0.30794151234E+03  0.50384397788E+03  0.00000000000E+00 0. -1.
          2    1    6    6  503    0  0.20532047508E+03  0.44129577461E+02  0.40298021801E+02  0.21384070626E+03  0.00000000000E+00 0. -1.
         -2    1    6    6    0  503  0.65322610831E+02  0.53175790204E+02  0.62095097895E+02  0.10464468134E+03  0.00000000000E+00 0.  1.
<mgrwt>
<rscale>  0 0.19663422E+04</rscale>
<asrwt>0</asrwt>
<pdfrwt beam="1">  1        2 0.18308912E+00 0.19663422E+04</pdfrwt>
<pdfrwt beam="2">  1       -2 0.12495941E+00 0.19663422E+04</pdfrwt>
<totfact> 0.85853728E+00</totfact>
</mgrwt>
</event>
<event>
12    3  0.4634846E-008  0.1788163E+04  0.7818608E-02  0.8712619E-01
         -2   -1    0    0    0  501 -0.00000000000E+00  0.00000000000E+00  0.36793094175E+03  0.36793094175E+03  0.00000000000E+00 0.  1.
          2   -1    0    0  501    0  0.00000000000E+00 -0.00000000000E+00 -0.21726415558E+04  0.21726415558E+04  0.00000000000E+00 0. -1.
         23    2    1    2    0    0  0.56844004629E+03  0.15248621885E+03 -0.10806037387E+04  0.12339195294E+04  0.92069711218E+02 0.  0.
        254    2    1    2    0    0 -0.56844004629E+03 -0.15248621885E+03 -0.72410687536E+03  0.13066529682E+04  0.91467758206E+03 0.  0.
         23    2    4    4    0    0 -0.54008014066E+03 -0.11752474428E+03 -0.92480689055E+03  0.10811643535E+04  0.90277076425E+02 0.  0.
         23    2    4    4    0    0 -0.28359905635E+02 -0.34961474574E+02  0.20070001519E+03  0.22548861472E+03  0.92401462759E+02 0.  0.
          1    1    3    3  502    0  0.35275520512E+03  0.14008341998E+03 -0.67758424270E+03  0.77664664117E+03  0.00000000000E+00 0. -1.
         -1    1    3    3    0  502  0.21568484117E+03  0.12402798875E+02 -0.40301949604E+03  0.45727288824E+03  0.00000000000E+00 0.  1.
         13    1    5    5    0    0 -0.48488574011E+03 -0.13145891804E+03 -0.81303356879E+03  0.95572967521E+03  0.00000000000E+00 0.  1.
        -13    1    5    5    0    0 -0.55194400546E+02  0.13934173761E+02 -0.11177332176E+03  0.12543467825E+03  0.00000000000E+00 0. -1.
          3    1    6    6  503    0 -0.54997163075E+02  0.16375109625E+01  0.85056164056E+02  0.10130113737E+03  0.00000000000E+00 0. -1.
         -3    1    6    6    0  503  0.26637257439E+02 -0.36598985536E+02  0.11564385113E+03  0.12418747735E+03  0.00000000000E+00 0.  1.
<mgrwt>
<rscale>  0 0.17881634E+04</rscale>
<asrwt>0</asrwt>
<pdfrwt beam="1">  1        2 0.33425255E+00 0.17881634E+04</pdfrwt>
<pdfrwt beam="2">  1       -2 0.56604759E-01 0.17881634E+04</pdfrwt>
<totfact> 0.14805620E+01</totfact>
</mgrwt>
</event>
<event>
12    3  0.4634846E-008  0.1119493E+04  0.7818608E-02  0.9186398E-01
         -1   -1    0    0    0  501 -0.00000000000E+00  0.00000000000E+00  0.10200477310E+04  0.10200477310E+04  0.00000000000E+00 0. -1.
          1   -1    0    0  501    0  0.00000000000E+00 -0.00000000000E+00 -0.30715843491E+03  0.30715843491E+03  0.00000000000E+00 0.  1.
         23    2    1    2    0    0 -0.63065521030E+02 -0.14366384121E+03  0.28794450550E+02  0.18533792574E+03  0.94363484055E+02 0.  0.
        254    2    1    2    0    0  0.63065521030E+02  0.14366384121E+03  0.68409484558E+03  0.11418682402E+04  0.90070015045E+03 0.  0.
         23    2    4    4    0    0  0.28534023065E+03  0.40273991764E+03  0.58987550459E+03  0.77457270845E+03  0.91603936993E+02 0.  0.
         23    2    4    4    0    0 -0.22227470962E+03 -0.25907607643E+03  0.94219340994E+02  0.36729553176E+03  0.97479554353E+02 0.  0.
          3    1    3    3  502    0 -0.44301449630E+02 -0.15457283326E+03  0.30119843949E+02  0.16359273890E+03  0.00000000000E+00 0. -1.
         -3    1    3    3    0  502 -0.18764071400E+02  0.10908992053E+02 -0.13253933989E+01  0.21745186842E+02  0.00000000000E+00 0.  1.
         13    1    5    5    0    0  0.58259496884E+02  0.56971951277E+02  0.15024977358E+03  0.17092386220E+03  0.00000000000E+00 0. -1.
        -13    1    5    5    0    0  0.22708073376E+03  0.34576796636E+03  0.43962573101E+03  0.60364884625E+03  0.00000000000E+00 0.  1.
          2    1    6    6  503    0 -0.51698280466E+02 -0.25959229614E+02 -0.12799415034E+02  0.59248787586E+02  0.00000000000E+00 0. -1.
         -2    1    6    6    0  503 -0.17057642915E+03 -0.23311684682E+03  0.10701875603E+03  0.30804674417E+03  0.00000000000E+00 0.  1.
<mgrwt>
<rscale>  0 0.11194932E+04</rscale>
<asrwt>0</asrwt>
<pdfrwt beam="1">  1        1 0.47255144E-01 0.11194932E+04</pdfrwt>
<pdfrwt beam="2">  1       -1 0.15693042E+00 0.11194932E+04</pdfrwt>
<totfact> 0.26095412E+01</totfact>
</mgrwt>
</event>
<event>
12    3  0.4634846E-008  0.2649592E+04  0.7818608E-02  0.8351548E-01
         -1   -1    0    0    0  501 -0.00000000000E+00  0.00000000000E+00  0.86715245454E+03  0.86715245454E+03  0.00000000000E+00 0.  1.
          1   -1    0    0  501    0  0.00000000000E+00 -0.00000000000E+00 -0.20239635513E+04  0.20239635513E+04  0.00000000000E+00 0. -1.
         23    2    1    2    0    0 -0.79560980448E+03  0.49439874378E+03  0.24779657357E+03  0.97339272279E+03  0.93086906017E+02 0.  0.
        254    2    1    2    0    0  0.79560980448E+03 -0.49439874378E+03 -0.14046076703E+04  0.19177232830E+04  0.90956847127E+03 0.  0.
         23    2    4    4    0    0  0.81455867305E+03 -0.16616919851E+03 -0.56012211599E+03  0.10069614522E+04  0.95480610975E+02 0.  0.
         23    2    4    4    0    0 -0.18948868573E+02 -0.32822954528E+03 -0.84448555432E+03  0.91076183080E+03  0.90761043239E+02 0.  0.
          1    1    3    3  502    0 -0.46075101117E+02  0.43211305153E+02 -0.31846143681E+01  0.63247716201E+02  0.00000000000E+00 0. -1.
         -1    1    3    3    0  502 -0.74953470336E+03  0.45118743863E+03  0.25098118794E+03  0.91014500659E+03  0.00000000000E+00 0.  1.
         13    1    5    5    0    0  0.63518533743E+03 -0.15837390717E+03 -0.47137390795E+03  0.80668213595E+03  0.00000000000E+00 0. -1.
        -13    1    5    5    0    0  0.17937333562E+03 -0.77952913385E+01 -0.88748208035E+02  0.20027931628E+03  0.00000000000E+00 0.  1.
          4    1    6    6  503    0 -0.14902845428E+02 -0.32535935101E+03 -0.84516869134E+03  0.90575433696E+03  0.00000000000E+00 0. -1.
         -4    1    6    6    0  503 -0.40460231448E+01 -0.28701942657E+01  0.68313701806E+00  0.50074938439E+01  0.00000000000E+00 0.  1.
<mgrwt>
<rscale>  0 0.26495924E+04</rscale>
<asrwt>0</asrwt>
<pdfrwt beam="1">  1        1 0.31137900E+00 0.26495924E+04</pdfrwt>
<pdfrwt beam="2">  1       -1 0.13340807E+00 0.26495924E+04</pdfrwt>
<totfact> 0.11951290E+00</totfact>
</mgrwt>
</event>
<event>
12    3  0.4634846E-008  0.1929647E+04  0.7818608E-02  0.8640238E-01
         -2   -1    0    0    0  501 -0.00000000000E+00  0.00000000000E+00  0.83990870727E+03  0.83990870727E+03  0.00000000000E+00 0.  1.
          2   -1    0    0  501    0  0.00000000000E+00 -0.00000000000E+00 -0.11083165932E+04  0.11083165932E+04  0.00000000000E+00 0. -1.
         23    2    1    2    0    0  0.34025752733E+03 -0.50099326982E+03 -0.55376863205E+03  0.82572645314E+03  0.91624430432E+02 0.  0.
        254    2    1    2    0    0 -0.34025752733E+03  0.50099326982E+03  0.28536074616E+03  0.11224988473E+04  0.90100136816E+03 0.  0.
         23    2    4    4    0    0 -0.42191871212E+03  0.69848985496E+03  0.10560288163E+03  0.82833156671E+03  0.95277167698E+02 0.  0.
         23    2    4    4    0    0  0.81661184781E+02 -0.19749658514E+03  0.17975786453E+03  0.29416728059E+03  0.92455658910E+02 0.  0.
          3    1    3    3  502    0  0.23227515060E+03 -0.36832994873E+03 -0.44723244732E+03  0.62420794504E+03  0.00000000000E+00 0. -1.
         -3    1    3    3    0  502  0.10798237673E+03 -0.13266332108E+03 -0.10653618473E+03  0.20151850809E+03  0.00000000000E+00 0.  1.
         13    1    5    5    0    0 -0.25422675435E+03  0.48118368670E+03  0.10276003028E+03  0.55383084673E+03  0.00000000000E+00 0. -1.
        -13    1    5    5    0    0 -0.16769195776E+03  0.21730616827E+03  0.28428513539E+01  0.27450071998E+03  0.00000000000E+00 0.  1.
          1    1    6    6  503    0  0.28448389781E+02 -0.59673481984E+02  0.64313554986E+01  0.66419858979E+02  0.00000000000E+00 0. -1.
         -1    1    6    6    0  503  0.53212795000E+02 -0.13782310316E+03  0.17332650903E+03  0.22774742161E+03  0.00000000000E+00 0.  1.
<mgrwt>
<rscale>  0 0.19296474E+04</rscale>
<asrwt>0</asrwt>
<pdfrwt beam="1">  1        2 0.17051024E+00 0.19296474E+04</pdfrwt>
<pdfrwt beam="2">  1       -2 0.12921673E+00 0.19296474E+04</pdfrwt>
<totfact> 0.88722381E+00</totfact>
</mgrwt>
</event>
<event>
12    3  0.4634846E-008  0.1776504E+04  0.7818608E-02  0.8718895E-01
          1   -1    0    0  501    0  0.00000000000E+00  0.00000000000E+00  0.61156419358E+03  0.61156419358E+03  0.00000000000E+00 0. -1.
         -1   -1    0    0    0  501 -0.00000000000E+00 -0.00000000000E+00 -0.12901205846E+04  0.12901205846E+04  0.00000000000E+00 0.  1.
         23    2    1    2    0    0  0.29133801833E+03  0.58269030297E+03 -0.17040432450E+03  0.67960613752E+03  0.91766215175E+02 0.  0.
        254    2    1    2    0    0 -0.29133801833E+03 -0.58269030297E+03 -0.50815206654E+03  0.12220786407E+04  0.90047312630E+03 0.  0.
         23    2    4    4    0    0  0.26863081147E+02 -0.71133733449E+03 -0.48282087158E+03  0.86518243525E+03  0.93285709884E+02 0.  0.
         23    2    4    4    0    0 -0.31820109947E+03  0.12864703152E+03 -0.25331194957E+02  0.35689620543E+03  0.94505204023E+02 0.  0.
          2    1    3    3  502    0  0.11828753110E+03  0.29448675290E+03 -0.43678902215E+02  0.32034705266E+03  0.00000000000E+00 0. -1.
         -2    1    3    3    0  502  0.17305048722E+03  0.28820355006E+03 -0.12672542228E+03  0.35925908486E+03  0.00000000000E+00 0.  1.
         13    1    5    5    0    0 -0.15691948397E+02 -0.78156557388E+02 -0.28285740872E+02  0.84585860780E+02  0.00000000000E+00 0. -1.
        -13    1    5    5    0    0  0.42555029544E+02 -0.63318077710E+03 -0.45453513071E+03  0.78059657447E+03  0.00000000000E+00 0.  1.
          1    1    6    6  503    0 -0.89597548483E+02  0.58693215509E+02 -0.46756629160E+02  0.11687085441E+03  0.00000000000E+00 0. -1.
         -1    1    6    6    0  503 -0.22860355099E+03  0.69953816010E+02  0.21425434203E+02  0.24002535101E+03  0.00000000000E+00 0.  1.
<mgrwt>
<rscale>  0 0.17765039E+04</rscale>
<asrwt>0</asrwt>
<pdfrwt beam="1">  1        1 0.94086799E-01 0.17765039E+04</pdfrwt>
<pdfrwt beam="2">  1       -1 0.19848009E+00 0.17765039E+04</pdfrwt>
<totfact> 0.48555623E+00</totfact>
</mgrwt>
</event>
<event>
12    3  0.4634846E-008  0.1845069E+04  0.7818608E-02  0.8682693E-01
         -1   -1    0    0    0  501 -0.00000000000E+00  0.00000000000E+00  0.16958495184E+03  0.16958495184E+03  0.00000000000E+00 0.  1.
          1   -1    0    0  501    0  0.00000000000E+00 -0.00000000000E+00 -0.50185463108E+04  0.50185463108E+04  0.00000000000E+00 0. -1.
         23    2    1    2    0    0 -0.57257613118E+03 -0.15759885922E+03 -0.28791036392E+04  0.29410541996E+04  0.88776196942E+02 0.  0.
        254    2    1    2    0    0  0.57257613118E+03  0.15759885922E+03 -0.19698577198E+04  0.22470770631E+04  0.90351262572E+03 0.  0.
         23    2    4    4    0    0  0.70448315270E+03  0.16396815053E+03 -0.19453028133E+04  0.20774182226E+04  0.91002028975E+02 0.  0.
         23    2    4    4    0    0 -0.13190702151E+03 -0.63692913072E+01 -0.24554906513E+02  0.16965884053E+03  0.10363951244E+03 0.  0.
          1    1    3    3  502    0 -0.55695191159E+03 -0.16286708825E+03 -0.28389496774E+04  0.28976466988E+04  0.00000000000E+00 0. -1.
         -1    1    3    3    0  502 -0.15624219591E+02  0.52682290269E+01 -0.40153961764E+02  0.43407500738E+02  0.00000000000E+00 0.  1.
         13    1    5    5    0    0  0.64672261050E+03  0.12897523869E+03 -0.17150552728E+04  0.18374709075E+04  0.00000000000E+00 0. -1.
        -13    1    5    5    0    0  0.57760542200E+02  0.34992911841E+02 -0.23024754049E+03  0.23994731508E+03  0.00000000000E+00 0.  1.
          4    1    6    6  503    0 -0.13888102249E+03 -0.29522325771E+02 -0.12206992749E+02  0.14250795345E+03  0.00000000000E+00 0. -1.
         -4    1    6    6    0  503  0.69740009731E+01  0.23153034464E+02 -0.12347913764E+02  0.27150887072E+02  0.00000000000E+00 0.  1.
<mgrwt>
<rscale>  0 0.18450690E+04</rscale>
<asrwt>0</asrwt>
<pdfrwt beam="1">  1        1 0.77208384E+00 0.18450690E+04</pdfrwt>
<pdfrwt beam="2">  1       -1 0.26090000E-01 0.18450690E+04</pdfrwt>
<totfact> 0.10285664E-01</totfact>
</mgrwt>
</event>
<event>
12    3  0.4634846E-008  0.1791905E+04  0.7818608E-02  0.8710616E-01
         -1   -1    0    0    0  501 -0.00000000000E+00  0.00000000000E+00  0.94514602424E+03  0.94514602424E+03  0.00000000000E+00 0.  1.
          1   -1    0    0  501    0  0.00000000000E+00 -0.00000000000E+00 -0.84931947365E+03  0.84931947365E+03  0.00000000000E+00 0. -1.
         23    2    1    2    0    0 -0.11399264667E+02  0.85795362715E+02 -0.62362176016E+03  0.63632619532E+03  0.92282932401E+02 0.  0.
        254    2    1    2    0    0  0.11399264667E+02 -0.85795362715E+02  0.71944831074E+03  0.11581393026E+04  0.90343233550E+03 0.  0.
         23    2    4    4    0    0  0.23827975713E+03 -0.23896476017E+03 -0.34128334975E+02  0.35116711808E+03  0.90951648219E+02 0.  0.
         23    2    4    4    0    0 -0.22688049246E+03  0.15316939746E+03  0.75357664571E+03  0.80697218449E+03  0.91600891916E+02 0.  0.
          4    1    3    3  502    0 -0.34368247245E+02  0.24082724835E+02 -0.98159818444E+02  0.10675440980E+03  0.00000000000E+00 0.  1.
         -4    1    3    3    0  502  0.22968982577E+02  0.61712637881E+02 -0.52546194171E+03  0.52957178552E+03  0.00000000000E+00 0. -1.
         13    1    5    5    0    0  0.27650529249E+02 -0.72767691181E+02 -0.28215094978E+02  0.82799639082E+02  0.00000000000E+00 0. -1.
        -13    1    5    5    0    0  0.21062922788E+03 -0.16619706899E+03 -0.59132399970E+01  0.26836747900E+03  0.00000000000E+00 0.  1.
          3    1    6    6  503    0 -0.13479657984E+02  0.22739788311E+02  0.17024584805E+03  0.17228594815E+03  0.00000000000E+00 0. -1.
         -3    1    6    6    0  503 -0.21340083447E+03  0.13042960914E+03  0.58333079767E+03  0.63468623634E+03  0.00000000000E+00 0.  1.
<mgrwt>
<rscale>  0 0.17919050E+04</rscale>
<asrwt>0</asrwt>
<pdfrwt beam="1">  1        1 0.13066453E+00 0.17919050E+04</pdfrwt>
<pdfrwt beam="2">  1       -1 0.14540708E+00 0.17919050E+04</pdfrwt>
<totfact> 0.71822513E+00</totfact>
</mgrwt>
</event>
<event>
12    3  0.4634846E-008  0.1832604E+04  0.7818608E-02  0.8689151E-01
          2   -1    0    0  501    0  0.00000000000E+00  0.00000000000E+00  0.26884525529E+04  0.26884525529E+04  0.00000000000E+00 0.  1.
         -2   -1    0    0    0  501 -0.00000000000E+00 -0.00000000000E+00 -0.31230208851E+03  0.31230208851E+03  0.00000000000E+00 0. -1.
         23    2    1    2    0    0  0.58233997434E+03  0.33300527648E+03  0.11896175460E+04  0.13686584170E+04  0.89574531718E+02 0.  0.
        254    2    1    2    0    0 -0.58233997434E+03 -0.33300527648E+03  0.11865329183E+04  0.16320962244E+04  0.89770003869E+03 0.  0.
         23    2    4    4    0    0 -0.15036079466E+03  0.16066256726E+03 -0.37924094993E+02  0.23969333720E+03  0.87142583315E+02 0.  0.
         23    2    4    4    0    0 -0.43197917968E+03 -0.49366784374E+03  0.12244570133E+04  0.13924028872E+04  0.95795987019E+02 0.  0.
          1    1    3    3  502    0  0.20269025316E+02  0.10990058152E+02  0.85399197052E+02  0.88456981762E+02  0.00000000000E+00 0. -1.
         -1    1    3    3    0  502  0.56207094902E+03  0.32201521832E+03  0.11042183490E+04  0.12802014353E+04  0.00000000000E+00 0.  1.
         13    1    5    5    0    0 -0.12669849925E+03  0.10727624349E+03 -0.61052823216E+02  0.17688456505E+03  0.00000000000E+00 0. -1.
        -13    1    5    5    0    0 -0.23662295409E+02  0.53386323771E+02  0.23128728224E+02  0.62808772150E+02  0.00000000000E+00 0.  1.
          2    1    6    6  503    0 -0.38016755709E+03 -0.37911540616E+03  0.10087718054E+04  0.11427494992E+04  0.00000000000E+00 0. -1.
         -2    1    6    6    0  503 -0.51811622588E+02 -0.11455243758E+03  0.21568520794E+03  0.24965338795E+03  0.00000000000E+00 0.  1.
<mgrwt>
<rscale>  0 0.18326040E+04</rscale>
<asrwt>0</asrwt>
<pdfrwt beam="1">  1        2 0.41360807E+00 0.18326040E+04</pdfrwt>
<pdfrwt beam="2">  1       -2 0.48046477E-01 0.18326040E+04</pdfrwt>
<totfact> 0.10444760E+01</totfact>
</mgrwt>
</event>
<event>
12    3  0.4634846E-008  0.1597692E+04  0.7818608E-02  0.8821967E-01
          2   -1    0    0  501    0  0.00000000000E+00  0.00000000000E+00  0.48953941641E+04  0.48953941641E+04  0.00000000000E+00 0. -1.
         -2   -1    0    0    0  501 -0.00000000000E+00 -0.00000000000E+00 -0.13035820730E+03  0.13035820730E+03  0.00000000000E+00 0.  1.
         23    2    1    2    0    0  0.34989382818E+01  0.45970788064E+03  0.30717340422E+04  0.31071209252E+04  0.85480054505E+02 0.  0.
        254    2    1    2    0    0 -0.34989382818E+01 -0.45970788064E+03  0.16933019145E+04  0.19186314461E+04  0.77622913770E+03 0.  0.
         23    2    4    4    0    0  0.14810559341E+03 -0.62026825517E+03  0.13920631758E+04  0.15339210612E+04  0.91684030327E+02 0.  0.
         23    2    4    4    0    0 -0.15160453169E+03  0.16056037453E+03  0.30123873878E+03  0.38471038496E+03  0.92161459731E+02 0.  0.
          4    1    3    3  502    0  0.26862731689E+01  0.43260922636E+03  0.27040058653E+04  0.27383947265E+04  0.00000000000E+00 0. -1.
         -4    1    3    3    0  502  0.81266511295E+00  0.27098654283E+02  0.36772817695E+03  0.36872619871E+03  0.00000000000E+00 0.  1.
         13    1    5    5    0    0  0.14612167369E+03 -0.53556718287E+03  0.11396770801E+04  0.12676938107E+04  0.00000000000E+00 0.  1.
        -13    1    5    5    0    0  0.19839197190E+01 -0.84701072307E+02  0.25238609569E+03  0.26622725046E+03  0.00000000000E+00 0. -1.
          4    1    6    6  503    0 -0.33608571792E+02  0.10045498398E+03  0.11712800072E+03  0.15792310932E+03  0.00000000000E+00 0. -1.
         -4    1    6    6    0  503 -0.11799595990E+03  0.60105390547E+02  0.18411073806E+03  0.22678727564E+03  0.00000000000E+00 0.  1.
<mgrwt>
<rscale>  0 0.15976918E+04</rscale>
<asrwt>0</asrwt>
<pdfrwt beam="1">  1        2 0.75313742E+00 0.15976918E+04</pdfrwt>
<pdfrwt beam="2">  1       -2 0.20055113E-01 0.15976918E+04</pdfrwt>
<totfact> 0.98128973E-01</totfact>
</mgrwt>
</event>
<event>
12    3  0.4634846E-008  0.1402825E+04  0.7818608E-02  0.8951776E-01
         -1   -1    0    0    0  501 -0.00000000000E+00  0.00000000000E+00  0.24728190501E+04  0.24728190501E+04  0.00000000000E+00 0.  1.
          1   -1    0    0  501    0  0.00000000000E+00 -0.00000000000E+00 -0.19895503168E+03  0.19895503168E+03  0.00000000000E+00 0. -1.
         23    2    1    2    0    0 -0.36948764266E+03 -0.13190315766E+03  0.42663459937E+03  0.58699856798E+03  0.92901433583E+02 0.  0.
        254    2    1    2    0    0  0.36948764266E+03  0.13190315766E+03  0.18472294190E+04  0.20847755138E+04  0.88323997601E+03 0.  0.
         23    2    4    4    0    0 -0.50553681851E+02  0.34091842249E+02 -0.62224513014E+02  0.12510580078E+03  0.89786652201E+02 0.  0.
         23    2    4    4    0    0  0.42004132451E+03  0.97811315409E+02  0.19094539320E+04  0.19596697130E+04  0.91045580341E+02 0.  0.
          2    1    3    3  502    0 -0.34935359990E+03 -0.14521039328E+03  0.40870955574E+03  0.55693581052E+03  0.00000000000E+00 0. -1.
         -2    1    3    3    0  502 -0.20134042753E+02  0.13307235623E+02  0.17925043627E+02  0.30062757467E+02  0.00000000000E+00 0.  1.
         13    1    5    5    0    0  0.24660102650E+02  0.16767462379E+02 -0.83098463768E+01  0.30956776385E+02  0.00000000000E+00 0.  1.
        -13    1    5    5    0    0 -0.75213784500E+02  0.17324379870E+02 -0.53914666637E+02  0.94149024399E+02  0.00000000000E+00 0. -1.
          3    1    6    6  503    0  0.35329780125E+03  0.11447677727E+03  0.15717372487E+04  0.16150177237E+04  0.00000000000E+00 0. -1.
         -3    1    6    6    0  503  0.66743523260E+02 -0.16665461860E+02  0.33771668337E+03  0.34465198932E+03  0.00000000000E+00 0.  1.
<mgrwt>
<rscale>  0 0.14028254E+04</rscale>
<asrwt>0</asrwt>
<pdfrwt beam="1">  1        1 0.30608468E-01 0.14028254E+04</pdfrwt>
<pdfrwt beam="2">  1       -1 0.38043368E+00 0.14028254E+04</pdfrwt>
<totfact> 0.14308911E+00</totfact>
</mgrwt>
</event>
<event>
12    3  0.4634846E-008  0.1418306E+04  0.7818608E-02  0.8940674E-01
          2   -1    0    0  501    0  0.00000000000E+00  0.00000000000E+00  0.16553279842E+04  0.16553279842E+04  0.00000000000E+00 0. -1.
         -2   -1    0    0    0  501 -0.00000000000E+00 -0.00000000000E+00 -0.30380544539E+03  0.30380544539E+03  0.00000000000E+00 0.  1.
         23    2    1    2    0    0 -0.28831112791E+03 -0.28152245208E+03  0.53531343039E+03  0.67644999561E+03  0.92983494799E+02 0.  0.
        254    2    1    2    0    0  0.28831112791E+03  0.28152245208E+03  0.81620910840E+03  0.12826834339E+04  0.90371526798E+03 0.  0.
         23    2    4    4    0    0  0.44714827383E+03  0.23129882380E+03  0.74549916486E+02  0.51703513637E+03  0.91251945260E+02 0.  0.
         23    2    4    4    0    0 -0.15883714591E+03  0.50223628283E+02  0.74165919191E+03  0.76564829758E+03  0.91691367496E+02 0.  0.
          1    1    3    3  502    0 -0.28286294358E+03 -0.24437798663E+03  0.46384832870E+03  0.59572419562E+03  0.00000000000E+00 0. -1.
         -1    1    3    3    0  502 -0.54481843303E+01 -0.37144465448E+02  0.71465101685E+02  0.80725799994E+02  0.00000000000E+00 0.  1.
         13    1    5    5    0    0  0.23942092898E+02  0.11630077751E+02 -0.16892983850E+02  0.31525472624E+02  0.00000000000E+00 0. -1.
        -13    1    5    5    0    0  0.42320618093E+03  0.21966874605E+03  0.91442900336E+02  0.48550966374E+03  0.00000000000E+00 0.  1.
          3    1    6    6  503    0 -0.30914690427E+02  0.62589782630E+00  0.39259382421E+02  0.49974082687E+02  0.00000000000E+00 0. -1.
         -3    1    6    6    0  503 -0.12792245549E+03  0.49597730457E+02  0.70239980949E+03  0.71567421489E+03  0.00000000000E+00 0.  1.
<mgrwt>
<rscale>  0 0.14183055E+04</rscale>
<asrwt>0</asrwt>
<pdfrwt beam="1">  1        2 0.25466584E+00 0.14183055E+04</pdfrwt>
<pdfrwt beam="2">  1       -2 0.46739300E-01 0.14183055E+04</pdfrwt>
<totfact> 0.43799390E+01</totfact>
</mgrwt>
</event>
<event>
12    3  0.4634846E-008  0.1578848E+04  0.7818608E-02  0.8833649E-01
          2   -1    0    0  501    0  0.00000000000E+00  0.00000000000E+00  0.71006006656E+03  0.71006006656E+03  0.00000000000E+00 0. -1.
         -2   -1    0    0    0  501 -0.00000000000E+00 -0.00000000000E+00 -0.87765891420E+03  0.87765891420E+03  0.00000000000E+00 0.  1.
         23    2    1    2    0    0 -0.32477828973E+02  0.33016620672E+03 -0.45983989214E+03  0.57401079964E+03  0.89281231306E+02 0.  0.
        254    2    1    2    0    0  0.32477828973E+02 -0.33016620672E+03  0.29224104450E+03  0.10137081811E+04  0.91221429223E+03 0.  0.
         23    2    4    4    0    0 -0.41411409665E+03 -0.26026863370E+03  0.22635666276E+03  0.54798914389E+03  0.99118698094E+02 0.  0.
         23    2    4    4    0    0  0.44659192562E+03 -0.69897573022E+02  0.65884381747E+02  0.46571903724E+03  0.90683246213E+02 0.  0.
          3    1    3    3  502    0 -0.50721622513E+02  0.23382346328E+03 -0.27303359163E+03  0.36303365840E+03  0.00000000000E+00 0. -1.
         -3    1    3    3    0  502  0.18243793541E+02  0.96342743444E+02 -0.18680630051E+03  0.21097714125E+03  0.00000000000E+00 0.  1.
         13    1    5    5    0    0 -0.14883273226E+03 -0.14885362758E+03  0.80090148554E+02  0.22521770919E+03  0.00000000000E+00 0. -1.
        -13    1    5    5    0    0 -0.26528136439E+03 -0.11141500612E+03  0.14626651420E+03  0.32277143470E+03  0.00000000000E+00 0.  1.
          3    1    6    6  503    0  0.12796934776E+03  0.28333509773E+01  0.53311960806E+02  0.13865910359E+03  0.00000000000E+00 0. -1.
         -3    1    6    6    0  503  0.31862257786E+03 -0.72730923999E+02  0.12572420941E+02  0.32705993365E+03  0.00000000000E+00 0.  1.
<mgrwt>
<rscale>  0 0.15788484E+04</rscale>
<asrwt>0</asrwt>
<pdfrwt beam="1">  1        2 0.10924001E+00 0.15788484E+04</pdfrwt>
<pdfrwt beam="2">  1       -2 0.13502445E+00 0.15788484E+04</pdfrwt>
<totfact> 0.15233823E+01</totfact>
</mgrwt>
</event>
<event>
12    3  0.4634846E-008  0.1750707E+04  0.7818608E-02  0.8732961E-01
         -1   -1    0    0    0  501 -0.00000000000E+00  0.00000000000E+00  0.70122207853E+03  0.70122207853E+03  0.00000000000E+00 0.  1.
          1   -1    0    0  501    0  0.00000000000E+00 -0.00000000000E+00 -0.10927258250E+04  0.10927258250E+04  0.00000000000E+00 0. -1.
         23    2    1    2    0    0  0.28646076643E+03  0.27413262774E+03  0.37344622792E+03  0.55189817581E+03  0.89000241667E+02 0.  0.
        254    2    1    2    0    0 -0.28646076643E+03 -0.27413262774E+03 -0.76494997436E+03  0.12420497277E+04  0.89461197984E+03 0.  0.
         23    2    4    4    0    0  0.24403185166E+03  0.64562629821E+02 -0.30437550911E+02  0.27045337751E+03  0.92188432611E+02 0.  0.
         23    2    4    4    0    0 -0.53049261809E+03 -0.33869525756E+03 -0.73451242345E+03  0.97159635018E+03  0.91400613406E+02 0.  0.
          1    1    3    3  502    0  0.30470276757E+02 -0.10701955078E+01  0.26732809755E+02  0.40549059194E+02  0.00000000000E+00 0. -1.
         -1    1    3    3    0  502  0.25599048968E+03  0.27520282325E+03  0.34671341817E+03  0.51134911661E+03  0.00000000000E+00 0.  1.
         13    1    5    5    0    0  0.47904150752E+02 -0.16564396086E+02  0.16069464500E+02  0.53173438541E+02  0.00000000000E+00 0. -1.
        -13    1    5    5    0    0  0.19612770091E+03  0.81127025907E+02 -0.46507015412E+02  0.21727993897E+03  0.00000000000E+00 0.  1.
          4    1    6    6  503    0 -0.31183171368E+03 -0.21670230682E+03 -0.37677629614E+03  0.53493858038E+03  0.00000000000E+00 0. -1.
         -4    1    6    6    0  503 -0.21866090441E+03 -0.12199295074E+03 -0.35773612730E+03  0.43665776980E+03  0.00000000000E+00 0.  1.
<mgrwt>
<rscale>  0 0.17507067E+04</rscale>
<asrwt>0</asrwt>
<pdfrwt beam="1">  1        1 0.16811167E+00 0.17507067E+04</pdfrwt>
<pdfrwt beam="2">  1       -1 0.10788032E+00 0.17507067E+04</pdfrwt>
<totfact> 0.97234971E+00</totfact>
</mgrwt>
</event>
<event>
12    3  0.4634846E-008  0.1995967E+04  0.7818608E-02  0.8608509E-01
          2   -1    0    0  501    0  0.00000000000E+00  0.00000000000E+00  0.22800956305E+04  0.22800956305E+04  0.00000000000E+00 0. -1.
         -2   -1    0    0    0  501 -0.00000000000E+00 -0.00000000000E+00 -0.43681108662E+03  0.43681108662E+03  0.00000000000E+00 0.  1.
         23    2    1    2    0    0  0.56297192425E+02  0.68759343540E+03  0.20618767799E+03  0.72583665460E+03  0.91495269389E+02 0.  0.
        254    2    1    2    0    0 -0.56297192425E+02 -0.68759343540E+03  0.16370968659E+04  0.19910700625E+04  0.89906603721E+03 0.  0.
         23    2    4    4    0    0  0.64517040846E+02 -0.22093721438E+03  0.14406896473E+04  0.14619270660E+04  0.93104163026E+02 0.  0.
         23    2    4    4    0    0 -0.12081423327E+03 -0.46665622102E+03  0.19640721860E+03  0.52914299654E+03  0.95144141631E+02 0.  0.
          1    1    3    3  502    0  0.40892740049E+02  0.57409715831E+03  0.20597910377E+03  0.61129956205E+03  0.00000000000E+00 0. -1.
         -1    1    3    3    0  502  0.15404452376E+02  0.11349627709E+03  0.20857421680E+00  0.11453709255E+03  0.00000000000E+00 0.  1.
         13    1    5    5    0    0  0.24298335830E+02 -0.39791777578E+01  0.22807013759E+03  0.22939535880E+03  0.00000000000E+00 0. -1.
        -13    1    5    5    0    0  0.40218705016E+02 -0.21695803662E+03  0.12126195097E+04  0.12325317072E+04  0.00000000000E+00 0.  1.
          2    1    6    6  503    0 -0.94620283515E+02 -0.31876714866E+03  0.17986592828E+03  0.37804397267E+03  0.00000000000E+00 0. -1.
         -2    1    6    6    0  503 -0.26193949755E+02 -0.14788907236E+03  0.16541290323E+02  0.15109902387E+03  0.00000000000E+00 0.  1.
<mgrwt>
<rscale>  0 0.19959670E+04</rscale>
<asrwt>0</asrwt>
<pdfrwt beam="1">  1        2 0.35078394E+00 0.19959670E+04</pdfrwt>
<pdfrwt beam="2">  1       -2 0.67201706E-01 0.19959670E+04</pdfrwt>
<totfact> 0.87863843E+00</totfact>
</mgrwt>
</event>
<event>
12    3  0.4634846E-008  0.1613863E+04  0.7818608E-02  0.8812076E-01
         -2   -1    0    0    0  501 -0.00000000000E+00  0.00000000000E+00  0.18626356275E+03  0.18626356275E+03  0.00000000000E+00 0.  1.
          2   -1    0    0  501    0  0.00000000000E+00 -0.00000000000E+00 -0.34957918234E+04  0.34957918234E+04  0.00000000000E+00 0. -1.
         23    2    1    2    0    0  0.13431867596E+03 -0.51399036720E+03 -0.14752059296E+04  0.15706464155E+04  0.92032731495E+02 0.  0.
        254    2    1    2    0    0 -0.13431867596E+03  0.51399036720E+03 -0.18343223311E+04  0.21114089707E+04  0.90060081208E+03 0.  0.
         23    2    4    4    0    0 -0.31057335815E+03  0.58051635110E+03 -0.17660758261E+04  0.18869322592E+04  0.89635274061E+02 0.  0.
         23    2    4    4    0    0  0.17625468219E+03 -0.66525983906E+02 -0.68246504982E+02  0.22447671150E+03  0.10119678372E+03 0.  0.
          1    1    3    3  502    0 -0.46087188752E+01 -0.77869002850E+02 -0.28437586618E+03  0.29488040823E+03  0.00000000000E+00 0. -1.
         -1    1    3    3    0  502  0.13892739483E+03 -0.43612136435E+03 -0.11908300634E+04  0.12757660073E+04  0.00000000000E+00 0.  1.
         13    1    5    5    0    0 -0.45137097491E+02  0.45708800610E+02 -0.23313403844E+03  0.24182252150E+03  0.00000000000E+00 0. -1.
        -13    1    5    5    0    0 -0.26543626066E+03  0.53480755049E+03 -0.15329417877E+04  0.16451097377E+04  0.00000000000E+00 0.  1.
          3    1    6    6  503    0  0.14059353564E+03 -0.68250211367E+01 -0.64504671242E+02  0.15483531829E+03  0.00000000000E+00 0. -1.
         -3    1    6    6    0  503  0.35661146552E+02 -0.59700962769E+02 -0.37418337400E+01  0.69641393213E+02  0.00000000000E+00 0.  1.
<mgrwt>
<rscale>  0 0.16138632E+04</rscale>
<asrwt>0</asrwt>
<pdfrwt beam="1">  1        2 0.53781412E+00 0.16138632E+04</pdfrwt>
<pdfrwt beam="2">  1       -2 0.28655933E-01 0.16138632E+04</pdfrwt>
<totfact> 0.88579942E+00</totfact>
</mgrwt>
</event>
<event>
12    3  0.4634846E-008  0.2570578E+04  0.7818608E-02  0.8378264E-01
         -1   -1    0    0    0  501 -0.00000000000E+00  0.00000000000E+00  0.52534909967E+03  0.52534909967E+03  0.00000000000E+00 0.  1.
          1   -1    0    0  501    0  0.00000000000E+00 -0.00000000000E+00 -0.31445137111E+04  0.31445137111E+04  0.00000000000E+00 0. -1.
         23    2    1    2    0    0 -0.26279097330E+03 -0.92063205493E+03 -0.19415656915E+04  0.21666203760E+04  0.89129361423E+02 0.  0.
        254    2    1    2    0    0  0.26279097330E+03  0.92063205493E+03 -0.67759891999E+03  0.15032424348E+04  0.94019947100E+03 0.  0.
         23    2    4    4    0    0  0.33918765159E+03  0.27097274428E+03 -0.71501235910E+03  0.84132284552E+03  0.90038689484E+02 0.  0.
         23    2    4    4    0    0 -0.76396678286E+02  0.64965931066E+03  0.37413439109E+02  0.66191958931E+03  0.94043101321E+02 0.  0.
          3    1    3    3  502    0 -0.13906045728E+03 -0.33583888730E+03 -0.76119659413E+03  0.84353175631E+03  0.00000000000E+00 0. -1.
         -3    1    3    3    0  502 -0.12373051603E+03 -0.58479316763E+03 -0.11803690973E+04  0.13230886197E+04  0.00000000000E+00 0.  1.
         13    1    5    5    0    0  0.31447611006E+01  0.69490921555E+01  0.77345192632E+00  0.76666571625E+01  0.00000000000E+00 0.  1.
        -13    1    5    5    0    0  0.33604289049E+03  0.26402365212E+03 -0.71578581102E+03  0.83365618836E+03  0.00000000000E+00 0. -1.
          3    1    6    6  503    0 -0.28189041495E+02  0.53235458208E+03  0.16296823499E+02  0.53334942540E+03  0.00000000000E+00 0. -1.
         -3    1    6    6    0  503 -0.48207636791E+02  0.11730472858E+03  0.21116615610E+02  0.12857016391E+03  0.00000000000E+00 0.  1.
<mgrwt>
<rscale>  0 0.25705777E+04</rscale>
<asrwt>0</asrwt>
<pdfrwt beam="1">  1        1 0.48377134E+00 0.25705777E+04</pdfrwt>
<pdfrwt beam="2">  1       -1 0.80822939E-01 0.25705777E+04</pdfrwt>
<totfact> 0.63022379E-01</totfact>
</mgrwt>
</event>
<event>
12    3  0.4634846E-008  0.1502318E+04  0.7818608E-02  0.8882913E-01
          1   -1    0    0  501    0  0.00000000000E+00  0.00000000000E+00  0.20501245807E+03  0.20501245807E+03  0.00000000000E+00 0. -1.
         -1   -1    0    0    0  501 -0.00000000000E+00 -0.00000000000E+00 -0.27522224950E+04  0.27522224950E+04  0.00000000000E+00 0.  1.
         23    2    1    2    0    0  0.10046955240E+03 -0.33196963670E+03 -0.14608573998E+04  0.15040419998E+04  0.87977405822E+02 0.  0.
        254    2    1    2    0    0 -0.10046955240E+03  0.33196963670E+03 -0.10863526371E+04  0.14531929533E+04  0.90072733755E+03 0.  0.
         23    2    4    4    0    0  0.30122528106E+03  0.62532428160E+02 -0.76958357876E+02  0.33016175416E+03  0.91854344167E+02 0.  0.
         23    2    4    4    0    0 -0.40169483346E+03  0.26943720854E+03 -0.10093942793E+04  0.11230311991E+04  0.91471933576E+02 0.  0.
          1    1    3    3  502    0  0.12345781937E+02  0.17005453372E+01 -0.41496918337E+02  0.43327871140E+02  0.00000000000E+00 0. -1.
         -1    1    3    3    0  502  0.88123770468E+02 -0.33367018204E+03 -0.14193604815E+04  0.14607141287E+04  0.00000000000E+00 0.  1.
         13    1    5    5    0    0  0.10981570701E+03  0.18009182231E+02 -0.73961506603E+02  0.13361932723E+03  0.00000000000E+00 0. -1.
        -13    1    5    5    0    0  0.19140957404E+03  0.44523245930E+02 -0.29968512733E+01  0.19654242693E+03  0.00000000000E+00 0.  1.
          3    1    6    6  503    0 -0.36251112189E+03  0.22890211843E+03 -0.81852246475E+03  0.92400731524E+03  0.00000000000E+00 0. -1.
         -3    1    6    6    0  503 -0.39183711572E+02  0.40535090107E+02 -0.19087181452E+03  0.19902388389E+03  0.00000000000E+00 0.  1.
<mgrwt>
<rscale>  0 0.15023181E+04</rscale>
<asrwt>0</asrwt>
<pdfrwt beam="1">  1        1 0.31540382E-01 0.15023181E+04</pdfrwt>
<pdfrwt beam="2">  1       -1 0.42341879E+00 0.15023181E+04</pdfrwt>
<totfact> 0.69280531E-01</totfact>
</mgrwt>
</event>
<event>
12    3  0.4634846E-008  0.1740131E+04  0.7818608E-02  0.8738802E-01
          2   -1    0    0  501    0  0.00000000000E+00  0.00000000000E+00  0.25465654872E+04  0.25465654872E+04  0.00000000000E+00 0. -1.
         -2   -1    0    0    0  501 -0.00000000000E+00 -0.00000000000E+00 -0.29726856096E+03  0.29726856096E+03  0.00000000000E+00 0.  1.
         23    2    1    2    0    0  0.18423350770E+02  0.60954545433E+03  0.57466819532E+03  0.84291438804E+03  0.91520763189E+02 0.  0.
        254    2    1    2    0    0 -0.18423350770E+02 -0.60954545433E+03  0.16746287309E+04  0.20009196601E+04  0.90962245963E+03 0.  0.
         23    2    4    4    0    0 -0.30111450176E+03 -0.12581058791E+03  0.12415935511E+04  0.12869935417E+04  0.91102046795E+02 0.  0.
         23    2    4    4    0    0  0.28269115099E+03 -0.48373486642E+03  0.43303517978E+03  0.71392611842E+03  0.90869839865E+02 0.  0.
          3    1    3    3  502    0  0.32213774708E+02  0.12556213463E+03  0.89806175544E+02  0.15769821210E+03  0.00000000000E+00 0. -1.
         -3    1    3    3    0  502 -0.13790423938E+02  0.48398331970E+03  0.48486201978E+03  0.68521617594E+03  0.00000000000E+00 0.  1.
         13    1    5    5    0    0 -0.91742935361E+02 -0.14852042264E+02  0.23106235738E+03  0.24905252929E+03  0.00000000000E+00 0. -1.
        -13    1    5    5    0    0 -0.20937156640E+03 -0.11095854565E+03  0.10105311937E+04  0.10379410124E+04  0.00000000000E+00 0.  1.
          2    1    6    6  503    0  0.70721636151E+02 -0.56612570823E+02  0.75883947337E+02  0.11817320533E+03  0.00000000000E+00 0. -1.
         -2    1    6    6    0  503  0.21196951484E+03 -0.42712229560E+03  0.35715123244E+03  0.59575291309E+03  0.00000000000E+00 0.  1.
<mgrwt>
<rscale>  0 0.17401309E+04</rscale>
<asrwt>0</asrwt>
<pdfrwt beam="1">  1        2 0.39177929E+00 0.17401309E+04</pdfrwt>
<pdfrwt beam="2">  1       -2 0.45733626E-01 0.17401309E+04</pdfrwt>
<totfact> 0.14088392E+01</totfact>
</mgrwt>
</event>
<event>
12    3  0.4634846E-008  0.1476900E+04  0.7818608E-02  0.8899961E-01
         -1   -1    0    0    0  501 -0.00000000000E+00  0.00000000000E+00  0.28290160572E+03  0.28290160572E+03  0.00000000000E+00 0.  1.
          1   -1    0    0  501    0  0.00000000000E+00 -0.00000000000E+00 -0.19275547312E+04  0.19275547312E+04  0.00000000000E+00 0. -1.
         23    2    1    2    0    0 -0.17775642305E+03 -0.38417880974E+03 -0.25475404987E+03  0.50247454317E+03  0.91598781783E+02 0.  0.
        254    2    1    2    0    0  0.17775642305E+03  0.38417880974E+03 -0.13898990756E+04  0.17079817937E+04  0.89788176480E+03 0.  0.
         23    2    4    4    0    0  0.15818853646E+03 -0.26529099485E+03 -0.32556695126E+03  0.45764952900E+03  0.89701318971E+02 0.  0.
         23    2    4    4    0    0  0.19567886583E+02  0.64946980459E+03 -0.10643321243E+04  0.12503322647E+04  0.91290591303E+02 0.  0.
          1    1    3    3  502    0 -0.22401549592E+02 -0.44348648417E+02 -0.69449654297E+02  0.85392543717E+02  0.00000000000E+00 0. -1.
         -1    1    3    3    0  502 -0.15535487345E+03 -0.33983016133E+03 -0.18530439557E+03  0.41708199946E+03  0.00000000000E+00 0.  1.
         13    1    5    5    0    0  0.99929156460E+02 -0.82065296641E+02 -0.13534505273E+03  0.18718662485E+03  0.00000000000E+00 0.  1.
        -13    1    5    5    0    0  0.58259380003E+02 -0.18322569821E+03 -0.19022189853E+03  0.27046290415E+03  0.00000000000E+00 0. -1.
          1    1    6    6  503    0  0.40712693483E+02  0.30524139023E+03 -0.56511643749E+03  0.64357316417E+03  0.00000000000E+00 0. -1.
         -1    1    6    6    0  503 -0.21144806900E+02  0.34422841436E+03 -0.49921568683E+03  0.60675910054E+03  0.00000000000E+00 0.  1.
<mgrwt>
<rscale>  0 0.14768999E+04</rscale>
<asrwt>0</asrwt>
<pdfrwt beam="1">  1        1 0.29654688E+00 0.14768999E+04</pdfrwt>
<pdfrwt beam="2">  1       -1 0.43523324E-01 0.14768999E+04</pdfrwt>
<totfact> 0.16865049E+01</totfact>
</mgrwt>
</event>
<event>
12    3  0.4634846E-008  0.1083895E+04  0.7818608E-02  0.9221032E-01
         -1   -1    0    0    0  501 -0.00000000000E+00  0.00000000000E+00  0.17238060704E+03  0.17238060704E+03  0.00000000000E+00 0.  1.
          1   -1    0    0  501    0  0.00000000000E+00 -0.00000000000E+00 -0.17038296886E+04  0.17038296886E+04  0.00000000000E+00 0. -1.
         23    2    1    2    0    0  0.12466645163E+03 -0.69120809426E+02 -0.20672053763E+03  0.26649476268E+03  0.89256189697E+02 0.  0.
        254    2    1    2    0    0 -0.12466645163E+03  0.69120809426E+02 -0.13247285439E+04  0.16097155329E+04  0.90330447330E+03 0.  0.
         23    2    4    4    0    0 -0.15473606940E+03  0.46013989271E+03 -0.88380941360E+03  0.10124502670E+04  0.90909249323E+02 0.  0.
         23    2    4    4    0    0  0.30069617770E+02 -0.39101908329E+03 -0.44091913029E+03  0.59726526589E+03  0.92282246239E+02 0.  0.
          3    1    3    3  502    0  0.77119718624E+01 -0.16027478138E+02 -0.93806162585E+02  0.95477487946E+02  0.00000000000E+00 0. -1.
         -3    1    3    3    0  502  0.11695447977E+03 -0.53093331288E+02 -0.11291437505E+03  0.17101727474E+03  0.00000000000E+00 0.  1.
         13    1    5    5    0    0 -0.16177524156E+03  0.42189660499E+03 -0.84040813463E+03  0.95417703118E+03  0.00000000000E+00 0. -1.
        -13    1    5    5    0    0  0.70391721588E+01  0.38243287727E+02 -0.43401278977E+02  0.58273235861E+02  0.00000000000E+00 0.  1.
          4    1    6    6  503    0 -0.23000371334E+02 -0.21605067359E+03 -0.20431841303E+03  0.29824976872E+03  0.00000000000E+00 0. -1.
         -4    1    6    6    0  503  0.53069989104E+02 -0.17496840969E+03 -0.23660071726E+03  0.29901549716E+03  0.00000000000E+00 0.  1.
<mgrwt>
<rscale>  0 0.10838952E+04</rscale>
<asrwt>0</asrwt>
<pdfrwt beam="1">  1        1 0.26212764E+00 0.10838952E+04</pdfrwt>
<pdfrwt beam="2">  1       -1 0.26520094E-01 0.10838952E+04</pdfrwt>
<totfact> 0.59834280E+01</totfact>
</mgrwt>
</event>
<event>
12    3  0.4634846E-008  0.1437431E+04  0.7818608E-02  0.8927161E-01
          1   -1    0    0  501    0  0.00000000000E+00  0.00000000000E+00  0.22030776289E+04  0.22030776289E+04  0.00000000000E+00 0. -1.
         -1   -1    0    0    0  501 -0.00000000000E+00 -0.00000000000E+00 -0.23446842407E+03  0.23446842407E+03  0.00000000000E+00 0.  1.
         23    2    1    2    0    0 -0.15857450106E+03 -0.25693689499E+03  0.11291442540E+04  0.11723511040E+04  0.90983098702E+02 0.  0.
        254    2    1    2    0    0  0.15857450106E+03  0.25693689499E+03  0.83946495078E+03  0.12651949489E+04  0.89713678715E+03 0.  0.
         23    2    4    4    0    0 -0.10733942929E+03  0.46688785479E+03  0.18446011087E+03  0.52192460943E+03  0.94200548823E+02 0.  0.
         23    2    4    4    0    0  0.26591393035E+03 -0.20995095979E+03  0.65500483991E+03  0.74327033952E+03  0.92896896747E+02 0.  0.
          4    1    3    3  502    0 -0.34733891439E+02 -0.19702669982E+02  0.77399923670E+02  0.87094124962E+02  0.00000000000E+00 0.  1.
         -4    1    3    3    0  502 -0.12384060962E+03 -0.23723422501E+03  0.10517443304E+04  0.10852569790E+04  0.00000000000E+00 0. -1.
         13    1    5    5    0    0 -0.10312958616E+03  0.44681655233E+03  0.19565550660E+03  0.49855974591E+03  0.00000000000E+00 0. -1.
        -13    1    5    5    0    0 -0.42098431348E+01  0.20071302452E+02 -0.11195395738E+02  0.23364863515E+02  0.00000000000E+00 0.  1.
          2    1    6    6  503    0  0.20062523094E+03 -0.10218645445E+03  0.43070936135E+03  0.48600731344E+03  0.00000000000E+00 0. -1.
         -2    1    6    6    0  503  0.65288699409E+02 -0.10776450534E+03  0.22429547856E+03  0.25726302608E+03  0.00000000000E+00 0.  1.
<mgrwt>
<rscale>  0 0.14374312E+04</rscale>
<asrwt>0</asrwt>
<pdfrwt beam="1">  1        1 0.33893501E+00 0.14374312E+04</pdfrwt>
<pdfrwt beam="2">  1       -1 0.36072067E-01 0.14374312E+04</pdfrwt>
<totfact> 0.15515995E+01</totfact>
</mgrwt>
</event>
<event>
12    3  0.4634846E-008  0.1211793E+04  0.7818608E-02  0.9102596E-01
          3   -1    0    0  501    0  0.00000000000E+00  0.00000000000E+00  0.80366496918E+03  0.80366496918E+03  0.00000000000E+00 0.  1.
         -3   -1    0    0    0  501 -0.00000000000E+00 -0.00000000000E+00 -0.45679581502E+03  0.45679581502E+03  0.00000000000E+00 0. -1.
         23    2    1    2    0    0 -0.12061690577E+03 -0.22607196916E+03  0.42476654110E+02  0.27670079174E+03  0.95404867844E+02 0.  0.
        254    2    1    2    0    0  0.12061690577E+03  0.22607196916E+03  0.30439250005E+03  0.98375999246E+03  0.89970659410E+03 0.  0.
         23    2    4    4    0    0  0.36692240885E+03  0.97548372034E+02 -0.17058623217E+03  0.42571573789E+03  0.89367152099E+02 0.  0.
         23    2    4    4    0    0 -0.24630550308E+03  0.12852359713E+03  0.47497873223E+03  0.55804425457E+03  0.92864837958E+02 0.  0.
          4    1    3    3  502    0 -0.68167364767E+02 -0.15867271364E+03  0.70913256312E+02  0.18668826850E+03  0.00000000000E+00 0.  1.
         -4    1    3    3    0  502 -0.52449541007E+02 -0.67399255517E+02 -0.28436602202E+02  0.90012523245E+02  0.00000000000E+00 0. -1.
         13    1    5    5    0    0  0.10735699371E+03  0.66325362168E+02 -0.33720196389E+02  0.13062017229E+03  0.00000000000E+00 0.  1.
        -13    1    5    5    0    0  0.25956541514E+03  0.31223009867E+02 -0.13686603578E+03  0.29509556560E+03  0.00000000000E+00 0. -1.
          3    1    6    6  503    0 -0.14830343289E+03  0.10260284606E+03  0.37271631066E+03  0.41405156739E+03  0.00000000000E+00 0. -1.
         -3    1    6    6    0  503 -0.98002070189E+02  0.25920751067E+02  0.10226242157E+03  0.14399268718E+03  0.00000000000E+00 0.  1.
<mgrwt>
<rscale>  0 0.12117934E+04</rscale>
<asrwt>0</asrwt>
<pdfrwt beam="1">  1        3 0.12364076E+00 0.12117934E+04</pdfrwt>
<pdfrwt beam="2">  1       -3 0.70276279E-01 0.12117934E+04</pdfrwt>
<totfact> 0.26325949E+00</totfact>
</mgrwt>
</event>
<event>
12    3  0.4634846E-008  0.1980559E+04  0.7818608E-02  0.8615764E-01
          2   -1    0    0  501    0  0.00000000000E+00  0.00000000000E+00  0.33186102884E+04  0.33186102884E+04  0.00000000000E+00 0. -1.
         -2   -1    0    0    0  501 -0.00000000000E+00 -0.00000000000E+00 -0.29550131881E+03  0.29550131881E+03  0.00000000000E+00 0.  1.
         23    2    1    2    0    0  0.11706113138E+03 -0.37982623408E+03 -0.28925547464E+02  0.40890942221E+03  0.91645794775E+02 0.  0.
        254    2    1    2    0    0 -0.11706113138E+03  0.37982623408E+03  0.30520345171E+04  0.32052021850E+04  0.89467037331E+03 0.  0.
         23    2    4    4    0    0 -0.28224159605E+02  0.16792535086E+03  0.60131582951E+02  0.20297178806E+03  0.92661819706E+02 0.  0.
         23    2    4    4    0    0 -0.88836971779E+02  0.21190088322E+03  0.29919029341E+04  0.30022303970E+04  0.95447354010E+02 0.  0.
          2    1    3    3  502    0  0.27601579848E+02 -0.62377911868E+02  0.28872207889E+02  0.74070611497E+02  0.00000000000E+00 0. -1.
         -2    1    3    3    0  502  0.89459551536E+02 -0.31744832221E+03 -0.57797755353E+02  0.33483881071E+03  0.00000000000E+00 0.  1.
         13    1    5    5    0    0 -0.14841966332E+02 -0.44799512927E+01 -0.75879866005E+01  0.17260691436E+02  0.00000000000E+00 0.  1.
        -13    1    5    5    0    0 -0.13382193273E+02  0.17240530215E+03  0.67719569552E+02  0.18571109662E+03  0.00000000000E+00 0. -1.
          2    1    6    6  503    0 -0.35530411507E+02  0.75508394499E+02  0.17014302355E+04  0.17034754986E+04  0.00000000000E+00 0. -1.
         -2    1    6    6    0  503 -0.53306560271E+02  0.13639248872E+03  0.12904726986E+04  0.12987548984E+04  0.00000000000E+00 0.  1.
<mgrwt>
<rscale>  0 0.19805592E+04</rscale>
<asrwt>0</asrwt>
<pdfrwt beam="1">  1        2 0.51055540E+00 0.19805592E+04</pdfrwt>
<pdfrwt beam="2">  1       -2 0.45461744E-01 0.19805592E+04</pdfrwt>
<totfact> 0.46419127E+00</totfact>
</mgrwt>
</event>
<event>
12    3  0.4634846E-008  0.1412282E+04  0.7818608E-02  0.8944976E-01
          1   -1    0    0  501    0  0.00000000000E+00  0.00000000000E+00  0.24634433058E+04  0.24634433058E+04  0.00000000000E+00 0. -1.
         -1   -1    0    0    0  501 -0.00000000000E+00 -0.00000000000E+00 -0.20241386375E+03  0.20241386375E+03  0.00000000000E+00 0.  1.
         23    2    1    2    0    0  0.96519854736E+02  0.39988284608E+03  0.74843428643E+03  0.85893644311E+03  0.91627284410E+02 0.  0.
        254    2    1    2    0    0 -0.96519854736E+02 -0.39988284608E+03  0.15125951556E+04  0.18069207265E+04  0.89877474035E+03 0.  0.
         23    2    4    4    0    0  0.34106896974E+03 -0.22696960835E+03  0.34069138759E+03  0.54032637645E+03  0.89658944201E+02 0.  0.
         23    2    4    4    0    0 -0.43758882447E+03 -0.17291323773E+03  0.11719037680E+04  0.12665943500E+04  0.97569661374E+02 0.  0.
          2    1    3    3  502    0  0.21713482576E+02  0.82394363073E+02  0.24186856323E+03  0.25643850778E+03  0.00000000000E+00 0. -1.
         -2    1    3    3    0  502  0.74806372159E+02  0.31748848301E+03  0.50656572320E+03  0.60249793534E+03  0.00000000000E+00 0.  1.
         13    1    5    5    0    0  0.66189585496E+02 -0.34643634000E+02  0.11080549697E+03  0.13363794657E+03  0.00000000000E+00 0. -1.
        -13    1    5    5    0    0  0.27487938424E+03 -0.19232597435E+03  0.22988589062E+03  0.40668842988E+03  0.00000000000E+00 0.  1.
          2    1    6    6  503    0 -0.47714993681E+02 -0.54620167718E+02  0.15590221307E+03  0.17194645499E+03  0.00000000000E+00 0. -1.
         -2    1    6    6    0  503 -0.38987383079E+03 -0.11829307002E+03  0.10160015550E+04  0.10946478950E+04  0.00000000000E+00 0.  1.
<mgrwt>
<rscale>  0 0.14122820E+04</rscale>
<asrwt>0</asrwt>
<pdfrwt beam="1">  1        1 0.37899126E+00 0.14122820E+04</pdfrwt>
<pdfrwt beam="2">  1       -1 0.31140596E-01 0.14122820E+04</pdfrwt>
<totfact> 0.13409034E+01</totfact>
</mgrwt>
</event>
<event>
12    3  0.4634846E-008  0.1276750E+04  0.7818608E-02  0.9048208E-01
         -2   -1    0    0    0  501 -0.00000000000E+00  0.00000000000E+00  0.73322383402E+03  0.73322383402E+03  0.00000000000E+00 0.  1.
          2   -1    0    0  501    0  0.00000000000E+00 -0.00000000000E+00 -0.55579607612E+03  0.55579607612E+03  0.00000000000E+00 0. -1.
         23    2    1    2    0    0  0.73442929817E+02 -0.69015612559E+02 -0.25081219059E+03  0.28524907788E+03  0.91122240770E+02 0.  0.
        254    2    1    2    0    0 -0.73442929817E+02  0.69015612559E+02  0.42823994849E+03  0.10037708323E+04  0.90222470123E+03 0.  0.
         23    2    4    4    0    0 -0.25434721580E+03  0.17216633673E+03 -0.16893985281E+03  0.36333492574E+03  0.95592053581E+02 0.  0.
         23    2    4    4    0    0  0.18090428599E+03 -0.10315072417E+03  0.59717980130E+03  0.64043590652E+03  0.10083651467E+03 0.  0.
          2    1    3    3  502    0  0.34444398095E+02 -0.64165737163E+02 -0.22900320756E+03  0.24030423936E+03  0.00000000000E+00 0. -1.
         -2    1    3    3    0  502  0.38998531721E+02 -0.48498753961E+01 -0.21808983036E+02  0.44944838512E+02  0.00000000000E+00 0.  1.
         13    1    5    5    0    0 -0.11549390973E+03  0.70614105444E+02 -0.22105258484E+02  0.13716354298E+03  0.00000000000E+00 0. -1.
        -13    1    5    5    0    0 -0.13885330608E+03  0.10155223128E+03 -0.14683459433E+03  0.22617138276E+03  0.00000000000E+00 0.  1.
          3    1    6    6  503    0  0.13727815630E+02  0.97887648160E+00  0.24978220166E+01  0.13987502849E+02  0.00000000000E+00 0. -1.
         -3    1    6    6    0  503  0.16717647036E+03 -0.10412960065E+03  0.59468197929E+03  0.62644840367E+03  0.00000000000E+00 0.  1.
<mgrwt>
<rscale>  0 0.12767505E+04</rscale>
<asrwt>0</asrwt>
<pdfrwt beam="1">  1        2 0.85507088E-01 0.12767505E+04</pdfrwt>
<pdfrwt beam="2">  1       -2 0.11280367E+00 0.12767505E+04</pdfrwt>
<totfact> 0.32987316E+01</totfact>
</mgrwt>
</event>
<event>
12    3  0.4634846E-008  0.2032180E+04  0.7818608E-02  0.8591722E-01
          2   -1    0    0  501    0  0.00000000000E+00  0.00000000000E+00  0.41148696784E+03  0.41148696784E+03  0.00000000000E+00 0.  1.
         -2   -1    0    0    0  501 -0.00000000000E+00 -0.00000000000E+00 -0.25090431653E+04  0.25090431653E+04  0.00000000000E+00 0. -1.
         23    2    1    2    0    0 -0.13189377119E+03 -0.73423550655E+03 -0.38307812126E+03  0.84355850359E+03  0.91347446693E+02 0.  0.
        254    2    1    2    0    0  0.13189377119E+03  0.73423550655E+03 -0.17144780762E+04  0.20769716295E+04  0.90436625890E+03 0.  0.
         23    2    4    4    0    0  0.22441646078E+03  0.82670156860E+03 -0.17123467405E+04  0.19168673622E+04  0.91928738758E+02 0.  0.
         23    2    4    4    0    0 -0.92522689590E+02 -0.92466062041E+02 -0.21313356158E+01  0.16010426733E+03  0.92295249641E+02 0.  0.
          4    1    3    3  502    0 -0.69492130849E+02 -0.46817548238E+03 -0.19547598795E+03  0.51208231801E+03  0.00000000000E+00 0.  1.
         -4    1    3    3    0  502 -0.62401640345E+02 -0.26606002417E+03 -0.18760213332E+03  0.33147618558E+03  0.00000000000E+00 0. -1.
         13    1    5    5    0    0  0.30259475624E+02  0.18959221193E+03 -0.31483141553E+03  0.36875420390E+03  0.00000000000E+00 0. -1.
        -13    1    5    5    0    0  0.19415698516E+03  0.63710935666E+03 -0.13975153250E+04  0.15481131583E+04  0.00000000000E+00 0.  1.
          2    1    6    6  503    0 -0.17147017580E+02 -0.42929988643E+02 -0.41094111270E+02  0.61852486756E+02  0.00000000000E+00 0. -1.
         -2    1    6    6    0  503 -0.75375672010E+02 -0.49536073398E+02  0.38962775654E+02  0.98251780571E+02  0.00000000000E+00 0.  1.
<mgrwt>
<rscale>  0 0.20321797E+04</rscale>
<asrwt>0</asrwt>
<pdfrwt beam="1">  1        2 0.63305687E-01 0.20321797E+04</pdfrwt>
<pdfrwt beam="2">  1       -2 0.38600664E+00 0.20321797E+04</pdfrwt>
<totfact> 0.65511094E-01</totfact>
</mgrwt>
</event>
<event>
12    3  0.4634846E-008  0.2524165E+04  0.7818608E-02  0.8394427E-01
         -1   -1    0    0    0  501 -0.00000000000E+00  0.00000000000E+00  0.94012611881E+03  0.94012611881E+03  0.00000000000E+00 0.  1.
          1   -1    0    0  501    0  0.00000000000E+00 -0.00000000000E+00 -0.16942958041E+04  0.16942958041E+04  0.00000000000E+00 0. -1.
         23    2    1    2    0    0 -0.66182655942E+02 -0.45881942405E+03 -0.13736313524E+04  0.14523156130E+04  0.86383677113E+02 0.  0.
        254    2    1    2    0    0  0.66182655942E+02  0.45881942405E+03  0.61946166715E+03  0.11821063099E+04  0.89372655935E+03 0.  0.
         23    2    4    4    0    0  0.11266206527E+03 -0.14179559252E+03  0.52867229625E+03  0.56603129422E+03  0.89990545076E+02 0.  0.
         23    2    4    4    0    0 -0.46479409323E+02  0.60061501657E+03  0.90789370903E+02  0.61607501564E+03  0.91689592627E+02 0.  0.
          2    1    3    3  502    0 -0.66801056535E+02 -0.40983125520E+03 -0.12922424219E+04  0.13573188703E+04  0.00000000000E+00 0. -1.
         -2    1    3    3    0  502  0.61840059247E+00 -0.48988168851E+02 -0.81388930553E+02  0.94996742698E+02  0.00000000000E+00 0.  1.
         13    1    5    5    0    0  0.91503230983E+02 -0.11088739133E+03  0.28201253034E+03  0.31654371279E+03  0.00000000000E+00 0.  1.
        -13    1    5    5    0    0  0.21158834283E+02 -0.30908201190E+02  0.24665976591E+03  0.24948758143E+03  0.00000000000E+00 0. -1.
          3    1    6    6  503    0 -0.27887988994E+01  0.64467356638E+02 -0.18569577999E+02  0.67146457079E+02  0.00000000000E+00 0. -1.
         -3    1    6    6    0  503 -0.43690610424E+02  0.53614765994E+03  0.10935894890E+03  0.54892855856E+03  0.00000000000E+00 0.  1.
<mgrwt>
<rscale>  0 0.25241646E+04</rscale>
<asrwt>0</asrwt>
<pdfrwt beam="1">  1        1 0.26066089E+00 0.25241646E+04</pdfrwt>
<pdfrwt beam="2">  1       -1 0.14463479E+00 0.25241646E+04</pdfrwt>
<totfact> 0.16398729E+00</totfact>
</mgrwt>
</event>
<event>
12    3  0.4634846E-008  0.2746125E+04  0.7818608E-02  0.8320192E-01
          1   -1    0    0  501    0  0.00000000000E+00  0.00000000000E+00  0.14654483387E+04  0.14654483387E+04  0.00000000000E+00 0. -1.
         -1   -1    0    0    0  501 -0.00000000000E+00 -0.00000000000E+00 -0.12865012652E+04  0.12865012652E+04  0.00000000000E+00 0.  1.
         23    2    1    2    0    0  0.47640171777E+03 -0.10860598337E+04 -0.28510829841E+03  0.12232030135E+04  0.91947329351E+02 0.  0.
        254    2    1    2    0    0 -0.47640171777E+03  0.10860598337E+04  0.46405537182E+03  0.15287465904E+04  0.84571519468E+03 0.  0.
         23    2    4    4    0    0 -0.65293755985E+03  0.47999040315E+03  0.20926213717E+03  0.84190384927E+03  0.91067036760E+02 0.  0.
         23    2    4    4    0    0  0.17653584208E+03  0.60606943053E+03  0.25479323465E+03  0.68684274113E+03  0.91369034457E+02 0.  0.
          2    1    3    3  502    0  0.10997167388E+02 -0.39255415722E+02  0.59700443947E+01  0.41201538614E+02  0.00000000000E+00 0. -1.
         -2    1    3    3    0  502  0.46540455038E+03 -0.10468044180E+04 -0.29107834280E+03  0.11820014749E+04  0.00000000000E+00 0.  1.
         13    1    5    5    0    0 -0.17281265337E+03  0.17762539787E+03  0.53855656503E+02  0.25360486366E+03  0.00000000000E+00 0. -1.
        -13    1    5    5    0    0 -0.48012490647E+03  0.30236500528E+03  0.15540648067E+03  0.58829898561E+03  0.00000000000E+00 0.  1.
          1    1    6    6  503    0  0.18258485428E+03  0.54632078522E+03  0.21519439775E+03  0.61490833316E+03  0.00000000000E+00 0.  1.
         -1    1    6    6    0  503 -0.60490121999E+01  0.59748645311E+02  0.39598836904E+02  0.71934407965E+02  0.00000000000E+00 0. -1.
<mgrwt>
<rscale>  0 0.27461254E+04</rscale>
<asrwt>0</asrwt>
<pdfrwt beam="1">  1        1 0.22545359E+00 0.27461254E+04</pdfrwt>
<pdfrwt beam="2">  1       -1 0.19792327E+00 0.27461254E+04</pdfrwt>
<totfact> 0.93547278E-01</totfact>
</mgrwt>
</event>
<event>
12    3  0.4634846E-008  0.1950876E+04  0.7818608E-02  0.8629939E-01
          1   -1    0    0  501    0  0.00000000000E+00  0.00000000000E+00  0.10495632437E+04  0.10495632437E+04  0.00000000000E+00 0. -1.
         -1   -1    0    0    0  501 -0.00000000000E+00 -0.00000000000E+00 -0.90654746982E+03  0.90654746982E+03  0.00000000000E+00 0.  1.
         23    2    1    2    0    0 -0.72430218839E+03 -0.12780037578E+03 -0.15288980228E+03  0.75640622151E+03  0.88478721385E+02 0.  0.
        254    2    1    2    0    0  0.72430218839E+03  0.12780037578E+03  0.29590557614E+03  0.11997044920E+04  0.90043554015E+03 0.  0.
         23    2    4    4    0    0  0.30644435837E+03  0.43438980010E+03 -0.90396510699E+02  0.54690585269E+03  0.91278909635E+02 0.  0.
         23    2    4    4    0    0  0.41785783002E+03 -0.30658942432E+03  0.38630208684E+03  0.65279863931E+03  0.91183989640E+02 0.  0.
          3    1    3    3  502    0 -0.41291545935E+03 -0.92513530095E+02 -0.47646408893E+02  0.42582638493E+03  0.00000000000E+00 0. -1.
         -3    1    3    3    0  502 -0.31138672904E+03 -0.35286845682E+02 -0.10524339339E+03  0.33057983658E+03  0.00000000000E+00 0.  1.
         13    1    5    5    0    0 -0.46900905649E+01  0.23575738229E+02 -0.34112038939E+01  0.24278564508E+02  0.00000000000E+00 0.  1.
        -13    1    5    5    0    0  0.31113444894E+03  0.41081406187E+03 -0.86985306805E+02  0.52262728818E+03  0.00000000000E+00 0. -1.
          1    1    6    6  503    0  0.24698756686E+03 -0.23220597555E+03  0.23115235829E+03  0.41030950026E+03  0.00000000000E+00 0. -1.
         -1    1    6    6    0  503  0.17087026316E+03 -0.74383448776E+02  0.15514972855E+03  0.24248913905E+03  0.00000000000E+00 0.  1.
<mgrwt>
<rscale>  0 0.19508756E+04</rscale>
<asrwt>0</asrwt>
<pdfrwt beam="1">  1        1 0.16147127E+00 0.19508756E+04</pdfrwt>
<pdfrwt beam="2">  1       -1 0.13946884E+00 0.19508756E+04</pdfrwt>
<totfact> 0.54626957E+00</totfact>
</mgrwt>
</event>
<event>
12    3  0.4634846E-008  0.2886374E+04  0.7818608E-02  0.8276943E-01
         -2   -1    0    0    0  501 -0.00000000000E+00  0.00000000000E+00  0.16195479139E+04  0.16195479139E+04  0.00000000000E+00 0.  1.
          2   -1    0    0  501    0  0.00000000000E+00 -0.00000000000E+00 -0.12860306422E+04  0.12860306422E+04  0.00000000000E+00 0. -1.
         23    2    1    2    0    0  0.11841144039E+04 -0.46836743271E+03 -0.10714166457E+03  0.12811884025E+04  0.92029413933E+02 0.  0.
        254    2    1    2    0    0 -0.11841144039E+04  0.46836743271E+03  0.44065893628E+03  0.16243901536E+04  0.90717589232E+03 0.  0.
         23    2    4    4    0    0 -0.70402635697E+03  0.59672321253E+03 -0.38698605042E+02  0.92816282088E+03  0.90867685910E+02 0.  0.
         23    2    4    4    0    0 -0.48008804689E+03 -0.12835577982E+03  0.47935754133E+03  0.69622733275E+03  0.89381807197E+02 0.  0.
          3    1    3    3  502    0  0.87758872965E+03 -0.35855348843E+03 -0.40745527923E+02  0.94888501965E+03  0.00000000000E+00 0. -1.
         -3    1    3    3    0  502  0.30652567421E+03 -0.10981394428E+03 -0.66396136645E+02  0.33230338288E+03  0.00000000000E+00 0.  1.
         13    1    5    5    0    0 -0.36373625825E+03  0.25090515309E+03 -0.30408353199E+02  0.44292451881E+03  0.00000000000E+00 0.  1.
        -13    1    5    5    0    0 -0.34029009872E+03  0.34581805944E+03 -0.82902518438E+01  0.48523830207E+03  0.00000000000E+00 0. -1.
          1    1    6    6  503    0 -0.35454661671E+03 -0.10581074513E+03  0.30108119770E+03  0.47702107376E+03  0.00000000000E+00 0. -1.
         -1    1    6    6    0  503 -0.12554143018E+03 -0.22545034689E+02  0.17827634363E+03  0.21920625898E+03  0.00000000000E+00 0.  1.
<mgrwt>
<rscale>  0 0.28863737E+04</rscale>
<asrwt>0</asrwt>
<pdfrwt beam="1">  1        2 0.19785087E+00 0.28863737E+04</pdfrwt>
<pdfrwt beam="2">  1       -2 0.24916122E+00 0.28863737E+04</pdfrwt>
<totfact> 0.94650820E-01</totfact>
</mgrwt>
</event>
<event>
12    3  0.4634846E-008  0.1831421E+04  0.7818608E-02  0.8689766E-01
          2   -1    0    0  501    0  0.00000000000E+00  0.00000000000E+00  0.23614360685E+04  0.23614360685E+04  0.00000000000E+00 0. -1.
         -2   -1    0    0    0  501 -0.00000000000E+00 -0.00000000000E+00 -0.35509160012E+03  0.35509160012E+03  0.00000000000E+00 0.  1.
         23    2    1    2    0    0  0.54406223013E+03 -0.14372841425E+03  0.17003486628E+03  0.59473495371E+03  0.90201120240E+02 0.  0.
        254    2    1    2    0    0 -0.54406223013E+03  0.14372841425E+03  0.18363096021E+04  0.21217927150E+04  0.90183690490E+03 0.  0.
         23    2    4    4    0    0  0.13330595274E+03  0.27482190308E+03  0.90236183441E+03  0.95728638637E+03  0.94036109396E+02 0.  0.
         23    2    4    4    0    0 -0.67736818287E+03 -0.13109348883E+03  0.93394776773E+03  0.11645063286E+04  0.88336846880E+02 0.  0.
          4    1    3    3  502    0  0.35595838345E+02 -0.29044815433E+02 -0.15848858357E+01  0.45969303607E+02  0.00000000000E+00 0. -1.
         -4    1    3    3    0  502  0.50846639179E+03 -0.11468359882E+03  0.17161975212E+03  0.54876565010E+03  0.00000000000E+00 0.  1.
         13    1    5    5    0    0  0.10208085648E+03  0.11141505968E+03  0.48478993672E+03  0.50779434768E+03  0.00000000000E+00 0. -1.
        -13    1    5    5    0    0  0.31225096255E+02  0.16340684340E+03  0.41757189769E+03  0.44949203869E+03  0.00000000000E+00 0.  1.
          3    1    6    6  503    0 -0.65419974016E+03 -0.11125269788E+03  0.87540671101E+03  0.10984950489E+04  0.00000000000E+00 0. -1.
         -3    1    6    6    0  503 -0.23168442707E+02 -0.19840790954E+02  0.58541056716E+02  0.66011279677E+02  0.00000000000E+00 0.  1.
<mgrwt>
<rscale>  0 0.18314214E+04</rscale>
<asrwt>0</asrwt>
<pdfrwt beam="1">  1        2 0.36329785E+00 0.18314214E+04</pdfrwt>
<pdfrwt beam="2">  1       -2 0.54629478E-01 0.18314214E+04</pdfrwt>
<totfact> 0.12426902E+01</totfact>
</mgrwt>
</event>
<event>
12    3  0.4634846E-008  0.1643439E+04  0.7818608E-02  0.8794298E-01
          2   -1    0    0  501    0  0.00000000000E+00  0.00000000000E+00  0.19627770648E+04  0.19627770648E+04  0.00000000000E+00 0.  1.
         -2   -1    0    0    0  501 -0.00000000000E+00 -0.00000000000E+00 -0.34401393867E+03  0.34401393867E+03  0.00000000000E+00 0. -1.
         23    2    1    2    0    0 -0.23209673411E+03  0.41439054255E+03  0.10027553127E+04  0.11133859877E+04  0.92313188107E+02 0.  0.
        254    2    1    2    0    0  0.23209673411E+03 -0.41439054255E+03  0.61600781346E+03  0.11934050158E+04  0.90507540557E+03 0.  0.
         23    2    4    4    0    0 -0.28550261252E+03 -0.32434565576E+02  0.41601990145E+03  0.51385549853E+03  0.91712442789E+02 0.  0.
         23    2    4    4    0    0  0.51759934663E+03 -0.38195597697E+03  0.19998791201E+03  0.67954951728E+03  0.89403185097E+02 0.  0.
          1    1    3    3  502    0 -0.19602816199E+02  0.97830699202E+02  0.26009178569E+03  0.27857288650E+03  0.00000000000E+00 0. -1.
         -1    1    3    3    0  502 -0.21249391791E+03  0.31655984335E+03  0.74266352702E+03  0.83481310120E+03  0.00000000000E+00 0.  1.
         13    1    5    5    0    0 -0.51902684500E+01  0.31669822591E+01 -0.42565907677E+01  0.74220770796E+01  0.00000000000E+00 0.  1.
        -13    1    5    5    0    0 -0.28031234407E+03 -0.35601547835E+02  0.42027649222E+03  0.50643342145E+03  0.00000000000E+00 0. -1.
          1    1    6    6  503    0  0.51355689688E+03 -0.38409567719E+03  0.19047220288E+03  0.66899165588E+03  0.00000000000E+00 0. -1.
         -1    1    6    6    0  503  0.40424497511E+01  0.21397002192E+01  0.95157091297E+01  0.10557861396E+02  0.00000000000E+00 0.  1.
<mgrwt>
<rscale>  0 0.16434387E+04</rscale>
<asrwt>0</asrwt>
<pdfrwt beam="1">  1        2 0.30196570E+00 0.16434387E+04</pdfrwt>
<pdfrwt beam="2">  1       -2 0.52925222E-01 0.16434387E+04</pdfrwt>
<totfact> 0.22552660E+01</totfact>
</mgrwt>
</event>
<event>
12    3  0.4634846E-008  0.2420705E+04  0.7818608E-02  0.8431792E-01
          1   -1    0    0  501    0  0.00000000000E+00  0.00000000000E+00  0.89479868836E+03  0.89479868836E+03  0.00000000000E+00 0. -1.
         -1   -1    0    0    0  501 -0.00000000000E+00 -0.00000000000E+00 -0.16371874066E+04  0.16371874066E+04  0.00000000000E+00 0.  1.
         23    2    1    2    0    0  0.26786925063E+03 -0.11652726756E+03  0.72648282626E+03  0.78824400453E+03  0.90657455854E+02 0.  0.
        254    2    1    2    0    0 -0.26786925063E+03  0.11652726756E+03 -0.14688715445E+04  0.17437420904E+04  0.89315190431E+03 0.  0.
         23    2    4    4    0    0 -0.41626181555E+03 -0.26409070872E+03 -0.62064377222E+03  0.79781604058E+03  0.91071077189E+02 0.  0.
         23    2    4    4    0    0  0.14839256492E+03  0.38061797628E+03 -0.84822777226E+03  0.94592604983E+03  0.91626093060E+02 0.  0.
          1    1    3    3  502    0  0.26155791482E+03 -0.12401662243E+03  0.65525706173E+03  0.71634801765E+03  0.00000000000E+00 0. -1.
         -1    1    3    3    0  502  0.63113358161E+01  0.74893548727E+01  0.71225764531E+02  0.71895986879E+02  0.00000000000E+00 0.  1.
         13    1    5    5    0    0 -0.31710369685E+03 -0.15700453426E+03 -0.46689031089E+03  0.58582569142E+03  0.00000000000E+00 0. -1.
        -13    1    5    5    0    0 -0.99158118703E+02 -0.10708617446E+03 -0.15375346133E+03  0.21199034916E+03  0.00000000000E+00 0.  1.
          3    1    6    6  503    0  0.14336519960E+03  0.38354597982E+03 -0.84564246830E+03  0.93955962199E+03  0.00000000000E+00 0. -1.
         -3    1    6    6    0  503  0.50273653170E+01 -0.29280035477E+01 -0.25853039607E+01  0.63664278348E+01  0.00000000000E+00 0.  1.
<mgrwt>
<rscale>  0 0.24207050E+04</rscale>
<asrwt>0</asrwt>
<pdfrwt beam="1">  1        1 0.13766134E+00 0.24207050E+04</pdfrwt>
<pdfrwt beam="2">  1       -1 0.25187499E+00 0.24207050E+04</pdfrwt>
<totfact> 0.11141393E+00</totfact>
</mgrwt>
</event>
<event>
12    3  0.4634846E-008  0.1445622E+04  0.7818608E-02  0.8921442E-01
          2   -1    0    0  501    0  0.00000000000E+00  0.00000000000E+00  0.13850795549E+04  0.13850795549E+04  0.00000000000E+00 0. -1.
         -2   -1    0    0    0  501 -0.00000000000E+00 -0.00000000000E+00 -0.37720246890E+03  0.37720246890E+03  0.00000000000E+00 0.  1.
         23    2    1    2    0    0  0.19785927903E+03 -0.24527218557E+03  0.67849310402E+03  0.75395605459E+03  0.93755537125E+02 0.  0.
        254    2    1    2    0    0 -0.19785927903E+03  0.24527218557E+03  0.32938398201E+03  0.10083259692E+04  0.89940019643E+03 0.  0.
         23    2    4    4    0    0 -0.20175379397E+03 -0.27247280992E+03  0.33052597389E+03  0.48225553835E+03  0.91525730407E+02 0.  0.
         23    2    4    4    0    0  0.38945149384E+01  0.51774499549E+03 -0.11419918837E+01  0.52607043089E+03  0.93132950727E+02 0.  0.
          2    1    3    3  502    0  0.11343829905E+03 -0.14073465785E+03  0.27870391930E+03  0.33219025610E+03  0.00000000000E+00 0.  1.
         -2    1    3    3    0  502  0.84420979981E+02 -0.10453752771E+03  0.39978918471E+03  0.42176579849E+03  0.00000000000E+00 0. -1.
         13    1    5    5    0    0 -0.19899438892E+03 -0.24572337600E+03  0.26910717019E+03  0.41520767500E+03  0.00000000000E+00 0. -1.
        -13    1    5    5    0    0 -0.27594050504E+01 -0.26749433925E+02  0.61418803707E+02  0.67047863354E+02  0.00000000000E+00 0.  1.
          3    1    6    6  503    0  0.18886487855E+02  0.28183475676E+03  0.42630538893E+02  0.28566570040E+03  0.00000000000E+00 0. -1.
         -3    1    6    6    0  503 -0.14991972917E+02  0.23591023873E+03 -0.43772530777E+02  0.24040473049E+03  0.00000000000E+00 0.  1.
<mgrwt>
<rscale>  0 0.14456216E+04</rscale>
<asrwt>0</asrwt>
<pdfrwt beam="1">  1        2 0.21308916E+00 0.14456216E+04</pdfrwt>
<pdfrwt beam="2">  1       -2 0.58031150E-01 0.14456216E+04</pdfrwt>
<totfact> 0.39780625E+01</totfact>
</mgrwt>
</event>
<event>
12    3  0.4634846E-008  0.4003394E+04  0.7818608E-02  0.8003862E-01
          2   -1    0    0  501    0  0.00000000000E+00  0.00000000000E+00  0.48128193535E+04  0.48128193535E+04  0.00000000000E+00 0. -1.
         -2   -1    0    0    0  501 -0.00000000000E+00 -0.00000000000E+00 -0.83252458732E+03  0.83252458732E+03  0.00000000000E+00 0.  1.
         23    2    1    2    0    0  0.17978312425E+04  0.52976769335E+03  0.22475297062E+04  0.29278854826E+04  0.90954019401E+02 0.  0.
        254    2    1    2    0    0 -0.17978312425E+04 -0.52976769335E+03  0.17327650600E+04  0.27174584582E+04  0.93233831511E+03 0.  0.
         23    2    4    4    0    0 -0.10591145160E+04 -0.46492236770E+03  0.15704179609E+04  0.19525344124E+04  0.91113631390E+02 0.  0.
         23    2    4    4    0    0 -0.73871672645E+03 -0.64845325650E+02  0.16234709906E+03  0.76492404578E+03  0.94047312757E+02 0.  0.
          3    1    3    3  502    0  0.83984066945E+02  0.17544990621E+02  0.13270891765E+03  0.15802786786E+03  0.00000000000E+00 0. -1.
         -3    1    3    3    0  502  0.17138471755E+04  0.51222270273E+03  0.21148207885E+04  0.27698576147E+04  0.00000000000E+00 0.  1.
         13    1    5    5    0    0 -0.50343568578E+03 -0.18842966809E+03  0.67135323305E+03  0.86003976249E+03  0.00000000000E+00 0.  1.
        -13    1    5    5    0    0 -0.55567883022E+03 -0.27649269961E+03  0.89906472786E+03  0.10924946500E+04  0.00000000000E+00 0. -1.
          1    1    6    6  503    0 -0.46237986842E+03 -0.47698021938E+02  0.14743287421E+03  0.48765427960E+03  0.00000000000E+00 0. -1.
         -1    1    6    6    0  503 -0.27633685804E+03 -0.17147303712E+02  0.14914224850E+02  0.27726976618E+03  0.00000000000E+00 0.  1.
<mgrwt>
<rscale>  0 0.40033938E+04</rscale>
<asrwt>0</asrwt>
<pdfrwt beam="1">  1        2 0.74043373E+00 0.40033938E+04</pdfrwt>
<pdfrwt beam="2">  1       -2 0.12808071E+00 0.40033938E+04</pdfrwt>
<totfact> 0.20269709E-02</totfact>
</mgrwt>
</event>
<event>
12    3  0.4634846E-008  0.3230501E+04  0.7818608E-02  0.8180808E-01
          2   -1    0    0  501    0  0.00000000000E+00  0.00000000000E+00  0.26643368430E+04  0.26643368430E+04  0.00000000000E+00 0. -1.
         -2   -1    0    0    0  501 -0.00000000000E+00 -0.00000000000E+00 -0.97924360078E+03  0.97924360078E+03  0.00000000000E+00 0.  1.
         23    2    1    2    0    0  0.10848667407E+04  0.28505009822E+03 -0.32511438025E+03  0.11714439232E+04  0.91608413451E+02 0.  0.
        254    2    1    2    0    0 -0.10848667407E+04 -0.28505009822E+03  0.20102076225E+04  0.24721365206E+04  0.90129622615E+03 0.  0.
         23    2    4    4    0    0 -0.10069430217E+04 -0.28185101743E+02  0.19266044551E+04  0.21761777090E+04  0.96000240294E+02 0.  0.
         23    2    4    4    0    0 -0.77923719015E+02 -0.25686499647E+03  0.83603167392E+02  0.29595881152E+03  0.92468351971E+02 0.  0.
          1    1    3    3  502    0  0.23675207958E+03  0.27683091540E+02 -0.51490176265E+02  0.24386295125E+03  0.00000000000E+00 0. -1.
         -1    1    3    3    0  502  0.84811466113E+03  0.25736700668E+03 -0.27362420398E+03  0.92758097197E+03  0.00000000000E+00 0.  1.
         13    1    5    5    0    0 -0.11406952184E+03 -0.29895891043E+02  0.19369461247E+03  0.22676689135E+03  0.00000000000E+00 0. -1.
        -13    1    5    5    0    0 -0.89287349986E+03  0.17107892998E+01  0.17329098426E+04  0.19494108177E+04  0.00000000000E+00 0.  1.
          3    1    6    6  503    0 -0.24081036871E+02 -0.11342091400E+02 -0.89807585379E+01  0.28092586176E+02  0.00000000000E+00 0. -1.
         -3    1    6    6    0  503 -0.53842682144E+02 -0.24552290508E+03  0.92583925930E+02  0.26786622534E+03  0.00000000000E+00 0.  1.
<mgrwt>
<rscale>  0 0.32305014E+04</rscale>
<asrwt>0</asrwt>
<pdfrwt beam="1">  1        2 0.40989797E+00 0.32305014E+04</pdfrwt>
<pdfrwt beam="2">  1       -2 0.15065286E+00 0.32305014E+04</pdfrwt>
<totfact> 0.69345350E-01</totfact>
</mgrwt>
</event>
<event>
12    3  0.4634846E-008  0.1863996E+04  0.7818608E-02  0.8672988E-01
          1   -1    0    0  501    0  0.00000000000E+00  0.00000000000E+00  0.18465458226E+04  0.18465458226E+04  0.00000000000E+00 0. -1.
         -1   -1    0    0    0  501 -0.00000000000E+00 -0.00000000000E+00 -0.47040282419E+03  0.47040282419E+03  0.00000000000E+00 0.  1.
         23    2    1    2    0    0  0.48210639197E+03  0.17498245106E+03  0.11098285045E+04  0.12259168979E+04  0.90041656296E+02 0.  0.
        254    2    1    2    0    0 -0.48210639197E+03 -0.17498245106E+03  0.26631449390E+03  0.10910317488E+04  0.92540879397E+03 0.  0.
         23    2    4    4    0    0 -0.64291550404E+03 -0.38656297652E+03  0.28905943197E+03  0.80918002431E+03  0.91900361163E+02 0.  0.
         23    2    4    4    0    0  0.16080911207E+03  0.21158052546E+03 -0.22744938078E+02  0.28185172453E+03  0.91088820006E+02 0.  0.
          3    1    3    3  502    0  0.84611737354E+02  0.37536146238E+01  0.23687533274E+03  0.25156144176E+03  0.00000000000E+00 0. -1.
         -3    1    3    3    0  502  0.39749465462E+03  0.17122883643E+03  0.87295317178E+03  0.97435545618E+03  0.00000000000E+00 0.  1.
         13    1    5    5    0    0 -0.31207106113E+03 -0.13596803198E+03  0.14245680940E+03  0.36901164678E+03  0.00000000000E+00 0. -1.
        -13    1    5    5    0    0 -0.33084444291E+03 -0.25059494454E+03  0.14660262257E+03  0.44016837753E+03  0.00000000000E+00 0.  1.
          1    1    6    6  503    0  0.43759699764E+02  0.10327627026E+03  0.25923624610E+02  0.11512138652E+03  0.00000000000E+00 0. -1.
         -1    1    6    6    0  503  0.11704941230E+03  0.10830425520E+03 -0.48668562688E+02  0.16673033800E+03  0.00000000000E+00 0.  1.
<mgrwt>
<rscale>  0 0.18639961E+04</rscale>
<asrwt>0</asrwt>
<pdfrwt beam="1">  1        1 0.28408397E+00 0.18639961E+04</pdfrwt>
<pdfrwt beam="2">  1       -1 0.72369666E-01 0.18639961E+04</pdfrwt>
<totfact> 0.68463773E+00</totfact>
</mgrwt>
</event>
<event>
12    3  0.4634846E-008  0.2419344E+04  0.7818608E-02  0.8432297E-01
          2   -1    0    0  501    0  0.00000000000E+00  0.00000000000E+00  0.17358317291E+04  0.17358317291E+04  0.00000000000E+00 0. -1.
         -2   -1    0    0    0  501 -0.00000000000E+00 -0.00000000000E+00 -0.84300043641E+03  0.84300043641E+03  0.00000000000E+00 0.  1.
         23    2    1    2    0    0 -0.27044354771E+03  0.31167328588E+03 -0.63405747125E+03  0.76236406757E+03  0.94287565656E+02 0.  0.
        254    2    1    2    0    0  0.27044354771E+03 -0.31167328588E+03  0.15268887639E+04  0.18164680979E+04  0.89324526518E+03 0.  0.
         23    2    4    4    0    0  0.50411396377E+02 -0.31481657864E+03  0.15418689084E+04  0.15771483733E+04  0.91577692398E+02 0.  0.
         23    2    4    4    0    0  0.22003215133E+03  0.31432927603E+01 -0.14980144463E+02  0.23931972461E+03  0.92873558927E+02 0.  0.
          2    1    3    3  502    0 -0.65349616111E+01  0.79759338765E+00  0.19383067132E+01  0.68628646632E+01  0.00000000000E+00 0. -1.
         -2    1    3    3    0  502 -0.26390858610E+03  0.31087569249E+03 -0.63599577796E+03  0.75550120290E+03  0.00000000000E+00 0.  1.
         13    1    5    5    0    0  0.21309123345E+02 -0.29554244794E+03  0.13508089131E+04  0.13829259333E+04  0.00000000000E+00 0. -1.
        -13    1    5    5    0    0  0.29102273033E+02 -0.19274130702E+02  0.19105999532E+03  0.19422244005E+03  0.00000000000E+00 0.  1.
          3    1    6    6  503    0  0.42672723043E+02  0.18597041662E+02  0.30398899947E+02  0.55595902443E+02  0.00000000000E+00 0. -1.
         -3    1    6    6    0  503  0.17735942829E+03 -0.15453748901E+02 -0.45379044410E+02  0.18372382216E+03  0.00000000000E+00 0.  1.
<mgrwt>
<rscale>  0 0.24193445E+04</rscale>
<asrwt>0</asrwt>
<pdfrwt beam="1">  1        2 0.26705104E+00 0.24193445E+04</pdfrwt>
<pdfrwt beam="2">  1       -2 0.12969237E+00 0.24193445E+04</pdfrwt>
<totfact> 0.36747955E+00</totfact>
</mgrwt>
</event>
<event>
12    3  0.4634846E-008  0.1834160E+04  0.7818608E-02  0.8688341E-01
          2   -1    0    0  501    0  0.00000000000E+00  0.00000000000E+00  0.10540363697E+04  0.10540363697E+04  0.00000000000E+00 0. -1.
         -2   -1    0    0    0  501 -0.00000000000E+00 -0.00000000000E+00 -0.79791948566E+03  0.79791948566E+03  0.00000000000E+00 0.  1.
         23    2    1    2    0    0 -0.11475103053E+03 -0.68021827822E+03  0.13181299654E+03  0.70828991372E+03  0.91843512465E+02 0.  0.
        254    2    1    2    0    0  0.11475103053E+03  0.68021827822E+03  0.12430388748E+03  0.11436659416E+04  0.90369000468E+03 0.  0.
         23    2    4    4    0    0 -0.22957406604E+03  0.63968229476E+03  0.29435283941E+03  0.74634969375E+03  0.92176901991E+02 0.  0.
         23    2    4    4    0    0  0.34432509657E+03  0.40535983457E+02 -0.17004895193E+03  0.39731624787E+03  0.93491265297E+02 0.  0.
          3    1    3    3  502    0 -0.12872196108E+03 -0.64922200323E+03  0.12732368737E+03  0.67399545555E+03  0.00000000000E+00 0. -1.
         -3    1    3    3    0  502  0.13970930552E+02 -0.30996274990E+02  0.44893091712E+01  0.34294458162E+02  0.00000000000E+00 0.  1.
         13    1    5    5    0    0 -0.72187849062E+02  0.16257304985E+03  0.36269536099E+02  0.18153942089E+03  0.00000000000E+00 0.  1.
        -13    1    5    5    0    0 -0.15738621698E+03  0.47710924492E+03  0.25808330331E+03  0.56481027286E+03  0.00000000000E+00 0. -1.
          4    1    6    6  503    0  0.96141200599E+02  0.51207314345E+02 -0.70187137408E+02  0.12958222777E+03  0.00000000000E+00 0. -1.
         -4    1    6    6    0  503  0.24818389597E+03 -0.10671330888E+02 -0.99861814522E+02  0.26773402011E+03  0.00000000000E+00 0.  1.
<mgrwt>
<rscale>  0 0.18341605E+04</rscale>
<asrwt>0</asrwt>
<pdfrwt beam="1">  1        2 0.16215944E+00 0.18341605E+04</pdfrwt>
<pdfrwt beam="2">  1       -2 0.12275684E+00 0.18341605E+04</pdfrwt>
<totfact> 0.10994436E+01</totfact>
</mgrwt>
</event>
<event>
12    3  0.4634846E-008  0.1603521E+04  0.7818608E-02  0.8818388E-01
          2   -1    0    0  501    0  0.00000000000E+00  0.00000000000E+00  0.12755712512E+04  0.12755712512E+04  0.00000000000E+00 0. -1.
         -2   -1    0    0    0  501 -0.00000000000E+00 -0.00000000000E+00 -0.50394665043E+03  0.50394665043E+03  0.00000000000E+00 0.  1.
         23    2    1    2    0    0  0.21165564697E+03  0.48763574278E+03  0.20965303966E+03  0.57900215260E+03  0.93286468180E+02 0.  0.
        254    2    1    2    0    0 -0.21165564697E+03 -0.48763574278E+03  0.56197156111E+03  0.12005157490E+04  0.91806279613E+03 0.  0.
         23    2    4    4    0    0 -0.41988332541E+03 -0.41442984590E+03  0.76555679805E+01  0.59703350699E+03  0.91303322039E+02 0.  0.
         23    2    4    4    0    0  0.20822767844E+03 -0.73205896877E+02  0.55431599313E+03  0.60348224204E+03  0.90590986375E+02 0.  0.
          4    1    3    3  502    0  0.59934145185E+02  0.19239524540E+03  0.12243026154E+03  0.23579058750E+03  0.00000000000E+00 0.  1.
         -4    1    3    3    0  502  0.15172150179E+03  0.29524049738E+03  0.87222778121E+02  0.34321156510E+03  0.00000000000E+00 0. -1.
         13    1    5    5    0    0 -0.47410766016E+02 -0.38922827623E+02  0.28669430660E+02  0.67710438625E+02  0.00000000000E+00 0. -1.
        -13    1    5    5    0    0 -0.37247255940E+03 -0.37550701828E+03 -0.21013862680E+02  0.52932306836E+03  0.00000000000E+00 0.  1.
          4    1    6    6  503    0  0.85005627203E+01  0.15430418784E+02  0.69509531636E+02  0.71707268660E+02  0.00000000000E+00 0. -1.
         -4    1    6    6    0  503  0.19972711572E+03 -0.88636315661E+02  0.48480646149E+03  0.53177497338E+03  0.00000000000E+00 0.  1.
<mgrwt>
<rscale>  0 0.16035210E+04</rscale>
<asrwt>0</asrwt>
<pdfrwt beam="1">  1        2 0.19624173E+00 0.16035210E+04</pdfrwt>
<pdfrwt beam="2">  1       -2 0.77530254E-01 0.16035210E+04</pdfrwt>
<totfact> 0.24292507E+01</totfact>
</mgrwt>
</event>
<event>
12    3  0.4634846E-008  0.1287159E+04  0.7818608E-02  0.9039811E-01
         -2   -1    0    0    0  501 -0.00000000000E+00  0.00000000000E+00  0.53502831498E+03  0.53502831498E+03  0.00000000000E+00 0.  1.
          2   -1    0    0  501    0  0.00000000000E+00 -0.00000000000E+00 -0.77415411212E+03  0.77415411212E+03  0.00000000000E+00 0. -1.
         23    2    1    2    0    0  0.19245188931E+03  0.19255081468E+03 -0.24382361952E+03  0.37667757181E+03  0.91227680750E+02 0.  0.
        254    2    1    2    0    0 -0.19245188931E+03 -0.19255081468E+03  0.46978223749E+01  0.93250485529E+03  0.89186865046E+03 0.  0.
         23    2    4    4    0    0  0.27103284946E+03 -0.18302388352E+03  0.22842559334E+03  0.40959852257E+03  0.92930891389E+02 0.  0.
         23    2    4    4    0    0 -0.46348473877E+03 -0.95269311583E+01 -0.22372777096E+03  0.52290633273E+03  0.92022018121E+02 0.  0.
          2    1    3    3  502    0  0.17887608041E+03  0.20254831865E+03 -0.23076810049E+03  0.35535389365E+03  0.00000000000E+00 0. -1.
         -2    1    3    3    0  502  0.13575808897E+02 -0.99975039709E+01 -0.13055519029E+02  0.21323678153E+02  0.00000000000E+00 0.  1.
         13    1    5    5    0    0  0.18000043297E+03 -0.16495451969E+03  0.18902568352E+03  0.30877315049E+03  0.00000000000E+00 0. -1.
        -13    1    5    5    0    0  0.91032416485E+02 -0.18069363833E+02  0.39399909820E+02  0.10082537208E+03  0.00000000000E+00 0.  1.
          4    1    6    6  503    0 -0.86815120928E+02  0.56796169058E+01 -0.51669025771E+01  0.87154002502E+02  0.00000000000E+00 0.  1.
         -4    1    6    6    0  503 -0.37666961784E+03 -0.15206548064E+02 -0.21856086838E+03  0.43575233022E+03  0.00000000000E+00 0. -1.
<mgrwt>
<rscale>  0 0.12871587E+04</rscale>
<asrwt>0</asrwt>
<pdfrwt beam="1">  1        2 0.11910063E+00 0.12871587E+04</pdfrwt>
<pdfrwt beam="2">  1       -2 0.82312048E-01 0.12871587E+04</pdfrwt>
<totfact> 0.45767887E+01</totfact>
</mgrwt>
</event>
<event>
12    3  0.4634846E-008  0.2063410E+04  0.7818608E-02  0.8577535E-01
         -2   -1    0    0    0  501 -0.00000000000E+00  0.00000000000E+00  0.12154102968E+04  0.12154102968E+04  0.00000000000E+00 0.  1.
          2   -1    0    0  501    0  0.00000000000E+00 -0.00000000000E+00 -0.87576601689E+03  0.87576601689E+03  0.00000000000E+00 0. -1.
         23    2    1    2    0    0 -0.15742383582E+03  0.12705722696E+03  0.95672589068E+03  0.98220136900E+03  0.92028780086E+02 0.  0.
        254    2    1    2    0    0  0.15742383582E+03 -0.12705722696E+03 -0.61708161078E+03  0.11089749447E+04  0.89894933704E+03 0.  0.
         23    2    4    4    0    0  0.51148550284E+03 -0.18264776073E+03 -0.40115439782E+03  0.68078876338E+03  0.87010719658E+02 0.  0.
         23    2    4    4    0    0 -0.35406166702E+03  0.55590533771E+02 -0.21592721297E+03  0.42818618131E+03  0.90933344064E+02 0.  0.
          3    1    3    3  502    0 -0.88653606725E+02  0.73788406621E+02  0.33238038484E+03  0.35182511446E+03  0.00000000000E+00 0. -1.
         -3    1    3    3    0  502 -0.68770229100E+02  0.53268820338E+02  0.62434550584E+03  0.63037625454E+03  0.00000000000E+00 0.  1.
         13    1    5    5    0    0  0.29209513910E+03 -0.12489564349E+03 -0.18599064972E+03  0.36811820633E+03  0.00000000000E+00 0.  1.
        -13    1    5    5    0    0  0.21939036375E+03 -0.57752117238E+02 -0.21516374810E+03  0.31267055705E+03  0.00000000000E+00 0. -1.
          2    1    6    6  503    0 -0.31380553000E+03  0.36393796489E+02 -0.15287410680E+03  0.35095428707E+03  0.00000000000E+00 0. -1.
         -2    1    6    6    0  503 -0.40256137017E+02  0.19196737282E+02 -0.63053106165E+02  0.77231894233E+02  0.00000000000E+00 0.  1.
<mgrwt>
<rscale>  0 0.20634098E+04</rscale>
<asrwt>0</asrwt>
<pdfrwt beam="1">  1        2 0.13473323E+00 0.20634098E+04</pdfrwt>
<pdfrwt beam="2">  1       -2 0.18698620E+00 0.20634098E+04</pdfrwt>
<totfact> 0.45711683E+00</totfact>
</mgrwt>
</event>
<event>
12    3  0.4634846E-008  0.1171147E+04  0.7818608E-02  0.9138493E-01
         -2   -1    0    0    0  501 -0.00000000000E+00  0.00000000000E+00  0.28712907492E+03  0.28712907492E+03  0.00000000000E+00 0.  1.
          2   -1    0    0  501    0  0.00000000000E+00 -0.00000000000E+00 -0.11942243912E+04  0.11942243912E+04  0.00000000000E+00 0. -1.
         23    2    1    2    0    0  0.12103573298E+03  0.18443157612E+03 -0.26421408556E+03  0.35566199950E+03  0.89564055024E+02 0.  0.
        254    2    1    2    0    0 -0.12103573298E+03 -0.18443157612E+03 -0.64288123071E+03  0.11256914666E+04  0.89734070802E+03 0.  0.
         23    2    4    4    0    0 -0.42236547302E+03 -0.27118439865E+02 -0.49782763765E+02  0.43590703173E+03  0.91698495992E+02 0.  0.
         23    2    4    4    0    0  0.30132974004E+03 -0.15731313625E+03 -0.59309846695E+03  0.68978443488E+03  0.92139785309E+02 0.  0.
          1    1    3    3  502    0  0.48236318656E+02  0.14038334630E+03 -0.19997907841E+03  0.24904991097E+03  0.00000000000E+00 0. -1.
         -1    1    3    3    0  502  0.72799414321E+02  0.44048229813E+02 -0.64235007159E+02  0.10661208853E+03  0.00000000000E+00 0.  1.
         13    1    5    5    0    0 -0.15901946767E+03  0.32721370009E+02 -0.71941713166E+01  0.16251041583E+03  0.00000000000E+00 0. -1.
        -13    1    5    5    0    0 -0.26334600534E+03 -0.59839809873E+02 -0.42588592449E+02  0.27339661590E+03  0.00000000000E+00 0.  1.
          3    1    6    6  503    0  0.77241508346E+02 -0.75775537144E+02 -0.13206612122E+03  0.17073266534E+03  0.00000000000E+00 0. -1.
         -3    1    6    6    0  503  0.22408823169E+03 -0.81537599107E+02 -0.46103234573E+03  0.51905176954E+03  0.00000000000E+00 0.  1.
<mgrwt>
<rscale>  0 0.11711474E+04</rscale>
<asrwt>0</asrwt>
<pdfrwt beam="1">  1        2 0.18372683E+00 0.11711474E+04</pdfrwt>
<pdfrwt beam="2">  1       -2 0.44173704E-01 0.11711474E+04</pdfrwt>
<totfact> 0.91679408E+01</totfact>
</mgrwt>
</event>
<event>
12    3  0.4634846E-008  0.2067770E+04  0.7818608E-02  0.8575575E-01
          1   -1    0    0  501    0  0.00000000000E+00  0.00000000000E+00  0.12836772675E+04  0.12836772675E+04  0.00000000000E+00 0. -1.
         -1   -1    0    0    0  501 -0.00000000000E+00 -0.00000000000E+00 -0.83270035646E+03  0.83270035646E+03  0.00000000000E+00 0.  1.
         23    2    1    2    0    0  0.44241892500E+03 -0.38888908450E+03 -0.42101442199E+03  0.72957266052E+03  0.89743513512E+02 0.  0.
        254    2    1    2    0    0 -0.44241892500E+03  0.38888908450E+03  0.87199133306E+03  0.13868049635E+04  0.90326623789E+03 0.  0.
         23    2    4    4    0    0 -0.18036798174E+03  0.31475644301E+03  0.10032296987E+04  0.10706077359E+04  0.90149146934E+02 0.  0.
         23    2    4    4    0    0 -0.26205094325E+03  0.74132641490E+02 -0.13123836560E+03  0.31619722754E+03  0.92686745022E+02 0.  0.
          3    1    3    3  502    0  0.18929758900E+01  0.46118975149E+01 -0.52430335513E+01  0.72348018099E+01  0.00000000000E+00 0. -1.
         -3    1    3    3    0  502  0.44052594911E+03 -0.39350098201E+03 -0.41577138844E+03  0.72233785871E+03  0.00000000000E+00 0.  1.
         13    1    5    5    0    0 -0.18012830859E+03  0.26338876156E+03  0.80779001735E+03  0.86853011428E+03  0.00000000000E+00 0.  1.
        -13    1    5    5    0    0 -0.23967315077E+00  0.51367681444E+02  0.19543968130E+03  0.20207762164E+03  0.00000000000E+00 0. -1.
          3    1    6    6  503    0 -0.97918215991E+02  0.36261808842E+02 -0.29434958247E+01  0.10445841264E+03  0.00000000000E+00 0. -1.
         -3    1    6    6    0  503 -0.16413272726E+03  0.37870832648E+02 -0.12829486978E+03  0.21173881490E+03  0.00000000000E+00 0.  1.
<mgrwt>
<rscale>  0 0.20677703E+04</rscale>
<asrwt>0</asrwt>
<pdfrwt beam="1">  1        1 0.19748881E+00 0.20677703E+04</pdfrwt>
<pdfrwt beam="2">  1       -1 0.12810775E+00 0.20677703E+04</pdfrwt>
<totfact> 0.45103822E+00</totfact>
</mgrwt>
</event>
<event>
12    3  0.4634846E-008  0.1378198E+04  0.7818608E-02  0.8969753E-01
          2   -1    0    0  501    0  0.00000000000E+00  0.00000000000E+00  0.84924659695E+03  0.84924659695E+03  0.00000000000E+00 0. -1.
         -2   -1    0    0    0  501 -0.00000000000E+00 -0.00000000000E+00 -0.55915176972E+03  0.55915176972E+03  0.00000000000E+00 0.  1.
         23    2    1    2    0    0 -0.27906700646E+03  0.10205063455E+03 -0.17138926006E+03  0.35269079036E+03  0.81998713606E+02 0.  0.
        254    2    1    2    0    0  0.27906700646E+03 -0.10205063455E+03  0.46148408728E+03  0.10557075763E+04  0.90180829324E+03 0.  0.
         23    2    4    4    0    0 -0.14850553135E+03  0.13289707008E+02  0.56540751534E+03  0.59174188319E+03  0.90787051716E+02 0.  0.
         23    2    4    4    0    0  0.42757253781E+03 -0.11534034155E+03 -0.10392342805E+03  0.46396569313E+03  0.91336827298E+02 0.  0.
          2    1    3    3  502    0 -0.74382821025E+01 -0.95577876460E+01  0.10243471870E+01  0.12154366807E+02  0.00000000000E+00 0. -1.
         -2    1    3    3    0  502 -0.27162872436E+03  0.11160842219E+03 -0.17241360724E+03  0.34053642355E+03  0.00000000000E+00 0.  1.
         13    1    5    5    0    0 -0.10633115066E+03  0.46909172551E+02  0.44276593949E+03  0.45776463521E+03  0.00000000000E+00 0.  1.
        -13    1    5    5    0    0 -0.42174380689E+02 -0.33619465543E+02  0.12264157584E+03  0.13397724798E+03  0.00000000000E+00 0. -1.
          3    1    6    6  503    0  0.19541738564E+03 -0.11612252774E+02 -0.67625203202E+02  0.20711341611E+03  0.00000000000E+00 0. -1.
         -3    1    6    6    0  503  0.23215515217E+03 -0.10372808878E+03 -0.36298224853E+02  0.25685227702E+03  0.00000000000E+00 0.  1.
<mgrwt>
<rscale>  0 0.13781984E+04</rscale>
<asrwt>0</asrwt>
<pdfrwt beam="1">  1        2 0.13065332E+00 0.13781984E+04</pdfrwt>
<pdfrwt beam="2">  1       -2 0.86023349E-01 0.13781984E+04</pdfrwt>
<totfact> 0.36331457E+01</totfact>
</mgrwt>
</event>
<event>
12    3  0.4634846E-008  0.1933900E+04  0.7818608E-02  0.8638164E-01
         -2   -1    0    0    0  501 -0.00000000000E+00  0.00000000000E+00  0.30566347048E+03  0.30566347048E+03  0.00000000000E+00 0.  1.
          2   -1    0    0  501    0  0.00000000000E+00 -0.00000000000E+00 -0.30588946482E+04  0.30588946482E+04  0.00000000000E+00 0. -1.
         23    2    1    2    0    0 -0.38989188984E+03  0.62207768270E+02  0.37118498901E+02  0.40680991370E+03  0.90725028136E+02 0.  0.
        254    2    1    2    0    0  0.38989188984E+03 -0.62207768270E+02 -0.27903496766E+04  0.29577482050E+04  0.89796304712E+03 0.  0.
         23    2    4    4    0    0  0.38579960836E+03 -0.38012635518E+03 -0.23112659645E+04  0.23756011137E+04  0.90514687291E+02 0.  0.
         23    2    4    4    0    0  0.40922814840E+01  0.31791858691E+03 -0.47908371206E+03  0.58214709130E+03  0.91022294428E+02 0.  0.
          4    1    3    3  502    0 -0.15324673133E+03  0.25505216889E+02  0.59350712934E+02  0.16630569406E+03  0.00000000000E+00 0. -1.
         -4    1    3    3    0  502 -0.23664515851E+03  0.36702551381E+02 -0.22232214033E+02  0.24050421964E+03  0.00000000000E+00 0.  1.
         13    1    5    5    0    0  0.10008063977E+03 -0.82005724789E+02 -0.72588950803E+03  0.73733076107E+03  0.00000000000E+00 0. -1.
        -13    1    5    5    0    0  0.28571896858E+03 -0.29812063039E+03 -0.15853764565E+04  0.16382703526E+04  0.00000000000E+00 0.  1.
          3    1    6    6  503    0  0.31019927021E+02  0.12372062166E+03 -0.13225456914E+03  0.18373975932E+03  0.00000000000E+00 0. -1.
         -3    1    6    6    0  503 -0.26927645537E+02  0.19419796525E+03 -0.34682914292E+03  0.39840733199E+03  0.00000000000E+00 0.  1.
<mgrwt>
<rscale>  0 0.19339001E+04</rscale>
<asrwt>0</asrwt>
<pdfrwt beam="1">  1        2 0.47059916E+00 0.19339001E+04</pdfrwt>
<pdfrwt beam="2">  1       -2 0.47025151E-01 0.19339001E+04</pdfrwt>
<totfact> 0.64196044E+00</totfact>
</mgrwt>
</event>
<event>
12    3  0.4634846E-008  0.1284174E+04  0.7818608E-02  0.9042211E-01
          2   -1    0    0  501    0  0.00000000000E+00  0.00000000000E+00  0.87924717239E+03  0.87924717239E+03  0.00000000000E+00 0. -1.
         -2   -1    0    0    0  501 -0.00000000000E+00 -0.00000000000E+00 -0.46889590780E+03  0.46889590780E+03  0.00000000000E+00 0.  1.
         23    2    1    2    0    0  0.30136310765E+03  0.13094166859E+02 -0.16344631422E+02  0.31541313744E+03  0.90703475305E+02 0.  0.
        254    2    1    2    0    0 -0.30136310765E+03 -0.13094166859E+02  0.42669589601E+03  0.10327299428E+04  0.89076964875E+03 0.  0.
         23    2    4    4    0    0 -0.48308977884E+03 -0.65797108206E+02 -0.62241621704E+02  0.50002630568E+03  0.91909156415E+02 0.  0.
         23    2    4    4    0    0  0.18172667119E+03  0.52702941347E+02  0.48893751771E+03  0.53270363708E+03  0.94398547038E+02 0.  0.
          3    1    3    3  502    0  0.27890312388E+03 -0.67467008110E+01  0.43071962257E+01  0.27901796075E+03  0.00000000000E+00 0. -1.
         -3    1    3    3    0  502  0.22459983774E+02  0.19840867670E+02 -0.20651827648E+02  0.36395176689E+02  0.00000000000E+00 0.  1.
         13    1    5    5    0    0 -0.31670586580E+03  0.46259022651E+00 -0.30867067296E+02  0.31820684352E+03  0.00000000000E+00 0. -1.
        -13    1    5    5    0    0 -0.16638391303E+03 -0.66259698433E+02 -0.31374554407E+02  0.18181946215E+03  0.00000000000E+00 0.  1.
          4    1    6    6  503    0 -0.49366460217E+01  0.15582466564E+02  0.15846257761E+02  0.22765931195E+02  0.00000000000E+00 0. -1.
         -4    1    6    6    0  503  0.18666331721E+03  0.37120474783E+02  0.47309125995E+03  0.50993770588E+03  0.00000000000E+00 0.  1.
<mgrwt>
<rscale>  0 0.12841735E+04</rscale>
<asrwt>0</asrwt>
<pdfrwt beam="1">  1        2 0.13526880E+00 0.12841735E+04</pdfrwt>
<pdfrwt beam="2">  1       -2 0.72137832E-01 0.12841735E+04</pdfrwt>
<totfact> 0.51745012E+01</totfact>
</mgrwt>
</event>
<event>
12    3  0.4634846E-008  0.2517565E+04  0.7818608E-02  0.8396755E-01
          1   -1    0    0  501    0  0.00000000000E+00  0.00000000000E+00  0.17529079847E+04  0.17529079847E+04  0.00000000000E+00 0. -1.
         -1   -1    0    0    0  501 -0.00000000000E+00 -0.00000000000E+00 -0.90394524774E+03  0.90394524774E+03  0.00000000000E+00 0.  1.
         23    2    1    2    0    0  0.87199019997E+03  0.52029625368E+03  0.78734744879E+03  0.12882322152E+04  0.92472346209E+02 0.  0.
        254    2    1    2    0    0 -0.87199019997E+03 -0.52029625368E+03  0.61615288170E+02  0.13686210172E+04  0.91556099990E+03 0.  0.
         23    2    4    4    0    0 -0.39306215559E+03 -0.65252802718E+03 -0.20879952185E+03  0.79451080374E+03  0.85787484729E+02 0.  0.
         23    2    4    4    0    0 -0.47892804438E+03  0.13223177349E+03  0.27041481002E+03  0.57411021345E+03  0.98086972071E+02 0.  0.
          1    1    3    3  502    0  0.55282254465E+03  0.28037493695E+03  0.49801598098E+03  0.79513696207E+03  0.00000000000E+00 0. -1.
         -1    1    3    3    0  502  0.31916765532E+03  0.23992131674E+03  0.28933146781E+03  0.49309525316E+03  0.00000000000E+00 0.  1.
         13    1    5    5    0    0 -0.24180333179E+03 -0.36543912326E+03 -0.80276656872E+02  0.44548731263E+03  0.00000000000E+00 0. -1.
        -13    1    5    5    0    0 -0.15125882379E+03 -0.28708890391E+03 -0.12852286498E+03  0.34902349111E+03  0.00000000000E+00 0.  1.
          2    1    6    6  503    0 -0.12654007065E+03  0.45408417849E+01  0.10469599907E+03  0.16429930293E+03  0.00000000000E+00 0.  1.
         -2    1    6    6    0  503 -0.35238797374E+03  0.12769093171E+03  0.16571881096E+03  0.40981091052E+03  0.00000000000E+00 0. -1.
<mgrwt>
<rscale>  0 0.25175646E+04</rscale>
<asrwt>0</asrwt>
<pdfrwt beam="1">  1        1 0.26967815E+00 0.25175646E+04</pdfrwt>
<pdfrwt beam="2">  1       -1 0.13906850E+00 0.25175646E+04</pdfrwt>
<totfact> 0.16594645E+00</totfact>
</mgrwt>
</event>
<event>
12    3  0.4634846E-008  0.2570125E+04  0.7818608E-02  0.8378421E-01
         -2   -1    0    0    0  501 -0.00000000000E+00  0.00000000000E+00  0.57338964962E+03  0.57338964962E+03  0.00000000000E+00 0.  1.
          2   -1    0    0  501    0  0.00000000000E+00 -0.00000000000E+00 -0.28800400748E+04  0.28800400748E+04  0.00000000000E+00 0. -1.
         23    2    1    2    0    0  0.25149171007E+03  0.38530248935E+03  0.36948465404E+03  0.59691297001E+03  0.89889352311E+02 0.  0.
        254    2    1    2    0    0 -0.25149171007E+03 -0.38530248935E+03 -0.26761350792E+04  0.28565167544E+04  0.88672595402E+03 0.  0.
         23    2    4    4    0    0  0.15897871416E+03 -0.46406293887E+03 -0.89320832765E+03  0.10229733862E+04  0.89581189255E+02 0.  0.
         23    2    4    4    0    0 -0.41047042423E+03  0.78760449520E+02 -0.17829267515E+04  0.18335433682E+04  0.91456569876E+02 0.  0.
          2    1    3    3  502    0  0.10897478634E+03  0.17608495136E+03  0.11032826819E+03  0.23463533603E+03  0.00000000000E+00 0. -1.
         -2    1    3    3    0  502  0.14251692373E+03  0.20921753800E+03  0.25915638585E+03  0.36227763398E+03  0.00000000000E+00 0.  1.
         13    1    5    5    0    0  0.21134872494E+02 -0.16233765762E+03 -0.24243792587E+03  0.29253434980E+03  0.00000000000E+00 0. -1.
        -13    1    5    5    0    0  0.13784384166E+03 -0.30172528126E+03 -0.65077040179E+03  0.73043903638E+03  0.00000000000E+00 0.  1.
          4    1    6    6  503    0 -0.18311918471E+03 -0.28690242971E+01 -0.66073110099E+03  0.68564309588E+03  0.00000000000E+00 0. -1.
         -4    1    6    6    0  503 -0.22735123952E+03  0.81629473817E+02 -0.11221956506E+04  0.11479002723E+04  0.00000000000E+00 0.  1.
<mgrwt>
<rscale>  0 0.25701246E+04</rscale>
<asrwt>0</asrwt>
<pdfrwt beam="1">  1        2 0.44308308E+00 0.25701246E+04</pdfrwt>
<pdfrwt beam="2">  1       -2 0.88213793E-01 0.25701246E+04</pdfrwt>
<totfact> 0.20280302E+00</totfact>
</mgrwt>
</event>
<event>
12    3  0.4634846E-008  0.3260734E+04  0.7818608E-02  0.8172959E-01
         -1   -1    0    0    0  501 -0.00000000000E+00  0.00000000000E+00  0.10050316744E+04  0.10050316744E+04  0.00000000000E+00 0.  1.
          1   -1    0    0  501    0  0.00000000000E+00 -0.00000000000E+00 -0.26447896481E+04  0.26447896481E+04  0.00000000000E+00 0. -1.
         23    2    1    2    0    0  0.23347593391E+03 -0.16862631232E+03 -0.24146883241E+04  0.24338541596E+04  0.99902565051E+02 0.  0.
        254    2    1    2    0    0 -0.23347593391E+03  0.16862631232E+03  0.77493035046E+03  0.12159671629E+04  0.89169122922E+03 0.  0.
         23    2    4    4    0    0 -0.98883724806E+01  0.48390699143E+03  0.61532627786E+03  0.78814590933E+03  0.91015327811E+02 0.  0.
         23    2    4    4    0    0 -0.22358756143E+03 -0.31528067911E+03  0.15960407260E+03  0.42782125357E+03  0.90356299010E+02 0.  0.
          1    1    3    3  502    0  0.17073157275E+03 -0.16945565628E+03 -0.20071606376E+04  0.20215237606E+04  0.00000000000E+00 0. -1.
         -1    1    3    3    0  502  0.62744361167E+02  0.82934395733E+00 -0.40752768650E+03  0.41233039899E+03  0.00000000000E+00 0.  1.
         13    1    5    5    0    0 -0.11978877031E+02  0.38173812209E+03  0.53900284641E+03  0.66059939130E+03  0.00000000000E+00 0. -1.
        -13    1    5    5    0    0  0.20905045499E+01  0.10216886934E+03  0.76323431455E+02  0.12754651803E+03  0.00000000000E+00 0.  1.
          2    1    6    6  503    0 -0.87964430364E+02 -0.20162256608E+03  0.89793400079E+02  0.23759683259E+03  0.00000000000E+00 0.  1.
         -2    1    6    6    0  503 -0.13562313107E+03 -0.11365811303E+03  0.69810672518E+02  0.19022442098E+03  0.00000000000E+00 0. -1.
<mgrwt>
<rscale>  0 0.32607345E+04</rscale>
<asrwt>0</asrwt>
<pdfrwt beam="1">  1        1 0.40689070E+00 0.32607345E+04</pdfrwt>
<pdfrwt beam="2">  1       -1 0.15462026E+00 0.32607345E+04</pdfrwt>
<totfact> 0.28690242E-01</totfact>
</mgrwt>
</event>
<event>
12    3  0.4634846E-008  0.1554193E+04  0.7818608E-02  0.8849194E-01
          1   -1    0    0  501    0  0.00000000000E+00  0.00000000000E+00  0.18314415309E+04  0.18314415309E+04  0.00000000000E+00 0. -1.
         -1   -1    0    0    0  501 -0.00000000000E+00 -0.00000000000E+00 -0.32972887861E+03  0.32972887861E+03  0.00000000000E+00 0.  1.
         23    2    1    2    0    0 -0.47868100093E+03 -0.46577083249E+02  0.73995856534E+03  0.88719990657E+03  0.90994892547E+02 0.  0.
        254    2    1    2    0    0  0.47868100093E+03  0.46577083249E+02  0.76175408699E+03  0.12739705030E+04  0.90079222249E+03 0.  0.
         23    2    4    4    0    0  0.52567715937E+02 -0.39286753585E+02  0.81883346902E+03  0.82584658567E+03  0.85014818220E+02 0.  0.
         23    2    4    4    0    0  0.42611328499E+03  0.85863836834E+02 -0.57079382028E+02  0.44812391731E+03  0.92800103936E+02 0.  0.
          3    1    3    3  502    0 -0.19511291062E+03 -0.33939133946E+02  0.38269616699E+03  0.43090285325E+03  0.00000000000E+00 0. -1.
         -3    1    3    3    0  502 -0.28356809031E+03 -0.12637949303E+02  0.35726239834E+03  0.45629705333E+03  0.00000000000E+00 0.  1.
         13    1    5    5    0    0  0.63996967878E+02  0.17350087946E+01  0.44144214488E+03  0.44606029798E+03  0.00000000000E+00 0. -1.
        -13    1    5    5    0    0 -0.11429251941E+02 -0.41021762380E+02  0.37739132414E+03  0.37978628770E+03  0.00000000000E+00 0.  1.
          1    1    6    6  503    0  0.13306261594E+03  0.83971920446E+01 -0.57016651652E+02  0.14500714176E+03  0.00000000000E+00 0. -1.
         -1    1    6    6    0  503  0.29305066905E+03  0.77466644790E+02 -0.62730375568E-01  0.30311677555E+03  0.00000000000E+00 0.  1.
<mgrwt>
<rscale>  0 0.15541932E+04</rscale>
<asrwt>0</asrwt>
<pdfrwt beam="1">  1        1 0.28176023E+00 0.15541932E+04</pdfrwt>
<pdfrwt beam="2">  1       -1 0.50727521E-01 0.15541932E+04</pdfrwt>
<totfact> 0.14588092E+01</totfact>
</mgrwt>
</event>
<event>
12    3  0.4634846E-008  0.1510662E+04  0.7818608E-02  0.8877394E-01
         -2   -1    0    0    0  501 -0.00000000000E+00  0.00000000000E+00  0.12267764469E+04  0.12267764469E+04  0.00000000000E+00 0. -1.
          2   -1    0    0  501    0  0.00000000000E+00 -0.00000000000E+00 -0.46506023290E+03  0.46506023290E+03  0.00000000000E+00 0.  1.
         23    2    1    2    0    0  0.42776267132E+03 -0.17820258064E+03  0.28785899965E+03  0.55312095740E+03  0.91339625097E+02 0.  0.
        254    2    1    2    0    0 -0.42776267132E+03  0.17820258064E+03  0.47385721430E+03  0.11387157224E+04  0.92595668044E+03 0.  0.
         23    2    4    4    0    0  0.21703659758E+03  0.28966184785E+03  0.20836259471E+03  0.42706804554E+03  0.89237177535E+02 0.  0.
         23    2    4    4    0    0 -0.64479926891E+03 -0.11145926721E+03  0.26549461959E+03  0.71164767682E+03  0.88123535193E+02 0.  0.
          2    1    3    3  502    0  0.20576140716E+03 -0.82716672739E+02  0.84642060599E+02  0.23736908612E+03  0.00000000000E+00 0. -1.
         -2    1    3    3    0  502  0.22200126417E+03 -0.95485907900E+02  0.20321693905E+03  0.31575187128E+03  0.00000000000E+00 0.  1.
         13    1    5    5    0    0  0.11083017716E+01  0.50534949634E+02  0.25832454406E+02  0.56765527990E+02  0.00000000000E+00 0. -1.
        -13    1    5    5    0    0  0.21592829581E+03  0.23912689821E+03  0.18253014030E+03  0.37030251755E+03  0.00000000000E+00 0.  1.
          2    1    6    6  503    0 -0.97415303339E+02 -0.10027163061E+02  0.79328200443E+01  0.98250775863E+02  0.00000000000E+00 0.  1.
         -2    1    6    6    0  503 -0.54738396557E+03 -0.10143210415E+03  0.25756179955E+03  0.61339690095E+03  0.00000000000E+00 0. -1.
<mgrwt>
<rscale>  0 0.15106620E+04</rscale>
<asrwt>0</asrwt>
<pdfrwt beam="1">  1        2 0.71547729E-01 0.15106620E+04</pdfrwt>
<pdfrwt beam="2">  1       -2 0.18873484E+00 0.15106620E+04</pdfrwt>
<totfact> 0.10208253E+01</totfact>
</mgrwt>
</event>
<event>
12    3  0.4634846E-008  0.1269476E+04  0.7818608E-02  0.9054127E-01
         -2   -1    0    0    0  501 -0.00000000000E+00  0.00000000000E+00  0.50640784020E+03  0.50640784020E+03  0.00000000000E+00 0. -1.
          2   -1    0    0  501    0  0.00000000000E+00 -0.00000000000E+00 -0.79558872063E+03  0.79558872063E+03  0.00000000000E+00 0.  1.
         23    2    1    2    0    0  0.55036819086E+02  0.26626425291E+03 -0.19508944858E+03  0.34593890293E+03  0.87681969545E+02 0.  0.
        254    2    1    2    0    0 -0.55036819086E+02 -0.26626425291E+03 -0.94091431851E+02  0.95605765790E+03  0.91173863790E+03 0.  0.
         23    2    4    4    0    0 -0.17299307495E+02  0.17938182446E+03 -0.37113988217E+03  0.42243014838E+03  0.90693512132E+02 0.  0.
         23    2    4    4    0    0 -0.37737511591E+02 -0.44564607737E+03  0.27704845031E+03  0.53362750952E+03  0.89319253454E+02 0.  0.
          3    1    3    3  502    0  0.62815816688E+02  0.20919724866E+03 -0.18746629422E+03  0.28784184397E+03  0.00000000000E+00 0. -1.
         -3    1    3    3    0  502 -0.77789976024E+01  0.57067004249E+02 -0.76231543631E+01  0.58097058962E+02  0.00000000000E+00 0.  1.
         13    1    5    5    0    0 -0.54286152145E+02  0.10931431751E+03 -0.23888954111E+03  0.26826259370E+03  0.00000000000E+00 0. -1.
        -13    1    5    5    0    0  0.36986844650E+02  0.70067506951E+02 -0.13225034105E+03  0.15416755468E+03  0.00000000000E+00 0.  1.
          2    1    6    6  503    0 -0.23539178803E+02 -0.22672714295E+02  0.23812751567E+02  0.40437507953E+02  0.00000000000E+00 0. -1.
         -2    1    6    6    0  503 -0.14198332787E+02 -0.42297336307E+03  0.25323569875E+03  0.49319000156E+03  0.00000000000E+00 0.  1.
<mgrwt>
<rscale>  0 0.12694761E+04</rscale>
<asrwt>0</asrwt>
<pdfrwt beam="1">  1        2 0.12239826E+00 0.12694761E+04</pdfrwt>
<pdfrwt beam="2">  1       -2 0.77908898E-01 0.12694761E+04</pdfrwt>
<totfact> 0.50021322E+01</totfact>
</mgrwt>
</event>
<event>
12    3  0.4634846E-008  0.1617744E+04  0.7818608E-02  0.8809721E-01
         -1   -1    0    0    0  501 -0.00000000000E+00  0.00000000000E+00  0.56396406817E+03  0.56396406817E+03  0.00000000000E+00 0.  1.
          1   -1    0    0  501    0  0.00000000000E+00 -0.00000000000E+00 -0.11601343817E+04  0.11601343817E+04  0.00000000000E+00 0. -1.
         23    2    1    2    0    0  0.43120293503E+03  0.20731165210E+03 -0.50737629443E+03  0.70331892577E+03  0.91174091226E+02 0.  0.
        254    2    1    2    0    0 -0.43120293503E+03 -0.20731165210E+03 -0.88794019099E+02  0.10207795241E+04  0.89732511762E+03 0.  0.
         23    2    4    4    0    0 -0.98928156259E+02 -0.27610966710E+03  0.34602343160E+03  0.46183875588E+03  0.86830253090E+02 0.  0.
         23    2    4    4    0    0 -0.33227477878E+03  0.68798014992E+02 -0.43481745070E+03  0.55894076822E+03  0.90602822660E+02 0.  0.
          2    1    3    3  502    0 -0.37324342565E+01 -0.21567155693E+01 -0.44005268462E+01  0.61601237041E+01  0.00000000000E+00 0. -1.
         -2    1    3    3    0  502  0.43493536929E+03  0.20946836767E+03 -0.50297576759E+03  0.69715880207E+03  0.00000000000E+00 0.  1.
         13    1    5    5    0    0 -0.10843325547E+03 -0.25058857469E+03  0.33568514658E+03  0.43270881929E+03  0.00000000000E+00 0. -1.
        -13    1    5    5    0    0  0.95050992112E+01 -0.25521092405E+02  0.10338285021E+02  0.29129936590E+02  0.00000000000E+00 0.  1.
          4    1    6    6  503    0 -0.26216723281E+02 -0.54163178867E+01 -0.80795508520E+02  0.85115023798E+02  0.00000000000E+00 0.  1.
         -4    1    6    6    0  503 -0.30605805549E+03  0.74214332878E+02 -0.35402194218E+03  0.47382574443E+03  0.00000000000E+00 0. -1.
<mgrwt>
<rscale>  0 0.16177442E+04</rscale>
<asrwt>0</asrwt>
<pdfrwt beam="1">  1        1 0.17848221E+00 0.16177442E+04</pdfrwt>
<pdfrwt beam="2">  1       -1 0.86763703E-01 0.16177442E+04</pdfrwt>
<totfact> 0.14342858E+01</totfact>
</mgrwt>
</event>
<event>
12    3  0.4634846E-008  0.1825290E+04  0.7818608E-02  0.8692965E-01
          3   -1    0    0  501    0  0.00000000000E+00  0.00000000000E+00  0.10389154971E+04  0.10389154971E+04  0.00000000000E+00 0. -1.
         -3   -1    0    0    0  501 -0.00000000000E+00 -0.00000000000E+00 -0.80172113668E+03  0.80172113668E+03  0.00000000000E+00 0.  1.
         23    2    1    2    0    0  0.44070129752E+03 -0.74245775128E+02  0.62025646291E+03  0.76966283325E+03  0.89065865280E+02 0.  0.
        254    2    1    2    0    0 -0.44070129752E+03  0.74245775128E+02 -0.38306210245E+03  0.10709738006E+04  0.89471684817E+03 0.  0.
         23    2    4    4    0    0  0.23280547773E+03 -0.81046895429E+02  0.25180957703E+02  0.26274869862E+03  0.87383112074E+02 0.  0.
         23    2    4    4    0    0 -0.67350677524E+03  0.15529267056E+03 -0.40824306015E+03  0.80822510195E+03  0.94011857900E+02 0.  0.
          3    1    3    3  502    0  0.40841237898E+03 -0.90767818186E+02  0.55532705763E+03  0.69528958648E+03  0.00000000000E+00 0. -1.
         -3    1    3    3    0  502  0.32288918533E+02  0.16522043058E+02  0.64929405273E+02  0.74373246775E+02  0.00000000000E+00 0.  1.
         13    1    5    5    0    0  0.15250787377E+03 -0.47199567649E+02  0.57680905443E+02  0.16974550834E+03  0.00000000000E+00 0. -1.
        -13    1    5    5    0    0  0.80297603957E+02 -0.33847327779E+02 -0.32499947739E+02  0.93003190280E+02  0.00000000000E+00 0.  1.
          1    1    6    6  503    0 -0.65731799735E+03  0.16204414654E+03 -0.40847869097E+03  0.79068330958E+03  0.00000000000E+00 0. -1.
         -1    1    6    6    0  503 -0.16188777890E+02 -0.67514759839E+01  0.23563081643E+00  0.17541792366E+02  0.00000000000E+00 0.  1.
<mgrwt>
<rscale>  0 0.18252896E+04</rscale>
<asrwt>0</asrwt>
<pdfrwt beam="1">  1        3 0.15983315E+00 0.18252896E+04</pdfrwt>
<pdfrwt beam="2">  1       -3 0.12334171E+00 0.18252896E+04</pdfrwt>
<totfact> 0.35684421E-01</totfact>
</mgrwt>
</event>
<event>
12    3  0.4634846E-008  0.2375393E+04  0.7818608E-02  0.8448774E-01
          2   -1    0    0  501    0  0.00000000000E+00  0.00000000000E+00  0.16291467590E+04  0.16291467590E+04  0.00000000000E+00 0. -1.
         -2   -1    0    0    0  501 -0.00000000000E+00 -0.00000000000E+00 -0.86586633200E+03  0.86586633200E+03  0.00000000000E+00 0.  1.
         23    2    1    2    0    0  0.45411646063E+03  0.48480124599E+03  0.11319764782E+04  0.13156425217E+04  0.91052126278E+02 0.  0.
        254    2    1    2    0    0 -0.45411646063E+03 -0.48480124599E+03 -0.36869605116E+03  0.11793705694E+04  0.90206660164E+03 0.  0.
         23    2    4    4    0    0 -0.25731125036E+03 -0.59059610716E+02  0.26562743834E+03  0.38532163854E+03  0.90651596494E+02 0.  0.
         23    2    4    4    0    0 -0.19680521027E+03 -0.42574163527E+03 -0.63432348950E+03  0.79404893082E+03  0.90328203843E+02 0.  0.
          1    1    3    3  502    0  0.34923363650E+03  0.41631430131E+03  0.88014448596E+03  0.10343771297E+04  0.00000000000E+00 0. -1.
         -1    1    3    3    0  502  0.10488282413E+03  0.68486944681E+02  0.25183199223E+03  0.28126539193E+03  0.00000000000E+00 0.  1.
         13    1    5    5    0    0 -0.19476216604E+03 -0.81306994736E+02  0.18311443075E+03  0.27941729270E+03  0.00000000000E+00 0. -1.
        -13    1    5    5    0    0 -0.62549084324E+02  0.22247384020E+02  0.82513007588E+02  0.10590434583E+03  0.00000000000E+00 0.  1.
          4    1    6    6  503    0  0.20364665223E+01 -0.45152976953E+02 -0.90278731615E+02  0.10096131886E+03  0.00000000000E+00 0. -1.
         -4    1    6    6    0  503 -0.19884167680E+03 -0.38058865832E+03 -0.54404475789E+03  0.69308761196E+03  0.00000000000E+00 0.  1.
<mgrwt>
<rscale>  0 0.23753933E+04</rscale>
<asrwt>0</asrwt>
<pdfrwt beam="1">  1        2 0.25063796E+00 0.23753933E+04</pdfrwt>
<pdfrwt beam="2">  1       -2 0.13321021E+00 0.23753933E+04</pdfrwt>
<totfact> 0.39511482E+00</totfact>
</mgrwt>
</event>
<event>
12    3  0.4634846E-008  0.2008337E+04  0.7818608E-02  0.8602733E-01
          1   -1    0    0  501    0  0.00000000000E+00  0.00000000000E+00  0.44169769006E+03  0.44169769006E+03  0.00000000000E+00 0. -1.
         -1   -1    0    0    0  501 -0.00000000000E+00 -0.00000000000E+00 -0.22829064042E+04  0.22829064042E+04  0.00000000000E+00 0.  1.
         23    2    1    2    0    0 -0.10671452837E+03 -0.82025400700E+03 -0.88793723990E+03  0.12169827380E+04  0.91705049323E+02 0.  0.
        254    2    1    2    0    0  0.10671452837E+03  0.82025400700E+03 -0.95327147421E+03  0.15076213562E+04  0.82461568238E+03 0.  0.
         23    2    4    4    0    0  0.21546442963E+03 -0.65829199256E+02 -0.35497192404E+03  0.42946821370E+03  0.87632618443E+02 0.  0.
         23    2    4    4    0    0 -0.10874990125E+03  0.88608320625E+03 -0.59829955017E+03  0.10781531425E+04  0.86497731510E+02 0.  0.
          1    1    3    3  502    0 -0.59802353582E-01 -0.91012923159E+01  0.64480287296E+00  0.91243010080E+01  0.00000000000E+00 0. -1.
         -1    1    3    3    0  502 -0.10665472602E+03 -0.81115271468E+03 -0.88858204278E+03  0.12078584370E+04  0.00000000000E+00 0.  1.
         13    1    5    5    0    0  0.15856601876E+03 -0.86233270296E+02 -0.25023041669E+03  0.30853625500E+03  0.00000000000E+00 0.  1.
        -13    1    5    5    0    0  0.56898410864E+02  0.20404071040E+02 -0.10474150735E+03  0.12093195870E+03  0.00000000000E+00 0. -1.
          2    1    6    6  503    0 -0.20185316676E+02  0.29509572191E+02 -0.22466647217E+02  0.42225727909E+02  0.00000000000E+00 0. -1.
         -2    1    6    6    0  503 -0.88564584578E+02  0.85657363406E+03 -0.57583290295E+03  0.10359274146E+04  0.00000000000E+00 0.  1.
<mgrwt>
<rscale>  0 0.20083371E+04</rscale>
<asrwt>0</asrwt>
<pdfrwt beam="1">  1        1 0.67953492E-01 0.20083371E+04</pdfrwt>
<pdfrwt beam="2">  1       -1 0.35121636E+00 0.20083371E+04</pdfrwt>
<totfact> 0.74357539E-01</totfact>
</mgrwt>
</event>
<event>
12    3  0.4634846E-008  0.1225124E+04  0.7818608E-02  0.9091146E-01
         -1   -1    0    0    0  501 -0.00000000000E+00  0.00000000000E+00  0.64577495162E+03  0.64577495162E+03  0.00000000000E+00 0.  1.
          1   -1    0    0  501    0  0.00000000000E+00 -0.00000000000E+00 -0.58105691453E+03  0.58105691453E+03  0.00000000000E+00 0. -1.
         23    2    1    2    0    0 -0.78469223583E+02  0.23368049256E+03  0.93011097581E+02  0.27900268739E+03  0.91801109153E+02 0.  0.
        254    2    1    2    0    0  0.78469223583E+02 -0.23368049256E+03 -0.28293060493E+02  0.94782917877E+03  0.91477629134E+03 0.  0.
         23    2    4    4    0    0 -0.40274531773E+03 -0.38021390066E+02 -0.53215427089E+02  0.42008293593E+03  0.99941854721E+02 0.  0.
         23    2    4    4    0    0  0.48121454131E+03 -0.19565910250E+03  0.24922366595E+02  0.52774624284E+03  0.89694221170E+02 0.  0.
          4    1    3    3  502    0 -0.16367048452E+01  0.65650335024E+02 -0.11589197912E+02  0.66685491674E+02  0.00000000000E+00 0. -1.
         -4    1    3    3    0  502 -0.76832518738E+02  0.16803015754E+03  0.10460029549E+03  0.21231719571E+03  0.00000000000E+00 0.  1.
         13    1    5    5    0    0 -0.48712447931E+02  0.28018868382E+02 -0.13215157125E+02  0.57728675254E+02  0.00000000000E+00 0. -1.
        -13    1    5    5    0    0 -0.35403286980E+03 -0.66040258447E+02 -0.40000269963E+02  0.36235426068E+03  0.00000000000E+00 0.  1.
          3    1    6    6  503    0  0.29575215042E+03 -0.78701306719E+02 -0.72916120081E+01  0.30613134071E+03  0.00000000000E+00 0. -1.
         -3    1    6    6    0  503  0.18546239089E+03 -0.11695779578E+03  0.32213978603E+02  0.22161490213E+03  0.00000000000E+00 0.  1.
<mgrwt>
<rscale>  0 0.12251237E+04</rscale>
<asrwt>0</asrwt>
<pdfrwt beam="1">  1        1 0.89393371E-01 0.12251237E+04</pdfrwt>
<pdfrwt beam="2">  1       -1 0.99349993E-01 0.12251237E+04</pdfrwt>
<totfact> 0.34302593E+01</totfact>
</mgrwt>
</event>
<event>
12    3  0.4634846E-008  0.2199577E+04  0.7818608E-02  0.8518604E-01
          2   -1    0    0  501    0  0.00000000000E+00  0.00000000000E+00  0.19891860392E+04  0.19891860392E+04  0.00000000000E+00 0. -1.
         -2   -1    0    0    0  501 -0.00000000000E+00 -0.00000000000E+00 -0.60805532277E+03  0.60805532277E+03  0.00000000000E+00 0.  1.
         23    2    1    2    0    0 -0.72748346075E+03  0.54161781146E+03  0.65701346687E+03  0.11239340075E+04  0.94757154452E+02 0.  0.
        254    2    1    2    0    0  0.72748346075E+03 -0.54161781146E+03  0.72411724961E+03  0.14733073545E+04  0.90758290543E+03 0.  0.
         23    2    4    4    0    0  0.90164748122E+03 -0.57930530141E+03  0.55185444096E+03  0.12087134447E+04  0.88780936353E+02 0.  0.
         23    2    4    4    0    0 -0.17416402047E+03  0.37687489957E+02  0.17226280865E+03  0.26459390982E+03  0.92639132902E+02 0.  0.
          4    1    3    3  502    0 -0.41183935576E+03  0.31809735913E+03  0.31974978384E+03  0.61076796667E+03  0.00000000000E+00 0. -1.
         -4    1    3    3    0  502 -0.31564410499E+03  0.22352045232E+03  0.33726368303E+03  0.51316604088E+03  0.00000000000E+00 0.  1.
         13    1    5    5    0    0  0.55296339541E+02 -0.48110192596E+02  0.61319659039E+02  0.95563467826E+02  0.00000000000E+00 0. -1.
        -13    1    5    5    0    0  0.84635114167E+03 -0.53119510882E+03  0.49053478192E+03  0.11131499768E+04  0.00000000000E+00 0.  1.
          1    1    6    6  503    0  0.17760920959E+01 -0.15865570273E+02  0.21544725253E+02  0.26815033273E+02  0.00000000000E+00 0. -1.
         -1    1    6    6    0  503 -0.17594011256E+03  0.53553060230E+02  0.15071808340E+03  0.23777887655E+03  0.00000000000E+00 0.  1.
<mgrwt>
<rscale>  0 0.21995774E+04</rscale>
<asrwt>0</asrwt>
<pdfrwt beam="1">  1        2 0.30602862E+00 0.21995774E+04</pdfrwt>
<pdfrwt beam="2">  1       -2 0.93546974E-01 0.21995774E+04</pdfrwt>
<totfact> 0.59822975E+00</totfact>
</mgrwt>
</event>
<event>
12    3  0.4634846E-008  0.2116730E+04  0.7818608E-02  0.8553909E-01
          2   -1    0    0  501    0  0.00000000000E+00  0.00000000000E+00  0.11884424085E+04  0.11884424085E+04  0.00000000000E+00 0. -1.
         -2   -1    0    0    0  501 -0.00000000000E+00 -0.00000000000E+00 -0.94252466923E+03  0.94252466923E+03  0.00000000000E+00 0.  1.
         23    2    1    2    0    0  0.53671059451E+02 -0.31384551459E+03  0.89008482039E+03  0.94975286513E+03  0.91651119363E+02 0.  0.
        254    2    1    2    0    0 -0.53671059451E+02  0.31384551459E+03 -0.64416708108E+03  0.11812142126E+04  0.93751597220E+03 0.  0.
         23    2    4    4    0    0 -0.28636073442E+03  0.55040773907E+03 -0.30182277987E+03  0.69560949176E+03  0.88455780659E+02 0.  0.
         23    2    4    4    0    0  0.23268967497E+03 -0.23656222448E+03 -0.34234430121E+03  0.48560472087E+03  0.92228810409E+02 0.  0.
          4    1    3    3  502    0  0.16603769955E+02 -0.15769965475E+03  0.57061699696E+03  0.59224034269E+03  0.00000000000E+00 0. -1.
         -4    1    3    3    0  502  0.37067289496E+02 -0.15614585984E+03  0.31946782343E+03  0.35751252244E+03  0.00000000000E+00 0.  1.
         13    1    5    5    0    0 -0.17252709507E+03  0.33994230026E+03 -0.23237339593E+03  0.44645689733E+03  0.00000000000E+00 0.  1.
        -13    1    5    5    0    0 -0.11383363935E+03  0.21046543881E+03 -0.69449383947E+02  0.24915259443E+03  0.00000000000E+00 0. -1.
          1    1    6    6  503    0  0.15271065479E+03 -0.92555013940E+02 -0.19745719600E+03  0.26622606737E+03  0.00000000000E+00 0. -1.
         -1    1    6    6    0  503  0.79979020177E+02 -0.14400721054E+03 -0.14488710521E+03  0.21937865350E+03  0.00000000000E+00 0.  1.
<mgrwt>
<rscale>  0 0.21167298E+04</rscale>
<asrwt>0</asrwt>
<pdfrwt beam="1">  1        2 0.18283729E+00 0.21167298E+04</pdfrwt>
<pdfrwt beam="2">  1       -2 0.14500379E+00 0.21167298E+04</pdfrwt>
<totfact> 0.58037589E+00</totfact>
</mgrwt>
</event>
<event>
12    3  0.4634846E-008  0.1684448E+04  0.7818608E-02  0.8770285E-01
         -2   -1    0    0    0  501 -0.00000000000E+00  0.00000000000E+00  0.55056903001E+03  0.55056903001E+03  0.00000000000E+00 0.  1.
          2   -1    0    0  501    0  0.00000000000E+00 -0.00000000000E+00 -0.12883777030E+04  0.12883777030E+04  0.00000000000E+00 0. -1.
         23    2    1    2    0    0 -0.24877470948E+03 -0.41653733301E+03  0.11114666847E+03  0.50597354518E+03  0.90903468806E+02 0.  0.
        254    2    1    2    0    0  0.24877470948E+03  0.41653733301E+03 -0.84895534146E+03  0.13329731878E+04  0.90592501996E+03 0.  0.
         23    2    4    4    0    0  0.87384928424E+02 -0.27128534923E+03 -0.36574453189E+03  0.47188309261E+03  0.87594086895E+02 0.  0.
         23    2    4    4    0    0  0.16138978106E+03  0.68782268225E+03 -0.48321080956E+03  0.86109009521E+03  0.94004052828E+02 0.  0.
          4    1    3    3  502    0 -0.10639305595E+03 -0.23376886639E+03  0.22182526929E+02  0.25779726482E+03  0.00000000000E+00 0. -1.
         -4    1    3    3    0  502 -0.14238165353E+03 -0.18276846662E+03  0.88964141541E+02  0.24817628036E+03  0.00000000000E+00 0.  1.
         13    1    5    5    0    0  0.43244203894E+02 -0.82822472738E+02 -0.18402970831E+03  0.20638933282E+03  0.00000000000E+00 0.  1.
        -13    1    5    5    0    0  0.44140724529E+02 -0.18846287650E+03 -0.18171482358E+03  0.26549375979E+03  0.00000000000E+00 0. -1.
          2    1    6    6  503    0  0.13414361179E+03  0.54205295253E+03 -0.33374067665E+03  0.65053727885E+03  0.00000000000E+00 0. -1.
         -2    1    6    6    0  503  0.27246169264E+02  0.14576972972E+03 -0.14947013292E+03  0.21055281636E+03  0.00000000000E+00 0.  1.
<mgrwt>
<rscale>  0 0.16844475E+04</rscale>
<asrwt>0</asrwt>
<pdfrwt beam="1">  1        2 0.19821195E+00 0.16844475E+04</pdfrwt>
<pdfrwt beam="2">  1       -2 0.84702929E-01 0.16844475E+04</pdfrwt>
<totfact> 0.19432494E+01</totfact>
</mgrwt>
</event>
<event>
12    3  0.4634846E-008  0.1477401E+04  0.7818608E-02  0.8899621E-01
         -2   -1    0    0    0  501 -0.00000000000E+00  0.00000000000E+00  0.69542968447E+03  0.69542968447E+03  0.00000000000E+00 0.  1.
          2   -1    0    0  501    0  0.00000000000E+00 -0.00000000000E+00 -0.78466399571E+03  0.78466399571E+03  0.00000000000E+00 0. -1.
         23    2    1    2    0    0  0.11810372245E+03  0.27830562944E+03 -0.40156643830E+03  0.51048399019E+03  0.89083035669E+02 0.  0.
        254    2    1    2    0    0 -0.11810372245E+03 -0.27830562944E+03  0.31233212706E+03  0.96960969000E+03  0.86671164796E+03 0.  0.
         23    2    4    4    0    0  0.28564543581E+03 -0.26177812369E+03 -0.72998920957E+02  0.40475061549E+03  0.91504738862E+02 0.  0.
         23    2    4    4    0    0 -0.40374915826E+03 -0.16527505741E+02  0.38533104801E+03  0.56485907450E+03  0.85435450751E+02 0.  0.
          4    1    3    3  502    0 -0.11322984415E+02  0.54649476713E+01 -0.10421119327E+02  0.16330197707E+02  0.00000000000E+00 0.  1.
         -4    1    3    3    0  502  0.12942670686E+03  0.27284068176E+03 -0.39114531897E+03  0.49415379248E+03  0.00000000000E+00 0. -1.
         13    1    5    5    0    0  0.14754232159E+03 -0.17846162294E+03 -0.10550774404E+02  0.23179431909E+03  0.00000000000E+00 0. -1.
        -13    1    5    5    0    0  0.13810311423E+03 -0.83316500752E+02 -0.62448146553E+02  0.17295629640E+03  0.00000000000E+00 0.  1.
          4    1    6    6  503    0 -0.25255756218E+03  0.15864867771E+02  0.19401447172E+03  0.31887086960E+03  0.00000000000E+00 0. -1.
         -4    1    6    6    0  503 -0.15119159608E+03 -0.32392373512E+02  0.19131657629E+03  0.24598820491E+03  0.00000000000E+00 0.  1.
<mgrwt>
<rscale>  0 0.14774013E+04</rscale>
<asrwt>0</asrwt>
<pdfrwt beam="1">  1        2 0.12071754E+00 0.14774013E+04</pdfrwt>
<pdfrwt beam="2">  1       -2 0.10698918E+00 0.14774013E+04</pdfrwt>
<totfact> 0.24036625E+01</totfact>
</mgrwt>
</event>
<event>
12    3  0.4634846E-008  0.1644189E+04  0.7818608E-02  0.8793852E-01
         -2   -1    0    0    0  501 -0.00000000000E+00  0.00000000000E+00  0.11086257756E+04  0.11086257756E+04  0.00000000000E+00 0.  1.
          2   -1    0    0  501    0  0.00000000000E+00 -0.00000000000E+00 -0.60961895878E+03  0.60961895878E+03  0.00000000000E+00 0. -1.
         23    2    1    2    0    0  0.43051597953E+03  0.24096143858E+01  0.56963643885E+03  0.71982643843E+03  0.91184505882E+02 0.  0.
        254    2    1    2    0    0 -0.43051597953E+03 -0.24096143858E+01 -0.70629622015E+02  0.99841829597E+03  0.89805385994E+03 0.  0.
         23    2    4    4    0    0  0.17137965232E+03 -0.85608207095E+02 -0.27923342196E+03  0.34953439695E+03  0.86621246592E+02 0.  0.
         23    2    4    4    0    0 -0.60189563185E+03  0.83198592709E+02  0.20860379994E+03  0.64888389902E+03  0.91292998584E+02 0.  0.
          4    1    3    3  502    0  0.29358413119E+03 -0.23778419164E+02  0.43977437650E+03  0.52930006379E+03  0.00000000000E+00 0.  1.
         -4    1    3    3    0  502  0.13693184835E+03  0.26188033550E+02  0.12986206235E+03  0.19052637463E+03  0.00000000000E+00 0. -1.
         13    1    5    5    0    0  0.64395290578E+02 -0.60000647254E+02 -0.67464368363E+02  0.11089757490E+03  0.00000000000E+00 0. -1.
        -13    1    5    5    0    0  0.10698436174E+03 -0.25607559841E+02 -0.21176905360E+03  0.23863682205E+03  0.00000000000E+00 0.  1.
          4    1    6    6  503    0 -0.66340391110E+02  0.36652246049E+02  0.13411108807E+02  0.76969425570E+02  0.00000000000E+00 0. -1.
         -4    1    6    6    0  503 -0.53555524074E+03  0.46546346660E+02  0.19519269114E+03  0.57191447346E+03  0.00000000000E+00 0.  1.
<mgrwt>
<rscale>  0 0.16441889E+04</rscale>
<asrwt>0</asrwt>
<pdfrwt beam="1">  1        2 0.93787532E-01 0.16441889E+04</pdfrwt>
<pdfrwt beam="2">  1       -2 0.17055781E+00 0.16441889E+04</pdfrwt>
<totfact> 0.98101452E+00</totfact>
</mgrwt>
</event>
<event>
12    3  0.4720841E-008  0.1720075E+04  0.7818608E-02  0.8749997E-01
          1   -1    0    0  501    0  0.00000000000E+00  0.00000000000E+00  0.59087782311E+03  0.59087782311E+03  0.00000000000E+00 0. -1.
         -1   -1    0    0    0  501 -0.00000000000E+00 -0.00000000000E+00 -0.12518066054E+04  0.12518066054E+04  0.00000000000E+00 0.  1.
         23    2    1    2    0    0 -0.63479603571E+03  0.13305537660E+03 -0.84568362234E+02  0.65986281151E+03  0.87162961945E+02 0.  0.
        254    2    1    2    0    0  0.63479603571E+03 -0.13305537660E+03 -0.57636042007E+03  0.11828216170E+04  0.80386933244E+03 0.  0.
         23    2    4    4    0    0  0.12347658827E+03  0.30645447657E+03 -0.27316700032E+03  0.43819677301E+03  0.90749037228E+02 0.  0.
         23    2    4    4    0    0  0.51131944744E+03 -0.43950985317E+03 -0.30319341975E+03  0.74462484399E+03  0.89013595293E+02 0.  0.
          3    1    3    3  502    0 -0.62583085384E+03  0.12042019947E+03 -0.89588706989E+02  0.64357704937E+03  0.00000000000E+00 0. -1.
         -3    1    3    3    0  502 -0.89651818695E+01  0.12635177133E+02  0.50203447549E+01  0.16285762144E+02  0.00000000000E+00 0.  1.
         13    1    5    5    0    0  0.10657811814E+03  0.30744414607E+03 -0.25537629487E+03  0.41363975897E+03  0.00000000000E+00 0. -1.
        -13    1    5    5    0    0  0.16898470124E+02 -0.98966950491E+00 -0.17790705448E+02  0.24557014041E+02  0.00000000000E+00 0.  1.
          1    1    6    6  503    0  0.41362248974E+03 -0.39716126692E+03 -0.24919412174E+03  0.62523463297E+03  0.00000000000E+00 0. -1.
         -1    1    6    6    0  503  0.97696957700E+02 -0.42348586246E+02 -0.53999298012E+02  0.11939021102E+03  0.00000000000E+00 0.  1.
<mgrwt>
<rscale>  0 0.17200753E+04</rscale>
<asrwt>0</asrwt>
<pdfrwt beam="1">  1        1 0.90904281E-01 0.17200753E+04</pdfrwt>
<pdfrwt beam="2">  1       -1 0.19258563E+00 0.17200753E+04</pdfrwt>
<totfact> 0.56365808E+00</totfact>
</mgrwt>
</event>
<event>
12    3  0.4634846E-008  0.1303630E+04  0.7818608E-02  0.9026691E-01
         -2   -1    0    0    0  501 -0.00000000000E+00  0.00000000000E+00  0.48379588321E+03  0.48379588321E+03  0.00000000000E+00 0.  1.
          2   -1    0    0  501    0  0.00000000000E+00 -0.00000000000E+00 -0.87818642971E+03  0.87818642971E+03  0.00000000000E+00 0. -1.
         23    2    1    2    0    0 -0.77682461407E+02 -0.12743069762E+03 -0.45293608075E+03  0.48542556379E+03  0.90629670820E+02 0.  0.
        254    2    1    2    0    0  0.77682461407E+02  0.12743069762E+03  0.58545534243E+02  0.87655674913E+03  0.86177201588E+03 0.  0.
         23    2    4    4    0    0  0.10537506138E+02 -0.11725855593E+03  0.40813900323E+03  0.43489130880E+03  0.93233022792E+02 0.  0.
         23    2    4    4    0    0  0.67144955269E+02  0.24468925355E+03 -0.34959346899E+03  0.44166544032E+03  0.92040707279E+02 0.  0.
          2    1    3    3  502    0 -0.80102045998E+02 -0.12112693683E+03 -0.45558743347E+03  0.47817149866E+03  0.00000000000E+00 0. -1.
         -2    1    3    3    0  502  0.24195845911E+01 -0.63037607848E+01  0.26513527206E+01  0.72540651275E+01  0.00000000000E+00 0.  1.
         13    1    5    5    0    0  0.18249214774E+02  0.10941167914E+02  0.46905298042E+02  0.51505824716E+02  0.00000000000E+00 0. -1.
        -13    1    5    5    0    0 -0.77117086362E+01 -0.12819972385E+03  0.36123370519E+03  0.38338548409E+03  0.00000000000E+00 0.  1.
          4    1    6    6  503    0  0.73555320142E+01  0.96059406100E+02 -0.20217126808E+03  0.22395252843E+03  0.00000000000E+00 0. -1.
         -4    1    6    6    0  503  0.59789423254E+02  0.14862984745E+03 -0.14742220091E+03  0.21771291190E+03  0.00000000000E+00 0.  1.
<mgrwt>
<rscale>  0 0.13036303E+04</rscale>
<asrwt>0</asrwt>
<pdfrwt beam="1">  1        2 0.13510560E+00 0.13036303E+04</pdfrwt>
<pdfrwt beam="2">  1       -2 0.74430136E-01 0.13036303E+04</pdfrwt>
<totfact> 0.48307959E+01</totfact>
</mgrwt>
</event>
<event>
12    3  0.4634846E-008  0.1362292E+04  0.7818608E-02  0.8981575E-01
          1   -1    0    0  501    0  0.00000000000E+00  0.00000000000E+00  0.16714079805E+04  0.16714079805E+04  0.00000000000E+00 0. -1.
         -1   -1    0    0    0  501 -0.00000000000E+00 -0.00000000000E+00 -0.27758642216E+03  0.27758642216E+03  0.00000000000E+00 0.  1.
         23    2    1    2    0    0 -0.18826753450E+03 -0.32081517524E+03  0.37517751553E+03  0.53782694781E+03  0.10066089817E+03 0.  0.
        254    2    1    2    0    0  0.18826753450E+03  0.32081517524E+03  0.10186440428E+04  0.14111674549E+04  0.90298995480E+03 0.  0.
         23    2    4    4    0    0 -0.24225895601E+03 -0.79559786500E+00  0.33896534601E+01  0.25923690169E+03  0.92207628218E+02 0.  0.
         23    2    4    4    0    0  0.43052649051E+03  0.32161077310E+03  0.10152543894E+04  0.11519305532E+04  0.86116060155E+02 0.  0.
          1    1    3    3  502    0 -0.61126919070E+01 -0.63744845267E+02  0.10398580019E+03  0.12212213944E+03  0.00000000000E+00 0. -1.
         -1    1    3    3    0  502 -0.18215484260E+03 -0.25707032997E+03  0.27119171534E+03  0.41570480837E+03  0.00000000000E+00 0.  1.
         13    1    5    5    0    0 -0.15903337410E+03  0.12455482351E+02 -0.39985741025E+02  0.16445550342E+03  0.00000000000E+00 0. -1.
        -13    1    5    5    0    0 -0.83225581909E+02 -0.13251080216E+02  0.43375394485E+02  0.94781398268E+02  0.00000000000E+00 0.  1.
          3    1    6    6  503    0  0.39876424348E+03  0.32163296356E+03  0.94887269106E+03  0.10783413509E+04  0.00000000000E+00 0. -1.
         -3    1    6    6    0  503  0.31762247038E+02 -0.22190453669E-01  0.66381698306E+02  0.73589202328E+02  0.00000000000E+00 0.  1.
<mgrwt>
<rscale>  0 0.13622924E+04</rscale>
<asrwt>0</asrwt>
<pdfrwt beam="1">  1        1 0.25713968E+00 0.13622924E+04</pdfrwt>
<pdfrwt beam="2">  1       -1 0.42705604E-01 0.13622924E+04</pdfrwt>
<totfact> 0.26322036E+01</totfact>
</mgrwt>
</event>
<event>
12    3  0.4634846E-008  0.1701172E+04  0.7818608E-02  0.8760696E-01
         -1   -1    0    0    0  501 -0.00000000000E+00  0.00000000000E+00  0.41932752040E+03  0.41932752040E+03  0.00000000000E+00 0.  1.
          1   -1    0    0  501    0  0.00000000000E+00 -0.00000000000E+00 -0.17253723799E+04  0.17253723799E+04  0.00000000000E+00 0. -1.
         23    2    1    2    0    0  0.28837527913E+03 -0.86336846506E+02 -0.98750684821E+03  0.10389032857E+04  0.11634392587E+03 0.  0.
        254    2    1    2    0    0 -0.28837527913E+03  0.86336846506E+02 -0.31853801130E+03  0.11057966146E+04  0.10152365909E+04 0.  0.
         23    2    4    4    0    0 -0.31752931109E+03 -0.39940048789E+03 -0.25968912605E+01  0.51814174645E+03  0.90102788196E+02 0.  0.
         23    2    4    4    0    0  0.29154031964E+02  0.48573733439E+03 -0.31594112004E+03  0.58765486817E+03  0.93427710796E+02 0.  0.
          4    1    3    3  502    0  0.28004581927E+03 -0.10519059146E+03 -0.88053514955E+03  0.92996390845E+03  0.00000000000E+00 0. -1.
         -4    1    3    3    0  502  0.83294598530E+01  0.18853744954E+02 -0.10697169866E+03  0.10893937725E+03  0.00000000000E+00 0.  1.
         13    1    5    5    0    0 -0.28555140884E+03 -0.34583475262E+03 -0.31077412084E+02  0.44956321997E+03  0.00000000000E+00 0. -1.
        -13    1    5    5    0    0 -0.31977902252E+02 -0.53565735270E+02  0.28480520823E+02  0.68578526478E+02  0.00000000000E+00 0.  1.
          1    1    6    6  503    0  0.17915841677E+02  0.11268632337E+03 -0.31411523228E+02  0.11834639263E+03  0.00000000000E+00 0. -1.
         -1    1    6    6    0  503  0.11238190287E+02  0.37305101102E+03 -0.28452959681E+03  0.46930847553E+03  0.00000000000E+00 0.  1.
<mgrwt>
<rscale>  0 0.17011715E+04</rscale>
<asrwt>0</asrwt>
<pdfrwt beam="1">  1        1 0.26544190E+00 0.17011715E+04</pdfrwt>
<pdfrwt beam="2">  1       -1 0.64511927E-01 0.17011715E+04</pdfrwt>
<totfact> 0.10617254E+01</totfact>
</mgrwt>
</event>
<event>
12    3  0.4634846E-008  0.2027552E+04  0.7818608E-02  0.8593846E-01
          2   -1    0    0  501    0  0.00000000000E+00  0.00000000000E+00  0.24406469850E+04  0.24406469850E+04  0.00000000000E+00 0. -1.
         -2   -1    0    0    0  501 -0.00000000000E+00 -0.00000000000E+00 -0.42109399971E+03  0.42109399971E+03  0.00000000000E+00 0.  1.
         23    2    1    2    0    0 -0.77619993316E+03  0.12987066162E+03  0.51674751295E+03  0.94605643104E+03  0.92962646169E+02 0.  0.
        254    2    1    2    0    0  0.77619993316E+03 -0.12987066162E+03  0.15028054723E+04  0.19156845536E+04  0.88998331247E+03 0.  0.
         23    2    4    4    0    0  0.44290244982E+03 -0.43531503663E+03  0.46673708092E+03  0.78180736584E+03  0.87849265239E+02 0.  0.
         23    2    4    4    0    0  0.33329748334E+03  0.30544437501E+03  0.10360683914E+04  0.11338771878E+04  0.88635696956E+02 0.  0.
          3    1    3    3  502    0 -0.17865627339E+02  0.27952904943E+01  0.33013421954E+02  0.37641470724E+02  0.00000000000E+00 0. -1.
         -3    1    3    3    0  502 -0.75833430582E+03  0.12707537113E+03  0.48373409100E+03  0.90841496032E+03  0.00000000000E+00 0.  1.
         13    1    5    5    0    0  0.33345474240E+03 -0.35826531078E+03  0.32891969543E+03  0.58968997293E+03  0.00000000000E+00 0. -1.
        -13    1    5    5    0    0  0.10944770743E+03 -0.77049725843E+02  0.13781738549E+03  0.19211739291E+03  0.00000000000E+00 0.  1.
          2    1    6    6  503    0  0.30208516126E+03  0.29661315269E+03  0.90932515064E+03  0.10030488705E+04  0.00000000000E+00 0. -1.
         -2    1    6    6    0  503  0.31212322080E+02  0.88312223105E+01  0.12674324073E+03  0.13082831731E+03  0.00000000000E+00 0.  1.
<mgrwt>
<rscale>  0 0.20275520E+04</rscale>
<asrwt>0</asrwt>
<pdfrwt beam="1">  1        2 0.37548414E+00 0.20275520E+04</pdfrwt>
<pdfrwt beam="2">  1       -2 0.64783694E-01 0.20275520E+04</pdfrwt>
<totfact> 0.76816658E+00</totfact>
</mgrwt>
</event>
<event>
12    3  0.4634846E-008  0.1599596E+04  0.7818608E-02  0.8820796E-01
         -2   -1    0    0    0  501 -0.00000000000E+00  0.00000000000E+00  0.51608017548E+03  0.51608017548E+03  0.00000000000E+00 0.  1.
          2   -1    0    0  501    0  0.00000000000E+00 -0.00000000000E+00 -0.12394905669E+04  0.12394905669E+04  0.00000000000E+00 0. -1.
         23    2    1    2    0    0  0.19204765524E+03  0.17398806010E+03  0.27515011180E+03  0.38735193473E+03  0.84733643668E+02 0.  0.
        254    2    1    2    0    0 -0.19204765524E+03 -0.17398806010E+03 -0.99856050321E+03  0.13682188076E+04  0.89874661618E+03 0.  0.
         23    2    4    4    0    0 -0.35897517188E+03 -0.91555565536E+02 -0.10817701639E+04  0.11468404361E+04  0.88151589951E+02 0.  0.
         23    2    4    4    0    0  0.16692751664E+03 -0.82432494569E+02  0.83209660706E+02  0.22137837151E+03  0.86166256548E+02 0.  0.
          3    1    3    3  502    0  0.14412498618E+02  0.50561195118E+02  0.30462546930E+02  0.60762828552E+02  0.00000000000E+00 0. -1.
         -3    1    3    3    0  502  0.17763515662E+03  0.12342686499E+03  0.24468756487E+03  0.32658910617E+03  0.00000000000E+00 0.  1.
         13    1    5    5    0    0 -0.17490894794E+03 -0.84179599894E+02 -0.62022342597E+03  0.64988956233E+03  0.00000000000E+00 0. -1.
        -13    1    5    5    0    0 -0.18406622394E+03 -0.73759656418E+01 -0.46154673794E+03  0.49695087380E+03  0.00000000000E+00 0.  1.
          3    1    6    6  503    0  0.82611386313E+02 -0.47901836307E+01  0.65206429653E+02  0.10535400076E+03  0.00000000000E+00 0. -1.
         -3    1    6    6    0  503  0.84316130324E+02 -0.77642310938E+02  0.18003231053E+02  0.11602437075E+03  0.00000000000E+00 0.  1.
<mgrwt>
<rscale>  0 0.15995956E+04</rscale>
<asrwt>0</asrwt>
<pdfrwt beam="1">  1        2 0.19069086E+00 0.15995956E+04</pdfrwt>
<pdfrwt beam="2">  1       -2 0.79396950E-01 0.15995956E+04</pdfrwt>
<totfact> 0.24195167E+01</totfact>
</mgrwt>
</event>
<event>
12    3  0.4634846E-008  0.1598163E+04  0.7818608E-02  0.8821677E-01
          2   -1    0    0  501    0  0.00000000000E+00  0.00000000000E+00  0.27851916550E+04  0.27851916550E+04  0.00000000000E+00 0. -1.
         -2   -1    0    0    0  501 -0.00000000000E+00 -0.00000000000E+00 -0.22925948854E+03  0.22925948854E+03  0.00000000000E+00 0.  1.
         23    2    1    2    0    0 -0.12555842366E+03  0.22843575241E+03 -0.17816020370E+02  0.27654399681E+03  0.90616559521E+02 0.  0.
        254    2    1    2    0    0  0.12555842366E+03 -0.22843575241E+03  0.25737481869E+04  0.27379071468E+04  0.89666493420E+03 0.  0.
         23    2    4    4    0    0  0.12462182812E+03 -0.33615353078E+03  0.34940480441E+03  0.50887967483E+03  0.91351025233E+02 0.  0.
         23    2    4    4    0    0  0.93659553952E+00  0.10771777837E+03  0.22243433824E+04  0.22290274719E+04  0.96208059014E+02 0.  0.
          1    1    3    3  502    0 -0.96275823734E+02  0.16179062379E+03  0.28281204410E+02  0.19038137173E+03  0.00000000000E+00 0. -1.
         -1    1    3    3    0  502 -0.29282599928E+02  0.66645128619E+02 -0.46097224779E+02  0.86162625073E+02  0.00000000000E+00 0.  1.
         13    1    5    5    0    0  0.57920531475E+02 -0.51214156556E+02  0.71645563434E+02  0.10540761148E+03  0.00000000000E+00 0. -1.
        -13    1    5    5    0    0  0.66701296647E+02 -0.28493937422E+03  0.27775924098E+03  0.40347206335E+03  0.00000000000E+00 0.  1.
          1    1    6    6  503    0 -0.27848376146E+02  0.52849819201E+02  0.49763424218E+03  0.50120701755E+03  0.00000000000E+00 0. -1.
         -1    1    6    6    0  503  0.28784971685E+02  0.54867959172E+02  0.17267091403E+04  0.17278204544E+04  0.00000000000E+00 0.  1.
<mgrwt>
<rscale>  0 0.15981635E+04</rscale>
<asrwt>0</asrwt>
<pdfrwt beam="1">  1        2 0.42849100E+00 0.15981635E+04</pdfrwt>
<pdfrwt beam="2">  1       -2 0.35270693E-01 0.15981635E+04</pdfrwt>
<totfact> 0.17159973E+01</totfact>
</mgrwt>
</event>
<event>
12    3  0.4634846E-008  0.1488077E+04  0.7818608E-02  0.8892420E-01
          1   -1    0    0  501    0  0.00000000000E+00  0.00000000000E+00  0.15605907649E+04  0.15605907649E+04  0.00000000000E+00 0. -1.
         -1   -1    0    0    0  501 -0.00000000000E+00 -0.00000000000E+00 -0.35473317649E+03  0.35473317649E+03  0.00000000000E+00 0.  1.
         23    2    1    2    0    0 -0.39436970818E+02  0.45800557740E+03  0.41790049663E+03  0.62813266233E+03  0.92657610600E+02 0.  0.
        254    2    1    2    0    0  0.39436970818E+02 -0.45800557740E+03  0.78795709180E+03  0.12871912791E+04  0.90810826822E+03 0.  0.
         23    2    4    4    0    0 -0.12283859534E+03  0.23029027219E+03  0.93202639652E+02  0.29182280591E+03  0.91383193439E+02 0.  0.
         23    2    4    4    0    0  0.16227556616E+03 -0.68829584958E+03  0.69475445214E+03  0.99536847316E+03  0.89387430103E+02 0.  0.
          3    1    3    3  502    0  0.13826887108E+02  0.19069498245E+03  0.12723020534E+03  0.22965906097E+03  0.00000000000E+00 0. -1.
         -3    1    3    3    0  502 -0.53263857926E+02  0.26731059495E+03  0.29067029129E+03  0.39847360135E+03  0.00000000000E+00 0.  1.
         13    1    5    5    0    0  0.13307295280E+02  0.22541088802E+02  0.19790992225E+02  0.32815669509E+02  0.00000000000E+00 0. -1.
        -13    1    5    5    0    0 -0.13614589062E+03  0.20774918338E+03  0.73411647426E+02  0.25900713640E+03  0.00000000000E+00 0.  1.
          2    1    6    6  503    0  0.71699278755E+02 -0.44671157318E+03  0.40289507237E+03  0.60581883061E+03  0.00000000000E+00 0. -1.
         -2    1    6    6    0  503  0.90576287406E+02 -0.24158427641E+03  0.29185937978E+03  0.38954964255E+03  0.00000000000E+00 0.  1.
<mgrwt>
<rscale>  0 0.14880770E+04</rscale>
<asrwt>0</asrwt>
<pdfrwt beam="1">  1        1 0.24009088E+00 0.14880770E+04</pdfrwt>
<pdfrwt beam="2">  1       -1 0.54574336E-01 0.14880770E+04</pdfrwt>
<totfact> 0.19507415E+01</totfact>
</mgrwt>
</event>
<event>
12    3  0.4634846E-008  0.1947077E+04  0.7818608E-02  0.8631772E-01
          2   -1    0    0  501    0  0.00000000000E+00  0.00000000000E+00  0.12660417127E+04  0.12660417127E+04  0.00000000000E+00 0. -1.
         -2   -1    0    0    0  501 -0.00000000000E+00 -0.00000000000E+00 -0.74861429235E+03  0.74861429235E+03  0.00000000000E+00 0.  1.
         23    2    1    2    0    0 -0.66095140007E+03 -0.30149250492E+03 -0.35267880092E+02  0.73270825583E+03  0.88674015457E+02 0.  0.
        254    2    1    2    0    0  0.66095140007E+03  0.30149250492E+03  0.55269530044E+03  0.12819477492E+04  0.90009080253E+03 0.  0.
         23    2    4    4    0    0 -0.18123109643E+03 -0.78512290425E+02  0.17911302412E+03  0.28106672600E+03  0.88927717811E+02 0.  0.
         23    2    4    4    0    0  0.84218249650E+03  0.38000479534E+03  0.37358227633E+03  0.10008810232E+04  0.92326071896E+02 0.  0.
          3    1    3    3  502    0 -0.38084765956E+03 -0.21927258485E+03 -0.34140139431E+02  0.44078447725E+03  0.00000000000E+00 0.  1.
         -3    1    3    3    0  502 -0.28010374051E+03 -0.82219920064E+02 -0.11277406610E+01  0.29192377858E+03  0.00000000000E+00 0. -1.
         13    1    5    5    0    0 -0.48558102907E+02 -0.53765763013E+02  0.26019865785E+02  0.76978438836E+02  0.00000000000E+00 0. -1.
        -13    1    5    5    0    0 -0.13267299352E+03 -0.24746527412E+02  0.15309315833E+03  0.20408828716E+03  0.00000000000E+00 0.  1.
          4    1    6    6  503    0  0.47118865105E+03  0.16749430060E+03  0.22364033716E+03  0.54780296277E+03  0.00000000000E+00 0.  1.
         -4    1    6    6    0  503  0.37099384545E+03  0.21251049474E+03  0.14994193916E+03  0.45307806044E+03  0.00000000000E+00 0. -1.
<mgrwt>
<rscale>  0 0.19470767E+04</rscale>
<asrwt>0</asrwt>
<pdfrwt beam="1">  1        2 0.19477565E+00 0.19470767E+04</pdfrwt>
<pdfrwt beam="2">  1       -2 0.11517143E+00 0.19470767E+04</pdfrwt>
<totfact> 0.94885659E+00</totfact>
</mgrwt>
</event>
<event>
12    3  0.4634846E-008  0.1720321E+04  0.7818608E-02  0.8749859E-01
          2   -1    0    0  501    0  0.00000000000E+00  0.00000000000E+00  0.14449218170E+04  0.14449218170E+04  0.00000000000E+00 0. -1.
         -2   -1    0    0    0  501 -0.00000000000E+00 -0.00000000000E+00 -0.51205270720E+03  0.51205270720E+03  0.00000000000E+00 0.  1.
         23    2    1    2    0    0 -0.28178438546E+03 -0.31267850162E+03 -0.17749504768E+03  0.46566192779E+03  0.90367326899E+02 0.  0.
        254    2    1    2    0    0  0.28178438546E+03  0.31267850162E+03  0.11103641575E+04  0.14913125964E+04  0.90218313701E+03 0.  0.
         23    2    4    4    0    0  0.17207580424E+03  0.61687998141E+03  0.61218565443E+03  0.89058867201E+03  0.90696821091E+02 0.  0.
         23    2    4    4    0    0  0.10970858122E+03 -0.30420147979E+03  0.49817850305E+03  0.60072392439E+03  0.90071634492E+02 0.  0.
          4    1    3    3  502    0 -0.20071554556E+03 -0.26217134263E+03 -0.10748627169E+03  0.34723744287E+03  0.00000000000E+00 0. -1.
         -4    1    3    3    0  502 -0.81068839899E+02 -0.50507158987E+02 -0.70008775992E+02  0.11842448492E+03  0.00000000000E+00 0.  1.
         13    1    5    5    0    0  0.15870976213E+03  0.45421576541E+03  0.42216536148E+03  0.64009713527E+03  0.00000000000E+00 0. -1.
        -13    1    5    5    0    0  0.13366042115E+02  0.16266421599E+03  0.19002029295E+03  0.25049153674E+03  0.00000000000E+00 0.  1.
          4    1    6    6  503    0 -0.84364033538E+01 -0.42478843642E+02  0.34679267415E+02  0.55482219198E+02  0.00000000000E+00 0.  1.
         -4    1    6    6    0  503  0.11814498457E+03 -0.26172263615E+03  0.46349923563E+03  0.54524170519E+03  0.00000000000E+00 0. -1.
<mgrwt>
<rscale>  0 0.17203210E+04</rscale>
<asrwt>0</asrwt>
<pdfrwt beam="1">  1        2 0.22229566E+00 0.17203210E+04</pdfrwt>
<pdfrwt beam="2">  1       -2 0.78777340E-01 0.17203210E+04</pdfrwt>
<totfact> 0.18544191E+01</totfact>
</mgrwt>
</event>
<event>
12    3  0.4634846E-008  0.1508971E+04  0.7818608E-02  0.8878509E-01
          1   -1    0    0  501    0  0.00000000000E+00  0.00000000000E+00  0.66724057045E+03  0.66724057045E+03  0.00000000000E+00 0. -1.
         -1   -1    0    0    0  501 -0.00000000000E+00 -0.00000000000E+00 -0.85313800809E+03  0.85313800809E+03  0.00000000000E+00 0.  1.
         23    2    1    2    0    0 -0.18289338086E+03 -0.44562424874E+03 -0.27605415106E+02  0.49091604428E+03  0.90584456516E+02 0.  0.
        254    2    1    2    0    0  0.18289338086E+03  0.44562424874E+03 -0.15829202253E+03  0.10294625343E+04  0.89593849410E+03 0.  0.
         23    2    4    4    0    0  0.37080934114E+03  0.82599359681E+02  0.23406199553E+03  0.45541426249E+03  0.91076402174E+02 0.  0.
         23    2    4    4    0    0 -0.18791596028E+03  0.36302488906E+03 -0.39235401806E+03  0.57404827176E+03  0.92142631966E+02 0.  0.
          1    1    3    3  502    0 -0.59908797806E+02 -0.24700929082E+03  0.96575048103E+01  0.25435392901E+03  0.00000000000E+00 0. -1.
         -1    1    3    3    0  502 -0.12298458306E+03 -0.19861495792E+03 -0.37262919916E+02  0.23656211527E+03  0.00000000000E+00 0.  1.
         13    1    5    5    0    0  0.45248479835E+02  0.23480696917E+02  0.68591994399E+02  0.85461276323E+02  0.00000000000E+00 0. -1.
        -13    1    5    5    0    0  0.32556086131E+03  0.59118662764E+02  0.16547000113E+03  0.36995298617E+03  0.00000000000E+00 0.  1.
          1    1    6    6  503    0 -0.28511322916E+02  0.14584018631E+03 -0.15900249438E+03  0.21763283000E+03  0.00000000000E+00 0. -1.
         -1    1    6    6    0  503 -0.15940463736E+03  0.21718470274E+03 -0.23335152368E+03  0.35641544176E+03  0.00000000000E+00 0.  1.
<mgrwt>
<rscale>  0 0.15089709E+04</rscale>
<asrwt>0</asrwt>
<pdfrwt beam="1">  1        1 0.10265240E+00 0.15089709E+04</pdfrwt>
<pdfrwt beam="2">  1       -1 0.13125200E+00 0.15089709E+04</pdfrwt>
<totfact> 0.14017620E+01</totfact>
</mgrwt>
</event>
<event>
12    3  0.4634846E-008  0.2387920E+04  0.7818608E-02  0.8444040E-01
         -1   -1    0    0    0  501 -0.00000000000E+00  0.00000000000E+00  0.11337894847E+04  0.11337894847E+04  0.00000000000E+00 0.  1.
          1   -1    0    0  501    0  0.00000000000E+00 -0.00000000000E+00 -0.12573232967E+04  0.12573232967E+04  0.00000000000E+00 0. -1.
         23    2    1    2    0    0  0.32988931980E+03 -0.95181162372E+03 -0.18633725579E+03  0.10285798026E+04  0.92100526956E+02 0.  0.
        254    2    1    2    0    0 -0.32988931980E+03  0.95181162372E+03  0.62803443740E+02  0.13625329788E+04  0.91530296370E+03 0.  0.
         23    2    4    4    0    0  0.21021109386E+03  0.39202886620E+03 -0.24996586939E+03  0.51943874082E+03  0.97253964910E+02 0.  0.
         23    2    4    4    0    0 -0.54010041366E+03  0.55978275752E+03  0.31276931313E+03  0.84309423796E+03  0.88983472611E+02 0.  0.
          4    1    3    3  502    0  0.24352716983E+03 -0.73217320002E+03 -0.18078909613E+03  0.79250727098E+03  0.00000000000E+00 0. -1.
         -4    1    3    3    0  502  0.86362149969E+02 -0.21963842370E+03 -0.55481596527E+01  0.23607253163E+03  0.00000000000E+00 0.  1.
         13    1    5    5    0    0 -0.46282414998E+01  0.29661207863E+01  0.46785446777E+01  0.72185367078E+01  0.00000000000E+00 0.  1.
        -13    1    5    5    0    0  0.21483933536E+03  0.38906274541E+03 -0.25464441406E+03  0.51222020411E+03  0.00000000000E+00 0. -1.
          4    1    6    6  503    0 -0.22190375858E+03  0.17626691194E+03  0.13603904222E+03  0.31435318246E+03  0.00000000000E+00 0. -1.
         -4    1    6    6    0  503 -0.31819665509E+03  0.38351584558E+03  0.17673027091E+03  0.52874105550E+03  0.00000000000E+00 0.  1.
<mgrwt>
<rscale>  0 0.23879195E+04</rscale>
<asrwt>0</asrwt>
<pdfrwt beam="1">  1        1 0.19343435E+00 0.23879195E+04</pdfrwt>
<pdfrwt beam="2">  1       -1 0.17442915E+00 0.23879195E+04</pdfrwt>
<totfact> 0.19888176E+00</totfact>
</mgrwt>
</event>
<event>
12    3  0.4634846E-008  0.1504007E+04  0.7818608E-02  0.8881793E-01
         -2   -1    0    0    0  501 -0.00000000000E+00  0.00000000000E+00  0.32148767106E+03  0.32148767106E+03  0.00000000000E+00 0.  1.
          2   -1    0    0  501    0  0.00000000000E+00 -0.00000000000E+00 -0.17590391355E+04  0.17590391355E+04  0.00000000000E+00 0. -1.
         23    2    1    2    0    0 -0.34134708453E+03  0.29119672337E+03 -0.71103830490E+03  0.84561681863E+03  0.90437653061E+02 0.  0.
        254    2    1    2    0    0  0.34134708453E+03 -0.29119672337E+03 -0.72651315959E+03  0.12349099880E+04  0.89211431079E+03 0.  0.
         23    2    4    4    0    0  0.33717728555E+03  0.22048758216E+03 -0.54693942820E+03  0.68524137016E+03  0.90053880985E+02 0.  0.
         23    2    4    4    0    0  0.41697989806E+01 -0.51168430554E+03 -0.17957373139E+03  0.54966861781E+03  0.89725406921E+02 0.  0.
          3    1    3    3  502    0 -0.34114881431E+03  0.26796427447E+03 -0.68403146095E+03  0.80999160827E+03  0.00000000000E+00 0. -1.
         -3    1    3    3    0  502 -0.19827022601E+00  0.23232448904E+02 -0.27006843951E+02  0.35625210362E+02  0.00000000000E+00 0.  1.
         13    1    5    5    0    0  0.29854267960E+03  0.19265697447E+03 -0.42273068849E+03  0.55221886635E+03  0.00000000000E+00 0.  1.
        -13    1    5    5    0    0  0.38634605951E+02  0.27830607689E+02 -0.12420873970E+03  0.13302250381E+03  0.00000000000E+00 0. -1.
          1    1    6    6  503    0  0.38445706931E+02 -0.11355001376E+03 -0.39444273638E+02  0.12620431343E+03  0.00000000000E+00 0. -1.
         -1    1    6    6    0  503 -0.34275907950E+02 -0.39813429177E+03 -0.14012945775E+03  0.42346430438E+03  0.00000000000E+00 0.  1.
<mgrwt>
<rscale>  0 0.15040072E+04</rscale>
<asrwt>0</asrwt>
<pdfrwt beam="1">  1        2 0.27062140E+00 0.15040072E+04</pdfrwt>
<pdfrwt beam="2">  1       -2 0.49459642E-01 0.15040072E+04</pdfrwt>
<totfact> 0.33979119E+01</totfact>
</mgrwt>
</event>
<event>
12    3  0.4634846E-008  0.2463162E+04  0.7818608E-02  0.8416228E-01
         -2   -1    0    0    0  501 -0.00000000000E+00  0.00000000000E+00  0.65600154239E+03  0.65600154239E+03  0.00000000000E+00 0. -1.
          2   -1    0    0  501    0  0.00000000000E+00 -0.00000000000E+00 -0.23121777860E+04  0.23121777860E+04  0.00000000000E+00 0.  1.
         23    2    1    2    0    0  0.97969329655E+03 -0.31209009673E+03 -0.87928274142E+03  0.13559903021E+04  0.91500689979E+02 0.  0.
        254    2    1    2    0    0 -0.97969329655E+03  0.31209009673E+03 -0.77689350221E+03  0.16121890263E+04  0.96870571327E+03 0.  0.
         23    2    4    4    0    0 -0.10723004983E+04  0.63495493029E+01 -0.54072803086E+03  0.12043041380E+04  0.89960980893E+02 0.  0.
         23    2    4    4    0    0  0.92607201758E+02  0.30574054743E+03 -0.23616547135E+03  0.40788488825E+03  0.92426057189E+02 0.  0.
          4    1    3    3  502    0  0.24123202903E+03 -0.87502290614E+02 -0.17067040331E+03  0.30818489460E+03  0.00000000000E+00 0.  1.
         -4    1    3    3    0  502  0.73846126753E+03 -0.22458780612E+03 -0.70861233811E+03  0.10478054075E+04  0.00000000000E+00 0. -1.
         13    1    5    5    0    0 -0.28182257385E+03  0.31104368023E+02 -0.17282115600E+03  0.33205209953E+03  0.00000000000E+00 0.  1.
        -13    1    5    5    0    0 -0.79047792446E+03 -0.24754818720E+02 -0.36790687486E+03  0.87225203851E+03  0.00000000000E+00 0. -1.
          3    1    6    6  503    0  0.60046580785E+01  0.12183671674E+03 -0.13106082258E+03  0.17904519173E+03  0.00000000000E+00 0. -1.
         -3    1    6    6    0  503  0.86602543679E+02  0.18390383069E+03 -0.10510464877E+03  0.22883969653E+03  0.00000000000E+00 0.  1.
<mgrwt>
<rscale>  0 0.24631624E+04</rscale>
<asrwt>0</asrwt>
<pdfrwt beam="1">  1        2 0.35571966E+00 0.24631624E+04</pdfrwt>
<pdfrwt beam="2">  1       -2 0.10092331E+00 0.24631624E+04</pdfrwt>
<totfact> 0.32252915E+00</totfact>
</mgrwt>
</event>
<event>
12    3  0.4634846E-008  0.3224593E+04  0.7818608E-02  0.8182352E-01
         -2   -1    0    0    0  501 -0.00000000000E+00  0.00000000000E+00  0.12903846948E+04  0.12903846948E+04  0.00000000000E+00 0. -1.
          2   -1    0    0  501    0  0.00000000000E+00 -0.00000000000E+00 -0.20145150715E+04  0.20145150715E+04  0.00000000000E+00 0.  1.
         23    2    1    2    0    0  0.64108502175E+01 -0.53420856421E+03  0.10867638073E+04  0.12145626557E+04  0.93203984675E+02 0.  0.
        254    2    1    2    0    0 -0.64108502175E+01  0.53420856421E+03 -0.18108941840E+04  0.20903371106E+04  0.89707948434E+03 0.  0.
         23    2    4    4    0    0  0.33834341631E+03  0.37377100598E+03 -0.47594008860E+03  0.69914940225E+03  0.90054907923E+02 0.  0.
         23    2    4    4    0    0 -0.34475426653E+03  0.16043755823E+03 -0.13349540954E+04  0.13911877084E+04  0.93301064689E+02 0.  0.
          4    1    3    3  502    0 -0.38051006800E+00 -0.52780623417E+03  0.10824622164E+04  0.12042856869E+04  0.00000000000E+00 0. -1.
         -4    1    3    3    0  502  0.67913602855E+01 -0.64023300423E+01  0.43015908379E+01  0.10276968825E+02  0.00000000000E+00 0.  1.
         13    1    5    5    0    0  0.30802786120E+03  0.29076603663E+03 -0.40084564281E+03  0.58318374522E+03  0.00000000000E+00 0. -1.
        -13    1    5    5    0    0  0.30315555112E+02  0.83004969350E+02 -0.75094445798E+02  0.11596565702E+03  0.00000000000E+00 0.  1.
          1    1    6    6  503    0 -0.29194489394E+03  0.94161577539E+02 -0.10377915677E+04  0.10821781562E+04  0.00000000000E+00 0.  1.
         -1    1    6    6    0  503 -0.52809372590E+02  0.66275980689E+02 -0.29716252771E+03  0.30900955216E+03  0.00000000000E+00 0. -1.
<mgrwt>
<rscale>  0 0.32245926E+04</rscale>
<asrwt>0</asrwt>
<pdfrwt beam="1">  1        2 0.30992540E+00 0.32245926E+04</pdfrwt>
<pdfrwt beam="2">  1       -2 0.19852072E+00 0.32245926E+04</pdfrwt>
<totfact> 0.74965250E-01</totfact>
</mgrwt>
</event>
<event>
12    3  0.4634846E-008  0.1349434E+04  0.7818608E-02  0.8991256E-01
         -1   -1    0    0    0  501 -0.00000000000E+00  0.00000000000E+00  0.63940584346E+03  0.63940584346E+03  0.00000000000E+00 0.  1.
          1   -1    0    0  501    0  0.00000000000E+00 -0.00000000000E+00 -0.71197870436E+03  0.71197870436E+03  0.00000000000E+00 0. -1.
         23    2    1    2    0    0  0.21725009013E+03  0.23095256359E+03 -0.20942461546E+03  0.39111488065E+03  0.92603952485E+02 0.  0.
        254    2    1    2    0    0 -0.21725009013E+03 -0.23095256359E+03  0.13685175457E+03  0.96026966717E+03  0.89602050348E+03 0.  0.
         23    2    4    4    0    0 -0.36641640227E+03  0.23555111555E+03  0.12510221017E+03  0.46188178713E+03  0.89100585873E+02 0.  0.
         23    2    4    4    0    0  0.14916631214E+03 -0.46650367915E+03  0.11749544397E+02  0.49838788004E+03  0.91521340898E+02 0.  0.
          3    1    3    3  502    0  0.22398525993E+03  0.21146851120E+03 -0.18569791492E+03  0.35968325441E+03  0.00000000000E+00 0. -1.
         -3    1    3    3    0  502 -0.67351698007E+01  0.19484052394E+02 -0.23726700542E+02  0.31431626247E+02  0.00000000000E+00 0.  1.
         13    1    5    5    0    0 -0.23019260781E+03  0.98293214363E+02  0.85384648331E+02  0.26446309923E+03  0.00000000000E+00 0. -1.
        -13    1    5    5    0    0 -0.13622379445E+03  0.13725790119E+03  0.39717561842E+02  0.19741868790E+03  0.00000000000E+00 0.  1.
          1    1    6    6  503    0  0.80676673222E+02 -0.11832363166E+03  0.95550404173E+01  0.14352876440E+03  0.00000000000E+00 0. -1.
         -1    1    6    6    0  503  0.68489638915E+02 -0.34818004748E+03  0.21945039797E+01  0.35485911564E+03  0.00000000000E+00 0.  1.
<mgrwt>
<rscale>  0 0.13494345E+04</rscale>
<asrwt>0</asrwt>
<pdfrwt beam="1">  1        1 0.10953519E+00 0.13494345E+04</pdfrwt>
<pdfrwt beam="2">  1       -1 0.98370129E-01 0.13494345E+04</pdfrwt>
<totfact> 0.25726514E+01</totfact>
</mgrwt>
</event>
<event>
12    3  0.4634846E-008  0.2171532E+04  0.7818608E-02  0.8530371E-01
         -2   -1    0    0    0  501 -0.00000000000E+00  0.00000000000E+00  0.52447785560E+03  0.52447785560E+03  0.00000000000E+00 0.  1.
          2   -1    0    0  501    0  0.00000000000E+00 -0.00000000000E+00 -0.22477368619E+04  0.22477368619E+04  0.00000000000E+00 0. -1.
         23    2    1    2    0    0  0.31552811807E+03 -0.24482298986E+03  0.30798581726E+03  0.51201051881E+03  0.88335825591E+02 0.  0.
        254    2    1    2    0    0 -0.31552811807E+03  0.24482298986E+03 -0.20312448236E+04  0.22602041987E+04  0.90723271372E+03 0.  0.
         23    2    4    4    0    0  0.26184275524E+03  0.13401806841E+03 -0.11944978644E+04  0.12334306718E+04  0.89462858554E+02 0.  0.
         23    2    4    4    0    0 -0.57737087331E+03  0.11080492145E+03 -0.83674695915E+03  0.10267735268E+04  0.92106165859E+02 0.  0.
          1    1    3    3  502    0  0.27213548949E+02  0.19770644959E+01  0.35630416781E+02  0.44877752065E+02  0.00000000000E+00 0. -1.
         -1    1    3    3    0  502  0.28831456912E+03 -0.24680005436E+03  0.27235540048E+03  0.46713276675E+03  0.00000000000E+00 0.  1.
         13    1    5    5    0    0  0.16281609676E+03  0.33526756324E+02 -0.66425668316E+03  0.68474087498E+03  0.00000000000E+00 0.  1.
        -13    1    5    5    0    0  0.99026658479E+02  0.10049131209E+03 -0.53024118124E+03  0.54868979686E+03  0.00000000000E+00 0. -1.
          2    1    6    6  503    0 -0.14792884370E+03  0.87232115146E+01 -0.27463433439E+03  0.31206258161E+03  0.00000000000E+00 0. -1.
         -2    1    6    6    0  503 -0.42944202961E+03  0.10208170993E+03 -0.56211262477E+03  0.71471094522E+03  0.00000000000E+00 0.  1.
<mgrwt>
<rscale>  0 0.21715324E+04</rscale>
<asrwt>0</asrwt>
<pdfrwt beam="1">  1        2 0.34580567E+00 0.21715324E+04</pdfrwt>
<pdfrwt beam="2">  1       -2 0.80688900E-01 0.21715324E+04</pdfrwt>
<totfact> 0.60283776E+00</totfact>
</mgrwt>
</event>
<event>
12    3  0.4634846E-008  0.2093019E+04  0.7818608E-02  0.8564325E-01
          2   -1    0    0  501    0  0.00000000000E+00  0.00000000000E+00  0.18115352929E+04  0.18115352929E+04  0.00000000000E+00 0.  1.
         -2   -1    0    0    0  501 -0.00000000000E+00 -0.00000000000E+00 -0.60456022472E+03  0.60456022472E+03  0.00000000000E+00 0. -1.
         23    2    1    2    0    0 -0.67452383570E+03 -0.13457131708E+03 -0.83660959590E+02  0.69895919479E+03  0.91939956076E+02 0.  0.
        254    2    1    2    0    0  0.67452383570E+03  0.13457131708E+03  0.12906360278E+04  0.17171363229E+04  0.89984662623E+03 0.  0.
         23    2    4    4    0    0  0.10238380673E+03 -0.34200238817E+03  0.55135161940E+03  0.66306043909E+03  0.90622625665E+02 0.  0.
         23    2    4    4    0    0  0.57214002897E+03  0.47657370525E+03  0.73928440842E+03  0.10540758838E+04  0.10033854177E+03 0.  0.
          4    1    3    3  502    0 -0.11769192913E+03 -0.14363084888E+02 -0.48859368320E+02  0.12823777237E+03  0.00000000000E+00 0.  1.
         -4    1    3    3    0  502 -0.55683190657E+03 -0.12020823220E+03 -0.34801591269E+02  0.57072142243E+03  0.00000000000E+00 0. -1.
         13    1    5    5    0    0  0.67254260967E+02 -0.10879799469E+03  0.14607256172E+03  0.19415800925E+03  0.00000000000E+00 0. -1.
        -13    1    5    5    0    0  0.35129545760E+02 -0.23320439348E+03  0.40527905768E+03  0.46890242984E+03  0.00000000000E+00 0.  1.
          2    1    6    6  503    0  0.66657592876E+02  0.90107084264E+02  0.14636127813E+03  0.18434789138E+03  0.00000000000E+00 0. -1.
         -2    1    6    6    0  503  0.50548243609E+03  0.38646662099E+03  0.59292313029E+03  0.86972799240E+03  0.00000000000E+00 0.  1.
<mgrwt>
<rscale>  0 0.20930190E+04</rscale>
<asrwt>0</asrwt>
<pdfrwt beam="1">  1        2 0.27869774E+00 0.20930190E+04</pdfrwt>
<pdfrwt beam="2">  1       -2 0.93009266E-01 0.20930190E+04</pdfrwt>
<totfact> 0.76768015E+00</totfact>
</mgrwt>
</event>
<event>
12    3  0.4634846E-008  0.3339586E+04  0.7818608E-02  0.8152895E-01
          3   -1    0    0  501    0  0.00000000000E+00  0.00000000000E+00  0.27805581468E+04  0.27805581468E+04  0.00000000000E+00 0. -1.
         -3   -1    0    0    0  501 -0.00000000000E+00 -0.00000000000E+00 -0.10027514107E+04  0.10027514107E+04  0.00000000000E+00 0.  1.
         23    2    1    2    0    0  0.13897727756E+04 -0.56204807297E+03  0.12651396294E+04  0.19637105919E+04  0.90634445848E+02 0.  0.
        254    2    1    2    0    0 -0.13897727756E+04  0.56204807297E+03  0.51266710666E+03  0.18195989656E+04  0.89484436031E+03 0.  0.
         23    2    4    4    0    0 -0.13149714418E+04  0.32505389473E+03  0.14291375974E+03  0.13652804322E+04  0.93575575933E+02 0.  0.
         23    2    4    4    0    0 -0.74801333794E+02  0.23699417825E+03  0.36975334691E+03  0.45431853344E+03  0.89029838889E+02 0.  0.
          1    1    3    3  502    0  0.79540779176E+03 -0.34716151136E+03  0.78147635292E+03  0.11678612762E+04  0.00000000000E+00 0. -1.
         -1    1    3    3    0  502  0.59436498388E+03 -0.21488656162E+03  0.48366327649E+03  0.79584931579E+03  0.00000000000E+00 0.  1.
         13    1    5    5    0    0 -0.43694188707E+03  0.10878454918E+03  0.91953108402E+02  0.45957335101E+03  0.00000000000E+00 0.  1.
        -13    1    5    5    0    0 -0.87802955478E+03  0.21626934555E+03  0.50960651338E+02  0.90570708116E+03  0.00000000000E+00 0. -1.
          4    1    6    6  503    0  0.10546596819E+02 -0.70511067552E+00  0.86466281723E+01  0.13656209733E+02  0.00000000000E+00 0.  1.
         -4    1    6    6    0  503 -0.85347930613E+02  0.23769928892E+03  0.36110671874E+03  0.44066232371E+03  0.00000000000E+00 0. -1.
<mgrwt>
<rscale>  0 0.33395860E+04</rscale>
<asrwt>0</asrwt>
<pdfrwt beam="1">  1        3 0.42777817E+00 0.33395860E+04</pdfrwt>
<pdfrwt beam="2">  1       -3 0.15426945E+00 0.33395860E+04</pdfrwt>
<totfact> 0.51375625E-03</totfact>
</mgrwt>
</event>
<event>
12    3  0.4634846E-008  0.1719495E+04  0.7818608E-02  0.8750323E-01
         -2   -1    0    0    0  501 -0.00000000000E+00  0.00000000000E+00  0.73404623278E+03  0.73404623278E+03  0.00000000000E+00 0.  1.
          2   -1    0    0  501    0  0.00000000000E+00 -0.00000000000E+00 -0.10069741751E+04  0.10069741751E+04  0.00000000000E+00 0. -1.
         23    2    1    2    0    0  0.39615781691E+03 -0.34707573954E+03  0.24289410469E+03  0.58721222152E+03  0.91749998029E+02 0.  0.
        254    2    1    2    0    0 -0.39615781691E+03  0.34707573954E+03 -0.51582204704E+03  0.11538081864E+04  0.88758005944E+03 0.  0.
         23    2    4    4    0    0  0.20481508217E+03  0.32829726575E+03 -0.77418516045E+02  0.40372041425E+03  0.85253936425E+02 0.  0.
         23    2    4    4    0    0 -0.60097289908E+03  0.18778473790E+02 -0.43840353100E+03  0.75008777215E+03  0.94408439387E+02 0.  0.
          2    1    3    3  502    0  0.32291995471E+03 -0.25758399014E+03  0.22444851621E+03  0.47011056737E+03  0.00000000000E+00 0.  1.
         -2    1    3    3    0  502  0.73237862200E+02 -0.89491749401E+02  0.18445588474E+02  0.11710165415E+03  0.00000000000E+00 0. -1.
         13    1    5    5    0    0  0.70055572225E+02  0.17431602160E+03 -0.64728273467E+02  0.19870482624E+03  0.00000000000E+00 0.  1.
        -13    1    5    5    0    0  0.13475950995E+03  0.15398124415E+03 -0.12690242578E+02  0.20501558801E+03  0.00000000000E+00 0. -1.
          1    1    6    6  503    0 -0.19564151390E+03  0.45606489020E+02 -0.12043691191E+03  0.23422340522E+03  0.00000000000E+00 0. -1.
         -1    1    6    6    0  503 -0.40533138519E+03 -0.26828015230E+02 -0.31796661909E+03  0.51586436693E+03  0.00000000000E+00 0.  1.
<mgrwt>
<rscale>  0 0.17194948E+04</rscale>
<asrwt>0</asrwt>
<pdfrwt beam="1">  1        2 0.15491910E+00 0.17194948E+04</pdfrwt>
<pdfrwt beam="2">  1       -2 0.11293019E+00 0.17194948E+04</pdfrwt>
<totfact> 0.14600777E+01</totfact>
</mgrwt>
</event>
<event>
12    3  0.4634846E-008  0.1663180E+04  0.7818608E-02  0.8782647E-01
         -1   -1    0    0    0  501 -0.00000000000E+00  0.00000000000E+00  0.82878865504E+03  0.82878865504E+03  0.00000000000E+00 0.  1.
          1   -1    0    0  501    0  0.00000000000E+00 -0.00000000000E+00 -0.83440070431E+03  0.83440070431E+03  0.00000000000E+00 0. -1.
         23    2    1    2    0    0 -0.25269906442E+03  0.15224998332E+02  0.52192940264E+03  0.58757164282E+03  0.93496076789E+02 0.  0.
        254    2    1    2    0    0  0.25269906442E+03 -0.15224998332E+02 -0.52754145191E+03  0.10756177165E+04  0.90253247637E+03 0.  0.
         23    2    4    4    0    0 -0.18163594905E+03 -0.23155357805E+02 -0.59144670337E+03  0.62584071678E+03  0.91321472145E+02 0.  0.
         23    2    4    4    0    0  0.43433501347E+03  0.79303594724E+01  0.63905251458E+02  0.44977699975E+03  0.97497045150E+02 0.  0.
          2    1    3    3  502    0 -0.81788676103E+02  0.16553897622E+02  0.88386319361E+02  0.12155476344E+03  0.00000000000E+00 0. -1.
         -2    1    3    3    0  502 -0.17091038832E+03 -0.13288992897E+01  0.43354308328E+03  0.46601687938E+03  0.00000000000E+00 0.  1.
         13    1    5    5    0    0 -0.57218988965E+02 -0.14086226684E+02 -0.34090446322E+03  0.34595995075E+03  0.00000000000E+00 0.  1.
        -13    1    5    5    0    0 -0.12441696008E+03 -0.90691311206E+01 -0.25054224015E+03  0.27988076603E+03  0.00000000000E+00 0. -1.
          4    1    6    6  503    0  0.35988123630E+03  0.10883963089E+02  0.89479427919E+02  0.37099802279E+03  0.00000000000E+00 0. -1.
         -4    1    6    6    0  503  0.74453777169E+02 -0.29536036169E+01 -0.25574176461E+02  0.78778976959E+02  0.00000000000E+00 0.  1.
<mgrwt>
<rscale>  0 0.16631799E+04</rscale>
<asrwt>0</asrwt>
<pdfrwt beam="1">  1        1 0.12836934E+00 0.16631799E+04</pdfrwt>
<pdfrwt beam="2">  1       -1 0.12750595E+00 0.16631799E+04</pdfrwt>
<totfact> 0.10497873E+01</totfact>
</mgrwt>
</event>
<event>
12    3  0.4634846E-008  0.1523716E+04  0.7818608E-02  0.8868834E-01
         -1   -1    0    0    0  501 -0.00000000000E+00  0.00000000000E+00  0.23764886641E+03  0.23764886641E+03  0.00000000000E+00 0.  1.
          1   -1    0    0  501    0  0.00000000000E+00 -0.00000000000E+00 -0.24423734741E+04  0.24423734741E+04  0.00000000000E+00 0. -1.
         23    2    1    2    0    0  0.47149388709E+03  0.12278306853E+03 -0.61637642923E+03  0.79094449565E+03  0.91055616044E+02 0.  0.
        254    2    1    2    0    0 -0.47149388709E+03 -0.12278306853E+03 -0.15883481784E+04  0.18890778448E+04  0.89910121813E+03 0.  0.
         23    2    4    4    0    0 -0.49313226587E+02  0.18320468675E+03  0.52588808669E+01  0.21028934038E+03  0.90543908057E+02 0.  0.
         23    2    4    4    0    0 -0.42218066050E+03 -0.30598775528E+03 -0.15936070593E+04  0.16787885044E+04  0.82960031171E+02 0.  0.
          3    1    3    3  502    0  0.79168540229E+02  0.61505797896E+01 -0.15521047750E+03  0.17434385484E+03  0.00000000000E+00 0. -1.
         -3    1    3    3    0  502  0.39232534686E+03  0.11663248874E+03 -0.46116595173E+03  0.61660064081E+03  0.00000000000E+00 0.  1.
         13    1    5    5    0    0  0.10602814180E+02  0.37699511096E+02 -0.29631726588E+02  0.49109184742E+02  0.00000000000E+00 0. -1.
        -13    1    5    5    0    0 -0.59916040767E+02  0.14550517565E+03  0.34890607455E+02  0.16118015564E+03  0.00000000000E+00 0.  1.
          3    1    6    6  503    0 -0.18618914671E+02 -0.12559989538E+02 -0.29842172113E+02  0.37349331415E+02  0.00000000000E+00 0. -1.
         -3    1    6    6    0  503 -0.40356174583E+03 -0.29342776574E+03 -0.15637648872E+04  0.16414391730E+04  0.00000000000E+00 0.  1.
<mgrwt>
<rscale>  0 0.15237156E+04</rscale>
<asrwt>0</asrwt>
<pdfrwt beam="1">  1        1 0.37574978E+00 0.15237156E+04</pdfrwt>
<pdfrwt beam="2">  1       -1 0.36561363E-01 0.15237156E+04</pdfrwt>
<totfact> 0.10308365E+01</totfact>
</mgrwt>
</event>
<event>
12    3  0.4634846E-008  0.1593703E+04  0.7818608E-02  0.8824426E-01
         -2   -1    0    0    0  501 -0.00000000000E+00  0.00000000000E+00  0.11050735617E+04  0.11050735617E+04  0.00000000000E+00 0.  1.
          2   -1    0    0  501    0  0.00000000000E+00 -0.00000000000E+00 -0.57459730887E+03  0.57459730887E+03  0.00000000000E+00 0. -1.
         23    2    1    2    0    0 -0.11070116110E+03 -0.52030149113E+03  0.21169792456E+03  0.57578727640E+03  0.61209375553E+02 0.  0.
        254    2    1    2    0    0  0.11070116110E+03  0.52030149113E+03  0.31877832822E+03  0.11038835941E+04  0.91322011481E+03 0.  0.
         23    2    4    4    0    0  0.12857329731E+03  0.14631630352E+03 -0.30277810204E+03  0.37254488335E+03  0.95789130800E+02 0.  0.
         23    2    4    4    0    0 -0.17872136208E+02  0.37398518761E+03  0.62155643026E+03  0.73133871077E+03  0.91321301346E+02 0.  0.
          3    1    3    3  502    0 -0.47100059211E+02 -0.24286563096E+03  0.66058370818E+02  0.25605827195E+03  0.00000000000E+00 0. -1.
         -3    1    3    3    0  502 -0.63601101893E+02 -0.27743586017E+03  0.14563955374E+03  0.31972900445E+03  0.00000000000E+00 0.  1.
         13    1    5    5    0    0  0.14019051224E+03  0.14820333306E+03 -0.27526348949E+03  0.34261873314E+03  0.00000000000E+00 0.  1.
        -13    1    5    5    0    0 -0.11617214923E+02 -0.18870295334E+01 -0.27514612548E+02  0.29926150215E+02  0.00000000000E+00 0. -1.
          4    1    6    6  503    0 -0.19380750760E+02  0.15697008427E+02  0.24081824310E+02  0.34669061650E+02  0.00000000000E+00 0. -1.
         -4    1    6    6    0  503  0.15086145523E+01  0.35828817918E+03  0.59747460595E+03  0.69666964912E+03  0.00000000000E+00 0.  1.
<mgrwt>
<rscale>  0 0.15937030E+04</rscale>
<asrwt>0</asrwt>
<pdfrwt beam="1">  1        2 0.88399586E-01 0.15937030E+04</pdfrwt>
<pdfrwt beam="2">  1       -2 0.17001132E+00 0.15937030E+04</pdfrwt>
<totfact> 0.10672314E+01</totfact>
</mgrwt>
</event>
<event>
12    3  0.4634846E-008  0.1358696E+04  0.7818608E-02  0.8984271E-01
          2   -1    0    0  501    0  0.00000000000E+00  0.00000000000E+00  0.20569498560E+04  0.20569498560E+04  0.00000000000E+00 0. -1.
         -2   -1    0    0    0  501 -0.00000000000E+00 -0.00000000000E+00 -0.22436799696E+03  0.22436799696E+03  0.00000000000E+00 0.  1.
         23    2    1    2    0    0  0.59506584578E+02 -0.23090801120E+03  0.36380842153E+02  0.25837606198E+03  0.92601730444E+02 0.  0.
        254    2    1    2    0    0 -0.59506584578E+02  0.23090801120E+03  0.17962010169E+04  0.20229417910E+04  0.89949755609E+03 0.  0.
         23    2    4    4    0    0 -0.14439142528E+02 -0.64523419954E+02 -0.68313251767E+02  0.13244947321E+03  0.92219314825E+02 0.  0.
         23    2    4    4    0    0 -0.45067442050E+02  0.29543143116E+03  0.18645142686E+04  0.18904923177E+04  0.90757593193E+02 0.  0.
          3    1    3    3  502    0  0.12591632672E+02 -0.70132988086E+01  0.25583595112E+02  0.29364194394E+02  0.00000000000E+00 0. -1.
         -3    1    3    3    0  502  0.46914951906E+02 -0.22389471239E+03  0.10797247041E+02  0.22901186758E+03  0.00000000000E+00 0.  1.
         13    1    5    5    0    0  0.36374661155E+02 -0.36598605850E+02 -0.15133919119E+02  0.53773687173E+02  0.00000000000E+00 0. -1.
        -13    1    5    5    0    0 -0.50813803683E+02 -0.27924814104E+02 -0.53179332648E+02  0.78675786036E+02  0.00000000000E+00 0.  1.
          3    1    6    6  503    0 -0.35563562360E+01  0.31399403170E+02  0.79018769029E+02  0.85103090708E+02  0.00000000000E+00 0. -1.
         -3    1    6    6    0  503 -0.41511085814E+02  0.26403202799E+03  0.17854954996E+04  0.18053892270E+04  0.00000000000E+00 0.  1.
<mgrwt>
<rscale>  0 0.13586960E+04</rscale>
<asrwt>0</asrwt>
<pdfrwt beam="1">  1        2 0.31645381E+00 0.13586960E+04</pdfrwt>
<pdfrwt beam="2">  1       -2 0.34518155E-01 0.13586960E+04</pdfrwt>
<totfact> 0.47738206E+01</totfact>
</mgrwt>
</event>
<event>
12    3  0.4634846E-008  0.1760602E+04  0.7818608E-02  0.8727536E-01
         -1   -1    0    0    0  501 -0.00000000000E+00  0.00000000000E+00  0.73170144244E+03  0.73170144244E+03  0.00000000000E+00 0.  1.
          1   -1    0    0  501    0  0.00000000000E+00 -0.00000000000E+00 -0.10590793778E+04  0.10590793778E+04  0.00000000000E+00 0. -1.
         23    2    1    2    0    0 -0.40440378881E+03  0.34432741477E+03 -0.50167617911E+03  0.73661088446E+03  0.93876586341E+02 0.  0.
        254    2    1    2    0    0  0.40440378881E+03 -0.34432741477E+03  0.17429824370E+03  0.10541699358E+04  0.89375085055E+03 0.  0.
         23    2    4    4    0    0 -0.62056239965E+02  0.21932995021E+03 -0.10260430380E+03  0.26666237295E+03  0.92868584640E+02 0.  0.
         23    2    4    4    0    0  0.46646002878E+03 -0.56365736497E+03  0.27690254750E+03  0.78750756287E+03  0.90545884631E+02 0.  0.
          3    1    3    3  502    0 -0.20317513541E+03  0.13660729993E+03 -0.17892905507E+03  0.30324461544E+03  0.00000000000E+00 0. -1.
         -3    1    3    3    0  502 -0.20122865340E+03  0.20772011483E+03 -0.32274712404E+03  0.43336626903E+03  0.00000000000E+00 0.  1.
         13    1    5    5    0    0 -0.37874964361E+02  0.21679757980E+03 -0.10140480111E+03  0.24231928777E+03  0.00000000000E+00 0. -1.
        -13    1    5    5    0    0 -0.24181275604E+02  0.25323704027E+01 -0.11995026909E+01  0.24343085187E+02  0.00000000000E+00 0.  1.
          2    1    6    6  503    0  0.20900471359E+03 -0.21297573737E+03  0.15205485396E+03  0.33490642517E+03  0.00000000000E+00 0. -1.
         -2    1    6    6    0  503  0.25745531519E+03 -0.35068162761E+03  0.12484769354E+03  0.45260113770E+03  0.00000000000E+00 0.  1.
<mgrwt>
<rscale>  0 0.17606021E+04</rscale>
<asrwt>0</asrwt>
<pdfrwt beam="1">  1        1 0.16293529E+00 0.17606021E+04</pdfrwt>
<pdfrwt beam="2">  1       -1 0.11256945E+00 0.17606021E+04</pdfrwt>
<totfact> 0.93167654E+00</totfact>
</mgrwt>
</event>
<event>
12    3  0.4634846E-008  0.1922346E+04  0.7818608E-02  0.8643813E-01
          2   -1    0    0  501    0  0.00000000000E+00  0.00000000000E+00  0.92431582310E+03  0.92431582310E+03  0.00000000000E+00 0. -1.
         -2   -1    0    0    0  501 -0.00000000000E+00 -0.00000000000E+00 -0.99949973366E+03  0.99949973366E+03  0.00000000000E+00 0.  1.
         23    2    1    2    0    0 -0.66720972513E+03  0.31365149833E+03  0.97576446606E+02  0.74932491748E+03  0.91763769046E+02 0.  0.
        254    2    1    2    0    0  0.66720972513E+03 -0.31365149833E+03 -0.17276035716E+03  0.11744906393E+04  0.89779509970E+03 0.  0.
         23    2    4    4    0    0  0.17392716966E+03 -0.22691571564E+03 -0.48991877140E+03  0.57455907733E+03  0.91412955448E+02 0.  0.
         23    2    4    4    0    0  0.49328255547E+03 -0.86735782698E+02  0.31715841424E+03  0.59993156195E+03  0.92074121096E+02 0.  0.
          4    1    3    3  502    0 -0.37292574940E+03  0.12900148512E+03  0.70485590858E+02  0.40085311056E+03  0.00000000000E+00 0. -1.
         -4    1    3    3    0  502 -0.29428397572E+03  0.18465001321E+03  0.27090855748E+02  0.34847180691E+03  0.00000000000E+00 0.  1.
         13    1    5    5    0    0  0.16986537793E+03 -0.16365610354E+03 -0.40346350276E+03  0.46735464574E+03  0.00000000000E+00 0. -1.
        -13    1    5    5    0    0  0.40617917302E+01 -0.63259612099E+02 -0.86455268642E+02  0.10720443158E+03  0.00000000000E+00 0.  1.
          3    1    6    6  503    0  0.43875259535E+03 -0.53726980881E+02  0.29898125571E+03  0.53364802976E+03  0.00000000000E+00 0. -1.
         -3    1    6    6    0  503  0.54529960122E+02 -0.33008801816E+02  0.18177158530E+02  0.66283532197E+02  0.00000000000E+00 0.  1.
<mgrwt>
<rscale>  0 0.19223459E+04</rscale>
<asrwt>0</asrwt>
<pdfrwt beam="1">  1        2 0.14220243E+00 0.19223459E+04</pdfrwt>
<pdfrwt beam="2">  1       -2 0.15376919E+00 0.19223459E+04</pdfrwt>
<totfact> 0.74017959E+00</totfact>
</mgrwt>
</event>
<event>
12    3  0.4634846E-008  0.1914600E+04  0.7818608E-02  0.8647623E-01
          1   -1    0    0  501    0  0.00000000000E+00  0.00000000000E+00  0.11014011827E+04  0.11014011827E+04  0.00000000000E+00 0. -1.
         -1   -1    0    0    0  501 -0.00000000000E+00 -0.00000000000E+00 -0.83205254955E+03  0.83205254955E+03  0.00000000000E+00 0.  1.
         23    2    1    2    0    0 -0.39154466623E+03  0.19402741089E+03 -0.50076726840E+03  0.67076635471E+03  0.90585780789E+02 0.  0.
        254    2    1    2    0    0  0.39154466623E+03 -0.19402741089E+03  0.77011590153E+03  0.12626873775E+04  0.90019278476E+03 0.  0.
         23    2    4    4    0    0  0.55528534873E+03  0.16260867822E+03  0.35914276845E+03  0.68691161617E+03  0.89892377578E+02 0.  0.
         23    2    4    4    0    0 -0.16374068250E+03 -0.35663608911E+03  0.41097313308E+03  0.57577576136E+03  0.92835877167E+02 0.  0.
          1    1    3    3  502    0 -0.20448084836E+03  0.14496338697E+03 -0.24914717039E+03  0.35341351618E+03  0.00000000000E+00 0. -1.
         -1    1    3    3    0  502 -0.18706381787E+03  0.49064023921E+02 -0.25162009800E+03  0.31735283852E+03  0.00000000000E+00 0.  1.
         13    1    5    5    0    0  0.58368439675E+02  0.14922809762E+02  0.73463928683E+02  0.95007967133E+02  0.00000000000E+00 0. -1.
        -13    1    5    5    0    0  0.49691690906E+03  0.14768586846E+03  0.28567883977E+03  0.59190364904E+03  0.00000000000E+00 0.  1.
          1    1    6    6  503    0 -0.25240528748E+02 -0.15989114517E+03  0.18304092862E+03  0.24434861191E+03  0.00000000000E+00 0. -1.
         -1    1    6    6    0  503 -0.13850015375E+03 -0.19674494394E+03  0.22793220446E+03  0.33142714944E+03  0.00000000000E+00 0.  1.
<mgrwt>
<rscale>  0 0.19146004E+04</rscale>
<asrwt>0</asrwt>
<pdfrwt beam="1">  1        1 0.16944634E+00 0.19146004E+04</pdfrwt>
<pdfrwt beam="2">  1       -1 0.12800809E+00 0.19146004E+04</pdfrwt>
<totfact> 0.62326879E+00</totfact>
</mgrwt>
</event>
<event>
12    3  0.4634846E-008  0.3534407E+04  0.7818608E-02  0.8105684E-01
          1   -1    0    0  501    0  0.00000000000E+00  0.00000000000E+00  0.22044672648E+04  0.22044672648E+04  0.00000000000E+00 0. -1.
         -1   -1    0    0    0  501 -0.00000000000E+00 -0.00000000000E+00 -0.14166726560E+04  0.14166726560E+04  0.00000000000E+00 0.  1.
         23    2    1    2    0    0  0.60729120455E+01 -0.64755521368E+03  0.19376063402E+04  0.20449815382E+04  0.90920442815E+02 0.  0.
        254    2    1    2    0    0 -0.60729120455E+01  0.64755521368E+03 -0.11498117314E+04  0.15761583826E+04  0.86188374749E+03 0.  0.
         23    2    4    4    0    0 -0.39099908751E+03  0.35991584388E+03 -0.36242625219E+03  0.64921613563E+03  0.87801488406E+02 0.  0.
         23    2    4    4    0    0  0.38492617546E+03  0.28763936980E+03 -0.78738547922E+03  0.92694224693E+03  0.91331640963E+02 0.  0.
          3    1    3    3  502    0 -0.26517272166E+02 -0.52564799856E+03  0.16137576564E+04  0.16974164951E+04  0.00000000000E+00 0. -1.
         -3    1    3    3    0  502  0.32590184212E+02 -0.12190721512E+03  0.32384868381E+03  0.34756504314E+03  0.00000000000E+00 0.  1.
         13    1    5    5    0    0 -0.22959642795E+03  0.25347864566E+03 -0.26537940896E+03  0.43288817751E+03  0.00000000000E+00 0. -1.
        -13    1    5    5    0    0 -0.16140265956E+03  0.10643719823E+03 -0.97046843233E+02  0.21632795811E+03  0.00000000000E+00 0.  1.
          3    1    6    6  503    0  0.12685582635E+03  0.72818801094E+02 -0.17094321901E+03  0.22498124944E+03  0.00000000000E+00 0. -1.
         -3    1    6    6    0  503  0.25807034911E+03  0.21482056870E+03 -0.61644226021E+03  0.70196099749E+03  0.00000000000E+00 0.  1.
<mgrwt>
<rscale>  0 0.35344072E+04</rscale>
<asrwt>0</asrwt>
<pdfrwt beam="1">  1        1 0.33914881E+00 0.35344072E+04</pdfrwt>
<pdfrwt beam="2">  1       -1 0.21794964E+00 0.35344072E+04</pdfrwt>
<totfact> 0.19991784E-01</totfact>
</mgrwt>
</event>
<event>
12    3  0.4634846E-008  0.1191962E+04  0.7818608E-02  0.9119921E-01
         -2   -1    0    0    0  501 -0.00000000000E+00  0.00000000000E+00  0.43225477457E+03  0.43225477457E+03  0.00000000000E+00 0.  1.
          2   -1    0    0  501    0  0.00000000000E+00 -0.00000000000E+00 -0.82172232751E+03  0.82172232751E+03  0.00000000000E+00 0. -1.
         23    2    1    2    0    0 -0.10627689182E+03  0.19909199284E+03  0.10919352415E+02  0.24474049318E+03  0.94054651127E+02 0.  0.
        254    2    1    2    0    0  0.10627689182E+03 -0.19909199284E+03 -0.40038690536E+03  0.10092366089E+04  0.89850790727E+03 0.  0.
         23    2    4    4    0    0  0.13786482352E+01 -0.58066081516E+02  0.28017407285E+03  0.30045673926E+03  0.91668809165E+02 0.  0.
         23    2    4    4    0    0  0.10489824359E+03 -0.14102591132E+03 -0.68056097820E+03  0.70877986965E+03  0.91179544810E+02 0.  0.
          3    1    3    3  502    0 -0.27120599105E+02  0.12574930839E+02 -0.24991036562E+02  0.38964184707E+02  0.00000000000E+00 0. -1.
         -3    1    3    3    0  502 -0.79156292715E+02  0.18651706200E+03  0.35910388977E+02  0.20577630848E+03  0.00000000000E+00 0.  1.
         13    1    5    5    0    0  0.17044068729E+02 -0.70277743496E+02  0.26700599396E+03  0.27662549109E+03  0.00000000000E+00 0.  1.
        -13    1    5    5    0    0 -0.15665420494E+02  0.12211661979E+02  0.13168078888E+02  0.23831248166E+02  0.00000000000E+00 0. -1.
          1    1    6    6  503    0  0.89429612334E+01  0.99056964603E+01 -0.11096201442E+03  0.11176165721E+03  0.00000000000E+00 0. -1.
         -1    1    6    6    0  503  0.95955282352E+02 -0.15093160779E+03 -0.56959896379E+03  0.59701821244E+03  0.00000000000E+00 0.  1.
<mgrwt>
<rscale>  0 0.11919621E+04</rscale>
<asrwt>0</asrwt>
<pdfrwt beam="1">  1        2 0.12641882E+00 0.11919621E+04</pdfrwt>
<pdfrwt beam="2">  1       -2 0.66500735E-01 0.11919621E+04</pdfrwt>
<totfact> 0.68208434E+01</totfact>
</mgrwt>
</event>
<event>
12    3  0.4634846E-008  0.1192956E+04  0.7818608E-02  0.9119045E-01
          2   -1    0    0  501    0  0.00000000000E+00  0.00000000000E+00  0.11308814438E+04  0.11308814438E+04  0.00000000000E+00 0. -1.
         -2   -1    0    0    0  501 -0.00000000000E+00 -0.00000000000E+00 -0.31460943162E+03  0.31460943162E+03  0.00000000000E+00 0.  1.
         23    2    1    2    0    0  0.17242713664E+01 -0.23723257036E+03  0.23933747505E+03  0.34915799395E+03  0.91359795460E+02 0.  0.
        254    2    1    2    0    0 -0.17242713664E+01  0.23723257036E+03  0.57693453714E+03  0.10963328815E+04  0.90155979353E+03 0.  0.
         23    2    4    4    0    0  0.21806055254E+03 -0.20991249876E+03  0.48870131118E+03  0.58206639758E+03  0.91425696221E+02 0.  0.
         23    2    4    4    0    0 -0.21978482391E+03  0.44714506911E+03  0.88233225959E+02  0.51426648390E+03  0.91874004167E+02 0.  0.
          1    1    3    3  502    0  0.13196588282E+02 -0.13485802567E+03  0.19393001819E+03  0.23657913895E+03  0.00000000000E+00 0. -1.
         -1    1    3    3    0  502 -0.11472316916E+02 -0.10237454469E+03  0.45407456858E+02  0.11257885500E+03  0.00000000000E+00 0.  1.
         13    1    5    5    0    0  0.89303309840E+02 -0.14423120853E+03  0.23102993241E+03  0.28662266541E+03  0.00000000000E+00 0.  1.
        -13    1    5    5    0    0  0.12875724270E+03 -0.65681290228E+02  0.25767137878E+03  0.29544373217E+03  0.00000000000E+00 0. -1.
          3    1    6    6  503    0  0.81411665956E+00  0.58120085244E+02 -0.14521145329E+01  0.58143922566E+02  0.00000000000E+00 0. -1.
         -3    1    6    6    0  503 -0.22059894057E+03  0.38902498387E+03  0.89685340492E+02  0.45612256133E+03  0.00000000000E+00 0.  1.
<mgrwt>
<rscale>  0 0.11929559E+04</rscale>
<asrwt>0</asrwt>
<pdfrwt beam="1">  1        2 0.17398176E+00 0.11929559E+04</pdfrwt>
<pdfrwt beam="2">  1       -2 0.48401452E-01 0.11929559E+04</pdfrwt>
<totfact> 0.83212181E+01</totfact>
</mgrwt>
</event>
<event>
12    3  0.4634846E-008  0.1342331E+04  0.7818608E-02  0.8996653E-01
         -1   -1    0    0    0  501 -0.00000000000E+00  0.00000000000E+00  0.18759003480E+03  0.18759003480E+03  0.00000000000E+00 0.  1.
          1   -1    0    0  501    0  0.00000000000E+00 -0.00000000000E+00 -0.24013186758E+04  0.24013186758E+04  0.00000000000E+00 0. -1.
         23    2    1    2    0    0  0.20864009730E+03  0.20149918978E+03 -0.10053703260E+04  0.10500426298E+04  0.87677924323E+02 0.  0.
        254    2    1    2    0    0 -0.20864009730E+03 -0.20149918978E+03 -0.12083583150E+04  0.15388660808E+04  0.90765983903E+03 0.  0.
         23    2    4    4    0    0  0.30135219446E+03 -0.22182459600E+03 -0.76784656506E+03  0.85882999069E+03  0.89338171764E+02 0.  0.
         23    2    4    4    0    0 -0.50999229176E+03  0.20325406217E+02 -0.44051174996E+03  0.68003609008E+03  0.88843807743E+02 0.  0.
          3    1    3    3  502    0  0.99778527340E+02  0.43668215155E+02 -0.42940735166E+03  0.44300489974E+03  0.00000000000E+00 0. -1.
         -3    1    3    3    0  502  0.10886156996E+03  0.15783097463E+03 -0.57596297434E+03  0.60703773011E+03  0.00000000000E+00 0.  1.
         13    1    5    5    0    0  0.23736850090E+03 -0.13208923574E+03 -0.59121062677E+03  0.65063152139E+03  0.00000000000E+00 0. -1.
        -13    1    5    5    0    0  0.63983693557E+02 -0.89735360265E+02 -0.17663593828E+03  0.20819846929E+03  0.00000000000E+00 0.  1.
          4    1    6    6  503    0 -0.31398835471E+03 -0.21091770835E+02 -0.30448775441E+03  0.43788850439E+03  0.00000000000E+00 0. -1.
         -4    1    6    6    0  503 -0.19600393704E+03  0.41417177052E+02 -0.13602399555E+03  0.24214758569E+03  0.00000000000E+00 0.  1.
<mgrwt>
<rscale>  0 0.13423315E+04</rscale>
<asrwt>0</asrwt>
<pdfrwt beam="1">  1        1 0.36943363E+00 0.13423315E+04</pdfrwt>
<pdfrwt beam="2">  1       -1 0.28860006E-01 0.13423315E+04</pdfrwt>
<totfact> 0.17015033E+01</totfact>
</mgrwt>
</event>
<event>
12    3  0.4634846E-008  0.2336045E+04  0.7818608E-02  0.8463843E-01
          2   -1    0    0  501    0  0.00000000000E+00  0.00000000000E+00  0.94871299640E+03  0.94871299640E+03  0.00000000000E+00 0. -1.
         -2   -1    0    0    0  501 -0.00000000000E+00 -0.00000000000E+00 -0.14380288228E+04  0.14380288228E+04  0.00000000000E+00 0.  1.
         23    2    1    2    0    0  0.18539114667E+03 -0.10307157906E+03 -0.12102215204E+04  0.12320110925E+04  0.90672905590E+02 0.  0.
        254    2    1    2    0    0 -0.18539114667E+03  0.10307157906E+03  0.72090569399E+03  0.11547307268E+04  0.87675789361E+03 0.  0.
         23    2    4    4    0    0  0.15074471237E+03 -0.13661978498E+03  0.69569272576E+03  0.73055270925E+03  0.91268605576E+02 0.  0.
         23    2    4    4    0    0 -0.33613585904E+03  0.23969136404E+03  0.25212968228E+02  0.42417801750E+03  0.94085232829E+02 0.  0.
          3    1    3    3  502    0  0.64221343340E+02 -0.85883893079E+02 -0.62447007209E+03  0.63361131222E+03  0.00000000000E+00 0. -1.
         -3    1    3    3    0  502  0.12116980333E+03 -0.17187685981E+02 -0.58575144831E+03  0.59839978024E+03  0.00000000000E+00 0.  1.
         13    1    5    5    0    0  0.11348899576E+02  0.56122632083E+01  0.89192988330E+01  0.15487056259E+02  0.00000000000E+00 0.  1.
        -13    1    5    5    0    0  0.13939581279E+03 -0.14223204819E+03  0.68677342693E+03  0.71506565300E+03  0.00000000000E+00 0. -1.
          2    1    6    6  503    0 -0.90772170416E+02  0.63965515812E+02 -0.34999087859E+02  0.11643071024E+03  0.00000000000E+00 0. -1.
         -2    1    6    6    0  503 -0.24536368862E+03  0.17572584823E+03  0.60212056088E+02  0.30774730726E+03  0.00000000000E+00 0.  1.
<mgrwt>
<rscale>  0 0.23360451E+04</rscale>
<asrwt>0</asrwt>
<pdfrwt beam="1">  1        2 0.14595585E+00 0.23360451E+04</pdfrwt>
<pdfrwt beam="2">  1       -2 0.22123520E+00 0.23360451E+04</pdfrwt>
<totfact> 0.23863963E+00</totfact>
</mgrwt>
</event>
<event>
12    3  0.4634846E-008  0.1290993E+04  0.7818608E-02  0.9036738E-01
          1   -1    0    0  501    0  0.00000000000E+00  0.00000000000E+00  0.59352181356E+03  0.59352181356E+03  0.00000000000E+00 0. -1.
         -1   -1    0    0    0  501 -0.00000000000E+00 -0.00000000000E+00 -0.70202262444E+03  0.70202262444E+03  0.00000000000E+00 0.  1.
         23    2    1    2    0    0 -0.26389979231E+03 -0.12775331762E+03  0.10791927017E+03  0.32733614755E+03  0.97664599908E+02 0.  0.
        254    2    1    2    0    0  0.26389979231E+03  0.12775331762E+03 -0.21642008105E+03  0.96820829045E+03  0.89700927067E+03 0.  0.
         23    2    4    4    0    0 -0.27666367933E+03 -0.14645097247E+03 -0.11138895141E+03  0.34631006885E+03  0.97634453427E+02 0.  0.
         23    2    4    4    0    0  0.54056347164E+03  0.27420429009E+03 -0.10503112964E+03  0.62189822160E+03  0.91263356603E+02 0.  0.
          3    1    3    3  502    0 -0.23147686246E+03 -0.72407931853E+02  0.10133474002E+03  0.26285580835E+03  0.00000000000E+00 0. -1.
         -3    1    3    3    0  502 -0.32422929853E+02 -0.55345385772E+02  0.65845301513E+01  0.64480339203E+02  0.00000000000E+00 0.  1.
         13    1    5    5    0    0 -0.27178932088E+03 -0.14163356707E+03 -0.12506361442E+03  0.33101421407E+03  0.00000000000E+00 0.  1.
        -13    1    5    5    0    0 -0.48743584474E+01 -0.48174053987E+01  0.13674663010E+02  0.15295854781E+02  0.00000000000E+00 0. -1.
          3    1    6    6  503    0  0.28681187430E+03  0.15516653253E+03 -0.10172691018E+03  0.34159342544E+03  0.00000000000E+00 0. -1.
         -3    1    6    6    0  503  0.25375159734E+03  0.11903775756E+03 -0.33042194651E+01  0.28030479615E+03  0.00000000000E+00 0.  1.
<mgrwt>
<rscale>  0 0.12909930E+04</rscale>
<asrwt>0</asrwt>
<pdfrwt beam="1">  1        1 0.91311048E-01 0.12909930E+04</pdfrwt>
<pdfrwt beam="2">  1       -1 0.10800348E+00 0.12909930E+04</pdfrwt>
<totfact> 0.27272031E+01</totfact>
</mgrwt>
</event>
<event>
12    3  0.4634846E-008  0.1659454E+04  0.7818608E-02  0.8784833E-01
         -2   -1    0    0    0  501 -0.00000000000E+00  0.00000000000E+00  0.34870473802E+03  0.34870473802E+03  0.00000000000E+00 0.  1.
          2   -1    0    0  501    0  0.00000000000E+00 -0.00000000000E+00 -0.19742970571E+04  0.19742970571E+04  0.00000000000E+00 0. -1.
         23    2    1    2    0    0  0.13992242244E+03  0.73083646039E+02 -0.13635052897E+04  0.13757276104E+04  0.92521777353E+02 0.  0.
        254    2    1    2    0    0 -0.13992242244E+03 -0.73083646039E+02 -0.26208702935E+03  0.94727418471E+03  0.89650391323E+03 0.  0.
         23    2    4    4    0    0 -0.12308002680E+03  0.21179065125E+03  0.24537345373E+03  0.35809826204E+03  0.89567072797E+02 0.  0.
         23    2    4    4    0    0 -0.16842395646E+02 -0.28487429729E+03 -0.50746048307E+03  0.58917592266E+03  0.90416228734E+02 0.  0.
          3    1    3    3  502    0  0.13758496860E+03  0.69687174417E+02 -0.96866921386E+03  0.98087000757E+03  0.00000000000E+00 0. -1.
         -3    1    3    3    0  502  0.23374538393E+01  0.33964716226E+01 -0.39483607584E+03  0.39485760281E+03  0.00000000000E+00 0.  1.
         13    1    5    5    0    0  0.26524954788E+01  0.67858840619E+02  0.46660478775E+02  0.82395741770E+02  0.00000000000E+00 0. -1.
        -13    1    5    5    0    0 -0.12573252227E+03  0.14393181064E+03  0.19871297495E+03  0.27570252027E+03  0.00000000000E+00 0.  1.
          1    1    6    6  503    0 -0.20320859976E+02 -0.35893991866E+02 -0.31089678479E+02  0.51651564450E+02  0.00000000000E+00 0. -1.
         -1    1    6    6    0  503  0.34784643298E+01 -0.24898030543E+03 -0.47637080459E+03  0.53752435821E+03  0.00000000000E+00 0.  1.
<mgrwt>
<rscale>  0 0.16594538E+04</rscale>
<asrwt>0</asrwt>
<pdfrwt beam="1">  1        2 0.30373802E+00 0.16594538E+04</pdfrwt>
<pdfrwt beam="2">  1       -2 0.53646881E-01 0.16594538E+04</pdfrwt>
<totfact> 0.21581790E+01</totfact>
</mgrwt>
</event>
<event>
12    3  0.4634846E-008  0.1265896E+04  0.7818608E-02  0.9057056E-01
          2   -1    0    0  501    0  0.00000000000E+00  0.00000000000E+00  0.57494999046E+03  0.57494999046E+03  0.00000000000E+00 0. -1.
         -2   -1    0    0    0  501 -0.00000000000E+00 -0.00000000000E+00 -0.69679674974E+03  0.69679674974E+03  0.00000000000E+00 0.  1.
         23    2    1    2    0    0  0.27266585649E+03  0.17322400385E+03  0.69842021020E+01  0.33564600315E+03  0.90863829678E+02 0.  0.
        254    2    1    2    0    0 -0.27266585649E+03 -0.17322400385E+03 -0.12883096139E+03  0.93610073705E+03  0.86909950436E+03 0.  0.
         23    2    4    4    0    0  0.28129113897E+03 -0.50366684801E+02 -0.19368421541E+03  0.35639145146E+03  0.88542552324E+02 0.  0.
         23    2    4    4    0    0 -0.55395699546E+03 -0.12285731905E+03  0.64853254017E+02  0.57970928559E+03  0.99471792891E+02 0.  0.
          3    1    3    3  502    0  0.34837557471E+02  0.52137754446E+02 -0.23644924139E+02  0.67015545113E+02  0.00000000000E+00 0. -1.
         -3    1    3    3    0  502  0.23782829902E+03  0.12108624941E+03  0.30629126241E+02  0.26863045803E+03  0.00000000000E+00 0.  1.
         13    1    5    5    0    0  0.11386654928E+03 -0.47418981382E+02 -0.12436695758E+03  0.17516075752E+03  0.00000000000E+00 0. -1.
        -13    1    5    5    0    0  0.16742458970E+03 -0.29477034188E+01 -0.69317257828E+02  0.18123069393E+03  0.00000000000E+00 0.  1.
          4    1    6    6  503    0 -0.16983097019E+03 -0.36948397003E+02 -0.26018501497E+02  0.17574044752E+03  0.00000000000E+00 0. -1.
         -4    1    6    6    0  503 -0.38412602528E+03 -0.85908922050E+02  0.90871755514E+02  0.40396883807E+03  0.00000000000E+00 0.  1.
<mgrwt>
<rscale>  0 0.12658962E+04</rscale>
<asrwt>0</asrwt>
<pdfrwt beam="1">  1        2 0.88453845E-01 0.12658962E+04</pdfrwt>
<pdfrwt beam="2">  1       -2 0.10719950E+00 0.12658962E+04</pdfrwt>
<totfact> 0.35874737E+01</totfact>
</mgrwt>
</event>
<event>
12    3  0.4634846E-008  0.1543196E+04  0.7818608E-02  0.8856225E-01
          1   -1    0    0  501    0  0.00000000000E+00  0.00000000000E+00  0.13622996097E+04  0.13622996097E+04  0.00000000000E+00 0. -1.
         -1   -1    0    0    0  501 -0.00000000000E+00 -0.00000000000E+00 -0.43702829623E+03  0.43702829623E+03  0.00000000000E+00 0.  1.
         23    2    1    2    0    0  0.16082999291E+03 -0.15103789234E+03 -0.22025997536E+03  0.32470197032E+03  0.90764427176E+02 0.  0.
        254    2    1    2    0    0 -0.16082999291E+03  0.15103789234E+03  0.11455312888E+04  0.14746259356E+04  0.90199832855E+03 0.  0.
         23    2    4    4    0    0  0.34788746180E+03  0.14434728421E+03  0.32499696633E+03  0.50522613675E+03  0.88139642628E+02 0.  0.
         23    2    4    4    0    0 -0.50871745471E+03  0.66906081319E+01  0.82053432249E+03  0.96939979884E+03  0.87299385110E+02 0.  0.
          1    1    3    3  502    0  0.46297022424E+02 -0.10355072733E+03 -0.12122911535E+03  0.16602007657E+03  0.00000000000E+00 0. -1.
         -1    1    3    3    0  502  0.11453297049E+03 -0.47487165015E+02 -0.99030860011E+02  0.15868189375E+03  0.00000000000E+00 0.  1.
         13    1    5    5    0    0  0.24582335854E+03  0.12761402418E+03  0.27515561312E+03  0.39041653936E+03  0.00000000000E+00 0.  1.
        -13    1    5    5    0    0  0.10206410326E+03  0.16733260033E+02  0.49841353204E+02  0.11480959740E+03  0.00000000000E+00 0. -1.
          2    1    6    6  503    0 -0.25813421282E+03 -0.37273248049E+01  0.49690163047E+03  0.55996285157E+03  0.00000000000E+00 0. -1.
         -2    1    6    6    0  503 -0.25058324188E+03  0.10417932937E+02  0.32363269202E+03  0.40943694727E+03  0.00000000000E+00 0.  1.
<mgrwt>
<rscale>  0 0.15431960E+04</rscale>
<asrwt>0</asrwt>
<pdfrwt beam="1">  1        1 0.20958455E+00 0.15431960E+04</pdfrwt>
<pdfrwt beam="2">  1       -1 0.67235123E-01 0.15431960E+04</pdfrwt>
<totfact> 0.17641762E+01</totfact>
</mgrwt>
</event>
<event>
12    3  0.4634846E-008  0.1464445E+04  0.7818608E-02  0.8908447E-01
          1   -1    0    0  501    0  0.00000000000E+00  0.00000000000E+00  0.91072925765E+03  0.91072925765E+03  0.00000000000E+00 0. -1.
         -1   -1    0    0    0  501 -0.00000000000E+00 -0.00000000000E+00 -0.58870370842E+03  0.58870370842E+03  0.00000000000E+00 0.  1.
         23    2    1    2    0    0  0.29382976546E+03  0.33722283532E+03  0.44804860106E+02  0.45870672228E+03  0.91374010754E+02 0.  0.
        254    2    1    2    0    0 -0.29382976546E+03 -0.33722283532E+03  0.27722068912E+03  0.10407262438E+04  0.89788898662E+03 0.  0.
         23    2    4    4    0    0 -0.24048934335E+03  0.15194554777E+02  0.53248238607E+03  0.59330685057E+03  0.10202709785E+03 0.  0.
         23    2    4    4    0    0 -0.53340422113E+02 -0.35241739010E+03 -0.25526169695E+03  0.44741939321E+03  0.89344065379E+02 0.  0.
          1    1    3    3  502    0 -0.55406654592E+01  0.80871273715E+00  0.32237921215E+01  0.64611009638E+01  0.00000000000E+00 0. -1.
         -1    1    3    3    0  502  0.29937043092E+03  0.33641412259E+03  0.41581067985E+02  0.45224562132E+03  0.00000000000E+00 0.  1.
         13    1    5    5    0    0 -0.19810871259E+02 -0.22400196953E+02  0.26262348510E+02  0.39798874266E+02  0.00000000000E+00 0.  1.
        -13    1    5    5    0    0 -0.22067847209E+03  0.37594751730E+02  0.50622003756E+03  0.55350797630E+03  0.00000000000E+00 0. -1.
          4    1    6    6  503    0  0.12818803764E+02 -0.20912061692E+03 -0.14008548634E+03  0.25203114417E+03  0.00000000000E+00 0. -1.
         -4    1    6    6    0  503 -0.66159225877E+02 -0.14329677318E+03 -0.11517621061E+03  0.19538824904E+03  0.00000000000E+00 0.  1.
<mgrwt>
<rscale>  0 0.14644449E+04</rscale>
<asrwt>0</asrwt>
<pdfrwt beam="1">  1        1 0.14011219E+00 0.14644449E+04</pdfrwt>
<pdfrwt beam="2">  1       -1 0.90569801E-01 0.14644449E+04</pdfrwt>
<totfact> 0.20613275E+01</totfact>
</mgrwt>
</event>
<event>
12    3  0.4634846E-008  0.2267840E+04  0.7818608E-02  0.8490710E-01
         -1   -1    0    0    0  501 -0.00000000000E+00  0.00000000000E+00  0.52885221032E+03  0.52885221032E+03  0.00000000000E+00 0.  1.
          1   -1    0    0  501    0  0.00000000000E+00 -0.00000000000E+00 -0.24312551614E+04  0.24312551614E+04  0.00000000000E+00 0. -1.
         23    2    1    2    0    0  0.56862536111E+03 -0.53163253062E+03 -0.86293763341E+02  0.78835448853E+03  0.89934626711E+02 0.  0.
        254    2    1    2    0    0 -0.56862536111E+03  0.53163253062E+03 -0.18161091877E+04  0.21717528832E+04  0.90127135478E+03 0.  0.
         23    2    4    4    0    0 -0.12171463670E+03  0.68757350172E+03 -0.97915080330E+03  0.12059572779E+04  0.89581736542E+02 0.  0.
         23    2    4    4    0    0 -0.44691072441E+03 -0.15594097110E+03 -0.83695838442E+03  0.96579560525E+03  0.90636812623E+02 0.  0.
          4    1    3    3  502    0  0.10070098985E+03 -0.11056133516E+03 -0.50524202658E+02  0.15785180785E+03  0.00000000000E+00 0. -1.
         -4    1    3    3    0  502  0.46792437126E+03 -0.42107119546E+03 -0.35769560683E+02  0.63050268067E+03  0.00000000000E+00 0.  1.
         13    1    5    5    0    0 -0.14252937418E+02  0.14414853918E+03 -0.14771528659E+03  0.20688584646E+03  0.00000000000E+00 0. -1.
        -13    1    5    5    0    0 -0.10746169928E+03  0.54342496254E+03 -0.83143551671E+03  0.99907143147E+03  0.00000000000E+00 0.  1.
          3    1    6    6  503    0 -0.20098499113E+02  0.11747164275E+02 -0.36696646697E+02  0.43457903929E+02  0.00000000000E+00 0. -1.
         -3    1    6    6    0  503 -0.42681222530E+03 -0.16768813538E+03 -0.80026173772E+03  0.92233770132E+03  0.00000000000E+00 0.  1.
<mgrwt>
<rscale>  0 0.22678401E+04</rscale>
<asrwt>0</asrwt>
<pdfrwt beam="1">  1        1 0.37403925E+00 0.22678401E+04</pdfrwt>
<pdfrwt beam="2">  1       -1 0.81361879E-01 0.22678401E+04</pdfrwt>
<totfact> 0.20613650E+00</totfact>
</mgrwt>
</event>
<event>
12    3  0.4634846E-008  0.1300021E+04  0.7818608E-02  0.9029548E-01
          3   -1    0    0  501    0  0.00000000000E+00  0.00000000000E+00  0.21246260984E+03  0.21246260984E+03  0.00000000000E+00 0. -1.
         -3   -1    0    0    0  501 -0.00000000000E+00 -0.00000000000E+00 -0.19886500629E+04  0.19886500629E+04  0.00000000000E+00 0.  1.
         23    2    1    2    0    0 -0.68774955990E+02  0.12701347790E+03 -0.92884984911E+03  0.94452393243E+03  0.92200860117E+02 0.  0.
        254    2    1    2    0    0  0.68774955990E+02 -0.12701347790E+03 -0.84733760395E+03  0.12565887403E+04  0.91660887464E+03 0.  0.
         23    2    4    4    0    0 -0.18487831380E+03 -0.31399330621E+03 -0.84935557535E+03  0.92841324107E+03  0.88172929878E+02 0.  0.
         23    2    4    4    0    0  0.25365326979E+03  0.18697982831E+03  0.20179714036E+01  0.32817549923E+03  0.91616857714E+02 0.  0.
          4    1    3    3  502    0 -0.42500314270E+02  0.97263391623E+00 -0.24446802981E+03  0.24813673716E+03  0.00000000000E+00 0. -1.
         -4    1    3    3    0  502 -0.26274641719E+02  0.12604084398E+03 -0.68438181930E+03  0.69638719527E+03  0.00000000000E+00 0.  1.
         13    1    5    5    0    0 -0.67500054493E+02 -0.48194265220E+02 -0.15707202429E+03  0.17762478817E+03  0.00000000000E+00 0. -1.
        -13    1    5    5    0    0 -0.11737825931E+03 -0.26579904099E+03 -0.69228355106E+03  0.75078845291E+03  0.00000000000E+00 0.  1.
          1    1    6    6  503    0  0.34712900488E+02  0.32128567679E+02 -0.33082351212E+02  0.57720640010E+02  0.00000000000E+00 0. -1.
         -1    1    6    6    0  503  0.21894036930E+03  0.15485126063E+03  0.35100322616E+02  0.27045485922E+03  0.00000000000E+00 0.  1.
<mgrwt>
<rscale>  0 0.13000212E+04</rscale>
<asrwt>0</asrwt>
<pdfrwt beam="1">  1        3 0.32686558E-01 0.13000212E+04</pdfrwt>
<pdfrwt beam="2">  1       -3 0.30594614E+00 0.13000212E+04</pdfrwt>
<totfact> 0.83947481E-01</totfact>
</mgrwt>
</event>
<event>
12    3  0.4634846E-008  0.1212015E+04  0.7818608E-02  0.9102404E-01
         -1   -1    0    0    0  501 -0.00000000000E+00  0.00000000000E+00  0.20829245081E+03  0.20829245081E+03  0.00000000000E+00 0.  1.
          1   -1    0    0  501    0  0.00000000000E+00 -0.00000000000E+00 -0.17631229348E+04  0.17631229348E+04  0.00000000000E+00 0. -1.
         23    2    1    2    0    0 -0.13353672607E+03  0.80645269307E+02 -0.35547428691E+02  0.19790534748E+03  0.11647828212E+03 0.  0.
        254    2    1    2    0    0  0.13353672607E+03 -0.80645269307E+02 -0.15192830553E+04  0.17735100382E+04  0.90154375188E+03 0.  0.
         23    2    4    4    0    0 -0.15300804612E+02  0.14239346818E+03  0.51782582152E+02  0.17712781008E+03  0.90458890593E+02 0.  0.
         23    2    4    4    0    0  0.14883753068E+03 -0.22303873749E+03 -0.15710656375E+04  0.15963822281E+04  0.91049941641E+02 0.  0.
          2    1    3    3  502    0  0.19820699888E+02  0.34378055412E+01 -0.14770474751E+02  0.24956874311E+02  0.00000000000E+00 0. -1.
         -2    1    3    3    0  502 -0.15335742596E+03  0.77207463765E+02 -0.20776953940E+02  0.17294847317E+03  0.00000000000E+00 0.  1.
         13    1    5    5    0    0  0.20390582159E+02  0.36253890421E+00 -0.33107027666E+01  0.20660784788E+02  0.00000000000E+00 0. -1.
        -13    1    5    5    0    0 -0.35691386771E+02  0.14203092927E+03  0.55093284918E+02  0.15646702529E+03  0.00000000000E+00 0.  1.
          1    1    6    6  503    0  0.26301626099E+01  0.84798814084E+01 -0.35457013766E+02  0.36551689006E+02  0.00000000000E+00 0. -1.
         -1    1    6    6    0  503  0.14620736807E+03 -0.23151861889E+03 -0.15356086237E+04  0.15598305391E+04  0.00000000000E+00 0.  1.
<mgrwt>
<rscale>  0 0.12120152E+04</rscale>
<asrwt>0</asrwt>
<pdfrwt beam="1">  1        1 0.27124968E+00 0.12120152E+04</pdfrwt>
<pdfrwt beam="2">  1       -1 0.32044993E-01 0.12120152E+04</pdfrwt>
<totfact> 0.38788313E+01</totfact>
</mgrwt>
</event>
<event>
12    3  0.4634846E-008  0.1802950E+04  0.7818608E-02  0.8704732E-01
         -1   -1    0    0    0  501 -0.00000000000E+00  0.00000000000E+00  0.76536399253E+03  0.76536399253E+03  0.00000000000E+00 0.  1.
          1   -1    0    0  501    0  0.00000000000E+00 -0.00000000000E+00 -0.10617918911E+04  0.10617918911E+04  0.00000000000E+00 0. -1.
         23    2    1    2    0    0  0.27482326623E+03 -0.60143799019E+03 -0.50263310735E+02  0.66957581074E+03  0.92465573093E+02 0.  0.
        254    2    1    2    0    0 -0.27482326623E+03  0.60143799019E+03 -0.24616458786E+03  0.11575800729E+04  0.91768139199E+03 0.  0.
         23    2    4    4    0    0 -0.26637137803E+03 -0.18646946102E+03 -0.70376809800E+02  0.34579176144E+03  0.94310529602E+02 0.  0.
         23    2    4    4    0    0 -0.84518881921E+01  0.78790745121E+03 -0.17578777806E+03  0.81178831149E+03  0.85025488276E+02 0.  0.
          2    1    3    3  502    0  0.59233109245E+02 -0.10263102028E+03 -0.43198909350E+02  0.12612625946E+03  0.00000000000E+00 0. -1.
         -2    1    3    3    0  502  0.21559015698E+03 -0.49880696991E+03 -0.70644013846E+01  0.54344955128E+03  0.00000000000E+00 0.  1.
         13    1    5    5    0    0 -0.10466256727E+03 -0.30792632033E+02  0.44310049043E+01  0.10918824561E+03  0.00000000000E+00 0. -1.
        -13    1    5    5    0    0 -0.16170881076E+03 -0.15567682899E+03 -0.74807814705E+02  0.23660351583E+03  0.00000000000E+00 0.  1.
          4    1    6    6  503    0 -0.23265391637E+02  0.22904886205E+03 -0.18191455926E+02  0.23094499068E+03  0.00000000000E+00 0. -1.
         -4    1    6    6    0  503  0.14813503444E+02  0.55885858917E+03 -0.15759632214E+03  0.58084332080E+03  0.00000000000E+00 0.  1.
<mgrwt>
<rscale>  0 0.18029501E+04</rscale>
<asrwt>0</asrwt>
<pdfrwt beam="1">  1        1 0.16335260E+00 0.18029501E+04</pdfrwt>
<pdfrwt beam="2">  1       -1 0.11774831E+00 0.18029501E+04</pdfrwt>
<totfact> 0.82921118E+00</totfact>
</mgrwt>
</event>
<event>
12    3  0.4634846E-008  0.1839473E+04  0.7818608E-02  0.8685585E-01
         -2   -1    0    0    0  501 -0.00000000000E+00  0.00000000000E+00  0.11748793374E+04  0.11748793374E+04  0.00000000000E+00 0. -1.
          2   -1    0    0  501    0  0.00000000000E+00 -0.00000000000E+00 -0.72000203658E+03  0.72000203658E+03  0.00000000000E+00 0.  1.
         23    2    1    2    0    0  0.69140612924E+03 -0.69902685165E+02  0.89547346542E+02  0.70688617569E+03  0.93490733036E+02 0.  0.
        254    2    1    2    0    0 -0.69140612924E+03  0.69902685165E+02  0.36532995428E+03  0.11879951983E+04  0.89159284136E+03 0.  0.
         23    2    4    4    0    0  0.13124986543E+03  0.12855597262E+03 -0.10777248080E+03  0.23245305675E+03  0.93093236597E+02 0.  0.
         23    2    4    4    0    0 -0.82265599467E+03 -0.58653287456E+02  0.47310243509E+03  0.95554214156E+03  0.95035659226E+02 0.  0.
          4    1    3    3  502    0  0.12040036585E+01  0.47758878855E+01 -0.40475082204E+01  0.63750335449E+01  0.00000000000E+00 0. -1.
         -4    1    3    3    0  502  0.69020212558E+03 -0.74678573050E+02  0.93594854762E+02  0.70051114214E+03  0.00000000000E+00 0.  1.
         13    1    5    5    0    0  0.13955425535E+03  0.10140846673E+03 -0.72369410895E+02  0.18707324486E+03  0.00000000000E+00 0.  1.
        -13    1    5    5    0    0 -0.83043899137E+01  0.27147505890E+02 -0.35403069906E+02  0.45379811884E+02  0.00000000000E+00 0. -1.
          1    1    6    6  503    0 -0.59958056547E+03 -0.48653371666E+02  0.39184223644E+03  0.71791666879E+03  0.00000000000E+00 0. -1.
         -1    1    6    6    0  503 -0.22307542920E+03 -0.99999157895E+01  0.81260198646E+02  0.23762547278E+03  0.00000000000E+00 0.  1.
<mgrwt>
<rscale>  0 0.18394733E+04</rscale>
<asrwt>0</asrwt>
<pdfrwt beam="1">  1        2 0.11076954E+00 0.18394733E+04</pdfrwt>
<pdfrwt beam="2">  1       -2 0.18075067E+00 0.18394733E+04</pdfrwt>
<totfact> 0.66607001E+00</totfact>
</mgrwt>
</event>
<event>
12    3  0.4634846E-008  0.1375400E+04  0.7818608E-02  0.8971820E-01
          1   -1    0    0  501    0  0.00000000000E+00  0.00000000000E+00  0.67633177177E+03  0.67633177177E+03  0.00000000000E+00 0. -1.
         -1   -1    0    0    0  501 -0.00000000000E+00 -0.00000000000E+00 -0.69925947886E+03  0.69925947886E+03  0.00000000000E+00 0.  1.
         23    2    1    2    0    0 -0.67185127605E+02 -0.68845385600E+02  0.36955785627E+03  0.39256502821E+03  0.90998701919E+02 0.  0.
        254    2    1    2    0    0  0.67185127605E+02  0.68845385600E+02 -0.39248556336E+03  0.98302622242E+03  0.89612616747E+03 0.  0.
         23    2    4    4    0    0  0.34224807421E+03 -0.17158965625E+03 -0.45406949283E+03  0.60127191749E+03  0.93659276165E+02 0.  0.
         23    2    4    4    0    0 -0.27506294660E+03  0.24043504185E+03  0.61583929470E+02  0.38175430493E+03  0.92060496505E+02 0.  0.
          3    1    3    3  502    0 -0.69828384972E+02 -0.21049620221E+02  0.29562457936E+03  0.30448806509E+03  0.00000000000E+00 0. -1.
         -3    1    3    3    0  502  0.26432573677E+01 -0.47795765380E+02  0.73933276913E+02  0.88076963122E+02  0.00000000000E+00 0.  1.
         13    1    5    5    0    0  0.33737114358E+03 -0.17680312295E+03 -0.45572923515E+03  0.59394256336E+03  0.00000000000E+00 0.  1.
        -13    1    5    5    0    0  0.48769306294E+01  0.52134667001E+01  0.16597423159E+01  0.73293541292E+01  0.00000000000E+00 0. -1.
          2    1    6    6  503    0 -0.26967451028E+03  0.24789730779E+03  0.64828451243E+02  0.37199481823E+03  0.00000000000E+00 0.  1.
         -2    1    6    6    0  503 -0.53884363255E+01 -0.74622659377E+01 -0.32445217724E+01  0.97594866920E+01  0.00000000000E+00 0. -1.
<mgrwt>
<rscale>  0 0.13754002E+04</rscale>
<asrwt>0</asrwt>
<pdfrwt beam="1">  1        1 0.10405104E+00 0.13754002E+04</pdfrwt>
<pdfrwt beam="2">  1       -1 0.10757838E+00 0.13754002E+04</pdfrwt>
<totfact> 0.22562444E+01</totfact>
</mgrwt>
</event>
<event>
12    3  0.4634846E-008  0.2259658E+04  0.7818608E-02  0.8493999E-01
          2   -1    0    0  501    0  0.00000000000E+00  0.00000000000E+00  0.15365813659E+04  0.15365813659E+04  0.00000000000E+00 0. -1.
         -2   -1    0    0    0  501 -0.00000000000E+00 -0.00000000000E+00 -0.83074902350E+03  0.83074902350E+03  0.00000000000E+00 0.  1.
         23    2    1    2    0    0 -0.12422598080E+03 -0.91764316809E+03  0.82834626853E+02  0.93418525535E+03  0.91320521540E+02 0.  0.
        254    2    1    2    0    0  0.12422598080E+03  0.91764316809E+03  0.62299771551E+03  0.14331451340E+04  0.89904268160E+03 0.  0.
         23    2    4    4    0    0 -0.12193180657E+03  0.49453542612E+03 -0.12754068698E+03  0.53301473226E+03  0.91681103973E+02 0.  0.
         23    2    4    4    0    0  0.24615778737E+03  0.42310774197E+03  0.75053840249E+03  0.90013040175E+03  0.85516249568E+02 0.  0.
          4    1    3    3  502    0 -0.11175886446E+02 -0.27260738697E+03 -0.85614642136E+01  0.27297066974E+03  0.00000000000E+00 0. -1.
         -4    1    3    3    0  502 -0.11305009435E+03 -0.64503578112E+03  0.91396091067E+02  0.66121458561E+03  0.00000000000E+00 0.  1.
         13    1    5    5    0    0 -0.92029318454E+02  0.46370510427E+03 -0.10406282920E+03  0.48406703214E+03  0.00000000000E+00 0.  1.
        -13    1    5    5    0    0 -0.29902488120E+02  0.30830321854E+02 -0.23477857782E+02  0.48947700123E+02  0.00000000000E+00 0. -1.
          2    1    6    6  503    0  0.90918705659E+02  0.12692991744E+03  0.30952732314E+03  0.34667647562E+03  0.00000000000E+00 0. -1.
         -2    1    6    6    0  503  0.15523908171E+03  0.29617782453E+03  0.44101107935E+03  0.55345392613E+03  0.00000000000E+00 0.  1.
<mgrwt>
<rscale>  0 0.22596579E+04</rscale>
<asrwt>0</asrwt>
<pdfrwt beam="1">  1        2 0.23639713E+00 0.22596579E+04</pdfrwt>
<pdfrwt beam="2">  1       -2 0.12780754E+00 0.22596579E+04</pdfrwt>
<totfact> 0.49929450E+00</totfact>
</mgrwt>
</event>
<event>
12    3  0.4634846E-008  0.2006557E+04  0.7818608E-02  0.8603561E-01
         -2   -1    0    0    0  501 -0.00000000000E+00  0.00000000000E+00  0.96130148759E+03  0.96130148759E+03  0.00000000000E+00 0.  1.
          2   -1    0    0  501    0  0.00000000000E+00 -0.00000000000E+00 -0.10470881946E+04  0.10470881946E+04  0.00000000000E+00 0. -1.
         23    2    1    2    0    0 -0.20140797684E+03  0.22909631108E+03 -0.77063407548E+03  0.83386964432E+03  0.91713753289E+02 0.  0.
        254    2    1    2    0    0  0.20140797684E+03 -0.22909631108E+03  0.68484736848E+03  0.11745200378E+04  0.90411896801E+03 0.  0.
         23    2    4    4    0    0 -0.22224607798E+03 -0.19122101851E+03  0.67319666841E+03  0.73935321305E+03  0.86548380691E+02 0.  0.
         23    2    4    4    0    0  0.42365405483E+03 -0.37875292572E+02  0.11650700074E+02  0.43516682480E+03  0.91198303906E+02 0.  0.
          3    1    3    3  502    0 -0.14116180165E+03  0.18072361069E+03 -0.66175606865E+03  0.70036331436E+03  0.00000000000E+00 0. -1.
         -3    1    3    3    0  502 -0.60246175191E+02  0.48372700389E+02 -0.10887800683E+03  0.13350632996E+03  0.00000000000E+00 0.  1.
         13    1    5    5    0    0 -0.11270687461E+03 -0.11877598990E+03  0.46712735469E+03  0.49499347557E+03  0.00000000000E+00 0.  1.
        -13    1    5    5    0    0 -0.10953920337E+03 -0.72445028611E+02  0.20606931372E+03  0.24435973748E+03  0.00000000000E+00 0. -1.
          1    1    6    6  503    0  0.16043526428E+03 -0.16265294269E+02  0.48759448878E+02  0.16846815034E+03  0.00000000000E+00 0. -1.
         -1    1    6    6    0  503  0.26321879054E+03 -0.21609998303E+02 -0.37108748804E+02  0.26669867446E+03  0.00000000000E+00 0.  1.
<mgrwt>
<rscale>  0 0.20065567E+04</rscale>
<asrwt>0</asrwt>
<pdfrwt beam="1">  1        2 0.16109049E+00 0.20065567E+04</pdfrwt>
<pdfrwt beam="2">  1       -2 0.14789254E+00 0.20065567E+04</pdfrwt>
<totfact> 0.67895785E+00</totfact>
</mgrwt>
</event>
<event>
12    3  0.4634846E-008  0.1603776E+04  0.7818608E-02  0.8818232E-01
          1   -1    0    0  501    0  0.00000000000E+00  0.00000000000E+00  0.65806968222E+03  0.65806968222E+03  0.00000000000E+00 0. -1.
         -1   -1    0    0    0  501 -0.00000000000E+00 -0.00000000000E+00 -0.97713715715E+03  0.97713715715E+03  0.00000000000E+00 0.  1.
         23    2    1    2    0    0 -0.14076214041E+03 -0.52857360745E+03 -0.84946598319E+02  0.56069866004E+03  0.89235778334E+02 0.  0.
        254    2    1    2    0    0  0.14076214041E+03  0.52857360745E+03 -0.23412087661E+03  0.10745081793E+04  0.89473527030E+03 0.  0.
         23    2    4    4    0    0  0.71483028479E+02  0.56499189900E+03  0.21054254177E+03  0.61380752870E+03  0.90032500215E+02 0.  0.
         23    2    4    4    0    0  0.69279111927E+02 -0.36418291550E+02 -0.44466341838E+03  0.46070065063E+03  0.91616846379E+02 0.  0.
          4    1    3    3  502    0 -0.10574941155E+02 -0.25360216624E+01  0.39055368510E+01  0.11554826022E+02  0.00000000000E+00 0. -1.
         -4    1    3    3    0  502 -0.13018719925E+03 -0.52603758579E+03 -0.88852135170E+02  0.54914383402E+03  0.00000000000E+00 0.  1.
         13    1    5    5    0    0 -0.37190374723E+01  0.32594238583E+03  0.11766391663E+03  0.34655023792E+03  0.00000000000E+00 0. -1.
        -13    1    5    5    0    0  0.75202065951E+02  0.23904951317E+03  0.92878625136E+02  0.26725729079E+03  0.00000000000E+00 0.  1.
          1    1    6    6  503    0  0.38805400074E+02 -0.25913846466E+02 -0.41261926915E+03  0.41524938024E+03  0.00000000000E+00 0. -1.
         -1    1    6    6    0  503  0.30473711853E+02 -0.10504445084E+02 -0.32044149223E+02  0.45451270390E+02  0.00000000000E+00 0.  1.
<mgrwt>
<rscale>  0 0.16037760E+04</rscale>
<asrwt>0</asrwt>
<pdfrwt beam="1">  1        1 0.10124149E+00 0.16037760E+04</pdfrwt>
<pdfrwt beam="2">  1       -1 0.15032879E+00 0.16037760E+04</pdfrwt>
<totfact> 0.99493315E+00</totfact>
</mgrwt>
</event>
<event>
12    3  0.4634846E-008  0.2604590E+04  0.7818608E-02  0.8366644E-01
         -2   -1    0    0    0  501 -0.00000000000E+00  0.00000000000E+00  0.47908595913E+03  0.47908595913E+03  0.00000000000E+00 0.  1.
          2   -1    0    0  501    0  0.00000000000E+00 -0.00000000000E+00 -0.35400162543E+04  0.35400162543E+04  0.00000000000E+00 0. -1.
         23    2    1    2    0    0 -0.33333402943E+03  0.11018472206E+04 -0.13946068395E+04  0.18106023561E+04  0.90408974530E+02 0.  0.
        254    2    1    2    0    0  0.33333402943E+03 -0.11018472206E+04 -0.16663234557E+04  0.22084998573E+04  0.88071498687E+03 0.  0.
         23    2    4    4    0    0  0.30685356863E+03 -0.33565224358E+01 -0.21368045315E+03  0.38489168674E+03  0.91169598231E+02 0.  0.
         23    2    4    4    0    0  0.26480460808E+02 -0.10984906981E+04 -0.14526430026E+04  0.18236081706E+04  0.89398200440E+02 0.  0.
          2    1    3    3  502    0 -0.19707230116E+03  0.71832648844E+03 -0.84024203628E+03  0.11228700350E+04  0.00000000000E+00 0. -1.
         -2    1    3    3    0  502 -0.13626172828E+03  0.38352073212E+03 -0.55436480322E+03  0.68773232119E+03  0.00000000000E+00 0.  1.
         13    1    5    5    0    0  0.12553781264E+03  0.42143165007E+01 -0.14250040512E+03  0.18995754348E+03  0.00000000000E+00 0.  1.
        -13    1    5    5    0    0  0.18131575598E+03 -0.75708389365E+01 -0.71180048028E+02  0.19493414326E+03  0.00000000000E+00 0. -1.
          2    1    6    6  503    0  0.27779703165E+02 -0.74456243590E+03 -0.10504094275E+04  0.12878295300E+04  0.00000000000E+00 0. -1.
         -2    1    6    6    0  503 -0.12992423569E+01 -0.35392826223E+03 -0.40223357502E+03  0.53577864059E+03  0.00000000000E+00 0.  1.
<mgrwt>
<rscale>  0 0.26045899E+04</rscale>
<asrwt>0</asrwt>
<pdfrwt beam="1">  1        2 0.54461788E+00 0.26045899E+04</pdfrwt>
<pdfrwt beam="2">  1       -2 0.73705533E-01 0.26045899E+04</pdfrwt>
<totfact> 0.11189386E+00</totfact>
</mgrwt>
</event>
<event>
12    3  0.4634846E-008  0.1939033E+04  0.7818608E-02  0.8635667E-01
          2   -1    0    0  501    0  0.00000000000E+00  0.00000000000E+00  0.13833572070E+04  0.13833572070E+04  0.00000000000E+00 0. -1.
         -2   -1    0    0    0  501 -0.00000000000E+00 -0.00000000000E+00 -0.67947900387E+03  0.67947900387E+03  0.00000000000E+00 0.  1.
         23    2    1    2    0    0 -0.57351767004E+03  0.37252597193E+03 -0.74675283293E+02  0.69393872405E+03  0.90974926176E+02 0.  0.
        254    2    1    2    0    0  0.57351767004E+03 -0.37252597193E+03  0.77855348641E+03  0.13688974868E+04  0.89444769583E+03 0.  0.
         23    2    4    4    0    0  0.45490138034E+02  0.26749918716E+03  0.14469872173E+03  0.32096871863E+03  0.91967551215E+02 0.  0.
         23    2    4    4    0    0  0.52802753200E+03 -0.64002515909E+03  0.63385476467E+03  0.10479287682E+04  0.89092994342E+02 0.  0.
          3    1    3    3  502    0 -0.72102071706E+01  0.94757500763E+01  0.10505149009E+02  0.15878762000E+02  0.00000000000E+00 0. -1.
         -3    1    3    3    0  502 -0.56630746287E+03  0.36305022185E+03 -0.85180432303E+02  0.67805996205E+03  0.00000000000E+00 0.  1.
         13    1    5    5    0    0 -0.11716280816E+02  0.85932633012E+01  0.27435381598E+02  0.31045379266E+02  0.00000000000E+00 0. -1.
        -13    1    5    5    0    0  0.57206418850E+02  0.25890592386E+03  0.11726334014E+03  0.28992333936E+03  0.00000000000E+00 0.  1.
          1    1    6    6  503    0  0.28418106417E+03 -0.40344402656E+03  0.34693838746E+03  0.60323478388E+03  0.00000000000E+00 0. -1.
         -1    1    6    6    0  503  0.24384646784E+03 -0.23658113253E+03  0.28691637722E+03  0.44469398429E+03  0.00000000000E+00 0.  1.
<mgrwt>
<rscale>  0 0.19390329E+04</rscale>
<asrwt>0</asrwt>
<pdfrwt beam="1">  1        2 0.21282418E+00 0.19390329E+04</pdfrwt>
<pdfrwt beam="2">  1       -2 0.10453523E+00 0.19390329E+04</pdfrwt>
<totfact> 0.10262352E+01</totfact>
</mgrwt>
</event>
<event>
12    3  0.4634846E-008  0.2576379E+04  0.7818608E-02  0.8376269E-01
         -2   -1    0    0    0  501 -0.00000000000E+00  0.00000000000E+00  0.85241574526E+03  0.85241574526E+03  0.00000000000E+00 0.  1.
          2   -1    0    0  501    0  0.00000000000E+00 -0.00000000000E+00 -0.19467410533E+04  0.19467410533E+04  0.00000000000E+00 0. -1.
         23    2    1    2    0    0  0.98098899024E+03 -0.11867337181E+03  0.62213413888E+02  0.99433291648E+03  0.91676997012E+02 0.  0.
        254    2    1    2    0    0 -0.98098899024E+03  0.11867337181E+03 -0.11565387219E+04  0.18048238820E+04  0.97127990909E+03 0.  0.
         23    2    4    4    0    0 -0.11073236918E+04  0.29631505245E+03 -0.97588887403E+03  0.15079568085E+04  0.87213950486E+02 0.  0.
         23    2    4    4    0    0  0.12633470152E+03 -0.17764168065E+03 -0.18064984787E+03  0.29686707356E+03  0.89323391771E+02 0.  0.
          3    1    3    3  502    0  0.19091319213E+03  0.31998155753E+01  0.37145906952E+02  0.19451967549E+03  0.00000000000E+00 0. -1.
         -3    1    3    3    0  502  0.79007579812E+03 -0.12187318738E+03  0.25067506936E+02  0.79981324100E+03  0.00000000000E+00 0.  1.
         13    1    5    5    0    0 -0.10567914349E+04  0.27757350537E+03 -0.95123381445E+03  0.14486893930E+04  0.00000000000E+00 0.  1.
        -13    1    5    5    0    0 -0.50532256863E+02  0.18741547083E+02 -0.24655059583E+02  0.59267415447E+02  0.00000000000E+00 0. -1.
          3    1    6    6  503    0  0.42087864042E+02 -0.72925041587E+02 -0.18406660000E+02  0.86187325765E+02  0.00000000000E+00 0. -1.
         -3    1    6    6    0  503  0.84246837477E+02 -0.10471663906E+03 -0.16224318787E+03  0.21067974779E+03  0.00000000000E+00 0.  1.
<mgrwt>
<rscale>  0 0.25763794E+04</rscale>
<asrwt>0</asrwt>
<pdfrwt beam="1">  1        2 0.29949862E+00 0.25763794E+04</pdfrwt>
<pdfrwt beam="2">  1       -2 0.13114088E+00 0.25763794E+04</pdfrwt>
<totfact> 0.26930058E+00</totfact>
</mgrwt>
</event>
<event>
12    3  0.4634846E-008  0.1140679E+04  0.7818608E-02  0.9166426E-01
         -2   -1    0    0    0  501 -0.00000000000E+00  0.00000000000E+00  0.17425430392E+03  0.17425430392E+03  0.00000000000E+00 0.  1.
          2   -1    0    0  501    0  0.00000000000E+00 -0.00000000000E+00 -0.18667388389E+04  0.18667388389E+04  0.00000000000E+00 0. -1.
         23    2    1    2    0    0  0.15713917991E+03  0.69820347159E+02 -0.53577826041E+03  0.56974799218E+03  0.89369052342E+02 0.  0.
        254    2    1    2    0    0 -0.15713917991E+03 -0.69820347159E+02 -0.11567062746E+04  0.14712451506E+04  0.89276272600E+03 0.  0.
         23    2    4    4    0    0  0.26930219422E+03  0.23868614855E+03 -0.53606295806E+03  0.65211439845E+03  0.91623928815E+02 0.  0.
         23    2    4    4    0    0 -0.42644137413E+03 -0.30850649571E+03 -0.62064331651E+03  0.81913075220E+03  0.93533734042E+02 0.  0.
          1    1    3    3  502    0  0.15172308023E+03  0.38098850491E+02 -0.48525169786E+03  0.50984372680E+03  0.00000000000E+00 0. -1.
         -1    1    3    3    0  502  0.54160996822E+01  0.31721496668E+02 -0.50526562554E+02  0.59904265375E+02  0.00000000000E+00 0.  1.
         13    1    5    5    0    0 -0.42296030921E+01  0.12307676412E+02 -0.40097129634E+02  0.42156236144E+02  0.00000000000E+00 0. -1.
        -13    1    5    5    0    0  0.27353179732E+03  0.22637847214E+03 -0.49596582843E+03  0.60995816230E+03  0.00000000000E+00 0.  1.
          4    1    6    6  503    0 -0.52632744208E+02 -0.74706472385E+02 -0.79625802562E+02  0.12120862681E+03  0.00000000000E+00 0. -1.
         -4    1    6    6    0  503 -0.37380862993E+03 -0.23380002332E+03 -0.54101751395E+03  0.69792212539E+03  0.00000000000E+00 0.  1.
<mgrwt>
<rscale>  0 0.11406792E+04</rscale>
<asrwt>0</asrwt>
<pdfrwt beam="1">  1        2 0.28719061E+00 0.11406792E+04</pdfrwt>
<pdfrwt beam="2">  1       -2 0.26808353E-01 0.11406792E+04</pdfrwt>
<totfact> 0.99186399E+01</totfact>
</mgrwt>
</event>
<event>
12    3  0.4634846E-008  0.1666609E+04  0.7818608E-02  0.8780641E-01
          2   -1    0    0  501    0  0.00000000000E+00  0.00000000000E+00  0.35866186480E+03  0.35866186480E+03  0.00000000000E+00 0. -1.
         -2   -1    0    0    0  501 -0.00000000000E+00 -0.00000000000E+00 -0.19360742535E+04  0.19360742535E+04  0.00000000000E+00 0.  1.
         23    2    1    2    0    0 -0.43975625362E+02  0.54384576807E+03 -0.26476117467E+03  0.61399764350E+03  0.95877794801E+02 0.  0.
        254    2    1    2    0    0  0.43975625362E+02 -0.54384576807E+03 -0.13126512140E+04  0.16807384748E+04  0.89673102763E+03 0.  0.
         23    2    4    4    0    0  0.20131573485E+03 -0.58640422845E+03 -0.38619286025E+03  0.73548716016E+03  0.86014494178E+02 0.  0.
         23    2    4    4    0    0 -0.15734010949E+03  0.42558460377E+02 -0.92645835379E+03  0.94525131466E+03  0.92778413121E+02 0.  0.
          4    1    3    3  502    0 -0.19302250638E+02  0.37464774309E+03 -0.13260590108E+03  0.39789173563E+03  0.00000000000E+00 0. -1.
         -4    1    3    3    0  502 -0.24673374723E+02  0.16919802498E+03 -0.13215527359E+03  0.21610590787E+03  0.00000000000E+00 0.  1.
         13    1    5    5    0    0  0.92108767801E+02 -0.15755883022E+03 -0.13090249002E+03  0.22459802309E+03  0.00000000000E+00 0.  1.
        -13    1    5    5    0    0  0.10920696705E+03 -0.42884539823E+03 -0.25529037023E+03  0.51088913707E+03  0.00000000000E+00 0. -1.
          3    1    6    6  503    0 -0.10645168179E+03  0.14123428680E+02 -0.78411276258E+03  0.79143177611E+03  0.00000000000E+00 0. -1.
         -3    1    6    6    0  503 -0.50888427696E+02  0.28435031697E+02 -0.14234559122E+03  0.15381953855E+03  0.00000000000E+00 0.  1.
<mgrwt>
<rscale>  0 0.16666085E+04</rscale>
<asrwt>0</asrwt>
<pdfrwt beam="1">  1        2 0.55178748E-01 0.16666085E+04</pdfrwt>
<pdfrwt beam="2">  1       -2 0.29785758E+00 0.16666085E+04</pdfrwt>
<totfact> 0.28164202E+00</totfact>
</mgrwt>
</event>
<event>
12    3  0.4634846E-008  0.1586573E+04  0.7818608E-02  0.8828840E-01
          2   -1    0    0  501    0  0.00000000000E+00  0.00000000000E+00  0.21378593906E+04  0.21378593906E+04  0.00000000000E+00 0. -1.
         -2   -1    0    0    0  501 -0.00000000000E+00 -0.00000000000E+00 -0.29436138765E+03  0.29436138765E+03  0.00000000000E+00 0.  1.
         23    2    1    2    0    0  0.42298677189E+03  0.32240016807E+03  0.61571927992E+03  0.81888029672E+03  0.92709390673E+02 0.  0.
        254    2    1    2    0    0 -0.42298677189E+03 -0.32240016807E+03  0.12277787231E+04  0.16133404815E+04  0.90142511561E+03 0.  0.
         23    2    4    4    0    0 -0.30597732870E+03 -0.58976479340E+03  0.54387301452E+03  0.86383584767E+03  0.94709442983E+02 0.  0.
         23    2    4    4    0    0 -0.11700944319E+03  0.26736462533E+03  0.68390570854E+03  0.74950463388E+03  0.94101675672E+02 0.  0.
          1    1    3    3  502    0  0.20549949559E+03  0.14470857801E+03  0.35998874110E+03  0.43904727417E+03  0.00000000000E+00 0. -1.
         -1    1    3    3    0  502  0.21748727631E+03  0.17769159006E+03  0.25573053882E+03  0.37983302255E+03  0.00000000000E+00 0.  1.
         13    1    5    5    0    0 -0.68342884795E+02 -0.62170628465E+02  0.69856089485E+02  0.11582663849E+03  0.00000000000E+00 0. -1.
        -13    1    5    5    0    0 -0.23763444391E+03 -0.52759416493E+03  0.47401692503E+03  0.74800920918E+03  0.00000000000E+00 0.  1.
          4    1    6    6  503    0 -0.55230728856E+02  0.73710882217E+02  0.31635054850E+03  0.32948656589E+03  0.00000000000E+00 0. -1.
         -4    1    6    6    0  503 -0.61778714333E+02  0.19365374311E+03  0.36755516004E+03  0.42001806799E+03  0.00000000000E+00 0.  1.
<mgrwt>
<rscale>  0 0.15865727E+04</rscale>
<asrwt>0</asrwt>
<pdfrwt beam="1">  1        2 0.32890143E+00 0.15865727E+04</pdfrwt>
<pdfrwt beam="2">  1       -2 0.45286369E-01 0.15865727E+04</pdfrwt>
<totfact> 0.24853585E+01</totfact>
</mgrwt>
</event>
<event>
12    3  0.4634846E-008  0.1835962E+04  0.7818608E-02  0.8687406E-01
         -2   -1    0    0    0  501 -0.00000000000E+00  0.00000000000E+00  0.78722049207E+03  0.78722049207E+03  0.00000000000E+00 0.  1.
          2   -1    0    0  501    0  0.00000000000E+00 -0.00000000000E+00 -0.10704617298E+04  0.10704617298E+04  0.00000000000E+00 0. -1.
         23    2    1    2    0    0 -0.29622772461E+03 -0.41010998112E+03 -0.59134193582E+03  0.78359494920E+03  0.91622584058E+02 0.  0.
        254    2    1    2    0    0  0.29622772461E+03  0.41010998112E+03  0.30810069805E+03  0.10740872727E+04  0.89598904446E+03 0.  0.
         23    2    4    4    0    0 -0.25372526560E+03 -0.85505284862E+02  0.89921427127E+02  0.29627503604E+03  0.89472732033E+02 0.  0.
         23    2    4    4    0    0  0.54995299021E+03  0.49561526598E+03  0.21817927093E+03  0.77781223666E+03  0.96472265020E+02 0.  0.
          3    1    3    3  502    0 -0.27302136491E+03 -0.32006610005E+03 -0.47124666954E+03  0.63170910841E+03  0.00000000000E+00 0. -1.
         -3    1    3    3    0  502 -0.23206359699E+02 -0.90043881070E+02 -0.12009526627E+03  0.15188584078E+03  0.00000000000E+00 0.  1.
         13    1    5    5    0    0 -0.10107218551E+03 -0.81084404677E+02  0.40379229632E+02  0.13572306198E+03  0.00000000000E+00 0. -1.
        -13    1    5    5    0    0 -0.15265308009E+03 -0.44208801848E+01  0.49542197495E+02  0.16055197406E+03  0.00000000000E+00 0.  1.
          3    1    6    6  503    0  0.28246773638E+03  0.19005467737E+03  0.95830059103E+02  0.35368376089E+03  0.00000000000E+00 0. -1.
         -3    1    6    6    0  503  0.26748525384E+03  0.30556058861E+03  0.12234921182E+03  0.42412847577E+03  0.00000000000E+00 0.  1.
<mgrwt>
<rscale>  0 0.18359623E+04</rscale>
<asrwt>0</asrwt>
<pdfrwt beam="1">  1        2 0.16468642E+00 0.18359623E+04</pdfrwt>
<pdfrwt beam="2">  1       -2 0.12111085E+00 0.18359623E+04</pdfrwt>
<totfact> 0.11103602E+01</totfact>
</mgrwt>
</event>
<event>
12    3  0.4634846E-008  0.1751969E+04  0.7818608E-02  0.8732267E-01
         -2   -1    0    0    0  501 -0.00000000000E+00  0.00000000000E+00  0.74175708442E+03  0.74175708442E+03  0.00000000000E+00 0.  1.
          2   -1    0    0  501    0  0.00000000000E+00 -0.00000000000E+00 -0.10345016445E+04  0.10345016445E+04  0.00000000000E+00 0. -1.
         23    2    1    2    0    0 -0.24061395619E+03  0.19465686423E+03  0.45718663840E+03  0.56146101786E+03  0.10213951996E+03 0.  0.
        254    2    1    2    0    0  0.24061395619E+03 -0.19465686423E+03 -0.74993119845E+03  0.12147977110E+04  0.90418488463E+03 0.  0.
         23    2    4    4    0    0 -0.11695395395E+03 -0.40551830298E+03 -0.64634988829E+03  0.77758462066E+03  0.93521884081E+02 0.  0.
         23    2    4    4    0    0  0.35756791015E+03  0.21086143874E+03 -0.10358131016E+03  0.43721309036E+03  0.90049108018E+02 0.  0.
          1    1    3    3  502    0 -0.42516464045E+02  0.42732011399E+02  0.31609450989E+02  0.68064909497E+02  0.00000000000E+00 0. -1.
         -1    1    3    3    0  502 -0.19809749215E+03  0.15192485284E+03  0.42557718741E+03  0.49339610836E+03  0.00000000000E+00 0.  1.
         13    1    5    5    0    0 -0.47359962804E+02 -0.17523068719E+03 -0.19692321279E+03  0.26781992372E+03  0.00000000000E+00 0.  1.
        -13    1    5    5    0    0 -0.69593991149E+02 -0.23028761579E+03 -0.44942667550E+03  0.50976469694E+03  0.00000000000E+00 0. -1.
          2    1    6    6  503    0  0.21618166102E+03  0.17436319434E+03 -0.82130730787E+02  0.28962474176E+03  0.00000000000E+00 0. -1.
         -2    1    6    6    0  503  0.14138624913E+03  0.36498244400E+02 -0.21450579376E+02  0.14758834860E+03  0.00000000000E+00 0.  1.
<mgrwt>
<rscale>  0 0.17519691E+04</rscale>
<asrwt>0</asrwt>
<pdfrwt beam="1">  1        2 0.15915410E+00 0.17519691E+04</pdfrwt>
<pdfrwt beam="2">  1       -2 0.11411648E+00 0.17519691E+04</pdfrwt>
<totfact> 0.13634781E+01</totfact>
</mgrwt>
</event>
<event>
12    3  0.4634846E-008  0.1530192E+04  0.7818608E-02  0.8864620E-01
          2   -1    0    0  501    0  0.00000000000E+00  0.00000000000E+00  0.27890753087E+04  0.27890753087E+04  0.00000000000E+00 0. -1.
         -2   -1    0    0    0  501 -0.00000000000E+00 -0.00000000000E+00 -0.20988039778E+03  0.20988039778E+03  0.00000000000E+00 0.  1.
         23    2    1    2    0    0  0.28984212561E+03 -0.34855025635E+03  0.47886692902E+03  0.66702492051E+03  0.10056326316E+03 0.  0.
        254    2    1    2    0    0 -0.28984212561E+03  0.34855025635E+03  0.21003279819E+04  0.23319307860E+04  0.90610585477E+03 0.  0.
         23    2    4    4    0    0 -0.33302583806E+03 -0.13225858819E+03  0.33997502102E+03  0.50429812892E+03  0.10166142308E+03 0.  0.
         23    2    4    4    0    0  0.43183712456E+02  0.48080884454E+03  0.17603529609E+04  0.18276326571E+04  0.91414464186E+02 0.  0.
          2    1    3    3  502    0  0.73323146643E+02 -0.45598793691E+02  0.13448518255E+03  0.15981801571E+03  0.00000000000E+00 0. -1.
         -2    1    3    3    0  502  0.21651897897E+03 -0.30295146266E+03  0.34438174647E+03  0.50720690480E+03  0.00000000000E+00 0.  1.
         13    1    5    5    0    0 -0.33164003432E+03 -0.12245031285E+03  0.34430934359E+03  0.49348567919E+03  0.00000000000E+00 0. -1.
        -13    1    5    5    0    0 -0.13858037430E+01 -0.98082753347E+01 -0.43343225652E+01  0.10812449730E+02  0.00000000000E+00 0.  1.
          3    1    6    6  503    0  0.58852146949E+02  0.38952699485E+03  0.13145519760E+04  0.13723125565E+04  0.00000000000E+00 0. -1.
         -3    1    6    6    0  503 -0.15668434493E+02  0.91281849688E+02  0.44580098484E+03  0.45532010059E+03  0.00000000000E+00 0.  1.
<mgrwt>
<rscale>  0 0.15301925E+04</rscale>
<asrwt>0</asrwt>
<pdfrwt beam="1">  1        2 0.42908848E+00 0.15301925E+04</pdfrwt>
<pdfrwt beam="2">  1       -2 0.32289294E-01 0.15301925E+04</pdfrwt>
<totfact> 0.20311164E+01</totfact>
</mgrwt>
</event>
<event>
12    3  0.4634846E-008  0.2117433E+04  0.7818608E-02  0.8553603E-01
         -1   -1    0    0    0  501 -0.00000000000E+00  0.00000000000E+00  0.20330460262E+04  0.20330460262E+04  0.00000000000E+00 0.  1.
          1   -1    0    0  501    0  0.00000000000E+00 -0.00000000000E+00 -0.55133052002E+03  0.55133052002E+03  0.00000000000E+00 0. -1.
         23    2    1    2    0    0 -0.57472665275E+03 -0.59549356526E+03  0.76509258055E+03  0.11311675710E+04  0.96177467665E+02 0.  0.
        254    2    1    2    0    0  0.57472665275E+03  0.59549356526E+03  0.71662292560E+03  0.14532089752E+04  0.95569063841E+03 0.  0.
         23    2    4    4    0    0  0.78917360317E+03  0.44554767043E+03  0.31168847028E+03  0.96262896748E+03  0.90537969700E+02 0.  0.
         23    2    4    4    0    0 -0.21444695042E+03  0.14994589483E+03  0.40493445531E+03  0.49058000768E+03  0.90694900149E+02 0.  0.
          3    1    3    3  502    0 -0.12565123675E+03 -0.78967471297E+02  0.14848756303E+03  0.20993487370E+03  0.00000000000E+00 0. -1.
         -3    1    3    3    0  502 -0.44907541600E+03 -0.51652609396E+03  0.61660501752E+03  0.92123269733E+03  0.00000000000E+00 0.  1.
         13    1    5    5    0    0  0.67541692588E+03  0.34481314969E+03  0.24788012702E+03  0.79782748093E+03  0.00000000000E+00 0. -1.
        -13    1    5    5    0    0  0.11375667729E+03  0.10073452075E+03  0.63808343265E+02  0.16480148655E+03  0.00000000000E+00 0.  1.
          3    1    6    6  503    0 -0.15258956707E+03  0.89708185903E+02  0.33722013947E+03  0.38085240850E+03  0.00000000000E+00 0. -1.
         -3    1    6    6    0  503 -0.61857383346E+02  0.60237708926E+02  0.67714315849E+02  0.10972759918E+03  0.00000000000E+00 0.  1.
<mgrwt>
<rscale>  0 0.21174327E+04</rscale>
<asrwt>0</asrwt>
<pdfrwt beam="1">  1        1 0.84820081E-01 0.21174327E+04</pdfrwt>
<pdfrwt beam="2">  1       -1 0.31277631E+00 0.21174327E+04</pdfrwt>
<totfact> 0.96900554E-01</totfact>
</mgrwt>
</event>
<event>
12    3  0.4634846E-008  0.2495727E+04  0.7818608E-02  0.8404510E-01
         -1   -1    0    0    0  501 -0.00000000000E+00  0.00000000000E+00  0.20459212222E+04  0.20459212222E+04  0.00000000000E+00 0.  1.
          1   -1    0    0  501    0  0.00000000000E+00 -0.00000000000E+00 -0.76110599333E+03  0.76110599333E+03  0.00000000000E+00 0. -1.
         23    2    1    2    0    0  0.71524512863E+02 -0.12352857948E+03  0.17789543465E+04  0.17870355823E+04  0.91883292374E+02 0.  0.
        254    2    1    2    0    0 -0.71524512863E+02  0.12352857948E+03 -0.49413911765E+03  0.10199916333E+04  0.88081462207E+03 0.  0.
         23    2    4    4    0    0 -0.18445132372E+03  0.39085720407E+03 -0.23263191446E+01  0.44176215480E+03  0.91415233165E+02 0.  0.
         23    2    4    4    0    0  0.11292681086E+03 -0.26732862459E+03 -0.49181279850E+03  0.57822947847E+03  0.90842957121E+02 0.  0.
          4    1    3    3  502    0  0.47720807843E+02 -0.20618010701E+02  0.94340058152E+03  0.94483174962E+03  0.00000000000E+00 0. -1.
         -4    1    3    3    0  502  0.23803705020E+02 -0.10291056878E+03  0.83555376498E+03  0.84220383264E+03  0.00000000000E+00 0.  1.
         13    1    5    5    0    0 -0.97956157756E+01  0.17135677292E+02 -0.21000343381E+02  0.28820130929E+02  0.00000000000E+00 0.  1.
        -13    1    5    5    0    0 -0.17465570795E+03  0.37372152678E+03  0.18674024236E+02  0.41294202387E+03  0.00000000000E+00 0. -1.
          1    1    6    6  503    0  0.43502590314E+02 -0.20648543330E+03 -0.36043225006E+03  0.41766028829E+03  0.00000000000E+00 0. -1.
         -1    1    6    6    0  503  0.69424220548E+02 -0.60843191287E+02 -0.13138054844E+03  0.16056919017E+03  0.00000000000E+00 0.  1.
<mgrwt>
<rscale>  0 0.24957267E+04</rscale>
<asrwt>0</asrwt>
<pdfrwt beam="1">  1        1 0.11709323E+00 0.24957267E+04</pdfrwt>
<pdfrwt beam="2">  1       -1 0.31475711E+00 0.24957267E+04</pdfrwt>
<totfact> 0.56334933E-01</totfact>
</mgrwt>
</event>
<event>
12    3  0.4634846E-008  0.2999769E+04  0.7818608E-02  0.8243797E-01
          2   -1    0    0  501    0  0.00000000000E+00  0.00000000000E+00  0.29372361526E+04  0.29372361526E+04  0.00000000000E+00 0. -1.
         -2   -1    0    0    0  501 -0.00000000000E+00 -0.00000000000E+00 -0.76590805269E+03  0.76590805269E+03  0.00000000000E+00 0.  1.
         23    2    1    2    0    0 -0.16671435420E+03  0.49774316168E+02  0.26571121701E+04  0.26645544882E+04  0.96614582207E+02 0.  0.
        254    2    1    2    0    0  0.16671435420E+03 -0.49774316168E+02 -0.48578407020E+03  0.10385897171E+04  0.90133860406E+03 0.  0.
         23    2    4    4    0    0 -0.32294579630E+03 -0.12028553868E+03 -0.25838215716E+02  0.35696994870E+03  0.89427807320E+02 0.  0.
         23    2    4    4    0    0  0.48966015049E+03  0.70511222514E+02 -0.45994585449E+03  0.68161976840E+03  0.91194430411E+02 0.  0.
          1    1    3    3  502    0 -0.10226376088E+03 -0.21040078616E+01  0.19382095017E+04  0.19409065861E+04  0.00000000000E+00 0. -1.
         -1    1    3    3    0  502 -0.64450593317E+02  0.51878324030E+02  0.71890266843E+03  0.72364790206E+03  0.00000000000E+00 0.  1.
         13    1    5    5    0    0 -0.88623709912E+02 -0.27268235451E+00 -0.30310752695E+02  0.93664176947E+02  0.00000000000E+00 0.  1.
        -13    1    5    5    0    0 -0.23432208639E+03 -0.12001285633E+03  0.44725369797E+01  0.26330577175E+03  0.00000000000E+00 0. -1.
          3    1    6    6  503    0  0.45238331584E+03  0.81586595418E+02 -0.44549262933E+03  0.64013336094E+03  0.00000000000E+00 0. -1.
         -3    1    6    6    0  503  0.37276834654E+02 -0.11075372905E+02 -0.14453225157E+02  0.41486407463E+02  0.00000000000E+00 0.  1.
<mgrwt>
<rscale>  0 0.29997685E+04</rscale>
<asrwt>0</asrwt>
<pdfrwt beam="1">  1        2 0.45188248E+00 0.29997685E+04</pdfrwt>
<pdfrwt beam="2">  1       -2 0.11783201E+00 0.29997685E+04</pdfrwt>
<totfact> 0.90561440E-01</totfact>
</mgrwt>
</event>
<event>
12    3  0.4634846E-008  0.1639421E+04  0.7818608E-02  0.8796689E-01
         -1   -1    0    0    0  501 -0.00000000000E+00  0.00000000000E+00  0.52751794914E+03  0.52751794914E+03  0.00000000000E+00 0.  1.
          1   -1    0    0  501    0  0.00000000000E+00 -0.00000000000E+00 -0.12737491895E+04  0.12737491895E+04  0.00000000000E+00 0. -1.
         23    2    1    2    0    0  0.23987153511E+03 -0.13819634757E+03 -0.85600797957E+03  0.90415449573E+03  0.90050581487E+02 0.  0.
        254    2    1    2    0    0 -0.23987153511E+03  0.13819634757E+03  0.10977673923E+03  0.89711264288E+03  0.84624085088E+03 0.  0.
         23    2    4    4    0    0 -0.29565738134E+03  0.41270674102E+03  0.24685794537E+03  0.57189011455E+03  0.91538607768E+02 0.  0.
         23    2    4    4    0    0  0.55785846230E+02 -0.27451039345E+03 -0.13708120614E+03  0.32522252832E+03  0.92251932781E+02 0.  0.
          2    1    3    3  502    0  0.15060540228E+03 -0.79936406542E+02 -0.65262350974E+03  0.67452891840E+03  0.00000000000E+00 0. -1.
         -2    1    3    3    0  502  0.89266132827E+02 -0.58259941026E+02 -0.20338446983E+03  0.22962557733E+03  0.00000000000E+00 0.  1.
         13    1    5    5    0    0 -0.14602107156E+03  0.23837562049E+03  0.89882910657E+02  0.29363928112E+03  0.00000000000E+00 0. -1.
        -13    1    5    5    0    0 -0.14963630978E+03  0.17433112052E+03  0.15697503471E+03  0.27825083344E+03  0.00000000000E+00 0.  1.
          4    1    6    6  503    0  0.66089759403E+02 -0.13718710693E+03 -0.42281904977E+02  0.15803771099E+03  0.00000000000E+00 0. -1.
         -4    1    6    6    0  503 -0.10303913174E+02 -0.13732328651E+03 -0.94799301158E+02  0.16718481733E+03  0.00000000000E+00 0.  1.
<mgrwt>
<rscale>  0 0.16394213E+04</rscale>
<asrwt>0</asrwt>
<pdfrwt beam="1">  1        1 0.19596141E+00 0.16394213E+04</pdfrwt>
<pdfrwt beam="2">  1       -1 0.81156609E-01 0.16394213E+04</pdfrwt>
<totfact> 0.13668537E+01</totfact>
</mgrwt>
</event>
<event>
12    3  0.4634846E-008  0.1492355E+04  0.7818608E-02  0.8889553E-01
         -2   -1    0    0    0  501 -0.00000000000E+00  0.00000000000E+00  0.33726176596E+03  0.33726176596E+03  0.00000000000E+00 0.  1.
          2   -1    0    0  501    0  0.00000000000E+00 -0.00000000000E+00 -0.16508856423E+04  0.16508856423E+04  0.00000000000E+00 0. -1.
         23    2    1    2    0    0 -0.20271631883E+03  0.24231659402E+03 -0.87246319570E+03  0.93203579544E+03  0.87678152741E+02 0.  0.
        254    2    1    2    0    0  0.20271631883E+03 -0.24231659402E+03 -0.44116068062E+03  0.10561116128E+04  0.90605615439E+03 0.  0.
         23    2    4    4    0    0  0.42993093309E+01  0.24401975237E+03 -0.45342152821E+03  0.52322286617E+03  0.92773713067E+02 0.  0.
         23    2    4    4    0    0  0.19841700950E+03 -0.48633634640E+03  0.12260847585E+02  0.53288874662E+03  0.89037836951E+02 0.  0.
          2    1    3    3  502    0 -0.39540641018E+01  0.11564614362E+02 -0.11487331091E+03  0.11552165377E+03  0.00000000000E+00 0.  1.
         -2    1    3    3    0  502 -0.19876225473E+03  0.23075197966E+03 -0.75758988479E+03  0.81651414168E+03  0.00000000000E+00 0. -1.
         13    1    5    5    0    0  0.11537131392E+02  0.22633052875E+03 -0.34264219476E+03  0.41080687345E+03  0.00000000000E+00 0. -1.
        -13    1    5    5    0    0 -0.72378220613E+01  0.17689223622E+02 -0.11077933345E+03  0.11241599272E+03  0.00000000000E+00 0.  1.
          3    1    6    6  503    0  0.70429420320E+02 -0.20049233787E+03 -0.37453222513E+02  0.21577818395E+03  0.00000000000E+00 0. -1.
         -3    1    6    6    0  503  0.12798758918E+03 -0.28584400853E+03  0.49714070099E+02  0.31711056268E+03  0.00000000000E+00 0.  1.
<mgrwt>
<rscale>  0 0.14923547E+04</rscale>
<asrwt>0</asrwt>
<pdfrwt beam="1">  1        2 0.25398241E+00 0.14923547E+04</pdfrwt>
<pdfrwt beam="2">  1       -2 0.51886426E-01 0.14923547E+04</pdfrwt>
<totfact> 0.35412103E+01</totfact>
</mgrwt>
</event>
<event>
12    3  0.4634846E-008  0.1525048E+04  0.7818608E-02  0.8867965E-01
          1   -1    0    0  501    0  0.00000000000E+00  0.00000000000E+00  0.12608460507E+04  0.12608460507E+04  0.00000000000E+00 0. -1.
         -1   -1    0    0    0  501 -0.00000000000E+00 -0.00000000000E+00 -0.46115284399E+03  0.46115284399E+03  0.00000000000E+00 0.  1.
         23    2    1    2    0    0 -0.26332490619E+03  0.19668590532E+03 -0.15252197241E+03  0.37345266360E+03  0.90435547806E+02 0.  0.
        254    2    1    2    0    0  0.26332490619E+03 -0.19668590532E+03  0.95221517909E+03  0.13485462311E+04  0.89657004103E+03 0.  0.
         23    2    4    4    0    0  0.98809306544E+02 -0.16082976591E+03  0.10915726702E+04  0.11114644639E+04  0.90514460764E+02 0.  0.
         23    2    4    4    0    0  0.16451559965E+03 -0.35856139410E+02 -0.13935749112E+03  0.23708176712E+03  0.91848836192E+02 0.  0.
          4    1    3    3  502    0 -0.26524622673E+02  0.55409987981E+01 -0.41399330196E+02  0.49478912845E+02  0.00000000000E+00 0. -1.
         -4    1    3    3    0  502 -0.23680028352E+03  0.19114490652E+03 -0.11112264222E+03  0.32397375075E+03  0.00000000000E+00 0.  1.
         13    1    5    5    0    0 -0.12607730567E+02 -0.14859210790E+02  0.47103017993E+02  0.50974947959E+02  0.00000000000E+00 0.  1.
        -13    1    5    5    0    0  0.11141703711E+03 -0.14597055512E+03  0.10444696522E+04  0.10604895160E+04  0.00000000000E+00 0. -1.
          2    1    6    6  503    0  0.74054230212E+02 -0.12100821648E+02 -0.12006520953E+03  0.14158429799E+03  0.00000000000E+00 0. -1.
         -2    1    6    6    0  503  0.90461369436E+02 -0.23755317762E+02 -0.19292281588E+02  0.95497469135E+02  0.00000000000E+00 0.  1.
<mgrwt>
<rscale>  0 0.15250479E+04</rscale>
<asrwt>0</asrwt>
<pdfrwt beam="1">  1        1 0.19397631E+00 0.15250479E+04</pdfrwt>
<pdfrwt beam="2">  1       -1 0.70946592E-01 0.15250479E+04</pdfrwt>
<totfact> 0.18698842E+01</totfact>
</mgrwt>
</event>
<event>
12    3  0.4634846E-008  0.1299252E+04  0.7818608E-02  0.9030159E-01
          2   -1    0    0  501    0  0.00000000000E+00  0.00000000000E+00  0.10840931323E+04  0.10840931323E+04  0.00000000000E+00 0. -1.
         -2   -1    0    0    0  501 -0.00000000000E+00 -0.00000000000E+00 -0.38927824245E+03  0.38927824245E+03  0.00000000000E+00 0.  1.
         23    2    1    2    0    0  0.14267320860E+03 -0.14804730174E+03  0.49743100891E+03  0.54633759246E+03  0.93667007596E+02 0.  0.
        254    2    1    2    0    0 -0.14267320860E+03  0.14804730174E+03  0.19738388093E+03  0.92703378229E+03  0.88213241015E+03 0.  0.
         23    2    4    4    0    0  0.33415228026E+03 -0.81658662023E+01  0.22741487020E+03  0.41625598202E+03  0.99131688179E+02 0.  0.
         23    2    4    4    0    0 -0.47682548886E+03  0.15621316794E+03 -0.30030989269E+02  0.51077780027E+03  0.90702812893E+02 0.  0.
          4    1    3    3  502    0  0.76009311953E+01  0.12704988903E+02  0.48943751356E+02  0.51133958334E+02  0.00000000000E+00 0.  1.
         -4    1    3    3    0  502  0.13507227740E+03 -0.16075229064E+03  0.44848725755E+03  0.49520363413E+03  0.00000000000E+00 0. -1.
         13    1    5    5    0    0  0.21647603452E+03 -0.51653473917E+02  0.15737192721E+03  0.27257270289E+03  0.00000000000E+00 0. -1.
        -13    1    5    5    0    0  0.11767624574E+03  0.43487607715E+02  0.70042942994E+02  0.14368327913E+03  0.00000000000E+00 0.  1.
          3    1    6    6  503    0 -0.39660624360E+03  0.10008065993E+03 -0.45848765563E+02  0.41160024327E+03  0.00000000000E+00 0. -1.
         -3    1    6    6    0  503 -0.80219245257E+02  0.56132508013E+02  0.15817776294E+02  0.99177556999E+02  0.00000000000E+00 0.  1.
<mgrwt>
<rscale>  0 0.12992519E+04</rscale>
<asrwt>0</asrwt>
<pdfrwt beam="1">  1        2 0.16678356E+00 0.12992519E+04</pdfrwt>
<pdfrwt beam="2">  1       -2 0.59888961E-01 0.12992519E+04</pdfrwt>
<totfact> 0.56804448E+01</totfact>
</mgrwt>
</event>
<event>
12    3  0.4634846E-008  0.1515073E+04  0.7818608E-02  0.8874491E-01
         -2   -1    0    0    0  501 -0.00000000000E+00  0.00000000000E+00  0.28243966831E+03  0.28243966831E+03  0.00000000000E+00 0.  1.
          2   -1    0    0  501    0  0.00000000000E+00 -0.00000000000E+00 -0.20318028304E+04  0.20318028304E+04  0.00000000000E+00 0. -1.
         23    2    1    2    0    0 -0.11640405100E+03 -0.14764817894E+03 -0.12575941981E+04  0.12749261730E+04  0.92432092838E+02 0.  0.
        254    2    1    2    0    0  0.11640405100E+03  0.14764817894E+03 -0.49176896402E+03  0.10393163257E+04  0.89609811016E+03 0.  0.
         23    2    4    4    0    0 -0.38318932902E+03  0.91155475881E+02 -0.23391623234E+03  0.46689620065E+03  0.90176913748E+02 0.  0.
         23    2    4    4    0    0  0.49959338002E+03  0.56492703055E+02 -0.25785273168E+03  0.57242012504E+03  0.91606754397E+02 0.  0.
          2    1    3    3  502    0 -0.12314001256E+03 -0.95624106860E+02 -0.87981175927E+03  0.89351897812E+03  0.00000000000E+00 0.  1.
         -2    1    3    3    0  502  0.67359615626E+01 -0.52024072076E+02 -0.37778243879E+03  0.38140719489E+03  0.00000000000E+00 0. -1.
         13    1    5    5    0    0 -0.36827452466E+03  0.65051826370E+02 -0.21807119058E+03  0.43291212710E+03  0.00000000000E+00 0.  1.
        -13    1    5    5    0    0 -0.14914804358E+02  0.26103649511E+02 -0.15845041761E+02  0.33984073552E+02  0.00000000000E+00 0. -1.
          2    1    6    6  503    0  0.99050358801E+02  0.37890823835E+02 -0.25816672734E+02  0.10914755472E+03  0.00000000000E+00 0. -1.
         -2    1    6    6    0  503  0.40054302122E+03  0.18601879220E+02 -0.23203605895E+03  0.46327257032E+03  0.00000000000E+00 0.  1.
<mgrwt>
<rscale>  0 0.15150732E+04</rscale>
<asrwt>0</asrwt>
<pdfrwt beam="1">  1        2 0.31258506E+00 0.15150732E+04</pdfrwt>
<pdfrwt beam="2">  1       -2 0.43452256E-01 0.15150732E+04</pdfrwt>
<totfact> 0.31102256E+01</totfact>
</mgrwt>
</event>
<event>
12    3  0.4634846E-008  0.3186155E+04  0.7818608E-02  0.8192483E-01
          2   -1    0    0  501    0  0.00000000000E+00  0.00000000000E+00  0.97092068452E+03  0.97092068452E+03  0.00000000000E+00 0.  1.
         -2   -1    0    0    0  501 -0.00000000000E+00 -0.00000000000E+00 -0.26139069558E+04  0.26139069558E+04  0.00000000000E+00 0. -1.
         23    2    1    2    0    0  0.43576852946E+03 -0.23619773529E+03  0.79473546988E+03  0.94100578662E+03  0.90575062469E+02 0.  0.
        254    2    1    2    0    0 -0.43576852946E+03  0.23619773529E+03 -0.24377217412E+04  0.26438218537E+04  0.89533408589E+03 0.  0.
         23    2    4    4    0    0 -0.15991372944E+03 -0.33194717918E+03 -0.77519403395E+03  0.86284357885E+03  0.88385070318E+02 0.  0.
         23    2    4    4    0    0 -0.27585480002E+03  0.56814491447E+03 -0.16625277072E+04  0.17809782749E+04  0.94872144112E+02 0.  0.
          3    1    3    3  502    0  0.54312073071E+02 -0.67811858928E+02  0.14047029805E+03  0.16516704915E+03  0.00000000000E+00 0. -1.
         -3    1    3    3    0  502  0.38145645639E+03 -0.16838587636E+03  0.65426517183E+03  0.77583873747E+03  0.00000000000E+00 0.  1.
         13    1    5    5    0    0 -0.16410169912E+03 -0.30473443647E+03 -0.74775631297E+03  0.82397326900E+03  0.00000000000E+00 0. -1.
        -13    1    5    5    0    0  0.41879696763E+01 -0.27212742706E+02 -0.27437720979E+02  0.38870309854E+02  0.00000000000E+00 0.  1.
          2    1    6    6  503    0 -0.26478132690E+03  0.48189186118E+03 -0.14787030968E+04  0.15776221871E+04  0.00000000000E+00 0. -1.
         -2    1    6    6    0  503 -0.11073473123E+02  0.86253053293E+02 -0.18382461046E+03  0.20335608774E+03  0.00000000000E+00 0.  1.
<mgrwt>
<rscale>  0 0.31861553E+04</rscale>
<asrwt>0</asrwt>
<pdfrwt beam="1">  1        2 0.14937241E+00 0.31861553E+04</pdfrwt>
<pdfrwt beam="2">  1       -2 0.40213953E+00 0.31861553E+04</pdfrwt>
<totfact> 0.15923141E-01</totfact>
</mgrwt>
</event>
<event>
12    3  0.4634846E-008  0.2287079E+04  0.7818608E-02  0.8483033E-01
         -1   -1    0    0    0  501 -0.00000000000E+00  0.00000000000E+00  0.49956910462E+03  0.49956910462E+03  0.00000000000E+00 0.  1.
          1   -1    0    0  501    0  0.00000000000E+00 -0.00000000000E+00 -0.26176203756E+04  0.26176203756E+04  0.00000000000E+00 0. -1.
         23    2    1    2    0    0 -0.76489912729E+03  0.52831197110E+03 -0.12718926184E+04  0.15775035052E+04  0.81377285037E+02 0.  0.
        254    2    1    2    0    0  0.76489912729E+03 -0.52831197110E+03 -0.84615865265E+03  0.15396859751E+04  0.88908054898E+03 0.  0.
         23    2    4    4    0    0 -0.12906558588E+03 -0.32647093884E+03 -0.19243863625E+03  0.41023769487E+03  0.89560807313E+02 0.  0.
         23    2    4    4    0    0  0.89396471317E+03 -0.20184103226E+03 -0.65372001640E+03  0.11294482802E+04  0.91601566887E+02 0.  0.
          3    1    3    3  502    0 -0.60732723541E+03  0.39594036769E+03 -0.94206390039E+03  0.11887386332E+04  0.00000000000E+00 0. -1.
         -3    1    3    3    0  502 -0.15757189188E+03  0.13237160341E+03 -0.32982871798E+03  0.38876487200E+03  0.00000000000E+00 0.  1.
         13    1    5    5    0    0 -0.10086466767E+03 -0.28235450266E+03 -0.12495964563E+03  0.32482712232E+03  0.00000000000E+00 0. -1.
        -13    1    5    5    0    0 -0.28200918209E+02 -0.44116436177E+02 -0.67478990618E+02  0.85410572552E+02  0.00000000000E+00 0.  1.
          1    1    6    6  503    0  0.50132451251E+03 -0.13131742640E+03 -0.31772872039E+03  0.60788327258E+03  0.00000000000E+00 0. -1.
         -1    1    6    6    0  503  0.39264020066E+03 -0.70523605863E+02 -0.33599129601E+03  0.52156500760E+03  0.00000000000E+00 0.  1.
<mgrwt>
<rscale>  0 0.22870787E+04</rscale>
<asrwt>0</asrwt>
<pdfrwt beam="1">  1        1 0.40271083E+00 0.22870787E+04</pdfrwt>
<pdfrwt beam="2">  1       -1 0.76856785E-01 0.22870787E+04</pdfrwt>
<totfact> 0.17235412E+00</totfact>
</mgrwt>
</event>
<event>
12    3  0.4634846E-008  0.2201378E+04  0.7818608E-02  0.8517855E-01
          2   -1    0    0  501    0  0.00000000000E+00  0.00000000000E+00  0.25545735910E+04  0.25545735910E+04  0.00000000000E+00 0. -1.
         -2   -1    0    0    0  501 -0.00000000000E+00 -0.00000000000E+00 -0.47425372916E+03  0.47425372916E+03  0.00000000000E+00 0.  1.
         23    2    1    2    0    0 -0.55303797756E+03 -0.21045446123E+03  0.18259334849E+04  0.19212146694E+04  0.83009817358E+02 0.  0.
        254    2    1    2    0    0  0.55303797756E+03  0.21045446123E+03  0.25438637688E+03  0.11076126507E+04  0.90108338702E+03 0.  0.
         23    2    4    4    0    0  0.41495705111E+03  0.28450057321E+03 -0.25161662569E+03  0.56996810952E+03  0.91775754568E+02 0.  0.
         23    2    4    4    0    0  0.13808092645E+03 -0.74046111980E+02  0.50600300257E+03  0.53764454117E+03  0.92051317710E+02 0.  0.
          3    1    3    3  502    0 -0.33111711841E+03 -0.15647630428E+03  0.10305327596E+04  0.10936732366E+04  0.00000000000E+00 0. -1.
         -3    1    3    3    0  502 -0.22192085915E+03 -0.53978156943E+02  0.79540072532E+03  0.82754143280E+03  0.00000000000E+00 0.  1.
         13    1    5    5    0    0  0.38756913944E+03  0.23067235818E+03 -0.22097186547E+03  0.50224310847E+03  0.00000000000E+00 0.  1.
        -13    1    5    5    0    0  0.27387911674E+02  0.53828215031E+02 -0.30644760223E+02  0.67725001059E+02  0.00000000000E+00 0. -1.
          3    1    6    6  503    0  0.12382636947E+03 -0.85641140355E+02  0.35609830838E+03  0.38661787326E+03  0.00000000000E+00 0. -1.
         -3    1    6    6    0  503  0.14254556973E+02  0.11595028375E+02  0.14990469420E+03  0.15102666791E+03  0.00000000000E+00 0.  1.
<mgrwt>
<rscale>  0 0.22013778E+04</rscale>
<asrwt>0</asrwt>
<pdfrwt beam="1">  1        2 0.39301131E+00 0.22013778E+04</pdfrwt>
<pdfrwt beam="2">  1       -2 0.72962114E-01 0.22013778E+04</pdfrwt>
<totfact> 0.50195939E+00</totfact>
</mgrwt>
</event>
<event>
12    3  0.4634846E-008  0.1428191E+04  0.7818608E-02  0.8933661E-01
          2   -1    0    0  501    0  0.00000000000E+00  0.00000000000E+00  0.70053376231E+03  0.70053376231E+03  0.00000000000E+00 0. -1.
         -2   -1    0    0    0  501 -0.00000000000E+00 -0.00000000000E+00 -0.72792025943E+03  0.72792025943E+03  0.00000000000E+00 0.  1.
         23    2    1    2    0    0  0.19729346826E+03 -0.37870245777E+03 -0.16370594278E+02  0.43680032975E+03  0.90477994990E+02 0.  0.
        254    2    1    2    0    0 -0.19729346826E+03  0.37870245777E+03 -0.11015902848E+02  0.99165369198E+03  0.89493878594E+03 0.  0.
         23    2    4    4    0    0 -0.45174096778E+03 -0.64155325925E+02  0.58667395109E+02  0.46836417444E+03  0.87962087480E+02 0.  0.
         23    2    4    4    0    0  0.25444749952E+03  0.44285778370E+03 -0.69683297957E+02  0.52328951755E+03  0.90053376210E+02 0.  0.
          3    1    3    3  502    0 -0.21720692438E+01 -0.20521249535E+02  0.15171549294E+02  0.25612799052E+02  0.00000000000E+00 0. -1.
         -3    1    3    3    0  502  0.19946553750E+03 -0.35818120824E+03 -0.31542143572E+02  0.41118753070E+03  0.00000000000E+00 0.  1.
         13    1    5    5    0    0 -0.54150871796E+02 -0.10683378354E+02 -0.21550940983E+02  0.59252802015E+02  0.00000000000E+00 0.  1.
        -13    1    5    5    0    0 -0.39759009598E+03 -0.53471947571E+02  0.80218336093E+02  0.40911137242E+03  0.00000000000E+00 0. -1.
          3    1    6    6  503    0  0.20329234961E+03  0.34582776534E+03 -0.91487863780E+02  0.41145431328E+03  0.00000000000E+00 0. -1.
         -3    1    6    6    0  503  0.51155149909E+02  0.97030018352E+02  0.21804565823E+02  0.11183520427E+03  0.00000000000E+00 0.  1.
<mgrwt>
<rscale>  0 0.14281915E+04</rscale>
<asrwt>0</asrwt>
<pdfrwt beam="1">  1        2 0.10777443E+00 0.14281915E+04</pdfrwt>
<pdfrwt beam="2">  1       -2 0.11198773E+00 0.14281915E+04</pdfrwt>
<totfact> 0.25011945E+01</totfact>
</mgrwt>
</event>
<event>
12    3  0.4634846E-008  0.1715556E+04  0.7818608E-02  0.8752542E-01
         -1   -1    0    0    0  501 -0.00000000000E+00  0.00000000000E+00  0.38401657675E+03  0.38401657675E+03  0.00000000000E+00 0.  1.
          1   -1    0    0  501    0  0.00000000000E+00 -0.00000000000E+00 -0.19160180467E+04  0.19160180467E+04  0.00000000000E+00 0. -1.
         23    2    1    2    0    0  0.24242647673E+02  0.25816449540E+03  0.19191738459E+03  0.33490703161E+03  0.89965686045E+02 0.  0.
        254    2    1    2    0    0 -0.24242647673E+02 -0.25816449540E+03 -0.17239188545E+04  0.19651275919E+04  0.90696947167E+03 0.  0.
         23    2    4    4    0    0 -0.38365795600E+02  0.32287180561E+03 -0.81418864520E+03  0.88170021512E+03  0.93669537427E+02 0.  0.
         23    2    4    4    0    0  0.14123147927E+02 -0.58103630101E+03 -0.90973020935E+03  0.10834273767E+04  0.91668863053E+02 0.  0.
          1    1    3    3  502    0  0.41381400018E+02  0.67772613177E+02  0.31767236414E+02  0.85526046755E+02  0.00000000000E+00 0. -1.
         -1    1    3    3    0  502 -0.17138752345E+02  0.19039188222E+03  0.16015014818E+03  0.24938098486E+03  0.00000000000E+00 0.  1.
         13    1    5    5    0    0  0.17571867318E+02  0.98195965377E+01 -0.41293768810E+02  0.45938767286E+02  0.00000000000E+00 0.  1.
        -13    1    5    5    0    0 -0.55937662918E+02  0.31305220907E+03 -0.77289487639E+03  0.83576144784E+03  0.00000000000E+00 0. -1.
          1    1    6    6  503    0  0.46726241085E+02 -0.47877134648E+03 -0.74130043368E+03  0.88370338734E+03  0.00000000000E+00 0. -1.
         -1    1    6    6    0  503 -0.32603093158E+02 -0.10226495453E+03 -0.16842977566E+03  0.19972398939E+03  0.00000000000E+00 0.  1.
<mgrwt>
<rscale>  0 0.17155555E+04</rscale>
<asrwt>0</asrwt>
<pdfrwt beam="1">  1        1 0.29477200E+00 0.17155555E+04</pdfrwt>
<pdfrwt beam="2">  1       -1 0.59079474E-01 0.17155555E+04</pdfrwt>
<totfact> 0.93793514E+00</totfact>
</mgrwt>
</event>
<event>
12    3  0.4634846E-008  0.1593876E+04  0.7818608E-02  0.8824319E-01
          1   -1    0    0  501    0  0.00000000000E+00  0.00000000000E+00  0.24589693621E+04  0.24589693621E+04  0.00000000000E+00 0. -1.
         -1   -1    0    0    0  501 -0.00000000000E+00 -0.00000000000E+00 -0.25828297736E+03  0.25828297736E+03  0.00000000000E+00 0.  1.
         23    2    1    2    0    0 -0.46719009423E+03 -0.26790255005E+03  0.78025790582E+03  0.95244541428E+03  0.91167467381E+02 0.  0.
        254    2    1    2    0    0  0.46719009423E+03  0.26790255005E+03  0.14204284789E+04  0.17648069252E+04  0.89826948015E+03 0.  0.
         23    2    4    4    0    0  0.32291064862E+03 -0.18263460155E+03  0.15694152368E+03  0.41240910418E+03  0.88453053506E+02 0.  0.
         23    2    4    4    0    0  0.14427944560E+03  0.45053715159E+03  0.12634869552E+04  0.13523978210E+04  0.93703238116E+02 0.  0.
          2    1    3    3  502    0 -0.44471278726E+03 -0.26511376150E+03  0.76927108014E+03  0.92727167779E+03  0.00000000000E+00 0. -1.
         -2    1    3    3    0  502 -0.22477306970E+02 -0.27887885449E+01  0.10986825685E+02  0.25173736488E+02  0.00000000000E+00 0.  1.
         13    1    5    5    0    0  0.64734822556E+02 -0.14243471640E+02 -0.51128998008E+00  0.66285255926E+02  0.00000000000E+00 0. -1.
        -13    1    5    5    0    0  0.25817582607E+03 -0.16839112991E+03  0.15745281366E+03  0.34612384825E+03  0.00000000000E+00 0.  1.
          3    1    6    6  503    0 -0.36793455635E+01  0.41219554072E+02  0.18137837736E+03  0.18603952536E+03  0.00000000000E+00 0. -1.
         -3    1    6    6    0  503  0.14795879117E+03  0.40931759752E+03  0.10821085778E+04  0.11663582956E+04  0.00000000000E+00 0.  1.
<mgrwt>
<rscale>  0 0.15938757E+04</rscale>
<asrwt>0</asrwt>
<pdfrwt beam="1">  1        1 0.37830296E+00 0.15938757E+04</pdfrwt>
<pdfrwt beam="2">  1       -1 0.39735844E-01 0.15938757E+04</pdfrwt>
<totfact> 0.85773132E+00</totfact>
</mgrwt>
</event>
<event>
12    3  0.4634846E-008  0.1865556E+04  0.7818608E-02  0.8672194E-01
          1   -1    0    0  501    0  0.00000000000E+00  0.00000000000E+00  0.16023008203E+04  0.16023008203E+04  0.00000000000E+00 0. -1.
         -1   -1    0    0    0  501 -0.00000000000E+00 -0.00000000000E+00 -0.54301590085E+03  0.54301590085E+03  0.00000000000E+00 0.  1.
         23    2    1    2    0    0  0.16831578772E+03  0.46480682168E+03 -0.17642459889E+03  0.53304894083E+03  0.92951322491E+02 0.  0.
        254    2    1    2    0    0 -0.16831578772E+03 -0.46480682168E+03  0.12357095183E+04  0.16122677803E+04  0.90997461272E+03 0.  0.
         23    2    4    4    0    0  0.15477746594E+03  0.99825350911E+02 -0.76295364283E+01  0.20613405966E+03  0.92259829162E+02 0.  0.
         23    2    4    4    0    0 -0.32309325366E+03 -0.56463217259E+03  0.12433390547E+04  0.14061337206E+04  0.90118224207E+02 0.  0.
          1    1    3    3  502    0  0.14236523907E+02  0.92470538678E+02 -0.10079411966E+01  0.93565458807E+02  0.00000000000E+00 0. -1.
         -1    1    3    3    0  502  0.15407926381E+03  0.37233628301E+03 -0.17541665769E+03  0.43948348203E+03  0.00000000000E+00 0.  1.
         13    1    5    5    0    0  0.16628825476E+02 -0.93985948850E+01  0.20242248971E+02  0.27831637859E+02  0.00000000000E+00 0.  1.
        -13    1    5    5    0    0  0.13814864047E+03  0.10922394580E+03 -0.27871785399E+02  0.17830242180E+03  0.00000000000E+00 0. -1.
          1    1    6    6  503    0 -0.15230456737E+03 -0.27017691472E+03  0.49702684075E+03  0.58585657538E+03  0.00000000000E+00 0. -1.
         -1    1    6    6    0  503 -0.17078868629E+03 -0.29445525788E+03  0.74631221398E+03  0.82027714524E+03  0.00000000000E+00 0.  1.
<mgrwt>
<rscale>  0 0.18655560E+04</rscale>
<asrwt>0</asrwt>
<pdfrwt beam="1">  1        1 0.24650782E+00 0.18655560E+04</pdfrwt>
<pdfrwt beam="2">  1       -1 0.83540909E-01 0.18655560E+04</pdfrwt>
<totfact> 0.74151239E+00</totfact>
</mgrwt>
</event>
<event>
12    3  0.5838371E-008  0.1841640E+04  0.7818608E-02  0.8684464E-01
          1   -1    0    0  501    0  0.00000000000E+00  0.00000000000E+00  0.79121409093E+03  0.79121409093E+03  0.00000000000E+00 0. -1.
         -1   -1    0    0    0  501 -0.00000000000E+00 -0.00000000000E+00 -0.10716561732E+04  0.10716561732E+04  0.00000000000E+00 0.  1.
         23    2    1    2    0    0  0.42633411135E+03  0.45516447062E+03  0.19771175984E+03  0.66049790190E+03  0.90730747893E+02 0.  0.
        254    2    1    2    0    0 -0.42633411135E+03 -0.45516447062E+03 -0.47815384211E+03  0.12023723622E+04  0.91001798383E+03 0.  0.
         23    2    4    4    0    0 -0.82133004553E+02 -0.64431141745E+03 -0.13005870192E+03  0.66946388635E+03  0.96868963438E+02 0.  0.
         23    2    4    4    0    0 -0.34420110680E+03  0.18914694683E+03 -0.34809514019E+03  0.53290847588E+03  0.92575631921E+02 0.  0.
          2    1    3    3  502    0  0.37857951983E+03  0.41894541278E+03  0.15097099960E+03  0.58449119279E+03  0.00000000000E+00 0. -1.
         -2    1    3    3    0  502  0.47754591522E+02  0.36219057841E+02  0.46740760235E+02  0.76006709109E+02  0.00000000000E+00 0.  1.
         13    1    5    5    0    0 -0.72004882021E+02 -0.64054479843E+03 -0.13322636993E+03  0.65820331773E+03  0.00000000000E+00 0.  1.
        -13    1    5    5    0    0 -0.10128122532E+02 -0.37666190211E+01  0.31676680023E+01  0.11260568611E+02  0.00000000000E+00 0. -1.
          3    1    6    6  503    0 -0.12812899531E+03  0.68743472000E+02 -0.19036173552E+03  0.23954184338E+03  0.00000000000E+00 0. -1.
         -3    1    6    6    0  503 -0.21607211149E+03  0.12040347483E+03 -0.15773340467E+03  0.29336663250E+03  0.00000000000E+00 0.  1.
<mgrwt>
<rscale>  0 0.18416400E+04</rscale>
<asrwt>0</asrwt>
<pdfrwt beam="1">  1        1 0.12172525E+00 0.18416400E+04</pdfrwt>
<pdfrwt beam="2">  1       -1 0.16487018E+00 0.18416400E+04</pdfrwt>
<totfact> 0.56833752E+00</totfact>
</mgrwt>
</event>
<event>
12    3  0.4634846E-008  0.1848148E+04  0.7818608E-02  0.8681106E-01
          2   -1    0    0  501    0  0.00000000000E+00  0.00000000000E+00  0.15741099538E+04  0.15741099538E+04  0.00000000000E+00 0. -1.
         -2   -1    0    0    0  501 -0.00000000000E+00 -0.00000000000E+00 -0.54247366897E+03  0.54247366897E+03  0.00000000000E+00 0.  1.
         23    2    1    2    0    0 -0.42851049218E+03 -0.49511475895E+03  0.67575261569E+03  0.94543843250E+03  0.91936747859E+02 0.  0.
        254    2    1    2    0    0  0.42851049218E+03  0.49511475895E+03  0.35588366916E+03  0.11711451903E+04  0.90342017040E+03 0.  0.
         23    2    4    4    0    0  0.23060936101E+03 -0.24177781642E+03  0.13687314885E+03  0.37243289347E+03  0.91295188035E+02 0.  0.
         23    2    4    4    0    0  0.19790113117E+03  0.73689257537E+03  0.21901052031E+03  0.79871229681E+03  0.88318739306E+02 0.  0.
          3    1    3    3  502    0 -0.37864473604E+03 -0.43743903685E+03  0.63480116248E+03  0.85889304513E+03  0.00000000000E+00 0. -1.
         -3    1    3    3    0  502 -0.49865756142E+02 -0.57675722100E+02  0.40951453205E+02  0.86545387370E+02  0.00000000000E+00 0.  1.
         13    1    5    5    0    0  0.40860960933E+01 -0.22416498636E+02 -0.96244950357E+01  0.24735126785E+02  0.00000000000E+00 0. -1.
        -13    1    5    5    0    0  0.22652326492E+03 -0.21936131779E+03  0.14649764388E+03  0.34769776668E+03  0.00000000000E+00 0.  1.
          2    1    6    6  503    0  0.18804948972E+03  0.59888537799E+03  0.15674898268E+03  0.64699037870E+03  0.00000000000E+00 0.  1.
         -2    1    6    6    0  503  0.98516414528E+01  0.13800719738E+03  0.62261537627E+02  0.15172191811E+03  0.00000000000E+00 0. -1.
<mgrwt>
<rscale>  0 0.18481485E+04</rscale>
<asrwt>0</asrwt>
<pdfrwt beam="1">  1        2 0.24217076E+00 0.18481485E+04</pdfrwt>
<pdfrwt beam="2">  1       -2 0.83457488E-01 0.18481485E+04</pdfrwt>
<totfact> 0.13621823E+01</totfact>
</mgrwt>
</event>
<event>
12    3  0.4634846E-008  0.1065284E+04  0.7818608E-02  0.9239705E-01
          1   -1    0    0  501    0  0.00000000000E+00  0.00000000000E+00  0.49397292989E+03  0.49397292989E+03  0.00000000000E+00 0. -1.
         -1   -1    0    0    0  501 -0.00000000000E+00 -0.00000000000E+00 -0.57433843872E+03  0.57433843872E+03  0.00000000000E+00 0.  1.
         23    2    1    2    0    0 -0.88044046480E+02 -0.63080825976E+02 -0.78565351896E+02  0.16219196437E+03  0.91666646396E+02 0.  0.
        254    2    1    2    0    0  0.88044046480E+02  0.63080825976E+02 -0.18001569341E+01  0.90611940424E+03  0.89962113661E+03 0.  0.
         23    2    4    4    0    0 -0.23215821982E+03 -0.31507576522E+03  0.96092222959E+01  0.40302811248E+03  0.95755654837E+02 0.  0.
         23    2    4    4    0    0  0.32020226630E+03  0.37815659120E+03 -0.11409379230E+02  0.50309129176E+03  0.86248333873E+02 0.  0.
          1    1    3    3  502    0 -0.86972503417E+01 -0.87750983540E+01  0.20628584625E+02  0.24045436537E+02  0.00000000000E+00 0. -1.
         -1    1    3    3    0  502 -0.79346796138E+02 -0.54305727622E+02 -0.99193936521E+02  0.13814652783E+03  0.00000000000E+00 0.  1.
         13    1    5    5    0    0 -0.22535288599E+03 -0.25926836017E+03 -0.95000759082E+01  0.34364845010E+03  0.00000000000E+00 0. -1.
        -13    1    5    5    0    0 -0.68053338330E+01 -0.55807405049E+02  0.19109298204E+02  0.59379662383E+02  0.00000000000E+00 0.  1.
          1    1    6    6  503    0  0.47424797730E+02  0.45351657979E+02  0.27241106297E+02  0.71049012614E+02  0.00000000000E+00 0. -1.
         -1    1    6    6    0  503  0.27277746857E+03  0.33280493322E+03 -0.38650485527E+02  0.43204227914E+03  0.00000000000E+00 0.  1.
<mgrwt>
<rscale>  0 0.10652843E+04</rscale>
<asrwt>0</asrwt>
<pdfrwt beam="1">  1        1 0.75995835E-01 0.10652843E+04</pdfrwt>
<pdfrwt beam="2">  1       -1 0.88359760E-01 0.10652843E+04</pdfrwt>
<totfact> 0.56656648E+01</totfact>
</mgrwt>
</event>
<event>
12    3  0.4634846E-008  0.2423245E+04  0.7818608E-02  0.8430852E-01
         -1   -1    0    0    0  501 -0.00000000000E+00  0.00000000000E+00  0.16486406824E+04  0.16486406824E+04  0.00000000000E+00 0.  1.
          1   -1    0    0  501    0  0.00000000000E+00 -0.00000000000E+00 -0.89044800152E+03  0.89044800152E+03  0.00000000000E+00 0. -1.
         23    2    1    2    0    0 -0.82214603974E+03 -0.40935471005E+03  0.84650339864E+03  0.12524672137E+04  0.92794009928E+02 0.  0.
        254    2    1    2    0    0  0.82214603974E+03  0.40935471005E+03 -0.88310717727E+02  0.12866214702E+04  0.89671658592E+03 0.  0.
         23    2    4    4    0    0  0.49643234958E+03  0.48289331090E+03 -0.41323339242E+03  0.81158312537E+03  0.90963208801E+02 0.  0.
         23    2    4    4    0    0  0.32571369016E+03 -0.73538600847E+02  0.32492267470E+03  0.47503834485E+03  0.92678750374E+02 0.  0.
          3    1    3    3  502    0 -0.66773636805E+02 -0.70860028124E+01  0.56043272376E+02  0.87463011535E+02  0.00000000000E+00 0. -1.
         -3    1    3    3    0  502 -0.75537240293E+03 -0.40226870724E+03  0.79046012626E+03  0.11650042022E+04  0.00000000000E+00 0.  1.
         13    1    5    5    0    0  0.42104634400E+03  0.36652935338E+03 -0.35252528874E+03  0.66022562044E+03  0.00000000000E+00 0. -1.
        -13    1    5    5    0    0  0.75386005580E+02  0.11636395751E+03 -0.60708103685E+02  0.15135750493E+03  0.00000000000E+00 0.  1.
          3    1    6    6  503    0  0.31858272048E+03 -0.79110411739E+02  0.32931856009E+03  0.46497754897E+03  0.00000000000E+00 0. -1.
         -3    1    6    6    0  503  0.71309696844E+01  0.55718108929E+01 -0.43958853897E+01  0.10060795874E+02  0.00000000000E+00 0.  1.
<mgrwt>
<rscale>  0 0.24232448E+04</rscale>
<asrwt>0</asrwt>
<pdfrwt beam="1">  1        1 0.13699200E+00 0.24232448E+04</pdfrwt>
<pdfrwt beam="2">  1       -1 0.25363703E+00 0.24232448E+04</pdfrwt>
<totfact> 0.10937890E+00</totfact>
</mgrwt>
</event>
<event>
12    3  0.4634846E-008  0.1540147E+04  0.7818608E-02  0.8858186E-01
          2   -1    0    0  501    0  0.00000000000E+00  0.00000000000E+00  0.15570541058E+04  0.15570541058E+04  0.00000000000E+00 0. -1.
         -2   -1    0    0    0  501 -0.00000000000E+00 -0.00000000000E+00 -0.38085573896E+03  0.38085573896E+03  0.00000000000E+00 0.  1.
         23    2    1    2    0    0  0.36781404573E+03  0.20846508966E+03  0.71415912773E+03  0.83482621723E+03  0.90369726126E+02 0.  0.
        254    2    1    2    0    0 -0.36781404573E+03 -0.20846508966E+03  0.46203923910E+03  0.11030836275E+04  0.90805746789E+03 0.  0.
         23    2    4    4    0    0 -0.12681288080E+03  0.34816372647E+03  0.22758125455E+03  0.44667686296E+03  0.10211515715E+03 0.  0.
         23    2    4    4    0    0 -0.24100116493E+03 -0.55662881613E+03  0.23445798455E+03  0.65640676456E+03  0.89342563169E+02 0.  0.
          2    1    3    3  502    0  0.36825606438E+03  0.21446402856E+03  0.70666245199E+03  0.82521462030E+03  0.00000000000E+00 0. -1.
         -2    1    3    3    0  502 -0.44201864410E+00 -0.59989388987E+01  0.74966757436E+01  0.96115969327E+01  0.00000000000E+00 0.  1.
         13    1    5    5    0    0  0.65668304211E+01  0.10197633133E+00 -0.41539423256E+01  0.77710293910E+01  0.00000000000E+00 0.  1.
        -13    1    5    5    0    0 -0.13337971122E+03  0.34806175013E+03  0.23173519687E+03  0.43890583357E+03  0.00000000000E+00 0. -1.
          3    1    6    6  503    0 -0.20539060503E+03 -0.43694727773E+03  0.14969106013E+03  0.50548554641E+03  0.00000000000E+00 0. -1.
         -3    1    6    6    0  503 -0.35610559900E+02 -0.11968153840E+03  0.84766924423E+02  0.15092121814E+03  0.00000000000E+00 0.  1.
<mgrwt>
<rscale>  0 0.15401467E+04</rscale>
<asrwt>0</asrwt>
<pdfrwt beam="1">  1        2 0.23954678E+00 0.15401467E+04</pdfrwt>
<pdfrwt beam="2">  1       -2 0.58593192E-01 0.15401467E+04</pdfrwt>
<totfact> 0.30916154E+01</totfact>
</mgrwt>
</event>
<event>
12    3  0.4634846E-008  0.1302336E+04  0.7818608E-02  0.9027715E-01
          2   -1    0    0  501    0  0.00000000000E+00  0.00000000000E+00  0.65333849008E+03  0.65333849008E+03  0.00000000000E+00 0. -1.
         -2   -1    0    0    0  501 -0.00000000000E+00 -0.00000000000E+00 -0.64900481983E+03  0.64900481983E+03  0.00000000000E+00 0.  1.
         23    2    1    2    0    0  0.21345765193E+03 -0.12212977034E+03 -0.22786886015E+03  0.34742222917E+03  0.91094115766E+02 0.  0.
        254    2    1    2    0    0 -0.21345765193E+03  0.12212977034E+03  0.23220253039E+03  0.95492108074E+03  0.89301534440E+03 0.  0.
         23    2    4    4    0    0 -0.54775014716E+03 -0.45504500899E+01  0.11150660178E+03  0.56670836465E+03  0.93132797751E+02 0.  0.
         23    2    4    4    0    0  0.33429249523E+03  0.12668022043E+03  0.12069592862E+03  0.38821271608E+03  0.91335946524E+02 0.  0.
          3    1    3    3  502    0  0.33417987660E+02 -0.47445777593E+02 -0.95701086683E+02  0.11192212338E+03  0.00000000000E+00 0. -1.
         -3    1    3    3    0  502  0.18003966427E+03 -0.74683992748E+02 -0.13216777346E+03  0.23550010579E+03  0.00000000000E+00 0.  1.
         13    1    5    5    0    0 -0.25487838088E+03  0.40297518490E+02  0.32599744782E+02  0.26009541018E+03  0.00000000000E+00 0.  1.
        -13    1    5    5    0    0 -0.29287176629E+03 -0.44847968580E+02  0.78906856997E+02  0.30661295448E+03  0.00000000000E+00 0. -1.
          2    1    6    6  503    0  0.15591629421E+03  0.91573241068E+02  0.24316199791E+02  0.18244677814E+03  0.00000000000E+00 0. -1.
         -2    1    6    6    0  503  0.17837620102E+03  0.35106979363E+02  0.96379728824E+02  0.20576593794E+03  0.00000000000E+00 0.  1.
<mgrwt>
<rscale>  0 0.13023361E+04</rscale>
<asrwt>0</asrwt>
<pdfrwt beam="1">  1        2 0.10051361E+00 0.13023361E+04</pdfrwt>
<pdfrwt beam="2">  1       -2 0.99846895E-01 0.13023361E+04</pdfrwt>
<totfact> 0.36307408E+01</totfact>
</mgrwt>
</event>
<event>
12    3  0.4634846E-008  0.2026904E+04  0.7818608E-02  0.8594144E-01
         -2   -1    0    0    0  501 -0.00000000000E+00  0.00000000000E+00  0.38992884812E+03  0.38992884812E+03  0.00000000000E+00 0.  1.
          2   -1    0    0  501    0  0.00000000000E+00 -0.00000000000E+00 -0.26340322471E+04  0.26340322471E+04  0.00000000000E+00 0. -1.
         23    2    1    2    0    0  0.58616052206E+03  0.53447683258E+03 -0.64467833663E+03  0.10262634694E+04  0.91416129095E+02 0.  0.
        254    2    1    2    0    0 -0.58616052206E+03 -0.53447683258E+03 -0.15994250624E+04  0.19976976259E+04  0.89631781870E+03 0.  0.
         23    2    4    4    0    0 -0.77083112467E+03 -0.58811286296E+03 -0.12029358784E+04  0.15477649974E+04  0.92002159079E+02 0.  0.
         23    2    4    4    0    0  0.18467060261E+03  0.53636030374E+02 -0.39648918402E+03  0.44993262852E+03  0.90860563183E+02 0.  0.
          2    1    3    3  502    0  0.36066858950E+03  0.32746528523E+03 -0.45214328028E+03  0.66464192644E+03  0.00000000000E+00 0. -1.
         -2    1    3    3    0  502  0.22549193256E+03  0.20701154736E+03 -0.19253505635E+03  0.36162154293E+03  0.00000000000E+00 0.  1.
         13    1    5    5    0    0 -0.54697859532E+02 -0.23526688966E+02 -0.49825270550E+02  0.77639671022E+02  0.00000000000E+00 0.  1.
        -13    1    5    5    0    0 -0.71613326514E+03 -0.56458617399E+03 -0.11531106078E+04  0.14701253263E+04  0.00000000000E+00 0. -1.
          3    1    6    6  503    0  0.79067446161E+02  0.67756970770E+02 -0.16511846174E+03  0.19520956570E+03  0.00000000000E+00 0. -1.
         -3    1    6    6    0  503  0.10560315645E+03 -0.14120940396E+02 -0.23137072227E+03  0.25472306282E+03  0.00000000000E+00 0.  1.
<mgrwt>
<rscale>  0 0.20269042E+04</rscale>
<asrwt>0</asrwt>
<pdfrwt beam="1">  1        2 0.40523573E+00 0.20269042E+04</pdfrwt>
<pdfrwt beam="2">  1       -2 0.59989054E-01 0.20269042E+04</pdfrwt>
<totfact> 0.69856081E+00</totfact>
</mgrwt>
</event>
<event>
12    3  0.4634846E-008  0.2750577E+04  0.7818608E-02  0.8318779E-01
          2   -1    0    0  501    0  0.00000000000E+00  0.00000000000E+00  0.40152276283E+04  0.40152276283E+04  0.00000000000E+00 0. -1.
         -2   -1    0    0    0  501 -0.00000000000E+00 -0.00000000000E+00 -0.47106119341E+03  0.47106119341E+03  0.00000000000E+00 0.  1.
         23    2    1    2    0    0  0.38164057837E+03  0.11582392111E+04  0.17249634830E+04  0.21142467094E+04  0.85863434763E+02 0.  0.
        254    2    1    2    0    0 -0.38164057837E+03 -0.11582392111E+04  0.18192029519E+04  0.23720421122E+04  0.91099769534E+03 0.  0.
         23    2    4    4    0    0 -0.41973865055E+03 -0.12892018578E+04  0.16247153888E+04  0.21181186126E+04  0.92219290047E+02 0.  0.
         23    2    4    4    0    0  0.38098072183E+02  0.13096264670E+03  0.19448756303E+03  0.25392349961E+03  0.89716517700E+02 0.  0.
          4    1    3    3  502    0  0.46983879102E+02  0.93688820047E+02  0.11804407265E+03  0.15785906051E+03  0.00000000000E+00 0. -1.
         -4    1    3    3    0  502  0.33465669927E+03  0.10645503911E+04  0.16069194103E+04  0.19563876489E+04  0.00000000000E+00 0.  1.
         13    1    5    5    0    0 -0.32978129375E+03 -0.94292397013E+03  0.11413951758E+04  0.15167874810E+04  0.00000000000E+00 0.  1.
        -13    1    5    5    0    0 -0.89957356805E+02 -0.34627788770E+03  0.48332021300E+03  0.60133113162E+03  0.00000000000E+00 0. -1.
          4    1    6    6  503    0  0.38517639516E+02  0.11606067405E+03  0.20282930252E+03  0.23684048339E+03  0.00000000000E+00 0. -1.
         -4    1    6    6    0  503 -0.41956733353E+00  0.14901972649E+02 -0.83417394848E+01  0.17083016221E+02  0.00000000000E+00 0.  1.
<mgrwt>
<rscale>  0 0.27505766E+04</rscale>
<asrwt>0</asrwt>
<pdfrwt beam="1">  1        2 0.61772730E+00 0.27505766E+04</pdfrwt>
<pdfrwt beam="2">  1       -2 0.72470956E-01 0.27505766E+04</pdfrwt>
<totfact> 0.50100161E-01</totfact>
</mgrwt>
</event>
<event>
12    3  0.4634846E-008  0.1678514E+04  0.7818608E-02  0.8773715E-01
          2   -1    0    0  501    0  0.00000000000E+00  0.00000000000E+00  0.18849575880E+04  0.18849575880E+04  0.00000000000E+00 0. -1.
         -2   -1    0    0    0  501 -0.00000000000E+00 -0.00000000000E+00 -0.37366994412E+03  0.37366994412E+03  0.00000000000E+00 0.  1.
         23    2    1    2    0    0 -0.54690744085E+03  0.12221608959E+03  0.27749975727E+03  0.63143558640E+03  0.87522928893E+02 0.  0.
        254    2    1    2    0    0  0.54690744085E+03 -0.12221608959E+03  0.12337878866E+04  0.16271919457E+04  0.90081993629E+03 0.  0.
         23    2    4    4    0    0  0.17055051264E+03 -0.65836609793E+02  0.12176728265E+04  0.12346448547E+04  0.90547601897E+02 0.  0.
         23    2    4    4    0    0  0.37635692820E+03 -0.56379479799E+02  0.16115060054E+02  0.39254709099E+03  0.94922812531E+02 0.  0.
          3    1    3    3  502    0 -0.31614577971E+03  0.10934356706E+03  0.18690212159E+03  0.38319260528E+03  0.00000000000E+00 0. -1.
         -3    1    3    3    0  502 -0.23076166113E+03  0.12872522534E+02  0.90597635684E+02  0.24824298112E+03  0.00000000000E+00 0.  1.
         13    1    5    5    0    0  0.89159792907E+02  0.88516753688E+01  0.42754837044E+03  0.43683570126E+03  0.00000000000E+00 0. -1.
        -13    1    5    5    0    0  0.81390719737E+02 -0.74688285162E+02  0.79012445607E+03  0.79780915342E+03  0.00000000000E+00 0.  1.
          1    1    6    6  503    0  0.23455729053E+02 -0.55601436912E+00  0.26129836650E+02  0.35117641446E+02  0.00000000000E+00 0. -1.
         -1    1    6    6    0  503  0.35290119915E+03 -0.55823465429E+02 -0.10014776596E+02  0.35742944955E+03  0.00000000000E+00 0.  1.
<mgrwt>
<rscale>  0 0.16785136E+04</rscale>
<asrwt>0</asrwt>
<pdfrwt beam="1">  1        2 0.28999347E+00 0.16785136E+04</pdfrwt>
<pdfrwt beam="2">  1       -2 0.57487685E-01 0.16785136E+04</pdfrwt>
<totfact> 0.20911832E+01</totfact>
</mgrwt>
</event>
<event>
12    3  0.4634846E-008  0.1646391E+04  0.7818608E-02  0.8792544E-01
         -1   -1    0    0    0  501 -0.00000000000E+00  0.00000000000E+00  0.75904631950E+03  0.75904631950E+03  0.00000000000E+00 0.  1.
          1   -1    0    0  501    0  0.00000000000E+00 -0.00000000000E+00 -0.89276643430E+03  0.89276643430E+03  0.00000000000E+00 0. -1.
         23    2    1    2    0    0  0.15441370219E+03 -0.48445132263E+03 -0.31236074256E+03  0.60351712934E+03  0.90149966683E+02 0.  0.
        254    2    1    2    0    0 -0.15441370219E+03  0.48445132263E+03  0.17864062775E+03  0.10482956245E+04  0.89915213783E+03 0.  0.
         23    2    4    4    0    0 -0.12201505581E+03  0.60516512567E+03  0.42686301338E+03  0.75601683851E+03  0.90757505179E+02 0.  0.
         23    2    4    4    0    0 -0.32398646374E+02 -0.12071380304E+03 -0.24822238563E+03  0.29227878596E+03  0.90504372631E+02 0.  0.
          1    1    3    3  502    0  0.60116791543E+02 -0.32565301218E+03 -0.21382906669E+03  0.39419130219E+03  0.00000000000E+00 0. -1.
         -1    1    3    3    0  502  0.94296910645E+02 -0.15879831045E+03 -0.98531675871E+02  0.20932582714E+03  0.00000000000E+00 0.  1.
         13    1    5    5    0    0 -0.86851942041E+02  0.52095909906E+03  0.32914837566E+03  0.62231848433E+03  0.00000000000E+00 0.  1.
        -13    1    5    5    0    0 -0.35163113774E+02  0.84206026602E+02  0.97714637713E+02  0.13369835418E+03  0.00000000000E+00 0. -1.
          4    1    6    6  503    0 -0.49341154528E+02 -0.70129721206E+02 -0.85728230598E+02  0.12125203853E+03  0.00000000000E+00 0. -1.
         -4    1    6    6    0  503  0.16942508155E+02 -0.50584081831E+02 -0.16249415503E+03  0.17102674743E+03  0.00000000000E+00 0.  1.
<mgrwt>
<rscale>  0 0.16463913E+04</rscale>
<asrwt>0</asrwt>
<pdfrwt beam="1">  1        1 0.13734868E+00 0.16463913E+04</pdfrwt>
<pdfrwt beam="2">  1       -1 0.11677636E+00 0.16463913E+04</pdfrwt>
<totfact> 0.11667824E+01</totfact>
</mgrwt>
</event>
<event>
12    3  0.4634846E-008  0.2367060E+04  0.7818608E-02  0.8451940E-01
          2   -1    0    0  501    0  0.00000000000E+00  0.00000000000E+00  0.22783896178E+04  0.22783896178E+04  0.00000000000E+00 0.  1.
         -2   -1    0    0    0  501 -0.00000000000E+00 -0.00000000000E+00 -0.61479528093E+03  0.61479528093E+03  0.00000000000E+00 0. -1.
         23    2    1    2    0    0 -0.84298320131E+03  0.66668097776E+02  0.32880499854E+02  0.85119230768E+03  0.91552741319E+02 0.  0.
        254    2    1    2    0    0  0.84298320131E+03 -0.66668097776E+02  0.16307138370E+04  0.20419925911E+04  0.89187488514E+03 0.  0.
         23    2    4    4    0    0  0.89120765481E+03 -0.30167495023E+03  0.10870150509E+04  0.14405487322E+04  0.91214414168E+02 0.  0.
         23    2    4    4    0    0 -0.48224453503E+02  0.23500685245E+03  0.54369878618E+03  0.60144385891E+03  0.92587940443E+02 0.  0.
          3    1    3    3  502    0 -0.76213120691E+03  0.68393914567E+02  0.36537577594E+01  0.76520262287E+03  0.00000000000E+00 0. -1.
         -3    1    3    3    0  502 -0.80851994396E+02 -0.17258167911E+01  0.29226742095E+02  0.85989684817E+02  0.00000000000E+00 0.  1.
         13    1    5    5    0    0  0.36844163796E+03 -0.12313745200E+03  0.51809871770E+03  0.64756339763E+03  0.00000000000E+00 0. -1.
        -13    1    5    5    0    0  0.52276601686E+03 -0.17853749823E+03  0.56891633316E+03  0.79298533454E+03  0.00000000000E+00 0.  1.
          2    1    6    6  503    0 -0.53737668530E+02  0.23815777888E+03  0.49085906934E+03  0.54822394203E+03  0.00000000000E+00 0. -1.
         -2    1    6    6    0  503  0.55132150270E+01 -0.31509264311E+01  0.52839716839E+02  0.53219916882E+02  0.00000000000E+00 0.  1.
<mgrwt>
<rscale>  0 0.23670599E+04</rscale>
<asrwt>0</asrwt>
<pdfrwt beam="1">  1        2 0.35052148E+00 0.23670599E+04</pdfrwt>
<pdfrwt beam="2">  1       -2 0.94583891E-01 0.23670599E+04</pdfrwt>
<totfact> 0.39587615E+00</totfact>
</mgrwt>
</event>
<event>
12    3  0.4634846E-008  0.1568091E+04  0.7818608E-02  0.8840394E-01
          1   -1    0    0  501    0  0.00000000000E+00  0.00000000000E+00  0.46274832851E+03  0.46274832851E+03  0.00000000000E+00 0. -1.
         -1   -1    0    0    0  501 -0.00000000000E+00 -0.00000000000E+00 -0.13284266590E+04  0.13284266590E+04  0.00000000000E+00 0.  1.
         23    2    1    2    0    0  0.34543605775E+03 -0.25183518427E+03  0.47562782011E+02  0.43945959615E+03  0.90086005508E+02 0.  0.
        254    2    1    2    0    0 -0.34543605775E+03  0.25183518427E+03 -0.91324111248E+03  0.13517153913E+04  0.90021005305E+03 0.  0.
         23    2    4    4    0    0 -0.36753692239E+03  0.49285274039E+03 -0.89970033754E+03  0.10935017896E+04  0.91094749475E+02 0.  0.
         23    2    4    4    0    0  0.22100864639E+02 -0.24101755613E+03 -0.13540774936E+02  0.25821360177E+03  0.88955050287E+02 0.  0.
          3    1    3    3  502    0  0.22775949226E+03 -0.20598270429E+03  0.82905180748E+01  0.30720024979E+03  0.00000000000E+00 0. -1.
         -3    1    3    3    0  502  0.11767656549E+03 -0.45852479980E+02  0.39272263936E+02  0.13225934636E+03  0.00000000000E+00 0.  1.
         13    1    5    5    0    0 -0.86727200075E+02  0.60312539819E+02 -0.14317300451E+03  0.17792616141E+03  0.00000000000E+00 0. -1.
        -13    1    5    5    0    0 -0.28080972231E+03  0.43254020057E+03 -0.75652733303E+03  0.91557562816E+03  0.00000000000E+00 0.  1.
          4    1    6    6  503    0  0.78941488447E+01 -0.24332398290E+03 -0.12175518027E+02  0.24375627475E+03  0.00000000000E+00 0. -1.
         -4    1    6    6    0  503  0.14206715794E+02  0.23064267708E+01 -0.13652569085E+01  0.14457327019E+02  0.00000000000E+00 0.  1.
<mgrwt>
<rscale>  0 0.15680908E+04</rscale>
<asrwt>0</asrwt>
<pdfrwt beam="1">  1        1 0.71192052E-01 0.15680908E+04</pdfrwt>
<pdfrwt beam="2">  1       -1 0.20437333E+00 0.15680908E+04</pdfrwt>
<totfact> 0.66586912E+00</totfact>
</mgrwt>
</event>
<event>
12    3  0.4634846E-008  0.3005080E+04  0.7818608E-02  0.8242282E-01
          2   -1    0    0  501    0  0.00000000000E+00  0.00000000000E+00  0.16493120412E+04  0.16493120412E+04  0.00000000000E+00 0. -1.
         -2   -1    0    0    0  501 -0.00000000000E+00 -0.00000000000E+00 -0.13688293010E+04  0.13688293010E+04  0.00000000000E+00 0.  1.
         23    2    1    2    0    0  0.47531914958E+03  0.12355566459E+04  0.44545815259E+03  0.13998160776E+04  0.92323162918E+02 0.  0.
        254    2    1    2    0    0 -0.47531914958E+03 -0.12355566459E+04 -0.16497541237E+03  0.16183252646E+04  0.91609565898E+03 0.  0.
         23    2    4    4    0    0 -0.26283336518E+03 -0.37715081640E+03 -0.48377214131E+03  0.67392675621E+03  0.93902459305E+02 0.  0.
         23    2    4    4    0    0 -0.21248578440E+03 -0.85840582946E+03  0.31879672894E+03  0.94439850843E+03  0.90809755652E+02 0.  0.
          2    1    3    3  502    0  0.38354452967E+01  0.28390962995E+00  0.47440844833E+01  0.61071747058E+01  0.00000000000E+00 0. -1.
         -2    1    3    3    0  502  0.47148370428E+03  0.12352727362E+04  0.44071406811E+03  0.13937089029E+04  0.00000000000E+00 0.  1.
         13    1    5    5    0    0 -0.66419044588E+01 -0.60368218685E+02 -0.48396314856E+02  0.77657195505E+02  0.00000000000E+00 0. -1.
        -13    1    5    5    0    0 -0.25619146072E+03 -0.31678259771E+03 -0.43537582646E+03  0.59626956070E+03  0.00000000000E+00 0.  1.
          4    1    6    6  503    0 -0.17274816768E+03 -0.54818494782E+03  0.23205246146E+03  0.61983627784E+03  0.00000000000E+00 0. -1.
         -4    1    6    6    0  503 -0.39737616721E+02 -0.31022088164E+03  0.86744267485E+02  0.32456223060E+03  0.00000000000E+00 0.  1.
<mgrwt>
<rscale>  0 0.30050801E+04</rscale>
<asrwt>0</asrwt>
<pdfrwt beam="1">  1        2 0.25374031E+00 0.30050801E+04</pdfrwt>
<pdfrwt beam="2">  1       -2 0.21058912E+00 0.30050801E+04</pdfrwt>
<totfact> 0.10166607E+00</totfact>
</mgrwt>
</event>
<event>
12    3  0.4634846E-008  0.2236045E+04  0.7818608E-02  0.8503574E-01
          1   -1    0    0  501    0  0.00000000000E+00  0.00000000000E+00  0.26444565475E+04  0.26444565475E+04  0.00000000000E+00 0. -1.
         -1   -1    0    0    0  501 -0.00000000000E+00 -0.00000000000E+00 -0.47267700528E+03  0.47267700528E+03  0.00000000000E+00 0.  1.
         23    2    1    2    0    0 -0.81609023535E+02 -0.18711987674E+03  0.21771011634E+04  0.21885472559E+04  0.91080923554E+02 0.  0.
        254    2    1    2    0    0  0.81609023535E+02  0.18711987674E+03 -0.53216212037E+01  0.92858629686E+03  0.90585336014E+03 0.  0.
         23    2    4    4    0    0 -0.25917746206E+03 -0.24173398235E+03  0.56033104777E+02  0.36984464885E+03  0.89649765141E+02 0.  0.
         23    2    4    4    0    0  0.34078648559E+03  0.42885385910E+03 -0.61354725981E+02  0.55874164801E+03  0.91524672093E+02 0.  0.
          3    1    3    3  502    0 -0.62696089411E+02 -0.14104542958E+03  0.19474575858E+04  0.19535648598E+04  0.00000000000E+00 0. -1.
         -3    1    3    3    0  502 -0.18912934124E+02 -0.46074447163E+02  0.22964357758E+03  0.23498239611E+03  0.00000000000E+00 0.  1.
         13    1    5    5    0    0 -0.15493811647E+03 -0.16304467164E+03  0.76647671016E+02  0.23762207464E+03  0.00000000000E+00 0. -1.
        -13    1    5    5    0    0 -0.10423934559E+03 -0.78689310714E+02 -0.20614566239E+02  0.13222257421E+03  0.00000000000E+00 0.  1.
          3    1    6    6  503    0  0.15057558873E+03  0.19039227117E+03  0.18463242537E+02  0.24344016958E+03  0.00000000000E+00 0. -1.
         -3    1    6    6    0  503  0.19021089687E+03  0.23846158793E+03 -0.79817968518E+02  0.31530147843E+03  0.00000000000E+00 0.  1.
<mgrwt>
<rscale>  0 0.22360445E+04</rscale>
<asrwt>0</asrwt>
<pdfrwt beam="1">  1        1 0.40683946E+00 0.22360445E+04</pdfrwt>
<pdfrwt beam="2">  1       -1 0.72719541E-01 0.22360445E+04</pdfrwt>
<totfact> 0.18614485E+00</totfact>
</mgrwt>
</event>
<event>
12    3  0.4634846E-008  0.9347055E+03  0.7818608E-02  0.9383208E-01
         -1   -1    0    0    0  501 -0.00000000000E+00  0.00000000000E+00  0.42537377479E+03  0.42537377479E+03  0.00000000000E+00 0.  1.
          1   -1    0    0  501    0  0.00000000000E+00 -0.00000000000E+00 -0.51347455166E+03  0.51347455166E+03  0.00000000000E+00 0. -1.
         23    2    1    2    0    0 -0.83263339262E+01  0.64609404329E+02 -0.51571961441E+02  0.12518888108E+03  0.93642328970E+02 0.  0.
        254    2    1    2    0    0  0.83263339262E+01 -0.64609404329E+02 -0.36528815427E+02  0.81365944537E+03  0.81022443540E+03 0.  0.
         23    2    4    4    0    0  0.34140928554E+03 -0.18952804621E+02 -0.22412280378E+03  0.41920680472E+03  0.92648825633E+02 0.  0.
         23    2    4    4    0    0 -0.33308295161E+03 -0.45656599708E+02  0.18759398836E+03  0.39445264065E+03  0.85863866064E+02 0.  0.
          1    1    3    3  502    0 -0.37290868661E+02  0.42904317195E+02  0.60246804763E+01  0.57163678103E+02  0.00000000000E+00 0.  1.
         -1    1    3    3    0  502  0.28964534735E+02  0.21705087134E+02 -0.57596641918E+02  0.68025202977E+02  0.00000000000E+00 0. -1.
         13    1    5    5    0    0  0.16017492469E+03  0.36668066596E+02 -0.11361525313E+03  0.19977231878E+03  0.00000000000E+00 0. -1.
        -13    1    5    5    0    0  0.18123436085E+03 -0.55620871217E+02 -0.11050755066E+03  0.21943448594E+03  0.00000000000E+00 0.  1.
          4    1    6    6  503    0 -0.32119040428E+03 -0.54337004846E+02  0.15943784104E+03  0.36267921233E+03  0.00000000000E+00 0. -1.
         -4    1    6    6    0  503 -0.11892547327E+02  0.86804051385E+01  0.28156147322E+02  0.31773428322E+02  0.00000000000E+00 0.  1.
<mgrwt>
<rscale>  0 0.93470553E+03</rscale>
<asrwt>0</asrwt>
<pdfrwt beam="1">  1        1 0.78996085E-01 0.93470553E+03</pdfrwt>
<pdfrwt beam="2">  1       -1 0.65442119E-01 0.93470553E+03</pdfrwt>
<totfact> 0.10177335E+02</totfact>
</mgrwt>
</event>
<event>
12    3  0.4634846E-008  0.1985961E+04  0.7818608E-02  0.8613212E-01
         -1   -1    0    0    0  501 -0.00000000000E+00  0.00000000000E+00  0.23444895583E+04  0.23444895583E+04  0.00000000000E+00 0.  1.
          1   -1    0    0  501    0  0.00000000000E+00 -0.00000000000E+00 -0.42056521188E+03  0.42056521188E+03  0.00000000000E+00 0. -1.
         23    2    1    2    0    0  0.24496275969E+02  0.17752666035E+03 -0.29798848784E+03  0.35929912267E+03  0.90459593154E+02 0.  0.
        254    2    1    2    0    0 -0.24496275969E+02 -0.17752666035E+03  0.22219128342E+04  0.24057556475E+04  0.90479158362E+03 0.  0.
         23    2    4    4    0    0 -0.17532267127E+03 -0.50312070621E+03  0.14885264900E+04  0.15836472425E+04  0.91427530050E+02 0.  0.
         23    2    4    4    0    0  0.15082639530E+03  0.32559404585E+03  0.73338634422E+03  0.82210840495E+03  0.96159322909E+02 0.  0.
          3    1    3    3  502    0  0.37661207179E+02  0.17997998689E+03 -0.25576593572E+03  0.31500377153E+03  0.00000000000E+00 0. -1.
         -3    1    3    3    0  502 -0.13164931210E+02 -0.24533265314E+01 -0.42222552117E+02  0.44295351134E+02  0.00000000000E+00 0.  1.
         13    1    5    5    0    0 -0.68263977071E+02 -0.31767739120E+03  0.95452993692E+03  0.10083185488E+04  0.00000000000E+00 0. -1.
        -13    1    5    5    0    0 -0.10705869419E+03 -0.18544331500E+03  0.53399655309E+03  0.57532869370E+03  0.00000000000E+00 0.  1.
          2    1    6    6  503    0  0.78398976136E+02  0.26618405809E+03  0.56294953688E+03  0.62762451618E+03  0.00000000000E+00 0. -1.
         -2    1    6    6    0  503  0.72427419161E+02  0.59409987760E+02  0.17043680735E+03  0.19448388877E+03  0.00000000000E+00 0.  1.
<mgrwt>
<rscale>  0 0.19859615E+04</rscale>
<asrwt>0</asrwt>
<pdfrwt beam="1">  1        1 0.64702341E-01 0.19859615E+04</pdfrwt>
<pdfrwt beam="2">  1       -1 0.36069070E+00 0.19859615E+04</pdfrwt>
<totfact> 0.68847575E-01</totfact>
</mgrwt>
</event>
<event>
12    3  0.4634846E-008  0.1477074E+04  0.7818608E-02  0.8899843E-01
         -2   -1    0    0    0  501 -0.00000000000E+00  0.00000000000E+00  0.23143661782E+03  0.23143661782E+03  0.00000000000E+00 0.  1.
          2   -1    0    0  501    0  0.00000000000E+00 -0.00000000000E+00 -0.23567439920E+04  0.23567439920E+04  0.00000000000E+00 0. -1.
         23    2    1    2    0    0 -0.29149873484E+03  0.31333335637E+03 -0.41876227827E+03  0.60512058513E+03  0.87520124671E+02 0.  0.
        254    2    1    2    0    0  0.29149873484E+03 -0.31333335637E+03 -0.17065450959E+04  0.19830600247E+04  0.91492163190E+03 0.  0.
         23    2    4    4    0    0  0.19936609247E+02 -0.16070447539E+03  0.53055862202E+02  0.19376937927E+03  0.92240181214E+02 0.  0.
         23    2    4    4    0    0  0.27156212560E+03 -0.15262888098E+03 -0.17596009581E+04  0.17892906454E+04  0.91235511940E+02 0.  0.
          3    1    3    3  502    0 -0.41926047172E+02  0.94836109874E+02 -0.12125341404E+03  0.15954332196E+03  0.00000000000E+00 0. -1.
         -3    1    3    3    0  502 -0.24957268767E+03  0.21849724649E+03 -0.29750886423E+03  0.44557726317E+03  0.00000000000E+00 0.  1.
         13    1    5    5    0    0  0.56996498264E+02 -0.95051140939E+02  0.27840674748E+02  0.11427345877E+03  0.00000000000E+00 0.  1.
        -13    1    5    5    0    0 -0.37059889016E+02 -0.65653334449E+02  0.25215187454E+02  0.79495920502E+02  0.00000000000E+00 0. -1.
          1    1    6    6  503    0  0.48116359817E+02 -0.90829902916E+01 -0.14632868709E+03  0.15430414596E+03  0.00000000000E+00 0. -1.
         -1    1    6    6    0  503  0.22344576578E+03 -0.14354589069E+03 -0.16132722710E+04  0.16349864994E+04  0.00000000000E+00 0.  1.
<mgrwt>
<rscale>  0 0.14770739E+04</rscale>
<asrwt>0</asrwt>
<pdfrwt beam="1">  1        2 0.36257599E+00 0.14770739E+04</pdfrwt>
<pdfrwt beam="2">  1       -2 0.35605635E-01 0.14770739E+04</pdfrwt>
<totfact> 0.30255586E+01</totfact>
</mgrwt>
</event>
<event>
12    3  0.4634846E-008  0.1360121E+04  0.7818608E-02  0.8983202E-01
         -1   -1    0    0    0  501 -0.00000000000E+00  0.00000000000E+00  0.86518091705E+03  0.86518091705E+03  0.00000000000E+00 0.  1.
          1   -1    0    0  501    0  0.00000000000E+00 -0.00000000000E+00 -0.53454970903E+03  0.53454970903E+03  0.00000000000E+00 0. -1.
         23    2    1    2    0    0  0.15513527737E+03  0.17490233791E+03 -0.20624593089E+03  0.32466078690E+03  0.90606072900E+02 0.  0.
        254    2    1    2    0    0 -0.15513527737E+03 -0.17490233791E+03  0.53687713892E+03  0.10750698392E+04  0.90159875484E+03 0.  0.
         23    2    4    4    0    0 -0.39026624977E+02 -0.19812071972E+03 -0.21468169711E+03  0.30863656533E+03  0.91615508213E+02 0.  0.
         23    2    4    4    0    0 -0.11610865239E+03  0.23218381809E+02  0.75155883603E+03  0.76643327385E+03  0.92514684382E+02 0.  0.
          1    1    3    3  502    0  0.15188520726E+03  0.12905685001E+03 -0.19148062502E+03  0.27638671545E+03  0.00000000000E+00 0. -1.
         -1    1    3    3    0  502  0.32500701149E+01  0.45845487902E+02 -0.14765305871E+02  0.48274071448E+02  0.00000000000E+00 0.  1.
         13    1    5    5    0    0 -0.62148362094E+02 -0.14980154378E+03 -0.18956188810E+03  0.24947270562E+03  0.00000000000E+00 0. -1.
        -13    1    5    5    0    0  0.23121737117E+02 -0.48319175945E+02 -0.25119809009E+02  0.59163859712E+02  0.00000000000E+00 0.  1.
          2    1    6    6  503    0 -0.16279050429E+02 -0.92861932562E+01  0.37624867904E+03  0.37671515678E+03  0.00000000000E+00 0.  1.
         -2    1    6    6    0  503 -0.99829601965E+02  0.32504575065E+02  0.37531015699E+03  0.38971811707E+03  0.00000000000E+00 0. -1.
<mgrwt>
<rscale>  0 0.13601209E+04</rscale>
<asrwt>0</asrwt>
<pdfrwt beam="1">  1        1 0.82238417E-01 0.13601209E+04</pdfrwt>
<pdfrwt beam="2">  1       -1 0.13310476E+00 0.13601209E+04</pdfrwt>
<totfact> 0.18868499E+01</totfact>
</mgrwt>
</event>
<event>
12    3  0.4634846E-008  0.1140509E+04  0.7818608E-02  0.9166584E-01
          1   -1    0    0  501    0  0.00000000000E+00  0.00000000000E+00  0.17813368585E+04  0.17813368585E+04  0.00000000000E+00 0. -1.
         -1   -1    0    0    0  501 -0.00000000000E+00 -0.00000000000E+00 -0.18255407265E+03  0.18255407265E+03  0.00000000000E+00 0.  1.
         23    2    1    2    0    0 -0.62608973734E+02 -0.18229988513E+03  0.41715284389E+03  0.46885961999E+03  0.93057597123E+02 0.  0.
        254    2    1    2    0    0  0.62608973734E+02  0.18229988513E+03  0.11816299420E+04  0.14950313112E+04  0.89538604517E+03 0.  0.
         23    2    4    4    0    0 -0.19669815516E+03 -0.22481666812E+03  0.13672558264E+03  0.34042295643E+03  0.89225589415E+02 0.  0.
         23    2    4    4    0    0  0.25930712890E+03  0.40711655325E+03  0.10449043593E+04  0.11546083547E+04  0.91166099237E+02 0.  0.
          3    1    3    3  502    0 -0.32872023334E+02 -0.16619018007E+03  0.27711769001E+03  0.32479833741E+03  0.00000000000E+00 0. -1.
         -3    1    3    3    0  502 -0.29736950400E+02 -0.16109705064E+02  0.14003515388E+03  0.14406128258E+03  0.00000000000E+00 0.  1.
         13    1    5    5    0    0 -0.16479051717E+03 -0.20863679630E+03  0.14620109846E+03  0.30341388978E+03  0.00000000000E+00 0. -1.
        -13    1    5    5    0    0 -0.31907637990E+02 -0.16179871823E+02 -0.94755158205E+01  0.37009066651E+02  0.00000000000E+00 0.  1.
          3    1    6    6  503    0  0.14557734892E+02  0.79712015733E+02  0.14226838322E+03  0.16372606989E+03  0.00000000000E+00 0.  1.
         -3    1    6    6    0  503  0.24474939401E+03  0.32740453752E+03  0.90263597610E+03  0.99088228484E+03  0.00000000000E+00 0. -1.
<mgrwt>
<rscale>  0 0.11405092E+04</rscale>
<asrwt>0</asrwt>
<pdfrwt beam="1">  1        1 0.27405181E+00 0.11405092E+04</pdfrwt>
<pdfrwt beam="2">  1       -1 0.28085243E-01 0.11405092E+04</pdfrwt>
<totfact> 0.47789682E+01</totfact>
</mgrwt>
</event>
<event>
12    3  0.4634846E-008  0.1712004E+04  0.7818608E-02  0.8754548E-01
          2   -1    0    0  501    0  0.00000000000E+00  0.00000000000E+00  0.21021366001E+04  0.21021366001E+04  0.00000000000E+00 0. -1.
         -2   -1    0    0    0  501 -0.00000000000E+00 -0.00000000000E+00 -0.34856889567E+03  0.34856889567E+03  0.00000000000E+00 0.  1.
         23    2    1    2    0    0  0.41952635327E+03 -0.13450842560E+03  0.22597392321E+02  0.45087238631E+03  0.93168604974E+02 0.  0.
        254    2    1    2    0    0 -0.41952635327E+03  0.13450842560E+03  0.17309703121E+04  0.19998331094E+04  0.89943280275E+03 0.  0.
         23    2    4    4    0    0  0.25686574378E+02 -0.28980764002E+03  0.97291929685E+03  0.10195023094E+04  0.90358908424E+02 0.  0.
         23    2    4    4    0    0 -0.44521292765E+03  0.42431606562E+03  0.75805101523E+03  0.98033080006E+03  0.90268828289E+02 0.  0.
          4    1    3    3  502    0  0.18416207193E+03 -0.10387668148E+03  0.29118274422E+02  0.21343361404E+03  0.00000000000E+00 0. -1.
         -4    1    3    3    0  502  0.23536428133E+03 -0.30631744116E+02 -0.65208821004E+01  0.23743877227E+03  0.00000000000E+00 0.  1.
         13    1    5    5    0    0 -0.10795194041E+02  0.15055445444E+01  0.41547040926E+02  0.42952991613E+02  0.00000000000E+00 0.  1.
        -13    1    5    5    0    0  0.36481768419E+02 -0.29131318457E+03  0.93137225593E+03  0.97654931777E+03  0.00000000000E+00 0. -1.
          1    1    6    6  503    0 -0.44546020918E+03  0.41321314136E+03  0.75436106037E+03  0.96862815753E+03  0.00000000000E+00 0. -1.
         -1    1    6    6    0  503  0.24728153564E+00  0.11102924259E+02  0.36899548643E+01  0.11702642529E+02  0.00000000000E+00 0.  1.
<mgrwt>
<rscale>  0 0.17120040E+04</rscale>
<asrwt>0</asrwt>
<pdfrwt beam="1">  1        2 0.32340562E+00 0.17120040E+04</pdfrwt>
<pdfrwt beam="2">  1       -2 0.53625985E-01 0.17120040E+04</pdfrwt>
<totfact> 0.18257747E+01</totfact>
</mgrwt>
</event>
<event>
12    3  0.4634846E-008  0.1054884E+04  0.7818608E-02  0.9250316E-01
          2   -1    0    0  501    0  0.00000000000E+00  0.00000000000E+00  0.83336011526E+03  0.83336011526E+03  0.00000000000E+00 0. -1.
         -2   -1    0    0    0  501 -0.00000000000E+00 -0.00000000000E+00 -0.33382351149E+03  0.33382351149E+03  0.00000000000E+00 0.  1.
         23    2    1    2    0    0  0.73012750517E+01 -0.86375304862E+01 -0.63356985895E+02  0.11149909439E+03  0.91049573516E+02 0.  0.
        254    2    1    2    0    0 -0.73012750517E+01  0.86375304862E+01  0.56289358967E+03  0.10556845324E+04  0.89302448064E+03 0.  0.
         23    2    4    4    0    0  0.39726231350E+03 -0.34012386659E+01  0.73638506692E+02  0.41430970559E+03  0.91656905508E+02 0.  0.
         23    2    4    4    0    0 -0.40456358855E+03  0.12038769152E+02  0.48925508298E+03  0.64137482677E+03  0.90412958465E+02 0.  0.
          3    1    3    3  502    0 -0.25137891484E+02 -0.22657585742E+02  0.53253345749E+01  0.34258414562E+02  0.00000000000E+00 0. -1.
         -3    1    3    3    0  502  0.32439166536E+02  0.14020055256E+02 -0.68682320470E+02  0.77240679826E+02  0.00000000000E+00 0.  1.
         13    1    5    5    0    0  0.13055631484E+03 -0.31100082507E+02 -0.67475884278E+01  0.13437892851E+03  0.00000000000E+00 0. -1.
        -13    1    5    5    0    0  0.26670599865E+03  0.27698843841E+02  0.80386095120E+02  0.27993077708E+03  0.00000000000E+00 0.  1.
          2    1    6    6  503    0 -0.31385242880E+03  0.46222730216E+02  0.36052076201E+03  0.48022401823E+03  0.00000000000E+00 0. -1.
         -2    1    6    6    0  503 -0.90711159751E+02 -0.34183961064E+02  0.12873432097E+03  0.16115080854E+03  0.00000000000E+00 0.  1.
<mgrwt>
<rscale>  0 0.10548843E+04</rscale>
<asrwt>0</asrwt>
<pdfrwt beam="1">  1        2 0.12820925E+00 0.10548843E+04</pdfrwt>
<pdfrwt beam="2">  1       -2 0.51357464E-01 0.10548843E+04</pdfrwt>
<totfact> 0.11626713E+02</totfact>
</mgrwt>
</event>
<event>
12    3  0.4634846E-008  0.1534216E+04  0.7818608E-02  0.8862013E-01
         -2   -1    0    0    0  501 -0.00000000000E+00  0.00000000000E+00  0.48912132146E+03  0.48912132146E+03  0.00000000000E+00 0.  1.
          2   -1    0    0  501    0  0.00000000000E+00 -0.00000000000E+00 -0.12030846260E+04  0.12030846260E+04  0.00000000000E+00 0. -1.
         23    2    1    2    0    0  0.33479690672E+03  0.23704508665E+02 -0.65448340746E+03  0.74069164513E+03  0.87319585690E+02 0.  0.
        254    2    1    2    0    0 -0.33479690672E+03 -0.23704508665E+02 -0.59479897127E+02  0.95151430237E+03  0.88836407907E+03 0.  0.
         23    2    4    4    0    0 -0.81889332752E+02 -0.41171711355E+03 -0.17500368553E+03  0.46347720807E+03  0.89263587462E+02 0.  0.
         23    2    4    4    0    0 -0.25290757397E+03  0.38801260488E+03  0.11552378840E+03  0.48803709430E+03  0.10157970865E+03 0.  0.
          2    1    3    3  502    0  0.30841626205E+03  0.45688578516E+02 -0.60247962642E+03  0.67837285998E+03  0.00000000000E+00 0. -1.
         -2    1    3    3    0  502  0.26380644672E+02 -0.21984069851E+02 -0.52003781045E+02  0.62318785157E+02  0.00000000000E+00 0.  1.
         13    1    5    5    0    0 -0.88188802731E+02 -0.22069460583E+03 -0.87302731426E+02  0.25318993046E+03  0.00000000000E+00 0.  1.
        -13    1    5    5    0    0  0.62994699788E+01 -0.19102250771E+03 -0.87700954102E+02  0.21028727761E+03  0.00000000000E+00 0. -1.
          1    1    6    6  503    0  0.50296395705E+01  0.43522111955E+02  0.10471389728E+02  0.45045771233E+02  0.00000000000E+00 0.  1.
         -1    1    6    6    0  503 -0.25793721354E+03  0.34449049293E+03  0.10505239867E+03  0.44299132307E+03  0.00000000000E+00 0. -1.
<mgrwt>
<rscale>  0 0.15342156E+04</rscale>
<asrwt>0</asrwt>
<pdfrwt beam="1">  1        2 0.18508994E+00 0.15342156E+04</pdfrwt>
<pdfrwt beam="2">  1       -2 0.75249434E-01 0.15342156E+04</pdfrwt>
<totfact> 0.28813943E+01</totfact>
</mgrwt>
</event>
<event>
12    3  0.4634846E-008  0.2007059E+04  0.7818608E-02  0.8603327E-01
         -1   -1    0    0    0  501 -0.00000000000E+00  0.00000000000E+00  0.61306596805E+03  0.61306596805E+03  0.00000000000E+00 0.  1.
          1   -1    0    0  501    0  0.00000000000E+00 -0.00000000000E+00 -0.16426809917E+04  0.16426809917E+04  0.00000000000E+00 0. -1.
         23    2    1    2    0    0  0.55410866270E+03  0.20576383464E+02 -0.98626708384E+03  0.11350680391E+04  0.90536706146E+02 0.  0.
        254    2    1    2    0    0 -0.55410866270E+03 -0.20576383464E+02 -0.43347939831E+02  0.11206789206E+04  0.97292466391E+03 0.  0.
         23    2    4    4    0    0 -0.17333951007E+03  0.14592420877E+03  0.42335920448E+03  0.48859998935E+03  0.90313194605E+02 0.  0.
         23    2    4    4    0    0 -0.38076915263E+03 -0.16650059224E+03 -0.46670714431E+03  0.63207893129E+03  0.94871608098E+02 0.  0.
          4    1    3    3  502    0  0.13613683529E+03  0.84265949556E+00 -0.32716411737E+03  0.35435900961E+03  0.00000000000E+00 0.  1.
         -4    1    3    3    0  502  0.41797182740E+03  0.19733723968E+02 -0.65910296647E+03  0.78070902952E+03  0.00000000000E+00 0. -1.
         13    1    5    5    0    0 -0.17611222067E+03  0.15319364799E+03  0.39148324064E+03  0.45578825759E+03  0.00000000000E+00 0. -1.
        -13    1    5    5    0    0  0.27727106019E+01 -0.72694392166E+01  0.31875963833E+02  0.32811731757E+02  0.00000000000E+00 0.  1.
          3    1    6    6  503    0 -0.31626532688E+03 -0.14431647936E+03 -0.43503639087E+03  0.55687311354E+03  0.00000000000E+00 0. -1.
         -3    1    6    6    0  503 -0.64503825746E+02 -0.22184112876E+02 -0.31670753439E+02  0.75205817749E+02  0.00000000000E+00 0.  1.
<mgrwt>
<rscale>  0 0.20070594E+04</rscale>
<asrwt>0</asrwt>
<pdfrwt beam="1">  1        1 0.25272015E+00 0.20070594E+04</pdfrwt>
<pdfrwt beam="2">  1       -1 0.94317842E-01 0.20070594E+04</pdfrwt>
<totfact> 0.52621338E+00</totfact>
</mgrwt>
</event>
<event>
12    3  0.4634846E-008  0.1145412E+04  0.7818608E-02  0.9162026E-01
         -1   -1    0    0    0  501 -0.00000000000E+00  0.00000000000E+00  0.34694349294E+03  0.34694349294E+03  0.00000000000E+00 0.  1.
          1   -1    0    0  501    0  0.00000000000E+00 -0.00000000000E+00 -0.94537708030E+03  0.94537708030E+03  0.00000000000E+00 0. -1.
         23    2    1    2    0    0 -0.15902199053E+02  0.64942850309E+02 -0.30312454573E+03  0.32543136870E+03  0.97727333767E+02 0.  0.
        254    2    1    2    0    0  0.15902199053E+02 -0.64942850309E+02 -0.29530904164E+03  0.96688920454E+03  0.91825750748E+03 0.  0.
         23    2    4    4    0    0  0.20803701834E+03 -0.35646105614E+03  0.95391655354E+02  0.43296906439E+03  0.89547513992E+02 0.  0.
         23    2    4    4    0    0 -0.19213481929E+03  0.29151820583E+03 -0.39070069699E+03  0.53392014015E+03  0.10259156063E+03 0.  0.
          4    1    3    3  502    0  0.25916553158E+02  0.25316842173E+02 -0.22747734253E+03  0.23034441949E+03  0.00000000000E+00 0. -1.
         -4    1    3    3    0  502 -0.41818752210E+02  0.39626008137E+02 -0.75647203202E+02  0.95086949207E+02  0.00000000000E+00 0.  1.
         13    1    5    5    0    0  0.93708934876E+02 -0.24560998997E+03  0.52842730670E+02  0.26813799774E+03  0.00000000000E+00 0.  1.
        -13    1    5    5    0    0  0.11432808347E+03 -0.11085106617E+03  0.42548924684E+02  0.16483106665E+03  0.00000000000E+00 0. -1.
          1    1    6    6  503    0 -0.18867103562E+03  0.21208219409E+03 -0.29296300898E+03  0.40792516637E+03  0.00000000000E+00 0. -1.
         -1    1    6    6    0  503 -0.34637836767E+01  0.79436011749E+02 -0.97737688006E+02  0.12599497378E+03  0.00000000000E+00 0.  1.
<mgrwt>
<rscale>  0 0.11454125E+04</rscale>
<asrwt>0</asrwt>
<pdfrwt beam="1">  1        1 0.14544263E+00 0.11454125E+04</pdfrwt>
<pdfrwt beam="2">  1       -1 0.53375922E-01 0.11454125E+04</pdfrwt>
<totfact> 0.58794609E+01</totfact>
</mgrwt>
</event>
<event>
12    3  0.4634846E-008  0.1194052E+04  0.7818608E-02  0.9118079E-01
         -2   -1    0    0    0  501 -0.00000000000E+00  0.00000000000E+00  0.16208064773E+03  0.16208064773E+03  0.00000000000E+00 0.  1.
          2   -1    0    0  501    0  0.00000000000E+00 -0.00000000000E+00 -0.21991534283E+04  0.21991534283E+04  0.00000000000E+00 0. -1.
         23    2    1    2    0    0  0.11735890899E+03  0.23094933036E+02 -0.36077797261E+02  0.15998743972E+03  0.99939401451E+02 0.  0.
        254    2    1    2    0    0 -0.11735890899E+03 -0.23094933036E+02 -0.20009949833E+04  0.22012466363E+04  0.90950499788E+03 0.  0.
         23    2    4    4    0    0 -0.75891328691E+02  0.37904473528E+03 -0.14968814658E+04  0.15487406556E+04  0.92244732856E+02 0.  0.
         23    2    4    4    0    0 -0.41467580299E+02 -0.40213966831E+03 -0.50411351752E+03  0.65250598065E+03  0.90541389398E+02 0.  0.
          4    1    3    3  502    0  0.14681902236E+02  0.19692840828E+02 -0.50586277626E+02  0.56234666508E+02  0.00000000000E+00 0. -1.
         -4    1    3    3    0  502  0.10267700675E+03  0.34020922075E+01  0.14508480365E+02  0.10375277321E+03  0.00000000000E+00 0.  1.
         13    1    5    5    0    0  0.56180947454E+01  0.11624239967E+03 -0.33209151606E+03  0.35189292904E+03  0.00000000000E+00 0.  1.
        -13    1    5    5    0    0 -0.81509423437E+02  0.26280233561E+03 -0.11647899497E+04  0.11968477266E+04  0.00000000000E+00 0. -1.
          1    1    6    6  503    0 -0.13382870070E+02 -0.31173572406E+03 -0.43482352266E+03  0.53519132908E+03  0.00000000000E+00 0. -1.
         -1    1    6    6    0  503 -0.28084710229E+02 -0.90403944255E+02 -0.69289994859E+02  0.11731465157E+03  0.00000000000E+00 0.  1.
<mgrwt>
<rscale>  0 0.11940523E+04</rscale>
<asrwt>0</asrwt>
<pdfrwt beam="1">  1        2 0.33833130E+00 0.11940523E+04</pdfrwt>
<pdfrwt beam="2">  1       -2 0.24935484E-01 0.11940523E+04</pdfrwt>
<totfact> 0.73775833E+01</totfact>
</mgrwt>
</event>
<event>
12    3  0.4634846E-008  0.1398790E+04  0.7818608E-02  0.8954695E-01
          2   -1    0    0  501    0  0.00000000000E+00  0.00000000000E+00  0.19434170757E+04  0.19434170757E+04  0.00000000000E+00 0. -1.
         -2   -1    0    0    0  501 -0.00000000000E+00 -0.00000000000E+00 -0.25169763201E+03  0.25169763201E+03  0.00000000000E+00 0.  1.
         23    2    1    2    0    0  0.18540413875E+03  0.16623102101E+03  0.64288161904E+02  0.27341849916E+03  0.92829202886E+02 0.  0.
        254    2    1    2    0    0 -0.18540413875E+03 -0.16623102101E+03  0.16274312818E+04  0.19216962086E+04  0.99114897671E+03 0.  0.
         23    2    4    4    0    0 -0.50918418134E+03  0.16704647949E+03  0.78220493487E+03  0.95246688870E+03  0.90418787294E+02 0.  0.
         23    2    4    4    0    0  0.32378004260E+03 -0.33327750050E+03  0.84522634691E+03  0.96922931985E+03  0.95344053939E+02 0.  0.
          2    1    3    3  502    0  0.10253824898E+03  0.31882650537E+02  0.17629607758E+02  0.10881819232E+03  0.00000000000E+00 0. -1.
         -2    1    3    3    0  502  0.82865889764E+02  0.13434837048E+03  0.46658554146E+02  0.16460030684E+03  0.00000000000E+00 0.  1.
         13    1    5    5    0    0 -0.16173754810E+03  0.93953902917E+02  0.23845829393E+03  0.30306555113E+03  0.00000000000E+00 0. -1.
        -13    1    5    5    0    0 -0.34744663324E+03  0.73092576571E+02  0.54374664095E+03  0.64940133757E+03  0.00000000000E+00 0.  1.
          4    1    6    6  503    0  0.63930098970E+02 -0.99872470241E+02  0.15015783407E+03  0.19133463617E+03  0.00000000000E+00 0. -1.
         -4    1    6    6    0  503  0.25984994363E+03 -0.23340503026E+03  0.69506851284E+03  0.77789468368E+03  0.00000000000E+00 0.  1.
<mgrwt>
<rscale>  0 0.13987902E+04</rscale>
<asrwt>0</asrwt>
<pdfrwt beam="1">  1        2 0.29898723E+00 0.13987902E+04</pdfrwt>
<pdfrwt beam="2">  1       -2 0.38722714E-01 0.13987902E+04</pdfrwt>
<totfact> 0.44080164E+01</totfact>
</mgrwt>
</event>
<event>
12    3  0.4634846E-008  0.1332303E+04  0.7818608E-02  0.9004334E-01
         -2   -1    0    0    0  501 -0.00000000000E+00  0.00000000000E+00  0.86064382720E+03  0.86064382720E+03  0.00000000000E+00 0. -1.
          2   -1    0    0  501    0  0.00000000000E+00 -0.00000000000E+00 -0.51561132441E+03  0.51561132441E+03  0.00000000000E+00 0.  1.
         23    2    1    2    0    0 -0.12373499201E+03  0.21306292286E+03 -0.17006098611E+03  0.31300893565E+03  0.91365734558E+02 0.  0.
        254    2    1    2    0    0  0.12373499201E+03 -0.21306292286E+03  0.51509348890E+03  0.10632462160E+04  0.89691976012E+03 0.  0.
         23    2    4    4    0    0 -0.35975898440E+03  0.46351413580E+02  0.19497909742E+03  0.42182387743E+03  0.91343060732E+02 0.  0.
         23    2    4    4    0    0  0.48349397641E+03 -0.25941433644E+03  0.32011439148E+03  0.64142233853E+03  0.88809737941E+02 0.  0.
          1    1    3    3  502    0 -0.63929900483E+02  0.50951665178E+02 -0.92971246495E+02  0.12380128043E+03  0.00000000000E+00 0. -1.
         -1    1    3    3    0  502 -0.59805091531E+02  0.16211125768E+03 -0.77089739616E+02  0.18920765522E+03  0.00000000000E+00 0.  1.
         13    1    5    5    0    0 -0.15649402431E+03  0.10118933135E+02  0.35127031437E+02  0.16070681626E+03  0.00000000000E+00 0.  1.
        -13    1    5    5    0    0 -0.20326496008E+03  0.36232480445E+02  0.15985206598E+03  0.26111706117E+03  0.00000000000E+00 0. -1.
          2    1    6    6  503    0  0.32248859945E+03 -0.14166203383E+03  0.16619643544E+03  0.38947180098E+03  0.00000000000E+00 0. -1.
         -2    1    6    6    0  503  0.16100537696E+03 -0.11775230261E+03  0.15391795603E+03  0.25195053755E+03  0.00000000000E+00 0.  1.
<mgrwt>
<rscale>  0 0.13323028E+04</rscale>
<asrwt>0</asrwt>
<pdfrwt beam="1">  1        2 0.79324820E-01 0.13323028E+04</pdfrwt>
<pdfrwt beam="2">  1       -2 0.13240674E+00 0.13323028E+04</pdfrwt>
<totfact> 0.24070351E+01</totfact>
</mgrwt>
</event>
<event>
12    3  0.4634846E-008  0.2455593E+04  0.7818608E-02  0.8418979E-01
         -1   -1    0    0    0  501 -0.00000000000E+00  0.00000000000E+00  0.63084700879E+03  0.63084700879E+03  0.00000000000E+00 0.  1.
          1   -1    0    0  501    0  0.00000000000E+00 -0.00000000000E+00 -0.23896200652E+04  0.23896200652E+04  0.00000000000E+00 0. -1.
         23    2    1    2    0    0 -0.96471236284E+03  0.30829797190E+03 -0.11584807755E+04  0.15414791637E+04  0.91447922247E+02 0.  0.
        254    2    1    2    0    0  0.96471236284E+03 -0.30829797190E+03 -0.60029228091E+03  0.14789879103E+04  0.89517419180E+03 0.  0.
         23    2    4    4    0    0  0.19486969383E+03 -0.30739060990E+03 -0.59577004843E+03  0.70371769874E+03  0.88393802266E+02 0.  0.
         23    2    4    4    0    0  0.76984266901E+03 -0.90736200838E+00 -0.45222324730E+01  0.77527021152E+03  0.91459783221E+02 0.  0.
          2    1    3    3  502    0 -0.84151514539E+03  0.26249945263E+03 -0.10506929054E+04  0.13714989187E+04  0.00000000000E+00 0. -1.
         -2    1    3    3    0  502 -0.12319721746E+03  0.45798519276E+02 -0.10778787011E+03  0.16998024503E+03  0.00000000000E+00 0.  1.
         13    1    5    5    0    0  0.33530738773E+02 -0.10975435331E+03 -0.23884747719E+03  0.26498763344E+03  0.00000000000E+00 0. -1.
        -13    1    5    5    0    0  0.16133895506E+03 -0.19763625659E+03 -0.35692257124E+03  0.43873006530E+03  0.00000000000E+00 0.  1.
          4    1    6    6  503    0 -0.63454747578E+00 -0.47264928131E+01  0.89122470434E-01  0.47697303515E+01  0.00000000000E+00 0. -1.
         -4    1    6    6    0  503  0.77047721649E+03  0.38191308047E+01 -0.46113549434E+01  0.77050048117E+03  0.00000000000E+00 0.  1.
<mgrwt>
<rscale>  0 0.24555933E+04</rscale>
<asrwt>0</asrwt>
<pdfrwt beam="1">  1        1 0.36763386E+00 0.24555933E+04</pdfrwt>
<pdfrwt beam="2">  1       -1 0.97053386E-01 0.24555933E+04</pdfrwt>
<totfact> 0.14691910E+00</totfact>
</mgrwt>
</event>
<event>
12    3  0.4634846E-008  0.1813345E+04  0.7818608E-02  0.8699235E-01
          3   -1    0    0  501    0  0.00000000000E+00  0.00000000000E+00  0.20408601814E+04  0.20408601814E+04  0.00000000000E+00 0. -1.
         -3   -1    0    0    0  501 -0.00000000000E+00 -0.00000000000E+00 -0.40279820254E+03  0.40279820254E+03  0.00000000000E+00 0.  1.
         23    2    1    2    0    0  0.67239761787E+03 -0.12907399461E+03  0.75084781188E+03  0.10202143644E+04  0.91028896719E+02 0.  0.
        254    2    1    2    0    0 -0.67239761787E+03  0.12907399461E+03  0.88721416697E+03  0.14234440196E+04  0.87764756377E+03 0.  0.
         23    2    4    4    0    0 -0.20261859407E+03  0.23794774560E+03 -0.83154967594E+02  0.33614838277E+03  0.91692760364E+02 0.  0.
         23    2    4    4    0    0 -0.46977902380E+03 -0.10887375099E+03  0.97036913456E+03  0.10872956368E+04  0.89720229915E+02 0.  0.
          3    1    3    3  502    0  0.40716651974E+03 -0.96387262555E+02  0.51702623941E+03  0.66512495925E+03  0.00000000000E+00 0. -1.
         -3    1    3    3    0  502  0.26523109813E+03 -0.32686732050E+02  0.23382157247E+03  0.35508940511E+03  0.00000000000E+00 0.  1.
         13    1    5    5    0    0 -0.44127861505E+02  0.36204839012E+02  0.18775381103E+02  0.60088047601E+02  0.00000000000E+00 0. -1.
        -13    1    5    5    0    0 -0.15849073257E+03  0.20174290659E+03 -0.10193034870E+03  0.27606033517E+03  0.00000000000E+00 0.  1.
          2    1    6    6  503    0 -0.25610630332E+03 -0.92851786174E+02  0.60944111091E+03  0.66755551115E+03  0.00000000000E+00 0.  1.
         -2    1    6    6    0  503 -0.21367272047E+03 -0.16021964819E+02  0.36092802365E+03  0.41974012566E+03  0.00000000000E+00 0. -1.
<mgrwt>
<rscale>  0 0.18133448E+04</rscale>
<asrwt>0</asrwt>
<pdfrwt beam="1">  1        3 0.31397848E+00 0.18133448E+04</pdfrwt>
<pdfrwt beam="2">  1       -3 0.61968955E-01 0.18133448E+04</pdfrwt>
<totfact> 0.20321476E-01</totfact>
</mgrwt>
</event>
<event>
12    3  0.6352079E-008  0.2749954E+04  0.7818608E-02  0.8318976E-01
         -2   -1    0    0    0  501 -0.00000000000E+00  0.00000000000E+00  0.16728845847E+04  0.16728845847E+04  0.00000000000E+00 0.  1.
          2   -1    0    0  501    0  0.00000000000E+00 -0.00000000000E+00 -0.11301205717E+04  0.11301205717E+04  0.00000000000E+00 0. -1.
         23    2    1    2    0    0 -0.65333724797E+03 -0.37314852899E+03  0.12173750359E+04  0.14340788940E+04  0.92146144712E+02 0.  0.
        254    2    1    2    0    0  0.65333724797E+03  0.37314852899E+03 -0.67461102294E+03  0.13689262624E+04  0.92345530227E+03 0.  0.
         23    2    4    4    0    0  0.63718645222E+03  0.28102317314E+03 -0.88011409590E+03  0.11259900408E+04  0.90951368450E+02 0.  0.
         23    2    4    4    0    0  0.16150795750E+02  0.92125355855E+02  0.20550307296E+03  0.24293622159E+03  0.89658046876E+02 0.  0.
          4    1    3    3  502    0 -0.10177728504E+02  0.33984141259E+01  0.75430977180E+01  0.13116161758E+02  0.00000000000E+00 0. -1.
         -4    1    3    3    0  502 -0.64315951946E+03 -0.37654694312E+03  0.12098319382E+04  0.14209627323E+04  0.00000000000E+00 0.  1.
         13    1    5    5    0    0  0.56637139753E+03  0.27909500729E+03 -0.79619811703E+03  0.10161702734E+04  0.00000000000E+00 0. -1.
        -13    1    5    5    0    0  0.70815054690E+02  0.19281658536E+01 -0.83915978875E+02  0.10981976737E+03  0.00000000000E+00 0.  1.
          1    1    6    6  503    0  0.21232921970E+02  0.91908577631E+02  0.21352755965E+03  0.23343530656E+03  0.00000000000E+00 0. -1.
         -1    1    6    6    0  503 -0.50821262195E+01  0.21677822418E+00 -0.80244866933E+01  0.95009150297E+01  0.00000000000E+00 0.  1.
<mgrwt>
<rscale>  0 0.27499537E+04</rscale>
<asrwt>0</asrwt>
<pdfrwt beam="1">  1        2 0.17386470E+00 0.27499537E+04</pdfrwt>
<pdfrwt beam="2">  1       -2 0.25736686E+00 0.27499537E+04</pdfrwt>
<totfact> 0.10561591E+00</totfact>
</mgrwt>
</event>
<event>
12    3  0.4634846E-008  0.1965088E+04  0.7818608E-02  0.8623119E-01
         -2   -1    0    0    0  501 -0.00000000000E+00  0.00000000000E+00  0.63081934544E+03  0.63081934544E+03  0.00000000000E+00 0. -1.
          2   -1    0    0  501    0  0.00000000000E+00 -0.00000000000E+00 -0.15303792141E+04  0.15303792141E+04  0.00000000000E+00 0.  1.
         23    2    1    2    0    0  0.24273001438E+03  0.56249667530E+03  0.16548776173E+03  0.63928437833E+03  0.77317187492E+02 0.  0.
        254    2    1    2    0    0 -0.24273001438E+03 -0.56249667530E+03 -0.10650476304E+04  0.15219141812E+04  0.89809573563E+03 0.  0.
         23    2    4    4    0    0  0.32045701174E+03 -0.33512599725E+03 -0.47824430763E+03  0.67231103417E+03  0.91007573787E+02 0.  0.
         23    2    4    4    0    0 -0.56318702612E+03 -0.22737067805E+03 -0.58680332275E+03  0.84960314702E+03  0.92791789595E+02 0.  0.
          3    1    3    3  502    0  0.23994925349E+03  0.51920970610E+03  0.13957546619E+03  0.58875773789E+03  0.00000000000E+00 0. -1.
         -3    1    3    3    0  502  0.27807608859E+01  0.43286969202E+02  0.25912295538E+02  0.50526640437E+02  0.00000000000E+00 0.  1.
         13    1    5    5    0    0  0.24884842503E+03 -0.24272120998E+03 -0.40767370844E+03  0.53575831955E+03  0.00000000000E+00 0. -1.
        -13    1    5    5    0    0  0.71608586709E+02 -0.92404787275E+02 -0.70570599190E+02  0.13655271463E+03  0.00000000000E+00 0.  1.
          1    1    6    6  503    0 -0.11213432518E+03 -0.33553532336E+02 -0.68111958799E+02  0.13542224835E+03  0.00000000000E+00 0. -1.
         -1    1    6    6    0  503 -0.45105270094E+03 -0.19381714572E+03 -0.51869136395E+03  0.71418089867E+03  0.00000000000E+00 0.  1.
<mgrwt>
<rscale>  0 0.19650881E+04</rscale>
<asrwt>0</asrwt>
<pdfrwt beam="1">  1        2 0.23544295E+00 0.19650881E+04</pdfrwt>
<pdfrwt beam="2">  1       -2 0.97049131E-01 0.19650881E+04</pdfrwt>
<totfact> 0.10079471E+01</totfact>
</mgrwt>
</event>
<event>
12    3  0.4634846E-008  0.2414226E+04  0.7818608E-02  0.8434197E-01
          2   -1    0    0  501    0  0.00000000000E+00  0.00000000000E+00  0.66732725296E+03  0.66732725296E+03  0.00000000000E+00 0. -1.
         -2   -1    0    0    0  501 -0.00000000000E+00 -0.00000000000E+00 -0.21835192520E+04  0.21835192520E+04  0.00000000000E+00 0.  1.
         23    2    1    2    0    0  0.60240676324E+03 -0.20054955179E+03 -0.16223160125E+04  0.17444887711E+04  0.90652064723E+02 0.  0.
        254    2    1    2    0    0 -0.60240676324E+03  0.20054955179E+03  0.10612401355E+03  0.11063577338E+04  0.89980614456E+03 0.  0.
         23    2    4    4    0    0 -0.15475762498E+03 -0.31409199306E+03  0.20040885299E+03  0.41226335322E+03  0.84815455298E+02 0.  0.
         23    2    4    4    0    0 -0.44764913827E+03  0.51464154485E+03 -0.94284839440E+02  0.69409438059E+03  0.87359644806E+02 0.  0.
          2    1    3    3  502    0  0.88129051004E+02  0.81321158045E+00 -0.25726514715E+03  0.27194254335E+03  0.00000000000E+00 0. -1.
         -2    1    3    3    0  502  0.51427771224E+03 -0.20136276337E+03 -0.13650508654E+04  0.14725462278E+04  0.00000000000E+00 0.  1.
         13    1    5    5    0    0 -0.11131325311E+03 -0.28649351612E+03  0.15810120139E+03  0.34563733157E+03  0.00000000000E+00 0.  1.
        -13    1    5    5    0    0 -0.43444371866E+02 -0.27598476942E+02  0.42307651604E+02  0.66626021647E+02  0.00000000000E+00 0. -1.
          1    1    6    6  503    0 -0.17555701440E+03  0.26517288706E+03 -0.56762916174E+02  0.32304636508E+03  0.00000000000E+00 0. -1.
         -1    1    6    6    0  503 -0.27209212387E+03  0.24946865779E+03 -0.37521923266E+02  0.37104801551E+03  0.00000000000E+00 0.  1.
<mgrwt>
<rscale>  0 0.24142261E+04</rscale>
<asrwt>0</asrwt>
<pdfrwt beam="1">  1        2 0.10266573E+00 0.24142261E+04</pdfrwt>
<pdfrwt beam="2">  1       -2 0.33592605E+00 0.24142261E+04</pdfrwt>
<totfact> 0.74566533E-01</totfact>
</mgrwt>
</event>
<event>
12    3  0.4634846E-008  0.1668886E+04  0.7818608E-02  0.8779311E-01
          1   -1    0    0  501    0  0.00000000000E+00  0.00000000000E+00  0.22067404871E+04  0.22067404871E+04  0.00000000000E+00 0. -1.
         -1   -1    0    0    0  501 -0.00000000000E+00 -0.00000000000E+00 -0.31553114512E+03  0.31553114512E+03  0.00000000000E+00 0.  1.
         23    2    1    2    0    0  0.85068835323E+02 -0.29487989409E+03  0.16307080872E+04  0.16619096949E+04  0.92434353135E+02 0.  0.
        254    2    1    2    0    0 -0.85068835323E+02  0.29487989409E+03  0.26050125484E+03  0.86036193738E+03  0.76037549989E+03 0.  0.
         23    2    4    4    0    0 -0.20249474266E+03 -0.16414114882E+03 -0.57379045934E+02  0.28244974691E+03  0.92407072665E+02 0.  0.
         23    2    4    4    0    0  0.11742590733E+03  0.45902104291E+03  0.31788030077E+03  0.57791219046E+03  0.91899144274E+02 0.  0.
          3    1    3    3  502    0  0.10515606803E+03 -0.23784964818E+03  0.13220987569E+04  0.13474328839E+04  0.00000000000E+00 0. -1.
         -3    1    3    3    0  502 -0.20087232703E+02 -0.57030245909E+02  0.30860933030E+03  0.31447681093E+03  0.00000000000E+00 0.  1.
         13    1    5    5    0    0 -0.32175444058E+02 -0.16725005952E+02  0.23389263452E+02  0.43151392437E+02  0.00000000000E+00 0. -1.
        -13    1    5    5    0    0 -0.17031929860E+03 -0.14741614287E+03 -0.80768309386E+02  0.23929835448E+03  0.00000000000E+00 0.  1.
          2    1    6    6  503    0  0.95285668590E+02  0.44738967805E+03  0.30497107288E+03  0.54976743989E+03  0.00000000000E+00 0.  1.
         -2    1    6    6    0  503  0.22140238745E+02  0.11631364858E+02  0.12909227887E+02  0.28144750572E+02  0.00000000000E+00 0. -1.
<mgrwt>
<rscale>  0 0.16688863E+04</rscale>
<asrwt>0</asrwt>
<pdfrwt beam="1">  1        1 0.33949853E+00 0.16688863E+04</pdfrwt>
<pdfrwt beam="2">  1       -1 0.48543254E-01 0.16688863E+04</pdfrwt>
<totfact> 0.87389604E+00</totfact>
</mgrwt>
</event>
<event>
12    3  0.4634846E-008  0.2683790E+04  0.7818608E-02  0.8340284E-01
          1   -1    0    0  501    0  0.00000000000E+00  0.00000000000E+00  0.13779587749E+04  0.13779587749E+04  0.00000000000E+00 0. -1.
         -1   -1    0    0    0  501 -0.00000000000E+00 -0.00000000000E+00 -0.13067751928E+04  0.13067751928E+04  0.00000000000E+00 0.  1.
         23    2    1    2    0    0 -0.82926921442E+03  0.43400790845E+03 -0.70300111064E+03  0.11749457901E+04  0.10117684290E+03 0.  0.
        254    2    1    2    0    0  0.82926921442E+03 -0.43400790845E+03  0.77418469268E+03  0.15097881776E+04  0.89668729677E+03 0.  0.
         23    2    4    4    0    0  0.26515550748E+03 -0.26801197941E+02 -0.17336724581E+03  0.33076766612E+03  0.91243080146E+02 0.  0.
         23    2    4    4    0    0  0.56411370694E+03 -0.40720671051E+03  0.94755193849E+03  0.11790205115E+04  0.90515804474E+02 0.  0.
          2    1    3    3  502    0 -0.14431603275E+03  0.11636499869E+03 -0.11727396858E+03  0.21936525234E+03  0.00000000000E+00 0. -1.
         -2    1    3    3    0  502 -0.68495318167E+03  0.31764290976E+03 -0.58572714206E+03  0.95558053776E+03  0.00000000000E+00 0.  1.
         13    1    5    5    0    0  0.23460609074E+03  0.65492490102E+01 -0.15831322858E+03  0.28310066905E+03  0.00000000000E+00 0.  1.
        -13    1    5    5    0    0  0.30549416744E+02 -0.33350446951E+02 -0.15054017231E+02  0.47666997073E+02  0.00000000000E+00 0. -1.
          4    1    6    6  503    0  0.76601246333E+02 -0.20669137132E+02  0.11345832000E+03  0.13844765996E+03  0.00000000000E+00 0. -1.
         -4    1    6    6    0  503  0.48751246060E+03 -0.38653757338E+03  0.83409361849E+03  0.10405728515E+04  0.00000000000E+00 0.  1.
<mgrwt>
<rscale>  0 0.26837901E+04</rscale>
<asrwt>0</asrwt>
<pdfrwt beam="1">  1        1 0.21199366E+00 0.26837901E+04</pdfrwt>
<pdfrwt beam="2">  1       -1 0.20104234E+00 0.26837901E+04</pdfrwt>
<totfact> 0.10306688E+00</totfact>
</mgrwt>
</event>
<event>
12    3  0.4634846E-008  0.1698387E+04  0.7818608E-02  0.8762285E-01
         -1   -1    0    0    0  501 -0.00000000000E+00  0.00000000000E+00  0.48007777034E+03  0.48007777034E+03  0.00000000000E+00 0.  1.
          1   -1    0    0  501    0  0.00000000000E+00 -0.00000000000E+00 -0.15021107015E+04  0.15021107015E+04  0.00000000000E+00 0. -1.
         23    2    1    2    0    0 -0.20925815583E+03 -0.25773430883E+03 -0.97599109783E+03  0.10347760975E+04  0.89370013125E+02 0.  0.
        254    2    1    2    0    0  0.20925815583E+03  0.25773430883E+03 -0.46041833295E+02  0.94741237427E+03  0.88614581576E+03 0.  0.
         23    2    4    4    0    0  0.46031201505E+03  0.40083552069E+02 -0.26350084975E+03  0.53965072760E+03  0.91084398451E+02 0.  0.
         23    2    4    4    0    0 -0.25105385922E+03  0.21765075676E+03  0.21745901646E+03  0.40776164667E+03  0.92635006916E+02 0.  0.
          4    1    3    3  502    0 -0.46522230809E+02 -0.51581021749E+02 -0.33382909409E+03  0.34097915453E+03  0.00000000000E+00 0. -1.
         -4    1    3    3    0  502 -0.16273592502E+03 -0.20615328708E+03 -0.64216200375E+03  0.69379694300E+03  0.00000000000E+00 0.  1.
         13    1    5    5    0    0  0.35168729254E+03 -0.88666323987E+01 -0.19609253615E+03  0.40275904911E+03  0.00000000000E+00 0. -1.
        -13    1    5    5    0    0  0.10862472251E+03  0.48950184467E+02 -0.67408313609E+02  0.13689167850E+03  0.00000000000E+00 0.  1.
          3    1    6    6  503    0 -0.12175902713E+03  0.16480064486E+03  0.12017432040E+03  0.23754237626E+03  0.00000000000E+00 0. -1.
         -3    1    6    6    0  503 -0.12929483209E+03  0.52850111905E+02  0.97284696059E+02  0.17021927041E+03  0.00000000000E+00 0.  1.
<mgrwt>
<rscale>  0 0.16983874E+04</rscale>
<asrwt>0</asrwt>
<pdfrwt beam="1">  1        1 0.23109395E+00 0.16983874E+04</pdfrwt>
<pdfrwt beam="2">  1       -1 0.73858119E-01 0.16983874E+04</pdfrwt>
<totfact> 0.11455111E+01</totfact>
</mgrwt>
</event>
<event>
12    3  0.4634846E-008  0.1118011E+04  0.7818608E-02  0.9187813E-01
          1   -1    0    0  501    0  0.00000000000E+00  0.00000000000E+00  0.15207460422E+04  0.15207460422E+04  0.00000000000E+00 0. -1.
         -1   -1    0    0    0  501 -0.00000000000E+00 -0.00000000000E+00 -0.20548288377E+03  0.20548288377E+03  0.00000000000E+00 0.  1.
         23    2    1    2    0    0  0.12341987620E+02 -0.65565341128E+02  0.50527991177E+03  0.51756456131E+03  0.90078561667E+02 0.  0.
        254    2    1    2    0    0 -0.12341987620E+02  0.65565341128E+02  0.80998324670E+03  0.12086643647E+04  0.89462033731E+03 0.  0.
         23    2    4    4    0    0 -0.28169878078E+03 -0.17660773757E+03  0.33010905674E+02  0.34649221029E+03  0.91774919425E+02 0.  0.
         23    2    4    4    0    0  0.26935679316E+03  0.24217307870E+03  0.77697234103E+03  0.86217215440E+03  0.91945217543E+02 0.  0.
          3    1    3    3  502    0  0.36333336879E+02 -0.36732642134E+02  0.43356778021E+03  0.43663533802E+03  0.00000000000E+00 0. -1.
         -3    1    3    3    0  502 -0.23991349258E+02 -0.28832698994E+02  0.71712131553E+02  0.80929223291E+02  0.00000000000E+00 0.  1.
         13    1    5    5    0    0 -0.24723194316E+03 -0.12570165186E+03  0.51925338361E+02  0.28217154314E+03  0.00000000000E+00 0. -1.
        -13    1    5    5    0    0 -0.34466837628E+02 -0.50906085713E+02 -0.18914432686E+02  0.64320667149E+02  0.00000000000E+00 0.  1.
          2    1    6    6  503    0  0.19698267186E+03  0.14238211842E+03  0.42980585332E+03  0.49376908795E+03  0.00000000000E+00 0. -1.
         -2    1    6    6    0  503  0.72374121305E+02  0.99790960273E+02  0.34716648771E+03  0.36840306646E+03  0.00000000000E+00 0.  1.
<mgrwt>
<rscale>  0 0.11180112E+04</rscale>
<asrwt>0</asrwt>
<pdfrwt beam="1">  1        1 0.23396092E+00 0.11180112E+04</pdfrwt>
<pdfrwt beam="2">  1       -1 0.31612752E-01 0.11180112E+04</pdfrwt>
<totfact> 0.58591275E+01</totfact>
</mgrwt>
</event>
<event>
12    3  0.4634846E-008  0.2172282E+04  0.7818608E-02  0.8530054E-01
          2   -1    0    0  501    0  0.00000000000E+00  0.00000000000E+00  0.37669199606E+04  0.37669199606E+04  0.00000000000E+00 0. -1.
         -2   -1    0    0    0  501 -0.00000000000E+00 -0.00000000000E+00 -0.31317424795E+03  0.31317424795E+03  0.00000000000E+00 0.  1.
         23    2    1    2    0    0 -0.16553473082E+03  0.41275083119E+03  0.28799370117E+04  0.29155491046E+04  0.92867614529E+02 0.  0.
        254    2    1    2    0    0  0.16553473082E+03 -0.41275083119E+03  0.57380870090E+03  0.11645451040E+04  0.91057337880E+03 0.  0.
         23    2    4    4    0    0  0.52117002956E+03 -0.27206042135E+03  0.21533855248E+03  0.63243192174E+03  0.89243323983E+02 0.  0.
         23    2    4    4    0    0 -0.35563529874E+03 -0.14069040985E+03  0.35847014842E+03  0.53211318223E+03  0.91505924715E+02 0.  0.
          3    1    3    3  502    0 -0.84936922551E+02  0.24594315226E+03  0.19552153077E+04  0.19724525886E+04  0.00000000000E+00 0. -1.
         -3    1    3    3    0  502 -0.80597808270E+02  0.16680767893E+03  0.92472170408E+03  0.94309651598E+03  0.00000000000E+00 0.  1.
         13    1    5    5    0    0  0.22538613975E+03 -0.13585251010E+03  0.14043323893E+03  0.29828897246E+03  0.00000000000E+00 0.  1.
        -13    1    5    5    0    0  0.29578388981E+03 -0.13620791124E+03  0.74905313545E+02  0.33414294928E+03  0.00000000000E+00 0. -1.
          4    1    6    6  503    0 -0.21767075764E+03 -0.38026648397E+02  0.21201205965E+03  0.30622817988E+03  0.00000000000E+00 0.  1.
         -4    1    6    6    0  503 -0.13796454110E+03 -0.10266376145E+03  0.14645808877E+03  0.22588500234E+03  0.00000000000E+00 0. -1.
<mgrwt>
<rscale>  0 0.21722820E+04</rscale>
<asrwt>0</asrwt>
<pdfrwt beam="1">  1        2 0.57952611E+00 0.21722820E+04</pdfrwt>
<pdfrwt beam="2">  1       -2 0.48180656E-01 0.21722820E+04</pdfrwt>
<totfact> 0.19561529E+00</totfact>
</mgrwt>
</event>
<event>
12    3  0.4634846E-008  0.1223317E+04  0.7818608E-02  0.9092689E-01
          2   -1    0    0  501    0  0.00000000000E+00  0.00000000000E+00  0.67809657116E+03  0.67809657116E+03  0.00000000000E+00 0. -1.
         -2   -1    0    0    0  501 -0.00000000000E+00 -0.00000000000E+00 -0.55172953131E+03  0.55172953131E+03  0.00000000000E+00 0.  1.
         23    2    1    2    0    0  0.25572027235E+03 -0.59160258909E+02  0.96291434515E+02  0.29402581931E+03  0.91029380616E+02 0.  0.
        254    2    1    2    0    0 -0.25572027235E+03  0.59160258909E+02  0.30075605333E+02  0.93580028315E+03  0.89773316413E+03 0.  0.
         23    2    4    4    0    0 -0.42502397423E+03  0.74005136494E+02  0.34949006776E+03  0.56266189508E+03  0.91230268066E+02 0.  0.
         23    2    4    4    0    0  0.16930370187E+03 -0.14844877585E+02 -0.31941446243E+03  0.37313838807E+03  0.91227978094E+02 0.  0.
          3    1    3    3  502    0  0.16645084437E+03  0.46926438965E+01  0.73055582167E+02  0.18183790194E+03  0.00000000000E+00 0. -1.
         -3    1    3    3    0  502  0.89269427989E+02 -0.63852902805E+02  0.23235852348E+02  0.11218791737E+03  0.00000000000E+00 0.  1.
         13    1    5    5    0    0 -0.33290267697E+03  0.91519448920E+02  0.25234436858E+03  0.42764200240E+03  0.00000000000E+00 0.  1.
        -13    1    5    5    0    0 -0.92121297258E+02 -0.17514312427E+02  0.97145699185E+02  0.13501989268E+03  0.00000000000E+00 0. -1.
          3    1    6    6  503    0  0.21623528613E+02 -0.53272203259E+01 -0.13433830369E+03  0.13617171550E+03  0.00000000000E+00 0. -1.
         -3    1    6    6    0  503  0.14768017326E+03 -0.95176572588E+01 -0.18507615874E+03  0.23696667257E+03  0.00000000000E+00 0.  1.
<mgrwt>
<rscale>  0 0.12233166E+04</rscale>
<asrwt>0</asrwt>
<pdfrwt beam="1">  1        2 0.10432255E+00 0.12233166E+04</pdfrwt>
<pdfrwt beam="2">  1       -2 0.84881467E-01 0.12233166E+04</pdfrwt>
<totfact> 0.50816893E+01</totfact>
</mgrwt>
</event>
<event>
12    3  0.4634846E-008  0.1310605E+04  0.7818608E-02  0.9021197E-01
         -2   -1    0    0    0  501 -0.00000000000E+00  0.00000000000E+00  0.32117063214E+03  0.32117063214E+03  0.00000000000E+00 0.  1.
          2   -1    0    0  501    0  0.00000000000E+00 -0.00000000000E+00 -0.13370507255E+04  0.13370507255E+04  0.00000000000E+00 0. -1.
         23    2    1    2    0    0  0.21084603077E+03 -0.26737833589E+03 -0.32849377042E+03  0.48168605380E+03  0.90366332389E+02 0.  0.
        254    2    1    2    0    0 -0.21084603077E+03  0.26737833589E+03 -0.68738632293E+03  0.11765353038E+04  0.89206958304E+03 0.  0.
         23    2    4    4    0    0 -0.43336817687E+02 -0.31829838664E+03 -0.18337944802E+03  0.38094969838E+03  0.91119196857E+02 0.  0.
         23    2    4    4    0    0 -0.16750921308E+03  0.58567672253E+03 -0.50400687492E+03  0.79558560544E+03  0.88639527555E+02 0.  0.
          1    1    3    3  502    0  0.14084831063E+03 -0.22680910749E+03 -0.28216572397E+03  0.38845606396E+03  0.00000000000E+00 0. -1.
         -1    1    3    3    0  502  0.69997720137E+02 -0.40569228401E+02 -0.46328046453E+02  0.93229989840E+02  0.00000000000E+00 0.  1.
         13    1    5    5    0    0  0.18641229992E+02 -0.35483148554E+02 -0.38206158796E+01  0.40263462253E+02  0.00000000000E+00 0.  1.
        -13    1    5    5    0    0 -0.61978047678E+02 -0.28281523808E+03 -0.17955883214E+03  0.34068623613E+03  0.00000000000E+00 0. -1.
          4    1    6    6  503    0 -0.11106629284E+03  0.50526615043E+03 -0.42456228224E+03  0.66924041695E+03  0.00000000000E+00 0. -1.
         -4    1    6    6    0  503 -0.56442920239E+02  0.80410572105E+02 -0.79444592673E+02  0.12634518850E+03  0.00000000000E+00 0.  1.
<mgrwt>
<rscale>  0 0.13106051E+04</rscale>
<asrwt>0</asrwt>
<pdfrwt beam="1">  1        2 0.20570011E+00 0.13106051E+04</pdfrwt>
<pdfrwt beam="2">  1       -2 0.49410867E-01 0.13106051E+04</pdfrwt>
<totfact> 0.59718265E+01</totfact>
</mgrwt>
</event>
<event>
12    3  0.4634846E-008  0.1586251E+04  0.7818608E-02  0.8829039E-01
          1   -1    0    0  501    0  0.00000000000E+00  0.00000000000E+00  0.82138314094E+03  0.82138314094E+03  0.00000000000E+00 0. -1.
         -1   -1    0    0    0  501 -0.00000000000E+00 -0.00000000000E+00 -0.76584019991E+03  0.76584019991E+03  0.00000000000E+00 0.  1.
         23    2    1    2    0    0 -0.10839768586E+03 -0.13331772653E+03 -0.48406243643E+03  0.52181523082E+03  0.91929419948E+02 0.  0.
        254    2    1    2    0    0  0.10839768586E+03  0.13331772653E+03  0.53960537746E+03  0.10654081100E+04  0.90243936252E+03 0.  0.
         23    2    4    4    0    0 -0.75435683509E+02 -0.28671697128E+03  0.50951662981E+03  0.59641595134E+03  0.90595954611E+02 0.  0.
         23    2    4    4    0    0  0.18383336937E+03  0.42003469781E+03  0.30088747646E+02  0.46899215869E+03  0.93938581652E+02 0.  0.
          1    1    3    3  502    0 -0.98682982920E+01 -0.35216915780E+01  0.59573865788E+00  0.10494785720E+02  0.00000000000E+00 0. -1.
         -1    1    3    3    0  502 -0.98529387568E+02 -0.12979603495E+03 -0.48465817508E+03  0.51132044510E+03  0.00000000000E+00 0.  1.
         13    1    5    5    0    0 -0.19971758147E+02 -0.16934338432E+02  0.14490286207E+02  0.29926766213E+02  0.00000000000E+00 0. -1.
        -13    1    5    5    0    0 -0.55463925362E+02 -0.26978263285E+03  0.49502634360E+03  0.56648918513E+03  0.00000000000E+00 0.  1.
          1    1    6    6  503    0 -0.14221594651E+01  0.77736804927E+02 -0.67306207498E+01  0.78040596061E+02  0.00000000000E+00 0. -1.
         -1    1    6    6    0  503  0.18525552883E+03  0.34229789288E+03  0.36819368395E+02  0.39095156263E+03  0.00000000000E+00 0.  1.
<mgrwt>
<rscale>  0 0.15862512E+04</rscale>
<asrwt>0</asrwt>
<pdfrwt beam="1">  1        1 0.12636664E+00 0.15862512E+04</pdfrwt>
<pdfrwt beam="2">  1       -1 0.11782157E+00 0.15862512E+04</pdfrwt>
<totfact> 0.13179056E+01</totfact>
</mgrwt>
</event>
<event>
12    3  0.4634846E-008  0.1803031E+04  0.7818608E-02  0.8704689E-01
         -1   -1    0    0    0  501 -0.00000000000E+00  0.00000000000E+00  0.17282777673E+04  0.17282777673E+04  0.00000000000E+00 0.  1.
          1   -1    0    0  501    0  0.00000000000E+00 -0.00000000000E+00 -0.47025420666E+03  0.47025420666E+03  0.00000000000E+00 0. -1.
         23    2    1    2    0    0 -0.93783106237E+02 -0.29106463647E+03  0.12066390821E+04  0.12485185435E+04  0.96471681570E+02 0.  0.
        254    2    1    2    0    0  0.93783106237E+02  0.29106463647E+03  0.51384478564E+02  0.95001343050E+03  0.89798177035E+03 0.  0.
         23    2    4    4    0    0  0.15538533954E+03 -0.20711059015E+03  0.27865131283E+03  0.39113634886E+03  0.91113604694E+02 0.  0.
         23    2    4    4    0    0 -0.61602233307E+02  0.49817522662E+03 -0.22726683426E+03  0.55887708164E+03  0.93380869901E+02 0.  0.
          4    1    3    3  502    0 -0.82965130029E+02 -0.29626983584E+03  0.11389839096E+04  0.11798064989E+04  0.00000000000E+00 0.  1.
         -4    1    3    3    0  502 -0.10817976208E+02  0.52051993708E+01  0.67655172466E+02  0.68712044585E+02  0.00000000000E+00 0. -1.
         13    1    5    5    0    0  0.11162305993E+02 -0.78498229858E+02  0.60693696733E+02  0.99851359475E+02  0.00000000000E+00 0. -1.
        -13    1    5    5    0    0  0.14422303355E+03 -0.12861236029E+03  0.21795761609E+03  0.29128498938E+03  0.00000000000E+00 0.  1.
          2    1    6    6  503    0 -0.10150742419E+02  0.18120906961E+03 -0.13036101604E+03  0.22345862924E+03  0.00000000000E+00 0.  1.
         -2    1    6    6    0  503 -0.51451490889E+02  0.31696615701E+03 -0.96905818224E+02  0.33541845240E+03  0.00000000000E+00 0. -1.
<mgrwt>
<rscale>  0 0.18030307E+04</rscale>
<asrwt>0</asrwt>
<pdfrwt beam="1">  1        1 0.72346802E-01 0.18030307E+04</pdfrwt>
<pdfrwt beam="2">  1       -1 0.26588888E+00 0.18030307E+04</pdfrwt>
<totfact> 0.25004145E+00</totfact>
</mgrwt>
</event>
<event>
12    3  0.4634846E-008  0.1452247E+04  0.7818608E-02  0.8916844E-01
          2   -1    0    0  501    0  0.00000000000E+00  0.00000000000E+00  0.84839665110E+03  0.84839665110E+03  0.00000000000E+00 0. -1.
         -2   -1    0    0    0  501 -0.00000000000E+00 -0.00000000000E+00 -0.62147282618E+03  0.62147282618E+03  0.00000000000E+00 0.  1.
         23    2    1    2    0    0 -0.37725563672E+02  0.26181893155E+03  0.22798566992E+03  0.36165627802E+03  0.94050128522E+02 0.  0.
        254    2    1    2    0    0  0.37725563672E+02 -0.26181893155E+03 -0.10618449932E+01  0.11082131993E+04  0.10761798160E+04 0.  0.
         23    2    4    4    0    0 -0.17059921059E+03 -0.56185639499E+03  0.26091906500E+03  0.64950187143E+03  0.94800966596E+02 0.  0.
         23    2    4    4    0    0  0.20832477427E+03  0.30003746344E+03 -0.26198091000E+03  0.45871132782E+03  0.91435190338E+02 0.  0.
          3    1    3    3  502    0 -0.68040144062E+02  0.19817321625E+03  0.18154675785E+03  0.27723872408E+03  0.00000000000E+00 0. -1.
         -3    1    3    3    0  502  0.30314580391E+02  0.63645715293E+02  0.46438912064E+02  0.84417553939E+02  0.00000000000E+00 0.  1.
         13    1    5    5    0    0 -0.15188993329E+03 -0.54860781507E+03  0.23772710622E+03  0.61689161416E+03  0.00000000000E+00 0.  1.
        -13    1    5    5    0    0 -0.18709277299E+02 -0.13248579916E+02  0.23191958786E+02  0.32610257269E+02  0.00000000000E+00 0. -1.
          1    1    6    6  503    0 -0.10364780571E+01  0.25455358143E+02 -0.32620879422E+00  0.25478539148E+02  0.00000000000E+00 0. -1.
         -1    1    6    6    0  503  0.20936125232E+03  0.27458210530E+03 -0.26165470120E+03  0.43323278868E+03  0.00000000000E+00 0.  1.
<mgrwt>
<rscale>  0 0.14522472E+04</rscale>
<asrwt>0</asrwt>
<pdfrwt beam="1">  1        2 0.13052256E+00 0.14522472E+04</pdfrwt>
<pdfrwt beam="2">  1       -2 0.95611204E-01 0.14522472E+04</pdfrwt>
<totfact> 0.28335032E+01</totfact>
</mgrwt>
</event>
<event>
12    3  0.4634846E-008  0.1245066E+04  0.7818608E-02  0.9074300E-01
         -3   -1    0    0    0  501 -0.00000000000E+00  0.00000000000E+00  0.63642671913E+03  0.63642671913E+03  0.00000000000E+00 0. -1.
          3   -1    0    0  501    0  0.00000000000E+00 -0.00000000000E+00 -0.60894286571E+03  0.60894286571E+03  0.00000000000E+00 0.  1.
         23    2    1    2    0    0 -0.12641731395E+02  0.12971643928E+02  0.28223746823E+03  0.30754455694E+03  0.12082048300E+03 0.  0.
        254    2    1    2    0    0  0.12641731395E+02 -0.12971643928E+02 -0.25475361481E+03  0.93782502790E+03  0.90237924498E+03 0.  0.
         23    2    4    4    0    0  0.28488167729E+03 -0.10193614777E+03  0.21296624583E+03  0.38094169380E+03  0.90627831979E+02 0.  0.
         23    2    4    4    0    0 -0.27223994590E+03  0.88964503845E+02 -0.46771986064E+03  0.55688333410E+03  0.96581098955E+02 0.  0.
          1    1    3    3  502    0  0.30304431125E+02 -0.26026613350E+02  0.21527003772E+03  0.21894504399E+03  0.00000000000E+00 0. -1.
         -1    1    3    3    0  502 -0.42946162520E+02  0.38998257278E+02  0.66967430511E+02  0.88599512951E+02  0.00000000000E+00 0.  1.
         13    1    5    5    0    0  0.15253585634E+02 -0.12396399745E+02 -0.77972180549E+01  0.21145666476E+02  0.00000000000E+00 0. -1.
        -13    1    5    5    0    0  0.26962809166E+03 -0.89539748028E+02  0.22076346389E+03  0.35979602732E+03  0.00000000000E+00 0.  1.
          2    1    6    6  503    0 -0.38429881537E+02  0.47699049754E+02 -0.13386631706E+03  0.14721496523E+03  0.00000000000E+00 0. -1.
         -2    1    6    6    0  503 -0.23381006436E+03  0.41265454091E+02 -0.33385354357E+03  0.40966836887E+03  0.00000000000E+00 0.  1.
<mgrwt>
<rscale>  0 0.12450663E+04</rscale>
<asrwt>0</asrwt>
<pdfrwt beam="1">  1        3 0.93683517E-01 0.12450663E+04</pdfrwt>
<pdfrwt beam="2">  1       -3 0.97911803E-01 0.12450663E+04</pdfrwt>
<totfact> 0.24093302E+00</totfact>
</mgrwt>
</event>
<event>
12    3  0.4634846E-008  0.2799698E+04  0.7818608E-02  0.8303362E-01
         -2   -1    0    0    0  501 -0.00000000000E+00  0.00000000000E+00  0.63869365273E+03  0.63869365273E+03  0.00000000000E+00 0.  1.
          2   -1    0    0  501    0  0.00000000000E+00 -0.00000000000E+00 -0.30681010242E+04  0.30681010242E+04  0.00000000000E+00 0. -1.
         23    2    1    2    0    0  0.21913645814E+03  0.14530535072E+03  0.53095454241E+03  0.59961322618E+03  0.92135024091E+02 0.  0.
        254    2    1    2    0    0 -0.21913645814E+03 -0.14530535072E+03 -0.29603619139E+04  0.31071814508E+04  0.90647640594E+03 0.  0.
         23    2    4    4    0    0 -0.57621108619E+02  0.37097120899E+03 -0.10160536018E+04  0.10869776196E+04  0.90639911829E+02 0.  0.
         23    2    4    4    0    0 -0.16151534952E+03 -0.51627655971E+03 -0.19443083120E+04  0.20202038312E+04  0.90884613459E+02 0.  0.
          1    1    3    3  502    0  0.99185629318E+01 -0.99272311435E+01  0.10262675574E+02  0.17385347818E+02  0.00000000000E+00 0. -1.
         -1    1    3    3    0  502  0.20921789521E+03  0.15523258186E+03  0.52069186684E+03  0.58222787836E+03  0.00000000000E+00 0.  1.
         13    1    5    5    0    0 -0.40217084786E+02  0.22083542692E+03 -0.72598064081E+03  0.75989051220E+03  0.00000000000E+00 0. -1.
        -13    1    5    5    0    0 -0.17404023833E+02  0.15013578207E+03 -0.29007296103E+03  0.32708710740E+03  0.00000000000E+00 0.  1.
          2    1    6    6  503    0 -0.78621010203E+02 -0.31777317413E+03 -0.13154630143E+04  0.13555825300E+04  0.00000000000E+00 0. -1.
         -2    1    6    6    0  503 -0.82894339317E+02 -0.19850338558E+03 -0.62884529769E+03  0.66462130120E+03  0.00000000000E+00 0.  1.
<mgrwt>
<rscale>  0 0.27996976E+04</rscale>
<asrwt>0</asrwt>
<pdfrwt beam="1">  1        2 0.47201553E+00 0.27996976E+04</pdfrwt>
<pdfrwt beam="2">  1       -2 0.98260564E-01 0.27996976E+04</pdfrwt>
<totfact> 0.11810405E+00</totfact>
</mgrwt>
</event>
<event>
12    3  0.4634846E-008  0.2089783E+04  0.7818608E-02  0.8565758E-01
         -2   -1    0    0    0  501 -0.00000000000E+00  0.00000000000E+00  0.63398798396E+03  0.63398798396E+03  0.00000000000E+00 0. -1.
          2   -1    0    0  501    0  0.00000000000E+00 -0.00000000000E+00 -0.17221111136E+04  0.17221111136E+04  0.00000000000E+00 0.  1.
         23    2    1    2    0    0  0.74857321863E+03 -0.23086335914E+03 -0.80281795670E+03  0.11254556307E+04  0.92054064950E+02 0.  0.
        254    2    1    2    0    0 -0.74857321863E+03  0.23086335914E+03 -0.28530517296E+03  0.12306434669E+04  0.90522071704E+03 0.  0.
         23    2    4    4    0    0 -0.51675505956E+03 -0.26167159336E+03  0.44673388475E+02  0.58776554166E+03  0.89245761651E+02 0.  0.
         23    2    4    4    0    0 -0.23181815907E+03  0.49253495250E+03 -0.32997856143E+03  0.64287792520E+03  0.89865663028E+02 0.  0.
          4    1    3    3  502    0  0.70557255881E+02 -0.44800203273E+01 -0.45532137748E+02  0.84092642410E+02  0.00000000000E+00 0. -1.
         -4    1    3    3    0  502  0.67801596275E+03 -0.22638333881E+03 -0.75728581895E+03  0.10413629883E+04  0.00000000000E+00 0.  1.
         13    1    5    5    0    0 -0.40804256997E+03 -0.17243177268E+03  0.56742835117E+02  0.44659960196E+03  0.00000000000E+00 0.  1.
        -13    1    5    5    0    0 -0.10871248959E+03 -0.89239820681E+02 -0.12069446641E+02  0.14116593969E+03  0.00000000000E+00 0. -1.
          2    1    6    6  503    0 -0.16376933352E+03  0.41053757835E+03 -0.29206936664E+03  0.52977921134E+03  0.00000000000E+00 0.  1.
         -2    1    6    6    0  503 -0.68048825549E+02  0.81997374148E+02 -0.37909194793E+02  0.11309871385E+03  0.00000000000E+00 0. -1.
<mgrwt>
<rscale>  0 0.20897825E+04</rscale>
<asrwt>0</asrwt>
<pdfrwt beam="1">  1        2 0.26494016E+00 0.20897825E+04</pdfrwt>
<pdfrwt beam="2">  1       -2 0.97536616E-01 0.20897825E+04</pdfrwt>
<totfact> 0.77034271E+00</totfact>
</mgrwt>
</event>
<event>
12    3  0.4634846E-008  0.1533197E+04  0.7818608E-02  0.8862673E-01
          1   -1    0    0  501    0  0.00000000000E+00  0.00000000000E+00  0.22729264967E+04  0.22729264967E+04  0.00000000000E+00 0. -1.
         -1   -1    0    0    0  501 -0.00000000000E+00 -0.00000000000E+00 -0.25855346067E+03  0.25855346067E+03  0.00000000000E+00 0.  1.
         23    2    1    2    0    0 -0.22681814718E+01  0.31274612767E+03  0.13239081623E+04  0.13633914108E+04  0.91038629176E+02 0.  0.
        254    2    1    2    0    0  0.22681814718E+01 -0.31274612767E+03  0.69046487379E+03  0.11680885466E+04  0.88874846028E+03 0.  0.
         23    2    4    4    0    0 -0.30597551446E+03 -0.47243988124E+03  0.51653692649E+03  0.76965105759E+03  0.93444620944E+02 0.  0.
         23    2    4    4    0    0  0.30824369593E+03  0.15969375357E+03  0.17392794730E+03  0.39843748898E+03  0.89360118381E+02 0.  0.
          2    1    3    3  502    0  0.61140219615E+01  0.29044893917E+03  0.12876007279E+04  0.13199672730E+04  0.00000000000E+00 0. -1.
         -2    1    3    3    0  502 -0.83822034333E+01  0.22297188498E+02  0.36307434400E+02  0.43424137780E+02  0.00000000000E+00 0.  1.
         13    1    5    5    0    0 -0.64913527135E+02 -0.16389699753E+03  0.19618502665E+03  0.26375093646E+03  0.00000000000E+00 0. -1.
        -13    1    5    5    0    0 -0.24106198732E+03 -0.30854288371E+03  0.32035189984E+03  0.50590012113E+03  0.00000000000E+00 0.  1.
          1    1    6    6  503    0  0.27891703839E+03  0.13432450419E+03  0.18159846216E+03  0.35890916425E+03  0.00000000000E+00 0. -1.
         -1    1    6    6    0  503  0.29326657546E+02  0.25369249383E+02 -0.76705148568E+01  0.39528324721E+02  0.00000000000E+00 0.  1.
<mgrwt>
<rscale>  0 0.15331967E+04</rscale>
<asrwt>0</asrwt>
<pdfrwt beam="1">  1        1 0.34968099E+00 0.15331967E+04</pdfrwt>
<pdfrwt beam="2">  1       -1 0.39777457E-01 0.15331967E+04</pdfrwt>
<totfact> 0.11547117E+01</totfact>
</mgrwt>
</event>
<event>
12    3  0.4634846E-008  0.2016348E+04  0.7818608E-02  0.8599016E-01
         -2   -1    0    0    0  501 -0.00000000000E+00  0.00000000000E+00  0.97016025144E+03  0.97016025144E+03  0.00000000000E+00 0.  1.
          2   -1    0    0  501    0  0.00000000000E+00 -0.00000000000E+00 -0.10476769014E+04  0.10476769014E+04  0.00000000000E+00 0. -1.
         23    2    1    2    0    0 -0.10649988759E+03 -0.57897948871E+03  0.52268611982E+03  0.79217055911E+03  0.88169952102E+02 0.  0.
        254    2    1    2    0    0  0.10649988759E+03  0.57897948871E+03 -0.60020276980E+03  0.12256665937E+04  0.89188326577E+03 0.  0.
         23    2    4    4    0    0  0.46572612724E+03  0.41417088241E+03 -0.21357243477E+03  0.66539830030E+03  0.93291841673E+02 0.  0.
         23    2    4    4    0    0 -0.35922623965E+03  0.16480860631E+03 -0.38663033503E+03  0.56026829345E+03  0.90621061073E+02 0.  0.
          4    1    3    3  502    0 -0.81650973765E+02 -0.31513160441E+03  0.33715388361E+03  0.46866571333E+03  0.00000000000E+00 0. -1.
         -4    1    3    3    0  502 -0.24848913823E+02 -0.26384788430E+03  0.18553223621E+03  0.32350484578E+03  0.00000000000E+00 0.  1.
         13    1    5    5    0    0  0.40834778697E+02  0.37014708255E+02  0.77861854280E+01  0.55661409091E+02  0.00000000000E+00 0.  1.
        -13    1    5    5    0    0  0.42489134854E+03  0.37715617415E+03 -0.22135862020E+03  0.60973689121E+03  0.00000000000E+00 0. -1.
          4    1    6    6  503    0 -0.66936014499E+02  0.45836530752E+02 -0.36648823999E+02  0.89019963429E+02  0.00000000000E+00 0. -1.
         -4    1    6    6    0  503 -0.29229022515E+03  0.11897207555E+03 -0.34998151103E+03  0.47124833002E+03  0.00000000000E+00 0.  1.
<mgrwt>
<rscale>  0 0.20163477E+04</rscale>
<asrwt>0</asrwt>
<pdfrwt beam="1">  1        2 0.16118106E+00 0.20163477E+04</pdfrwt>
<pdfrwt beam="2">  1       -2 0.14925542E+00 0.20163477E+04</pdfrwt>
<totfact> 0.66158042E+00</totfact>
</mgrwt>
</event>
<event>
12    3  0.4634846E-008  0.1180213E+04  0.7818608E-02  0.9130354E-01
         -2   -1    0    0    0  501 -0.00000000000E+00  0.00000000000E+00  0.28540700040E+03  0.28540700040E+03  0.00000000000E+00 0.  1.
          2   -1    0    0  501    0  0.00000000000E+00 -0.00000000000E+00 -0.12201023389E+04  0.12201023389E+04  0.00000000000E+00 0. -1.
         23    2    1    2    0    0 -0.72264649445E+02  0.95645835161E+01  0.66489031716E+02  0.13466551978E+03  0.91653423619E+02 0.  0.
        254    2    1    2    0    0  0.72264649445E+02 -0.95645835161E+01 -0.10011843702E+04  0.13708438195E+04  0.93355716135E+03 0.  0.
         23    2    4    4    0    0  0.36477109361E+03  0.90181575145E+02 -0.97330935053E+03  0.10473070852E+04  0.91270869801E+02 0.  0.
         23    2    4    4    0    0 -0.29250644416E+03 -0.99746158661E+02 -0.27875019644E+02  0.32353673427E+03  0.91595227269E+02 0.  0.
          1    1    3    3  502    0  0.74146990130E+01  0.28917829644E+02  0.12447109903E+01  0.29879222517E+02  0.00000000000E+00 0. -1.
         -1    1    3    3    0  502 -0.79679348458E+02 -0.19353246128E+02  0.65244320726E+02  0.10478629726E+03  0.00000000000E+00 0.  1.
         13    1    5    5    0    0  0.18916643065E+03  0.90500234246E+02 -0.57334979958E+03  0.61049506432E+03  0.00000000000E+00 0. -1.
        -13    1    5    5    0    0  0.17560466295E+03 -0.31865910185E+00 -0.39995955095E+03  0.43681202089E+03  0.00000000000E+00 0.  1.
          4    1    6    6  503    0 -0.20930111813E+03 -0.11329422903E+03 -0.22696987429E+02  0.23907675258E+03  0.00000000000E+00 0. -1.
         -4    1    6    6    0  503 -0.83205326028E+02  0.13548070371E+02 -0.51780322148E+01  0.84459981694E+02  0.00000000000E+00 0.  1.
<mgrwt>
<rscale>  0 0.11802131E+04</rscale>
<asrwt>0</asrwt>
<pdfrwt beam="1">  1        2 0.18770805E+00 0.11802131E+04</pdfrwt>
<pdfrwt beam="2">  1       -2 0.43908769E-01 0.11802131E+04</pdfrwt>
<totfact> 0.89489541E+01</totfact>
</mgrwt>
</event>
<event>
12    3  0.4634846E-008  0.1335225E+04  0.7818608E-02  0.9002089E-01
         -2   -1    0    0    0  501 -0.00000000000E+00  0.00000000000E+00  0.19855321854E+03  0.19855321854E+03  0.00000000000E+00 0. -1.
          2   -1    0    0  501    0  0.00000000000E+00 -0.00000000000E+00 -0.22447691775E+04  0.22447691775E+04  0.00000000000E+00 0.  1.
         23    2    1    2    0    0 -0.28630537862E+03  0.13178636955E+03 -0.27763536165E+03  0.42893378630E+03  0.86973455532E+02 0.  0.
        254    2    1    2    0    0  0.28630537862E+03 -0.13178636955E+03 -0.17685805973E+04  0.20143886098E+04  0.91134281410E+03 0.  0.
         23    2    4    4    0    0  0.35822466541E+03 -0.42233513387E+03 -0.67889792123E+03  0.88078032682E+03  0.90441807018E+02 0.  0.
         23    2    4    4    0    0 -0.71919286782E+02  0.29054876432E+03 -0.10896826761E+04  0.11336082829E+04  0.89824474848E+02 0.  0.
          4    1    3    3  502    0 -0.21983509279E+03  0.13888246303E+03 -0.22468120117E+03  0.34365309357E+03  0.00000000000E+00 0. -1.
         -4    1    3    3    0  502 -0.66470285831E+02 -0.70960934829E+01 -0.52954160484E+02  0.85280692737E+02  0.00000000000E+00 0.  1.
         13    1    5    5    0    0  0.19566717081E+03 -0.16222931613E+03 -0.32039956962E+03  0.40897417639E+03  0.00000000000E+00 0. -1.
        -13    1    5    5    0    0  0.16255749459E+03 -0.26010581774E+03 -0.35849835161E+03  0.47180615043E+03  0.00000000000E+00 0.  1.
          1    1    6    6  503    0  0.16468903951E+02  0.62346854346E+02 -0.30101867449E+03  0.30784833512E+03  0.00000000000E+00 0. -1.
         -1    1    6    6    0  503 -0.88388190733E+02  0.22820190997E+03 -0.78866400162E+03  0.82575994782E+03  0.00000000000E+00 0.  1.
<mgrwt>
<rscale>  0 0.13352245E+04</rscale>
<asrwt>0</asrwt>
<pdfrwt beam="1">  1        2 0.34534912E+00 0.13352245E+04</pdfrwt>
<pdfrwt beam="2">  1       -2 0.30546647E-01 0.13352245E+04</pdfrwt>
<totfact> 0.47333129E+01</totfact>
</mgrwt>
</event>
<event>
12    3  0.4634846E-008  0.1498518E+04  0.7818608E-02  0.8885439E-01
          1   -1    0    0  501    0  0.00000000000E+00  0.00000000000E+00  0.48562149592E+03  0.48562149592E+03  0.00000000000E+00 0. -1.
         -1   -1    0    0    0  501 -0.00000000000E+00 -0.00000000000E+00 -0.11560211002E+04  0.11560211002E+04  0.00000000000E+00 0.  1.
         23    2    1    2    0    0  0.34885604226E+03  0.30365297321E+03 -0.10710678568E+03  0.48259584555E+03  0.86724968981E+02 0.  0.
        254    2    1    2    0    0 -0.34885604226E+03 -0.30365297321E+03 -0.56329281857E+03  0.11590467505E+04  0.90121301819E+03 0.  0.
         23    2    4    4    0    0  0.26186175231E+03 -0.20946444247E+03 -0.36339634650E+03  0.50278258108E+03  0.91030155475E+02 0.  0.
         23    2    4    4    0    0 -0.61071779457E+03 -0.94188530745E+02 -0.19989647207E+03  0.65626416947E+03  0.94214418540E+02 0.  0.
          3    1    3    3  502    0  0.33479827776E+03  0.26364528537E+03 -0.10993530514E+03  0.44009600612E+03  0.00000000000E+00 0. -1.
         -3    1    3    3    0  502  0.14057764498E+02  0.40007687845E+02  0.28285194570E+01  0.42499839432E+02  0.00000000000E+00 0.  1.
         13    1    5    5    0    0  0.20943932014E+03 -0.12692161824E+03 -0.29524791773E+03  0.38359517583E+03  0.00000000000E+00 0. -1.
        -13    1    5    5    0    0  0.52422432175E+02 -0.82542824224E+02 -0.68148428769E+02  0.11918740525E+03  0.00000000000E+00 0.  1.
          1    1    6    6  503    0 -0.37783009769E+03 -0.10098057402E+03 -0.10723012100E+03  0.40552553298E+03  0.00000000000E+00 0. -1.
         -1    1    6    6    0  503 -0.23288769687E+03  0.67920432755E+01 -0.92666351062E+02  0.25073863648E+03  0.00000000000E+00 0.  1.
<mgrwt>
<rscale>  0 0.14985175E+04</rscale>
<asrwt>0</asrwt>
<pdfrwt beam="1">  1        1 0.74711000E-01 0.14985175E+04</pdfrwt>
<pdfrwt beam="2">  1       -1 0.17784940E+00 0.14985175E+04</pdfrwt>
<totfact> 0.96267738E+00</totfact>
</mgrwt>
</event>
<event>
12    3  0.4634846E-008  0.1220559E+04  0.7818608E-02  0.9095049E-01
          2   -1    0    0  501    0  0.00000000000E+00  0.00000000000E+00  0.14721858933E+04  0.14721858933E+04  0.00000000000E+00 0. -1.
         -2   -1    0    0    0  501 -0.00000000000E+00 -0.00000000000E+00 -0.25298521867E+03  0.25298521867E+03  0.00000000000E+00 0.  1.
         23    2    1    2    0    0 -0.20574821200E+03 -0.14259650854E+03  0.42088684692E+03  0.49819594309E+03  0.91582579196E+02 0.  0.
        254    2    1    2    0    0  0.20574821200E+03  0.14259650854E+03  0.79831382771E+03  0.12269751689E+04  0.89749485041E+03 0.  0.
         23    2    4    4    0    0  0.31960399968E+03 -0.27923012404E+03  0.59693751525E+03  0.73731397444E+03  0.84742675253E+02 0.  0.
         23    2    4    4    0    0 -0.11385578768E+03  0.42182663259E+03  0.20137631246E+03  0.48966119443E+03  0.91185622575E+02 0.  0.
          3    1    3    3  502    0 -0.72790359678E+02 -0.82761344495E+01  0.16069955986E+03  0.17661053027E+03  0.00000000000E+00 0. -1.
         -3    1    3    3    0  502 -0.13295785233E+03 -0.13432037409E+03  0.26018728706E+03  0.32158541282E+03  0.00000000000E+00 0.  1.
         13    1    5    5    0    0  0.63132781497E+02 -0.17634873068E+02  0.74521835096E+02  0.99248379099E+02  0.00000000000E+00 0. -1.
        -13    1    5    5    0    0  0.25647121818E+03 -0.26159525098E+03  0.52241568015E+03  0.63806559534E+03  0.00000000000E+00 0.  1.
          2    1    6    6  503    0 -0.26090897568E+02  0.15007919228E+03  0.11641798676E+03  0.19172283779E+03  0.00000000000E+00 0. -1.
         -2    1    6    6    0  503 -0.87764890107E+02  0.27174744031E+03  0.84958325706E+02  0.29793835664E+03  0.00000000000E+00 0.  1.
<mgrwt>
<rscale>  0 0.12205593E+04</rscale>
<asrwt>0</asrwt>
<pdfrwt beam="1">  1        2 0.22649013E+00 0.12205593E+04</pdfrwt>
<pdfrwt beam="2">  1       -2 0.38920804E-01 0.12205593E+04</pdfrwt>
<totfact> 0.80883204E+01</totfact>
</mgrwt>
</event>
<event>
12    3  0.4634846E-008  0.1781635E+04  0.7818608E-02  0.8716127E-01
         -1   -1    0    0    0  501 -0.00000000000E+00  0.00000000000E+00  0.43373898632E+03  0.43373898632E+03  0.00000000000E+00 0.  1.
          1   -1    0    0  501    0  0.00000000000E+00 -0.00000000000E+00 -0.18295699949E+04  0.18295699949E+04  0.00000000000E+00 0. -1.
         23    2    1    2    0    0  0.20629262287E+03  0.57225348279E+03 -0.18820718715E+03  0.64298148879E+03  0.89289164042E+02 0.  0.
        254    2    1    2    0    0 -0.20629262287E+03 -0.57225348279E+03 -0.12076238215E+04  0.16203274925E+04  0.89279067752E+03 0.  0.
         23    2    4    4    0    0 -0.14140878039E+03  0.15856394684E+03 -0.34032885926E+02  0.23335049423E+03  0.90306408537E+02 0.  0.
         23    2    4    4    0    0 -0.64883842486E+02 -0.73081742963E+03 -0.11735909355E+04  0.13869769982E+04  0.89919303835E+02 0.  0.
          2    1    3    3  502    0  0.70107744621E+01  0.48033557422E+02 -0.40022001463E+02  0.62913704376E+02  0.00000000000E+00 0. -1.
         -2    1    3    3    0  502  0.19928184841E+03  0.52421992537E+03 -0.14818518568E+03  0.58006778441E+03  0.00000000000E+00 0.  1.
         13    1    5    5    0    0 -0.11503915548E+03  0.13309973855E+03  0.98143609011E+01  0.17619838074E+03  0.00000000000E+00 0. -1.
        -13    1    5    5    0    0 -0.26369624910E+02  0.25464208292E+02 -0.43847246827E+02  0.57152113488E+02  0.00000000000E+00 0.  1.
          3    1    6    6  503    0 -0.74523742734E+02 -0.70260689475E+03 -0.11463192380E+04  0.13465726985E+04  0.00000000000E+00 0. -1.
         -3    1    6    6    0  503  0.96399002472E+01 -0.28210534879E+02 -0.27271697500E+02  0.40404299764E+02  0.00000000000E+00 0.  1.
<mgrwt>
<rscale>  0 0.17816350E+04</rscale>
<asrwt>0</asrwt>
<pdfrwt beam="1">  1        1 0.28147231E+00 0.17816350E+04</pdfrwt>
<pdfrwt beam="2">  1       -1 0.66729075E-01 0.17816350E+04</pdfrwt>
<totfact> 0.83644681E+00</totfact>
</mgrwt>
</event>
<event>
12    3  0.4634846E-008  0.1304792E+04  0.7818608E-02  0.9025774E-01
         -1   -1    0    0    0  501 -0.00000000000E+00  0.00000000000E+00  0.12863931566E+04  0.12863931566E+04  0.00000000000E+00 0.  1.
          1   -1    0    0  501    0  0.00000000000E+00 -0.00000000000E+00 -0.33086358539E+03  0.33086358539E+03  0.00000000000E+00 0. -1.
         23    2    1    2    0    0  0.26234574118E+03  0.74155739335E+02  0.50626806496E+01  0.28788008803E+03  0.92330670731E+02 0.  0.
        254    2    1    2    0    0 -0.26234574118E+03 -0.74155739335E+02  0.95046689060E+03  0.13293766540E+04  0.88855535365E+03 0.  0.
         23    2    4    4    0    0 -0.50188337326E+03 -0.27705584324E+03  0.74003869644E+03  0.94055747178E+03  0.91346728757E+02 0.  0.
         23    2    4    4    0    0  0.23953763208E+03  0.20290010390E+03  0.21042819416E+03  0.38881918223E+03  0.91398042773E+02 0.  0.
          3    1    3    3  502    0  0.92745583117E+02  0.42915754259E+02  0.43710744863E+02  0.11114915370E+03  0.00000000000E+00 0. -1.
         -3    1    3    3    0  502  0.16960015806E+03  0.31239985076E+02 -0.38648064214E+02  0.17673093433E+03  0.00000000000E+00 0.  1.
         13    1    5    5    0    0 -0.71167123544E+02 -0.24056615723E+02  0.14771632749E+03  0.16572143386E+03  0.00000000000E+00 0. -1.
        -13    1    5    5    0    0 -0.43071624972E+03 -0.25299922751E+03  0.59232236896E+03  0.77483603792E+03  0.00000000000E+00 0.  1.
          4    1    6    6  503    0  0.16877283875E+02  0.42079368028E+02  0.61411688527E+02  0.76334208665E+02  0.00000000000E+00 0. -1.
         -4    1    6    6    0  503  0.22266034821E+03  0.16082073587E+03  0.14901650563E+03  0.31248497356E+03  0.00000000000E+00 0.  1.
<mgrwt>
<rscale>  0 0.13047922E+04</rscale>
<asrwt>0</asrwt>
<pdfrwt beam="1">  1        1 0.50902091E-01 0.13047922E+04</pdfrwt>
<pdfrwt beam="2">  1       -1 0.19790664E+00 0.13047922E+04</pdfrwt>
<totfact> 0.11786723E+01</totfact>
</mgrwt>
</event>
<event>
12    3  0.4634846E-008  0.1609456E+04  0.7818608E-02  0.8814760E-01
         -2   -1    0    0    0  501 -0.00000000000E+00  0.00000000000E+00  0.41118611721E+03  0.41118611721E+03  0.00000000000E+00 0. -1.
          2   -1    0    0  501    0  0.00000000000E+00 -0.00000000000E+00 -0.15749245652E+04  0.15749245652E+04  0.00000000000E+00 0.  1.
         23    2    1    2    0    0 -0.22942636724E+02 -0.46644415261E+03 -0.44171962892E+02  0.47796011781E+03  0.91641692649E+02 0.  0.
        254    2    1    2    0    0  0.22942636724E+02  0.46644415261E+03 -0.11195664851E+04  0.15081505646E+04  0.89609848726E+03 0.  0.
         23    2    4    4    0    0 -0.30136228458E+03  0.49886129989E+03 -0.97268673392E+03  0.11377161845E+04  0.92718990162E+02 0.  0.
         23    2    4    4    0    0  0.32430492131E+03 -0.32417147280E+02 -0.14687975120E+03  0.37043438007E+03  0.97074276720E+02 0.  0.
          4    1    3    3  502    0  0.28930998001E+01 -0.42628220979E+03 -0.26761965705E+02  0.42713123887E+03  0.00000000000E+00 0. -1.
         -4    1    3    3    0  502 -0.25835736524E+02 -0.40161942824E+02 -0.17409997187E+02  0.50828878948E+02  0.00000000000E+00 0.  1.
         13    1    5    5    0    0 -0.18713770697E+03  0.38778007392E+03 -0.69517554903E+03  0.81771813669E+03  0.00000000000E+00 0. -1.
        -13    1    5    5    0    0 -0.11422457761E+03  0.11108122597E+03 -0.27751118488E+03  0.31999804785E+03  0.00000000000E+00 0.  1.
          3    1    6    6  503    0  0.10249483113E+03 -0.20792330804E+02 -0.79507728899E+00  0.10458558016E+03  0.00000000000E+00 0. -1.
         -3    1    6    6    0  503  0.22181009018E+03 -0.11624816476E+02 -0.14608467391E+03  0.26584879991E+03  0.00000000000E+00 0.  1.
<mgrwt>
<rscale>  0 0.16094560E+04</rscale>
<asrwt>0</asrwt>
<pdfrwt beam="1">  1        2 0.24229609E+00 0.16094560E+04</pdfrwt>
<pdfrwt beam="2">  1       -2 0.63259403E-01 0.16094560E+04</pdfrwt>
<totfact> 0.25539568E+01</totfact>
</mgrwt>
</event>
<event>
12    3  0.4634846E-008  0.2204606E+04  0.7818608E-02  0.8516513E-01
         -1   -1    0    0    0  501 -0.00000000000E+00  0.00000000000E+00  0.14514578942E+04  0.14514578942E+04  0.00000000000E+00 0.  1.
          1   -1    0    0  501    0  0.00000000000E+00 -0.00000000000E+00 -0.83713894277E+03  0.83713894277E+03  0.00000000000E+00 0. -1.
         23    2    1    2    0    0 -0.82125735229E+03  0.17716987249E+03  0.64063767956E+03  0.10603420943E+04  0.89754766464E+02 0.  0.
        254    2    1    2    0    0  0.82125735229E+03 -0.17716987249E+03 -0.26318728137E+02  0.12282547426E+04  0.89558039000E+03 0.  0.
         23    2    4    4    0    0  0.66838905810E+03 -0.49327762647E+03 -0.14156838420E+03  0.84764019661E+03  0.91572625436E+02 0.  0.
         23    2    4    4    0    0  0.15286829419E+03  0.31610775398E+03  0.11524965607E+03  0.38061454603E+03  0.91061089025E+02 0.  0.
          2    1    3    3  502    0 -0.37232476647E+03  0.61836869437E+02  0.23660647792E+03  0.44545724323E+03  0.00000000000E+00 0. -1.
         -2    1    3    3    0  502 -0.44893258582E+03  0.11533300306E+03  0.40403120164E+03  0.61488485109E+03  0.00000000000E+00 0.  1.
         13    1    5    5    0    0  0.12635904276E+02 -0.17555956647E+02 -0.17984511315E+02  0.28130416597E+02  0.00000000000E+00 0. -1.
        -13    1    5    5    0    0  0.65575315383E+03 -0.47572166983E+03 -0.12358387289E+03  0.81950978001E+03  0.00000000000E+00 0.  1.
          3    1    6    6  503    0 -0.62559061573E-01  0.14372216979E+02 -0.12470448602E+02  0.19028311088E+02  0.00000000000E+00 0. -1.
         -3    1    6    6    0  503  0.15293085325E+03  0.30173553700E+03  0.12772010467E+03  0.36158623495E+03  0.00000000000E+00 0.  1.
<mgrwt>
<rscale>  0 0.22046060E+04</rscale>
<asrwt>0</asrwt>
<pdfrwt beam="1">  1        1 0.12879061E+00 0.22046060E+04</pdfrwt>
<pdfrwt beam="2">  1       -1 0.22330121E+00 0.22046060E+04</pdfrwt>
<totfact> 0.19574900E+00</totfact>
</mgrwt>
</event>
<event>
12    3  0.4634846E-008  0.1589012E+04  0.7818608E-02  0.8827327E-01
         -2   -1    0    0    0  501 -0.00000000000E+00  0.00000000000E+00  0.54973362466E+03  0.54973362466E+03  0.00000000000E+00 0.  1.
          2   -1    0    0  501    0  0.00000000000E+00 -0.00000000000E+00 -0.11482641214E+04  0.11482641214E+04  0.00000000000E+00 0. -1.
         23    2    1    2    0    0 -0.86388960338E+02 -0.43500215311E+03  0.11444458949E+03  0.46685766172E+03  0.90380233225E+02 0.  0.
        254    2    1    2    0    0  0.86388960338E+02  0.43500215311E+03 -0.71297508620E+03  0.12311400843E+04  0.90037909127E+03 0.  0.
         23    2    4    4    0    0  0.43055359462E+03  0.43157649306E+03 -0.30489294946E+03  0.68769709860E+03  0.91284837703E+02 0.  0.
         23    2    4    4    0    0 -0.34416463428E+03  0.34256600558E+01 -0.40808213675E+03  0.54344298572E+03  0.10167702672E+03 0.  0.
          2    1    3    3  502    0 -0.45408370014E+02 -0.11566182432E+03 -0.26004255565E+01  0.12428330494E+03  0.00000000000E+00 0. -1.
         -2    1    3    3    0  502 -0.40980590324E+02 -0.31934032879E+03  0.11704501504E+03  0.34257435678E+03  0.00000000000E+00 0.  1.
         13    1    5    5    0    0  0.29552602343E+03  0.27210454312E+03 -0.15520860020E+03  0.43065789495E+03  0.00000000000E+00 0. -1.
        -13    1    5    5    0    0  0.13502757119E+03  0.15947194993E+03 -0.14968434926E+03  0.25703920365E+03  0.00000000000E+00 0.  1.
          3    1    6    6  503    0 -0.27476906353E+03  0.41561329483E+02 -0.29376475377E+03  0.40437991164E+03  0.00000000000E+00 0. -1.
         -3    1    6    6    0  503 -0.69395570756E+02 -0.38135669427E+02 -0.11431738298E+03  0.13906307409E+03  0.00000000000E+00 0.  1.
<mgrwt>
<rscale>  0 0.15890115E+04</rscale>
<asrwt>0</asrwt>
<pdfrwt beam="1">  1        2 0.17665602E+00 0.15890115E+04</pdfrwt>
<pdfrwt beam="2">  1       -2 0.84574405E-01 0.15890115E+04</pdfrwt>
<totfact> 0.23809423E+01</totfact>
</mgrwt>
</event>
<event>
12    3  0.4634846E-008  0.2688248E+04  0.7818608E-02  0.8338828E-01
         -1   -1    0    0    0  501 -0.00000000000E+00  0.00000000000E+00  0.96415802677E+03  0.96415802677E+03  0.00000000000E+00 0.  1.
          1   -1    0    0  501    0  0.00000000000E+00 -0.00000000000E+00 -0.18738313136E+04  0.18738313136E+04  0.00000000000E+00 0. -1.
         23    2    1    2    0    0  0.46170730115E+02  0.74470391066E+03  0.57727687484E+03  0.94974670017E+03  0.10979323017E+03 0.  0.
        254    2    1    2    0    0 -0.46170730115E+02 -0.74470391066E+03 -0.14869501617E+04  0.18882426402E+04  0.89315386921E+03 0.  0.
         23    2    4    4    0    0 -0.43045777240E+03 -0.23757296378E+03 -0.82659891383E+03  0.96618773675E+03  0.92293940008E+02 0.  0.
         23    2    4    4    0    0  0.38428704229E+03 -0.50713094687E+03 -0.66035124786E+03  0.92205490346E+03  0.96245240369E+02 0.  0.
          2    1    3    3  502    0  0.13125385300E+02  0.19659000223E+02  0.40975725360E+02  0.47304990200E+02  0.00000000000E+00 0. -1.
         -2    1    3    3    0  502  0.33045344815E+02  0.72504491043E+03  0.53630114948E+03  0.90244170997E+03  0.00000000000E+00 0.  1.
         13    1    5    5    0    0 -0.26524115203E+03 -0.14742969902E+03 -0.42017231085E+03  0.51829832692E+03  0.00000000000E+00 0. -1.
        -13    1    5    5    0    0 -0.16521662037E+03 -0.90143264759E+02 -0.40642660298E+03  0.44788940983E+03  0.00000000000E+00 0.  1.
          4    1    6    6  503    0  0.31574328960E+03 -0.45174721497E+03 -0.60290092157E+03  0.81685916313E+03  0.00000000000E+00 0. -1.
         -4    1    6    6    0  503  0.68543752690E+02 -0.55383731901E+02 -0.57450326291E+02  0.10519574033E+03  0.00000000000E+00 0.  1.
<mgrwt>
<rscale>  0 0.26882481E+04</rscale>
<asrwt>0</asrwt>
<pdfrwt beam="1">  1        1 0.28828174E+00 0.26882481E+04</pdfrwt>
<pdfrwt beam="2">  1       -1 0.14833200E+00 0.26882481E+04</pdfrwt>
<totfact> 0.11406121E+00</totfact>
</mgrwt>
</event>
<event>
12    3  0.4634846E-008  0.1686437E+04  0.7818608E-02  0.8769138E-01
         -1   -1    0    0    0  501 -0.00000000000E+00  0.00000000000E+00  0.39972340557E+03  0.39972340557E+03  0.00000000000E+00 0.  1.
          1   -1    0    0  501    0  0.00000000000E+00 -0.00000000000E+00 -0.17787739203E+04  0.17787739203E+04  0.00000000000E+00 0. -1.
         23    2    1    2    0    0 -0.51521612952E+03 -0.16903346217E+02 -0.88965957052E+03  0.10331937026E+04  0.10130001162E+03 0.  0.
        254    2    1    2    0    0  0.51521612952E+03  0.16903346217E+02 -0.48939094423E+03  0.11453036233E+04  0.89804426957E+03 0.  0.
         23    2    4    4    0    0  0.20479151511E+03 -0.15556152348E+03  0.21769660644E+03  0.34872522111E+03  0.89880560369E+02 0.  0.
         23    2    4    4    0    0  0.31042461441E+03  0.17246486970E+03 -0.70708755067E+03  0.79657840223E+03  0.91960720245E+02 0.  0.
          3    1    3    3  502    0 -0.33104043866E+03 -0.23295446088E+01 -0.66063668093E+03  0.73894114989E+03  0.00000000000E+00 0. -1.
         -3    1    3    3    0  502 -0.18417569086E+03 -0.14573801608E+02 -0.22902288960E+03  0.29425255267E+03  0.00000000000E+00 0.  1.
         13    1    5    5    0    0  0.16805982944E+03 -0.14475641069E+03  0.21718811577E+03  0.31043389367E+03  0.00000000000E+00 0.  1.
        -13    1    5    5    0    0  0.36731685667E+02 -0.10805112793E+02  0.50849067547E+00  0.38291327441E+02  0.00000000000E+00 0. -1.
          1    1    6    6  503    0  0.17475734121E+02  0.21306504998E+02 -0.12145266983E+03  0.12453963003E+03  0.00000000000E+00 0. -1.
         -1    1    6    6    0  503  0.29294888029E+03  0.15115836470E+03 -0.58563488083E+03  0.67203877219E+03  0.00000000000E+00 0.  1.
<mgrwt>
<rscale>  0 0.16864372E+04</rscale>
<asrwt>0</asrwt>
<pdfrwt beam="1">  1        1 0.27365752E+00 0.16864372E+04</pdfrwt>
<pdfrwt beam="2">  1       -1 0.61495909E-01 0.16864372E+04</pdfrwt>
<totfact> 0.10761672E+01</totfact>
</mgrwt>
</event>
<event>
12    3  0.5061451E-008  0.1397477E+04  0.7818608E-02  0.8955647E-01
         -4   -1    0    0    0  501 -0.00000000000E+00  0.00000000000E+00  0.61460215529E+03  0.61460215529E+03  0.00000000000E+00 0.  1.
          4   -1    0    0  501    0  0.00000000000E+00 -0.00000000000E+00 -0.79439245088E+03  0.79439245088E+03  0.00000000000E+00 0. -1.
         23    2    1    2    0    0 -0.24694040386E+02 -0.32901592745E+02 -0.47066031614E+03  0.48036251486E+03  0.86802661582E+02 0.  0.
        254    2    1    2    0    0  0.24694040386E+02  0.32901592745E+02  0.29087002055E+03  0.92863209130E+03  0.88094260976E+03 0.  0.
         23    2    4    4    0    0 -0.62753434108E+02  0.19795986578E+02  0.59142814589E+03  0.60185524610E+03  0.90070033424E+02 0.  0.
         23    2    4    4    0    0  0.87447474494E+02  0.13105606167E+02 -0.30055812534E+03  0.32677684520E+03  0.92892960688E+02 0.  0.
          1    1    3    3  502    0 -0.39581364757E+02 -0.20122356856E+02 -0.44879058759E+03  0.45098180140E+03  0.00000000000E+00 0. -1.
         -1    1    3    3    0  502  0.14887324371E+02 -0.12779235889E+02 -0.21869728554E+02  0.29380713467E+02  0.00000000000E+00 0.  1.
         13    1    5    5    0    0 -0.24353596007E+02  0.54466321873E+02  0.33211690247E+03  0.33743342271E+03  0.00000000000E+00 0. -1.
        -13    1    5    5    0    0 -0.38399838101E+02 -0.34670335296E+02  0.25931124343E+03  0.26442182339E+03  0.00000000000E+00 0.  1.
          4    1    6    6  503    0  0.22899602184E+02 -0.30463715580E+02 -0.41854029464E+02  0.56605560941E+02  0.00000000000E+00 0. -1.
         -4    1    6    6    0  503  0.64547872310E+02  0.43569321747E+02 -0.25870409587E+03  0.27017128426E+03  0.00000000000E+00 0.  1.
<mgrwt>
<rscale>  0 0.13974767E+04</rscale>
<asrwt>0</asrwt>
<pdfrwt beam="1">  1        4 0.12221422E+00 0.13974767E+04</pdfrwt>
<pdfrwt beam="2">  1       -4 0.94554177E-01 0.13974767E+04</pdfrwt>
<totfact> 0.92740899E-01</totfact>
</mgrwt>
</event>
<event>
12    3  0.4634846E-008  0.1971476E+04  0.7818608E-02  0.8620074E-01
          2   -1    0    0  501    0  0.00000000000E+00  0.00000000000E+00  0.71311431766E+03  0.71311431766E+03  0.00000000000E+00 0.  1.
         -2   -1    0    0    0  501 -0.00000000000E+00 -0.00000000000E+00 -0.13625858160E+04  0.13625858160E+04  0.00000000000E+00 0. -1.
         23    2    1    2    0    0  0.23858947980E+03 -0.75575853808E+03 -0.37868718108E+03  0.88432788975E+03  0.10264466732E+03 0.  0.
        254    2    1    2    0    0 -0.23858947980E+03  0.75575853808E+03 -0.27078431729E+03  0.11913722439E+04  0.84731798600E+03 0.  0.
         23    2    4    4    0    0  0.13410154339E+03  0.65510413256E+03 -0.38490062016E+03  0.77732604912E+03  0.94565590025E+02 0.  0.
         23    2    4    4    0    0 -0.37269102319E+03  0.10065440552E+03  0.11411630287E+03  0.41404619482E+03  0.96859758128E+02 0.  0.
          3    1    3    3  502    0 -0.10968616213E-01 -0.91120128608E+01 -0.20676778943E+02  0.22595532438E+02  0.00000000000E+00 0. -1.
         -3    1    3    3    0  502  0.23860044842E+03 -0.74664652522E+03 -0.35801040213E+03  0.86173235731E+03  0.00000000000E+00 0.  1.
         13    1    5    5    0    0  0.43718686446E+02  0.17559404033E+03 -0.15347041583E+03  0.23727148813E+03  0.00000000000E+00 0.  1.
        -13    1    5    5    0    0  0.90382856942E+02  0.47951009223E+03 -0.23143020433E+03  0.54005456100E+03  0.00000000000E+00 0. -1.
          1    1    6    6  503    0 -0.66777213204E+02 -0.19114312730E+02  0.18090171494E+02  0.71776092531E+02  0.00000000000E+00 0. -1.
         -1    1    6    6    0  503 -0.30591380999E+03  0.11976871825E+03  0.96026131374E+02  0.34227010228E+03  0.00000000000E+00 0.  1.
<mgrwt>
<rscale>  0 0.19714761E+04</rscale>
<asrwt>0</asrwt>
<pdfrwt beam="1">  1        2 0.10970990E+00 0.19714761E+04</pdfrwt>
<pdfrwt beam="2">  1       -2 0.20962858E+00 0.19714761E+04</pdfrwt>
<totfact> 0.42879974E+00</totfact>
</mgrwt>
</event>
<event>
12    3  0.4634846E-008  0.1414003E+04  0.7818608E-02  0.8943745E-01
          3   -1    0    0  501    0  0.00000000000E+00  0.00000000000E+00  0.38203752657E+03  0.38203752657E+03  0.00000000000E+00 0. -1.
         -3   -1    0    0    0  501 -0.00000000000E+00 -0.00000000000E+00 -0.13083815234E+04  0.13083815234E+04  0.00000000000E+00 0.  1.
         23    2    1    2    0    0  0.27782199069E+03 -0.13220695060E+03  0.54212753155E+02  0.32596852690E+03  0.93020006602E+02 0.  0.
        254    2    1    2    0    0 -0.27782199069E+03  0.13220695060E+03 -0.98055674996E+03  0.13644505230E+04  0.89753548879E+03 0.  0.
         23    2    4    4    0    0  0.14832449116E+03  0.22351721637E+03  0.48481773424E+01  0.28318835805E+03  0.90620310193E+02 0.  0.
         23    2    4    4    0    0 -0.42614648186E+03 -0.91310265773E+02 -0.98540492730E+03  0.10812621650E+04  0.90369298176E+02 0.  0.
          1    1    3    3  502    0  0.18504826137E+03 -0.85274087605E+02  0.79925547731E+02  0.21886667685E+03  0.00000000000E+00 0. -1.
         -1    1    3    3    0  502  0.92773729320E+02 -0.46932862994E+02 -0.25712794576E+02  0.10710185006E+03  0.00000000000E+00 0.  1.
         13    1    5    5    0    0  0.85708259184E+02  0.17991728876E+03 -0.25821019592E+02  0.20095487439E+03  0.00000000000E+00 0. -1.
        -13    1    5    5    0    0  0.62616231981E+02  0.43599927611E+02  0.30669196934E+02  0.82233483665E+02  0.00000000000E+00 0.  1.
          3    1    6    6  503    0 -0.46260795827E+02 -0.83843575615E+01 -0.19238325965E+03  0.19804463455E+03  0.00000000000E+00 0. -1.
         -3    1    6    6    0  503 -0.37988568603E+03 -0.82925908212E+02 -0.79302166765E+03  0.88321753044E+03  0.00000000000E+00 0.  1.
<mgrwt>
<rscale>  0 0.14140026E+04</rscale>
<asrwt>0</asrwt>
<pdfrwt beam="1">  1        3 0.58775004E-01 0.14140026E+04</pdfrwt>
<pdfrwt beam="2">  1       -3 0.20128947E+00 0.14140026E+04</pdfrwt>
<totfact> 0.10387620E+00</totfact>
</mgrwt>
</event>
<event>
12    3  0.4634846E-008  0.1417491E+04  0.7818608E-02  0.8941254E-01
          2   -1    0    0  501    0  0.00000000000E+00  0.00000000000E+00  0.15946905812E+04  0.15946905812E+04  0.00000000000E+00 0. -1.
         -2   -1    0    0    0  501 -0.00000000000E+00 -0.00000000000E+00 -0.31499535777E+03  0.31499535777E+03  0.00000000000E+00 0.  1.
         23    2    1    2    0    0 -0.24987319338E+03 -0.33594849567E+03  0.39353317052E+03  0.58147729624E+03  0.89159885774E+02 0.  0.
        254    2    1    2    0    0  0.24987319338E+03  0.33594849567E+03  0.88616205290E+03  0.13282086427E+04  0.89641341471E+03 0.  0.
         23    2    4    4    0    0  0.38918782306E+03 -0.94687170708E+02  0.10808934342E+03  0.42343418312E+03  0.84737119111E+02 0.  0.
         23    2    4    4    0    0 -0.13931462968E+03  0.43063566637E+03  0.77807270948E+03  0.90477445960E+03  0.91455116310E+02 0.  0.
          2    1    3    3  502    0 -0.12734393692E+03 -0.20699983384E+03  0.27855283055E+03  0.36967159599E+03  0.00000000000E+00 0. -1.
         -2    1    3    3    0  502 -0.12252925646E+03 -0.12894866183E+03  0.11498033997E+03  0.21180570024E+03  0.00000000000E+00 0.  1.
         13    1    5    5    0    0  0.14766267417E+03 -0.40084533595E+00  0.17075149257E+02  0.14864718882E+03  0.00000000000E+00 0. -1.
        -13    1    5    5    0    0  0.24152514889E+03 -0.94286325372E+02  0.91014194165E+02  0.27478699430E+03  0.00000000000E+00 0.  1.
          3    1    6    6  503    0 -0.81111248430E+02  0.11846947536E+03  0.26464186513E+03  0.30108033478E+03  0.00000000000E+00 0. -1.
         -3    1    6    6    0  503 -0.58203381254E+02  0.31216619101E+03  0.51343084435E+03  0.60369412481E+03  0.00000000000E+00 0.  1.
<mgrwt>
<rscale>  0 0.14174909E+04</rscale>
<asrwt>0</asrwt>
<pdfrwt beam="1">  1        2 0.24533701E+00 0.14174909E+04</pdfrwt>
<pdfrwt beam="2">  1       -2 0.48460825E-01 0.14174909E+04</pdfrwt>
<totfact> 0.44012773E+01</totfact>
</mgrwt>
</event>
<event>
12    3  0.4634846E-008  0.1426930E+04  0.7818608E-02  0.8934553E-01
         -1   -1    0    0    0  501 -0.00000000000E+00  0.00000000000E+00  0.51441399499E+03  0.51441399499E+03  0.00000000000E+00 0.  1.
          1   -1    0    0  501    0  0.00000000000E+00 -0.00000000000E+00 -0.98953803666E+03  0.98953803666E+03  0.00000000000E+00 0. -1.
         23    2    1    2    0    0 -0.21679582975E+03 -0.34735354395E+03 -0.61731703389E+02  0.42436593953E+03  0.92847892476E+02 0.  0.
        254    2    1    2    0    0  0.21679582975E+03  0.34735354395E+03 -0.41339233828E+03  0.10795860921E+04  0.90937230477E+03 0.  0.
         23    2    4    4    0    0  0.16306752625E+02 -0.17909209021E+03 -0.46431664191E+03  0.50651830144E+03  0.92902953552E+02 0.  0.
         23    2    4    4    0    0  0.20048907712E+03  0.52644563416E+03  0.50924303629E+02  0.57306779069E+03  0.92046359266E+02 0.  0.
          3    1    3    3  502    0 -0.18556027724E+03 -0.27075381705E+03 -0.83766342944E+02  0.33875809385E+03  0.00000000000E+00 0. -1.
         -3    1    3    3    0  502 -0.31235552502E+02 -0.76599726898E+02  0.22034639555E+02  0.85607845676E+02  0.00000000000E+00 0.  1.
         13    1    5    5    0    0 -0.20735750860E+02 -0.14390001699E+03 -0.28328194975E+03  0.31841144657E+03  0.00000000000E+00 0.  1.
        -13    1    5    5    0    0  0.37042503485E+02 -0.35192073222E+02 -0.18103469216E+03  0.18810685486E+03  0.00000000000E+00 0. -1.
          1    1    6    6  503    0  0.58577632196E+02  0.18005855819E+03  0.60004772520E+02  0.19862778279E+03  0.00000000000E+00 0. -1.
         -1    1    6    6    0  503  0.14191144492E+03  0.34638707597E+03 -0.90804688907E+01  0.37444000790E+03  0.00000000000E+00 0.  1.
<mgrwt>
<rscale>  0 0.14269299E+04</rscale>
<asrwt>0</asrwt>
<pdfrwt beam="1">  1        1 0.15223662E+00 0.14269299E+04</pdfrwt>
<pdfrwt beam="2">  1       -1 0.79140615E-01 0.14269299E+04</pdfrwt>
<totfact> 0.23954191E+01</totfact>
</mgrwt>
</event>
<event>
12    3  0.4634846E-008  0.2077789E+04  0.7818608E-02  0.8571091E-01
         -1   -1    0    0    0  501 -0.00000000000E+00  0.00000000000E+00  0.54859707301E+03  0.54859707301E+03  0.00000000000E+00 0.  1.
          1   -1    0    0  501    0  0.00000000000E+00 -0.00000000000E+00 -0.19673859509E+04  0.19673859509E+04  0.00000000000E+00 0. -1.
         23    2    1    2    0    0  0.73118919159E+03 -0.89125377373E+02 -0.85616021469E+02  0.74715977982E+03  0.91305348450E+02 0.  0.
        254    2    1    2    0    0 -0.73118919159E+03  0.89125377373E+02 -0.13331728564E+04  0.17688232441E+04  0.89933577543E+03 0.  0.
         23    2    4    4    0    0 -0.78210448529E+02 -0.31745664118E+03 -0.65989113083E+03  0.74228245674E+03  0.92905046956E+02 0.  0.
         23    2    4    4    0    0 -0.65297874307E+03  0.40658201855E+03 -0.67328172560E+03  0.10265407874E+04  0.93741823067E+02 0.  0.
          3    1    3    3  502    0  0.20560507972E+03 -0.87827596373E+01 -0.62069285276E+02  0.21494925413E+03  0.00000000000E+00 0. -1.
         -3    1    3    3    0  502  0.52558411187E+03 -0.80342617736E+02 -0.23546736193E+02  0.53221052570E+03  0.00000000000E+00 0.  1.
         13    1    5    5    0    0  0.13242400023E+02 -0.79996467584E+01 -0.49258858280E+02  0.51631295022E+02  0.00000000000E+00 0.  1.
        -13    1    5    5    0    0 -0.91452848552E+02 -0.30945699442E+03 -0.61063227255E+03  0.69065116172E+03  0.00000000000E+00 0. -1.
          2    1    6    6  503    0 -0.58540212118E+03  0.33854914121E+03 -0.61657659750E+03  0.91513816721E+03  0.00000000000E+00 0. -1.
         -2    1    6    6    0  503 -0.67576621882E+02  0.68032877344E+02 -0.56705128100E+02  0.11140262016E+03  0.00000000000E+00 0.  1.
<mgrwt>
<rscale>  0 0.20777894E+04</rscale>
<asrwt>0</asrwt>
<pdfrwt beam="1">  1        1 0.30267476E+00 0.20777894E+04</pdfrwt>
<pdfrwt beam="2">  1       -1 0.84399549E-01 0.20777894E+04</pdfrwt>
<totfact> 0.40168262E+00</totfact>
</mgrwt>
</event>
<event>
12    3  0.4634846E-008  0.1314069E+04  0.7818608E-02  0.9018482E-01
          2   -1    0    0  501    0  0.00000000000E+00  0.00000000000E+00  0.14822032555E+04  0.14822032555E+04  0.00000000000E+00 0.  1.
         -2   -1    0    0    0  501 -0.00000000000E+00 -0.00000000000E+00 -0.29125163236E+03  0.29125163236E+03  0.00000000000E+00 0. -1.
         23    2    1    2    0    0  0.25173552424E+03 -0.20971928466E+03  0.44284306003E+03  0.55839247541E+03  0.91319375002E+02 0.  0.
        254    2    1    2    0    0 -0.25173552424E+03  0.20971928466E+03  0.74810856312E+03  0.12150624125E+04  0.89964286882E+03 0.  0.
         23    2    4    4    0    0 -0.33770523011E+03  0.46356312281E+03  0.23272033941E+03  0.62593221947E+03  0.93256612180E+02 0.  0.
         23    2    4    4    0    0  0.85969705868E+02 -0.25384383815E+03  0.51538822371E+03  0.58913019299E+03  0.98091175208E+02 0.  0.
          2    1    3    3  502    0  0.65046384750E-01  0.72695217791E+01  0.14938122842E+02  0.16613178262E+02  0.00000000000E+00 0. -1.
         -2    1    3    3    0  502  0.25167047786E+03 -0.21698880644E+03  0.42790493719E+03  0.54177929715E+03  0.00000000000E+00 0.  1.
         13    1    5    5    0    0 -0.42794116972E+02  0.35142842218E+02  0.50147394760E+02  0.74706873899E+02  0.00000000000E+00 0.  1.
        -13    1    5    5    0    0 -0.29491111314E+03  0.42842028060E+03  0.18257294465E+03  0.55122534557E+03  0.00000000000E+00 0. -1.
          2    1    6    6  503    0  0.57974738852E+02 -0.22410641563E+03  0.48752301010E+03  0.53968828155E+03  0.00000000000E+00 0. -1.
         -2    1    6    6    0  503  0.27994967016E+02 -0.29737422524E+02  0.27865213616E+02  0.49441911436E+02  0.00000000000E+00 0.  1.
<mgrwt>
<rscale>  0 0.13140687E+04</rscale>
<asrwt>0</asrwt>
<pdfrwt beam="1">  1        2 0.22803127E+00 0.13140687E+04</pdfrwt>
<pdfrwt beam="2">  1       -2 0.44807944E-01 0.13140687E+04</pdfrwt>
<totfact> 0.60069442E+01</totfact>
</mgrwt>
</event>
<event>
12    3  0.4634846E-008  0.1516191E+04  0.7818608E-02  0.8873757E-01
          2   -1    0    0  501    0  0.00000000000E+00  0.00000000000E+00  0.96210289349E+03  0.96210289349E+03  0.00000000000E+00 0. -1.
         -2   -1    0    0    0  501 -0.00000000000E+00 -0.00000000000E+00 -0.59734617223E+03  0.59734617223E+03  0.00000000000E+00 0.  1.
         23    2    1    2    0    0 -0.23536957903E+02  0.45412216755E+03 -0.21105195656E+02  0.46408194833E+03  0.90253498762E+02 0.  0.
        254    2    1    2    0    0  0.23536957903E+02 -0.45412216755E+03  0.38586191692E+03  0.10953671174E+04  0.91878113361E+03 0.  0.
         23    2    4    4    0    0  0.33677820499E+03 -0.38853233978E+03 -0.74222678459E+02  0.52746559343E+03  0.91290787290E+02 0.  0.
         23    2    4    4    0    0 -0.31324124709E+03 -0.65589827772E+02  0.46008459538E+03  0.56790152396E+03  0.91718055057E+02 0.  0.
          2    1    3    3  502    0 -0.27239941633E+02  0.32988655157E+03  0.23955590272E+02  0.33187500905E+03  0.00000000000E+00 0. -1.
         -2    1    3    3    0  502  0.37029837307E+01  0.12423561598E+03 -0.45060785928E+02  0.13220693928E+03  0.00000000000E+00 0.  1.
         13    1    5    5    0    0  0.23477944882E+02 -0.16357207203E+02  0.15846760554E+02  0.32709202733E+02  0.00000000000E+00 0.  1.
        -13    1    5    5    0    0  0.31330026011E+03 -0.37217513257E+03 -0.90069439012E+02  0.49475639070E+03  0.00000000000E+00 0. -1.
          3    1    6    6  503    0 -0.31403921446E+03 -0.54820120819E+02  0.45594132391E+03  0.55633475958E+03  0.00000000000E+00 0. -1.
         -3    1    6    6    0  503  0.79796736929E+00 -0.10769706953E+02  0.41432714681E+01  0.11566764381E+02  0.00000000000E+00 0.  1.
<mgrwt>
<rscale>  0 0.15161906E+04</rscale>
<asrwt>0</asrwt>
<pdfrwt beam="1">  1        2 0.14801583E+00 0.15161906E+04</pdfrwt>
<pdfrwt beam="2">  1       -2 0.91899411E-01 0.15161906E+04</pdfrwt>
<totfact> 0.25909128E+01</totfact>
</mgrwt>
</event>
<event>
12    3  0.4634846E-008  0.2323917E+04  0.7818608E-02  0.8468550E-01
         -1   -1    0    0    0  501 -0.00000000000E+00  0.00000000000E+00  0.65651998841E+03  0.65651998841E+03  0.00000000000E+00 0.  1.
          1   -1    0    0  501    0  0.00000000000E+00 -0.00000000000E+00 -0.20565222394E+04  0.20565222394E+04  0.00000000000E+00 0. -1.
         23    2    1    2    0    0 -0.58746516553E+03 -0.71862610698E+02  0.31368655572E+03  0.67597419751E+03  0.90897221849E+02 0.  0.
        254    2    1    2    0    0  0.58746516553E+03  0.71862610698E+02 -0.17136888067E+04  0.20370680303E+04  0.92878268628E+03 0.  0.
         23    2    4    4    0    0  0.73457853272E+03  0.55946890669E+02 -0.74111352124E+03  0.10490275254E+04  0.92053367112E+02 0.  0.
         23    2    4    4    0    0 -0.14711336719E+03  0.15915720029E+02 -0.97257528543E+03  0.98804050487E+03  0.91791614378E+02 0.  0.
          1    1    3    3  502    0 -0.29962330570E+03 -0.70556139382E+02  0.12760776831E+03  0.33322070262E+03  0.00000000000E+00 0. -1.
         -1    1    3    3    0  502 -0.28784185983E+03 -0.13064713153E+01  0.18607878741E+03  0.34275349489E+03  0.00000000000E+00 0.  1.
         13    1    5    5    0    0  0.41412056253E+03 -0.13770204150E+02 -0.40386668869E+03  0.57861365440E+03  0.00000000000E+00 0.  1.
        -13    1    5    5    0    0  0.32045797019E+03  0.69717094819E+02 -0.33724683255E+03  0.47041387101E+03  0.00000000000E+00 0. -1.
          3    1    6    6  503    0 -0.11013253586E+03 -0.30971518179E+02 -0.63404704093E+03  0.64428569789E+03  0.00000000000E+00 0. -1.
         -3    1    6    6    0  503 -0.36980831328E+02  0.46887238208E+02 -0.33852824450E+03  0.34375480697E+03  0.00000000000E+00 0.  1.
<mgrwt>
<rscale>  0 0.23239173E+04</rscale>
<asrwt>0</asrwt>
<pdfrwt beam="1">  1        1 0.31638803E+00 0.23239173E+04</pdfrwt>
<pdfrwt beam="2">  1       -1 0.10100308E+00 0.23239173E+04</pdfrwt>
<totfact> 0.22916380E+00</totfact>
</mgrwt>
</event>
<event>
12    3  0.4634846E-008  0.2200994E+04  0.7818608E-02  0.8518014E-01
         -2   -1    0    0    0  501 -0.00000000000E+00  0.00000000000E+00  0.10011040877E+04  0.10011040877E+04  0.00000000000E+00 0. -1.
          2   -1    0    0  501    0  0.00000000000E+00 -0.00000000000E+00 -0.12097580686E+04  0.12097580686E+04  0.00000000000E+00 0.  1.
         23    2    1    2    0    0 -0.14699682774E+03 -0.16920025986E+03 -0.97691323595E+03  0.10065192137E+04  0.92112223443E+02 0.  0.
        254    2    1    2    0    0  0.14699682774E+03  0.16920025986E+03  0.76825925507E+03  0.12043429426E+04  0.89999046939E+03 0.  0.
         23    2    4    4    0    0  0.11187795148E+03 -0.33458839320E+03  0.51774269820E+03  0.63315854654E+03  0.91466795265E+02 0.  0.
         23    2    4    4    0    0  0.35118876264E+02  0.50378865306E+03  0.25051655687E+03  0.57118439602E+03  0.91960461990E+02 0.  0.
          3    1    3    3  502    0 -0.64779494097E+02 -0.37790879317E+02 -0.18584377907E+03  0.20040569761E+03  0.00000000000E+00 0. -1.
         -3    1    3    3    0  502 -0.82217333642E+02 -0.13140938054E+03 -0.79106945688E+03  0.80611351611E+03  0.00000000000E+00 0.  1.
         13    1    5    5    0    0 -0.85294039569E+01 -0.89465197497E+01  0.44710454610E+02  0.46387667530E+02  0.00000000000E+00 0.  1.
        -13    1    5    5    0    0  0.12040735543E+03 -0.32564187345E+03  0.47303224359E+03  0.58677087901E+03  0.00000000000E+00 0. -1.
          3    1    6    6  503    0 -0.15669651608E+02  0.36766082248E+03  0.18226011946E+03  0.41065651037E+03  0.00000000000E+00 0. -1.
         -3    1    6    6    0  503  0.50788527872E+02  0.13612783058E+03  0.68256437417E+02  0.16052788565E+03  0.00000000000E+00 0.  1.
<mgrwt>
<rscale>  0 0.22009941E+04</rscale>
<asrwt>0</asrwt>
<pdfrwt beam="1">  1        2 0.18611663E+00 0.22009941E+04</pdfrwt>
<pdfrwt beam="2">  1       -2 0.15401601E+00 0.22009941E+04</pdfrwt>
<totfact> 0.47700271E+00</totfact>
</mgrwt>
</event>
<event>
12    3  0.4634846E-008  0.1233276E+04  0.7818608E-02  0.9084219E-01
          1   -1    0    0  501    0  0.00000000000E+00  0.00000000000E+00  0.31517069460E+03  0.31517069460E+03  0.00000000000E+00 0. -1.
         -1   -1    0    0    0  501 -0.00000000000E+00 -0.00000000000E+00 -0.12064643731E+04  0.12064643731E+04  0.00000000000E+00 0.  1.
         23    2    1    2    0    0 -0.78493640247E+02  0.95156999347E+02  0.94204722323E+02  0.18006651400E+03  0.91286985238E+02 0.  0.
        254    2    1    2    0    0  0.78493640247E+02 -0.95156999347E+02 -0.98549840082E+03  0.13415685537E+04  0.90187747514E+03 0.  0.
         23    2    4    4    0    0 -0.21174904207E+03 -0.41106357017E+03 -0.52980645677E+03  0.70921804687E+03  0.92111024489E+02 0.  0.
         23    2    4    4    0    0  0.29024268232E+03  0.31590657082E+03 -0.45569194405E+03  0.63235050682E+03  0.90411500840E+02 0.  0.
          1    1    3    3  502    0 -0.49168411484E+01  0.62194223541E+02  0.74305900965E+02  0.97024036646E+02  0.00000000000E+00 0. -1.
         -1    1    3    3    0  502 -0.73576799099E+02  0.32962775806E+02  0.19898821358E+02  0.83042477358E+02  0.00000000000E+00 0.  1.
         13    1    5    5    0    0 -0.16206835235E+03 -0.37686358876E+03 -0.47606444810E+03  0.62843430373E+03  0.00000000000E+00 0.  1.
        -13    1    5    5    0    0 -0.49680689714E+02 -0.34199981414E+02 -0.53742008677E+02  0.80783743140E+02  0.00000000000E+00 0. -1.
          1    1    6    6  503    0  0.10300160698E+03  0.81942089800E+02 -0.89461907147E+02  0.15914543648E+03  0.00000000000E+00 0. -1.
         -1    1    6    6    0  503  0.18724107533E+03  0.23396448103E+03 -0.36623003690E+03  0.47320507035E+03  0.00000000000E+00 0.  1.
<mgrwt>
<rscale>  0 0.12332757E+04</rscale>
<asrwt>0</asrwt>
<pdfrwt beam="1">  1        1 0.48487799E-01 0.12332757E+04</pdfrwt>
<pdfrwt beam="2">  1       -1 0.18560990E+00 0.12332757E+04</pdfrwt>
<totfact> 0.15401254E+01</totfact>
</mgrwt>
</event>
<event>
12    3  0.4634846E-008  0.1942335E+04  0.7818608E-02  0.8634066E-01
         -2   -1    0    0    0  501 -0.00000000000E+00  0.00000000000E+00  0.63160493459E+03  0.63160493459E+03  0.00000000000E+00 0.  1.
          2   -1    0    0  501    0  0.00000000000E+00 -0.00000000000E+00 -0.14932855056E+04  0.14932855056E+04  0.00000000000E+00 0. -1.
         23    2    1    2    0    0  0.66627840224E+03 -0.31905960870E+03 -0.15151850562E+03  0.75980195769E+03  0.92818177977E+02 0.  0.
        254    2    1    2    0    0 -0.66627840224E+03  0.31905960870E+03 -0.71016206536E+03  0.13650884825E+04  0.90189271129E+03 0.  0.
         23    2    4    4    0    0 -0.91078442243E+02 -0.18252631376E+03  0.10307962240E+03  0.24615683103E+03  0.91414654456E+02 0.  0.
         23    2    4    4    0    0 -0.57519996000E+03  0.50158592246E+03 -0.81324168775E+03  0.11189316514E+04  0.90568020252E+02 0.  0.
          4    1    3    3  502    0  0.20121351971E+02  0.60960104519E+01 -0.69205305289E+01  0.22134224436E+02  0.00000000000E+00 0. -1.
         -4    1    3    3    0  502  0.64615705027E+03 -0.32515561915E+03 -0.14459797509E+03  0.73766773325E+03  0.00000000000E+00 0.  1.
         13    1    5    5    0    0 -0.44005335566E+02 -0.12115665418E+03  0.16324270941E+02  0.12993031299E+03  0.00000000000E+00 0.  1.
        -13    1    5    5    0    0 -0.47073106676E+02 -0.61369659581E+02  0.86755351454E+02  0.11622651804E+03  0.00000000000E+00 0. -1.
          2    1    6    6  503    0 -0.20065235115E+02  0.38187589671E+02 -0.27888774138E+02  0.51368174855E+02  0.00000000000E+00 0. -1.
         -2    1    6    6    0  503 -0.55513472489E+03  0.46339833279E+03 -0.78535291362E+03  0.10675634766E+04  0.00000000000E+00 0.  1.
<mgrwt>
<rscale>  0 0.19423352E+04</rscale>
<asrwt>0</asrwt>
<pdfrwt beam="1">  1        2 0.22973623E+00 0.19423352E+04</pdfrwt>
<pdfrwt beam="2">  1       -2 0.97169990E-01 0.19423352E+04</pdfrwt>
<totfact> 0.10565921E+01</totfact>
</mgrwt>
</event>
<event>
12    3  0.4634846E-008  0.1395735E+04  0.7818608E-02  0.8956912E-01
         -2   -1    0    0    0  501 -0.00000000000E+00  0.00000000000E+00  0.46964452901E+03  0.46964452901E+03  0.00000000000E+00 0. -1.
          2   -1    0    0  501    0  0.00000000000E+00 -0.00000000000E+00 -0.10369945200E+04  0.10369945200E+04  0.00000000000E+00 0.  1.
         23    2    1    2    0    0 -0.31679572836E+03 -0.26146071974E+03 -0.79965770124E+02  0.42788038749E+03  0.89251667388E+02 0.  0.
        254    2    1    2    0    0  0.31679572836E+03  0.26146071974E+03 -0.48738422083E+03  0.10787586615E+04  0.87031926875E+03 0.  0.
         23    2    4    4    0    0 -0.20575256788E+03  0.30287626349E+03 -0.32269512473E+02  0.37866118248E+03  0.90966034924E+02 0.  0.
         23    2    4    4    0    0  0.52254829624E+03 -0.41415543743E+02 -0.45511470836E+03  0.70009747902E+03  0.90747524479E+02 0.  0.
          1    1    3    3  502    0  0.51467778418E+00  0.21633041420E-01 -0.10948213662E+02  0.10960325890E+02  0.00000000000E+00 0.  1.
         -1    1    3    3    0  502 -0.31731040614E+03 -0.26148235278E+03 -0.69017556461E+02  0.41692006160E+03  0.00000000000E+00 0. -1.
         13    1    5    5    0    0 -0.40708813364E+02  0.12462554520E+03  0.12298154389E+02  0.13168135253E+03  0.00000000000E+00 0. -1.
        -13    1    5    5    0    0 -0.16504375451E+03  0.17825071828E+03 -0.44567666861E+02  0.24697982995E+03  0.00000000000E+00 0.  1.
          3    1    6    6  503    0  0.11887363973E+02  0.13668630837E+02 -0.11825651913E+02  0.21633005671E+02  0.00000000000E+00 0. -1.
         -3    1    6    6    0  503  0.51066093226E+03 -0.55084174580E+02 -0.44328905644E+03  0.67846447335E+03  0.00000000000E+00 0.  1.
<mgrwt>
<rscale>  0 0.13957346E+04</rscale>
<asrwt>0</asrwt>
<pdfrwt beam="1">  1        2 0.15953762E+00 0.13957346E+04</pdfrwt>
<pdfrwt beam="2">  1       -2 0.72253004E-01 0.13957346E+04</pdfrwt>
<totfact> 0.40284475E+01</totfact>
</mgrwt>
</event>
<event>
12    3  0.4634846E-008  0.1193882E+04  0.7818608E-02  0.9118229E-01
          2   -1    0    0  501    0  0.00000000000E+00  0.00000000000E+00  0.71877791358E+03  0.71877791358E+03  0.00000000000E+00 0. -1.
         -2   -1    0    0    0  501 -0.00000000000E+00 -0.00000000000E+00 -0.49575611764E+03  0.49575611764E+03  0.00000000000E+00 0.  1.
         23    2    1    2    0    0  0.22151025007E+03 -0.43939717503E+02 -0.61360032208E+02  0.25091485565E+03  0.90530224659E+02 0.  0.
        254    2    1    2    0    0 -0.22151025007E+03  0.43939717503E+02  0.28438182814E+03  0.96361917556E+03  0.89257571201E+03 0.  0.
         23    2    4    4    0    0  0.16858756604E+03  0.19734389578E+03  0.43006323697E+03  0.51046770366E+03  0.90865329274E+02 0.  0.
         23    2    4    4    0    0 -0.39009781611E+03 -0.15340417828E+03 -0.14568140882E+03  0.45315147190E+03  0.91728052248E+02 0.  0.
          2    1    3    3  502    0  0.14828262217E+02 -0.45904399055E+00 -0.35070056136E+02  0.38078825076E+02  0.00000000000E+00 0. -1.
         -2    1    3    3    0  502  0.20668198785E+03 -0.43480673513E+02 -0.26289976071E+02  0.21283603058E+03  0.00000000000E+00 0.  1.
         13    1    5    5    0    0  0.14932406986E+03  0.20024081778E+03  0.36305023385E+03  0.44068076342E+03  0.00000000000E+00 0.  1.
        -13    1    5    5    0    0  0.19263496180E+02 -0.28969220006E+01  0.67013003111E+02  0.69786940240E+02  0.00000000000E+00 0. -1.
          2    1    6    6  503    0 -0.53196022406E+02 -0.15988299455E+02  0.11630731205E+02  0.56751356174E+02  0.00000000000E+00 0. -1.
         -2    1    6    6    0  503 -0.33690179370E+03 -0.13741587882E+03 -0.15731214003E+03  0.39640011573E+03  0.00000000000E+00 0.  1.
<mgrwt>
<rscale>  0 0.11938820E+04</rscale>
<asrwt>0</asrwt>
<pdfrwt beam="1">  1        2 0.11058122E+00 0.11938820E+04</pdfrwt>
<pdfrwt beam="2">  1       -2 0.76270171E-01 0.11938820E+04</pdfrwt>
<totfact> 0.60184417E+01</totfact>
</mgrwt>
</event>
<event>
12    3  0.4634846E-008  0.2111748E+04  0.7818608E-02  0.8556086E-01
         -1   -1    0    0    0  501 -0.00000000000E+00  0.00000000000E+00  0.66597521199E+03  0.66597521199E+03  0.00000000000E+00 0.  1.
          1   -1    0    0  501    0  0.00000000000E+00 -0.00000000000E+00 -0.16740413856E+04  0.16740413856E+04  0.00000000000E+00 0. -1.
         23    2    1    2    0    0 -0.18989311355E+03  0.79122669768E+02 -0.13611250513E+04  0.13792375502E+04  0.85527909135E+02 0.  0.
        254    2    1    2    0    0  0.18989311355E+03 -0.79122669768E+02  0.35305887770E+03  0.96077904736E+03  0.86955506742E+03 0.  0.
         23    2    4    4    0    0 -0.23989045610E+03 -0.67320260359E+02 -0.13997013842E+03  0.30040686210E+03  0.92591548007E+02 0.  0.
         23    2    4    4    0    0  0.42978356965E+03 -0.11802409410E+02  0.49302901612E+03  0.66037218526E+03  0.90336032205E+02 0.  0.
          3    1    3    3  502    0 -0.58950553133E+02 -0.93122662234E+01 -0.51870497697E+03  0.52212712930E+03  0.00000000000E+00 0. -1.
         -3    1    3    3    0  502 -0.13094256042E+03  0.88434935992E+02 -0.84242007430E+03  0.85711042090E+03  0.00000000000E+00 0.  1.
         13    1    5    5    0    0 -0.60926018613E+02  0.86290200047E+01 -0.71396004025E+02  0.94254066867E+02  0.00000000000E+00 0. -1.
        -13    1    5    5    0    0 -0.17896443749E+03 -0.75949280363E+02 -0.68574134399E+02  0.20615279523E+03  0.00000000000E+00 0.  1.
          1    1    6    6  503    0  0.29126425317E+03 -0.15949147346E+02  0.39315891499E+03  0.48955405515E+03  0.00000000000E+00 0. -1.
         -1    1    6    6    0  503  0.13851931648E+03  0.41467379363E+01  0.99870101129E+02  0.17081813011E+03  0.00000000000E+00 0.  1.
<mgrwt>
<rscale>  0 0.21117482E+04</rscale>
<asrwt>0</asrwt>
<pdfrwt beam="1">  1        1 0.25754483E+00 0.21117482E+04</pdfrwt>
<pdfrwt beam="2">  1       -1 0.10245772E+00 0.21117482E+04</pdfrwt>
<totfact> 0.41104742E+00</totfact>
</mgrwt>
</event>
<event>
12    3  0.4634846E-008  0.1619997E+04  0.7818608E-02  0.8808356E-01
          2   -1    0    0  501    0  0.00000000000E+00  0.00000000000E+00  0.11740993078E+04  0.11740993078E+04  0.00000000000E+00 0. -1.
         -2   -1    0    0    0  501 -0.00000000000E+00 -0.00000000000E+00 -0.55880957277E+03  0.55880957277E+03  0.00000000000E+00 0.  1.
         23    2    1    2    0    0  0.48922595554E+03 -0.24732476615E+03  0.29998999560E+03  0.63051181226E+03  0.83902159790E+02 0.  0.
        254    2    1    2    0    0 -0.48922595554E+03  0.24732476615E+03  0.31529973945E+03  0.11023970683E+04  0.90296943194E+03 0.  0.
         23    2    4    4    0    0 -0.68959268058E+03  0.11662036673E+03  0.12274933077E+02  0.70533576827E+03  0.90606274412E+02 0.  0.
         23    2    4    4    0    0  0.20036672504E+03  0.13070439942E+03  0.30302480637E+03  0.39706130006E+03  0.92753319026E+02 0.  0.
          2    1    3    3  502    0  0.67546438659E+02 -0.40893036854E+02  0.78679345129E+02  0.11146838650E+03  0.00000000000E+00 0. -1.
         -2    1    3    3    0  502  0.42167951688E+03 -0.20643172930E+03  0.22131065047E+03  0.51904342577E+03  0.00000000000E+00 0.  1.
         13    1    5    5    0    0 -0.27816195708E+03  0.24338882041E+02 -0.33404704583E+02  0.28121580651E+03  0.00000000000E+00 0.  1.
        -13    1    5    5    0    0 -0.41143072350E+03  0.92281484689E+02  0.45679637660E+02  0.42411996175E+03  0.00000000000E+00 0. -1.
          2    1    6    6  503    0  0.70171169014E+02  0.72167295013E+02  0.18987674577E+03  0.21490763135E+03  0.00000000000E+00 0.  1.
         -2    1    6    6    0  503  0.13019555603E+03  0.58537104411E+02  0.11314806060E+03  0.18215366870E+03  0.00000000000E+00 0. -1.
<mgrwt>
<rscale>  0 0.16199974E+04</rscale>
<asrwt>0</asrwt>
<pdfrwt beam="1">  1        2 0.18063066E+00 0.16199974E+04</pdfrwt>
<pdfrwt beam="2">  1       -2 0.85970704E-01 0.16199974E+04</pdfrwt>
<totfact> 0.22072487E+01</totfact>
</mgrwt>
</event>
<event>
12    3  0.4634846E-008  0.2392077E+04  0.7818608E-02  0.8442476E-01
         -2   -1    0    0    0  501 -0.00000000000E+00  0.00000000000E+00  0.14645010475E+04  0.14645010475E+04  0.00000000000E+00 0.  1.
          2   -1    0    0  501    0  0.00000000000E+00 -0.00000000000E+00 -0.97678834270E+03  0.97678834270E+03  0.00000000000E+00 0. -1.
         23    2    1    2    0    0  0.22918749053E+02 -0.38905135535E+03 -0.71394126472E+03  0.81823924072E+03  0.88978083972E+02 0.  0.
        254    2    1    2    0    0 -0.22918749053E+02  0.38905135535E+03  0.12016539695E+04  0.16230501495E+04  0.10190354749E+04 0.  0.
         23    2    4    4    0    0  0.48466593426E+03  0.21200446683E+03  0.68680321219E+03  0.87180097065E+03  0.92148349773E+02 0.  0.
         23    2    4    4    0    0 -0.50758468331E+03  0.17704688852E+03  0.51485075732E+03  0.75124917882E+03  0.10156876930E+03 0.  0.
          4    1    3    3  502    0  0.89189615901E+01 -0.36696209006E+03 -0.61796589430E+03  0.71876461372E+03  0.00000000000E+00 0. -1.
         -4    1    3    3    0  502  0.13999787462E+02 -0.22089265294E+02 -0.95975370419E+02  0.99474627003E+02  0.00000000000E+00 0.  1.
         13    1    5    5    0    0  0.12142501214E+02  0.26848421403E+02  0.37713358109E+02  0.47859956618E+02  0.00000000000E+00 0.  1.
        -13    1    5    5    0    0  0.47252343304E+03  0.18515604543E+03  0.64908985408E+03  0.82394101403E+03  0.00000000000E+00 0. -1.
          2    1    6    6  503    0 -0.19982061442E+02  0.83577939358E+01  0.58687219808E+02  0.62556576535E+02  0.00000000000E+00 0.  1.
         -2    1    6    6    0  503 -0.48760262187E+03  0.16868909458E+03  0.45616353751E+03  0.68869260228E+03  0.00000000000E+00 0. -1.
<mgrwt>
<rscale>  0 0.23920765E+04</rscale>
<asrwt>0</asrwt>
<pdfrwt beam="1">  1        2 0.15027513E+00 0.23920765E+04</pdfrwt>
<pdfrwt beam="2">  1       -2 0.22530785E+00 0.23920765E+04</pdfrwt>
<totfact> 0.21462589E+00</totfact>
</mgrwt>
</event>
<event>
12    3  0.4634846E-008  0.1963780E+04  0.7818608E-02  0.8623744E-01
          1   -1    0    0  501    0  0.00000000000E+00  0.00000000000E+00  0.56646995204E+03  0.56646995204E+03  0.00000000000E+00 0. -1.
         -1   -1    0    0    0  501 -0.00000000000E+00 -0.00000000000E+00 -0.17019580499E+04  0.17019580499E+04  0.00000000000E+00 0.  1.
         23    2    1    2    0    0 -0.25363921620E+03 -0.22587448372E+03  0.35538484614E+03  0.49973585565E+03  0.89918864356E+02 0.  0.
        254    2    1    2    0    0  0.25363921620E+03  0.22587448372E+03 -0.14908729440E+04  0.17686921462E+04  0.88894186467E+03 0.  0.
         23    2    4    4    0    0 -0.72195946090E+02  0.44229191848E+02 -0.13540313005E+04  0.13597531956E+04  0.91430379592E+02 0.  0.
         23    2    4    4    0    0  0.32583516228E+03  0.18164529188E+03 -0.13684164347E+03  0.40893895060E+03  0.96653323230E+02 0.  0.
          3    1    3    3  502    0 -0.55313441043E+01 -0.52986854431E+01  0.43710446241E+02  0.44376513446E+02  0.00000000000E+00 0. -1.
         -3    1    3    3    0  502 -0.24810787209E+03 -0.22057579828E+03  0.31167439990E+03  0.45535934220E+03  0.00000000000E+00 0.  1.
         13    1    5    5    0    0  0.91574494290E+01  0.64646658986E+01 -0.21864366814E+02  0.24570334173E+02  0.00000000000E+00 0.  1.
        -13    1    5    5    0    0 -0.81353395519E+02  0.37764525949E+02 -0.13321669337E+04  0.13351828615E+04  0.00000000000E+00 0. -1.
          2    1    6    6  503    0  0.23429003321E+03  0.17286459720E+03 -0.84741093665E+02  0.30324089695E+03  0.00000000000E+00 0. -1.
         -2    1    6    6    0  503  0.91545129070E+02  0.87806946736E+01 -0.52100549805E+02  0.10569805365E+03  0.00000000000E+00 0.  1.
<mgrwt>
<rscale>  0 0.19637801E+04</rscale>
<asrwt>0</asrwt>
<pdfrwt beam="1">  1        1 0.87149226E-01 0.19637801E+04</pdfrwt>
<pdfrwt beam="2">  1       -1 0.26183969E+00 0.19637801E+04</pdfrwt>
<totfact> 0.20208154E+00</totfact>
</mgrwt>
</event>
<event>
12    3  0.4634846E-008  0.1288785E+04  0.7818608E-02  0.9038506E-01
         -2   -1    0    0    0  501 -0.00000000000E+00  0.00000000000E+00  0.20413691489E+03  0.20413691489E+03  0.00000000000E+00 0.  1.
          2   -1    0    0  501    0  0.00000000000E+00 -0.00000000000E+00 -0.20341334511E+04  0.20341334511E+04  0.00000000000E+00 0. -1.
         23    2    1    2    0    0 -0.23069724643E+03  0.11945650240E+03 -0.82049585286E+03  0.86537269995E+03  0.90362546378E+02 0.  0.
        254    2    1    2    0    0  0.23069724643E+03 -0.11945650240E+03 -0.10095006834E+04  0.13728976660E+04  0.89345693586E+03 0.  0.
         23    2    4    4    0    0 -0.27613755916E+03 -0.20824658251E+03 -0.19962962642E+03  0.40900530284E+03  0.88401127263E+02 0.  0.
         23    2    4    4    0    0  0.50683480559E+03  0.88790080104E+02 -0.80987105693E+03  0.96389236320E+03  0.91826796193E+02 0.  0.
          2    1    3    3  502    0 -0.19463685579E+03  0.96307576562E+02 -0.54682629492E+03  0.58836863593E+03  0.00000000000E+00 0. -1.
         -2    1    3    3    0  502 -0.36060390644E+02  0.23148925839E+02 -0.27366955794E+03  0.27700406402E+03  0.00000000000E+00 0.  1.
         13    1    5    5    0    0 -0.25347908355E+03 -0.20726422176E+03 -0.20417791085E+03  0.38587397256E+03  0.00000000000E+00 0. -1.
        -13    1    5    5    0    0 -0.22658475606E+02 -0.98236074659E+00  0.45482844217E+01  0.23131330282E+02  0.00000000000E+00 0.  1.
          2    1    6    6  503    0  0.36428280421E+03  0.98762630717E+02 -0.62660506770E+03  0.73149841389E+03  0.00000000000E+00 0. -1.
         -2    1    6    6    0  503  0.14255200138E+03 -0.99725506129E+01 -0.18326598923E+03  0.23239394930E+03  0.00000000000E+00 0.  1.
<mgrwt>
<rscale>  0 0.12887851E+04</rscale>
<asrwt>0</asrwt>
<pdfrwt beam="1">  1        2 0.31294361E+00 0.12887851E+04</pdfrwt>
<pdfrwt beam="2">  1       -2 0.31405679E-01 0.12887851E+04</pdfrwt>
<totfact> 0.59100094E+01</totfact>
</mgrwt>
</event>
<event>
12    3  0.4634846E-008  0.1321189E+04  0.7818608E-02  0.9012929E-01
         -2   -1    0    0    0  501 -0.00000000000E+00  0.00000000000E+00  0.20404339495E+03  0.20404339495E+03  0.00000000000E+00 0.  1.
          2   -1    0    0  501    0  0.00000000000E+00 -0.00000000000E+00 -0.21386872424E+04  0.21386872424E+04  0.00000000000E+00 0. -1.
         23    2    1    2    0    0  0.28558141755E+03  0.27845996052E+02 -0.79716206328E+03  0.85216421356E+03  0.91566075622E+02 0.  0.
        254    2    1    2    0    0 -0.28558141755E+03 -0.27845996052E+02 -0.11374817842E+04  0.14905664238E+04  0.91956038890E+03 0.  0.
         23    2    4    4    0    0  0.20825912600E+03  0.20270606698E+03 -0.11139686184E+03  0.32522880968E+03  0.94355204775E+02 0.  0.
         23    2    4    4    0    0 -0.49384054355E+03 -0.23055206303E+03 -0.10260849224E+04  0.11653376141E+04  0.90159584931E+02 0.  0.
          3    1    3    3  502    0  0.26576818196E+03 -0.14791681816E+01 -0.70719491775E+03  0.75548631104E+03  0.00000000000E+00 0. -1.
         -3    1    3    3    0  502  0.19813235597E+02  0.29325164234E+02 -0.89967145524E+02  0.96677902521E+02  0.00000000000E+00 0.  1.
         13    1    5    5    0    0  0.35642680054E+01  0.41656881436E+02 -0.32901241614E+02  0.53202363454E+02  0.00000000000E+00 0. -1.
        -13    1    5    5    0    0  0.20469485800E+03  0.16104918554E+03 -0.78495620225E+02  0.27202644623E+03  0.00000000000E+00 0.  1.
          3    1    6    6  503    0 -0.39185887279E+03 -0.20899081779E+03 -0.77069508045E+03  0.88949505065E+03  0.00000000000E+00 0. -1.
         -3    1    6    6    0  503 -0.10198167076E+03 -0.21561245242E+02 -0.25538984190E+03  0.27584256345E+03  0.00000000000E+00 0.  1.
<mgrwt>
<rscale>  0 0.13211889E+04</rscale>
<asrwt>0</asrwt>
<pdfrwt beam="1">  1        2 0.32902882E+00 0.13211889E+04</pdfrwt>
<pdfrwt beam="2">  1       -2 0.31391290E-01 0.13211889E+04</pdfrwt>
<totfact> 0.51613889E+01</totfact>
</mgrwt>
</event>
<event>
12    3  0.4634846E-008  0.1153176E+04  0.7818608E-02  0.9154859E-01
          2   -1    0    0  501    0  0.00000000000E+00  0.00000000000E+00  0.84072868793E+03  0.84072868793E+03  0.00000000000E+00 0.  1.
         -2   -1    0    0    0  501 -0.00000000000E+00 -0.00000000000E+00 -0.39543511224E+03  0.39543511224E+03  0.00000000000E+00 0. -1.
         23    2    1    2    0    0 -0.19044063880E+03  0.13770895540E+03  0.68805681252E+02  0.26191793614E+03  0.92926800221E+02 0.  0.
        254    2    1    2    0    0  0.19044063880E+03 -0.13770895540E+03  0.37648789444E+03  0.97424586403E+03  0.86728338830E+03 0.  0.
         23    2    4    4    0    0  0.32980701486E+03 -0.20908945792E+03 -0.14159667447E+03  0.42536982931E+03  0.91644994431E+02 0.  0.
         23    2    4    4    0    0 -0.13936637606E+03  0.71380502519E+02  0.51808456890E+03  0.54887603472E+03  0.91296867628E+02 0.  0.
          3    1    3    3  502    0 -0.26985601542E+02 -0.73260562384E+01 -0.98839497030E+01  0.29657819413E+02  0.00000000000E+00 0. -1.
         -3    1    3    3    0  502 -0.16345503726E+03  0.14503501163E+03  0.78689630955E+02  0.23226011673E+03  0.00000000000E+00 0.  1.
         13    1    5    5    0    0  0.33266642187E+03 -0.19614151861E+03 -0.12921645679E+03  0.40722885000E+03  0.00000000000E+00 0. -1.
        -13    1    5    5    0    0 -0.28594070120E+01 -0.12947939304E+02 -0.12380217677E+02  0.18140979312E+02  0.00000000000E+00 0.  1.
          4    1    6    6  503    0 -0.11243868141E+03  0.10183842029E+02  0.35833901985E+03  0.37570336818E+03  0.00000000000E+00 0. -1.
         -4    1    6    6    0  503 -0.26927694658E+02  0.61196660490E+02  0.15974554905E+03  0.17317266654E+03  0.00000000000E+00 0.  1.
<mgrwt>
<rscale>  0 0.11531759E+04</rscale>
<asrwt>0</asrwt>
<pdfrwt beam="1">  1        2 0.12934287E+00 0.11531759E+04</pdfrwt>
<pdfrwt beam="2">  1       -2 0.60836171E-01 0.11531759E+04</pdfrwt>
<totfact> 0.80215725E+01</totfact>
</mgrwt>
</event>
<event>
12    3  0.4634846E-008  0.2399301E+04  0.7818608E-02  0.8439765E-01
          1   -1    0    0  501    0  0.00000000000E+00  0.00000000000E+00  0.12991071129E+04  0.12991071129E+04  0.00000000000E+00 0. -1.
         -1   -1    0    0    0  501 -0.00000000000E+00 -0.00000000000E+00 -0.11078077335E+04  0.11078077335E+04  0.00000000000E+00 0.  1.
         23    2    1    2    0    0  0.20371402924E+03  0.86344655131E+03  0.60712452462E+03  0.10787426859E+04  0.89700843810E+02 0.  0.
        254    2    1    2    0    0 -0.20371402924E+03 -0.86344655131E+03 -0.41582514519E+03  0.13281721605E+04  0.89671142726E+03 0.  0.
         23    2    4    4    0    0  0.27652688471E+03 -0.36184800986E+03  0.78696831015E+02  0.47081381788E+03  0.89840746236E+02 0.  0.
         23    2    4    4    0    0 -0.48024091395E+03 -0.50159854145E+03 -0.49452197620E+03  0.85735834258E+03  0.90988518135E+02 0.  0.
          4    1    3    3  502    0  0.21016589206E+03  0.81000495553E+03  0.58216105744E+03  0.10194063110E+04  0.00000000000E+00 0. -1.
         -4    1    3    3    0  502 -0.64518628111E+01  0.53441595781E+02  0.24963467186E+02  0.59336374908E+02  0.00000000000E+00 0.  1.
         13    1    5    5    0    0  0.26506935390E+03 -0.29633125751E+03  0.70725566637E+02  0.40382679745E+03  0.00000000000E+00 0. -1.
        -13    1    5    5    0    0  0.11457530803E+02 -0.65516752350E+02  0.79712643779E+01  0.66987020432E+02  0.00000000000E+00 0.  1.
          3    1    6    6  503    0 -0.39075123334E+03 -0.39032578425E+03 -0.43331779147E+03  0.70200074972E+03  0.00000000000E+00 0. -1.
         -3    1    6    6    0  503 -0.89489680616E+02 -0.11127275720E+03 -0.61204184734E+02  0.15535759286E+03  0.00000000000E+00 0.  1.
<mgrwt>
<rscale>  0 0.23993007E+04</rscale>
<asrwt>0</asrwt>
<pdfrwt beam="1">  1        1 0.19986263E+00 0.23993007E+04</pdfrwt>
<pdfrwt beam="2">  1       -1 0.17043196E+00 0.23993007E+04</pdfrwt>
<totfact> 0.19832110E+00</totfact>
</mgrwt>
</event>
<event>
12    3  0.4634846E-008  0.3461978E+04  0.7818608E-02  0.8122860E-01
          2   -1    0    0  501    0  0.00000000000E+00  0.00000000000E+00  0.28312451042E+04  0.28312451042E+04  0.00000000000E+00 0. -1.
         -2   -1    0    0    0  501 -0.00000000000E+00 -0.00000000000E+00 -0.10583060057E+04  0.10583060057E+04  0.00000000000E+00 0.  1.
         23    2    1    2    0    0 -0.83531426929E+03  0.80125993331E+03 -0.43879835753E+03  0.12412652760E+04  0.91804562456E+02 0.  0.
        254    2    1    2    0    0  0.83531426929E+03 -0.80125993331E+03  0.22117374561E+04  0.26482858339E+04  0.88423292994E+03 0.  0.
         23    2    4    4    0    0  0.14468651594E+03  0.87991160797E+02  0.34275919818E+02  0.19527553804E+03  0.91000356067E+02 0.  0.
         23    2    4    4    0    0  0.69062775335E+03 -0.88925109411E+03  0.21774615362E+04  0.24530102959E+04  0.90479654050E+02 0.  0.
          4    1    3    3  502    0 -0.25539517884E+03  0.19790545291E+03 -0.14722391109E+03  0.35506076334E+03  0.00000000000E+00 0. -1.
         -4    1    3    3    0  502 -0.57991909045E+03  0.60335448041E+03 -0.29157444644E+03  0.88620451269E+03  0.00000000000E+00 0.  1.
         13    1    5    5    0    0  0.11784422787E+03  0.76603611444E+02 -0.11476735041E+02  0.14102159684E+03  0.00000000000E+00 0. -1.
        -13    1    5    5    0    0  0.26842288075E+02  0.11387549353E+02  0.45752654859E+02  0.54253941202E+02  0.00000000000E+00 0.  1.
          1    1    6    6  503    0  0.53033104622E+03 -0.68905124947E+03  0.15956277719E+04  0.18171600451E+04  0.00000000000E+00 0. -1.
         -1    1    6    6    0  503  0.16029670712E+03 -0.20019984464E+03  0.58183376432E+03  0.63585025077E+03  0.00000000000E+00 0.  1.
<mgrwt>
<rscale>  0 0.34619785E+04</rscale>
<asrwt>0</asrwt>
<pdfrwt beam="1">  1        2 0.43557617E+00 0.34619785E+04</pdfrwt>
<pdfrwt beam="2">  1       -2 0.16281631E+00 0.34619785E+04</pdfrwt>
<totfact> 0.43797218E-01</totfact>
</mgrwt>
</event>
<event>
12    3  0.4634846E-008  0.1328803E+04  0.7818608E-02  0.9007031E-01
         -2   -1    0    0    0  501 -0.00000000000E+00  0.00000000000E+00  0.29271813879E+03  0.29271813879E+03  0.00000000000E+00 0. -1.
          2   -1    0    0  501    0  0.00000000000E+00 -0.00000000000E+00 -0.15080344968E+04  0.15080344968E+04  0.00000000000E+00 0.  1.
         23    2    1    2    0    0 -0.49382323154E+02  0.32646879359E+03 -0.45492280961E+03  0.56951089089E+03  0.91473521398E+02 0.  0.
        254    2    1    2    0    0  0.49382323154E+02 -0.32646879359E+03 -0.76039354841E+03  0.12312417447E+04  0.91035015155E+03 0.  0.
         23    2    4    4    0    0  0.32016568705E+01 -0.60946877934E+03 -0.68446004678E+03  0.92080775751E+03  0.89100656875E+02 0.  0.
         23    2    4    4    0    0  0.46180666283E+02  0.28299998575E+03 -0.75933501626E+02  0.31043398720E+03  0.91551722361E+02 0.  0.
          2    1    3    3  502    0 -0.37923559547E+02  0.25216491667E+03 -0.27779618398E+03  0.37708893036E+03  0.00000000000E+00 0. -1.
         -2    1    3    3    0  502 -0.11458763607E+02  0.74303876926E+02 -0.17712662563E+03  0.19242196054E+03  0.00000000000E+00 0.  1.
         13    1    5    5    0    0  0.31995941769E+02 -0.51274319676E+03 -0.59325662641E+03  0.78478197667E+03  0.00000000000E+00 0.  1.
        -13    1    5    5    0    0 -0.28794284899E+02 -0.96725582576E+02 -0.91203420369E+02  0.13602578084E+03  0.00000000000E+00 0. -1.
          3    1    6    6  503    0  0.14674712447E+02 -0.77650977987E+00 -0.87963951940E+01  0.17126783739E+02  0.00000000000E+00 0. -1.
         -3    1    6    6    0  503  0.31505953836E+02  0.28377649553E+03 -0.67137106432E+02  0.29330720346E+03  0.00000000000E+00 0.  1.
<mgrwt>
<rscale>  0 0.13288025E+04</rscale>
<asrwt>0</asrwt>
<pdfrwt beam="1">  1        2 0.23200530E+00 0.13288025E+04</pdfrwt>
<pdfrwt beam="2">  1       -2 0.45033561E-01 0.13288025E+04</pdfrwt>
<totfact> 0.57443948E+01</totfact>
</mgrwt>
</event>
<event>
12    3  0.4634846E-008  0.1651296E+04  0.7818608E-02  0.8789640E-01
         -1   -1    0    0    0  501 -0.00000000000E+00  0.00000000000E+00  0.42103266582E+03  0.42103266582E+03  0.00000000000E+00 0.  1.
          1   -1    0    0  501    0  0.00000000000E+00 -0.00000000000E+00 -0.16191005677E+04  0.16191005677E+04  0.00000000000E+00 0. -1.
         23    2    1    2    0    0 -0.34936996700E+03  0.41245097490E+03 -0.18543490232E+03  0.57873702065E+03  0.91516422237E+02 0.  0.
        254    2    1    2    0    0  0.34936996700E+03 -0.41245097490E+03 -0.10126329996E+04  0.14613962129E+04  0.90447670985E+03 0.  0.
         23    2    4    4    0    0  0.39687390141E+03 -0.21757580224E+03 -0.11238025690E+04  0.12147878804E+04  0.89046375442E+02 0.  0.
         23    2    4    4    0    0 -0.47503934412E+02 -0.19487517267E+03  0.11116956941E+03  0.24660833248E+03  0.90686491714E+02 0.  0.
          3    1    3    3  502    0 -0.12709311018E+03  0.18015683867E+03 -0.11862020842E+03  0.25035953950E+03  0.00000000000E+00 0. -1.
         -3    1    3    3    0  502 -0.22227685682E+03  0.23229413623E+03 -0.66814693893E+02  0.32837748115E+03  0.00000000000E+00 0.  1.
         13    1    5    5    0    0  0.29474445641E+03 -0.18865841656E+03 -0.93262508268E+03  0.99612039311E+03  0.00000000000E+00 0.  1.
        -13    1    5    5    0    0  0.10212944500E+03 -0.28917385678E+02 -0.19117748632E+03  0.21866748731E+03  0.00000000000E+00 0. -1.
          3    1    6    6  503    0 -0.43762447833E+02 -0.30503221736E+02  0.12258339434E+02  0.54734497917E+02  0.00000000000E+00 0. -1.
         -3    1    6    6    0  503 -0.37414865797E+01 -0.16437195093E+03  0.98911229972E+02  0.19187383456E+03  0.00000000000E+00 0.  1.
<mgrwt>
<rscale>  0 0.16512955E+04</rscale>
<asrwt>0</asrwt>
<pdfrwt beam="1">  1        1 0.24909240E+00 0.16512955E+04</pdfrwt>
<pdfrwt beam="2">  1       -1 0.64774256E-01 0.16512955E+04</pdfrwt>
<totfact> 0.12500789E+01</totfact>
</mgrwt>
</event>
<event>
12    3  0.4634846E-008  0.2359357E+04  0.7818608E-02  0.8454878E-01
          2   -1    0    0  501    0  0.00000000000E+00  0.00000000000E+00  0.19222028483E+04  0.19222028483E+04  0.00000000000E+00 0. -1.
         -2   -1    0    0    0  501 -0.00000000000E+00 -0.00000000000E+00 -0.72398264956E+03  0.72398264956E+03  0.00000000000E+00 0.  1.
         23    2    1    2    0    0  0.77028327687E+03  0.11156777584E+03  0.12325361152E+04  0.14604307336E+04  0.89044691946E+02 0.  0.
        254    2    1    2    0    0 -0.77028327687E+03 -0.11156777584E+03 -0.34315916449E+02  0.11857547643E+04  0.89389769192E+03 0.  0.
         23    2    4    4    0    0 -0.61463915575E+03 -0.10163858949E+02  0.37624456788E+03  0.72658397285E+03  0.92085280777E+02 0.  0.
         23    2    4    4    0    0 -0.15564412113E+03 -0.10140391689E+03 -0.41056048433E+03  0.45917079142E+03  0.88147930163E+02 0.  0.
          3    1    3    3  502    0  0.55212170236E+03  0.81619913660E+02  0.95519114822E+03  0.11062957625E+04  0.00000000000E+00 0. -1.
         -3    1    3    3    0  502  0.21816157452E+03  0.29947862183E+02  0.27734496700E+03  0.35413497111E+03  0.00000000000E+00 0.  1.
         13    1    5    5    0    0 -0.41870871717E+03 -0.44148256532E+02  0.23012976130E+03  0.47981847132E+03  0.00000000000E+00 0. -1.
        -13    1    5    5    0    0 -0.19593043858E+03  0.33984397583E+02  0.14611480659E+03  0.24676550153E+03  0.00000000000E+00 0.  1.
          1    1    6    6  503    0 -0.16303324489E+03 -0.98187815391E+02 -0.35288060200E+03  0.40093067393E+03  0.00000000000E+00 0. -1.
         -1    1    6    6    0  503  0.73891237641E+01 -0.32161015036E+01 -0.57679882331E+02  0.58240117485E+02  0.00000000000E+00 0.  1.
<mgrwt>
<rscale>  0 0.23593571E+04</rscale>
<asrwt>0</asrwt>
<pdfrwt beam="1">  1        2 0.29572351E+00 0.23593571E+04</pdfrwt>
<pdfrwt beam="2">  1       -2 0.11138195E+00 0.23593571E+04</pdfrwt>
<totfact> 0.42446893E+00</totfact>
</mgrwt>
</event>
<event>
12    3  0.4634846E-008  0.1302499E+04  0.7818608E-02  0.9027586E-01
          2   -1    0    0  501    0  0.00000000000E+00  0.00000000000E+00  0.25454009663E+04  0.25454009663E+04  0.00000000000E+00 0. -1.
         -2   -1    0    0    0  501 -0.00000000000E+00 -0.00000000000E+00 -0.16662438727E+03  0.16662438727E+03  0.00000000000E+00 0.  1.
         23    2    1    2    0    0 -0.28822019827E+03  0.14106771851E+02  0.94558968380E+03  0.99318882311E+03  0.94943691441E+02 0.  0.
        254    2    1    2    0    0  0.28822019827E+03 -0.14106771851E+02  0.14331868952E+04  0.17188365304E+04  0.90393830434E+03 0.  0.
         23    2    4    4    0    0  0.50859968322E+03  0.10392103210E+02  0.13802397112E+04  0.14738413505E+04  0.91460550871E+02 0.  0.
         23    2    4    4    0    0 -0.22037948495E+03 -0.24498875061E+02  0.52947183972E+02  0.24499517994E+03  0.89732500463E+02 0.  0.
          1    1    3    3  502    0 -0.25474793066E+03 -0.19615384556E+02  0.82138789883E+03  0.86020890011E+03  0.00000000000E+00 0. -1.
         -1    1    3    3    0  502 -0.33472267609E+02  0.33722156407E+02  0.12420178497E+03  0.13297992300E+03  0.00000000000E+00 0.  1.
         13    1    5    5    0    0  0.49203459402E+03  0.27805902184E+02  0.13142589147E+04  0.14036195014E+04  0.00000000000E+00 0. -1.
        -13    1    5    5    0    0  0.16565089197E+02 -0.17413798975E+02  0.65980796537E+02  0.70221849067E+02  0.00000000000E+00 0.  1.
          2    1    6    6  503    0 -0.19580060712E+03 -0.14810449002E+01  0.69108084146E+02  0.20764392247E+03  0.00000000000E+00 0. -1.
         -2    1    6    6    0  503 -0.24578877823E+02 -0.23017830160E+02 -0.16160900174E+02  0.37351257472E+02  0.00000000000E+00 0.  1.
<mgrwt>
<rscale>  0 0.13024989E+04</rscale>
<asrwt>0</asrwt>
<pdfrwt beam="1">  1        2 0.39160012E+00 0.13024989E+04</pdfrwt>
<pdfrwt beam="2">  1       -2 0.25634523E-01 0.13024989E+04</pdfrwt>
<totfact> 0.44232557E+01</totfact>
</mgrwt>
</event>
<event>
12    3  0.4634846E-008  0.1490761E+04  0.7818608E-02  0.8890620E-01
         -1   -1    0    0    0  501 -0.00000000000E+00  0.00000000000E+00  0.41461696561E+03  0.41461696561E+03  0.00000000000E+00 0.  1.
          1   -1    0    0  501    0  0.00000000000E+00 -0.00000000000E+00 -0.13400125451E+04  0.13400125451E+04  0.00000000000E+00 0. -1.
         23    2    1    2    0    0  0.40263324411E+03 -0.21983333649E+03 -0.22798286456E+03  0.52031405504E+03  0.91160870140E+02 0.  0.
        254    2    1    2    0    0 -0.40263324411E+03  0.21983333649E+03 -0.69741271495E+03  0.12343154557E+04  0.90923590125E+03 0.  0.
         23    2    4    4    0    0 -0.17322981945E+03  0.44639004109E+03 -0.30462715684E+02  0.48810253829E+03  0.89685404085E+02 0.  0.
         23    2    4    4    0    0 -0.22940342466E+03 -0.22655670460E+03 -0.66694999927E+03  0.74621291741E+03  0.89763828722E+02 0.  0.
          2    1    3    3  502    0  0.19078316188E+03 -0.10362851582E+03 -0.57495876967E+02  0.22459487976E+03  0.00000000000E+00 0. -1.
         -2    1    3    3    0  502  0.21185008223E+03 -0.11620482068E+03 -0.17048698759E+03  0.29571917528E+03  0.00000000000E+00 0.  1.
         13    1    5    5    0    0 -0.53346328509E+02  0.52021092766E+02 -0.12251977414E+02  0.75512487765E+02  0.00000000000E+00 0.  1.
        -13    1    5    5    0    0 -0.11988349094E+03  0.39436894832E+03 -0.18210738270E+02  0.41259005052E+03  0.00000000000E+00 0. -1.
          3    1    6    6  503    0 -0.23214780079E+03 -0.19603103803E+03 -0.61277263625E+03  0.68396715785E+03  0.00000000000E+00 0. -1.
         -3    1    6    6    0  503  0.27443761301E+01 -0.30525666572E+02 -0.54177363023E+02  0.62245759567E+02  0.00000000000E+00 0.  1.
<mgrwt>
<rscale>  0 0.14907608E+04</rscale>
<asrwt>0</asrwt>
<pdfrwt beam="1">  1        1 0.20615578E+00 0.14907608E+04</pdfrwt>
<pdfrwt beam="2">  1       -1 0.63787225E-01 0.14907608E+04</pdfrwt>
<totfact> 0.20438241E+01</totfact>
</mgrwt>
</event>
<event>
12    3  0.4634846E-008  0.2480608E+04  0.7818608E-02  0.8409927E-01
          2   -1    0    0  501    0  0.00000000000E+00  0.00000000000E+00  0.11745613145E+04  0.11745613145E+04  0.00000000000E+00 0. -1.
         -2   -1    0    0    0  501 -0.00000000000E+00 -0.00000000000E+00 -0.13097265800E+04  0.13097265800E+04  0.00000000000E+00 0.  1.
         23    2    1    2    0    0 -0.79909474262E+01  0.36027128951E+03  0.95752882296E+03  0.10272475622E+04  0.92286780973E+02 0.  0.
        254    2    1    2    0    0  0.79909474262E+01 -0.36027128951E+03 -0.10926940885E+04  0.14570403322E+04  0.89393898086E+03 0.  0.
         23    2    4    4    0    0  0.35227479112E+03 -0.42851881285E+03 -0.45353641143E+03  0.72227830134E+03  0.90910762149E+02 0.  0.
         23    2    4    4    0    0 -0.34428384369E+03  0.68247523334E+02 -0.63915767705E+03  0.73476203091E+03  0.90352733552E+02 0.  0.
          2    1    3    3  502    0 -0.56626186748E+01  0.24442530914E+03  0.75869350322E+03  0.79711456443E+03  0.00000000000E+00 0. -1.
         -2    1    3    3    0  502 -0.23283287514E+01  0.11584598037E+03  0.19883531975E+03  0.23013299777E+03  0.00000000000E+00 0.  1.
         13    1    5    5    0    0  0.22047347278E+03 -0.33201142708E+03 -0.31229369507E+03  0.50632745520E+03  0.00000000000E+00 0. -1.
        -13    1    5    5    0    0  0.13180131834E+03 -0.96507385769E+02 -0.14124271637E+03  0.21595084614E+03  0.00000000000E+00 0.  1.
          2    1    6    6  503    0 -0.61722406470E+02 -0.53305894750E+01 -0.60405230416E+02  0.86526657778E+02  0.00000000000E+00 0.  1.
         -2    1    6    6    0  503 -0.28256143722E+03  0.73578112809E+02 -0.57875244664E+03  0.64823537313E+03  0.00000000000E+00 0. -1.
<mgrwt>
<rscale>  0 0.24806081E+04</rscale>
<asrwt>0</asrwt>
<pdfrwt beam="1">  1        2 0.18070174E+00 0.24806081E+04</pdfrwt>
<pdfrwt beam="2">  1       -2 0.20149639E+00 0.24806081E+04</pdfrwt>
<totfact> 0.22787212E+00</totfact>
</mgrwt>
</event>
<event>
12    3  0.4634846E-008  0.1511030E+04  0.7818608E-02  0.8877151E-01
         -1   -1    0    0    0  501 -0.00000000000E+00  0.00000000000E+00  0.32756314194E+03  0.32756314194E+03  0.00000000000E+00 0.  1.
          1   -1    0    0  501    0  0.00000000000E+00 -0.00000000000E+00 -0.17425743175E+04  0.17425743175E+04  0.00000000000E+00 0. -1.
         23    2    1    2    0    0  0.18998398400E+02  0.10405170436E+03  0.18605546368E+03  0.23301661003E+03  0.92154265585E+02 0.  0.
        254    2    1    2    0    0 -0.18998398400E+02 -0.10405170436E+03 -0.16010666393E+04  0.18371208494E+04  0.89465688157E+03 0.  0.
         23    2    4    4    0    0 -0.35432039363E+03  0.13878500552E+03 -0.11667510819E+04  0.12306503926E+04  0.91586476211E+02 0.  0.
         23    2    4    4    0    0  0.33532199523E+03 -0.24283670987E+03 -0.43431555737E+03  0.60647045683E+03  0.88124363746E+02 0.  0.
          3    1    3    3  502    0 -0.22550291060E+02 -0.48725498684E+01  0.39558088564E+02  0.45794101585E+02  0.00000000000E+00 0. -1.
         -3    1    3    3    0  502  0.41548689461E+02  0.10892425423E+03  0.14649737511E+03  0.18722250845E+03  0.00000000000E+00 0.  1.
         13    1    5    5    0    0 -0.15342558396E+03  0.87412795917E+02 -0.41918780335E+03  0.45486132082E+03  0.00000000000E+00 0. -1.
        -13    1    5    5    0    0 -0.20089480967E+03  0.51372209599E+02 -0.74756327855E+03  0.77578907179E+03  0.00000000000E+00 0.  1.
          2    1    6    6  503    0  0.32135140929E+02 -0.14905776185E+02 -0.89263670214E+01  0.36531212331E+02  0.00000000000E+00 0.  1.
         -2    1    6    6    0  503  0.30318685430E+03 -0.22793093369E+03 -0.42538919035E+03  0.56993924450E+03  0.00000000000E+00 0. -1.
<mgrwt>
<rscale>  0 0.15110303E+04</rscale>
<asrwt>0</asrwt>
<pdfrwt beam="1">  1        1 0.26808835E+00 0.15110303E+04</pdfrwt>
<pdfrwt beam="2">  1       -1 0.50394330E-01 0.15110303E+04</pdfrwt>
<totfact> 0.17037682E+01</totfact>
</mgrwt>
</event>
<event>
12    3  0.4634846E-008  0.1276858E+04  0.7818608E-02  0.9048121E-01
         -2   -1    0    0    0  501 -0.00000000000E+00  0.00000000000E+00  0.16641874080E+03  0.16641874080E+03  0.00000000000E+00 0.  1.
          2   -1    0    0  501    0  0.00000000000E+00 -0.00000000000E+00 -0.24491917159E+04  0.24491917159E+04  0.00000000000E+00 0. -1.
         23    2    1    2    0    0 -0.62790601191E+02  0.77764413932E+02  0.23512586248E+02  0.13592238915E+03  0.89062284313E+02 0.  0.
        254    2    1    2    0    0  0.62790601191E+02 -0.77764413932E+02 -0.23062855613E+04  0.24796880675E+04  0.90548873998E+03 0.  0.
         23    2    4    4    0    0 -0.17330808576E+03  0.31756421771E+03 -0.15179740699E+04  0.15625284695E+04  0.79794837026E+02 0.  0.
         23    2    4    4    0    0  0.23609868695E+03 -0.39532863164E+03 -0.78831149137E+03  0.91715959803E+03  0.87860138006E+02 0.  0.
          3    1    3    3  502    0 -0.49336066869E+02  0.35295930221E+02 -0.28850498427E+02  0.67172921954E+02  0.00000000000E+00 0. -1.
         -3    1    3    3    0  502 -0.13454534322E+02  0.42468483711E+02  0.52363084675E+02  0.68749467192E+02  0.00000000000E+00 0.  1.
         13    1    5    5    0    0 -0.84838358336E+02  0.23346844293E+03 -0.10220478189E+04  0.10518016947E+04  0.00000000000E+00 0.  1.
        -13    1    5    5    0    0 -0.88469727425E+02  0.84095774777E+02 -0.49592625101E+03  0.51072677475E+03  0.00000000000E+00 0. -1.
          1    1    6    6  503    0  0.19855220685E+03 -0.26318544910E+03 -0.51950170484E+03  0.61528170848E+03  0.00000000000E+00 0. -1.
         -1    1    6    6    0  503  0.37546480101E+02 -0.13214318255E+03 -0.26880978654E+03  0.30187788955E+03  0.00000000000E+00 0.  1.
<mgrwt>
<rscale>  0 0.12768577E+04</rscale>
<asrwt>0</asrwt>
<pdfrwt beam="1">  1        2 0.37679868E+00 0.12768577E+04</pdfrwt>
<pdfrwt beam="2">  1       -2 0.25602886E-01 0.12768577E+04</pdfrwt>
<totfact> 0.50462989E+01</totfact>
</mgrwt>
</event>
<event>
12    3  0.4634846E-008  0.2080632E+04  0.7818608E-02  0.8569823E-01
          2   -1    0    0  501    0  0.00000000000E+00  0.00000000000E+00  0.11446943760E+04  0.11446943760E+04  0.00000000000E+00 0. -1.
         -2   -1    0    0    0  501 -0.00000000000E+00 -0.00000000000E+00 -0.94545567536E+03  0.94545567536E+03  0.00000000000E+00 0.  1.
         23    2    1    2    0    0  0.38335818053E+03  0.55119754279E+03  0.59160825734E+03  0.89950230049E+03  0.91224079460E+02 0.  0.
        254    2    1    2    0    0 -0.38335818053E+03 -0.55119754279E+03 -0.39236955672E+03  0.11906477509E+04  0.90161298339E+03 0.  0.
         23    2    4    4    0    0 -0.53538753328E+03 -0.19467787851E+03 -0.51641319514E+03  0.77387222892E+03  0.87500579435E+02 0.  0.
         23    2    4    4    0    0  0.15202935276E+03 -0.35651966428E+03  0.12404363841E+03  0.41677552193E+03  0.89976754407E+02 0.  0.
          4    1    3    3  502    0  0.30865196313E+03  0.38475969972E+03  0.46084500347E+03  0.67504383420E+03  0.00000000000E+00 0. -1.
         -4    1    3    3    0  502  0.74706217395E+02  0.16643784307E+03  0.13076325388E+03  0.22445846629E+03  0.00000000000E+00 0.  1.
         13    1    5    5    0    0 -0.32502952242E+03 -0.80261185986E+02 -0.26813170374E+03  0.42892966670E+03  0.00000000000E+00 0.  1.
        -13    1    5    5    0    0 -0.21035801086E+03 -0.11441669252E+03 -0.24828149140E+03  0.34494256222E+03  0.00000000000E+00 0. -1.
          3    1    6    6  503    0  0.68611974985E+02 -0.21727981572E+03  0.11232631606E+03  0.25403803398E+03  0.00000000000E+00 0. -1.
         -3    1    6    6    0  503  0.83417377771E+02 -0.13923984856E+03  0.11717322357E+02  0.16273748795E+03  0.00000000000E+00 0.  1.
<mgrwt>
<rscale>  0 0.20806324E+04</rscale>
<asrwt>0</asrwt>
<pdfrwt beam="1">  1        2 0.17610683E+00 0.20806324E+04</pdfrwt>
<pdfrwt beam="2">  1       -2 0.14545472E+00 0.20806324E+04</pdfrwt>
<totfact> 0.61358283E+00</totfact>
</mgrwt>
</event>
<event>
12    3  0.4634846E-008  0.1242654E+04  0.7818608E-02  0.9076320E-01
          2   -1    0    0  501    0  0.00000000000E+00  0.00000000000E+00  0.10518546920E+04  0.10518546920E+04  0.00000000000E+00 0. -1.
         -2   -1    0    0    0  501 -0.00000000000E+00 -0.00000000000E+00 -0.36701575570E+03  0.36701575570E+03  0.00000000000E+00 0.  1.
         23    2    1    2    0    0  0.17522903793E+03  0.20624383683E+03  0.15434107671E+03  0.32493070323E+03  0.92287908087E+02 0.  0.
        254    2    1    2    0    0 -0.17522903793E+03 -0.20624383683E+03  0.53049785961E+03  0.10939397445E+04  0.91762435100E+03 0.  0.
         23    2    4    4    0    0 -0.41054644903E+03 -0.13522875566E+03  0.66536721984E+03  0.79918506844E+03  0.95645351221E+02 0.  0.
         23    2    4    4    0    0  0.23531741111E+03 -0.71015081173E+02 -0.13486936024E+03  0.29475467603E+03  0.90956852353E+02 0.  0.
          2    1    3    3  502    0  0.54517889217E+02  0.10793917801E+03  0.10896311782E+03  0.16277600388E+03  0.00000000000E+00 0. -1.
         -2    1    3    3    0  502  0.12071114871E+03  0.98304658821E+02  0.45377958891E+02  0.16215469935E+03  0.00000000000E+00 0.  1.
         13    1    5    5    0    0 -0.20419874921E+03 -0.70789164856E+02  0.24652383549E+03  0.32784483602E+03  0.00000000000E+00 0. -1.
        -13    1    5    5    0    0 -0.20634769982E+03 -0.64439590800E+02  0.41884338435E+03  0.47134023243E+03  0.00000000000E+00 0.  1.
          4    1    6    6  503    0  0.70185731157E+02  0.36076103344E+01 -0.24558813394E+01  0.70321284570E+02  0.00000000000E+00 0. -1.
         -4    1    6    6    0  503  0.16513167995E+03 -0.74622691507E+02 -0.13241347890E+03  0.22443339146E+03  0.00000000000E+00 0.  1.
<mgrwt>
<rscale>  0 0.12426540E+04</rscale>
<asrwt>0</asrwt>
<pdfrwt beam="1">  1        2 0.16182380E+00 0.12426540E+04</pdfrwt>
<pdfrwt beam="2">  1       -2 0.56463963E-01 0.12426540E+04</pdfrwt>
<totfact> 0.67607945E+01</totfact>
</mgrwt>
</event>
<event>
12    3  0.4634846E-008  0.1421069E+04  0.7818608E-02  0.8938707E-01
          2   -1    0    0  501    0  0.00000000000E+00  0.00000000000E+00  0.13528618455E+04  0.13528618455E+04  0.00000000000E+00 0. -1.
         -2   -1    0    0    0  501 -0.00000000000E+00 -0.00000000000E+00 -0.37317883182E+03  0.37317883182E+03  0.00000000000E+00 0.  1.
         23    2    1    2    0    0 -0.22285859533E+03 -0.22872546480E+03  0.62810970507E+03  0.71063263318E+03  0.92171828542E+02 0.  0.
        254    2    1    2    0    0  0.22285859533E+03  0.22872546480E+03  0.35157330863E+03  0.10154080442E+04  0.89747892068E+03 0.  0.
         23    2    4    4    0    0  0.20688667813E+03  0.46190460638E+03 -0.74733561798E+02  0.52016399375E+03  0.93954840980E+02 0.  0.
         23    2    4    4    0    0  0.15971917197E+02 -0.23317914159E+03  0.42630687043E+03  0.49524405042E+03  0.94347800693E+02 0.  0.
          2    1    3    3  502    0 -0.54891682589E+02 -0.28369112156E+02  0.19676012482E+03  0.20623396923E+03  0.00000000000E+00 0. -1.
         -2    1    3    3    0  502 -0.16796691274E+03 -0.20035635264E+03  0.43134958025E+03  0.50439866395E+03  0.00000000000E+00 0.  1.
         13    1    5    5    0    0  0.14320706604E+03  0.40015126092E+03 -0.49114183257E+02  0.42783349376E+03  0.00000000000E+00 0.  1.
        -13    1    5    5    0    0  0.63679612090E+02  0.61753345461E+02 -0.25619378541E+02  0.92330499989E+02  0.00000000000E+00 0. -1.
          2    1    6    6  503    0 -0.18064333133E+02 -0.93885867577E+02  0.97615932988E+02  0.13663728128E+03  0.00000000000E+00 0. -1.
         -2    1    6    6    0  503  0.34036250330E+02 -0.13929327401E+03  0.32869093744E+03  0.35860676915E+03  0.00000000000E+00 0.  1.
<mgrwt>
<rscale>  0 0.14210692E+04</rscale>
<asrwt>0</asrwt>
<pdfrwt beam="1">  1        2 0.20813259E+00 0.14210692E+04</pdfrwt>
<pdfrwt beam="2">  1       -2 0.57412129E-01 0.14210692E+04</pdfrwt>
<totfact> 0.42539698E+01</totfact>
</mgrwt>
</event>
<event>
12    3  0.4634846E-008  0.1323220E+04  0.7818608E-02  0.9011351E-01
          2   -1    0    0  501    0  0.00000000000E+00  0.00000000000E+00  0.25100801175E+03  0.25100801175E+03  0.00000000000E+00 0.  1.
         -2   -1    0    0    0  501 -0.00000000000E+00 -0.00000000000E+00 -0.17438806734E+04  0.17438806734E+04  0.00000000000E+00 0. -1.
         23    2    1    2    0    0 -0.63617830311E+02  0.11274227781E+03 -0.89696492833E+03  0.91088773197E+03  0.91718744284E+02 0.  0.
        254    2    1    2    0    0  0.63617830311E+02 -0.11274227781E+03 -0.59590773329E+03  0.10840009532E+04  0.89621090727E+03 0.  0.
         23    2    4    4    0    0 -0.92626956565E+02 -0.40746860554E+03 -0.40210379269E+02  0.42954233932E+03  0.90990818698E+02 0.  0.
         23    2    4    4    0    0  0.15624478688E+03  0.29472632773E+03 -0.55569735402E+03  0.65445861383E+03  0.90777124149E+02 0.  0.
          4    1    3    3  502    0 -0.36904098603E+02 -0.48388241640E+01 -0.17395382486E+03  0.17789114620E+03  0.00000000000E+00 0.  1.
         -4    1    3    3    0  502 -0.26713731708E+02  0.11758110198E+03 -0.72301110348E+03  0.73299658577E+03  0.00000000000E+00 0. -1.
         13    1    5    5    0    0 -0.10911969466E+03 -0.37881699787E+03 -0.41895640912E+02  0.39643999592E+03  0.00000000000E+00 0. -1.
        -13    1    5    5    0    0  0.16492738096E+02 -0.28651607672E+02  0.16852616430E+01  0.33102343405E+02  0.00000000000E+00 0.  1.
          1    1    6    6  503    0  0.10610735573E+03  0.22689076556E+03 -0.47859607946E+03  0.54017811665E+03  0.00000000000E+00 0. -1.
         -1    1    6    6    0  503  0.50137431144E+02  0.67835562164E+02 -0.77101274565E+02  0.11428049718E+03  0.00000000000E+00 0.  1.
<mgrwt>
<rscale>  0 0.13232203E+04</rscale>
<asrwt>0</asrwt>
<pdfrwt beam="1">  1        2 0.38616617E-01 0.13232203E+04</pdfrwt>
<pdfrwt beam="2">  1       -2 0.26828933E+00 0.13232203E+04</pdfrwt>
<totfact> 0.65296969E+00</totfact>
</mgrwt>
</event>
<event>
12    3  0.4634846E-008  0.2314826E+04  0.7818608E-02  0.8472098E-01
         -2   -1    0    0    0  501 -0.00000000000E+00  0.00000000000E+00  0.19769706211E+04  0.19769706211E+04  0.00000000000E+00 0.  1.
          2   -1    0    0  501    0  0.00000000000E+00 -0.00000000000E+00 -0.67760506837E+03  0.67760506837E+03  0.00000000000E+00 0. -1.
         23    2    1    2    0    0  0.14302515328E+03 -0.58663191612E+03  0.14327760006E+04  0.15576183131E+04  0.93458771392E+02 0.  0.
        254    2    1    2    0    0 -0.14302515328E+03  0.58663191612E+03 -0.13341044783E+03  0.10969573764E+04  0.90604852991E+03 0.  0.
         23    2    4    4    0    0  0.36009890209E+03  0.37985477676E+03 -0.12535329738E+03  0.54606062328E+03  0.92238193910E+02 0.  0.
         23    2    4    4    0    0 -0.50312405538E+03  0.20677713936E+03 -0.80571504477E+01  0.55089675311E+03  0.86785450737E+02 0.  0.
          4    1    3    3  502    0  0.40773004419E+02 -0.69419135849E+02  0.25036921854E+03  0.26299467657E+03  0.00000000000E+00 0. -1.
         -4    1    3    3    0  502  0.10225214887E+03 -0.51721278027E+03  0.11824067821E+04  0.12946236366E+04  0.00000000000E+00 0.  1.
         13    1    5    5    0    0  0.12696760614E+01  0.19542857729E+02 -0.17444047689E+02  0.26226516453E+02  0.00000000000E+00 0. -1.
        -13    1    5    5    0    0  0.35882922603E+03  0.36031191903E+03 -0.10790924970E+03  0.51983410683E+03  0.00000000000E+00 0.  1.
          4    1    6    6  503    0 -0.43674274777E+01 -0.50449153324E+01 -0.60687641849E+01  0.90197279458E+01  0.00000000000E+00 0. -1.
         -4    1    6    6    0  503 -0.49875662790E+03  0.21182205469E+03 -0.19883862628E+01  0.54187702517E+03  0.00000000000E+00 0.  1.
<mgrwt>
<rscale>  0 0.23148264E+04</rscale>
<asrwt>0</asrwt>
<pdfrwt beam="1">  1        2 0.10424693E+00 0.23148264E+04</pdfrwt>
<pdfrwt beam="2">  1       -2 0.30414932E+00 0.23148264E+04</pdfrwt>
<totfact> 0.11592501E+00</totfact>
</mgrwt>
</event>
<event>
12    3  0.4634846E-008  0.1922386E+04  0.7818608E-02  0.8643793E-01
          1   -1    0    0  501    0  0.00000000000E+00  0.00000000000E+00  0.11754675386E+04  0.11754675386E+04  0.00000000000E+00 0. -1.
         -1   -1    0    0    0  501 -0.00000000000E+00 -0.00000000000E+00 -0.78597823686E+03  0.78597823686E+03  0.00000000000E+00 0.  1.
         23    2    1    2    0    0 -0.13487443411E+03 -0.10366457156E+03 -0.58315175478E+03  0.61440649721E+03  0.92151605145E+02 0.  0.
        254    2    1    2    0    0  0.13487443411E+03  0.10366457156E+03  0.97264105653E+03  0.13470392783E+04  0.91626782982E+03 0.  0.
         23    2    4    4    0    0  0.37966489304E+03 -0.25974301748E+03  0.61408297581E+03  0.77378469502E+03  0.10016479884E+03 0.  0.
         23    2    4    4    0    0 -0.24479045892E+03  0.36340758904E+03  0.35855808071E+03  0.57325458324E+03  0.89830258867E+02 0.  0.
          4    1    3    3  502    0 -0.82583230629E+01 -0.53061532224E+02 -0.22114619469E+03  0.22757276974E+03  0.00000000000E+00 0. -1.
         -4    1    3    3    0  502 -0.12661611105E+03 -0.50603039332E+02 -0.36200556009E+03  0.38683372747E+03  0.00000000000E+00 0.  1.
         13    1    5    5    0    0  0.27247609792E+03 -0.14582241046E+03  0.35054193971E+03  0.46731900328E+03  0.00000000000E+00 0. -1.
        -13    1    5    5    0    0  0.10718879512E+03 -0.11392060702E+03  0.26354103611E+03  0.30646569174E+03  0.00000000000E+00 0.  1.
          2    1    6    6  503    0 -0.45744005278E+02  0.72386180394E+02  0.12052247348E+03  0.14784430914E+03  0.00000000000E+00 0. -1.
         -2    1    6    6    0  503 -0.19904645365E+03  0.29102140865E+03  0.23803560723E+03  0.42541027410E+03  0.00000000000E+00 0.  1.
<mgrwt>
<rscale>  0 0.19223859E+04</rscale>
<asrwt>0</asrwt>
<pdfrwt beam="1">  1        1 0.18084116E+00 0.19223859E+04</pdfrwt>
<pdfrwt beam="2">  1       -1 0.12091973E+00 0.19223859E+04</pdfrwt>
<totfact> 0.63203410E+00</totfact>
</mgrwt>
</event>
<event>
12    3  0.4634846E-008  0.3279597E+04  0.7818608E-02  0.8168106E-01
         -2   -1    0    0    0  501 -0.00000000000E+00  0.00000000000E+00  0.22142317397E+04  0.22142317397E+04  0.00000000000E+00 0.  1.
          2   -1    0    0  501    0  0.00000000000E+00 -0.00000000000E+00 -0.12143889396E+04  0.12143889396E+04  0.00000000000E+00 0. -1.
         23    2    1    2    0    0 -0.12042307524E+03  0.34963760216E+03 -0.10695553561E+04  0.11357678785E+04  0.96290415300E+02 0.  0.
        254    2    1    2    0    0  0.12042307524E+03 -0.34963760216E+03  0.20693981562E+04  0.22928528008E+04  0.91543272131E+03 0.  0.
         23    2    4    4    0    0  0.32353221998E+03 -0.34220257030E+03  0.44790587509E+03  0.65631157642E+03  0.91375685573E+02 0.  0.
         23    2    4    4    0    0 -0.20310914475E+03 -0.74350318518E+01  0.16214922811E+04  0.16365412244E+04  0.87871252072E+02 0.  0.
          2    1    3    3  502    0 -0.11803970285E+03  0.33410381887E+03 -0.92810779433E+03  0.99344995402E+03  0.00000000000E+00 0. -1.
         -2    1    3    3    0  502 -0.23833723891E+01  0.15533783286E+02 -0.14144756177E+03  0.14231792444E+03  0.00000000000E+00 0.  1.
         13    1    5    5    0    0  0.87424594297E+02 -0.13585457842E+03  0.19661567790E+03  0.25447446033E+03  0.00000000000E+00 0. -1.
        -13    1    5    5    0    0  0.23610762569E+03 -0.20634799189E+03  0.25129019719E+03  0.40183711609E+03  0.00000000000E+00 0.  1.
          2    1    6    6  503    0 -0.13647178418E+03 -0.44852020873E+02  0.96943496376E+03  0.98002061234E+03  0.00000000000E+00 0.  1.
         -2    1    6    6    0  503 -0.66637360561E+02  0.37416989022E+02  0.65205731735E+03  0.65652061201E+03  0.00000000000E+00 0. -1.
<mgrwt>
<rscale>  0 0.32795966E+04</rscale>
<asrwt>0</asrwt>
<pdfrwt beam="1">  1        2 0.18682907E+00 0.32795966E+04</pdfrwt>
<pdfrwt beam="2">  1       -2 0.34065104E+00 0.32795966E+04</pdfrwt>
<totfact> 0.27663016E-01</totfact>
</mgrwt>
</event>
<event>
12    3  0.4634846E-008  0.1519105E+04  0.7818608E-02  0.8871847E-01
          2   -1    0    0  501    0  0.00000000000E+00  0.00000000000E+00  0.73559744336E+03  0.73559744336E+03  0.00000000000E+00 0. -1.
         -2   -1    0    0    0  501 -0.00000000000E+00 -0.00000000000E+00 -0.78428744340E+03  0.78428744340E+03  0.00000000000E+00 0.  1.
         23    2    1    2    0    0  0.97298546826E+02 -0.18864031251E+03 -0.44416185715E+03  0.50079020368E+03  0.91972267771E+02 0.  0.
        254    2    1    2    0    0 -0.97298546826E+02  0.18864031251E+03  0.39547185710E+03  0.10190946831E+04  0.91493377280E+03 0.  0.
         23    2    4    4    0    0  0.15250905343E+03  0.43633071139E+03 -0.15654551758E+02  0.47034120145E+03  0.85628731826E+02 0.  0.
         23    2    4    4    0    0 -0.24980760026E+03 -0.24769039888E+03  0.41112640886E+03  0.54875348163E+03  0.91384291288E+02 0.  0.
          3    1    3    3  502    0 -0.16517090272E+02 -0.44815148426E+02 -0.84601731564E+02  0.97152790918E+02  0.00000000000E+00 0. -1.
         -3    1    3    3    0  502  0.11381563710E+03 -0.14382516408E+03 -0.35956012558E+03  0.40363741276E+03  0.00000000000E+00 0.  1.
         13    1    5    5    0    0  0.16224878005E+03  0.40840798166E+03 -0.69389390780E+01  0.43951097255E+03  0.00000000000E+00 0. -1.
        -13    1    5    5    0    0 -0.97397266203E+01  0.27922729725E+02 -0.87156126803E+01  0.30830228905E+02  0.00000000000E+00 0.  1.
          2    1    6    6  503    0 -0.21254801487E+03 -0.24725354851E+03  0.37357185557E+03  0.49584968201E+03  0.00000000000E+00 0. -1.
         -2    1    6    6    0  503 -0.37259585383E+02 -0.43685037179E+00  0.37554553290E+02  0.52903799617E+02  0.00000000000E+00 0.  1.
<mgrwt>
<rscale>  0 0.15191048E+04</rscale>
<asrwt>0</asrwt>
<pdfrwt beam="1">  1        2 0.11316884E+00 0.15191048E+04</pdfrwt>
<pdfrwt beam="2">  1       -2 0.12065961E+00 0.15191048E+04</pdfrwt>
<totfact> 0.19431183E+01</totfact>
</mgrwt>
</event>
<event>
12    3  0.4634846E-008  0.1567050E+04  0.7818608E-02  0.8841050E-01
         -2   -1    0    0    0  501 -0.00000000000E+00  0.00000000000E+00  0.46676716310E+03  0.46676716310E+03  0.00000000000E+00 0.  1.
          2   -1    0    0  501    0  0.00000000000E+00 -0.00000000000E+00 -0.13152418774E+04  0.13152418774E+04  0.00000000000E+00 0. -1.
         23    2    1    2    0    0 -0.36248762681E+03  0.36738442330E+03 -0.37746239996E+03  0.64601711148E+03  0.92150153951E+02 0.  0.
        254    2    1    2    0    0  0.36248762681E+03 -0.36738442330E+03 -0.47101231434E+03  0.11359919290E+04  0.89568770698E+03 0.  0.
         23    2    4    4    0    0  0.31289264315E+03  0.16091180537E+02  0.18068970547E+03  0.37302017483E+03  0.91293750841E+02 0.  0.
         23    2    4    4    0    0  0.49594983659E+02 -0.38347560384E+03 -0.65170201981E+03  0.76297175417E+03  0.88866044686E+02 0.  0.
          2    1    3    3  502    0 -0.85550008824E+02  0.37837816247E+02 -0.75412201536E+02  0.12015616709E+03  0.00000000000E+00 0. -1.
         -2    1    3    3    0  502 -0.27693761798E+03  0.32954660705E+03 -0.30205019842E+03  0.52586094440E+03  0.00000000000E+00 0.  1.
         13    1    5    5    0    0  0.10735175520E+03  0.43997722132E+02  0.89043905015E+02  0.14624984075E+03  0.00000000000E+00 0. -1.
        -13    1    5    5    0    0  0.20554088794E+03 -0.27906541595E+02  0.91645800458E+02  0.22677033409E+03  0.00000000000E+00 0.  1.
          4    1    6    6  503    0  0.72322467803E+02 -0.33642658571E+03 -0.55392064411E+03  0.65210541088E+03  0.00000000000E+00 0.  1.
         -4    1    6    6    0  503 -0.22727484144E+02 -0.47049018125E+02 -0.97781375700E+02  0.11086634330E+03  0.00000000000E+00 0. -1.
<mgrwt>
<rscale>  0 0.15670504E+04</rscale>
<asrwt>0</asrwt>
<pdfrwt beam="1">  1        2 0.20234490E+00 0.15670504E+04</pdfrwt>
<pdfrwt beam="2">  1       -2 0.71810333E-01 0.15670504E+04</pdfrwt>
<totfact> 0.27368939E+01</totfact>
</mgrwt>
</event>
<event>
12    3  0.4634846E-008  0.2104577E+04  0.7818608E-02  0.8559230E-01
          1   -1    0    0  501    0  0.00000000000E+00  0.00000000000E+00  0.43249128714E+04  0.43249128714E+04  0.00000000000E+00 0. -1.
         -1   -1    0    0    0  501 -0.00000000000E+00 -0.00000000000E+00 -0.25603086971E+03  0.25603086971E+03  0.00000000000E+00 0.  1.
         23    2    1    2    0    0 -0.84999865827E+03 -0.11302664024E+03  0.16667845599E+04  0.18766925261E+04  0.92365188031E+02 0.  0.
        254    2    1    2    0    0  0.84999865827E+03  0.11302664024E+03  0.24020974418E+04  0.27042512150E+04  0.89868224279E+03 0.  0.
         23    2    4    4    0    0  0.59219873687E+03 -0.47885766206E+02  0.22896713266E+04  0.23672714120E+04  0.91579275021E+02 0.  0.
         23    2    4    4    0    0  0.25779992141E+03  0.16091240645E+03  0.11242611526E+03  0.33697980307E+03  0.92531909427E+02 0.  0.
          4    1    3    3  502    0 -0.22991262615E+03 -0.72311492170E+02  0.46344880761E+03  0.52237301312E+03  0.00000000000E+00 0. -1.
         -4    1    3    3    0  502 -0.62008603212E+03 -0.40715148071E+02  0.12033357523E+04  0.13543195130E+04  0.00000000000E+00 0.  1.
         13    1    5    5    0    0  0.55846805962E+03 -0.29033151130E+02  0.20690316277E+04  0.21432735183E+04  0.00000000000E+00 0. -1.
        -13    1    5    5    0    0  0.33730677245E+02 -0.18852615077E+02  0.22063969882E+03  0.22399789369E+03  0.00000000000E+00 0.  1.
          2    1    6    6  503    0  0.24887594301E+03  0.14288558817E+03  0.12525702427E+03  0.31312114021E+03  0.00000000000E+00 0. -1.
         -2    1    6    6    0  503  0.89239783909E+01  0.18026818280E+02 -0.12830909011E+02  0.23858662864E+02  0.00000000000E+00 0.  1.
<mgrwt>
<rscale>  0 0.21045771E+04</rscale>
<asrwt>0</asrwt>
<pdfrwt beam="1">  1        1 0.66537116E+00 0.21045771E+04</pdfrwt>
<pdfrwt beam="2">  1       -1 0.39389368E-01 0.21045771E+04</pdfrwt>
<totfact> 0.27997754E-01</totfact>
</mgrwt>
</event>
<event>
12    3  0.4634846E-008  0.2323783E+04  0.7818608E-02  0.8468603E-01
         -1   -1    0    0    0  501 -0.00000000000E+00  0.00000000000E+00  0.11009162460E+04  0.11009162460E+04  0.00000000000E+00 0.  1.
          1   -1    0    0  501    0  0.00000000000E+00 -0.00000000000E+00 -0.12262434373E+04  0.12262434373E+04  0.00000000000E+00 0. -1.
         23    2    1    2    0    0 -0.39030427110E+03 -0.38263635349E+03  0.77138838429E+03  0.94907102457E+03  0.83353267456E+02 0.  0.
        254    2    1    2    0    0  0.39030427110E+03  0.38263635349E+03 -0.89671557556E+03  0.13780886587E+04  0.89234607902E+03 0.  0.
         23    2    4    4    0    0  0.35981269659E+03  0.69743494645E+02  0.45173312055E+02  0.38065752100E+03  0.92359019576E+02 0.  0.
         23    2    4    4    0    0  0.30491574510E+02  0.31289285885E+03 -0.94188888762E+03  0.99743113771E+03  0.94247125261E+02 0.  0.
          2    1    3    3  502    0 -0.13038925971E+02 -0.26540997050E+02  0.18937231760E+02  0.35114909392E+02  0.00000000000E+00 0. -1.
         -2    1    3    3    0  502 -0.37726534513E+03 -0.35609535644E+03  0.75245115253E+03  0.91395611517E+03  0.00000000000E+00 0.  1.
         13    1    5    5    0    0  0.24641869268E+03  0.15209630010E+02 -0.23823703483E+00  0.24688775122E+03  0.00000000000E+00 0. -1.
        -13    1    5    5    0    0  0.11339400391E+03  0.54533864636E+02  0.45411549089E+02  0.13376976978E+03  0.00000000000E+00 0.  1.
          4    1    6    6  503    0 -0.14330218636E+02  0.22112342943E+03 -0.56352378067E+03  0.60552454747E+03  0.00000000000E+00 0. -1.
         -4    1    6    6    0  503  0.44821793147E+02  0.91769429416E+02 -0.37836510695E+03  0.39190659024E+03  0.00000000000E+00 0.  1.
<mgrwt>
<rscale>  0 0.23237825E+04</rscale>
<asrwt>0</asrwt>
<pdfrwt beam="1">  1        1 0.18865283E+00 0.23237825E+04</pdfrwt>
<pdfrwt beam="2">  1       -1 0.16937173E+00 0.23237825E+04</pdfrwt>
<totfact> 0.22938984E+00</totfact>
</mgrwt>
</event>
<event>
12    3  0.4634846E-008  0.1431965E+04  0.7818608E-02  0.8931001E-01
          2   -1    0    0  501    0  0.00000000000E+00  0.00000000000E+00  0.22365254201E+04  0.22365254201E+04  0.00000000000E+00 0. -1.
         -2   -1    0    0    0  501 -0.00000000000E+00 -0.00000000000E+00 -0.22920849466E+03  0.22920849466E+03  0.00000000000E+00 0.  1.
         23    2    1    2    0    0  0.15316869418E+03  0.29015954564E+03  0.10896442174E+04  0.11414864850E+04  0.89519071881E+02 0.  0.
        254    2    1    2    0    0 -0.15316869418E+03 -0.29015954564E+03  0.91767270802E+03  0.13242474297E+04  0.89657952531E+03 0.  0.
         23    2    4    4    0    0  0.16078454241E+03 -0.40935703066E+03  0.86166674443E+03  0.97164110398E+03  0.90509716999E+02 0.  0.
         23    2    4    4    0    0 -0.31395323658E+03  0.11919748502E+03  0.56005963596E+02  0.35260632571E+03  0.91759891993E+02 0.  0.
          1    1    3    3  502    0  0.14938492583E+03  0.26477534057E+03  0.89647737862E+03  0.94662216719E+03  0.00000000000E+00 0. -1.
         -1    1    3    3    0  502  0.37837683450E+01  0.25384205074E+02  0.19316683876E+03  0.19486431784E+03  0.00000000000E+00 0.  1.
         13    1    5    5    0    0  0.10039783336E+03 -0.13817527356E+03  0.34802591747E+03  0.38767792096E+03  0.00000000000E+00 0. -1.
        -13    1    5    5    0    0  0.60386709043E+02 -0.27118175709E+03  0.51364082696E+03  0.58396318302E+03  0.00000000000E+00 0.  1.
          4    1    6    6  503    0 -0.68616964021E+01 -0.50462588051E+01  0.17039299835E+02  0.19049549714E+02  0.00000000000E+00 0. -1.
         -4    1    6    6    0  503 -0.30709154018E+03  0.12424374382E+03  0.38966663761E+02  0.33355677600E+03  0.00000000000E+00 0.  1.
<mgrwt>
<rscale>  0 0.14319646E+04</rscale>
<asrwt>0</asrwt>
<pdfrwt beam="1">  1        2 0.34408082E+00 0.14319646E+04</pdfrwt>
<pdfrwt beam="2">  1       -2 0.35262847E-01 0.14319646E+04</pdfrwt>
<totfact> 0.36170812E+01</totfact>
</mgrwt>
</event>
<event>
12    3  0.4634846E-008  0.2139964E+04  0.7818608E-02  0.8543840E-01
         -2   -1    0    0    0  501 -0.00000000000E+00  0.00000000000E+00  0.57914584954E+03  0.57914584954E+03  0.00000000000E+00 0. -1.
          2   -1    0    0  501    0  0.00000000000E+00 -0.00000000000E+00 -0.19768106906E+04  0.19768106906E+04  0.00000000000E+00 0.  1.
         23    2    1    2    0    0  0.18313571721E+03  0.82824888570E+03 -0.10652498376E+04  0.13646931078E+04  0.89973076019E+02 0.  0.
        254    2    1    2    0    0 -0.18313571721E+03 -0.82824888570E+03 -0.33241500353E+03  0.11912634324E+04  0.76751151341E+03 0.  0.
         23    2    4    4    0    0  0.12623431595E+03 -0.26720491046E+03  0.18850001231E+03  0.36076989761E+03  0.85376212615E+02 0.  0.
         23    2    4    4    0    0 -0.30937003316E+03 -0.56104397524E+03 -0.52091501585E+03  0.83049353480E+03  0.88808209238E+02 0.  0.
          4    1    3    3  502    0  0.39547944412E+01  0.32752429784E+01  0.42520997394E+00  0.51525158090E+01  0.00000000000E+00 0. -1.
         -4    1    3    3    0  502  0.17918092277E+03  0.82497364272E+03 -0.10656750475E+04  0.13595405920E+04  0.00000000000E+00 0.  1.
         13    1    5    5    0    0  0.12562276620E+03 -0.17575417526E+03  0.13703887177E+03  0.25583248794E+03  0.00000000000E+00 0. -1.
        -13    1    5    5    0    0  0.61154974826E+00 -0.91450735201E+02  0.51461140539E+02  0.10493740967E+03  0.00000000000E+00 0.  1.
          4    1    6    6  503    0 -0.16096234291E+03 -0.33384368429E+03 -0.35010089963E+03  0.50983440576E+03  0.00000000000E+00 0. -1.
         -4    1    6    6    0  503 -0.14840769025E+03 -0.22720029095E+03 -0.17081411622E+03  0.32065912903E+03  0.00000000000E+00 0.  1.
<mgrwt>
<rscale>  0 0.21399642E+04</rscale>
<asrwt>0</asrwt>
<pdfrwt beam="1">  1        2 0.30412472E+00 0.21399642E+04</pdfrwt>
<pdfrwt beam="2">  1       -2 0.89099361E-01 0.21399642E+04</pdfrwt>
<totfact> 0.68374886E+00</totfact>
</mgrwt>
</event>
<event>
12    3  0.4634846E-008  0.2883206E+04  0.7818608E-02  0.8277892E-01
         -1   -1    0    0    0  501 -0.00000000000E+00  0.00000000000E+00  0.19089118801E+04  0.19089118801E+04  0.00000000000E+00 0.  1.
          1   -1    0    0  501    0  0.00000000000E+00 -0.00000000000E+00 -0.10886931002E+04  0.10886931002E+04  0.00000000000E+00 0. -1.
         23    2    1    2    0    0  0.33915713753E+03  0.12438552578E+04  0.32064352952E+03  0.13316577577E+04  0.91085917866E+02 0.  0.
        254    2    1    2    0    0 -0.33915713753E+03 -0.12438552578E+04  0.49957525036E+03  0.16659472225E+04  0.92930148563E+03 0.  0.
         23    2    4    4    0    0 -0.37492500732E+03 -0.48979049418E+02  0.15733535535E+03  0.41940429685E+03  0.90431420317E+02 0.  0.
         23    2    4    4    0    0  0.35767869787E+02 -0.11948762084E+04  0.34223989500E+03  0.12465429257E+04  0.87935351010E+02 0.  0.
          1    1    3    3  502    0  0.32821985921E+03  0.12251017122E+04  0.30381140228E+03  0.13041870454E+04  0.00000000000E+00 0. -1.
         -1    1    3    3    0  502  0.10937278325E+02  0.18753545616E+02  0.16832127242E+02  0.27470712364E+02  0.00000000000E+00 0.  1.
         13    1    5    5    0    0 -0.21796507220E+03 -0.18907213935E+02  0.13740113364E+03  0.25835116985E+03  0.00000000000E+00 0. -1.
        -13    1    5    5    0    0 -0.15695993512E+03 -0.30071835483E+02  0.19934221711E+02  0.16105312700E+03  0.00000000000E+00 0.  1.
          1    1    6    6  503    0  0.41500931624E+02 -0.11732158696E+04  0.34588073939E+03  0.12238428371E+04  0.00000000000E+00 0.  1.
         -1    1    6    6    0  503 -0.57330618363E+01 -0.21660338765E+02 -0.36408443867E+01  0.22700088574E+02  0.00000000000E+00 0. -1.
<mgrwt>
<rscale>  0 0.28832060E+04</rscale>
<asrwt>0</asrwt>
<pdfrwt beam="1">  1        1 0.16749125E+00 0.28832060E+04</pdfrwt>
<pdfrwt beam="2">  1       -1 0.29367875E+00 0.28832060E+04</pdfrwt>
<totfact> 0.40335962E-01</totfact>
</mgrwt>
</event>
<event>
12    3  0.4634846E-008  0.1442389E+04  0.7818608E-02  0.8923694E-01
         -1   -1    0    0    0  501 -0.00000000000E+00  0.00000000000E+00  0.16486134392E+04  0.16486134392E+04  0.00000000000E+00 0.  1.
          1   -1    0    0  501    0  0.00000000000E+00 -0.00000000000E+00 -0.31549009810E+03  0.31549009810E+03  0.00000000000E+00 0. -1.
         23    2    1    2    0    0  0.28273998216E+02 -0.35154609884E+03  0.62451310550E+02  0.36942661108E+03  0.90508431662E+02 0.  0.
        254    2    1    2    0    0 -0.28273998216E+02  0.35154609884E+03  0.12706720306E+04  0.15946769262E+04  0.89666214999E+03 0.  0.
         23    2    4    4    0    0 -0.22913478900E+03  0.58711737916E+03  0.76563107481E+03  0.99592334692E+03  0.91993487682E+02 0.  0.
         23    2    4    4    0    0  0.20086079079E+03 -0.23557128032E+03  0.50504095574E+03  0.59875357931E+03  0.87181399231E+02 0.  0.
          4    1    3    3  502    0  0.52279994703E+02 -0.32088483914E+03  0.53817591740E+02  0.32953999911E+03  0.00000000000E+00 0. -1.
         -4    1    3    3    0  502 -0.24005996488E+02 -0.30661259699E+02  0.86337188096E+01  0.39886611967E+02  0.00000000000E+00 0.  1.
         13    1    5    5    0    0 -0.20946614056E+03  0.51329588561E+03  0.62176410332E+03  0.83303020977E+03  0.00000000000E+00 0.  1.
        -13    1    5    5    0    0 -0.19668648449E+02  0.73821493554E+02  0.14386697149E+03  0.16289313715E+03  0.00000000000E+00 0. -1.
          3    1    6    6  503    0  0.16496354904E+02  0.34418803005E+01  0.49398969122E+02  0.52194199059E+02  0.00000000000E+00 0. -1.
         -3    1    6    6    0  503  0.18436443588E+03 -0.23901316062E+03  0.45564198661E+03  0.54655938025E+03  0.00000000000E+00 0.  1.
<mgrwt>
<rscale>  0 0.14423886E+04</rscale>
<asrwt>0</asrwt>
<pdfrwt beam="1">  1        1 0.48536939E-01 0.14423886E+04</pdfrwt>
<pdfrwt beam="2">  1       -1 0.25363283E+00 0.14423886E+04</pdfrwt>
<totfact> 0.52710501E+00</totfact>
</mgrwt>
</event>
<event>
12    3  0.4634846E-008  0.2429884E+04  0.7818608E-02  0.8428399E-01
          1   -1    0    0  501    0  0.00000000000E+00  0.00000000000E+00  0.23575569548E+04  0.23575569548E+04  0.00000000000E+00 0. -1.
         -1   -1    0    0    0  501 -0.00000000000E+00 -0.00000000000E+00 -0.62610774400E+03  0.62610774400E+03  0.00000000000E+00 0.  1.
         23    2    1    2    0    0  0.63853628169E+03 -0.76407032272E+03  0.35792468286E+03  0.10620842572E+04  0.91546980311E+02 0.  0.
        254    2    1    2    0    0 -0.63853628169E+03  0.76407032272E+03  0.13735245279E+04  0.19215804416E+04  0.90242435903E+03 0.  0.
         23    2    4    4    0    0 -0.60148323672E+02 -0.19118382948E+03  0.21422408861E+03  0.30930000490E+03  0.98007425211E+02 0.  0.
         23    2    4    4    0    0 -0.57838795802E+03  0.95525415220E+03  0.11593004393E+04  0.16122804367E+04  0.91801812616E+02 0.  0.
          3    1    3    3  502    0  0.26281045987E+03 -0.26785964441E+03  0.16962318427E+03  0.41181324841E+03  0.00000000000E+00 0. -1.
         -3    1    3    3    0  502  0.37572582181E+03 -0.49621067831E+03  0.18830149860E+03  0.65027100875E+03  0.00000000000E+00 0.  1.
         13    1    5    5    0    0 -0.57359778657E+02 -0.19899349820E+03  0.18096153199E+03  0.27501933131E+03  0.00000000000E+00 0.  1.
        -13    1    5    5    0    0 -0.27885450153E+01  0.78096687243E+01  0.33262556620E+02  0.34280673590E+02  0.00000000000E+00 0. -1.
          4    1    6    6  503    0 -0.50103311942E+03  0.83334501620E+03  0.10508458398E+04  0.14317035594E+04  0.00000000000E+00 0.  1.
         -4    1    6    6    0  503 -0.77354838591E+02  0.12190913600E+03  0.10845459950E+03  0.18057687739E+03  0.00000000000E+00 0. -1.
<mgrwt>
<rscale>  0 0.24298845E+04</rscale>
<asrwt>0</asrwt>
<pdfrwt beam="1">  1        1 0.36270107E+00 0.24298845E+04</pdfrwt>
<pdfrwt beam="2">  1       -1 0.96324270E-01 0.24298845E+04</pdfrwt>
<totfact> 0.15759093E+00</totfact>
</mgrwt>
</event>
<event>
12    3  0.4634846E-008  0.1737435E+04  0.7818608E-02  0.8740297E-01
          2   -1    0    0  501    0  0.00000000000E+00  0.00000000000E+00  0.37899486659E+04  0.37899486659E+04  0.00000000000E+00 0.  1.
         -2   -1    0    0    0  501 -0.00000000000E+00 -0.00000000000E+00 -0.19912420194E+03  0.19912420194E+03  0.00000000000E+00 0. -1.
         23    2    1    2    0    0  0.55822594826E+03 -0.47836210244E+02  0.64965720375E+03  0.86237991198E+03  0.87977939739E+02 0.  0.
        254    2    1    2    0    0 -0.55822594826E+03  0.47836210244E+02  0.29411672602E+04  0.31266929559E+04  0.90102135122E+03 0.  0.
         23    2    4    4    0    0 -0.58577930928E+03  0.36734718736E+03  0.15986322577E+04  0.17440858281E+04  0.90160553170E+02 0.  0.
         23    2    4    4    0    0  0.27553361024E+02 -0.31951097711E+03  0.13425350026E+04  0.13826071278E+04  0.79723173688E+02 0.  0.
          2    1    3    3  502    0  0.52474436091E+03 -0.37610595032E+02  0.57171072979E+03  0.77693266100E+03  0.00000000000E+00 0. -1.
         -2    1    3    3    0  502  0.33481587350E+02 -0.10225615212E+02  0.77946473958E+02  0.85447250982E+02  0.00000000000E+00 0.  1.
         13    1    5    5    0    0 -0.36405576349E+03  0.23659247163E+03  0.11079465378E+04  0.11899824063E+04  0.00000000000E+00 0. -1.
        -13    1    5    5    0    0 -0.22172354580E+03  0.13075471573E+03  0.49068571986E+03  0.55410342186E+03  0.00000000000E+00 0.  1.
          3    1    6    6  503    0  0.25191361562E+02 -0.30675914631E+03  0.11774834679E+04  0.12170468749E+04  0.00000000000E+00 0. -1.
         -3    1    6    6    0  503  0.23619994619E+01 -0.12751830808E+02  0.16505153465E+03  0.16556025284E+03  0.00000000000E+00 0.  1.
<mgrwt>
<rscale>  0 0.17374355E+04</rscale>
<asrwt>0</asrwt>
<pdfrwt beam="1">  1        2 0.58306897E+00 0.17374355E+04</pdfrwt>
<pdfrwt beam="2">  1       -2 0.30634495E-01 0.17374355E+04</pdfrwt>
<totfact> 0.47375935E+00</totfact>
</mgrwt>
</event>
<event>
12    3  0.4634846E-008  0.1219529E+04  0.7818608E-02  0.9095933E-01
         -3   -1    0    0    0  501 -0.00000000000E+00  0.00000000000E+00  0.10464863089E+04  0.10464863089E+04  0.00000000000E+00 0.  1.
          3   -1    0    0  501    0  0.00000000000E+00 -0.00000000000E+00 -0.35529629700E+03  0.35529629700E+03  0.00000000000E+00 0. -1.
         23    2    1    2    0    0  0.16651876039E+03 -0.20651456455E+03  0.20847534531E+03  0.35034118337E+03  0.94340936128E+02 0.  0.
        254    2    1    2    0    0 -0.16651876039E+03  0.20651456455E+03  0.48271466660E+03  0.10514414225E+04  0.89562204792E+03 0.  0.
         23    2    4    4    0    0  0.32191070564E+03  0.21216245169E+03  0.36943107793E+03  0.54183039374E+03  0.91986118151E+02 0.  0.
         23    2    4    4    0    0 -0.48842946603E+03 -0.56478871331E+01  0.11328358867E+03  0.50961102878E+03  0.90966957093E+02 0.  0.
          2    1    3    3  502    0  0.93042998573E+02 -0.14678105835E+03  0.81508620997E+02  0.19195138439E+03  0.00000000000E+00 0. -1.
         -2    1    3    3    0  502  0.73475761812E+02 -0.59733506206E+02  0.12696672431E+03  0.15838979898E+03  0.00000000000E+00 0.  1.
         13    1    5    5    0    0  0.43931557685E+02  0.66101542592E+02  0.10288239356E+03  0.12993914960E+03  0.00000000000E+00 0.  1.
        -13    1    5    5    0    0  0.27797914796E+03  0.14606090909E+03  0.26654868436E+03  0.41189124414E+03  0.00000000000E+00 0. -1.
          3    1    6    6  503    0 -0.48000625331E+03 -0.19662128621E+02  0.11136694571E+03  0.49314825268E+03  0.00000000000E+00 0. -1.
         -3    1    6    6    0  503 -0.84232127154E+01  0.14014241488E+02  0.19166429600E+01  0.16462776107E+02  0.00000000000E+00 0.  1.
<mgrwt>
<rscale>  0 0.12195289E+04</rscale>
<asrwt>0</asrwt>
<pdfrwt beam="1">  1        3 0.54660969E-01 0.12195289E+04</pdfrwt>
<pdfrwt beam="2">  1       -3 0.16099789E+00 0.12195289E+04</pdfrwt>
<totfact> 0.22830523E+00</totfact>
</mgrwt>
</event>
<event>
12    3  0.4634846E-008  0.1434135E+04  0.7818608E-02  0.8929474E-01
         -1   -1    0    0    0  501 -0.00000000000E+00  0.00000000000E+00  0.51755757266E+03  0.51755757266E+03  0.00000000000E+00 0.  1.
          1   -1    0    0  501    0  0.00000000000E+00 -0.00000000000E+00 -0.99348564543E+03  0.99348564543E+03  0.00000000000E+00 0. -1.
         23    2    1    2    0    0 -0.13388121565E+03 -0.13249556349E+03 -0.55476744912E+03  0.59257335373E+03  0.88865081459E+02 0.  0.
        254    2    1    2    0    0  0.13388121565E+03  0.13249556349E+03  0.78839376351E+02  0.91846986436E+03  0.89548422109E+03 0.  0.
         23    2    4    4    0    0 -0.32080409189E+03  0.46742745772E+02  0.24778852306E+03  0.41804714695E+03  0.90907179345E+02 0.  0.
         23    2    4    4    0    0  0.45468530754E+03  0.85752817714E+02 -0.16894914671E+03  0.50042271741E+03  0.88242887987E+02 0.  0.
          2    1    3    3  502    0 -0.61090996256E+02 -0.11145448982E+02 -0.23162936046E+03  0.23980928148E+03  0.00000000000E+00 0.  1.
         -2    1    3    3    0  502 -0.72790219395E+02 -0.12135011450E+03 -0.32313808866E+03  0.35276407225E+03  0.00000000000E+00 0. -1.
         13    1    5    5    0    0 -0.17715836969E+03  0.71255169019E+02  0.14293901807E+03  0.23852452694E+03  0.00000000000E+00 0. -1.
        -13    1    5    5    0    0 -0.14364572220E+03 -0.24512423247E+02  0.10484950499E+03  0.17952262001E+03  0.00000000000E+00 0.  1.
          2    1    6    6  503    0  0.27250062718E+03  0.71022288478E+01 -0.96128350388E+02  0.28904617835E+03  0.00000000000E+00 0. -1.
         -2    1    6    6    0  503  0.18218468036E+03  0.78650588866E+02 -0.72820796323E+02  0.21137653906E+03  0.00000000000E+00 0.  1.
<mgrwt>
<rscale>  0 0.14341353E+04</rscale>
<asrwt>0</asrwt>
<pdfrwt beam="1">  1        1 0.15284394E+00 0.14341353E+04</pdfrwt>
<pdfrwt beam="2">  1       -1 0.79624243E-01 0.14341353E+04</pdfrwt>
<totfact> 0.23463949E+01</totfact>
</mgrwt>
</event>
<event>
12    3  0.4634846E-008  0.2242784E+04  0.7818608E-02  0.8500828E-01
         -1   -1    0    0    0  501 -0.00000000000E+00  0.00000000000E+00  0.11460299038E+04  0.11460299038E+04  0.00000000000E+00 0.  1.
          1   -1    0    0  501    0  0.00000000000E+00 -0.00000000000E+00 -0.10972840428E+04  0.10972840428E+04  0.00000000000E+00 0. -1.
         23    2    1    2    0    0 -0.30721314585E+03 -0.18527774145E+03 -0.85094203855E+03  0.92785421932E+03  0.90018558531E+02 0.  0.
        254    2    1    2    0    0  0.30721314585E+03  0.18527774145E+03  0.89968789961E+03  0.13154597272E+04  0.89010573464E+03 0.  0.
         23    2    4    4    0    0 -0.12997622669E+03 -0.20697239896E+03  0.58986859093E+03  0.64517306116E+03  0.92584722541E+02 0.  0.
         23    2    4    4    0    0  0.43718937254E+03  0.39225014041E+03  0.30981930869E+03  0.67028666609E+03  0.91112516087E+02 0.  0.
          1    1    3    3  502    0 -0.24636473365E+03 -0.17001548222E+03 -0.76478762372E+03  0.82128007133E+03  0.00000000000E+00 0. -1.
         -1    1    3    3    0  502 -0.60848412196E+02 -0.15262259230E+02 -0.86154414838E+02  0.10657414799E+03  0.00000000000E+00 0.  1.
         13    1    5    5    0    0 -0.12628992303E+03 -0.13892185930E+03  0.36879542352E+03  0.41383389429E+03  0.00000000000E+00 0. -1.
        -13    1    5    5    0    0 -0.36863036622E+01 -0.68050539658E+02  0.22107316741E+03  0.23133916687E+03  0.00000000000E+00 0.  1.
          2    1    6    6  503    0  0.43265692936E+03  0.39658076422E+03  0.30137275354E+03  0.65976803321E+03  0.00000000000E+00 0. -1.
         -2    1    6    6    0  503  0.45324431842E+01 -0.43306238110E+01  0.84465551439E+01  0.10518632877E+02  0.00000000000E+00 0.  1.
<mgrwt>
<rscale>  0 0.22427843E+04</rscale>
<asrwt>0</asrwt>
<pdfrwt beam="1">  1        1 0.16881293E+00 0.22427843E+04</pdfrwt>
<pdfrwt beam="2">  1       -1 0.17631229E+00 0.22427843E+04</pdfrwt>
<totfact> 0.25605152E+00</totfact>
</mgrwt>
</event>
<event>
12    3  0.4634846E-008  0.1517779E+04  0.7818608E-02  0.8872716E-01
          2   -1    0    0  501    0  0.00000000000E+00  0.00000000000E+00  0.60360556725E+03  0.60360556725E+03  0.00000000000E+00 0. -1.
         -2   -1    0    0    0  501 -0.00000000000E+00 -0.00000000000E+00 -0.95412150265E+03  0.95412150265E+03  0.00000000000E+00 0.  1.
         23    2    1    2    0    0  0.70735656657E+02 -0.28642924417E+03  0.28386237980E+03  0.41944215857E+03  0.91151679536E+02 0.  0.
        254    2    1    2    0    0 -0.70735656657E+02  0.28642924417E+03 -0.63437831519E+03  0.11382849113E+04  0.89789278177E+03 0.  0.
         23    2    4    4    0    0  0.25437378594E+03  0.41130363638E+03 -0.11317669682E+03  0.50499919504E+03  0.91315486204E+02 0.  0.
         23    2    4    4    0    0 -0.32510944259E+03 -0.12487439220E+03 -0.52120161837E+03  0.63328571629E+03  0.90055027499E+02 0.  0.
          4    1    3    3  502    0  0.72508937776E+01 -0.13871014511E+03  0.81727168899E+02  0.16115957915E+03  0.00000000000E+00 0. -1.
         -4    1    3    3    0  502  0.63484762879E+02 -0.14771909907E+03  0.20213521090E+03  0.25828257942E+03  0.00000000000E+00 0.  1.
         13    1    5    5    0    0  0.18717297273E+03  0.35366955487E+03 -0.11536003425E+03  0.41644184860E+03  0.00000000000E+00 0.  1.
        -13    1    5    5    0    0  0.67200813202E+02  0.57634081509E+02  0.21833374315E+01  0.88557346441E+02  0.00000000000E+00 0. -1.
          2    1    6    6  503    0 -0.79594897854E+02 -0.57044205688E+02 -0.20553166488E+03  0.22766785991E+03  0.00000000000E+00 0. -1.
         -2    1    6    6    0  503 -0.24551454474E+03 -0.67830186517E+02 -0.31566995349E+03  0.40561785638E+03  0.00000000000E+00 0.  1.
<mgrwt>
<rscale>  0 0.15177787E+04</rscale>
<asrwt>0</asrwt>
<pdfrwt beam="1">  1        2 0.92862396E-01 0.15177787E+04</pdfrwt>
<pdfrwt beam="2">  1       -2 0.14678792E+00 0.15177787E+04</pdfrwt>
<totfact> 0.15063307E+01</totfact>
</mgrwt>
</event>
<event>
12    3  0.4634846E-008  0.1250316E+04  0.7818608E-02  0.9069920E-01
          1   -1    0    0  501    0  0.00000000000E+00  0.00000000000E+00  0.50069437997E+03  0.50069437997E+03  0.00000000000E+00 0. -1.
         -1   -1    0    0    0  501 -0.00000000000E+00 -0.00000000000E+00 -0.78056098372E+03  0.78056098372E+03  0.00000000000E+00 0.  1.
         23    2    1    2    0    0  0.18735097962E+03  0.16016387693E+03  0.79309702161E+02  0.28737748415E+03  0.12467129782E+03 0.  0.
        254    2    1    2    0    0 -0.18735097962E+03 -0.16016387693E+03 -0.35917630591E+03  0.99387787955E+03  0.89332679557E+03 0.  0.
         23    2    4    4    0    0 -0.66518462798E+01 -0.44620400622E+03  0.46365975077E+02  0.45747803668E+03  0.89409664853E+02 0.  0.
         23    2    4    4    0    0 -0.18069913334E+03  0.28604012930E+03 -0.40554228099E+03  0.53639984287E+03  0.93750292807E+02 0.  0.
          4    1    3    3  502    0  0.10006309461E+03  0.95519944166E+02  0.10746098989E+03  0.17517005162E+03  0.00000000000E+00 0. -1.
         -4    1    3    3    0  502  0.87287885010E+02  0.64643932762E+02 -0.28151287732E+02  0.11220743252E+03  0.00000000000E+00 0.  1.
         13    1    5    5    0    0  0.17321499046E+02 -0.46357626576E+02  0.27165369969E+02  0.56453708439E+02  0.00000000000E+00 0. -1.
        -13    1    5    5    0    0 -0.23973345325E+02 -0.39984637965E+03  0.19200605108E+02  0.40102432824E+03  0.00000000000E+00 0.  1.
          4    1    6    6  503    0 -0.59278270323E+02  0.55052025029E+02 -0.15395380281E+03  0.17391495678E+03  0.00000000000E+00 0. -1.
         -4    1    6    6    0  503 -0.12142086302E+03  0.23098810427E+03 -0.25158847817E+03  0.36248488608E+03  0.00000000000E+00 0.  1.
<mgrwt>
<rscale>  0 0.12503160E+04</rscale>
<asrwt>0</asrwt>
<pdfrwt beam="1">  1        1 0.77029905E-01 0.12503160E+04</pdfrwt>
<pdfrwt beam="2">  1       -1 0.12008631E+00 0.12503160E+04</pdfrwt>
<totfact> 0.26969678E+01</totfact>
</mgrwt>
</event>
<event>
12    3  0.4634846E-008  0.1099755E+04  0.7818608E-02  0.9205431E-01
          3   -1    0    0  501    0  0.00000000000E+00  0.00000000000E+00  0.57789429479E+03  0.57789429479E+03  0.00000000000E+00 0. -1.
         -3   -1    0    0    0  501 -0.00000000000E+00 -0.00000000000E+00 -0.52321892841E+03  0.52321892841E+03  0.00000000000E+00 0.  1.
         23    2    1    2    0    0  0.98621582590E+02 -0.27512664530E+02 -0.26574789496E+03  0.29941212106E+03  0.92425706922E+02 0.  0.
        254    2    1    2    0    0 -0.98621582590E+02  0.27512664530E+02  0.32042326134E+03  0.80170110215E+03  0.72771589753E+03 0.  0.
         23    2    4    4    0    0  0.16045991665E+03  0.26388223105E+03  0.29723214411E+03  0.43850948788E+03  0.92533273791E+02 0.  0.
         23    2    4    4    0    0 -0.25908149924E+03 -0.23636956652E+03  0.23191117234E+02  0.36319161427E+03  0.91523360595E+02 0.  0.
          4    1    3    3  502    0  0.66884941511E+02 -0.54483548300E+02 -0.11973594782E+03  0.14757625024E+03  0.00000000000E+00 0. -1.
         -4    1    3    3    0  502  0.31736641079E+02  0.26970883769E+02 -0.14601194714E+03  0.15183587082E+03  0.00000000000E+00 0.  1.
         13    1    5    5    0    0  0.63357421174E+02  0.32470152539E+02  0.72990172350E+02  0.10196096745E+03  0.00000000000E+00 0. -1.
        -13    1    5    5    0    0  0.97102495471E+02  0.23141207851E+03  0.22424197176E+03  0.33654852043E+03  0.00000000000E+00 0.  1.
          2    1    6    6  503    0 -0.46385570202E+02 -0.21593386765E+02 -0.25260130159E+02  0.57061104534E+02  0.00000000000E+00 0. -1.
         -2    1    6    6    0  503 -0.21269592903E+03 -0.21477617975E+03  0.48451247393E+02  0.30613050973E+03  0.00000000000E+00 0.  1.
<mgrwt>
<rscale>  0 0.10997549E+04</rscale>
<asrwt>0</asrwt>
<pdfrwt beam="1">  1        3 0.88906815E-01 0.10997549E+04</pdfrwt>
<pdfrwt beam="2">  1       -3 0.80495220E-01 0.10997549E+04</pdfrwt>
<totfact> 0.42827664E+00</totfact>
</mgrwt>
</event>
<event>
12    3  0.4634846E-008  0.1689055E+04  0.7818608E-02  0.8767631E-01
          2   -1    0    0  501    0  0.00000000000E+00  0.00000000000E+00  0.64855450921E+03  0.64855450921E+03  0.00000000000E+00 0. -1.
         -2   -1    0    0    0  501 -0.00000000000E+00 -0.00000000000E+00 -0.10997175427E+04  0.10997175427E+04  0.00000000000E+00 0.  1.
         23    2    1    2    0    0 -0.56738597573E+03 -0.86572182230E+02 -0.34529742900E+03  0.67362633832E+03  0.71557955604E+02 0.  0.
        254    2    1    2    0    0  0.56738597573E+03  0.86572182230E+02 -0.10586560450E+03  0.10746457136E+04  0.90234932003E+03 0.  0.
         23    2    4    4    0    0  0.15187790512E+02  0.40418366716E+03  0.34302550906E+02  0.41587522289E+03  0.90445730888E+02 0.  0.
         23    2    4    4    0    0  0.55219818522E+03 -0.31761148493E+03 -0.14016815541E+03  0.65877049071E+03  0.92366425294E+02 0.  0.
          3    1    3    3  502    0 -0.12164855604E+03 -0.31951269279E+02 -0.45842847309E+02  0.13386867238E+03  0.00000000000E+00 0. -1.
         -3    1    3    3    0  502 -0.44573741968E+03 -0.54620912951E+02 -0.29945458169E+03  0.53975766593E+03  0.00000000000E+00 0.  1.
         13    1    5    5    0    0  0.38233284112E+02  0.22024901310E+03 -0.15038816194E+02  0.22404815950E+03  0.00000000000E+00 0.  1.
        -13    1    5    5    0    0 -0.23045493600E+02  0.18393465407E+03  0.49341367100E+02  0.19182706339E+03  0.00000000000E+00 0. -1.
          4    1    6    6  503    0  0.22279327994E+03 -0.77066221882E+02 -0.47164840932E+02  0.24041749179E+03  0.00000000000E+00 0. -1.
         -4    1    6    6    0  503  0.32940490528E+03 -0.24054526305E+03 -0.93003314477E+02  0.41835299892E+03  0.00000000000E+00 0.  1.
<mgrwt>
<rscale>  0 0.16890551E+04</rscale>
<asrwt>0</asrwt>
<pdfrwt beam="1">  1        2 0.99777617E-01 0.16890551E+04</pdfrwt>
<pdfrwt beam="2">  1       -2 0.16918731E+00 0.16890551E+04</pdfrwt>
<totfact> 0.92672760E+00</totfact>
</mgrwt>
</event>
<event>
12    3  0.4634846E-008  0.1785737E+04  0.7818608E-02  0.8713921E-01
          1   -1    0    0  501    0  0.00000000000E+00  0.00000000000E+00  0.12746322225E+04  0.12746322225E+04  0.00000000000E+00 0. -1.
         -1   -1    0    0    0  501 -0.00000000000E+00 -0.00000000000E+00 -0.62544650771E+03  0.62544650771E+03  0.00000000000E+00 0.  1.
         23    2    1    2    0    0  0.62488596347E+02  0.64863544895E+03  0.11755299214E+03  0.66821311049E+03  0.89762379366E+02 0.  0.
        254    2    1    2    0    0 -0.62488596347E+02 -0.64863544895E+03  0.53163272269E+03  0.12318656198E+04  0.90012598176E+03 0.  0.
         23    2    4    4    0    0  0.33964910899E+03 -0.44109879094E+03  0.52413729997E+03  0.77029794817E+03  0.93323947207E+02 0.  0.
         23    2    4    4    0    0 -0.40213770534E+03 -0.20753665802E+03  0.74954227199E+01  0.46156767161E+03  0.90566746871E+02 0.  0.
          1    1    3    3  502    0  0.99078302959E+01  0.39878748773E+02  0.30160134065E+02  0.50971692062E+02  0.00000000000E+00 0. -1.
         -1    1    3    3    0  502  0.52580766051E+02  0.60875670018E+03  0.87392858079E+02  0.61724141842E+03  0.00000000000E+00 0.  1.
         13    1    5    5    0    0  0.28773303468E+03 -0.41754816647E+03  0.47948337009E+03  0.69788328019E+03  0.00000000000E+00 0. -1.
        -13    1    5    5    0    0  0.51916074314E+02 -0.23550624464E+02  0.44653929881E+02  0.72414667980E+02  0.00000000000E+00 0.  1.
          2    1    6    6  503    0 -0.33433675480E+03 -0.13055517638E+03  0.63285802664E+01  0.35897878854E+03  0.00000000000E+00 0. -1.
         -2    1    6    6    0  503 -0.67800950533E+02 -0.76981481640E+02  0.11668424534E+01  0.10258888307E+03  0.00000000000E+00 0.  1.
<mgrwt>
<rscale>  0 0.17857371E+04</rscale>
<asrwt>0</asrwt>
<pdfrwt beam="1">  1        1 0.19609726E+00 0.17857371E+04</pdfrwt>
<pdfrwt beam="2">  1       -1 0.96222540E-01 0.17857371E+04</pdfrwt>
<totfact> 0.92718126E+00</totfact>
</mgrwt>
</event>
<event>
12    3  0.4634846E-008  0.1196061E+04  0.7818608E-02  0.9116312E-01
          1   -1    0    0  501    0  0.00000000000E+00  0.00000000000E+00  0.81157617220E+03  0.81157617220E+03  0.00000000000E+00 0. -1.
         -1   -1    0    0    0  501 -0.00000000000E+00 -0.00000000000E+00 -0.44067361178E+03  0.44067361178E+03  0.00000000000E+00 0.  1.
         23    2    1    2    0    0  0.21084030168E+02 -0.11875653435E+03  0.31639956877E+03  0.35094005992E+03  0.92209477598E+02 0.  0.
        254    2    1    2    0    0 -0.21084030168E+02  0.11875653435E+03  0.54502991646E+02  0.90130972407E+03  0.89153855319E+03 0.  0.
         23    2    4    4    0    0 -0.37293327356E+03 -0.67872591377E+02  0.23426206239E+03  0.45445097122E+03  0.89224750935E+02 0.  0.
         23    2    4    4    0    0  0.35184924339E+03  0.18662912573E+03 -0.17975907075E+03  0.44685875285E+03  0.93493854547E+02 0.  0.
          3    1    3    3  502    0 -0.28737572468E+01 -0.11841464030E+02  0.15725083530E+03  0.15772223671E+03  0.00000000000E+00 0. -1.
         -3    1    3    3    0  502  0.23957787414E+02 -0.10691507032E+03  0.15914873347E+03  0.19321782321E+03  0.00000000000E+00 0.  1.
         13    1    5    5    0    0 -0.45875781635E+02 -0.38828603352E+02  0.25017002714E+02  0.65100677444E+02  0.00000000000E+00 0. -1.
        -13    1    5    5    0    0 -0.32705749192E+03 -0.29043988024E+02  0.20924505968E+03  0.38935029377E+03  0.00000000000E+00 0.  1.
          4    1    6    6  503    0  0.33152748328E+02 -0.99560274608E+01 -0.13440873422E+02  0.37133331157E+02  0.00000000000E+00 0. -1.
         -4    1    6    6    0  503  0.31869649506E+03  0.19658515319E+03 -0.16631819732E+03  0.40972542169E+03  0.00000000000E+00 0.  1.
<mgrwt>
<rscale>  0 0.11960605E+04</rscale>
<asrwt>0</asrwt>
<pdfrwt beam="1">  1        1 0.12485787E+00 0.11960605E+04</pdfrwt>
<pdfrwt beam="2">  1       -1 0.67795941E-01 0.11960605E+04</pdfrwt>
<totfact> 0.47127495E+01</totfact>
</mgrwt>
</event>
<event>
12    3  0.4634846E-008  0.1867371E+04  0.7818608E-02  0.8671271E-01
          2   -1    0    0  501    0  0.00000000000E+00  0.00000000000E+00  0.17497252123E+04  0.17497252123E+04  0.00000000000E+00 0. -1.
         -2   -1    0    0    0  501 -0.00000000000E+00 -0.00000000000E+00 -0.49823168818E+03  0.49823168818E+03  0.00000000000E+00 0.  1.
         23    2    1    2    0    0 -0.50528818057E+03  0.46542958780E+03  0.72555807597E+03  0.10035181344E+04  0.93130434064E+02 0.  0.
        254    2    1    2    0    0  0.50528818057E+03 -0.46542958780E+03  0.52593544812E+03  0.12444387661E+04  0.89447129654E+03 0.  0.
         23    2    4    4    0    0  0.54629199500E+03 -0.38901090306E+03  0.73509612935E+03  0.99896898383E+03  0.88364499532E+02 0.  0.
         23    2    4    4    0    0 -0.41003814430E+02 -0.76418684740E+02 -0.20916068123E+03  0.24546978225E+03  0.94795017018E+02 0.  0.
          3    1    3    3  502    0 -0.20681321751E+03  0.19136607849E+03  0.36508667979E+03  0.46117346703E+03  0.00000000000E+00 0. -1.
         -3    1    3    3    0  502 -0.29847496306E+03  0.27406350931E+03  0.36047139618E+03  0.54234466732E+03  0.00000000000E+00 0.  1.
         13    1    5    5    0    0  0.13173204313E+03 -0.12721118963E+03  0.15946509547E+03  0.24282737619E+03  0.00000000000E+00 0.  1.
        -13    1    5    5    0    0  0.41455995187E+03 -0.26179971343E+03  0.57563103387E+03  0.75614160764E+03  0.00000000000E+00 0. -1.
          3    1    6    6  503    0  0.15796418777E+02 -0.64264469844E+02 -0.79825408980E+02  0.10368965642E+03  0.00000000000E+00 0. -1.
         -3    1    6    6    0  503 -0.56800233207E+02 -0.12154214896E+02 -0.12933527225E+03  0.14178012583E+03  0.00000000000E+00 0.  1.
<mgrwt>
<rscale>  0 0.18673709E+04</rscale>
<asrwt>0</asrwt>
<pdfrwt beam="1">  1        2 0.26918849E+00 0.18673709E+04</pdfrwt>
<pdfrwt beam="2">  1       -2 0.76651030E-01 0.18673709E+04</pdfrwt>
<totfact> 0.13143718E+01</totfact>
</mgrwt>
</event>
<event>
12    3  0.4634846E-008  0.1062418E+04  0.7818608E-02  0.9242616E-01
          1   -1    0    0  501    0  0.00000000000E+00  0.00000000000E+00  0.19455713439E+04  0.19455713439E+04  0.00000000000E+00 0. -1.
         -1   -1    0    0    0  501 -0.00000000000E+00 -0.00000000000E+00 -0.14503867907E+03  0.14503867907E+03  0.00000000000E+00 0.  1.
         23    2    1    2    0    0  0.92022740403E+02  0.21628450043E+02  0.43744770221E+03  0.45693278471E+03  0.92147181015E+02 0.  0.
        254    2    1    2    0    0 -0.92022740403E+02 -0.21628450043E+02  0.13630849627E+04  0.16336772383E+04  0.89552483434E+03 0.  0.
         23    2    4    4    0    0 -0.32859215623E+03 -0.34047452043E+03  0.86917687839E+03  0.99383381899E+03  0.91331865372E+02 0.  0.
         23    2    4    4    0    0  0.23656941583E+03  0.31884607039E+03  0.49390808426E+03  0.63984341931E+03  0.88467510611E+02 0.  0.
          2    1    3    3  502    0 -0.11050814074E+02 -0.18306985121E+02  0.77266359702E+02  0.80170796039E+02  0.00000000000E+00 0. -1.
         -2    1    3    3    0  502  0.10307355448E+03  0.39935435164E+02  0.36018134251E+03  0.37676198867E+03  0.00000000000E+00 0.  1.
         13    1    5    5    0    0 -0.34473664514E+02 -0.83106359956E+02  0.13754518612E+03  0.16435868956E+03  0.00000000000E+00 0.  1.
        -13    1    5    5    0    0 -0.29411849172E+03 -0.25736816047E+03  0.73163169228E+03  0.82947512943E+03  0.00000000000E+00 0. -1.
          4    1    6    6  503    0  0.18110032838E+03  0.18679081259E+03  0.27806332087E+03  0.38079830229E+03  0.00000000000E+00 0. -1.
         -4    1    6    6    0  503  0.55469087442E+02  0.13205525779E+03  0.21584476338E+03  0.25904511702E+03  0.00000000000E+00 0.  1.
<mgrwt>
<rscale>  0 0.10624182E+04</rscale>
<asrwt>0</asrwt>
<pdfrwt beam="1">  1        1 0.29931865E+00 0.10624182E+04</pdfrwt>
<pdfrwt beam="2">  1       -1 0.22313644E-01 0.10624182E+04</pdfrwt>
<totfact> 0.55280014E+01</totfact>
</mgrwt>
</event>
<event>
12    3  0.4634846E-008  0.1808205E+04  0.7818608E-02  0.8701948E-01
         -1   -1    0    0    0  501 -0.00000000000E+00  0.00000000000E+00  0.43594838913E+03  0.43594838913E+03  0.00000000000E+00 0.  1.
          1   -1    0    0  501    0  0.00000000000E+00 -0.00000000000E+00 -0.18749964234E+04  0.18749964234E+04  0.00000000000E+00 0. -1.
         23    2    1    2    0    0  0.26840990570E+03  0.53935193000E+03 -0.15623282270E+03  0.62905470963E+03  0.91415266497E+02 0.  0.
        254    2    1    2    0    0 -0.26840990570E+03 -0.53935193000E+03 -0.12828152116E+04  0.16818901029E+04  0.90564621639E+03 0.  0.
         23    2    4    4    0    0  0.23120722461E+03 -0.51150982560E+03 -0.79269480824E+03  0.97564757399E+03  0.91782608502E+02 0.  0.
         23    2    4    4    0    0 -0.49961713032E+03 -0.27842104401E+02 -0.49012040331E+03  0.70624252888E+03  0.90377210468E+02 0.  0.
          3    1    3    3  502    0  0.18764324434E+03  0.37902474561E+03 -0.15221609967E+03  0.44948802646E+03  0.00000000000E+00 0. -1.
         -3    1    3    3    0  502  0.80766661366E+02  0.16032718439E+03 -0.40167230273E+01  0.17956668317E+03  0.00000000000E+00 0.  1.
         13    1    5    5    0    0  0.11179773939E+01 -0.11759117171E+01  0.26128837527E+01  0.30756793274E+01  0.00000000000E+00 0. -1.
        -13    1    5    5    0    0  0.23008924722E+03 -0.51033391388E+03 -0.79530769200E+03  0.97257189467E+03  0.00000000000E+00 0.  1.
          3    1    6    6  503    0 -0.13853281885E+03 -0.44090903927E+02 -0.16706557379E+03  0.22146389244E+03  0.00000000000E+00 0. -1.
         -3    1    6    6    0  503 -0.36108431146E+03  0.16248799526E+02 -0.32305482952E+03  0.48477863644E+03  0.00000000000E+00 0.  1.
<mgrwt>
<rscale>  0 0.18082054E+04</rscale>
<asrwt>0</asrwt>
<pdfrwt beam="1">  1        1 0.28846099E+00 0.18082054E+04</pdfrwt>
<pdfrwt beam="2">  1       -1 0.67068982E-01 0.18082054E+04</pdfrwt>
<totfact> 0.76933257E+00</totfact>
</mgrwt>
</event>
<event>
12    3  0.4634846E-008  0.2142839E+04  0.7818608E-02  0.8542604E-01
         -2   -1    0    0    0  501 -0.00000000000E+00  0.00000000000E+00  0.60701999267E+03  0.60701999267E+03  0.00000000000E+00 0.  1.
          2   -1    0    0  501    0  0.00000000000E+00 -0.00000000000E+00 -0.18911071421E+04  0.18911071421E+04  0.00000000000E+00 0. -1.
         23    2    1    2    0    0  0.26640630525E+03  0.84282842820E+03 -0.70914279665E+03  0.11367673117E+04  0.89578658910E+02 0.  0.
        254    2    1    2    0    0 -0.26640630525E+03 -0.84282842820E+03 -0.57494435274E+03  0.13613598230E+04  0.86105021925E+03 0.  0.
         23    2    4    4    0    0  0.29047394180E+02 -0.29262914949E+03 -0.65653692554E+03  0.72471548849E+03  0.87728184893E+02 0.  0.
         23    2    4    4    0    0 -0.29545369943E+03 -0.55019927871E+03  0.81592572799E+02  0.63664433450E+03  0.92986697544E+02 0.  0.
          1    1    3    3  502    0  0.98928710769E+01  0.30570542085E+01 -0.73137824328E+01  0.12676982766E+02  0.00000000000E+00 0. -1.
         -1    1    3    3    0  502  0.25651343418E+03  0.83977137399E+03 -0.70182901422E+03  0.11240903290E+04  0.00000000000E+00 0.  1.
         13    1    5    5    0    0 -0.14709564974E+02 -0.22623894209E+03 -0.50599983120E+03  0.55446934937E+03  0.00000000000E+00 0. -1.
        -13    1    5    5    0    0  0.43756959154E+02 -0.66390207398E+02 -0.15053709434E+03  0.17024613912E+03  0.00000000000E+00 0.  1.
          4    1    6    6  503    0 -0.29991313475E+03 -0.54313432303E+03  0.87267178926E+02  0.62654476437E+03  0.00000000000E+00 0. -1.
         -4    1    6    6    0  503  0.44594353169E+01 -0.70649556791E+01 -0.56746061270E+01  0.10099570129E+02  0.00000000000E+00 0.  1.
<mgrwt>
<rscale>  0 0.21428391E+04</rscale>
<asrwt>0</asrwt>
<pdfrwt beam="1">  1        2 0.29093955E+00 0.21428391E+04</pdfrwt>
<pdfrwt beam="2">  1       -2 0.93387693E-01 0.21428391E+04</pdfrwt>
<totfact> 0.68411373E+00</totfact>
</mgrwt>
</event>
<event>
12    3  0.4634846E-008  0.1492016E+04  0.7818608E-02  0.8889779E-01
          2   -1    0    0  501    0  0.00000000000E+00  0.00000000000E+00  0.16009592605E+04  0.16009592605E+04  0.00000000000E+00 0. -1.
         -2   -1    0    0    0  501 -0.00000000000E+00 -0.00000000000E+00 -0.34762168689E+03  0.34762168689E+03  0.00000000000E+00 0.  1.
         23    2    1    2    0    0  0.18465444667E+03 -0.38939830272E+03  0.64999508702E+03  0.78523158359E+03  0.91469797687E+02 0.  0.
        254    2    1    2    0    0 -0.18465444667E+03  0.38939830272E+03  0.60334248659E+03  0.11633493638E+04  0.89645484173E+03 0.  0.
         23    2    4    4    0    0 -0.20244171340E+03 -0.25486643021E+03  0.14696628109E+03  0.36828733035E+03  0.89982916944E+02 0.  0.
         23    2    4    4    0    0  0.17787266733E+02  0.64426473293E+03  0.45637620551E+03  0.79506203344E+03  0.91929120074E+02 0.  0.
          4    1    3    3  502    0  0.15945061987E+03 -0.37562573151E+03  0.62851421958E+03  0.74936594169E+03  0.00000000000E+00 0. -1.
         -4    1    3    3    0  502  0.25203826803E+02 -0.13772571206E+02  0.21480867432E+02  0.35865641898E+02  0.00000000000E+00 0.  1.
         13    1    5    5    0    0 -0.19790806348E+03 -0.19820001585E+03  0.11272172806E+03  0.30192223477E+03  0.00000000000E+00 0.  1.
        -13    1    5    5    0    0 -0.45336499238E+01 -0.56666414361E+02  0.34244553033E+02  0.66365095574E+02  0.00000000000E+00 0. -1.
          4    1    6    6  503    0 -0.35705293428E+02  0.19176589206E+03  0.14835355772E+03  0.24506693662E+03  0.00000000000E+00 0. -1.
         -4    1    6    6    0  503  0.53492560161E+02  0.45249884087E+03  0.30802264778E+03  0.54999509682E+03  0.00000000000E+00 0.  1.
<mgrwt>
<rscale>  0 0.14920163E+04</rscale>
<asrwt>0</asrwt>
<pdfrwt beam="1">  1        2 0.24630142E+00 0.14920163E+04</pdfrwt>
<pdfrwt beam="2">  1       -2 0.53480260E-01 0.14920163E+04</pdfrwt>
<totfact> 0.35476583E+01</totfact>
</mgrwt>
</event>
<event>
12    3  0.4634846E-008  0.1247153E+04  0.7818608E-02  0.9072556E-01
         -2   -1    0    0    0  501 -0.00000000000E+00  0.00000000000E+00  0.22622530670E+03  0.22622530670E+03  0.00000000000E+00 0.  1.
          2   -1    0    0  501    0  0.00000000000E+00 -0.00000000000E+00 -0.17188509619E+04  0.17188509619E+04  0.00000000000E+00 0. -1.
         23    2    1    2    0    0 -0.24135369219E+03  0.18533341830E+03 -0.52402151854E+03  0.61281623675E+03  0.91351559692E+02 0.  0.
        254    2    1    2    0    0  0.24135369219E+03 -0.18533341830E+03 -0.96860413668E+03  0.13322600319E+04  0.86262549130E+03 0.  0.
         23    2    4    4    0    0 -0.11733719995E+03  0.17049423282E+03  0.86633506536E+01  0.22824853090E+03  0.95843811991E+02 0.  0.
         23    2    4    4    0    0  0.35869089215E+03 -0.35582765112E+03 -0.97726748733E+03  0.11040115010E+04  0.92288564084E+02 0.  0.
          1    1    3    3  502    0 -0.18009096031E+03  0.99581905766E+02 -0.40179347618E+03  0.45142807560E+03  0.00000000000E+00 0. -1.
         -1    1    3    3    0  502 -0.61262731882E+02  0.85751512534E+02 -0.12222804236E+03  0.16138816115E+03  0.00000000000E+00 0.  1.
         13    1    5    5    0    0 -0.10946979009E+03  0.15618996428E+03  0.38181548803E+02  0.19451676163E+03  0.00000000000E+00 0.  1.
        -13    1    5    5    0    0 -0.78674098595E+01  0.14304268536E+02 -0.29518198150E+02  0.33731769272E+02  0.00000000000E+00 0. -1.
          2    1    6    6  503    0  0.13526534968E+03 -0.17384995811E+03 -0.34723712039E+03  0.41121057931E+03  0.00000000000E+00 0. -1.
         -2    1    6    6    0  503  0.22342554246E+03 -0.18197769301E+03 -0.63003036695E+03  0.69280092166E+03  0.00000000000E+00 0.  1.
<mgrwt>
<rscale>  0 0.12471529E+04</rscale>
<asrwt>0</asrwt>
<pdfrwt beam="1">  1        2 0.26443861E+00 0.12471529E+04</pdfrwt>
<pdfrwt beam="2">  1       -2 0.34803894E-01 0.12471529E+04</pdfrwt>
<totfact> 0.72911210E+01</totfact>
</mgrwt>
</event>
<event>
12    3  0.4634846E-008  0.1791516E+04  0.7818608E-02  0.8710824E-01
         -2   -1    0    0    0  501 -0.00000000000E+00  0.00000000000E+00  0.49977320049E+03  0.49977320049E+03  0.00000000000E+00 0.  1.
          2   -1    0    0  501    0  0.00000000000E+00 -0.00000000000E+00 -0.16054924880E+04  0.16054924880E+04  0.00000000000E+00 0. -1.
         23    2    1    2    0    0 -0.61573309577E+02  0.15412737723E+03 -0.11664754176E+04  0.11816809636E+04  0.90324299486E+02 0.  0.
        254    2    1    2    0    0  0.61573309577E+02 -0.15412737723E+03  0.60756130030E+02  0.92358472491E+03  0.90651581116E+03 0.  0.
         23    2    4    4    0    0  0.14497515590E+03 -0.13673251297E+03  0.45763300325E+03  0.50740993063E+03  0.91232100191E+02 0.  0.
         23    2    4    4    0    0 -0.83401846323E+02 -0.17394864263E+02 -0.39687687322E+03  0.41617479428E+03  0.91824602504E+02 0.  0.
          4    1    3    3  502    0 -0.10817780562E+02  0.99496452014E+02 -0.87947062574E+03  0.88514696513E+03  0.00000000000E+00 0. -1.
         -4    1    3    3    0  502 -0.50755529014E+02  0.54630925219E+02 -0.28700479182E+03  0.29653399847E+03  0.00000000000E+00 0.  1.
         13    1    5    5    0    0  0.15322288454E+03 -0.12102189036E+03  0.37383239174E+03  0.42175135733E+03  0.00000000000E+00 0. -1.
        -13    1    5    5    0    0 -0.82477286399E+01 -0.15710622605E+02  0.83800611510E+02  0.85658573300E+02  0.00000000000E+00 0.  1.
          2    1    6    6  503    0 -0.48995467733E+02  0.35993703912E+02 -0.21973806416E+03  0.22799324424E+03  0.00000000000E+00 0. -1.
         -2    1    6    6    0  503 -0.34406378589E+02 -0.53388568175E+02 -0.17713880906E+03  0.18818155004E+03  0.00000000000E+00 0.  1.
<mgrwt>
<rscale>  0 0.17915157E+04</rscale>
<asrwt>0</asrwt>
<pdfrwt beam="1">  1        2 0.24699884E+00 0.17915157E+04</pdfrwt>
<pdfrwt beam="2">  1       -2 0.76888186E-01 0.17915157E+04</pdfrwt>
<totfact> 0.15803913E+01</totfact>
</mgrwt>
</event>
<event>
12    3  0.4634846E-008  0.1645724E+04  0.7818608E-02  0.8792940E-01
         -2   -1    0    0    0  501 -0.00000000000E+00  0.00000000000E+00  0.78224961328E+03  0.78224961328E+03  0.00000000000E+00 0.  1.
          2   -1    0    0  501    0  0.00000000000E+00 -0.00000000000E+00 -0.86558274026E+03  0.86558274026E+03  0.00000000000E+00 0. -1.
         23    2    1    2    0    0  0.49709464878E+02  0.39579903837E+03  0.38648288894E+03  0.56265018977E+03  0.89879379901E+02 0.  0.
        254    2    1    2    0    0 -0.49709464878E+02 -0.39579903837E+03 -0.46981601592E+03  0.10851821638E+04  0.89317709895E+03 0.  0.
         23    2    4    4    0    0  0.20433939699E+03 -0.22240469263E+03 -0.64605636875E+03  0.71892309119E+03  0.90791756136E+02 0.  0.
         23    2    4    4    0    0 -0.25404886187E+03 -0.17339434574E+03  0.17624035283E+03  0.36625907258E+03  0.92079438159E+02 0.  0.
          3    1    3    3  502    0  0.41246408262E+02  0.60228202893E+02  0.76453690904E+02  0.10570652521E+03  0.00000000000E+00 0. -1.
         -3    1    3    3    0  502  0.84630566154E+01  0.33557083548E+03  0.31002919804E+03  0.45694366456E+03  0.00000000000E+00 0.  1.
         13    1    5    5    0    0  0.23557561771E+02 -0.28900929530E+01 -0.19019839291E+02  0.30414891755E+02  0.00000000000E+00 0.  1.
        -13    1    5    5    0    0  0.18078183522E+03 -0.21951459968E+03 -0.62703652946E+03  0.68850819944E+03  0.00000000000E+00 0. -1.
          3    1    6    6  503    0 -0.40521124576E+02 -0.75566316948E+02  0.55855074220E+02  0.10233288382E+03  0.00000000000E+00 0. -1.
         -3    1    6    6    0  503 -0.21352773729E+03 -0.97828028793E+02  0.12038527861E+03  0.26392618876E+03  0.00000000000E+00 0.  1.
<mgrwt>
<rscale>  0 0.16457239E+04</rscale>
<asrwt>0</asrwt>
<pdfrwt beam="1">  1        2 0.13316658E+00 0.16457239E+04</pdfrwt>
<pdfrwt beam="2">  1       -2 0.12034609E+00 0.16457239E+04</pdfrwt>
<totfact> 0.15595152E+01</totfact>
</mgrwt>
</event>
<event>
12    3  0.4634846E-008  0.1681145E+04  0.7818608E-02  0.8772192E-01
         -1   -1    0    0    0  501 -0.00000000000E+00  0.00000000000E+00  0.53608326104E+03  0.53608326104E+03  0.00000000000E+00 0.  1.
          1   -1    0    0  501    0  0.00000000000E+00 -0.00000000000E+00 -0.13180081695E+04  0.13180081695E+04  0.00000000000E+00 0. -1.
         23    2    1    2    0    0 -0.37395853818E+02  0.55037537260E+03 -0.37571763575E+01  0.56060894172E+03  0.99783608445E+02 0.  0.
        254    2    1    2    0    0  0.37395853818E+02 -0.55037537260E+03 -0.77816773211E+03  0.12934824888E+04  0.87363632535E+03 0.  0.
         23    2    4    4    0    0 -0.47296182080E+02 -0.20390739282E+03 -0.88069136394E+03  0.90995756729E+03  0.92684098234E+02 0.  0.
         23    2    4    4    0    0  0.84692035898E+02 -0.34646797978E+03  0.10252363183E+03  0.38352492154E+03  0.96785682829E+02 0.  0.
          4    1    3    3  502    0  0.12715960816E+02  0.34344985771E+02  0.19767517050E+02  0.41617645746E+02  0.00000000000E+00 0. -1.
         -4    1    3    3    0  502 -0.50111814634E+02  0.51603038683E+03 -0.23524693408E+02  0.51899129598E+03  0.00000000000E+00 0.  1.
         13    1    5    5    0    0 -0.51812690086E+01 -0.18730109966E+02 -0.17593864328E+02  0.26214626258E+02  0.00000000000E+00 0.  1.
        -13    1    5    5    0    0 -0.42114913071E+02 -0.18517728285E+03 -0.86309749961E+03  0.88374294103E+03  0.00000000000E+00 0. -1.
          2    1    6    6  503    0  0.28525034763E+01 -0.21290879683E+03  0.59467227333E+02  0.22107610380E+03  0.00000000000E+00 0. -1.
         -2    1    6    6    0  503  0.81839532422E+02 -0.13355918295E+03  0.43056404496E+02  0.16244881774E+03  0.00000000000E+00 0.  1.
<mgrwt>
<rscale>  0 0.16811450E+04</rscale>
<asrwt>0</asrwt>
<pdfrwt beam="1">  1        1 0.20277048E+00 0.16811450E+04</pdfrwt>
<pdfrwt beam="2">  1       -1 0.82474349E-01 0.16811450E+04</pdfrwt>
<totfact> 0.12231672E+01</totfact>
</mgrwt>
</event>
<event>
12    3  0.4634846E-008  0.1369274E+04  0.7818608E-02  0.8976365E-01
          2   -1    0    0  501    0  0.00000000000E+00  0.00000000000E+00  0.21259425046E+04  0.21259425046E+04  0.00000000000E+00 0.  1.
         -2   -1    0    0    0  501 -0.00000000000E+00 -0.00000000000E+00 -0.22048002508E+03  0.22048002508E+03  0.00000000000E+00 0. -1.
         23    2    1    2    0    0 -0.55602971597E+01  0.12291346336E+03 -0.73017023842E+02  0.16947556912E+03  0.90839674030E+02 0.  0.
        254    2    1    2    0    0  0.55602971597E+01 -0.12291346336E+03  0.19784795034E+04  0.21769469606E+04  0.89976568477E+03 0.  0.
         23    2    4    4    0    0  0.25241768858E+03 -0.11810602306E+03  0.15427237091E+03  0.33391763765E+03  0.10018633698E+03 0.  0.
         23    2    4    4    0    0 -0.24685739142E+03 -0.48074402992E+01  0.18242071324E+04  0.18430293229E+04  0.89798328589E+02 0.  0.
          1    1    3    3  502    0  0.33299973971E+02  0.67837056577E+02 -0.82873796087E+01  0.76022596458E+02  0.00000000000E+00 0.  1.
         -1    1    3    3    0  502 -0.38860271131E+02  0.55076406780E+02 -0.64729644233E+02  0.93452972658E+02  0.00000000000E+00 0. -1.
         13    1    5    5    0    0  0.23343681420E+03 -0.13586186655E+03  0.13884116505E+03  0.30369073433E+03  0.00000000000E+00 0.  1.
        -13    1    5    5    0    0  0.18980874382E+02  0.17755843488E+02  0.15431205855E+02  0.30226903322E+02  0.00000000000E+00 0. -1.
          1    1    6    6  503    0 -0.81284815246E+02 -0.45147172005E+01  0.93507592570E+03  0.93861312087E+03  0.00000000000E+00 0. -1.
         -1    1    6    6    0  503 -0.16557257618E+03 -0.29272309867E+00  0.88913120675E+03  0.90441620202E+03  0.00000000000E+00 0.  1.
<mgrwt>
<rscale>  0 0.13692741E+04</rscale>
<asrwt>0</asrwt>
<pdfrwt beam="1">  1        2 0.32706806E+00 0.13692741E+04</pdfrwt>
<pdfrwt beam="2">  1       -2 0.33920005E-01 0.13692741E+04</pdfrwt>
<totfact> 0.45143673E+01</totfact>
</mgrwt>
</event>
<event>
12    3  0.4634846E-008  0.4201045E+04  0.7818608E-02  0.7965173E-01
         -2   -1    0    0    0  501 -0.00000000000E+00  0.00000000000E+00  0.16457368869E+04  0.16457368869E+04  0.00000000000E+00 0.  1.
          2   -1    0    0  501    0  0.00000000000E+00 -0.00000000000E+00 -0.26809848508E+04  0.26809848508E+04  0.00000000000E+00 0. -1.
         23    2    1    2    0    0 -0.19987269044E+04  0.74838598250E+02 -0.31318548823E+03  0.20266261962E+04  0.92836064436E+02 0.  0.
        254    2    1    2    0    0  0.19987269044E+04 -0.74838598250E+02 -0.72206247569E+03  0.23000955414E+04  0.87667281617E+03 0.  0.
         23    2    4    4    0    0  0.21741386634E+03 -0.20733338243E+03 -0.35570622819E+03  0.47459231293E+03  0.91951193450E+02 0.  0.
         23    2    4    4    0    0  0.17813130381E+04  0.13249478418E+03 -0.36635624751E+03  0.18255032285E+04  0.87258980415E+02 0.  0.
          1    1    3    3  502    0 -0.29736530150E+02  0.27814654146E+01  0.64625148648E+01  0.30557517465E+02  0.00000000000E+00 0. -1.
         -1    1    3    3    0  502 -0.19689903743E+04  0.72057132835E+02 -0.31964800310E+03  0.19960686788E+04  0.00000000000E+00 0.  1.
         13    1    5    5    0    0  0.15177144976E+03 -0.81544973290E+02 -0.19360184910E+03  0.25916371583E+03  0.00000000000E+00 0. -1.
        -13    1    5    5    0    0  0.65642416586E+02 -0.12578840914E+03 -0.16210437909E+03  0.21542859710E+03  0.00000000000E+00 0.  1.
          2    1    6    6  503    0  0.31997438598E+03  0.32461514714E+01 -0.92774809191E+02  0.33316859156E+03  0.00000000000E+00 0.  1.
         -2    1    6    6    0  503  0.14613386521E+04  0.12924863271E+03 -0.27358143832E+03  0.14923346369E+04  0.00000000000E+00 0. -1.
<mgrwt>
<rscale>  0 0.42010454E+04</rscale>
<asrwt>0</asrwt>
<pdfrwt beam="1">  1        2 0.41245921E+00 0.42010454E+04</pdfrwt>
<pdfrwt beam="2">  1       -2 0.25319029E+00 0.42010454E+04</pdfrwt>
<totfact> 0.12993471E-01</totfact>
</mgrwt>
</event>
<event>
12    3  0.4634846E-008  0.2114797E+04  0.7818608E-02  0.8554753E-01
         -1   -1    0    0    0  501 -0.00000000000E+00  0.00000000000E+00  0.72828133100E+03  0.72828133100E+03  0.00000000000E+00 0.  1.
          1   -1    0    0  501    0  0.00000000000E+00 -0.00000000000E+00 -0.15352466507E+04  0.15352466507E+04  0.00000000000E+00 0. -1.
         23    2    1    2    0    0 -0.67313652868E+03 -0.15783633324E+03  0.21719682713E+03  0.73152437698E+03  0.99641146429E+02 0.  0.
        254    2    1    2    0    0  0.67313652868E+03  0.15783633324E+03 -0.10241621469E+04  0.15320036047E+04  0.90559474797E+03 0.  0.
         23    2    4    4    0    0  0.58391106354E+03  0.22449435530E+03 -0.15603268730E+03  0.65193902511E+03  0.96583887191E+02 0.  0.
         23    2    4    4    0    0  0.89225465141E+02 -0.66658022055E+02 -0.86812945957E+03  0.88006457964E+03  0.91980597071E+02 0.  0.
          4    1    3    3  502    0 -0.11542352742E+03 -0.64152831873E+02  0.56303669272E+02  0.14355584173E+03  0.00000000000E+00 0. -1.
         -4    1    3    3    0  502 -0.55771300126E+03 -0.93683501368E+02  0.16089315786E+03  0.58796853525E+03  0.00000000000E+00 0.  1.
         13    1    5    5    0    0  0.49623244513E+03  0.16100881870E+03 -0.10455796724E+03  0.53207409993E+03  0.00000000000E+00 0. -1.
        -13    1    5    5    0    0  0.87678618410E+02  0.63485536596E+02 -0.51474720054E+02  0.11986492518E+03  0.00000000000E+00 0.  1.
          2    1    6    6  503    0  0.10342704641E+03 -0.72560946644E+02 -0.81568513209E+03  0.82541170311E+03  0.00000000000E+00 0. -1.
         -2    1    6    6    0  503 -0.14201581273E+02  0.59029245880E+01 -0.52444327473E+02  0.54652876534E+02  0.00000000000E+00 0.  1.
<mgrwt>
<rscale>  0 0.21147969E+04</rscale>
<asrwt>0</asrwt>
<pdfrwt beam="1">  1        1 0.23619179E+00 0.21147969E+04</pdfrwt>
<pdfrwt beam="2">  1       -1 0.11204328E+00 0.21147969E+04</pdfrwt>
<totfact> 0.41493786E+00</totfact>
</mgrwt>
</event>
<event>
12    3  0.4634846E-008  0.1900987E+04  0.7818608E-02  0.8654365E-01
          2   -1    0    0  501    0  0.00000000000E+00  0.00000000000E+00  0.10073821499E+04  0.10073821499E+04  0.00000000000E+00 0. -1.
         -2   -1    0    0    0  501 -0.00000000000E+00 -0.00000000000E+00 -0.89681721820E+03  0.89681721820E+03  0.00000000000E+00 0.  1.
         23    2    1    2    0    0  0.51324478989E+03  0.28108241296E+03 -0.39749100904E+03  0.71330319367E+03  0.91513969461E+02 0.  0.
        254    2    1    2    0    0 -0.51324478989E+03 -0.28108241296E+03  0.50805594069E+03  0.11908961744E+04  0.90425954354E+03 0.  0.
         23    2    4    4    0    0 -0.59443563082E+03 -0.19847032564E+03  0.70244190911E+03  0.94571608716E+03  0.90609560705E+02 0.  0.
         23    2    4    4    0    0  0.81190840931E+02 -0.82612087319E+02 -0.19438596842E+03  0.24518008723E+03  0.94396296721E+02 0.  0.
          4    1    3    3  502    0  0.25071737377E+03  0.17036371646E+03 -0.24740760083E+03  0.39127166821E+03  0.00000000000E+00 0.  1.
         -4    1    3    3    0  502  0.26252741612E+03  0.11071869650E+03 -0.15008340821E+03  0.32203152546E+03  0.00000000000E+00 0. -1.
         13    1    5    5    0    0 -0.10022482677E+03 -0.70871187542E+02  0.14048636172E+03  0.18655872789E+03  0.00000000000E+00 0.  1.
        -13    1    5    5    0    0 -0.49421080405E+03 -0.12759913810E+03  0.56195554739E+03  0.75915735926E+03  0.00000000000E+00 0. -1.
          2    1    6    6  503    0  0.34491642624E+02 -0.74452241210E+02 -0.57171212067E+02  0.10000678538E+03  0.00000000000E+00 0. -1.
         -2    1    6    6    0  503  0.46699198307E+02 -0.81598461093E+01 -0.13721475635E+03  0.14517330186E+03  0.00000000000E+00 0.  1.
<mgrwt>
<rscale>  0 0.19009868E+04</rscale>
<asrwt>0</asrwt>
<pdfrwt beam="1">  1        2 0.15498187E+00 0.19009868E+04</pdfrwt>
<pdfrwt beam="2">  1       -2 0.13797188E+00 0.19009868E+04</pdfrwt>
<totfact> 0.87032912E+00</totfact>
</mgrwt>
</event>
<event>
12    3  0.4634846E-008  0.1602084E+04  0.7818608E-02  0.8819269E-01
         -2   -1    0    0    0  501 -0.00000000000E+00  0.00000000000E+00  0.28331580295E+03  0.28331580295E+03  0.00000000000E+00 0. -1.
          2   -1    0    0  501    0  0.00000000000E+00 -0.00000000000E+00 -0.22648527032E+04  0.22648527032E+04  0.00000000000E+00 0.  1.
         23    2    1    2    0    0  0.19333131087E+03 -0.16962937073E+03  0.82469327855E+02  0.28548670844E+03  0.92468110611E+02 0.  0.
        254    2    1    2    0    0 -0.19333131087E+03  0.16962937073E+03 -0.20640062281E+04  0.22626817977E+04  0.89076152186E+03 0.  0.
         23    2    4    4    0    0  0.23055109978E+03  0.28538951124E+03 -0.14718490346E+04  0.15196209989E+04  0.91145031415E+02 0.  0.
         23    2    4    4    0    0 -0.42388241065E+03 -0.11576014050E+03 -0.59215719344E+03  0.74306079879E+03  0.91719685851E+02 0.  0.
          1    1    3    3  502    0  0.64812902691E+02 -0.66287479701E+02  0.76946904208E+02  0.12048057266E+03  0.00000000000E+00 0. -1.
         -1    1    3    3    0  502  0.12851840817E+03 -0.10334189103E+03  0.55224236471E+01  0.16500613578E+03  0.00000000000E+00 0.  1.
         13    1    5    5    0    0  0.65723882190E+01  0.56048300319E+02 -0.18299291036E+03  0.19149677151E+03  0.00000000000E+00 0.  1.
        -13    1    5    5    0    0  0.22397871156E+03  0.22934121092E+03 -0.12888561243E+04  0.13281242274E+04  0.00000000000E+00 0. -1.
          1    1    6    6  503    0 -0.30651238258E+03 -0.12473057283E+03 -0.44741017613E+03  0.55649206839E+03  0.00000000000E+00 0. -1.
         -1    1    6    6    0  503 -0.11737002807E+03  0.89704323246E+01 -0.14474701731E+03  0.18656873040E+03  0.00000000000E+00 0.  1.
<mgrwt>
<rscale>  0 0.16020843E+04</rscale>
<asrwt>0</asrwt>
<pdfrwt beam="1">  1        2 0.34843887E+00 0.16020843E+04</pdfrwt>
<pdfrwt beam="2">  1       -2 0.43587047E-01 0.16020843E+04</pdfrwt>
<totfact> 0.22736911E+01</totfact>
</mgrwt>
</event>
<event>
12    3  0.4634846E-008  0.1960809E+04  0.7818608E-02  0.8625166E-01
         -1   -1    0    0    0  501 -0.00000000000E+00  0.00000000000E+00  0.80357281694E+03  0.80357281694E+03  0.00000000000E+00 0. -1.
          1   -1    0    0  501    0  0.00000000000E+00 -0.00000000000E+00 -0.11961496747E+04  0.11961496747E+04  0.00000000000E+00 0.  1.
         23    2    1    2    0    0  0.11430129374E+03  0.25534754475E+03 -0.89065761316E+03  0.93637928132E+03  0.72581128680E+02 0.  0.
        254    2    1    2    0    0 -0.11430129374E+03 -0.25534754475E+03  0.49808075537E+03  0.10633432103E+04  0.89685405154E+03 0.  0.
         23    2    4    4    0    0  0.20545106170E+03 -0.16331005343E+03  0.63323862733E+03  0.69152193982E+03  0.91274979079E+02 0.  0.
         23    2    4    4    0    0 -0.31975235544E+03 -0.92037491320E+02 -0.13515787196E+03  0.37182127053E+03  0.96285711541E+02 0.  0.
          4    1    3    3  502    0  0.10646979815E+03  0.25680682107E+03 -0.83279830340E+03  0.87797413140E+03  0.00000000000E+00 0.  1.
         -4    1    3    3    0  502  0.78314955955E+01 -0.14592763230E+01 -0.57859309765E+02  0.58405149919E+02  0.00000000000E+00 0. -1.
         13    1    5    5    0    0 -0.19326922867E+01  0.33656809625E+01 -0.76355181700E+00  0.39555175633E+01  0.00000000000E+00 0. -1.
        -13    1    5    5    0    0  0.20738375398E+03 -0.16667573439E+03  0.63400217915E+03  0.68756642226E+03  0.00000000000E+00 0.  1.
          1    1    6    6  503    0 -0.16798321165E+03 -0.27559678017E+02 -0.11559513776E+03  0.20576717698E+03  0.00000000000E+00 0. -1.
         -1    1    6    6    0  503 -0.15176914379E+03 -0.64477813303E+02 -0.19562734202E+02  0.16605409355E+03  0.00000000000E+00 0.  1.
<mgrwt>
<rscale>  0 0.19608094E+04</rscale>
<asrwt>0</asrwt>
<pdfrwt beam="1">  1        1 0.18402303E+00 0.19608094E+04</pdfrwt>
<pdfrwt beam="2">  1       -1 0.12362659E+00 0.19608094E+04</pdfrwt>
<totfact> 0.57589419E+00</totfact>
</mgrwt>
</event>
<event>
12    3  0.4634846E-008  0.1398565E+04  0.7818608E-02  0.8954858E-01
          1   -1    0    0  501    0  0.00000000000E+00  0.00000000000E+00  0.24830394627E+03  0.24830394627E+03  0.00000000000E+00 0. -1.
         -1   -1    0    0    0  501 -0.00000000000E+00 -0.00000000000E+00 -0.19693458357E+04  0.19693458357E+04  0.00000000000E+00 0.  1.
         23    2    1    2    0    0  0.67199108703E+02  0.32325384655E+02  0.11934931816E+03  0.16750401001E+03  0.90844278430E+02 0.  0.
        254    2    1    2    0    0 -0.67199108703E+02 -0.32325384655E+02 -0.18403912076E+04  0.20501457720E+04  0.90027620131E+03 0.  0.
         23    2    4    4    0    0  0.86435422750E+02 -0.21965757615E+03 -0.72214077950E+02  0.26294720549E+03  0.90586018544E+02 0.  0.
         23    2    4    4    0    0 -0.15363453145E+03  0.18733219149E+03 -0.17681771297E+04  0.17871985665E+04  0.94506269692E+02 0.  0.
          2    1    3    3  502    0  0.89099277177E+02  0.17245975753E+02  0.88238191712E+02  0.12657836841E+03  0.00000000000E+00 0. -1.
         -2    1    3    3    0  502 -0.21900168475E+02  0.15079408902E+02  0.31111126443E+02  0.40925641603E+02  0.00000000000E+00 0.  1.
         13    1    5    5    0    0  0.74964777890E+02 -0.22566542876E+03 -0.75678070069E+02  0.24954313044E+03  0.00000000000E+00 0.  1.
        -13    1    5    5    0    0  0.11470644860E+02  0.60078526110E+01  0.34639921193E+01  0.13404075049E+02  0.00000000000E+00 0. -1.
          3    1    6    6  503    0 -0.43747394604E+02  0.31350508562E+02 -0.70379997911E+03  0.70585487142E+03  0.00000000000E+00 0. -1.
         -3    1    6    6    0  503 -0.10988713685E+03  0.15598168293E+03 -0.10643771506E+04  0.10813436951E+04  0.00000000000E+00 0.  1.
<mgrwt>
<rscale>  0 0.13985655E+04</rscale>
<asrwt>0</asrwt>
<pdfrwt beam="1">  1        1 0.38200609E-01 0.13985655E+04</pdfrwt>
<pdfrwt beam="2">  1       -1 0.30297627E+00 0.13985655E+04</pdfrwt>
<totfact> 0.34690445E+00</totfact>
</mgrwt>
</event>
<event>
12    3  0.4634846E-008  0.2956203E+04  0.7818608E-02  0.8256349E-01
          2   -1    0    0  501    0  0.00000000000E+00  0.00000000000E+00  0.32214642463E+04  0.32214642463E+04  0.00000000000E+00 0. -1.
         -2   -1    0    0    0  501 -0.00000000000E+00 -0.00000000000E+00 -0.67819594608E+03  0.67819594608E+03  0.00000000000E+00 0.  1.
         23    2    1    2    0    0  0.22413636786E+03  0.54152313100E+03 -0.44867369298E+03  0.74367845157E+03  0.90912836043E+02 0.  0.
        254    2    1    2    0    0 -0.22413636786E+03 -0.54152313100E+03  0.29919419932E+04  0.31559817408E+04  0.81548724381E+03 0.  0.
         23    2    4    4    0    0 -0.89135487972E+02 -0.73307613305E+03  0.24119780938E+04  0.25239501104E+04  0.85674281383E+02 0.  0.
         23    2    4    4    0    0 -0.13500087988E+03  0.19155300205E+03  0.57996389937E+03  0.63203163043E+03  0.90487939117E+02 0.  0.
          1    1    3    3  502    0  0.85027633045E+02  0.28315346323E+03 -0.26828893220E+03  0.39922992531E+03  0.00000000000E+00 0. -1.
         -1    1    3    3    0  502  0.13910873481E+03  0.25836966777E+03 -0.18038476078E+03  0.34444852627E+03  0.00000000000E+00 0.  1.
         13    1    5    5    0    0 -0.30912302412E+02 -0.76489957032E+02  0.21788977146E+03  0.23298548554E+03  0.00000000000E+00 0. -1.
        -13    1    5    5    0    0 -0.58223185560E+02 -0.65658617602E+03  0.21940883224E+04  0.22909646248E+04  0.00000000000E+00 0.  1.
          3    1    6    6  503    0 -0.10340367053E+03  0.97022902532E+02  0.25079917594E+03  0.28810760030E+03  0.00000000000E+00 0. -1.
         -3    1    6    6    0  503 -0.31597209355E+02  0.94530099519E+02  0.32916472343E+03  0.34392403013E+03  0.00000000000E+00 0.  1.
<mgrwt>
<rscale>  0 0.29562030E+04</rscale>
<asrwt>0</asrwt>
<pdfrwt beam="1">  1        2 0.49560988E+00 0.29562030E+04</pdfrwt>
<pdfrwt beam="2">  1       -2 0.10433784E+00 0.29562030E+04</pdfrwt>
<totfact> 0.80444858E-01</totfact>
</mgrwt>
</event>
<event>
12    3  0.4634846E-008  0.1141204E+04  0.7818608E-02  0.9165937E-01
          1   -1    0    0  501    0  0.00000000000E+00  0.00000000000E+00  0.16203863356E+04  0.16203863356E+04  0.00000000000E+00 0. -1.
         -1   -1    0    0    0  501 -0.00000000000E+00 -0.00000000000E+00 -0.20093156150E+03  0.20093156150E+03  0.00000000000E+00 0.  1.
         23    2    1    2    0    0  0.21710009296E+02  0.20243222335E+03  0.17873125082E+03  0.28493140079E+03  0.88266151959E+02 0.  0.
        254    2    1    2    0    0 -0.21710009296E+02 -0.20243222335E+03  0.12407235233E+04  0.15363864963E+04  0.88297138983E+03 0.  0.
         23    2    4    4    0    0 -0.25550350598E+03 -0.45601057241E+03  0.58356363215E+03  0.78860808877E+03  0.90158311782E+02 0.  0.
         23    2    4    4    0    0  0.23379349669E+03  0.25357834906E+03  0.65715989113E+03  0.74777840754E+03  0.91389529299E+02 0.  0.
          1    1    3    3  502    0  0.13777989834E+02  0.12346219635E+03  0.50447778611E+02  0.13408104004E+03  0.00000000000E+00 0. -1.
         -1    1    3    3    0  502  0.79320194616E+01  0.78970027010E+02  0.12828347221E+03  0.15085036075E+03  0.00000000000E+00 0.  1.
         13    1    5    5    0    0 -0.21131241371E+02 -0.52493262655E+01  0.32116218232E+02  0.38801240465E+02  0.00000000000E+00 0.  1.
        -13    1    5    5    0    0 -0.23437226461E+03 -0.45076124615E+03  0.55144741392E+03  0.74980684831E+03  0.00000000000E+00 0. -1.
          1    1    6    6  503    0  0.21235619379E+03  0.25067668191E+03  0.64256943248E+03  0.72168513040E+03  0.00000000000E+00 0. -1.
         -1    1    6    6    0  503  0.21437302899E+02  0.29016671486E+01  0.14590458652E+02  0.26093277132E+02  0.00000000000E+00 0.  1.
<mgrwt>
<rscale>  0 0.11412042E+04</rscale>
<asrwt>0</asrwt>
<pdfrwt beam="1">  1        1 0.24929020E+00 0.11412042E+04</pdfrwt>
<pdfrwt beam="2">  1       -1 0.30912549E-01 0.11412042E+04</pdfrwt>
<totfact> 0.51979577E+01</totfact>
</mgrwt>
</event>
<event>
12    3  0.4634846E-008  0.1912082E+04  0.7818608E-02  0.8648866E-01
          2   -1    0    0  501    0  0.00000000000E+00  0.00000000000E+00  0.27453190052E+04  0.27453190052E+04  0.00000000000E+00 0. -1.
         -2   -1    0    0    0  501 -0.00000000000E+00 -0.00000000000E+00 -0.33293559632E+03  0.33293559632E+03  0.00000000000E+00 0.  1.
         23    2    1    2    0    0  0.54541148021E+02 -0.47168347130E+03  0.28262906765E+02  0.48403637150E+03  0.89623563394E+02 0.  0.
        254    2    1    2    0    0 -0.54541148021E+02  0.47168347130E+03  0.23841205021E+04  0.25942182300E+04  0.90580219830E+03 0.  0.
         23    2    4    4    0    0  0.27451742864E+03  0.36192801610E+03  0.20560625691E+04  0.21076411424E+04  0.91685275952E+02 0.  0.
         23    2    4    4    0    0 -0.32905857666E+03  0.10975545520E+03  0.32805793303E+03  0.48657708758E+03  0.93858659244E+02 0.  0.
          1    1    3    3  502    0 -0.50102146337E+01 -0.24157681760E+03  0.44908159438E+02  0.24576656371E+03  0.00000000000E+00 0. -1.
         -1    1    3    3    0  502  0.59551362654E+02 -0.23010665369E+03 -0.16645252674E+02  0.23826980779E+03  0.00000000000E+00 0.  1.
         13    1    5    5    0    0  0.28042286335E+03  0.34839758571E+03  0.19548064928E+04  0.20053145101E+04  0.00000000000E+00 0.  1.
        -13    1    5    5    0    0 -0.59054347109E+01  0.13530430382E+02  0.10125607630E+03  0.10232663237E+03  0.00000000000E+00 0. -1.
          2    1    6    6  503    0 -0.15833513489E+02  0.32966606326E+02  0.27782879324E+02  0.45928048789E+02  0.00000000000E+00 0. -1.
         -2    1    6    6    0  503 -0.31322506318E+03  0.76788848875E+02  0.30027505370E+03  0.44064903879E+03  0.00000000000E+00 0.  1.
<mgrwt>
<rscale>  0 0.19120820E+04</rscale>
<asrwt>0</asrwt>
<pdfrwt beam="1">  1        2 0.42235676E+00 0.19120820E+04</pdfrwt>
<pdfrwt beam="2">  1       -2 0.51220863E-01 0.19120820E+04</pdfrwt>
<totfact> 0.84219501E+00</totfact>
</mgrwt>
</event>
<event>
12    3  0.4634846E-008  0.1788829E+04  0.7818608E-02  0.8712263E-01
          2   -1    0    0  501    0  0.00000000000E+00  0.00000000000E+00  0.71779883176E+03  0.71779883176E+03  0.00000000000E+00 0. -1.
         -2   -1    0    0    0  501 -0.00000000000E+00 -0.00000000000E+00 -0.11144867178E+04  0.11144867178E+04  0.00000000000E+00 0.  1.
         23    2    1    2    0    0 -0.53411991730E+03  0.13630993675E+03  0.22061121809E+03  0.60084987621E+03  0.92123717258E+02 0.  0.
        254    2    1    2    0    0  0.53411991730E+03 -0.13630993675E+03 -0.61729910410E+03  0.12314356733E+04  0.91187233135E+03 0.  0.
         23    2    4    4    0    0 -0.11548055430E+03  0.25326263207E+03 -0.24722842210E+03  0.38346836212E+03  0.91915030490E+02 0.  0.
         23    2    4    4    0    0  0.64960047160E+03 -0.38957256881E+03 -0.37007068200E+03  0.84796731120E+03  0.91371177712E+02 0.  0.
          3    1    3    3  502    0 -0.44818483747E+03  0.13677270708E+03  0.21253074620E+03  0.51453448865E+03  0.00000000000E+00 0. -1.
         -3    1    3    3    0  502 -0.85935079837E+02 -0.46277033418E+00  0.80804718898E+01  0.86315387556E+02  0.00000000000E+00 0.  1.
         13    1    5    5    0    0 -0.11801818641E+03  0.25216253255E+03 -0.21668057206E+03  0.35279555759E+03  0.00000000000E+00 0.  1.
        -13    1    5    5    0    0  0.25376321091E+01  0.11000995134E+01 -0.30547850040E+02  0.30672804530E+02  0.00000000000E+00 0. -1.
          1    1    6    6  503    0  0.20853740970E+03 -0.13007347067E+03 -0.73642229073E+02  0.25657384302E+03  0.00000000000E+00 0. -1.
         -1    1    6    6    0  503  0.44106306190E+03 -0.25949909814E+03 -0.29642845293E+03  0.59139346818E+03  0.00000000000E+00 0.  1.
<mgrwt>
<rscale>  0 0.17888290E+04</rscale>
<asrwt>0</asrwt>
<pdfrwt beam="1">  1        2 0.11043059E+00 0.17888290E+04</pdfrwt>
<pdfrwt beam="2">  1       -2 0.17145949E+00 0.17888290E+04</pdfrwt>
<totfact> 0.77981471E+00</totfact>
</mgrwt>
</event>
<event>
12    3  0.4634846E-008  0.1493136E+04  0.7818608E-02  0.8889030E-01
         -1   -1    0    0    0  501 -0.00000000000E+00  0.00000000000E+00  0.84948592114E+03  0.84948592114E+03  0.00000000000E+00 0.  1.
          1   -1    0    0  501    0  0.00000000000E+00 -0.00000000000E+00 -0.65611883675E+03  0.65611883675E+03  0.00000000000E+00 0. -1.
         23    2    1    2    0    0 -0.39667479873E+03 -0.10863247050E+03  0.28532078454E+03  0.50906718035E+03  0.92679741182E+02 0.  0.
        254    2    1    2    0    0  0.39667479873E+03  0.10863247050E+03 -0.91953700151E+02  0.99653757754E+03  0.90303917461E+03 0.  0.
         23    2    4    4    0    0  0.30818971948E+03  0.44626795708E+03 -0.24871521009E+03  0.60362168584E+03  0.91454311949E+02 0.  0.
         23    2    4    4    0    0  0.88485079252E+02 -0.33763548659E+03  0.15676150994E+03  0.39291589170E+03  0.89338658493E+02 0.  0.
          4    1    3    3  502    0 -0.57488476623E+02 -0.40646417911E+02  0.80911821182E+02  0.10725567137E+03  0.00000000000E+00 0. -1.
         -4    1    3    3    0  502 -0.33918632210E+03 -0.67986052586E+02  0.20440896336E+03  0.40181150898E+03  0.00000000000E+00 0.  1.
         13    1    5    5    0    0  0.20321057147E+03  0.28823800847E+03 -0.11290658766E+03  0.37030201650E+03  0.00000000000E+00 0.  1.
        -13    1    5    5    0    0  0.10497914800E+03  0.15802994861E+03 -0.13580862244E+03  0.23331966934E+03  0.00000000000E+00 0. -1.
          1    1    6    6  503    0  0.16993152457E+02 -0.98865437728E+02  0.90281555173E+02  0.13495888712E+03  0.00000000000E+00 0. -1.
         -1    1    6    6    0  503  0.71491926794E+02 -0.23877004886E+03  0.66479954767E+02  0.25795700458E+03  0.00000000000E+00 0.  1.
<mgrwt>
<rscale>  0 0.14931359E+04</rscale>
<asrwt>0</asrwt>
<pdfrwt beam="1">  1        1 0.10094136E+00 0.14931359E+04</pdfrwt>
<pdfrwt beam="2">  1       -1 0.13069014E+00 0.14931359E+04</pdfrwt>
<totfact> 0.14550143E+01</totfact>
</mgrwt>
</event>
<event>
12    3  0.4634846E-008  0.2618089E+04  0.7818608E-02  0.8362083E-01
          2   -1    0    0  501    0  0.00000000000E+00  0.00000000000E+00  0.13646893740E+04  0.13646893740E+04  0.00000000000E+00 0. -1.
         -2   -1    0    0    0  501 -0.00000000000E+00 -0.00000000000E+00 -0.12556685807E+04  0.12556685807E+04  0.00000000000E+00 0.  1.
         23    2    1    2    0    0  0.31152265969E+03  0.81627486894E+03 -0.72305401853E+03  0.11379161129E+04  0.93246646824E+02 0.  0.
        254    2    1    2    0    0 -0.31152265969E+03 -0.81627486894E+03  0.83207481181E+03  0.14824418418E+04  0.86135607769E+03 0.  0.
         23    2    4    4    0    0 -0.40697276265E+03 -0.89401113465E+03  0.87952340529E+03  0.13213508029E+04  0.86739756414E+02 0.  0.
         23    2    4    4    0    0  0.95450102968E+02  0.77736265704E+02 -0.47448593479E+02  0.16109103890E+03  0.92440816899E+02 0.  0.
          4    1    3    3  502    0  0.11340095719E+03  0.30809471463E+03 -0.21439990943E+03  0.39210897904E+03  0.00000000000E+00 0. -1.
         -4    1    3    3    0  502  0.19812170249E+03  0.50818015431E+03 -0.50865410911E+03  0.74580713388E+03  0.00000000000E+00 0.  1.
         13    1    5    5    0    0 -0.10551465326E+03 -0.30553778617E+03  0.32539523317E+03  0.45865971984E+03  0.00000000000E+00 0. -1.
        -13    1    5    5    0    0 -0.30145810939E+03 -0.58847334847E+03  0.55412817212E+03  0.86269108302E+03  0.00000000000E+00 0.  1.
          4    1    6    6  503    0  0.88661340713E+02  0.50634379427E+02 -0.71155004345E+02  0.12444962178E+03  0.00000000000E+00 0. -1.
         -4    1    6    6    0  503  0.67887622543E+01  0.27101886277E+02  0.23706410866E+02  0.36641417124E+02  0.00000000000E+00 0.  1.
<mgrwt>
<rscale>  0 0.26180891E+04</rscale>
<asrwt>0</asrwt>
<pdfrwt beam="1">  1        2 0.20995221E+00 0.26180891E+04</pdfrwt>
<pdfrwt beam="2">  1       -2 0.19317978E+00 0.26180891E+04</pdfrwt>
<totfact> 0.19766801E+00</totfact>
</mgrwt>
</event>
<event>
12    3  0.4634846E-008  0.2212640E+04  0.7818608E-02  0.8513185E-01
          1   -1    0    0  501    0  0.00000000000E+00  0.00000000000E+00  0.18768709755E+04  0.18768709755E+04  0.00000000000E+00 0. -1.
         -1   -1    0    0    0  501 -0.00000000000E+00 -0.00000000000E+00 -0.65211956358E+03  0.65211956358E+03  0.00000000000E+00 0.  1.
         23    2    1    2    0    0 -0.37574315422E+03  0.49437380251E+03  0.12822490356E+04  0.14272124202E+04  0.84760419862E+02 0.  0.
        254    2    1    2    0    0  0.37574315422E+03 -0.49437380251E+03 -0.57497623599E+02  0.11017781189E+04  0.90830648569E+03 0.  0.
         23    2    4    4    0    0  0.28253038810E+03  0.11130963984E+03  0.25575123006E+03  0.40742921649E+03  0.91523869274E+02 0.  0.
         23    2    4    4    0    0  0.93212766116E+02 -0.60568344235E+03 -0.31324885366E+03  0.69434890238E+03  0.91948364961E+02 0.  0.
          4    1    3    3  502    0 -0.11272430827E+03  0.11569382388E+03  0.26492396759E+03  0.31028460994E+03  0.00000000000E+00 0.  1.
         -4    1    3    3    0  502 -0.26301884595E+03  0.37867997863E+03  0.10173250680E+04  0.11169278103E+04  0.00000000000E+00 0. -1.
         13    1    5    5    0    0  0.17598578176E+03  0.10848481210E+03  0.19775734322E+03  0.28609074896E+03  0.00000000000E+00 0. -1.
        -13    1    5    5    0    0  0.10654460634E+03  0.28248277325E+01  0.57993886840E+02  0.12133846753E+03  0.00000000000E+00 0.  1.
          3    1    6    6  503    0 -0.68835634354E+01 -0.19517668224E+02 -0.28008056651E+02  0.34824905683E+02  0.00000000000E+00 0. -1.
         -3    1    6    6    0  503  0.10009632955E+03 -0.58616577412E+03 -0.28524079701E+03  0.65952399670E+03  0.00000000000E+00 0.  1.
<mgrwt>
<rscale>  0 0.22126403E+04</rscale>
<asrwt>0</asrwt>
<pdfrwt beam="1">  1        1 0.28874938E+00 0.22126403E+04</pdfrwt>
<pdfrwt beam="2">  1       -1 0.10032609E+00 0.22126403E+04</pdfrwt>
<totfact> 0.31118241E+00</totfact>
</mgrwt>
</event>
<event>
12    3  0.4634846E-008  0.1773426E+04  0.7818608E-02  0.8720560E-01
         -1   -1    0    0    0  501 -0.00000000000E+00  0.00000000000E+00  0.12020431741E+04  0.12020431741E+04  0.00000000000E+00 0.  1.
          1   -1    0    0  501    0  0.00000000000E+00 -0.00000000000E+00 -0.65410287366E+03  0.65410287366E+03  0.00000000000E+00 0. -1.
         23    2    1    2    0    0 -0.29779391152E+02 -0.65946065948E+03  0.24838908946E+03  0.71135857360E+03  0.92513279762E+02 0.  0.
        254    2    1    2    0    0  0.29779391152E+02  0.65946065948E+03  0.29955121098E+03  0.11447874741E+04  0.88602046219E+03 0.  0.
         23    2    4    4    0    0  0.22554862589E+03  0.79578992977E+03  0.31360590120E+03  0.88942374706E+03  0.92585882249E+02 0.  0.
         23    2    4    4    0    0 -0.19576923474E+03 -0.13632927029E+03 -0.14054690221E+02  0.25536372709E+03  0.90010197126E+02 0.  0.
          3    1    3    3  502    0 -0.68755785267E+01 -0.15643858606E+00  0.28269766030E+01  0.74357144796E+01  0.00000000000E+00 0. -1.
         -3    1    3    3    0  502 -0.22903812625E+02 -0.65930422090E+03  0.24556211285E+03  0.70392285912E+03  0.00000000000E+00 0.  1.
         13    1    5    5    0    0  0.84324654516E+02  0.22098711444E+03  0.51403512382E+02  0.24205014603E+03  0.00000000000E+00 0. -1.
        -13    1    5    5    0    0  0.14122397138E+03  0.57480281534E+03  0.26220238882E+03  0.64737360103E+03  0.00000000000E+00 0.  1.
          2    1    6    6  503    0 -0.12644501712E+03 -0.10265447941E+03  0.31427957328E+02  0.16587344875E+03  0.00000000000E+00 0. -1.
         -2    1    6    6    0  503 -0.69324217620E+02 -0.33674790879E+02 -0.45482647549E+02  0.89490278341E+02  0.00000000000E+00 0.  1.
<mgrwt>
<rscale>  0 0.17734259E+04</rscale>
<asrwt>0</asrwt>
<pdfrwt beam="1">  1        1 0.10063121E+00 0.17734259E+04</pdfrwt>
<pdfrwt beam="2">  1       -1 0.18492972E+00 0.17734259E+04</pdfrwt>
<totfact> 0.54750934E+00</totfact>
</mgrwt>
</event>
<event>
12    3  0.4634846E-008  0.1087885E+04  0.7818608E-02  0.9217081E-01
          1   -1    0    0  501    0  0.00000000000E+00  0.00000000000E+00  0.21001802652E+04  0.21001802652E+04  0.00000000000E+00 0. -1.
         -1   -1    0    0    0  501 -0.00000000000E+00 -0.00000000000E+00 -0.14087993193E+03  0.14087993193E+03  0.00000000000E+00 0.  1.
         23    2    1    2    0    0  0.27262896337E+02 -0.12938394140E+03  0.53319007692E+03  0.55655144376E+03  0.89299393094E+02 0.  0.
        254    2    1    2    0    0 -0.27262896337E+02  0.12938394140E+03  0.14261102564E+04  0.16845087534E+04  0.88673322206E+03 0.  0.
         23    2    4    4    0    0 -0.21039989936E+03 -0.20208615137E+03  0.11901968325E+04  0.12287016608E+04  0.89623328230E+02 0.  0.
         23    2    4    4    0    0  0.18313700302E+03  0.33147009277E+03  0.23591342386E+03  0.45580709256E+03  0.93238285029E+02 0.  0.
          4    1    3    3  502    0  0.15395137842E+02 -0.11881288009E+02  0.23533447391E+03  0.23613659159E+03  0.00000000000E+00 0.  1.
         -4    1    3    3    0  502  0.11867758494E+02 -0.11750265339E+03  0.29785560301E+03  0.32041485217E+03  0.00000000000E+00 0. -1.
         13    1    5    5    0    0 -0.29541287513E+01 -0.33932727482E+02  0.21162710524E+03  0.21435062058E+03  0.00000000000E+00 0.  1.
        -13    1    5    5    0    0 -0.20744577061E+03 -0.16815342389E+03  0.97856972726E+03  0.10143510402E+04  0.00000000000E+00 0. -1.
          1    1    6    6  503    0  0.17621462269E+03  0.30659390137E+03  0.18587909349E+03  0.39950275469E+03  0.00000000000E+00 0. -1.
         -1    1    6    6    0  503  0.69223803300E+01  0.24876191406E+02  0.50034330366E+02  0.56304337875E+02  0.00000000000E+00 0.  1.
<mgrwt>
<rscale>  0 0.10878846E+04</rscale>
<asrwt>0</asrwt>
<pdfrwt beam="1">  1        1 0.32310463E+00 0.10878846E+04</pdfrwt>
<pdfrwt beam="2">  1       -1 0.21673837E-01 0.10878846E+04</pdfrwt>
<totfact> 0.45580179E+01</totfact>
</mgrwt>
</event>
<event>
12    3  0.4634846E-008  0.1682251E+04  0.7818608E-02  0.8771552E-01
          2   -1    0    0  501    0  0.00000000000E+00  0.00000000000E+00  0.84123856186E+03  0.84123856186E+03  0.00000000000E+00 0.  1.
         -2   -1    0    0    0  501 -0.00000000000E+00 -0.00000000000E+00 -0.84101262949E+03  0.84101262949E+03  0.00000000000E+00 0. -1.
         23    2    1    2    0    0  0.11357457521E+03  0.24986037333E+03 -0.52907814497E+03  0.60313887067E+03  0.92322389113E+02 0.  0.
        254    2    1    2    0    0 -0.11357457521E+03 -0.24986037333E+03  0.52930407734E+03  0.10791123207E+04  0.89943938320E+03 0.  0.
         23    2    4    4    0    0  0.70305189157E+02  0.28467742298E+03  0.37692682239E+03  0.48671967416E+03  0.94011472728E+02 0.  0.
         23    2    4    4    0    0 -0.18387976437E+03 -0.53453779631E+03  0.15237725495E+03  0.59239264651E+03  0.90375861760E+02 0.  0.
          2    1    3    3  502    0  0.61489449546E+02  0.13826708862E+03 -0.38459060836E+03  0.41329006308E+03  0.00000000000E+00 0. -1.
         -2    1    3    3    0  502  0.52085125668E+02  0.11159328471E+03 -0.14448753661E+03  0.18984880759E+03  0.00000000000E+00 0.  1.
         13    1    5    5    0    0  0.12657716348E+02  0.22348074255E+03  0.27648641276E+03  0.35573669549E+03  0.00000000000E+00 0. -1.
        -13    1    5    5    0    0  0.57647472809E+02  0.61196680430E+02  0.10044040963E+03  0.13098297868E+03  0.00000000000E+00 0.  1.
          1    1    6    6  503    0 -0.13175247453E+03 -0.45980642206E+03  0.14987930435E+03  0.50124292133E+03  0.00000000000E+00 0. -1.
         -1    1    6    6    0  503 -0.52127289845E+02 -0.74731374248E+02  0.24979506018E+01  0.91149725182E+02  0.00000000000E+00 0.  1.
<mgrwt>
<rscale>  0 0.16822512E+04</rscale>
<asrwt>0</asrwt>
<pdfrwt beam="1">  1        2 0.12942132E+00 0.16822512E+04</pdfrwt>
<pdfrwt beam="2">  1       -2 0.12938656E+00 0.16822512E+04</pdfrwt>
<totfact> 0.13480281E+01</totfact>
</mgrwt>
</event>
<event>
12    3  0.4634846E-008  0.2529651E+04  0.7818608E-02  0.8392498E-01
          1   -1    0    0  501    0  0.00000000000E+00  0.00000000000E+00  0.14722089777E+04  0.14722089777E+04  0.00000000000E+00 0. -1.
         -1   -1    0    0    0  501 -0.00000000000E+00 -0.00000000000E+00 -0.10866553338E+04  0.10866553338E+04  0.00000000000E+00 0.  1.
         23    2    1    2    0    0  0.58918335107E+02  0.34220220833E+02 -0.94414531775E+03  0.95126550599E+03  0.94091913151E+02 0.  0.
        254    2    1    2    0    0 -0.58918335107E+02 -0.34220220833E+02  0.13296989616E+04  0.16075988055E+04  0.90090631984E+03 0.  0.
         23    2    4    4    0    0  0.35279261290E+01 -0.44801946326E+03  0.84701981712E+03  0.96269608312E+03  0.92775493167E+02 0.  0.
         23    2    4    4    0    0 -0.62446261236E+02  0.41379924242E+03  0.48267914452E+03  0.64490272239E+03  0.88266733329E+02 0.  0.
          3    1    3    3  502    0 -0.57544455471E+01  0.17717204164E+02 -0.34784624078E+02  0.39458624396E+02  0.00000000000E+00 0. -1.
         -3    1    3    3    0  502  0.64672780654E+02  0.16503016669E+02 -0.90936069367E+03  0.91180688159E+03  0.00000000000E+00 0.  1.
         13    1    5    5    0    0 -0.44640527397E+02 -0.21031890793E+03  0.39661808844E+03  0.45114601605E+03  0.00000000000E+00 0.  1.
        -13    1    5    5    0    0  0.48168453526E+02 -0.23770055533E+03  0.45040172868E+03  0.51155006707E+03  0.00000000000E+00 0. -1.
          3    1    6    6  503    0 -0.52675766757E+02  0.94710345743E+02  0.12780305467E+03  0.16756612658E+03  0.00000000000E+00 0. -1.
         -3    1    6    6    0  503 -0.97704944786E+01  0.31908889668E+03  0.35487608985E+03  0.47733659581E+03  0.00000000000E+00 0.  1.
<mgrwt>
<rscale>  0 0.25296512E+04</rscale>
<asrwt>0</asrwt>
<pdfrwt beam="1">  1        1 0.22649369E+00 0.25296512E+04</pdfrwt>
<pdfrwt beam="2">  1       -1 0.16717774E+00 0.25296512E+04</pdfrwt>
<totfact> 0.15646847E+00</totfact>
</mgrwt>
</event>
<event>
12    3  0.4634846E-008  0.2865836E+04  0.7818608E-02  0.8283115E-01
          1   -1    0    0  501    0  0.00000000000E+00  0.00000000000E+00  0.11765835248E+04  0.11765835248E+04  0.00000000000E+00 0. -1.
         -1   -1    0    0    0  501 -0.00000000000E+00 -0.00000000000E+00 -0.17450987434E+04  0.17450987434E+04  0.00000000000E+00 0.  1.
         23    2    1    2    0    0 -0.79182236414E+03  0.55782086340E+03  0.61309413229E+03  0.11499777851E+04  0.91748129153E+02 0.  0.
        254    2    1    2    0    0  0.79182236414E+03 -0.55782086340E+03 -0.11816093509E+04  0.17717044830E+04  0.89698904398E+03 0.  0.
         23    2    4    4    0    0  0.49949311197E+03 -0.70556918511E+03 -0.48201874433E+03  0.99390073641E+03  0.90417697762E+02 0.  0.
         23    2    4    4    0    0  0.29232925217E+03  0.14774832171E+03 -0.69959060660E+03  0.77780374663E+03  0.90915857748E+02 0.  0.
          2    1    3    3  502    0 -0.69761134260E+03  0.45613261647E+03  0.54157720045E+03  0.99399417160E+03  0.00000000000E+00 0. -1.
         -2    1    3    3    0  502 -0.94211021534E+02  0.10168824693E+03  0.71516931843E+02  0.15598361351E+03  0.00000000000E+00 0.  1.
         13    1    5    5    0    0  0.73947113187E+02 -0.12995361509E+03 -0.49293168789E+02  0.15743549191E+03  0.00000000000E+00 0. -1.
        -13    1    5    5    0    0  0.42554599878E+03 -0.57561557002E+03 -0.43272557554E+03  0.83646524450E+03  0.00000000000E+00 0.  1.
          2    1    6    6  503    0  0.22166494641E+03  0.93512696104E+02 -0.41606728021E+03  0.48061622368E+03  0.00000000000E+00 0. -1.
         -2    1    6    6    0  503  0.70664305760E+02  0.54235625605E+02 -0.28352332639E+03  0.29718752296E+03  0.00000000000E+00 0.  1.
<mgrwt>
<rscale>  0 0.28658363E+04</rscale>
<asrwt>0</asrwt>
<pdfrwt beam="1">  1        1 0.18101285E+00 0.28658363E+04</pdfrwt>
<pdfrwt beam="2">  1       -1 0.26847673E+00 0.28658363E+04</pdfrwt>
<totfact> 0.50585644E-01</totfact>
</mgrwt>
</event>
<event>
12    3  0.4634846E-008  0.1632651E+04  0.7818608E-02  0.8800737E-01
          1   -1    0    0  501    0  0.00000000000E+00  0.00000000000E+00  0.12294848528E+04  0.12294848528E+04  0.00000000000E+00 0.  1.
         -1   -1    0    0    0  501 -0.00000000000E+00 -0.00000000000E+00 -0.54200513070E+03  0.54200513070E+03  0.00000000000E+00 0. -1.
         23    2    1    2    0    0  0.42952315164E+03 -0.63111964792E+01 -0.93535823576E+02  0.44911734525E+03  0.91801255521E+02 0.  0.
        254    2    1    2    0    0 -0.42952315164E+03  0.63111964792E+01  0.78101554571E+03  0.13223726383E+04  0.97680814025E+03 0.  0.
         23    2    4    4    0    0 -0.27903927830E+03  0.24543370083E+03  0.91761523336E+03  0.99418569475E+03  0.91032185587E+02 0.  0.
         23    2    4    4    0    0 -0.15048387334E+03 -0.23912250436E+03 -0.13659968765E+03  0.32818694354E+03  0.96032426903E+02 0.  0.
          3    1    3    3  502    0  0.42972322186E+03 -0.79800389986E+01 -0.10096777569E+03  0.44149770119E+03  0.00000000000E+00 0. -1.
         -3    1    3    3    0  502 -0.20007021544E+00  0.16688425194E+01  0.74319521128E+01  0.76196440634E+01  0.00000000000E+00 0.  1.
         13    1    5    5    0    0 -0.12923161817E+03  0.60206274718E+02  0.39143432786E+03  0.41658905372E+03  0.00000000000E+00 0. -1.
        -13    1    5    5    0    0 -0.14980766013E+03  0.18522742612E+03  0.52618090550E+03  0.57759664103E+03  0.00000000000E+00 0.  1.
          2    1    6    6  503    0 -0.14597708146E+03 -0.24060688416E+03 -0.14645128628E+03  0.31725220294E+03  0.00000000000E+00 0.  1.
         -2    1    6    6    0  503 -0.45067918765E+01  0.14843798066E+01  0.98515986252E+01  0.10934740596E+02  0.00000000000E+00 0. -1.
<mgrwt>
<rscale>  0 0.16326507E+04</rscale>
<asrwt>0</asrwt>
<pdfrwt beam="1">  1        1 0.18915152E+00 0.16326507E+04</pdfrwt>
<pdfrwt beam="2">  1       -1 0.83385405E-01 0.16326507E+04</pdfrwt>
<totfact> 0.13889513E+01</totfact>
</mgrwt>
</event>
<event>
12    3  0.4634846E-008  0.1690038E+04  0.7818608E-02  0.8767067E-01
          1   -1    0    0  501    0  0.00000000000E+00  0.00000000000E+00  0.11589852655E+04  0.11589852655E+04  0.00000000000E+00 0. -1.
         -1   -1    0    0    0  501 -0.00000000000E+00 -0.00000000000E+00 -0.61610523476E+03  0.61610523476E+03  0.00000000000E+00 0.  1.
         23    2    1    2    0    0 -0.36020028862E+03  0.42650414722E+03  0.98633365323E+02  0.57721565729E+03  0.10862476121E+03 0.  0.
        254    2    1    2    0    0  0.36020028862E+03 -0.42650414722E+03  0.44424666542E+03  0.11978748430E+04  0.96223645958E+03 0.  0.
         23    2    4    4    0    0 -0.11379441190E+03  0.20379616988E+03 -0.59423999609E+02  0.25804520630E+03  0.92596272758E+02 0.  0.
         23    2    4    4    0    0  0.47399470052E+03 -0.63030031710E+03  0.50367066503E+03  0.93982963666E+03  0.87442216783E+02 0.  0.
          2    1    3    3  502    0 -0.29321863331E+00  0.13114790927E+02 -0.12311698654E+02  0.17990598711E+02  0.00000000000E+00 0.  1.
         -2    1    3    3    0  502 -0.35990706999E+03  0.41338935630E+03  0.11094506398E+03  0.55922505858E+03  0.00000000000E+00 0. -1.
         13    1    5    5    0    0 -0.43693813299E+02  0.11856964750E+02 -0.12176158310E+00  0.45274184251E+02  0.00000000000E+00 0.  1.
        -13    1    5    5    0    0 -0.70100598600E+02  0.19193920513E+03 -0.59302238026E+02  0.21277102205E+03  0.00000000000E+00 0. -1.
          1    1    6    6  503    0  0.36607649029E+03 -0.45427904156E+03  0.33170745628E+03  0.67112687392E+03  0.00000000000E+00 0. -1.
         -1    1    6    6    0  503  0.10791821024E+03 -0.17602127554E+03  0.17196320875E+03  0.26870276275E+03  0.00000000000E+00 0.  1.
<mgrwt>
<rscale>  0 0.16900377E+04</rscale>
<asrwt>0</asrwt>
<pdfrwt beam="1">  1        1 0.17830542E+00 0.16900377E+04</pdfrwt>
<pdfrwt beam="2">  1       -1 0.94785421E-01 0.16900377E+04</pdfrwt>
<totfact> 0.11743115E+01</totfact>
</mgrwt>
</event>
<event>
12    3  0.4634846E-008  0.2035854E+04  0.7818608E-02  0.8590039E-01
          1   -1    0    0  501    0  0.00000000000E+00  0.00000000000E+00  0.69449154512E+03  0.69449154512E+03  0.00000000000E+00 0. -1.
         -1   -1    0    0    0  501 -0.00000000000E+00 -0.00000000000E+00 -0.14919920772E+04  0.14919920772E+04  0.00000000000E+00 0.  1.
         23    2    1    2    0    0 -0.44236594983E+03 -0.66197564827E+03 -0.52166150575E+03  0.95578969958E+03  0.86624654428E+02 0.  0.
        254    2    1    2    0    0  0.44236594983E+03  0.66197564827E+03 -0.27583902634E+03  0.12306939228E+04  0.89700667255E+03 0.  0.
         23    2    4    4    0    0 -0.89343604550E+02 -0.60948771126E+02  0.17239590949E+03  0.22285689540E+03  0.90817475419E+02 0.  0.
         23    2    4    4    0    0  0.53170955438E+03  0.72292441940E+03 -0.44823493583E+03  0.10078370274E+04  0.97396866730E+02 0.  0.
          3    1    3    3  502    0 -0.36836103810E+03 -0.49733466681E+03 -0.42758311385E+03  0.75223596328E+03  0.00000000000E+00 0. -1.
         -3    1    3    3    0  502 -0.74004911731E+02 -0.16464098146E+03 -0.94078391905E+02  0.20355373630E+03  0.00000000000E+00 0.  1.
         13    1    5    5    0    0  0.29767464499E+01 -0.10546987894E+02 -0.83201890813E+01  0.13759561018E+02  0.00000000000E+00 0.  1.
        -13    1    5    5    0    0 -0.92320351000E+02 -0.50401783232E+02  0.18071609857E+03  0.20909733438E+03  0.00000000000E+00 0. -1.
          4    1    6    6  503    0  0.66219422200E+02  0.15211370986E+03 -0.91128643688E+02  0.18928291604E+03  0.00000000000E+00 0.  1.
         -4    1    6    6    0  503  0.46549013218E+03  0.57081070953E+03 -0.35710629214E+03  0.81855411132E+03  0.00000000000E+00 0. -1.
<mgrwt>
<rscale>  0 0.20358545E+04</rscale>
<asrwt>0</asrwt>
<pdfrwt beam="1">  1        1 0.10684485E+00 0.20358545E+04</pdfrwt>
<pdfrwt beam="2">  1       -1 0.22953724E+00 0.20358545E+04</pdfrwt>
<totfact> 0.24237830E+00</totfact>
</mgrwt>
</event>
<event>
12    3  0.4634846E-008  0.1725807E+04  0.7818608E-02  0.8746781E-01
         -2   -1    0    0    0  501 -0.00000000000E+00  0.00000000000E+00  0.81803278834E+03  0.81803278834E+03  0.00000000000E+00 0.  1.
          2   -1    0    0  501    0  0.00000000000E+00 -0.00000000000E+00 -0.91023584905E+03  0.91023584905E+03  0.00000000000E+00 0. -1.
         23    2    1    2    0    0  0.13378077624E+02 -0.36524109530E+03  0.46657060771E+03  0.60189488399E+03  0.10492515777E+03 0.  0.
        254    2    1    2    0    0 -0.13378077624E+02  0.36524109530E+03 -0.55877366842E+03  0.11263737534E+04  0.90714375332E+03 0.  0.
         23    2    4    4    0    0 -0.33482930004E+03 -0.13036352964E+03 -0.29430978442E+03  0.47298675194E+03  0.89403066411E+02 0.  0.
         23    2    4    4    0    0  0.32145122242E+03  0.49560462494E+03 -0.26446388400E+03  0.65338700147E+03  0.89546608444E+02 0.  0.
          1    1    3    3  502    0  0.30970433262E+02 -0.73006333919E+02  0.15652926019E+03  0.17547222522E+03  0.00000000000E+00 0. -1.
         -1    1    3    3    0  502 -0.17592355638E+02 -0.29223476139E+03  0.31004134752E+03  0.42642265877E+03  0.00000000000E+00 0.  1.
         13    1    5    5    0    0 -0.21454725579E+03 -0.82465004169E+02 -0.24081892190E+03  0.33290352210E+03  0.00000000000E+00 0. -1.
        -13    1    5    5    0    0 -0.12028204425E+03 -0.47898525470E+02 -0.53490862518E+02  0.14008322984E+03  0.00000000000E+00 0.  1.
          4    1    6    6  503    0  0.42813108162E+02  0.79056707810E+02 -0.75518642254E+01  0.90221704337E+02  0.00000000000E+00 0. -1.
         -4    1    6    6    0  503  0.27863811425E+03  0.41654791713E+03 -0.25691201978E+03  0.56316529713E+03  0.00000000000E+00 0.  1.
<mgrwt>
<rscale>  0 0.17258074E+04</rscale>
<asrwt>0</asrwt>
<pdfrwt beam="1">  1        2 0.14003628E+00 0.17258074E+04</pdfrwt>
<pdfrwt beam="2">  1       -2 0.12585120E+00 0.17258074E+04</pdfrwt>
<totfact> 0.12917174E+01</totfact>
</mgrwt>
</event>
<event>
12    3  0.4634846E-008  0.1554998E+04  0.7818608E-02  0.8848682E-01
          1   -1    0    0  501    0  0.00000000000E+00  0.00000000000E+00  0.20627079499E+04  0.20627079499E+04  0.00000000000E+00 0. -1.
         -1   -1    0    0    0  501 -0.00000000000E+00 -0.00000000000E+00 -0.29306350448E+03  0.29306350448E+03  0.00000000000E+00 0.  1.
         23    2    1    2    0    0  0.23690722760E+03 -0.39100881567E+03  0.94817207416E+03  0.10563386485E+04  0.88363621880E+02 0.  0.
        254    2    1    2    0    0 -0.23690722760E+03  0.39100881567E+03  0.82147237122E+03  0.12994328059E+04  0.89704839994E+03 0.  0.
         23    2    4    4    0    0 -0.43764400947E+03  0.47746690000E+03  0.83640157174E+03  0.10620881040E+04  0.94639483796E+02 0.  0.
         23    2    4    4    0    0  0.20073678187E+03 -0.86458084332E+02 -0.14929200521E+02  0.23734470183E+03  0.91320153937E+02 0.  0.
          4    1    3    3  502    0  0.64888892304E+02 -0.17861423464E+03  0.44116796616E+03  0.48035693762E+03  0.00000000000E+00 0. -1.
         -4    1    3    3    0  502  0.17201833529E+03 -0.21239458103E+03  0.50700410800E+03  0.57598171087E+03  0.00000000000E+00 0.  1.
         13    1    5    5    0    0 -0.12478832543E+03  0.93889259887E+02  0.24925854139E+03  0.29413796039E+03  0.00000000000E+00 0. -1.
        -13    1    5    5    0    0 -0.31285568403E+03  0.38357764011E+03  0.58714303035E+03  0.76795014364E+03  0.00000000000E+00 0.  1.
          4    1    6    6  503    0 -0.97242327124E+01 -0.60183589334E+01  0.95610977011E+00  0.11475865631E+02  0.00000000000E+00 0. -1.
         -4    1    6    6    0  503  0.21046101458E+03 -0.80439725398E+02 -0.15885310291E+02  0.22586883619E+03  0.00000000000E+00 0.  1.
<mgrwt>
<rscale>  0 0.15549976E+04</rscale>
<asrwt>0</asrwt>
<pdfrwt beam="1">  1        1 0.31733968E+00 0.15549976E+04</pdfrwt>
<pdfrwt beam="2">  1       -1 0.45086694E-01 0.15549976E+04</pdfrwt>
<totfact> 0.12704865E+01</totfact>
</mgrwt>
</event>
<event>
12    3  0.4634846E-008  0.1599802E+04  0.7818608E-02  0.8820669E-01
         -3   -1    0    0    0  501 -0.00000000000E+00  0.00000000000E+00  0.77614497268E+03  0.77614497268E+03  0.00000000000E+00 0.  1.
          3   -1    0    0  501    0  0.00000000000E+00 -0.00000000000E+00 -0.82438440958E+03  0.82438440958E+03  0.00000000000E+00 0. -1.
         23    2    1    2    0    0 -0.73071179942E+02  0.46510703490E+03  0.24092442051E+03  0.53648165664E+03  0.90022443091E+02 0.  0.
        254    2    1    2    0    0  0.73071179942E+02 -0.46510703490E+03 -0.28916385741E+03  0.10640477256E+04  0.90935024865E+03 0.  0.
         23    2    4    4    0    0 -0.16791899960E+03 -0.57675449709E+03 -0.43573014170E+03  0.74760673660E+03  0.90623042781E+02 0.  0.
         23    2    4    4    0    0  0.24099017954E+03  0.11164746218E+03  0.14656628429E+03  0.31644098903E+03  0.90065539444E+02 0.  0.
          1    1    3    3  502    0 -0.50714843171E+02  0.36026108684E+03  0.14178806490E+03  0.39046626149E+03  0.00000000000E+00 0. -1.
         -1    1    3    3    0  502 -0.22356336771E+02  0.10484594806E+03  0.99136355610E+02  0.14601539515E+03  0.00000000000E+00 0.  1.
         13    1    5    5    0    0 -0.10647844120E+02 -0.12637000177E+03 -0.12633823852E+03  0.17900867143E+03  0.00000000000E+00 0. -1.
        -13    1    5    5    0    0 -0.15727115548E+03 -0.45038449531E+03 -0.30939190318E+03  0.56859806517E+03  0.00000000000E+00 0.  1.
          4    1    6    6  503    0  0.31468599182E+02  0.53840007217E+02  0.42463183818E+02  0.75446279508E+02  0.00000000000E+00 0. -1.
         -4    1    6    6    0  503  0.20952158036E+03  0.57807454966E+02  0.10410310048E+03  0.24099470952E+03  0.00000000000E+00 0.  1.
<mgrwt>
<rscale>  0 0.15998023E+04</rscale>
<asrwt>0</asrwt>
<pdfrwt beam="1">  1        3 0.12682837E+00 0.15998023E+04</pdfrwt>
<pdfrwt beam="2">  1       -3 0.11940692E+00 0.15998023E+04</pdfrwt>
<totfact> 0.71054523E-01</totfact>
</mgrwt>
</event>
<event>
12    3  0.4634846E-008  0.2014251E+04  0.7818608E-02  0.8599987E-01
          1   -1    0    0  501    0  0.00000000000E+00  0.00000000000E+00  0.73088854898E+03  0.73088854898E+03  0.00000000000E+00 0. -1.
         -1   -1    0    0    0  501 -0.00000000000E+00 -0.00000000000E+00 -0.13877654777E+04  0.13877654777E+04  0.00000000000E+00 0.  1.
         23    2    1    2    0    0 -0.80092594592E+03  0.69800840867E+02 -0.26248674074E+03  0.85041703639E+03  0.89192592020E+02 0.  0.
        254    2    1    2    0    0  0.80092594592E+03 -0.69800840867E+02 -0.39439018794E+03  0.12682369903E+04  0.89806843552E+03 0.  0.
         23    2    4    4    0    0  0.68665364989E+03 -0.33594484552E+03  0.10298675886E+01  0.76966533550E+03  0.89618602480E+02 0.  0.
         23    2    4    4    0    0  0.11427229604E+03  0.26614400465E+03 -0.39542005553E+03  0.49857165476E+03  0.91246291780E+02 0.  0.
          3    1    3    3  502    0 -0.51069192267E+03  0.33358413196E+02 -0.21020911896E+03  0.55326928100E+03  0.00000000000E+00 0. -1.
         -3    1    3    3    0  502 -0.29023402326E+03  0.36442427671E+02 -0.52277621786E+02  0.29714775538E+03  0.00000000000E+00 0.  1.
         13    1    5    5    0    0  0.60437200042E+03 -0.26111431029E+03 -0.29815533680E+01  0.65837306110E+03  0.00000000000E+00 0. -1.
        -13    1    5    5    0    0  0.82281649468E+02 -0.74830535233E+02  0.40114209567E+01  0.11129227440E+03  0.00000000000E+00 0.  1.
          2    1    6    6  503    0  0.22063798333E+02  0.14463762594E+03 -0.23799196319E+03  0.27936898285E+03  0.00000000000E+00 0. -1.
         -2    1    6    6    0  503  0.92208497705E+02  0.12150637871E+03 -0.15742809234E+03  0.21920267191E+03  0.00000000000E+00 0.  1.
<mgrwt>
<rscale>  0 0.20142511E+04</rscale>
<asrwt>0</asrwt>
<pdfrwt beam="1">  1        1 0.11244439E+00 0.20142511E+04</pdfrwt>
<pdfrwt beam="2">  1       -1 0.21350238E+00 0.20142511E+04</pdfrwt>
<totfact> 0.28748750E+00</totfact>
</mgrwt>
</event>
<event>
12    3  0.4634846E-008  0.1471383E+04  0.7818608E-02  0.8903709E-01
          2   -1    0    0  501    0  0.00000000000E+00  0.00000000000E+00  0.11317592147E+04  0.11317592147E+04  0.00000000000E+00 0. -1.
         -2   -1    0    0    0  501 -0.00000000000E+00 -0.00000000000E+00 -0.47823040942E+03  0.47823040942E+03  0.00000000000E+00 0.  1.
         23    2    1    2    0    0 -0.68139946471E+02  0.23595334925E+03 -0.21600166943E+03  0.33935471136E+03  0.90486814497E+02 0.  0.
        254    2    1    2    0    0  0.68139946471E+02 -0.23595334925E+03  0.86953047472E+03  0.12706349128E+04  0.89337159109E+03 0.  0.
         23    2    4    4    0    0  0.88797292197E+02 -0.54123187775E+03  0.33906186097E+03  0.65101877760E+03  0.89697260988E+02 0.  0.
         23    2    4    4    0    0 -0.20657345727E+02  0.30527852850E+03  0.53046861376E+03  0.61961613518E+03  0.94368950950E+02 0.  0.
          4    1    3    3  502    0  0.14041696456E+02  0.99499789089E+02 -0.63729298736E+02  0.11899075924E+03  0.00000000000E+00 0. -1.
         -4    1    3    3    0  502 -0.82181642927E+02  0.13645356016E+03 -0.15227237070E+03  0.22036395212E+03  0.00000000000E+00 0.  1.
         13    1    5    5    0    0  0.68581518454E+02 -0.32479076946E+03  0.25234449466E+03  0.41697747251E+03  0.00000000000E+00 0. -1.
        -13    1    5    5    0    0  0.20215773744E+02 -0.21644110829E+03  0.86717366308E+02  0.23404130508E+03  0.00000000000E+00 0.  1.
          1    1    6    6  503    0  0.26096024748E+02  0.22510292030E+03  0.35620671411E+03  0.42217952392E+03  0.00000000000E+00 0. -1.
         -1    1    6    6    0  503 -0.46753370475E+02  0.80175608195E+02  0.17426189965E+03  0.19743661127E+03  0.00000000000E+00 0.  1.
<mgrwt>
<rscale>  0 0.14713826E+04</rscale>
<asrwt>0</asrwt>
<pdfrwt beam="1">  1        2 0.17411680E+00 0.14713826E+04</pdfrwt>
<pdfrwt beam="2">  1       -2 0.73573910E-01 0.14713826E+04</pdfrwt>
<totfact> 0.33607481E+01</totfact>
</mgrwt>
</event>
<event>
12    3  0.4634846E-008  0.1804768E+04  0.7818608E-02  0.8703768E-01
          2   -1    0    0  501    0  0.00000000000E+00  0.00000000000E+00  0.46819616056E+03  0.46819616056E+03  0.00000000000E+00 0. -1.
         -2   -1    0    0    0  501 -0.00000000000E+00 -0.00000000000E+00 -0.17392224878E+04  0.17392224878E+04  0.00000000000E+00 0.  1.
         23    2    1    2    0    0  0.44485233523E+03  0.36806254837E+03 -0.82235452560E+03  0.10091539438E+04  0.93600624189E+02 0.  0.
        254    2    1    2    0    0 -0.44485233523E+03 -0.36806254837E+03 -0.44867180168E+03  0.11982647046E+04  0.94929883440E+03 0.  0.
         23    2    4    4    0    0  0.61465879624E+02  0.23542688967E+03  0.45379555749E+02  0.26424342346E+03  0.92527877022E+02 0.  0.
         23    2    4    4    0    0 -0.50631821485E+03 -0.60348943804E+03 -0.49405135743E+03  0.93402128113E+03  0.88041883877E+02 0.  0.
          1    1    3    3  502    0  0.24253694006E+03  0.16249397370E+03 -0.47642932623E+03  0.55876055845E+03  0.00000000000E+00 0. -1.
         -1    1    3    3    0  502  0.20231539517E+03  0.20556857467E+03 -0.34592519936E+03  0.45039338536E+03  0.00000000000E+00 0.  1.
         13    1    5    5    0    0 -0.12840169572E+02  0.11322078362E+03  0.41176294773E+02  0.12115817368E+03  0.00000000000E+00 0. -1.
        -13    1    5    5    0    0  0.74306049196E+02  0.12220610605E+03  0.42032609761E+01  0.14308524979E+03  0.00000000000E+00 0.  1.
          4    1    6    6  503    0 -0.85411312321E+02 -0.15740280738E+03 -0.10172165789E+03  0.20595638307E+03  0.00000000000E+00 0. -1.
         -4    1    6    6    0  503 -0.42090690253E+03 -0.44608663066E+03 -0.39232969954E+03  0.72806489806E+03  0.00000000000E+00 0.  1.
<mgrwt>
<rscale>  0 0.18047685E+04</rscale>
<asrwt>0</asrwt>
<pdfrwt beam="1">  1        2 0.72030178E-01 0.18047685E+04</pdfrwt>
<pdfrwt beam="2">  1       -2 0.26757269E+00 0.18047685E+04</pdfrwt>
<totfact> 0.31464498E+00</totfact>
</mgrwt>
</event>
<event>
12    3  0.4634846E-008  0.2112753E+04  0.7818608E-02  0.8555646E-01
         -2   -1    0    0    0  501 -0.00000000000E+00  0.00000000000E+00  0.76251401755E+03  0.76251401755E+03  0.00000000000E+00 0.  1.
          2   -1    0    0  501    0  0.00000000000E+00 -0.00000000000E+00 -0.14634892978E+04  0.14634892978E+04  0.00000000000E+00 0. -1.
         23    2    1    2    0    0  0.33375371443E+03 -0.50490589186E+03 -0.93101279736E+03  0.11141332975E+04  0.90480242400E+02 0.  0.
        254    2    1    2    0    0 -0.33375371443E+03  0.50490589186E+03  0.23003751712E+03  0.11118700178E+04  0.90388947096E+03 0.  0.
         23    2    4    4    0    0 -0.57410575404E+03  0.31592029667E+03  0.37456238215E+03  0.76022027075E+03  0.90745971095E+02 0.  0.
         23    2    4    4    0    0  0.24035203960E+03  0.18898559519E+03 -0.14452486503E+03  0.35164974707E+03  0.96361039194E+02 0.  0.
          4    1    3    3  502    0  0.12624864520E+03 -0.14462274242E+03 -0.23560654687E+03  0.30391594721E+03  0.00000000000E+00 0.  1.
         -4    1    3    3    0  502  0.20750506924E+03 -0.36028314944E+03 -0.69540625049E+03  0.81021735031E+03  0.00000000000E+00 0. -1.
         13    1    5    5    0    0 -0.52272479261E+03  0.27375999271E+03  0.30586910258E+03  0.66463647984E+03  0.00000000000E+00 0. -1.
        -13    1    5    5    0    0 -0.51380961432E+02  0.42160303959E+02  0.68693279571E+02  0.95583790915E+02  0.00000000000E+00 0.  1.
          2    1    6    6  503    0  0.35546350872E+02  0.75484454231E+01  0.96361731511E+01  0.37594918828E+02  0.00000000000E+00 0.  1.
         -2    1    6    6    0  503  0.20480568873E+03  0.18143714977E+03 -0.15416103818E+03  0.31405482825E+03  0.00000000000E+00 0. -1.
<mgrwt>
<rscale>  0 0.21127528E+04</rscale>
<asrwt>0</asrwt>
<pdfrwt beam="1">  1        2 0.22515220E+00 0.21127528E+04</pdfrwt>
<pdfrwt beam="2">  1       -2 0.11730985E+00 0.21127528E+04</pdfrwt>
<totfact> 0.68843196E+00</totfact>
</mgrwt>
</event>
<event>
12    3  0.4634846E-008  0.2314364E+04  0.7818608E-02  0.8472279E-01
         -1   -1    0    0    0  501 -0.00000000000E+00  0.00000000000E+00  0.55362532498E+03  0.55362532498E+03  0.00000000000E+00 0.  1.
          1   -1    0    0  501    0  0.00000000000E+00 -0.00000000000E+00 -0.24187290406E+04  0.24187290406E+04  0.00000000000E+00 0. -1.
         23    2    1    2    0    0  0.22500647586E+03 -0.81381581019E+03 -0.11834283329E+03  0.85741429252E+03  0.90720205757E+02 0.  0.
        254    2    1    2    0    0 -0.22500647586E+03  0.81381581019E+03 -0.17467608823E+04  0.21149400730E+04  0.84194646235E+03 0.  0.
         23    2    4    4    0    0  0.12055800857E+02 -0.15438591096E+03 -0.19545600474E+03  0.26875019723E+03  0.10021610092E+03 0.  0.
         23    2    4    4    0    0 -0.23706227672E+03  0.96820172114E+03 -0.15513048776E+04  0.18461898758E+04  0.90868798255E+02 0.  0.
          3    1    3    3  502    0  0.17911079159E+03 -0.70144001813E+03 -0.72140749432E+02  0.72753217278E+03  0.00000000000E+00 0.  1.
         -3    1    3    3    0  502  0.45895684268E+02 -0.11237579205E+03 -0.46202083859E+02  0.12988211973E+03  0.00000000000E+00 0. -1.
         13    1    5    5    0    0  0.10037896444E+02 -0.16823276747E+03 -0.16816476812E+03  0.23808068517E+03  0.00000000000E+00 0. -1.
        -13    1    5    5    0    0  0.20179044121E+01  0.13846856510E+02 -0.27291236619E+02  0.30669512053E+02  0.00000000000E+00 0.  1.
          1    1    6    6  503    0 -0.19784600068E+03  0.62668553702E+03 -0.10190298634E+04  0.12125591387E+04  0.00000000000E+00 0. -1.
         -1    1    6    6    0  503 -0.39216276041E+02  0.34151618412E+03 -0.53227501414E+03  0.63363073710E+03  0.00000000000E+00 0.  1.
<mgrwt>
<rscale>  0 0.23143635E+04</rscale>
<asrwt>0</asrwt>
<pdfrwt beam="1">  1        1 0.37211217E+00 0.23143635E+04</pdfrwt>
<pdfrwt beam="2">  1       -1 0.85173125E-01 0.23143635E+04</pdfrwt>
<totfact> 0.18972897E+00</totfact>
</mgrwt>
</event>
<event>
12    3  0.4634846E-008  0.1862096E+04  0.7818608E-02  0.8673957E-01
          1   -1    0    0  501    0  0.00000000000E+00  0.00000000000E+00  0.15629877863E+04  0.15629877863E+04  0.00000000000E+00 0. -1.
         -1   -1    0    0    0  501 -0.00000000000E+00 -0.00000000000E+00 -0.55461098442E+03  0.55461098442E+03  0.00000000000E+00 0.  1.
         23    2    1    2    0    0 -0.59707540623E+03 -0.75968501068E+00 -0.52702454827E+02  0.60950290131E+03  0.11052882031E+03 0.  0.
        254    2    1    2    0    0  0.59707540623E+03  0.75968501068E+00  0.10610792567E+04  0.15080958694E+04  0.88992378576E+03 0.  0.
         23    2    4    4    0    0  0.40513780137E+03 -0.16929302588E+03  0.11399068427E+04  0.12251258919E+04  0.93536486443E+02 0.  0.
         23    2    4    4    0    0  0.19193760486E+03  0.17005271089E+03 -0.78827585980E+02  0.28296997751E+03  0.90001395673E+02 0.  0.
          2    1    3    3  502    0 -0.41073500685E+03  0.31524201089E+02 -0.76203391995E+02  0.41893194919E+03  0.00000000000E+00 0.  1.
         -2    1    3    3    0  502 -0.18634039938E+03 -0.32283886100E+02  0.23500937168E+02  0.19057095212E+03  0.00000000000E+00 0. -1.
         13    1    5    5    0    0  0.24187122770E+03 -0.60854900494E+02  0.56108348469E+03  0.61401928837E+03  0.00000000000E+00 0. -1.
        -13    1    5    5    0    0  0.16326657367E+03 -0.10843812538E+03  0.57882335797E+03  0.61110660350E+03  0.00000000000E+00 0.  1.
          3    1    6    6  503    0  0.91726279021E+01  0.53508055223E+01  0.16080714802E+02  0.19270641165E+02  0.00000000000E+00 0. -1.
         -3    1    6    6    0  503  0.18276497696E+03  0.16470190536E+03 -0.94908300782E+02  0.26369933635E+03  0.00000000000E+00 0.  1.
<mgrwt>
<rscale>  0 0.18620958E+04</rscale>
<asrwt>0</asrwt>
<pdfrwt beam="1">  1        1 0.24045966E+00 0.18620958E+04</pdfrwt>
<pdfrwt beam="2">  1       -1 0.85324768E-01 0.18620958E+04</pdfrwt>
<totfact> 0.75408845E+00</totfact>
</mgrwt>
</event>
<event>
12    3  0.4634846E-008  0.1894468E+04  0.7818608E-02  0.8657615E-01
          1   -1    0    0  501    0  0.00000000000E+00  0.00000000000E+00  0.42928894901E+03  0.42928894901E+03  0.00000000000E+00 0. -1.
         -1   -1    0    0    0  501 -0.00000000000E+00 -0.00000000000E+00 -0.20900897276E+04  0.20900897276E+04  0.00000000000E+00 0.  1.
         23    2    1    2    0    0  0.39270085123E+03 -0.62244084612E+03 -0.68707775580E+03  0.10110798035E+04  0.92520057299E+02 0.  0.
        254    2    1    2    0    0 -0.39270085123E+03  0.62244084612E+03 -0.97372302276E+03  0.15082988731E+04  0.88610518568E+03 0.  0.
         23    2    4    4    0    0 -0.51444518460E+03  0.26329094518E+03 -0.95132964753E+03  0.11169118645E+04  0.92130586598E+02 0.  0.
         23    2    4    4    0    0  0.12174433337E+03  0.35914990094E+03 -0.22393375237E+02  0.39138700863E+03  0.94191258699E+02 0.  0.
          4    1    3    3  502    0  0.31426236835E+03 -0.45509972915E+03 -0.55805493272E+03  0.78568562897E+03  0.00000000000E+00 0. -1.
         -4    1    3    3    0  502  0.78438482880E+02 -0.16734111698E+03 -0.12902282308E+03  0.22539417451E+03  0.00000000000E+00 0.  1.
         13    1    5    5    0    0 -0.47146372004E+03  0.22727178744E+03 -0.80479576508E+03  0.96001392083E+03  0.00000000000E+00 0. -1.
        -13    1    5    5    0    0 -0.42981464555E+02  0.36019157737E+02 -0.14653388244E+03  0.15689794366E+03  0.00000000000E+00 0.  1.
          4    1    6    6  503    0  0.13074524752E+03  0.35502385763E+03 -0.14308546595E+02  0.37860400651E+03  0.00000000000E+00 0. -1.
         -4    1    6    6    0  503 -0.90009141564E+01  0.41260433093E+01 -0.80848286424E+01  0.12783002121E+02  0.00000000000E+00 0.  1.
<mgrwt>
<rscale>  0 0.18944682E+04</rscale>
<asrwt>0</asrwt>
<pdfrwt beam="1">  1        1 0.66044453E-01 0.18944682E+04</pdfrwt>
<pdfrwt beam="2">  1       -1 0.32155227E+00 0.18944682E+04</pdfrwt>
<totfact> 0.12231129E+00</totfact>
</mgrwt>
</event>
<event>
12    3  0.4634846E-008  0.1284597E+04  0.7818608E-02  0.9041870E-01
         -1   -1    0    0    0  501 -0.00000000000E+00  0.00000000000E+00  0.96342731664E+02  0.96342731664E+02  0.00000000000E+00 0.  1.
          1   -1    0    0  501    0  0.00000000000E+00 -0.00000000000E+00 -0.42820800654E+04  0.42820800654E+04  0.00000000000E+00 0. -1.
         23    2    1    2    0    0 -0.53458426167E+02 -0.11025539040E+03 -0.21172632492E+04  0.21227510645E+04  0.90853513790E+02 0.  0.
        254    2    1    2    0    0  0.53458426167E+02  0.11025539040E+03 -0.20684740846E+04  0.22556717326E+04  0.89132254110E+03 0.  0.
         23    2    4    4    0    0  0.22669368673E+02  0.11967347238E+03 -0.21330124504E+04  0.21385136281E+04  0.93074075918E+02 0.  0.
         23    2    4    4    0    0  0.30789057494E+02 -0.94180819755E+01  0.64538365836E+02  0.11715810453E+03  0.92326347605E+02 0.  0.
          3    1    3    3  502    0 -0.36661198515E+02  0.41125265287E+01 -0.48845115383E+03  0.48984230731E+03  0.00000000000E+00 0.  1.
         -3    1    3    3    0  502 -0.16797227652E+02 -0.11436791693E+03 -0.16288120953E+04  0.16329087572E+04  0.00000000000E+00 0. -1.
         13    1    5    5    0    0 -0.22449010182E+02  0.10208449590E+03 -0.15224241477E+04  0.15260080236E+04  0.00000000000E+00 0. -1.
        -13    1    5    5    0    0  0.45118378855E+02  0.17588976476E+02 -0.61058830266E+03  0.61250560450E+03  0.00000000000E+00 0.  1.
          4    1    6    6  503    0  0.60187284206E+02 -0.11853832831E+02  0.62522351571E+02  0.87590336104E+02  0.00000000000E+00 0. -1.
         -4    1    6    6    0  503 -0.29398226711E+02  0.24357508552E+01  0.20160142649E+01  0.29567768423E+02  0.00000000000E+00 0.  1.
<mgrwt>
<rscale>  0 0.12845969E+04</rscale>
<asrwt>0</asrwt>
<pdfrwt beam="1">  1        1 0.65878149E+00 0.12845969E+04</pdfrwt>
<pdfrwt beam="2">  1       -1 0.14821960E-01 0.12845969E+04</pdfrwt>
<totfact> 0.18118247E+00</totfact>
</mgrwt>
</event>
<event>
12    3  0.4634846E-008  0.1488059E+04  0.7818608E-02  0.8892432E-01
         -2   -1    0    0    0  501 -0.00000000000E+00  0.00000000000E+00  0.51645366487E+03  0.51645366487E+03  0.00000000000E+00 0.  1.
          2   -1    0    0  501    0  0.00000000000E+00 -0.00000000000E+00 -0.10718875780E+04  0.10718875780E+04  0.00000000000E+00 0. -1.
         23    2    1    2    0    0 -0.14555873057E+03  0.24598027105E+03  0.21756198995E+03  0.37055914493E+03  0.91034183842E+02 0.  0.
        254    2    1    2    0    0  0.14555873057E+03 -0.24598027105E+03 -0.77299590306E+03  0.12177820979E+04  0.89653607516E+03 0.  0.
         23    2    4    4    0    0  0.38256025252E+03 -0.45519425043E+03 -0.58484065379E+03  0.83903772291E+03  0.91605445782E+02 0.  0.
         23    2    4    4    0    0 -0.23700152195E+03  0.20921397938E+03 -0.18815524927E+03  0.37874437501E+03  0.90026069524E+02 0.  0.
          4    1    3    3  502    0 -0.11788711940E+03  0.11032688198E+03  0.11340108217E+03  0.19730483837E+03  0.00000000000E+00 0. -1.
         -4    1    3    3    0  502 -0.27671611174E+02  0.13565338907E+03  0.10416090778E+03  0.17325430656E+03  0.00000000000E+00 0.  1.
         13    1    5    5    0    0  0.19312840610E+03 -0.29354308699E+03 -0.31583267277E+03  0.47245783130E+03  0.00000000000E+00 0. -1.
        -13    1    5    5    0    0  0.18943184642E+03 -0.16165116344E+03 -0.26900798102E+03  0.36657989161E+03  0.00000000000E+00 0.  1.
          1    1    6    6  503    0 -0.22211315288E+03  0.17444295790E+03 -0.19078650749E+03  0.34082853414E+03  0.00000000000E+00 0. -1.
         -1    1    6    6    0  503 -0.14888369074E+02  0.34771021485E+02  0.26312582241E+01  0.37915840867E+02  0.00000000000E+00 0.  1.
<mgrwt>
<rscale>  0 0.14880595E+04</rscale>
<asrwt>0</asrwt>
<pdfrwt beam="1">  1        2 0.16490578E+00 0.14880595E+04</pdfrwt>
<pdfrwt beam="2">  1       -2 0.79454409E-01 0.14880595E+04</pdfrwt>
<totfact> 0.30794397E+01</totfact>
</mgrwt>
</event>
<event>
12    3  0.4634846E-008  0.1171849E+04  0.7818608E-02  0.9137860E-01
          2   -1    0    0  501    0  0.00000000000E+00  0.00000000000E+00  0.31293978850E+04  0.31293978850E+04  0.00000000000E+00 0. -1.
         -2   -1    0    0    0  501 -0.00000000000E+00 -0.00000000000E+00 -0.10970407080E+03  0.10970407080E+03  0.00000000000E+00 0.  1.
         23    2    1    2    0    0  0.15697723395E+03  0.59810764731E+02  0.21358245067E+03  0.28642758941E+03  0.90576603957E+02 0.  0.
        254    2    1    2    0    0 -0.15697723395E+03 -0.59810764731E+02  0.28061113636E+04  0.29526743664E+04  0.90321965761E+03 0.  0.
         23    2    4    4    0    0 -0.10202613308E+03 -0.20452423774E+03  0.27555240914E+04  0.27664925074E+04  0.91259406745E+02 0.  0.
         23    2    4    4    0    0 -0.54951100862E+02  0.14471347301E+03  0.50587272160E+02  0.18618185907E+03  0.90238571499E+02 0.  0.
          4    1    3    3  502    0  0.48062853032E+02  0.39805849968E+02  0.23977667882E+02  0.66854110497E+02  0.00000000000E+00 0. -1.
         -4    1    3    3    0  502  0.10891438091E+03  0.20004914763E+02  0.18960478279E+03  0.21957347891E+03  0.00000000000E+00 0.  1.
         13    1    5    5    0    0 -0.10794975873E+03 -0.16121819714E+03  0.19073358720E+04  0.19171788092E+04  0.00000000000E+00 0. -1.
        -13    1    5    5    0    0  0.59236256435E+01 -0.43306040593E+02  0.84818821936E+03  0.84931369820E+03  0.00000000000E+00 0.  1.
          3    1    6    6  503    0 -0.52815612779E+02  0.10908498502E+03 -0.36508534678E+01  0.12125325415E+03  0.00000000000E+00 0. -1.
         -3    1    6    6    0  503 -0.21354880826E+01  0.35628487986E+02  0.54238125628E+02  0.64928604922E+02  0.00000000000E+00 0.  1.
<mgrwt>
<rscale>  0 0.11718493E+04</rscale>
<asrwt>0</asrwt>
<pdfrwt beam="1">  1        2 0.48144576E+00 0.11718493E+04</pdfrwt>
<pdfrwt beam="2">  1       -2 0.16877552E-01 0.11718493E+04</pdfrwt>
<totfact> 0.41655208E+01</totfact>
</mgrwt>
</event>
<event>
12    3  0.4634846E-008  0.1234851E+04  0.7818608E-02  0.9082887E-01
          2   -1    0    0  501    0  0.00000000000E+00  0.00000000000E+00  0.12917768325E+04  0.12917768325E+04  0.00000000000E+00 0. -1.
         -2   -1    0    0    0  501 -0.00000000000E+00 -0.00000000000E+00 -0.29510846732E+03  0.29510846732E+03  0.00000000000E+00 0.  1.
         23    2    1    2    0    0 -0.11158154678E+03 -0.25794762848E+03  0.26303769769E+03  0.39548757361E+03  0.90742326703E+02 0.  0.
        254    2    1    2    0    0  0.11158154678E+03  0.25794762848E+03  0.73363066744E+03  0.11913977262E+04  0.89567134881E+03 0.  0.
         23    2    4    4    0    0 -0.18909868426E+03  0.48865155064E+03  0.31505474427E+03  0.61805328911E+03  0.90508154110E+02 0.  0.
         23    2    4    4    0    0  0.30068023103E+03 -0.23070392216E+03  0.41857592318E+03  0.57334443706E+03  0.99424036384E+02 0.  0.
          4    1    3    3  502    0  0.79738172718E+01 -0.12367771027E+02  0.40765129365E+02  0.43339811885E+02  0.00000000000E+00 0. -1.
         -4    1    3    3    0  502 -0.11955536405E+03 -0.24557985745E+03  0.22227256832E+03  0.35214776172E+03  0.00000000000E+00 0.  1.
         13    1    5    5    0    0 -0.36479546058E+02  0.15266170426E+03  0.13689102547E+03  0.20826787098E+03  0.00000000000E+00 0. -1.
        -13    1    5    5    0    0 -0.15261913820E+03  0.33598984638E+03  0.17816371880E+03  0.40978541813E+03  0.00000000000E+00 0.  1.
          4    1    6    6  503    0  0.25693441550E+03 -0.23307996968E+03  0.35712294524E+03  0.49787384362E+03  0.00000000000E+00 0.  1.
         -4    1    6    6    0  503  0.43745815527E+02  0.23760475214E+01  0.61452977930E+02  0.75470593442E+02  0.00000000000E+00 0. -1.
<mgrwt>
<rscale>  0 0.12348511E+04</rscale>
<asrwt>0</asrwt>
<pdfrwt beam="1">  1        2 0.19873489E+00 0.12348511E+04</pdfrwt>
<pdfrwt beam="2">  1       -2 0.45401303E-01 0.12348511E+04</pdfrwt>
<totfact> 0.75674904E+01</totfact>
</mgrwt>
</event>
<event>
12    3  0.4634846E-008  0.1813009E+04  0.7818608E-02  0.8699412E-01
          2   -1    0    0  501    0  0.00000000000E+00  0.00000000000E+00  0.20537618923E+04  0.20537618923E+04  0.00000000000E+00 0. -1.
         -2   -1    0    0    0  501 -0.00000000000E+00 -0.00000000000E+00 -0.40011979423E+03  0.40011979423E+03  0.00000000000E+00 0.  1.
         23    2    1    2    0    0  0.16204673239E+03  0.25094894904E+03  0.14531624126E+04  0.14864851193E+04  0.93394293277E+02 0.  0.
        254    2    1    2    0    0 -0.16204673239E+03 -0.25094894904E+03  0.20047968548E+03  0.96739656724E+03  0.89801419561E+03 0.  0.
         23    2    4    4    0    0 -0.21298583980E+03 -0.71022262526E+02  0.52750994407E+03  0.57987304673E+03  0.87056760251E+02 0.  0.
         23    2    4    4    0    0  0.50939107411E+02 -0.17992668652E+03 -0.32703025859E+03  0.38752352050E+03  0.90869597368E+02 0.  0.
          1    1    3    3  502    0  0.88625375480E+02  0.16119497866E+03  0.10852999401E+04  0.11007789234E+04  0.00000000000E+00 0. -1.
         -1    1    3    3    0  502  0.73421356914E+02  0.89753970381E+02  0.36786247254E+03  0.38570619590E+03  0.00000000000E+00 0.  1.
         13    1    5    5    0    0 -0.33009938557E+02 -0.11788266990E+01  0.24608419381E+02  0.41190047103E+02  0.00000000000E+00 0. -1.
        -13    1    5    5    0    0 -0.17997590125E+03 -0.69843435827E+02  0.50290152469E+03  0.53868299963E+03  0.00000000000E+00 0.  1.
          1    1    6    6  503    0  0.51498172497E+02 -0.55332595465E+02 -0.17725118177E+03  0.19269597643E+03  0.00000000000E+00 0. -1.
         -1    1    6    6    0  503 -0.55906508634E+00 -0.12459409105E+03 -0.14977907682E+03  0.19482754408E+03  0.00000000000E+00 0.  1.
<mgrwt>
<rscale>  0 0.18130094E+04</rscale>
<asrwt>0</asrwt>
<pdfrwt beam="1">  1        2 0.31596336E+00 0.18130094E+04</pdfrwt>
<pdfrwt beam="2">  1       -2 0.61556893E-01 0.18130094E+04</pdfrwt>
<totfact> 0.14425879E+01</totfact>
</mgrwt>
</event>
<event>
12    3  0.4634846E-008  0.1905867E+04  0.7818608E-02  0.8651941E-01
         -1   -1    0    0    0  501 -0.00000000000E+00  0.00000000000E+00  0.35471443102E+03  0.35471443102E+03  0.00000000000E+00 0.  1.
          1   -1    0    0  501    0  0.00000000000E+00 -0.00000000000E+00 -0.25600380927E+04  0.25600380927E+04  0.00000000000E+00 0. -1.
         23    2    1    2    0    0  0.19082169468E+03  0.67268690823E+03 -0.51898839149E+03  0.87560954874E+03  0.91774373747E+02 0.  0.
        254    2    1    2    0    0 -0.19082169468E+03 -0.67268690823E+03 -0.16863352701E+04  0.20391429749E+04  0.90854654984E+03 0.  0.
         23    2    4    4    0    0 -0.48147785250E+03 -0.17604119249E+03 -0.52358835822E+03  0.73839740997E+03  0.90964511120E+02 0.  0.
         23    2    4    4    0    0  0.29065615782E+03 -0.49664571574E+03 -0.11627469119E+04  0.13007455650E+04  0.93918446299E+02 0.  0.
          4    1    3    3  502    0 -0.68913000964E+01  0.43673921698E+01 -0.77877592325E+01  0.11278888476E+02  0.00000000000E+00 0. -1.
         -4    1    3    3    0  502  0.19771299478E+03  0.66831951606E+03 -0.51120063226E+03  0.86433066027E+03  0.00000000000E+00 0.  1.
         13    1    5    5    0    0 -0.17518736922E+03 -0.50414777899E+02 -0.24712483349E+03  0.30708784979E+03  0.00000000000E+00 0.  1.
        -13    1    5    5    0    0 -0.30629048328E+03 -0.12562641460E+03 -0.27646352474E+03  0.43130956018E+03  0.00000000000E+00 0. -1.
          1    1    6    6  503    0  0.10885463945E+03 -0.11771018299E+03 -0.37646825918E+03  0.40918622885E+03  0.00000000000E+00 0. -1.
         -1    1    6    6    0  503  0.18180151837E+03 -0.37893553275E+03 -0.78627865273E+03  0.89155933611E+03  0.00000000000E+00 0.  1.
<mgrwt>
<rscale>  0 0.19058672E+04</rscale>
<asrwt>0</asrwt>
<pdfrwt beam="1">  1        1 0.39385203E+00 0.19058672E+04</pdfrwt>
<pdfrwt beam="2">  1       -1 0.54571448E-01 0.19058672E+04</pdfrwt>
<totfact> 0.39068181E+00</totfact>
</mgrwt>
</event>
<event>
12    3  0.4634846E-008  0.1484156E+04  0.7818608E-02  0.8895058E-01
         -2   -1    0    0    0  501 -0.00000000000E+00  0.00000000000E+00  0.18105797099E+03  0.18105797099E+03  0.00000000000E+00 0.  1.
          2   -1    0    0  501    0  0.00000000000E+00 -0.00000000000E+00 -0.30414551898E+04  0.30414551898E+04  0.00000000000E+00 0. -1.
         23    2    1    2    0    0 -0.21613139607E+03 -0.12161804529E+02 -0.14517048456E+02  0.23546022577E+03  0.91488159708E+02 0.  0.
        254    2    1    2    0    0  0.21613139607E+03  0.12161804529E+02 -0.28458801703E+04  0.29870529350E+04  0.88124378168E+03 0.  0.
         23    2    4    4    0    0  0.42656441647E+03  0.16041854746E+03 -0.81706388307E+03  0.93994424822E+03  0.90611748532E+02 0.  0.
         23    2    4    4    0    0 -0.21043302040E+03 -0.14825674293E+03 -0.20288162873E+04  0.20471086868E+04  0.91084192591E+02 0.  0.
          4    1    3    3  502    0 -0.21414592159E+03  0.84087965716E+01 -0.14391946473E+02  0.21479364915E+03  0.00000000000E+00 0.  1.
         -4    1    3    3    0  502 -0.19854744810E+01 -0.20570601100E+02 -0.12510198293E+00  0.20666576617E+02  0.00000000000E+00 0. -1.
         13    1    5    5    0    0  0.11970243541E+03  0.16967236412E+02 -0.15823629691E+03  0.19913634981E+03  0.00000000000E+00 0. -1.
        -13    1    5    5    0    0  0.30686198106E+03  0.14345131104E+03 -0.65882758616E+03  0.74080789841E+03  0.00000000000E+00 0.  1.
          2    1    6    6  503    0 -0.18824947348E+03 -0.15875633954E+03 -0.17546273956E+04  0.17718235626E+04  0.00000000000E+00 0.  1.
         -2    1    6    6    0  503 -0.22183546921E+02  0.10499596609E+02 -0.27418889164E+03  0.27528512415E+03  0.00000000000E+00 0. -1.
<mgrwt>
<rscale>  0 0.14841559E+04</rscale>
<asrwt>0</asrwt>
<pdfrwt beam="1">  1        2 0.46791616E+00 0.14841559E+04</pdfrwt>
<pdfrwt beam="2">  1       -2 0.27855074E-01 0.14841559E+04</pdfrwt>
<totfact> 0.18817978E+01</totfact>
</mgrwt>
</event>
<event>
12    3  0.4634846E-008  0.1606970E+04  0.7818608E-02  0.8816277E-01
          2   -1    0    0  501    0  0.00000000000E+00  0.00000000000E+00  0.15311239555E+04  0.15311239555E+04  0.00000000000E+00 0.  1.
         -2   -1    0    0    0  501 -0.00000000000E+00 -0.00000000000E+00 -0.42164353050E+03  0.42164353050E+03  0.00000000000E+00 0. -1.
         23    2    1    2    0    0 -0.48247239454E+03 -0.74927297742E+02  0.49495307986E+03  0.70113310121E+03  0.90638639191E+02 0.  0.
        254    2    1    2    0    0  0.48247239454E+03  0.74927297742E+02  0.61452734512E+03  0.12516343848E+04  0.97496208326E+03 0.  0.
         23    2    4    4    0    0  0.72692682582E+03  0.24995641320E+03  0.40777986732E+03  0.87492372526E+03  0.91138829503E+02 0.  0.
         23    2    4    4    0    0 -0.24445443128E+03 -0.17502911546E+03  0.20674747780E+03  0.37671065951E+03  0.93665581622E+02 0.  0.
          3    1    3    3  502    0 -0.67298017651E+02 -0.17075649637E+02  0.12041859556E+03  0.13900086024E+03  0.00000000000E+00 0. -1.
         -3    1    3    3    0  502 -0.41517437689E+03 -0.57851648105E+02  0.37453448430E+03  0.56213224097E+03  0.00000000000E+00 0.  1.
         13    1    5    5    0    0  0.68570300216E+02  0.49216497024E+01  0.16010764948E+02  0.70586495179E+02  0.00000000000E+00 0. -1.
        -13    1    5    5    0    0  0.65835652560E+03  0.24503476350E+03  0.39176910237E+03  0.80433723009E+03  0.00000000000E+00 0.  1.
          1    1    6    6  503    0 -0.59438662553E+02 -0.97744185165E+02  0.74888055191E+02  0.13673003017E+03  0.00000000000E+00 0. -1.
         -1    1    6    6    0  503 -0.18501576872E+03 -0.77284930295E+02  0.13185942261E+03  0.23998062934E+03  0.00000000000E+00 0.  1.
<mgrwt>
<rscale>  0 0.16069705E+04</rscale>
<asrwt>0</asrwt>
<pdfrwt beam="1">  1        2 0.23555753E+00 0.16069705E+04</pdfrwt>
<pdfrwt beam="2">  1       -2 0.64868236E-01 0.16069705E+04</pdfrwt>
<totfact> 0.25616568E+01</totfact>
</mgrwt>
</event>
<event>
12    3  0.4634846E-008  0.1341902E+04  0.7818608E-02  0.8996981E-01
         -2   -1    0    0    0  501 -0.00000000000E+00  0.00000000000E+00  0.19464031598E+03  0.19464031598E+03  0.00000000000E+00 0. -1.
          2   -1    0    0  501    0  0.00000000000E+00 -0.00000000000E+00 -0.23128583756E+04  0.23128583756E+04  0.00000000000E+00 0.  1.
         23    2    1    2    0    0  0.15958802426E+03 -0.30980139554E+03 -0.66178498875E+03  0.75324020629E+03  0.89253542541E+02 0.  0.
        254    2    1    2    0    0 -0.15958802426E+03  0.30980139554E+03 -0.14564330708E+04  0.17542584853E+04  0.91366312235E+03 0.  0.
         23    2    4    4    0    0  0.12518005254E+02  0.60636674992E+03 -0.81003238101E+03  0.10160770106E+04  0.91775253906E+02 0.  0.
         23    2    4    4    0    0 -0.17210602951E+03 -0.29656535437E+03 -0.64640068983E+03  0.73818147472E+03  0.97501502530E+02 0.  0.
          1    1    3    3  502    0  0.79795661412E+02 -0.18127553390E+03 -0.28355152083E+03  0.34587516785E+03  0.00000000000E+00 0. -1.
         -1    1    3    3    0  502  0.79792362848E+02 -0.12852586164E+03 -0.37823346793E+03  0.40736503844E+03  0.00000000000E+00 0.  1.
         13    1    5    5    0    0 -0.34519102693E+02  0.12650130181E+03 -0.16543144979E+03  0.21109645281E+03  0.00000000000E+00 0.  1.
        -13    1    5    5    0    0  0.47037107947E+02  0.47986544811E+03 -0.64460093122E+03  0.80498055774E+03  0.00000000000E+00 0. -1.
          3    1    6    6  503    0 -0.17519002794E+03 -0.30081776113E+03 -0.61801068334E+03  0.70930957700E+03  0.00000000000E+00 0. -1.
         -3    1    6    6    0  503  0.30839984263E+01  0.42524067538E+01 -0.28390006487E+02  0.28871897718E+02  0.00000000000E+00 0.  1.
<mgrwt>
<rscale>  0 0.13419024E+04</rscale>
<asrwt>0</asrwt>
<pdfrwt beam="1">  1        2 0.35582436E+00 0.13419024E+04</pdfrwt>
<pdfrwt beam="2">  1       -2 0.29944664E-01 0.13419024E+04</pdfrwt>
<totfact> 0.44951690E+01</totfact>
</mgrwt>
</event>
<event>
12    3  0.4634846E-008  0.2612126E+04  0.7818608E-02  0.8364094E-01
          1   -1    0    0  501    0  0.00000000000E+00  0.00000000000E+00  0.11569364880E+04  0.11569364880E+04  0.00000000000E+00 0. -1.
         -1   -1    0    0    0  501 -0.00000000000E+00 -0.00000000000E+00 -0.14744117289E+04  0.14744117289E+04  0.00000000000E+00 0.  1.
         23    2    1    2    0    0  0.72530350380E+03 -0.84664584164E+03  0.13649778307E+03  0.11270758807E+04  0.93776554767E+02 0.  0.
        254    2    1    2    0    0 -0.72530350380E+03  0.84664584164E+03 -0.45397302398E+03  0.15042723362E+04  0.90214710621E+03 0.  0.
         23    2    4    4    0    0  0.11165760460E+03  0.49308234092E+03 -0.92544500909E+02  0.52226478826E+03  0.92727605459E+02 0.  0.
         23    2    4    4    0    0 -0.83696110839E+03  0.35356350072E+03 -0.36142852307E+03  0.98200754796E+03  0.90538394961E+02 0.  0.
          3    1    3    3  502    0  0.71741014218E+02 -0.74876909423E+02  0.40058431422E+02  0.11116655349E+03  0.00000000000E+00 0. -1.
         -3    1    3    3    0  502  0.65356248958E+03 -0.77176893222E+03  0.96439351653E+02  0.10159093272E+04  0.00000000000E+00 0.  1.
         13    1    5    5    0    0  0.12322703915E+03  0.36276045074E+03 -0.72050440325E+02  0.38983498272E+03  0.00000000000E+00 0. -1.
        -13    1    5    5    0    0 -0.11569434557E+02  0.13032189018E+03 -0.20494060584E+02  0.13242980554E+03  0.00000000000E+00 0.  1.
          2    1    6    6  503    0 -0.50001396437E+03  0.24992119046E+03 -0.19360430683E+03  0.59157179922E+03  0.00000000000E+00 0. -1.
         -2    1    6    6    0  503 -0.33694714403E+03  0.10364231026E+03 -0.16782421624E+03  0.39043574875E+03  0.00000000000E+00 0.  1.
<mgrwt>
<rscale>  0 0.26121261E+04</rscale>
<asrwt>0</asrwt>
<pdfrwt beam="1">  1        1 0.17799023E+00 0.26121261E+04</pdfrwt>
<pdfrwt beam="2">  1       -1 0.22683257E+00 0.26121261E+04</pdfrwt>
<totfact> 0.10020341E+00</totfact>
</mgrwt>
</event>
<event>
12    3  0.4634846E-008  0.1813516E+04  0.7818608E-02  0.8699145E-01
          1   -1    0    0  501    0  0.00000000000E+00  0.00000000000E+00  0.14741352271E+04  0.14741352271E+04  0.00000000000E+00 0. -1.
         -1   -1    0    0    0  501 -0.00000000000E+00 -0.00000000000E+00 -0.55775728715E+03  0.55775728715E+03  0.00000000000E+00 0.  1.
         23    2    1    2    0    0  0.38136418222E+03 -0.63580578774E+02 -0.28091850667E+03  0.48645284252E+03  0.90774617176E+02 0.  0.
        254    2    1    2    0    0 -0.38136418222E+03  0.63580578774E+02  0.11972964466E+04  0.15454396717E+04  0.89743181824E+03 0.  0.
         23    2    4    4    0    0 -0.58900805336E+03  0.28429155046E+03  0.82297254147E+03  0.10551663364E+04  0.91323714620E+02 0.  0.
         23    2    4    4    0    0  0.20764387114E+03 -0.22071097169E+03  0.37432390514E+03  0.49027333533E+03  0.91761904578E+02 0.  0.
          1    1    3    3  502    0  0.91270355919E+02 -0.53409104085E+02 -0.59215571425E+02  0.12119939838E+03  0.00000000000E+00 0. -1.
         -1    1    3    3    0  502  0.29009382630E+03 -0.10171474689E+02 -0.22170293524E+03  0.36525344414E+03  0.00000000000E+00 0.  1.
         13    1    5    5    0    0 -0.39376339415E+03  0.16502785095E+03  0.59362916274E+03  0.73121774118E+03  0.00000000000E+00 0. -1.
        -13    1    5    5    0    0 -0.19524465922E+03  0.11926369951E+03  0.22934337873E+03  0.32394859522E+03  0.00000000000E+00 0.  1.
          2    1    6    6  503    0  0.20842068945E+03 -0.18051046748E+03  0.31525733208E+03  0.41882024556E+03  0.00000000000E+00 0. -1.
         -2    1    6    6    0  503 -0.77681830319E+00 -0.40200504206E+02  0.59066573060E+02  0.71453089773E+02  0.00000000000E+00 0.  1.
<mgrwt>
<rscale>  0 0.18135156E+04</rscale>
<asrwt>0</asrwt>
<pdfrwt beam="1">  1        1 0.22679003E+00 0.18135156E+04</pdfrwt>
<pdfrwt beam="2">  1       -1 0.85808814E-01 0.18135156E+04</pdfrwt>
<totfact> 0.86184171E+00</totfact>
</mgrwt>
</event>
<event>
12    3  0.4634846E-008  0.2193293E+04  0.7818608E-02  0.8521225E-01
          1   -1    0    0  501    0  0.00000000000E+00  0.00000000000E+00  0.14842372534E+04  0.14842372534E+04  0.00000000000E+00 0. -1.
         -1   -1    0    0    0  501 -0.00000000000E+00 -0.00000000000E+00 -0.81027031793E+03  0.81027031793E+03  0.00000000000E+00 0.  1.
         23    2    1    2    0    0  0.23101053479E+02  0.90269389702E+03  0.15368047660E+03  0.92213071028E+03  0.10638339892E+03 0.  0.
        254    2    1    2    0    0 -0.23101053479E+02 -0.90269389702E+03  0.52028645887E+03  0.13723768610E+04  0.89293354683E+03 0.  0.
         23    2    4    4    0    0 -0.36427858422E+02 -0.90368326823E+03  0.68767393275E+02  0.91150174652E+03  0.90200007693E+02 0.  0.
         23    2    4    4    0    0  0.13326804943E+02  0.98937120638E+00  0.45151906560E+03  0.46087511452E+03  0.91421124490E+02 0.  0.
          1    1    3    3  502    0  0.29824944087E+02  0.90195468363E+03  0.15197636011E+03  0.91515495553E+03  0.00000000000E+00 0. -1.
         -1    1    3    3    0  502 -0.67238906080E+01  0.73921339872E+00  0.17041164844E+01  0.69757547512E+01  0.00000000000E+00 0.  1.
         13    1    5    5    0    0  0.11384444392E+02 -0.53682872043E+03  0.11002848635E+02  0.53706214103E+03  0.00000000000E+00 0.  1.
        -13    1    5    5    0    0 -0.47812302814E+02 -0.36685454780E+03  0.57764544640E+02  0.37443960549E+03  0.00000000000E+00 0. -1.
          1    1    6    6  503    0  0.52065577498E+01 -0.25260070323E+02  0.35132362026E+02  0.43582820673E+02  0.00000000000E+00 0. -1.
         -1    1    6    6    0  503  0.81202471930E+01  0.26249441529E+02  0.41638670357E+03  0.41729229385E+03  0.00000000000E+00 0.  1.
<mgrwt>
<rscale>  0 0.21932929E+04</rscale>
<asrwt>0</asrwt>
<pdfrwt beam="1">  1        1 0.22834419E+00 0.21932929E+04</pdfrwt>
<pdfrwt beam="2">  1       -1 0.12465697E+00 0.21932929E+04</pdfrwt>
<totfact> 0.34484961E+00</totfact>
</mgrwt>
</event>
<event>
12    3  0.4634846E-008  0.3005255E+04  0.7818608E-02  0.8242232E-01
          2   -1    0    0  501    0  0.00000000000E+00  0.00000000000E+00  0.64299787822E+03  0.64299787822E+03  0.00000000000E+00 0. -1.
         -2   -1    0    0    0  501 -0.00000000000E+00 -0.00000000000E+00 -0.35115033982E+04  0.35115033982E+04  0.00000000000E+00 0.  1.
         23    2    1    2    0    0 -0.84449265292E+03  0.91986936143E+03 -0.20610520933E+04  0.24114733755E+04  0.89110194927E+02 0.  0.
        254    2    1    2    0    0  0.84449265292E+03 -0.91986936143E+03 -0.80745342675E+03  0.17430279009E+04  0.90930618829E+03 0.  0.
         23    2    4    4    0    0  0.33836793619E+03  0.74927620443E+01 -0.54912881675E+03  0.65162140829E+03  0.92298432473E+02 0.  0.
         23    2    4    4    0    0  0.50612471674E+03 -0.92736212347E+03 -0.25832461000E+03  0.10914064926E+04  0.90960381810E+02 0.  0.
          1    1    3    3  502    0 -0.41690561183E+03  0.42910363905E+03 -0.10666145512E+04  0.12229500493E+04  0.00000000000E+00 0. -1.
         -1    1    3    3    0  502 -0.42758704110E+03  0.49076572238E+03 -0.99443754207E+03  0.11885233263E+04  0.00000000000E+00 0.  1.
         13    1    5    5    0    0  0.69294562964E+02  0.21143084231E+01 -0.53246175142E+02  0.87414883880E+02  0.00000000000E+00 0.  1.
        -13    1    5    5    0    0  0.26907337322E+03  0.53784536212E+01 -0.49588264161E+03  0.56420652441E+03  0.00000000000E+00 0. -1.
          4    1    6    6  503    0  0.49005913490E+03 -0.85168404722E+03 -0.23139155171E+03  0.10094878514E+04  0.00000000000E+00 0. -1.
         -4    1    6    6    0  503  0.16065581834E+02 -0.75678076254E+02 -0.26933058289E+02  0.81918641187E+02  0.00000000000E+00 0.  1.
<mgrwt>
<rscale>  0 0.30052549E+04</rscale>
<asrwt>0</asrwt>
<pdfrwt beam="1">  1        2 0.98922753E-01 0.30052549E+04</pdfrwt>
<pdfrwt beam="2">  1       -2 0.54023128E+00 0.30052549E+04</pdfrwt>
<totfact> 0.37232362E-02</totfact>
</mgrwt>
</event>
<event>
12    3  0.4634846E-008  0.1857884E+04  0.7818608E-02  0.8676109E-01
         -3   -1    0    0    0  501 -0.00000000000E+00  0.00000000000E+00  0.15032185118E+04  0.15032185118E+04  0.00000000000E+00 0.  1.
          3   -1    0    0  501    0  0.00000000000E+00 -0.00000000000E+00 -0.57405725620E+03  0.57405725620E+03  0.00000000000E+00 0. -1.
         23    2    1    2    0    0 -0.81205920274E+02  0.21989831883E+03  0.11055078725E+04  0.11334786833E+04  0.87616192573E+02 0.  0.
        254    2    1    2    0    0  0.81205920274E+02 -0.21989831883E+03 -0.17634661690E+03  0.94379708470E+03  0.89705358574E+03 0.  0.
         23    2    4    4    0    0  0.12559297148E+03 -0.26062722756E+03 -0.50887347969E+03  0.59287896999E+03  0.94090958618E+02 0.  0.
         23    2    4    4    0    0 -0.44387051204E+02  0.40728908730E+02  0.33252686278E+03  0.35091811471E+03  0.94553447525E+02 0.  0.
          1    1    3    3  502    0 -0.20977777589E+02  0.29982242617E+02  0.70099829840E+02  0.79075838083E+02  0.00000000000E+00 0. -1.
         -1    1    3    3    0  502 -0.60228142685E+02  0.18991607622E+03  0.10354080427E+04  0.10544028452E+04  0.00000000000E+00 0.  1.
         13    1    5    5    0    0  0.14061597604E+03 -0.22439725387E+03 -0.43597443645E+03  0.51009870565E+03  0.00000000000E+00 0.  1.
        -13    1    5    5    0    0 -0.15023004563E+02 -0.36229973689E+02 -0.72899043238E+02  0.82780264343E+02  0.00000000000E+00 0. -1.
          2    1    6    6  503    0 -0.89067058816E+01 -0.12701201167E+02  0.22629469753E+03  0.22682579230E+03  0.00000000000E+00 0. -1.
         -2    1    6    6    0  503 -0.35480345322E+02  0.53430109898E+02  0.10623216525E+03  0.12409232242E+03  0.00000000000E+00 0.  1.
<mgrwt>
<rscale>  0 0.18578843E+04</rscale>
<asrwt>0</asrwt>
<pdfrwt beam="1">  1        3 0.88316502E-01 0.18578843E+04</pdfrwt>
<pdfrwt beam="2">  1       -3 0.23126438E+00 0.18578843E+04</pdfrwt>
<totfact> 0.26970227E-01</totfact>
</mgrwt>
</event>
<event>
12    3  0.4634846E-008  0.1172381E+04  0.7818608E-02  0.9137381E-01
         -2   -1    0    0    0  501 -0.00000000000E+00  0.00000000000E+00  0.32560883391E+03  0.32560883391E+03  0.00000000000E+00 0.  1.
          2   -1    0    0  501    0  0.00000000000E+00 -0.00000000000E+00 -0.10553129938E+04  0.10553129938E+04  0.00000000000E+00 0. -1.
         23    2    1    2    0    0 -0.22897183137E+03  0.11323548791E+03 -0.47076393788E+03  0.54312832121E+03  0.90107229497E+02 0.  0.
        254    2    1    2    0    0  0.22897183137E+03 -0.11323548791E+03 -0.25894022203E+03  0.83779350651E+03  0.75471686458E+03 0.  0.
         23    2    4    4    0    0  0.33093697823E+01 -0.32582655761E+03  0.10413317525E+03  0.35215837156E+03  0.83653469154E+02 0.  0.
         23    2    4    4    0    0  0.22566246159E+03  0.21259106970E+03 -0.36307339728E+03  0.48563513495E+03  0.88885786234E+02 0.  0.
          4    1    3    3  502    0 -0.17509930535E+03  0.11262136420E+03 -0.30869001635E+03  0.37233434518E+03  0.00000000000E+00 0. -1.
         -4    1    3    3    0  502 -0.53872526027E+02  0.61412371683E+00 -0.16207392153E+03  0.17079397603E+03  0.00000000000E+00 0.  1.
         13    1    5    5    0    0  0.22811931274E+02 -0.14378064210E+03  0.90675406690E+01  0.14586115846E+03  0.00000000000E+00 0.  1.
        -13    1    5    5    0    0 -0.19502561492E+02 -0.18204591551E+03  0.95065634581E+02  0.20629721311E+03  0.00000000000E+00 0. -1.
          1    1    6    6  503    0  0.22377578615E+03  0.18114490726E+03 -0.30404961659E+03  0.41873052103E+03  0.00000000000E+00 0. -1.
         -1    1    6    6    0  503  0.18866754407E+01  0.31446162443E+02 -0.59023780687E+02  0.66904613916E+02  0.00000000000E+00 0.  1.
<mgrwt>
<rscale>  0 0.11723809E+04</rscale>
<asrwt>0</asrwt>
<pdfrwt beam="1">  1        2 0.16235585E+00 0.11723809E+04</pdfrwt>
<pdfrwt beam="2">  1       -2 0.50093666E-01 0.11723809E+04</pdfrwt>
<totfact> 0.86541195E+01</totfact>
</mgrwt>
</event>
<event>
12    3  0.4634846E-008  0.1202136E+04  0.7818608E-02  0.9110989E-01
         -2   -1    0    0    0  501 -0.00000000000E+00  0.00000000000E+00  0.43789364787E+03  0.43789364787E+03  0.00000000000E+00 0.  1.
          2   -1    0    0  501    0  0.00000000000E+00 -0.00000000000E+00 -0.82504622459E+03  0.82504622459E+03  0.00000000000E+00 0. -1.
         23    2    1    2    0    0 -0.15762808442E+02 -0.84060735158E+02  0.13369104349E+03  0.18331601513E+03  0.91743081319E+02 0.  0.
        254    2    1    2    0    0  0.15762808442E+02  0.84060735158E+02 -0.52084362021E+03  0.10796238573E+04  0.94180407904E+03 0.  0.
         23    2    4    4    0    0  0.23921039940E+03 -0.25428955765E+03 -0.55574040421E+03  0.66264198048E+03  0.91445082483E+02 0.  0.
         23    2    4    4    0    0 -0.22344759096E+03  0.33835029281E+03  0.34896784005E+02  0.41698187685E+03  0.90809435312E+02 0.  0.
          3    1    3    3  502    0 -0.21866856610E+02 -0.52083376297E+02  0.12533857510E+02  0.57861343647E+02  0.00000000000E+00 0. -1.
         -3    1    3    3    0  502  0.61040481680E+01 -0.31977358861E+02  0.12115718598E+03  0.12545467148E+03  0.00000000000E+00 0.  1.
         13    1    5    5    0    0  0.50399071309E+02 -0.55350311038E+02 -0.59401945591E+02  0.95563143841E+02  0.00000000000E+00 0.  1.
        -13    1    5    5    0    0  0.18881132810E+03 -0.19893924661E+03 -0.49633845862E+03  0.56707883664E+03  0.00000000000E+00 0. -1.
          1    1    6    6  503    0 -0.17769630256E+03  0.23808361730E+03 -0.11720724229E+02  0.29731659918E+03  0.00000000000E+00 0. -1.
         -1    1    6    6    0  503 -0.45751288406E+02  0.10026667550E+03  0.46617508234E+02  0.11966527768E+03  0.00000000000E+00 0.  1.
<mgrwt>
<rscale>  0 0.12021356E+04</rscale>
<asrwt>0</asrwt>
<pdfrwt beam="1">  1        2 0.12693019E+00 0.12021356E+04</pdfrwt>
<pdfrwt beam="2">  1       -2 0.67368254E-01 0.12021356E+04</pdfrwt>
<totfact> 0.65917057E+01</totfact>
</mgrwt>
</event>
<event>
12    3  0.4634846E-008  0.2170433E+04  0.7818608E-02  0.8530836E-01
         -1   -1    0    0    0  501 -0.00000000000E+00  0.00000000000E+00  0.43151655296E+03  0.43151655296E+03  0.00000000000E+00 0.  1.
          1   -1    0    0  501    0  0.00000000000E+00 -0.00000000000E+00 -0.27291986399E+04  0.27291986399E+04  0.00000000000E+00 0. -1.
         23    2    1    2    0    0  0.17405459659E+03  0.34548241033E+03 -0.21229100164E+04  0.21597656027E+04  0.90484376732E+02 0.  0.
        254    2    1    2    0    0 -0.17405459659E+03 -0.34548241033E+03 -0.17477207049E+03  0.10009495901E+04  0.90647763727E+03 0.  0.
         23    2    4    4    0    0 -0.37298738082E+03 -0.52181659983E+02  0.23431916627E+03  0.45190516154E+03  0.86430847873E+02 0.  0.
         23    2    4    4    0    0  0.19893278423E+03 -0.29330075034E+03 -0.40909123675E+03  0.54904442856E+03  0.92165946833E+02 0.  0.
          2    1    3    3  502    0  0.16173721563E+03  0.23318249238E+03 -0.15677659428E+04  0.15932429360E+04  0.00000000000E+00 0. -1.
         -2    1    3    3    0  502  0.12317380961E+02  0.11229991795E+03 -0.55514407364E+03  0.56652266675E+03  0.00000000000E+00 0.  1.
         13    1    5    5    0    0 -0.71843670535E+02 -0.42503958405E+02  0.68549584061E+02  0.10801455898E+03  0.00000000000E+00 0.  1.
        -13    1    5    5    0    0 -0.30114371028E+03 -0.96777015777E+01  0.16576958221E+03  0.34389060257E+03  0.00000000000E+00 0. -1.
          1    1    6    6  503    0  0.20159929512E+03 -0.25747420195E+03 -0.38784848527E+03  0.50730827708E+03  0.00000000000E+00 0. -1.
         -1    1    6    6    0  503 -0.26665108990E+01 -0.35826548395E+02 -0.21242751481E+02  0.41736151485E+02  0.00000000000E+00 0.  1.
<mgrwt>
<rscale>  0 0.21704326E+04</rscale>
<asrwt>0</asrwt>
<pdfrwt beam="1">  1        1 0.41987671E+00 0.21704326E+04</pdfrwt>
<pdfrwt beam="2">  1       -1 0.66387163E-01 0.21704326E+04</pdfrwt>
<totfact> 0.19675847E+00</totfact>
</mgrwt>
</event>
<event>
12    3  0.4634846E-008  0.2578586E+04  0.7818608E-02  0.8375512E-01
         -1   -1    0    0    0  501 -0.00000000000E+00  0.00000000000E+00  0.82317407102E+03  0.82317407102E+03  0.00000000000E+00 0.  1.
          1   -1    0    0  501    0  0.00000000000E+00 -0.00000000000E+00 -0.20193494313E+04  0.20193494313E+04  0.00000000000E+00 0. -1.
         23    2    1    2    0    0 -0.36290096081E+03 -0.83976295962E+02  0.65085423057E+03  0.75478288595E+03  0.85655413321E+02 0.  0.
        254    2    1    2    0    0  0.36290096081E+03  0.83976295962E+02 -0.18470295909E+04  0.20877406164E+04  0.89910702707E+03 0.  0.
         23    2    4    4    0    0  0.88793405759E+02 -0.22900800371E+03 -0.85903916280E+02  0.27588438798E+03  0.91672122420E+02 0.  0.
         23    2    4    4    0    0  0.27410755505E+03  0.31298429967E+03 -0.17611256746E+04  0.18118562284E+04  0.90361646411E+02 0.  0.
          2    1    3    3  502    0 -0.19313626283E+03 -0.12896472127E+01  0.34247669115E+03  0.39318387962E+03  0.00000000000E+00 0. -1.
         -2    1    3    3    0  502 -0.16976469798E+03 -0.82686648750E+02  0.30837753941E+03  0.36159900633E+03  0.00000000000E+00 0.  1.
         13    1    5    5    0    0  0.51486054674E+01 -0.10886744408E+03 -0.67853707350E+02  0.12838517874E+03  0.00000000000E+00 0.  1.
        -13    1    5    5    0    0  0.83644800291E+02 -0.12014055963E+03 -0.18050208930E+02  0.14749920924E+03  0.00000000000E+00 0. -1.
          2    1    6    6  503    0  0.19728413794E+03  0.26998552101E+03 -0.14782301135E+04  0.15155782662E+04  0.00000000000E+00 0. -1.
         -2    1    6    6    0  503  0.76823417113E+02  0.42998778664E+02 -0.28289556116E+03  0.29627796224E+03  0.00000000000E+00 0.  1.
<mgrwt>
<rscale>  0 0.25785857E+04</rscale>
<asrwt>0</asrwt>
<pdfrwt beam="1">  1        1 0.31066914E+00 0.25785857E+04</pdfrwt>
<pdfrwt beam="2">  1       -1 0.12664217E+00 0.25785857E+04</pdfrwt>
<totfact> 0.13816412E+00</totfact>
</mgrwt>
</event>
<event>
12    3  0.4634846E-008  0.1366750E+04  0.7818608E-02  0.8978245E-01
          2   -1    0    0  501    0  0.00000000000E+00  0.00000000000E+00  0.28990700352E+04  0.28990700352E+04  0.00000000000E+00 0.  1.
         -2   -1    0    0    0  501 -0.00000000000E+00 -0.00000000000E+00 -0.16108656856E+03  0.16108656856E+03  0.00000000000E+00 0. -1.
         23    2    1    2    0    0  0.75552177073E+02 -0.42359664741E+02  0.16158614926E+04  0.16198527589E+04  0.73567142993E+02 0.  0.
        254    2    1    2    0    0 -0.75552177073E+02  0.42359664741E+02  0.11221219740E+04  0.14403038448E+04  0.89878527370E+03 0.  0.
         23    2    4    4    0    0  0.30827729742E+03  0.28145182397E+03  0.67149392597E+03  0.79566447213E+03  0.89038408962E+02 0.  0.
         23    2    4    4    0    0 -0.38382947449E+03 -0.23909215923E+03  0.45062804799E+03  0.64463937266E+03  0.89465954780E+02 0.  0.
          1    1    3    3  502    0  0.13924558712E+02  0.20872207773E+02  0.31448069797E+03  0.31548003390E+03  0.00000000000E+00 0. -1.
         -1    1    3    3    0  502  0.61627618362E+02 -0.63231872514E+02  0.13013807947E+04  0.13043727250E+04  0.00000000000E+00 0.  1.
         13    1    5    5    0    0  0.16799985257E+03  0.21115181134E+03  0.43218420653E+03  0.50950193942E+03  0.00000000000E+00 0.  1.
        -13    1    5    5    0    0  0.14027744484E+03  0.70300012630E+02  0.23930971944E+03  0.28616253271E+03  0.00000000000E+00 0. -1.
          3    1    6    6  503    0 -0.56792795074E+01 -0.41593974666E+01 -0.41993967681E+01  0.81969345627E+01  0.00000000000E+00 0. -1.
         -3    1    6    6    0  503 -0.37815019498E+03 -0.23493276176E+03  0.45482744475E+03  0.63644243810E+03  0.00000000000E+00 0.  1.
<mgrwt>
<rscale>  0 0.13667498E+04</rscale>
<asrwt>0</asrwt>
<pdfrwt beam="1">  1        2 0.44601074E+00 0.13667498E+04</pdfrwt>
<pdfrwt beam="2">  1       -2 0.24782551E-01 0.13667498E+04</pdfrwt>
<totfact> 0.28849779E+01</totfact>
</mgrwt>
</event>
<event>
12    3  0.4634846E-008  0.1823452E+04  0.7818608E-02  0.8693926E-01
         -1   -1    0    0    0  501 -0.00000000000E+00  0.00000000000E+00  0.45500800123E+03  0.45500800123E+03  0.00000000000E+00 0.  1.
          1   -1    0    0  501    0  0.00000000000E+00 -0.00000000000E+00 -0.18268784737E+04  0.18268784737E+04  0.00000000000E+00 0. -1.
         23    2    1    2    0    0 -0.33312577289E+03 -0.29893704672E+03 -0.11679575341E+04  0.12540952547E+04  0.91071224072E+02 0.  0.
        254    2    1    2    0    0  0.33312577289E+03  0.29893704672E+03 -0.20391293837E+03  0.10277912203E+04  0.90246228041E+03 0.  0.
         23    2    4    4    0    0 -0.19933490288E+03  0.31598143655E+03  0.11258753127E+03  0.40054254001E+03  0.90441707262E+02 0.  0.
         23    2    4    4    0    0  0.53246067576E+03 -0.17044389839E+02 -0.31650046964E+03  0.62724868025E+03  0.97280404691E+02 0.  0.
          3    1    3    3  502    0 -0.26722097135E+03 -0.21608919759E+03 -0.97811346948E+03  0.10367292549E+04  0.00000000000E+00 0. -1.
         -3    1    3    3    0  502 -0.65904801536E+02 -0.82847849128E+02 -0.18984406461E+03  0.21736599973E+03  0.00000000000E+00 0.  1.
         13    1    5    5    0    0 -0.16732057546E+03  0.26309480657E+03  0.12765099211E+03  0.33691219628E+03  0.00000000000E+00 0. -1.
        -13    1    5    5    0    0 -0.32014327419E+02  0.52886629988E+02 -0.15063460842E+02  0.63630343737E+02  0.00000000000E+00 0.  1.
          4    1    6    6  503    0  0.22918871038E+03  0.78784963547E+01 -0.18960348166E+03  0.29755506369E+03  0.00000000000E+00 0. -1.
         -4    1    6    6    0  503  0.30327196538E+03 -0.24922886194E+02 -0.12689698798E+03  0.32969361656E+03  0.00000000000E+00 0.  1.
<mgrwt>
<rscale>  0 0.18234520E+04</rscale>
<asrwt>0</asrwt>
<pdfrwt beam="1">  1        1 0.28105822E+00 0.18234520E+04</pdfrwt>
<pdfrwt beam="2">  1       -1 0.70001232E-01 0.18234520E+04</pdfrwt>
<totfact> 0.75890547E+00</totfact>
</mgrwt>
</event>
<event>
12    3  0.4634846E-008  0.1903207E+04  0.7818608E-02  0.8653262E-01
         -1   -1    0    0    0  501 -0.00000000000E+00  0.00000000000E+00  0.97116838010E+03  0.97116838010E+03  0.00000000000E+00 0.  1.
          1   -1    0    0  501    0  0.00000000000E+00 -0.00000000000E+00 -0.93243279839E+03  0.93243279839E+03  0.00000000000E+00 0. -1.
         23    2    1    2    0    0 -0.40876915339E+03  0.71471690115E+02 -0.59355100865E+03  0.72974158892E+03  0.89552015469E+02 0.  0.
        254    2    1    2    0    0  0.40876915339E+03 -0.71471690115E+02  0.63228659035E+03  0.11738595896E+04  0.89775251626E+03 0.  0.
         23    2    4    4    0    0 -0.22888446127E+03  0.11762979395E+03  0.35071652649E+03  0.44580037309E+03  0.97524487449E+02 0.  0.
         23    2    4    4    0    0  0.63765361466E+03 -0.18910148407E+03  0.28157006386E+03  0.72805921649E+03  0.91798792446E+02 0.  0.
          1    1    3    3  502    0 -0.25830133279E+03  0.13389013663E+02 -0.41616330802E+03  0.48999055415E+03  0.00000000000E+00 0. -1.
         -1    1    3    3    0  502 -0.15046782060E+03  0.58082676452E+02 -0.17738770063E+03  0.23975103477E+03  0.00000000000E+00 0.  1.
         13    1    5    5    0    0 -0.20911159960E+03  0.68141403998E+02  0.25956401622E+03  0.34021227277E+03  0.00000000000E+00 0. -1.
        -13    1    5    5    0    0 -0.19772861662E+02  0.49488389954E+02  0.91152510278E+02  0.10558810032E+03  0.00000000000E+00 0.  1.
          4    1    6    6  503    0  0.46162527118E+03 -0.15900718015E+03  0.16759976580E+03  0.51620815164E+03  0.00000000000E+00 0. -1.
         -4    1    6    6    0  503  0.17602834348E+03 -0.30094303917E+02  0.11397029806E+03  0.21185106485E+03  0.00000000000E+00 0.  1.
<mgrwt>
<rscale>  0 0.19032070E+04</rscale>
<asrwt>0</asrwt>
<pdfrwt beam="1">  1        1 0.14345120E+00 0.19032070E+04</pdfrwt>
<pdfrwt beam="2">  1       -1 0.14941052E+00 0.19032070E+04</pdfrwt>
<totfact> 0.56481459E+00</totfact>
</mgrwt>
</event>
<event>
12    3  0.4634846E-008  0.2465378E+04  0.7818608E-02  0.8415425E-01
          2   -1    0    0  501    0  0.00000000000E+00  0.00000000000E+00  0.17087528251E+04  0.17087528251E+04  0.00000000000E+00 0. -1.
         -2   -1    0    0    0  501 -0.00000000000E+00 -0.00000000000E+00 -0.88925828022E+03  0.88925828022E+03  0.00000000000E+00 0.  1.
         23    2    1    2    0    0 -0.27486441719E+03  0.10196551983E+04  0.28838479639E+03  0.10984757110E+04  0.90752000114E+02 0.  0.
        254    2    1    2    0    0  0.27486441719E+03 -0.10196551983E+04  0.53110974848E+03  0.14995353943E+04  0.92264926307E+03 0.  0.
         23    2    4    4    0    0 -0.53813293857E+02 -0.38913672824E+03 -0.22167769083E+03  0.45982677782E+03  0.89310711139E+02 0.  0.
         23    2    4    4    0    0  0.32867771104E+03 -0.63051847008E+03  0.75278743931E+03  0.10397086165E+04  0.93394323347E+02 0.  0.
          1    1    3    3  502    0 -0.11934242828E+03  0.36744213828E+03  0.14614490845E+03  0.41305529223E+03  0.00000000000E+00 0. -1.
         -1    1    3    3    0  502 -0.15552198890E+03  0.65221306004E+03  0.14223988795E+03  0.68542041875E+03  0.00000000000E+00 0.  1.
         13    1    5    5    0    0 -0.17213176382E+02 -0.22233784499E+02 -0.39680301412E+02  0.48632920275E+02  0.00000000000E+00 0.  1.
        -13    1    5    5    0    0 -0.36600117475E+02 -0.36690294374E+03 -0.18199738942E+03  0.41119385754E+03  0.00000000000E+00 0. -1.
          3    1    6    6  503    0  0.30586353166E+03 -0.52130619112E+03  0.65620000939E+03  0.89213849667E+03  0.00000000000E+00 0. -1.
         -3    1    6    6    0  503  0.22814179381E+02 -0.10921227896E+03  0.96587429915E+02  0.14757011985E+03  0.00000000000E+00 0.  1.
<mgrwt>
<rscale>  0 0.24653783E+04</rscale>
<asrwt>0</asrwt>
<pdfrwt beam="1">  1        2 0.26288505E+00 0.24653783E+04</pdfrwt>
<pdfrwt beam="2">  1       -2 0.13680897E+00 0.24653783E+04</pdfrwt>
<totfact> 0.33075938E+00</totfact>
</mgrwt>
</event>
<event>
12    3  0.4634846E-008  0.2290653E+04  0.7818608E-02  0.8481616E-01
          1   -1    0    0  501    0  0.00000000000E+00  0.00000000000E+00  0.18297553442E+04  0.18297553442E+04  0.00000000000E+00 0. -1.
         -1   -1    0    0    0  501 -0.00000000000E+00 -0.00000000000E+00 -0.71691126970E+03  0.71691126970E+03  0.00000000000E+00 0.  1.
         23    2    1    2    0    0 -0.23783815239E+03  0.57172529281E+03 -0.34729240853E+03  0.71569876154E+03  0.90420700467E+02 0.  0.
        254    2    1    2    0    0  0.23783815239E+03 -0.57172529281E+03  0.14601364831E+04  0.18309678524E+04  0.91488137492E+03 0.  0.
         23    2    4    4    0    0 -0.22875559956E+03 -0.53720030099E+03  0.56790254197E+03  0.81970828124E+03  0.92168766123E+02 0.  0.
         23    2    4    4    0    0  0.46659375195E+03 -0.34524991827E+02  0.89223394108E+03  0.10112595712E+04  0.87537478877E+02 0.  0.
          1    1    3    3  502    0 -0.10144078784E+03  0.15859863203E+03 -0.13458582265E+03  0.23142407649E+03  0.00000000000E+00 0. -1.
         -1    1    3    3    0  502 -0.13639736455E+03  0.41312666078E+03 -0.21270658588E+03  0.48427468505E+03  0.00000000000E+00 0.  1.
         13    1    5    5    0    0 -0.40270470482E+02 -0.20458549505E+03  0.21274729763E+03  0.29788982565E+03  0.00000000000E+00 0.  1.
        -13    1    5    5    0    0 -0.18848512908E+03 -0.33261480594E+03  0.35515524435E+03  0.52181845560E+03  0.00000000000E+00 0. -1.
          4    1    6    6  503    0  0.16122754767E+03 -0.49717740320E+02  0.27937489819E+03  0.32636867124E+03  0.00000000000E+00 0. -1.
         -4    1    6    6    0  503  0.30536620428E+03  0.15192748494E+02  0.61285904289E+03  0.68489089991E+03  0.00000000000E+00 0.  1.
<mgrwt>
<rscale>  0 0.22906525E+04</rscale>
<asrwt>0</asrwt>
<pdfrwt beam="1">  1        1 0.28150082E+00 0.22906525E+04</pdfrwt>
<pdfrwt beam="2">  1       -1 0.11029404E+00 0.22906525E+04</pdfrwt>
<totfact> 0.26673565E+00</totfact>
</mgrwt>
</event>
<event>
12    3  0.4634846E-008  0.1781741E+04  0.7818608E-02  0.8716070E-01
         -1   -1    0    0    0  501 -0.00000000000E+00  0.00000000000E+00  0.62614486944E+03  0.62614486944E+03  0.00000000000E+00 0.  1.
          1   -1    0    0  501    0  0.00000000000E+00 -0.00000000000E+00 -0.12675186888E+04  0.12675186888E+04  0.00000000000E+00 0. -1.
         23    2    1    2    0    0 -0.12221648171E+03  0.58774437702E+03 -0.53491655112E+03  0.80916303847E+03  0.90712650936E+02 0.  0.
        254    2    1    2    0    0  0.12221648171E+03 -0.58774437702E+03 -0.10645726824E+03  0.10845005198E+04  0.89689905023E+03 0.  0.
         23    2    4    4    0    0 -0.31490769376E+03 -0.41051424579E+03  0.14163441204E+03  0.54388238009E+03  0.89771571851E+02 0.  0.
         23    2    4    4    0    0  0.43712417548E+03 -0.17723013122E+03 -0.24809168028E+03  0.54061813967E+03  0.90721700390E+02 0.  0.
          3    1    3    3  502    0 -0.93791222878E+02  0.45789269434E+03 -0.46356563177E+03  0.65829750720E+03  0.00000000000E+00 0. -1.
         -3    1    3    3    0  502 -0.28425258833E+02  0.12985168268E+03 -0.71350919349E+02  0.15086553127E+03  0.00000000000E+00 0.  1.
         13    1    5    5    0    0 -0.32070158934E+03 -0.40417648939E+03  0.14244906106E+03  0.53525683459E+03  0.00000000000E+00 0.  1.
        -13    1    5    5    0    0  0.57938955765E+01 -0.63377564029E+01 -0.81464902089E+00  0.86255455017E+01  0.00000000000E+00 0. -1.
          1    1    6    6  503    0  0.10410810151E+03 -0.51150667401E+01 -0.38340041396E+02  0.11106133207E+03  0.00000000000E+00 0. -1.
         -1    1    6    6    0  503  0.33301607397E+03 -0.17211506448E+03 -0.20975163888E+03  0.42955680760E+03  0.00000000000E+00 0.  1.
<mgrwt>
<rscale>  0 0.17817411E+04</rscale>
<asrwt>0</asrwt>
<pdfrwt beam="1">  1        1 0.19500287E+00 0.17817411E+04</pdfrwt>
<pdfrwt beam="2">  1       -1 0.96329980E-01 0.17817411E+04</pdfrwt>
<totfact> 0.93614023E+00</totfact>
</mgrwt>
</event>
<event>
12    3  0.4634846E-008  0.3338329E+04  0.7818608E-02  0.8153210E-01
          2   -1    0    0  501    0  0.00000000000E+00  0.00000000000E+00  0.26391943742E+04  0.26391943742E+04  0.00000000000E+00 0. -1.
         -2   -1    0    0    0  501 -0.00000000000E+00 -0.00000000000E+00 -0.10556669028E+04  0.10556669028E+04  0.00000000000E+00 0.  1.
         23    2    1    2    0    0 -0.10619401181E+04 -0.11125744176E+04  0.57391794718E+03  0.16445427093E+04  0.97980934000E+02 0.  0.
        254    2    1    2    0    0  0.10619401181E+04  0.11125744176E+04  0.10096095242E+04  0.20503185676E+04  0.90496198166E+03 0.  0.
         23    2    4    4    0    0  0.88963122944E+03  0.35053826722E+03  0.34530198726E+03  0.10207483033E+04  0.91503197423E+02 0.  0.
         23    2    4    4    0    0  0.17230888870E+03  0.76203615038E+03  0.66430753696E+03  0.10295702643E+04  0.91219394467E+02 0.  0.
          2    1    3    3  502    0 -0.34505980014E+03 -0.42945352364E+03  0.20311022384E+03  0.58715445811E+03  0.00000000000E+00 0. -1.
         -2    1    3    3    0  502 -0.71688031799E+03 -0.68312089396E+03  0.37080772334E+03  0.10573882512E+04  0.00000000000E+00 0.  1.
         13    1    5    5    0    0  0.90466672211E+02  0.22377445966E+02  0.87949397178E+01  0.93607263786E+02  0.00000000000E+00 0. -1.
        -13    1    5    5    0    0  0.79916455723E+03  0.32816082125E+03  0.33650704754E+03  0.92714103953E+03  0.00000000000E+00 0.  1.
          1    1    6    6  503    0  0.81659470912E+01  0.75883577498E+02  0.34175932851E+02  0.83624125778E+02  0.00000000000E+00 0. -1.
         -1    1    6    6    0  503  0.16414294161E+03  0.68615257288E+03  0.63013160411E+03  0.94594613856E+03  0.00000000000E+00 0.  1.
<mgrwt>
<rscale>  0 0.33383290E+04</rscale>
<asrwt>0</asrwt>
<pdfrwt beam="1">  1        2 0.40602990E+00 0.33383290E+04</pdfrwt>
<pdfrwt beam="2">  1       -2 0.16241029E+00 0.33383290E+04</pdfrwt>
<totfact> 0.58079097E-01</totfact>
</mgrwt>
</event>
<event>
12    3  0.4634846E-008  0.2089227E+04  0.7818608E-02  0.8566004E-01
          1   -1    0    0  501    0  0.00000000000E+00  0.00000000000E+00  0.96684291728E+03  0.96684291728E+03  0.00000000000E+00 0.  1.
         -1   -1    0    0    0  501 -0.00000000000E+00 -0.00000000000E+00 -0.11286400170E+04  0.11286400170E+04  0.00000000000E+00 0. -1.
         23    2    1    2    0    0 -0.22226714629E+03  0.45362673588E+03  0.61785532522E+03  0.80363723182E+03  0.94380599910E+02 0.  0.
        254    2    1    2    0    0  0.22226714629E+03 -0.45362673588E+03 -0.77965242497E+03  0.12918457025E+04  0.89767896014E+03 0.  0.
         23    2    4    4    0    0  0.43134625984E+03  0.60163465770E+02 -0.47182452928E+03  0.64951298766E+03  0.97823801911E+02 0.  0.
         23    2    4    4    0    0 -0.20907911355E+03 -0.51379020165E+03 -0.30782789569E+03  0.64233271484E+03  0.10069188720E+03 0.  0.
          2    1    3    3  502    0 -0.16159057670E+03  0.30232675341E+03  0.34882102047E+03  0.48906961123E+03  0.00000000000E+00 0.  1.
         -2    1    3    3    0  502 -0.60676569588E+02  0.15129998247E+03  0.26903430474E+03  0.31456762059E+03  0.00000000000E+00 0. -1.
         13    1    5    5    0    0  0.17611254504E+03  0.61594516924E+02 -0.24575386215E+03  0.30855222215E+03  0.00000000000E+00 0. -1.
        -13    1    5    5    0    0  0.25523371480E+03 -0.14310511541E+01 -0.22607066713E+03  0.34096076551E+03  0.00000000000E+00 0.  1.
          1    1    6    6  503    0 -0.48726981376E+02 -0.14389703580E+03 -0.36098392026E+02  0.15615303242E+03  0.00000000000E+00 0. -1.
         -1    1    6    6    0  503 -0.16035213217E+03 -0.36989316585E+03 -0.27172950366E+03  0.48617968242E+03  0.00000000000E+00 0.  1.
<mgrwt>
<rscale>  0 0.20892272E+04</rscale>
<asrwt>0</asrwt>
<pdfrwt beam="1">  1        1 0.14874506E+00 0.20892272E+04</pdfrwt>
<pdfrwt beam="2">  1       -1 0.17363693E+00 0.20892272E+04</pdfrwt>
<totfact> 0.34235122E+00</totfact>
</mgrwt>
</event>
<event>
12    3  0.4634846E-008  0.1474237E+04  0.7818608E-02  0.8901768E-01
          2   -1    0    0  501    0  0.00000000000E+00  0.00000000000E+00  0.96687974581E+03  0.96687974581E+03  0.00000000000E+00 0. -1.
         -2   -1    0    0    0  501 -0.00000000000E+00 -0.00000000000E+00 -0.56195564963E+03  0.56195564963E+03  0.00000000000E+00 0.  1.
         23    2    1    2    0    0 -0.22275731111E+02 -0.12813069459E+03 -0.31952911100E+03  0.35653466867E+03  0.90024630478E+02 0.  0.
        254    2    1    2    0    0  0.22275731111E+02  0.12813069459E+03  0.72445320718E+03  0.11723007268E+04  0.91243786720E+03 0.  0.
         23    2    4    4    0    0  0.13785902156E+03  0.17181138421E+03  0.90485430918E+03  0.93511882125E+03  0.84626399223E+02 0.  0.
         23    2    4    4    0    0 -0.11558329045E+03 -0.43680689614E+02 -0.18040110200E+03  0.23718190552E+03  0.91886881699E+02 0.  0.
          4    1    3    3  502    0  0.28579757976E+02 -0.77831096865E+02 -0.20937885629E+03  0.22519766355E+03  0.00000000000E+00 0. -1.
         -4    1    3    3    0  502 -0.50855489087E+02 -0.50299597725E+02 -0.11015025470E+03  0.13133700512E+03  0.00000000000E+00 0.  1.
         13    1    5    5    0    0  0.33299606692E+02  0.28857862218E+02  0.34796431731E+03  0.35074321966E+03  0.00000000000E+00 0.  1.
        -13    1    5    5    0    0  0.10455941487E+03  0.14295352199E+03  0.55688999187E+03  0.58437560159E+03  0.00000000000E+00 0. -1.
          3    1    6    6  503    0 -0.11766526015E+03 -0.56722784526E+02 -0.18184310932E+03  0.22389619054E+03  0.00000000000E+00 0. -1.
         -3    1    6    6    0  503  0.20819696970E+01  0.13042094912E+02  0.14420073227E+01  0.13285714984E+02  0.00000000000E+00 0.  1.
<mgrwt>
<rscale>  0 0.14742368E+04</rscale>
<asrwt>0</asrwt>
<pdfrwt beam="1">  1        2 0.14875073E+00 0.14742368E+04</pdfrwt>
<pdfrwt beam="2">  1       -2 0.86454716E-01 0.14742368E+04</pdfrwt>
<totfact> 0.29704223E+01</totfact>
</mgrwt>
</event>
<event>
12    3  0.4634846E-008  0.1532589E+04  0.7818608E-02  0.8863066E-01
         -2   -1    0    0    0  501 -0.00000000000E+00  0.00000000000E+00  0.24140067916E+03  0.24140067916E+03  0.00000000000E+00 0. -1.
          2   -1    0    0  501    0  0.00000000000E+00 -0.00000000000E+00 -0.24325010114E+04  0.24325010114E+04  0.00000000000E+00 0.  1.
         23    2    1    2    0    0 -0.10801643377E+03  0.67292666704E+02  0.11355786529E+03  0.19460503521E+03  0.93701003214E+02 0.  0.
        254    2    1    2    0    0  0.10801643377E+03 -0.67292666704E+02 -0.23046581976E+04  0.24792966554E+04  0.90513349560E+03 0.  0.
         23    2    4    4    0    0 -0.15217213488E+03  0.87422687349E+02 -0.50062478094E+02  0.20287341265E+03  0.88613119520E+02 0.  0.
         23    2    4    4    0    0  0.26018856865E+03 -0.15471535405E+03 -0.22545957195E+04  0.22764232427E+04  0.85240775326E+02 0.  0.
          3    1    3    3  502    0 -0.10917953855E+03  0.84577026017E+02  0.11080828436E+03  0.17706473633E+03  0.00000000000E+00 0. -1.
         -3    1    3    3    0  502  0.11631047763E+01 -0.17284359313E+02  0.27495809240E+01  0.17540298881E+02  0.00000000000E+00 0.  1.
         13    1    5    5    0    0 -0.11940666413E+03  0.77066874795E+02  0.42575986004E-01  0.14211705190E+03  0.00000000000E+00 0. -1.
        -13    1    5    5    0    0 -0.32765470753E+02  0.10355812554E+02 -0.50105054080E+02  0.60756360751E+02  0.00000000000E+00 0.  1.
          1    1    6    6  503    0  0.10127647925E+03 -0.40329370498E+02 -0.10950501767E+04  0.11004627540E+04  0.00000000000E+00 0. -1.
         -1    1    6    6    0  503  0.15891208940E+03 -0.11438598356E+03 -0.11595455428E+04  0.11759604888E+04  0.00000000000E+00 0.  1.
<mgrwt>
<rscale>  0 0.15325892E+04</rscale>
<asrwt>0</asrwt>
<pdfrwt beam="1">  1        2 0.37423093E+00 0.15325892E+04</pdfrwt>
<pdfrwt beam="2">  1       -2 0.37138565E-01 0.15325892E+04</pdfrwt>
<totfact> 0.25137909E+01</totfact>
</mgrwt>
</event>
<event>
12    3  0.4634846E-008  0.2469925E+04  0.7818608E-02  0.8413779E-01
          1   -1    0    0  501    0  0.00000000000E+00  0.00000000000E+00  0.17423910499E+04  0.17423910499E+04  0.00000000000E+00 0. -1.
         -1   -1    0    0    0  501 -0.00000000000E+00 -0.00000000000E+00 -0.87531012648E+03  0.87531012648E+03  0.00000000000E+00 0.  1.
         23    2    1    2    0    0 -0.74749124622E+02 -0.55855920039E+03 -0.53918324990E+03  0.78517126400E+03  0.90551227892E+02 0.  0.
        254    2    1    2    0    0  0.74749124622E+02  0.55855920039E+03  0.14062641733E+04  0.18325299124E+04  0.10310243172E+04 0.  0.
         23    2    4    4    0    0  0.23904665037E+03  0.80524306438E+03  0.86724786421E+03  0.12106997637E+04  0.90085326685E+02 0.  0.
         23    2    4    4    0    0 -0.16429752575E+03 -0.24668386399E+03  0.53901630912E+03  0.62183014866E+03  0.91035963054E+02 0.  0.
          2    1    3    3  502    0  0.13000578136E+02 -0.14458117767E+02 -0.22247660027E+02  0.29546752409E+02  0.00000000000E+00 0. -1.
         -2    1    3    3    0  502 -0.87749702759E+02 -0.54410108262E+03 -0.51693558988E+03  0.75562451160E+03  0.00000000000E+00 0.  1.
         13    1    5    5    0    0  0.22808078024E+03  0.79004217390E+03  0.82669125081E+03  0.11660213990E+04  0.00000000000E+00 0. -1.
        -13    1    5    5    0    0  0.10965870130E+02  0.15200890481E+02  0.40556613394E+02  0.44678364665E+02  0.00000000000E+00 0.  1.
          1    1    6    6  503    0 -0.14755312416E+03 -0.15433348472E+03  0.41024851309E+03  0.46248739599E+03  0.00000000000E+00 0. -1.
         -1    1    6    6    0  503 -0.16744401587E+02 -0.92350379268E+02  0.12876779603E+03  0.15934275268E+03  0.00000000000E+00 0.  1.
<mgrwt>
<rscale>  0 0.24699251E+04</rscale>
<asrwt>0</asrwt>
<pdfrwt beam="1">  1        1 0.26806016E+00 0.24699251E+04</pdfrwt>
<pdfrwt beam="2">  1       -1 0.13466310E+00 0.24699251E+04</pdfrwt>
<totfact> 0.18412187E+00</totfact>
</mgrwt>
</event>
<event>
12    3  0.4634846E-008  0.1849904E+04  0.7818608E-02  0.8680202E-01
          2   -1    0    0  501    0  0.00000000000E+00  0.00000000000E+00  0.32329382191E+04  0.32329382191E+04  0.00000000000E+00 0.  1.
         -2   -1    0    0    0  501 -0.00000000000E+00 -0.00000000000E+00 -0.26463116951E+03  0.26463116951E+03  0.00000000000E+00 0. -1.
         23    2    1    2    0    0 -0.20420504158E+03  0.24874663875E+03 -0.42947022489E+02  0.33696866982E+03  0.90160126446E+02 0.  0.
        254    2    1    2    0    0  0.20420504158E+03 -0.24874663875E+03  0.30112540721E+04  0.31606007188E+04  0.90452817966E+03 0.  0.
         23    2    4    4    0    0 -0.32433069457E+03 -0.26368139832E+02  0.15888162448E+04  0.16241769040E+04  0.87908346588E+02 0.  0.
         23    2    4    4    0    0  0.52853573615E+03 -0.22237849891E+03  0.14224378273E+04  0.15364238149E+04  0.92013831404E+02 0.  0.
          2    1    3    3  502    0 -0.20296309944E+03  0.20036613888E+03 -0.43907048428E+02  0.28856271111E+03  0.00000000000E+00 0. -1.
         -2    1    3    3    0  502 -0.12419421397E+01  0.48380499870E+02  0.96002593890E+00  0.48405958701E+02  0.00000000000E+00 0.  1.
         13    1    5    5    0    0 -0.27659825163E+03 -0.51128028157E+02  0.12620781713E+04  0.12930436878E+04  0.00000000000E+00 0.  1.
        -13    1    5    5    0    0 -0.47732442931E+02  0.24759888325E+02  0.32673807351E+03  0.33113321618E+03  0.00000000000E+00 0. -1.
          3    1    6    6  503    0  0.21493480131E+03 -0.48458311282E+02  0.60142307388E+03  0.64051142889E+03  0.00000000000E+00 0. -1.
         -3    1    6    6    0  503  0.31360093484E+03 -0.17392018763E+03  0.82101475346E+03  0.89591238600E+03  0.00000000000E+00 0.  1.
<mgrwt>
<rscale>  0 0.18499040E+04</rscale>
<asrwt>0</asrwt>
<pdfrwt beam="1">  1        2 0.49737508E+00 0.18499040E+04</pdfrwt>
<pdfrwt beam="2">  1       -2 0.40712490E-01 0.18499040E+04</pdfrwt>
<totfact> 0.66619744E+00</totfact>
</mgrwt>
</event>
<event>
12    3  0.4634846E-008  0.1444065E+04  0.7818608E-02  0.8922525E-01
          2   -1    0    0  501    0  0.00000000000E+00  0.00000000000E+00  0.17560236469E+04  0.17560236469E+04  0.00000000000E+00 0. -1.
         -2   -1    0    0    0  501 -0.00000000000E+00 -0.00000000000E+00 -0.29688169845E+03  0.29688169845E+03  0.00000000000E+00 0.  1.
         23    2    1    2    0    0 -0.47067262108E+02  0.40821712706E+03  0.26913963403E+03  0.49961504041E+03  0.91227715181E+02 0.  0.
        254    2    1    2    0    0  0.47067262108E+02 -0.40821712706E+03  0.11900023144E+04  0.15532903049E+04  0.90980696473E+03 0.  0.
         23    2    4    4    0    0  0.85533914673E+02 -0.63105936219E+03  0.11322228184E+04  0.13023129061E+04  0.92403602813E+02 0.  0.
         23    2    4    4    0    0 -0.38466652565E+02  0.22284223513E+03  0.57779495997E+02  0.25097739878E+03  0.92265049834E+02 0.  0.
          1    1    3    3  502    0 -0.19075058026E+02  0.15691537568E+03  0.15772458926E+03  0.22330100541E+03  0.00000000000E+00 0. -1.
         -1    1    3    3    0  502 -0.27992204082E+02  0.25130175138E+03  0.11141504477E+03  0.27631403500E+03  0.00000000000E+00 0.  1.
         13    1    5    5    0    0  0.35021517996E+02 -0.45563450063E+03  0.87134995115E+03  0.98391058652E+03  0.00000000000E+00 0. -1.
        -13    1    5    5    0    0  0.50512396677E+02 -0.17542486156E+03  0.26087286723E+03  0.31840231960E+03  0.00000000000E+00 0.  1.
          2    1    6    6  503    0 -0.19695761061E+02  0.22905233790E+01 -0.58336332131E+01  0.20668835903E+02  0.00000000000E+00 0.  1.
         -2    1    6    6    0  503 -0.18770891504E+02  0.22055171175E+03  0.63613129211E+02  0.23030856287E+03  0.00000000000E+00 0. -1.
<mgrwt>
<rscale>  0 0.14440655E+04</rscale>
<asrwt>0</asrwt>
<pdfrwt beam="1">  1        2 0.27015748E+00 0.14440655E+04</pdfrwt>
<pdfrwt beam="2">  1       -2 0.45674109E-01 0.14440655E+04</pdfrwt>
<totfact> 0.40253192E+01</totfact>
</mgrwt>
</event>
<event>
12    3  0.4634846E-008  0.1629191E+04  0.7818608E-02  0.8802813E-01
          1   -1    0    0  501    0  0.00000000000E+00  0.00000000000E+00  0.27504171219E+04  0.27504171219E+04  0.00000000000E+00 0. -1.
         -1   -1    0    0    0  501 -0.00000000000E+00 -0.00000000000E+00 -0.24126003861E+03  0.24126003861E+03  0.00000000000E+00 0.  1.
         23    2    1    2    0    0 -0.28530599553E+03  0.72551188547E+02  0.17747668870E+04  0.18007845972E+04  0.79777668658E+02 0.  0.
        254    2    1    2    0    0  0.28530599553E+03 -0.72551188547E+02  0.73439019636E+03  0.11908925633E+04  0.89007468836E+03 0.  0.
         23    2    4    4    0    0  0.50533501784E+03  0.18673952844E+03  0.27689837085E+03  0.61281115863E+03  0.92896052770E+02 0.  0.
         23    2    4    4    0    0 -0.22002902231E+03 -0.25929071698E+03  0.45749182551E+03  0.57808140471E+03  0.96098353217E+02 0.  0.
          1    1    3    3  502    0 -0.14113515608E+03  0.69649221009E+02  0.10596270354E+04  0.10712514180E+04  0.00000000000E+00 0. -1.
         -1    1    3    3    0  502 -0.14417083945E+03  0.29019675372E+01  0.71513985153E+03  0.72953317924E+03  0.00000000000E+00 0.  1.
         13    1    5    5    0    0  0.80297533312E+02  0.53455345109E+02  0.81950825956E+02  0.12657450633E+03  0.00000000000E+00 0.  1.
        -13    1    5    5    0    0  0.42503748453E+03  0.13328418333E+03  0.19494754489E+03  0.48623665230E+03  0.00000000000E+00 0. -1.
          2    1    6    6  503    0 -0.20995381758E+03 -0.26766020522E+03  0.43774452669E+03  0.55438512031E+03  0.00000000000E+00 0. -1.
         -2    1    6    6    0  503 -0.10075204734E+02  0.83694882359E+01  0.19747298817E+02  0.23696284399E+02  0.00000000000E+00 0.  1.
<mgrwt>
<rscale>  0 0.16291909E+04</rscale>
<asrwt>0</asrwt>
<pdfrwt beam="1">  1        1 0.42314107E+00 0.16291909E+04</pdfrwt>
<pdfrwt beam="2">  1       -1 0.37116931E-01 0.16291909E+04</pdfrwt>
<totfact> 0.60585312E+00</totfact>
</mgrwt>
</event>
<event>
12    3  0.4634846E-008  0.2270264E+04  0.7818608E-02  0.8489739E-01
          1   -1    0    0  501    0  0.00000000000E+00  0.00000000000E+00  0.63683020525E+03  0.63683020525E+03  0.00000000000E+00 0. -1.
         -1   -1    0    0    0  501 -0.00000000000E+00 -0.00000000000E+00 -0.20233417111E+04  0.20233417111E+04  0.00000000000E+00 0.  1.
         23    2    1    2    0    0 -0.32425097396E+03 -0.67267698210E+03  0.10588010811E+03  0.75908464503E+03  0.85824732246E+02 0.  0.
        254    2    1    2    0    0  0.32425097396E+03  0.67267698210E+03 -0.14923916140E+04  0.19010872713E+04  0.91064102006E+03 0.  0.
         23    2    4    4    0    0  0.90891969990E+02  0.31249689096E+03 -0.14156325154E+04  0.14552229772E+04  0.87993395401E+02 0.  0.
         23    2    4    4    0    0  0.23335900397E+03  0.36018009114E+03 -0.76759098536E+02  0.44586429411E+03  0.93364269173E+02 0.  0.
          1    1    3    3  502    0 -0.32527433957E+03 -0.64982778708E+03  0.11232787614E+03  0.73532108674E+03  0.00000000000E+00 0. -1.
         -1    1    3    3    0  502  0.10233656013E+01 -0.22849195018E+02 -0.64477680331E+01  0.23763558293E+02  0.00000000000E+00 0.  1.
         13    1    5    5    0    0  0.76524533815E+02  0.29035527810E+03 -0.11600570740E+04  0.11982881986E+04  0.00000000000E+00 0. -1.
        -13    1    5    5    0    0  0.14367436175E+02  0.22141612861E+02 -0.25557544140E+03  0.25693477867E+03  0.00000000000E+00 0.  1.
          3    1    6    6  503    0  0.21862973618E+03  0.33725092687E+03 -0.95100152985E+02  0.41301475556E+03  0.00000000000E+00 0. -1.
         -3    1    6    6    0  503  0.14729267799E+02  0.22929164275E+02  0.18341054449E+02  0.32849538543E+02  0.00000000000E+00 0.  1.
<mgrwt>
<rscale>  0 0.22702644E+04</rscale>
<asrwt>0</asrwt>
<pdfrwt beam="1">  1        1 0.97973877E-01 0.22702644E+04</pdfrwt>
<pdfrwt beam="2">  1       -1 0.31128334E+00 0.22702644E+04</pdfrwt>
<totfact> 0.79388970E-01</totfact>
</mgrwt>
</event>
<event>
12    3  0.4634846E-008  0.1969914E+04  0.7818608E-02  0.8620818E-01
          1   -1    0    0  501    0  0.00000000000E+00  0.00000000000E+00  0.32390573735E+04  0.32390573735E+04  0.00000000000E+00 0. -1.
         -1   -1    0    0    0  501 -0.00000000000E+00 -0.00000000000E+00 -0.29951301170E+03  0.29951301170E+03  0.00000000000E+00 0.  1.
         23    2    1    2    0    0  0.67420699267E+03  0.13179107790E+02  0.18830338435E+04  0.20020581019E+04  0.87700797853E+02 0.  0.
        254    2    1    2    0    0 -0.67420699267E+03 -0.13179107790E+02  0.10565105183E+04  0.15365122833E+04  0.88877824203E+03 0.  0.
         23    2    4    4    0    0 -0.36888641459E+03 -0.23026525908E+03  0.37346927775E+02  0.44642551375E+03  0.93817215376E+02 0.  0.
         23    2    4    4    0    0 -0.30532057808E+03  0.21708615129E+03  0.10191635906E+04  0.10900867695E+04  0.96164901740E+02 0.  0.
          1    1    3    3  502    0  0.54852977270E+03 -0.22027081921E+01  0.16152507191E+04  0.17058501250E+04  0.00000000000E+00 0. -1.
         -1    1    3    3    0  502  0.12567721997E+03  0.15381815982E+02  0.26778312438E+03  0.29620797691E+03  0.00000000000E+00 0.  1.
         13    1    5    5    0    0 -0.13070688205E+03 -0.12082434311E+03  0.47104979583E+02  0.18412411576E+03  0.00000000000E+00 0. -1.
        -13    1    5    5    0    0 -0.23817953254E+03 -0.10944091597E+03 -0.97580518078E+01  0.26230139798E+03  0.00000000000E+00 0.  1.
          3    1    6    6  503    0 -0.14533563932E+03  0.14545452454E+03  0.45466219649E+03  0.49899617201E+03  0.00000000000E+00 0. -1.
         -3    1    6    6    0  503 -0.15998493875E+03  0.71631626750E+02  0.56450139407E+03  0.59109059753E+03  0.00000000000E+00 0.  1.
<mgrwt>
<rscale>  0 0.19699135E+04</rscale>
<asrwt>0</asrwt>
<pdfrwt beam="1">  1        1 0.49831649E+00 0.19699135E+04</pdfrwt>
<pdfrwt beam="2">  1       -1 0.46078927E-01 0.19699135E+04</pdfrwt>
<totfact> 0.17363001E+00</totfact>
</mgrwt>
</event>
<event>
12    3  0.4634846E-008  0.1349437E+04  0.7818608E-02  0.8991254E-01
         -2   -1    0    0    0  501 -0.00000000000E+00  0.00000000000E+00  0.15516928546E+03  0.15516928546E+03  0.00000000000E+00 0.  1.
          2   -1    0    0  501    0  0.00000000000E+00 -0.00000000000E+00 -0.29338612547E+04  0.29338612547E+04  0.00000000000E+00 0. -1.
         23    2    1    2    0    0  0.18533854199E+02 -0.83778884156E+02  0.58170633382E+02  0.11679594934E+03  0.53805817646E+02 0.  0.
        254    2    1    2    0    0 -0.18533854199E+02  0.83778884156E+02 -0.28368626026E+04  0.29722345908E+04  0.88262485321E+03 0.  0.
         23    2    4    4    0    0  0.94036632902E+01  0.20526295721E+03 -0.28055456885E+04  0.28145776740E+04  0.92409750871E+02 0.  0.
         23    2    4    4    0    0 -0.27937517489E+02 -0.12148407305E+03 -0.31316914078E+02  0.15765691680E+03  0.91302077851E+02 0.  0.
          2    1    3    3  502    0 -0.29134483289E+01  0.38199625289E+01 -0.48078190406E+01  0.67967211811E+01  0.00000000000E+00 0. -1.
         -2    1    3    3    0  502  0.21447302528E+02 -0.87598846685E+02  0.62978452423E+02  0.10999922816E+03  0.00000000000E+00 0.  1.
         13    1    5    5    0    0  0.36085442905E+02  0.72392430601E+02 -0.14557811552E+04  0.14580266098E+04  0.00000000000E+00 0. -1.
        -13    1    5    5    0    0 -0.26681779615E+02  0.13287052661E+03 -0.13497645333E+04  0.13565510642E+04  0.00000000000E+00 0.  1.
          3    1    6    6  503    0 -0.46342932013E+02 -0.19308032623E+02 -0.43565513395E+01  0.50392926199E+02  0.00000000000E+00 0. -1.
         -3    1    6    6    0  503  0.18405414523E+02 -0.10217604043E+03 -0.26960362738E+02  0.10726399060E+03  0.00000000000E+00 0.  1.
<mgrwt>
<rscale>  0 0.13494371E+04</rscale>
<asrwt>0</asrwt>
<pdfrwt beam="1">  1        2 0.45136329E+00 0.13494371E+04</pdfrwt>
<pdfrwt beam="2">  1       -2 0.23872197E-01 0.13494371E+04</pdfrwt>
<totfact> 0.29439470E+01</totfact>
</mgrwt>
</event>
<event>
12    3  0.4634846E-008  0.1454315E+04  0.7818608E-02  0.8915415E-01
         -2   -1    0    0    0  501 -0.00000000000E+00  0.00000000000E+00  0.47583532088E+03  0.47583532088E+03  0.00000000000E+00 0.  1.
          2   -1    0    0  501    0  0.00000000000E+00 -0.00000000000E+00 -0.11112204139E+04  0.11112204139E+04  0.00000000000E+00 0. -1.
         23    2    1    2    0    0 -0.73282816935E+02 -0.40337329447E+02 -0.66743391068E+03  0.67972725965E+03  0.97793920993E+02 0.  0.
        254    2    1    2    0    0  0.73282816935E+02  0.40337329447E+02  0.32048817705E+02  0.90732847508E+03  0.90289554411E+03 0.  0.
         23    2    4    4    0    0  0.70534592864E+02 -0.57094902772E+02 -0.41851530116E+03  0.43757672762E+03  0.89907611079E+02 0.  0.
         23    2    4    4    0    0  0.27482240710E+01  0.97432232219E+02  0.45056411887E+03  0.46975174746E+03  0.90322125875E+02 0.  0.
          4    1    3    3  502    0 -0.25667518075E+01 -0.56128784828E+02 -0.30043347217E+03  0.30564243799E+03  0.00000000000E+00 0.  1.
         -4    1    3    3    0  502 -0.70716065127E+02  0.15791455381E+02 -0.36700043851E+03  0.37408482166E+03  0.00000000000E+00 0. -1.
         13    1    5    5    0    0  0.71056206344E+02 -0.18974969245E+02 -0.15790209225E+03  0.17418985233E+03  0.00000000000E+00 0.  1.
        -13    1    5    5    0    0 -0.52161347982E+00 -0.38119933527E+02 -0.26061320891E+03  0.26338687528E+03  0.00000000000E+00 0. -1.
          1    1    6    6  503    0  0.16202392060E+02  0.48369253176E+02  0.74670959196E+02  0.90431489584E+02  0.00000000000E+00 0. -1.
         -1    1    6    6    0  503 -0.13454167989E+02  0.49062979044E+02  0.37589315967E+03  0.37932025788E+03  0.00000000000E+00 0.  1.
<mgrwt>
<rscale>  0 0.14543149E+04</rscale>
<asrwt>0</asrwt>
<pdfrwt beam="1">  1        2 0.17095698E+00 0.14543149E+04</pdfrwt>
<pdfrwt beam="2">  1       -2 0.73205435E-01 0.14543149E+04</pdfrwt>
<totfact> 0.35026971E+01</totfact>
</mgrwt>
</event>
<event>
12    3  0.4634846E-008  0.1765745E+04  0.7818608E-02  0.8724731E-01
          1   -1    0    0  501    0  0.00000000000E+00  0.00000000000E+00  0.10355883663E+04  0.10355883663E+04  0.00000000000E+00 0. -1.
         -1   -1    0    0    0  501 -0.00000000000E+00 -0.00000000000E+00 -0.75267734406E+03  0.75267734406E+03  0.00000000000E+00 0.  1.
         23    2    1    2    0    0  0.35499171519E+03 -0.27067353718E+03  0.58645245556E+03  0.74227613369E+03  0.88114098938E+02 0.  0.
        254    2    1    2    0    0 -0.35499171519E+03  0.27067353718E+03 -0.30354143329E+03  0.10459895767E+04  0.89592048266E+03 0.  0.
         23    2    4    4    0    0  0.17161005164E+03  0.38961167620E+01 -0.39616265004E+03  0.44142005172E+03  0.91878328392E+02 0.  0.
         23    2    4    4    0    0 -0.52660176683E+03  0.26677742042E+03  0.92621216746E+02  0.60456952498E+03  0.91902164659E+02 0.  0.
          3    1    3    3  502    0  0.25419352760E+03 -0.23645800641E+03  0.42311579455E+03  0.54731500424E+03  0.00000000000E+00 0. -1.
         -3    1    3    3    0  502  0.10079818759E+03 -0.34215530777E+02  0.16333666101E+03  0.19496112945E+03  0.00000000000E+00 0.  1.
         13    1    5    5    0    0  0.70539628602E+02  0.36046206925E+02 -0.10491749434E+03  0.13146424934E+03  0.00000000000E+00 0. -1.
        -13    1    5    5    0    0  0.10107042303E+03 -0.32150090163E+02 -0.29124515569E+03  0.30995580237E+03  0.00000000000E+00 0.  1.
          3    1    6    6  503    0 -0.13450190477E+03  0.50401374498E+02 -0.13682887115E+02  0.14428541970E+03  0.00000000000E+00 0. -1.
         -3    1    6    6    0  503 -0.39209986206E+03  0.21637604592E+03  0.10630410386E+03  0.46028410528E+03  0.00000000000E+00 0.  1.
<mgrwt>
<rscale>  0 0.17657451E+04</rscale>
<asrwt>0</asrwt>
<pdfrwt beam="1">  1        1 0.15932129E+00 0.17657451E+04</pdfrwt>
<pdfrwt beam="2">  1       -1 0.11579651E+00 0.17657451E+04</pdfrwt>
<totfact> 0.90720204E+00</totfact>
</mgrwt>
</event>
<event>
12    3  0.4634846E-008  0.3824200E+04  0.7818608E-02  0.8040982E-01
          2   -1    0    0  501    0  0.00000000000E+00  0.00000000000E+00  0.35026288499E+04  0.35026288499E+04  0.00000000000E+00 0.  1.
         -2   -1    0    0    0  501 -0.00000000000E+00 -0.00000000000E+00 -0.10438233018E+04  0.10438233018E+04  0.00000000000E+00 0. -1.
         23    2    1    2    0    0 -0.15845333451E+04 -0.16929444989E+03  0.19934208128E+03  0.16084955716E+04  0.90078889007E+02 0.  0.
        254    2    1    2    0    0  0.15845333451E+04  0.16929444989E+03  0.22594634668E+04  0.29379565800E+04  0.99348234820E+03 0.  0.
         23    2    4    4    0    0  0.66362269177E+03  0.25821020894E+03  0.31728339820E+03  0.78503471143E+03  0.92429185559E+02 0.  0.
         23    2    4    4    0    0  0.92091065330E+03 -0.88915759043E+02  0.19421800686E+04  0.21529218686E+04  0.83825473836E+02 0.  0.
          3    1    3    3  502    0 -0.11096197767E+04 -0.11843134881E+03  0.97865173824E+02  0.11202051711E+04  0.00000000000E+00 0. -1.
         -3    1    3    3    0  502 -0.47491356840E+03 -0.50863101084E+02  0.10147690745E+03  0.48829040052E+03  0.00000000000E+00 0.  1.
         13    1    5    5    0    0  0.14181823281E+02  0.23616256220E+02  0.12001783942E+02  0.30048202729E+02  0.00000000000E+00 0. -1.
        -13    1    5    5    0    0  0.64944086849E+03  0.23459395272E+03  0.30528161425E+03  0.75498650870E+03  0.00000000000E+00 0.  1.
          2    1    6    6  503    0  0.70073888945E+03 -0.31606727856E+02  0.14599266430E+04  0.16196974345E+04  0.00000000000E+00 0.  1.
         -2    1    6    6    0  503  0.22017176384E+03 -0.57309031187E+02  0.48225342554E+03  0.53322443408E+03  0.00000000000E+00 0. -1.
<mgrwt>
<rscale>  0 0.38241996E+04</rscale>
<asrwt>0</asrwt>
<pdfrwt beam="1">  1        2 0.53886597E+00 0.38241996E+04</pdfrwt>
<pdfrwt beam="2">  1       -2 0.16058820E+00 0.38241996E+04</pdfrwt>
<totfact> 0.16126409E-01</totfact>
</mgrwt>
</event>
<event>
12    3  0.4634846E-008  0.1230853E+04  0.7818608E-02  0.9086272E-01
          1   -1    0    0  501    0  0.00000000000E+00  0.00000000000E+00  0.10629092320E+04  0.10629092320E+04  0.00000000000E+00 0. -1.
         -1   -1    0    0    0  501 -0.00000000000E+00 -0.00000000000E+00 -0.35633307510E+03  0.35633307510E+03  0.00000000000E+00 0.  1.
         23    2    1    2    0    0 -0.21720357807E+02 -0.27800138369E+03  0.24036543660E+03  0.37945356546E+03  0.91939773527E+02 0.  0.
        254    2    1    2    0    0  0.21720357807E+02  0.27800138369E+03  0.46621072032E+03  0.10397887417E+04  0.88659553814E+03 0.  0.
         23    2    4    4    0    0  0.39472408851E+03 -0.33915643567E+02  0.86185649703E+02  0.41605089688E+03  0.93343482125E+02 0.  0.
         23    2    4    4    0    0 -0.37300373070E+03  0.31191702726E+03  0.38002507062E+03  0.62373784477E+03  0.90586034727E+02 0.  0.
          1    1    3    3  502    0 -0.26344410338E+02 -0.42022722786E+02  0.79919169053E+02  0.94058549684E+02  0.00000000000E+00 0. -1.
         -1    1    3    3    0  502  0.46240525309E+01 -0.23597866090E+03  0.16044626755E+03  0.28539501578E+03  0.00000000000E+00 0.  1.
         13    1    5    5    0    0  0.73430580545E+01  0.79017281563E+01  0.17284223300E+02  0.20374056654E+02  0.00000000000E+00 0. -1.
        -13    1    5    5    0    0  0.38738103046E+03 -0.41817371723E+02  0.68901426402E+02  0.39567684023E+03  0.00000000000E+00 0.  1.
          3    1    6    6  503    0 -0.36192125143E+03  0.31029768681E+03  0.34920228220E+03  0.59094321264E+03  0.00000000000E+00 0.  1.
         -3    1    6    6    0  503 -0.11082479273E+02  0.16193404486E+01  0.30822788422E+02  0.32794632128E+02  0.00000000000E+00 0. -1.
<mgrwt>
<rscale>  0 0.12308529E+04</rscale>
<asrwt>0</asrwt>
<pdfrwt beam="1">  1        1 0.16352450E+00 0.12308529E+04</pdfrwt>
<pdfrwt beam="2">  1       -1 0.54820473E-01 0.12308529E+04</pdfrwt>
<totfact> 0.44912072E+01</totfact>
</mgrwt>
</event>
<event>
12    3  0.4634846E-008  0.1578915E+04  0.7818608E-02  0.8833607E-01
          2   -1    0    0  501    0  0.00000000000E+00  0.00000000000E+00  0.40149824052E+03  0.40149824052E+03  0.00000000000E+00 0.  1.
         -2   -1    0    0    0  501 -0.00000000000E+00 -0.00000000000E+00 -0.15522935868E+04  0.15522935868E+04  0.00000000000E+00 0. -1.
         23    2    1    2    0    0  0.23534023979E+03 -0.42153288754E+03 -0.14502784920E+03  0.51213275751E+03  0.90398454224E+02 0.  0.
        254    2    1    2    0    0 -0.23534023979E+03  0.42153288754E+03 -0.10057674971E+04  0.14416590698E+04  0.91309233469E+03 0.  0.
         23    2    4    4    0    0  0.22299280235E+03  0.39916467306E+03 -0.19397087336E+03  0.50482373690E+03  0.90355295969E+02 0.  0.
         23    2    4    4    0    0 -0.45833304213E+03  0.22368214483E+02 -0.81179662375E+03  0.93683533294E+03  0.89873067063E+02 0.  0.
          2    1    3    3  502    0  0.17796388085E+03 -0.31743823847E+03 -0.14891341605E+03  0.39320908384E+03  0.00000000000E+00 0. -1.
         -2    1    3    3    0  502  0.57376358934E+02 -0.10409464907E+03  0.38855668490E+01  0.11892367367E+03  0.00000000000E+00 0.  1.
         13    1    5    5    0    0  0.22626333898E+03  0.35634133985E+03 -0.16602539692E+03  0.45358426061E+03  0.00000000000E+00 0. -1.
        -13    1    5    5    0    0 -0.32705366320E+01  0.42823333203E+02 -0.27945476439E+02  0.51239476284E+02  0.00000000000E+00 0.  1.
          4    1    6    6  503    0 -0.33301283999E+03 -0.20658142414E+01 -0.65353038214E+03  0.73348740928E+03  0.00000000000E+00 0. -1.
         -4    1    6    6    0  503 -0.12532020215E+03  0.24434028724E+02 -0.15826624161E+03  0.20334792367E+03  0.00000000000E+00 0.  1.
<mgrwt>
<rscale>  0 0.15789150E+04</rscale>
<asrwt>0</asrwt>
<pdfrwt beam="1">  1        2 0.61768962E-01 0.15789150E+04</pdfrwt>
<pdfrwt beam="2">  1       -2 0.23881439E+00 0.15789150E+04</pdfrwt>
<totfact> 0.57293274E+00</totfact>
</mgrwt>
</event>
<event>
12    3  0.4634846E-008  0.1606726E+04  0.7818608E-02  0.8816427E-01
          1   -1    0    0  501    0  0.00000000000E+00  0.00000000000E+00  0.21750264419E+04  0.21750264419E+04  0.00000000000E+00 0. -1.
         -1   -1    0    0    0  501 -0.00000000000E+00 -0.00000000000E+00 -0.29672821909E+03  0.29672821909E+03  0.00000000000E+00 0.  1.
         23    2    1    2    0    0 -0.48820083276E+03  0.12413621691E+03  0.95949431013E+03  0.10874945485E+04  0.90913191856E+02 0.  0.
        254    2    1    2    0    0  0.48820083276E+03 -0.12413621691E+03  0.91880391270E+03  0.13842601125E+04  0.90455822122E+03 0.  0.
         23    2    4    4    0    0  0.66174764821E+03 -0.26777684022E+03  0.43121144635E+03  0.83892063679E+03  0.90720104149E+02 0.  0.
         23    2    4    4    0    0 -0.17354681545E+03  0.14364062331E+03  0.48759246635E+03  0.54533947571E+03  0.94327115439E+02 0.  0.
          4    1    3    3  502    0 -0.37017814684E+03  0.13095166524E+03  0.76509206780E+03  0.85996864550E+03  0.00000000000E+00 0. -1.
         -4    1    3    3    0  502 -0.11802268592E+03 -0.68154483306E+01  0.19440224232E+03  0.22752590303E+03  0.00000000000E+00 0.  1.
         13    1    5    5    0    0  0.35243701653E+02  0.61482620151E+01  0.18975209960E+02  0.40496644615E+02  0.00000000000E+00 0.  1.
        -13    1    5    5    0    0  0.62650394655E+03 -0.27392510223E+03  0.41223623639E+03  0.79842399217E+03  0.00000000000E+00 0. -1.
          1    1    6    6  503    0 -0.12703469175E+03  0.14692351457E+03  0.42509040338E+03  0.46736087030E+03  0.00000000000E+00 0. -1.
         -1    1    6    6    0  503 -0.46512123695E+02 -0.32828912634E+01  0.62502062974E+02  0.77978605410E+02  0.00000000000E+00 0.  1.
<mgrwt>
<rscale>  0 0.16067255E+04</rscale>
<asrwt>0</asrwt>
<pdfrwt beam="1">  1        1 0.33461944E+00 0.16067255E+04</pdfrwt>
<pdfrwt beam="2">  1       -1 0.45650497E-01 0.16067255E+04</pdfrwt>
<totfact> 0.10367486E+01</totfact>
</mgrwt>
</event>
<event>
12    3  0.4634846E-008  0.1618633E+04  0.7818608E-02  0.8809182E-01
          2   -1    0    0  501    0  0.00000000000E+00  0.00000000000E+00  0.78503037037E+03  0.78503037037E+03  0.00000000000E+00 0.  1.
         -2   -1    0    0    0  501 -0.00000000000E+00 -0.00000000000E+00 -0.83435373683E+03  0.83435373683E+03  0.00000000000E+00 0. -1.
         23    2    1    2    0    0 -0.88013432476E+02  0.38536084714E+03  0.36445101154E+03  0.54628949848E+03  0.96738459396E+02 0.  0.
        254    2    1    2    0    0  0.88013432476E+02 -0.38536084714E+03 -0.41377437800E+03  0.10730946087E+04  0.90778491756E+03 0.  0.
         23    2    4    4    0    0  0.20476597483E+01 -0.40820440821E+03 -0.66828310811E+03  0.78821007308E+03  0.89653638646E+02 0.  0.
         23    2    4    4    0    0  0.85965772728E+02  0.22843561071E+02  0.25450873011E+03  0.28488453564E+03  0.92046524012E+02 0.  0.
          3    1    3    3  502    0 -0.61978676962E+01  0.80401433341E+02  0.13015647792E+03  0.15311274536E+03  0.00000000000E+00 0. -1.
         -3    1    3    3    0  502 -0.81815564780E+02  0.30495941380E+03  0.23429453362E+03  0.39317675311E+03  0.00000000000E+00 0.  1.
         13    1    5    5    0    0  0.87412704093E+01 -0.40114345934E+03 -0.66701723048E+03  0.77839865784E+03  0.00000000000E+00 0. -1.
        -13    1    5    5    0    0 -0.66936106611E+01 -0.70609488727E+01 -0.12658776285E+01  0.98114152310E+01  0.00000000000E+00 0.  1.
          2    1    6    6  503    0  0.98695965456E+02  0.40059400023E+02  0.20817727236E+03  0.23384487562E+03  0.00000000000E+00 0. -1.
         -2    1    6    6    0  503 -0.12730192728E+02 -0.17215838952E+02  0.46331457744E+02  0.51039660015E+02  0.00000000000E+00 0.  1.
<mgrwt>
<rscale>  0 0.16186328E+04</rscale>
<asrwt>0</asrwt>
<pdfrwt beam="1">  1        2 0.12077390E+00 0.16186328E+04</pdfrwt>
<pdfrwt beam="2">  1       -2 0.12836211E+00 0.16186328E+04</pdfrwt>
<totfact> 0.15165400E+01</totfact>
</mgrwt>
</event>
<event>
12    3  0.4634846E-008  0.1752571E+04  0.7818608E-02  0.8731936E-01
          2   -1    0    0  501    0  0.00000000000E+00  0.00000000000E+00  0.20742306288E+04  0.20742306288E+04  0.00000000000E+00 0. -1.
         -2   -1    0    0    0  501 -0.00000000000E+00 -0.00000000000E+00 -0.37019821948E+03  0.37019821948E+03  0.00000000000E+00 0.  1.
         23    2    1    2    0    0 -0.33891886015E+03  0.40871968598E+03  0.14220737137E+03  0.55709144756E+03  0.90609982916E+02 0.  0.
        254    2    1    2    0    0  0.33891886015E+03 -0.40871968598E+03  0.15618250379E+04  0.18873374007E+04  0.91696632407E+03 0.  0.
         23    2    4    4    0    0  0.26402784196E+03  0.24430038924E+03  0.37490999501E+03  0.52755672586E+03  0.91461539084E+02 0.  0.
         23    2    4    4    0    0  0.74891018184E+02 -0.65302007522E+03  0.11869150429E+04  0.13597806748E+04  0.90511221800E+02 0.  0.
          2    1    3    3  502    0 -0.29399523401E+03  0.30190155040E+03  0.12759576908E+03  0.44029356576E+03  0.00000000000E+00 0. -1.
         -2    1    3    3    0  502 -0.44923626132E+02  0.10681813557E+03  0.14611602290E+02  0.11679788180E+03  0.00000000000E+00 0.  1.
         13    1    5    5    0    0  0.19906246628E+03  0.12916316892E+03  0.21637851311E+03  0.32113649843E+03  0.00000000000E+00 0.  1.
        -13    1    5    5    0    0  0.64965375680E+02  0.11513722033E+03  0.15853148190E+03  0.20642022744E+03  0.00000000000E+00 0. -1.
          1    1    6    6  503    0  0.62472108170E+02 -0.20641329588E+03  0.35099763036E+03  0.41195697534E+03  0.00000000000E+00 0. -1.
         -1    1    6    6    0  503  0.12418910014E+02 -0.44660677934E+03  0.83591741255E+03  0.94782369948E+03  0.00000000000E+00 0.  1.
<mgrwt>
<rscale>  0 0.17525712E+04</rscale>
<asrwt>0</asrwt>
<pdfrwt beam="1">  1        2 0.31911240E+00 0.17525712E+04</pdfrwt>
<pdfrwt beam="2">  1       -2 0.56953573E-01 0.17525712E+04</pdfrwt>
<totfact> 0.16639028E+01</totfact>
</mgrwt>
</event>
<event>
12    3  0.4634846E-008  0.3093870E+04  0.7818608E-02  0.8217422E-01
          1   -1    0    0  501    0  0.00000000000E+00  0.00000000000E+00  0.48877381025E+04  0.48877381025E+04  0.00000000000E+00 0. -1.
         -1   -1    0    0    0  501 -0.00000000000E+00 -0.00000000000E+00 -0.48959407348E+03  0.48959407348E+03  0.00000000000E+00 0.  1.
         23    2    1    2    0    0 -0.90575145699E+03  0.58462087881E+02  0.38655509506E+04  0.39717361630E+04  0.91654125268E+02 0.  0.
        254    2    1    2    0    0  0.90575145699E+03 -0.58462087881E+02  0.53259307840E+03  0.14055960130E+04  0.93179463785E+03 0.  0.
         23    2    4    4    0    0 -0.14700919216E+03  0.38288740119E+02 -0.63915315829E+02  0.18845756570E+03  0.91396697280E+02 0.  0.
         23    2    4    4    0    0  0.10527606491E+04 -0.96750828000E+02  0.59650839423E+03  0.12171384473E+04  0.89095614257E+02 0.  0.
          1    1    3    3  502    0 -0.76576482911E+03  0.39377087317E+02  0.31134561687E+04  0.32064864951E+04  0.00000000000E+00 0. -1.
         -1    1    3    3    0  502 -0.13998662788E+03  0.19085000563E+02  0.75209478191E+03  0.76524966789E+03  0.00000000000E+00 0.  1.
         13    1    5    5    0    0 -0.68742617764E+02 -0.27750283421E+02 -0.18332385024E+02  0.76365581695E+02  0.00000000000E+00 0.  1.
        -13    1    5    5    0    0 -0.78266574392E+02  0.66039023541E+02 -0.45582930805E+02  0.11209198400E+03  0.00000000000E+00 0. -1.
          3    1    6    6  503    0  0.52221805776E+03 -0.12064826001E+02  0.26362894779E+03  0.58511322152E+03  0.00000000000E+00 0. -1.
         -3    1    6    6    0  503  0.53054259138E+03 -0.84686001999E+02  0.33287944644E+03  0.63202522581E+03  0.00000000000E+00 0.  1.
<mgrwt>
<rscale>  0 0.30938698E+04</rscale>
<asrwt>0</asrwt>
<pdfrwt beam="1">  1        1 0.75195968E+00 0.30938698E+04</pdfrwt>
<pdfrwt beam="2">  1       -1 0.75322168E-01 0.30938698E+04</pdfrwt>
<totfact> 0.17821290E-02</totfact>
</mgrwt>
</event>
<event>
12    3  0.4634846E-008  0.2932118E+04  0.7818608E-02  0.8263385E-01
          1   -1    0    0  501    0  0.00000000000E+00  0.00000000000E+00  0.21172179558E+04  0.21172179558E+04  0.00000000000E+00 0. -1.
         -1   -1    0    0    0  501 -0.00000000000E+00 -0.00000000000E+00 -0.10151668859E+04  0.10151668859E+04  0.00000000000E+00 0.  1.
         23    2    1    2    0    0  0.10056748476E+04  0.84828247642E+03  0.69033103575E+03  0.14885984868E+04  0.91670371980E+02 0.  0.
        254    2    1    2    0    0 -0.10056748476E+04 -0.84828247642E+03  0.41172003415E+03  0.16437863549E+04  0.89529611599E+03 0.  0.
         23    2    4    4    0    0 -0.11613408591E+03 -0.45122181026E+03  0.46443424204E+03  0.66398260664E+03  0.89919345998E+02 0.  0.
         23    2    4    4    0    0 -0.88954076164E+03 -0.39706066616E+03 -0.52714207891E+02  0.97980374828E+03  0.91085993400E+02 0.  0.
          4    1    3    3  502    0  0.99082910927E+03  0.84702031226E+03  0.67829737393E+03  0.14694465151E+04  0.00000000000E+00 0. -1.
         -4    1    3    3    0  502  0.14845738282E+02  0.12621641630E+01  0.12033661818E+02  0.19151971707E+02  0.00000000000E+00 0.  1.
         13    1    5    5    0    0 -0.65185199656E+01 -0.72097851636E+02  0.33900314629E+02  0.79936366224E+02  0.00000000000E+00 0.  1.
        -13    1    5    5    0    0 -0.10961556594E+03 -0.37912395862E+03  0.43053392741E+03  0.58404624042E+03  0.00000000000E+00 0. -1.
          1    1    6    6  503    0 -0.21178642223E+03 -0.91176947337E+02 -0.51311358084E+02  0.23621934687E+03  0.00000000000E+00 0. -1.
         -1    1    6    6    0  503 -0.67775433941E+03 -0.30588371883E+03 -0.14028498071E+01  0.74358440141E+03  0.00000000000E+00 0.  1.
<mgrwt>
<rscale>  0 0.29321184E+04</rscale>
<asrwt>0</asrwt>
<pdfrwt beam="1">  1        1 0.32572584E+00 0.29321184E+04</pdfrwt>
<pdfrwt beam="2">  1       -1 0.15617952E+00 0.29321184E+04</pdfrwt>
<totfact> 0.66356491E-01</totfact>
</mgrwt>
</event>
<event>
12    3  0.4634846E-008  0.2294366E+04  0.7818608E-02  0.8480146E-01
         -2   -1    0    0    0  501 -0.00000000000E+00  0.00000000000E+00  0.48859077366E+03  0.48859077366E+03  0.00000000000E+00 0.  1.
          2   -1    0    0  501    0  0.00000000000E+00 -0.00000000000E+00 -0.26935203842E+04  0.26935203842E+04  0.00000000000E+00 0. -1.
         23    2    1    2    0    0  0.40569053362E+03 -0.82919669078E+03 -0.54345572325E+03  0.10749282546E+04  0.89300998888E+02 0.  0.
        254    2    1    2    0    0 -0.40569053362E+03  0.82919669078E+03 -0.16614738873E+04  0.21071829033E+04  0.90971003538E+03 0.  0.
         23    2    4    4    0    0 -0.12920054019E+03  0.57751918784E+03 -0.25783679636E+03  0.65183269285E+03  0.90470182954E+02 0.  0.
         23    2    4    4    0    0 -0.27648999342E+03  0.25167750294E+03 -0.14036370910E+04  0.14553502104E+04  0.89771208481E+02 0.  0.
          2    1    3    3  502    0  0.65861206941E+02 -0.76555587458E+02 -0.71949869013E+02  0.12399693626E+03  0.00000000000E+00 0. -1.
         -2    1    3    3    0  502  0.33982932668E+03 -0.75264110332E+03 -0.47150585424E+03  0.95093131837E+03  0.00000000000E+00 0.  1.
         13    1    5    5    0    0 -0.12981005550E+03  0.43236940928E+03 -0.17130056304E+03  0.48284349378E+03  0.00000000000E+00 0. -1.
        -13    1    5    5    0    0  0.60951530490E+00  0.14514977856E+03 -0.86536233325E+02  0.16898919907E+03  0.00000000000E+00 0.  1.
          3    1    6    6  503    0 -0.84182592962E+02  0.12059051209E+03 -0.43672172407E+03  0.46081953608E+03  0.00000000000E+00 0. -1.
         -3    1    6    6    0  503 -0.19230740046E+03  0.13108699085E+03 -0.96691536689E+03  0.99453067432E+03  0.00000000000E+00 0.  1.
<mgrwt>
<rscale>  0 0.22943663E+04</rscale>
<asrwt>0</asrwt>
<pdfrwt beam="1">  1        2 0.41438775E+00 0.22943663E+04</pdfrwt>
<pdfrwt beam="2">  1       -2 0.75167812E-01 0.22943663E+04</pdfrwt>
<totfact> 0.38620331E+00</totfact>
</mgrwt>
</event>
<event>
12    3  0.4634846E-008  0.1678372E+04  0.7818608E-02  0.8773797E-01
          1   -1    0    0  501    0  0.00000000000E+00  0.00000000000E+00  0.22746244809E+04  0.22746244809E+04  0.00000000000E+00 0. -1.
         -1   -1    0    0    0  501 -0.00000000000E+00 -0.00000000000E+00 -0.30960420550E+03  0.30960420550E+03  0.00000000000E+00 0.  1.
         23    2    1    2    0    0  0.15224594637E+03  0.20102152914E+03 -0.12551579477E+03  0.29660245751E+03  0.92899513969E+02 0.  0.
        254    2    1    2    0    0 -0.15224594637E+03 -0.20102152914E+03  0.20905360702E+04  0.22876262289E+04  0.89403815302E+03 0.  0.
         23    2    4    4    0    0  0.29580123911E+03 -0.45871288732E+02  0.14645571799E+04  0.14972820252E+04  0.85575589998E+02 0.  0.
         23    2    4    4    0    0 -0.44804718548E+03 -0.15515024041E+03  0.62597889032E+03  0.79034420374E+03  0.89311319177E+02 0.  0.
          3    1    3    3  502    0 -0.12958180363E+01 -0.86446840557E+01 -0.57096647995E+01  0.10440784402E+02  0.00000000000E+00 0. -1.
         -3    1    3    3    0  502  0.15354176441E+03  0.20966621320E+03 -0.11980612997E+03  0.28616167310E+03  0.00000000000E+00 0.  1.
         13    1    5    5    0    0  0.26893623456E+03 -0.44397829877E+02  0.14137850488E+04  0.14398215271E+04  0.00000000000E+00 0.  1.
        -13    1    5    5    0    0  0.26865004549E+02 -0.14734588552E+01  0.50772131062E+02  0.57460498110E+02  0.00000000000E+00 0. -1.
          1    1    6    6  503    0 -0.10690583130E+03 -0.35590708796E+02  0.91738854146E+02  0.14529821980E+03  0.00000000000E+00 0. -1.
         -1    1    6    6    0  503 -0.34114135419E+03 -0.11955953162E+03  0.53424003618E+03  0.64504598393E+03  0.00000000000E+00 0.  1.
<mgrwt>
<rscale>  0 0.16783722E+04</rscale>
<asrwt>0</asrwt>
<pdfrwt beam="1">  1        1 0.34994222E+00 0.16783722E+04</pdfrwt>
<pdfrwt beam="2">  1       -1 0.47631418E-01 0.16783722E+04</pdfrwt>
<totfact> 0.81352624E+00</totfact>
</mgrwt>
</event>
<event>
12    3  0.4634846E-008  0.1928661E+04  0.7818608E-02  0.8640720E-01
         -1   -1    0    0    0  501 -0.00000000000E+00  0.00000000000E+00  0.10316497161E+04  0.10316497161E+04  0.00000000000E+00 0.  1.
          1   -1    0    0  501    0  0.00000000000E+00 -0.00000000000E+00 -0.90140383742E+03  0.90140383742E+03  0.00000000000E+00 0. -1.
         23    2    1    2    0    0  0.30395533695E+03  0.28146068615E+03 -0.57381081146E+03  0.71403328306E+03  0.94740262048E+02 0.  0.
        254    2    1    2    0    0 -0.30395533695E+03 -0.28146068615E+03  0.70405669012E+03  0.12190202704E+04  0.90482353646E+03 0.  0.
         23    2    4    4    0    0  0.71219165781E+02  0.20825034312E+03 -0.47084138811E+02  0.24257594572E+03  0.90475401778E+02 0.  0.
         23    2    4    4    0    0 -0.37517450273E+03 -0.48971102928E+03  0.75114082893E+03  0.97644432473E+03  0.93049313282E+02 0.  0.
          1    1    3    3  502    0  0.29916001251E+03  0.28520510125E+03 -0.54184929476E+03  0.68149785113E+03  0.00000000000E+00 0. -1.
         -1    1    3    3    0  502  0.47953244461E+01 -0.37444150953E+01 -0.31961516704E+02  0.32535431932E+02  0.00000000000E+00 0.  1.
         13    1    5    5    0    0 -0.95024361740E+01 -0.70854639296E+00  0.73670166556E+01  0.12044553360E+02  0.00000000000E+00 0. -1.
        -13    1    5    5    0    0  0.80721601955E+02  0.20895888952E+03 -0.54451155467E+02  0.23053139236E+03  0.00000000000E+00 0.  1.
          4    1    6    6  503    0 -0.66666835704E+02 -0.13210933163E+03  0.22632533270E+03  0.27040802264E+03  0.00000000000E+00 0. -1.
         -4    1    6    6    0  503 -0.30850766703E+03 -0.35760169765E+03  0.52481549623E+03  0.70603630209E+03  0.00000000000E+00 0.  1.
<mgrwt>
<rscale>  0 0.19286607E+04</rscale>
<asrwt>0</asrwt>
<pdfrwt beam="1">  1        1 0.13867751E+00 0.19286607E+04</pdfrwt>
<pdfrwt beam="2">  1       -1 0.15871534E+00 0.19286607E+04</pdfrwt>
<totfact> 0.50628823E+00</totfact>
</mgrwt>
</event>
<event>
12    3  0.4634846E-008  0.1626178E+04  0.7818608E-02  0.8804626E-01
          2   -1    0    0  501    0  0.00000000000E+00  0.00000000000E+00  0.42108790793E+03  0.42108790793E+03  0.00000000000E+00 0. -1.
         -2   -1    0    0    0  501 -0.00000000000E+00 -0.00000000000E+00 -0.15700128050E+04  0.15700128050E+04  0.00000000000E+00 0.  1.
         23    2    1    2    0    0  0.17654841318E+03 -0.48232950804E+03 -0.67061357247E+03  0.84971025466E+03  0.92053553773E+02 0.  0.
        254    2    1    2    0    0 -0.17654841318E+03  0.48232950804E+03 -0.47831132455E+03  0.11413904582E+04  0.90009963804E+03 0.  0.
         23    2    4    4    0    0 -0.10014785349E+03  0.64422222204E+03 -0.40436302633E+02  0.65992708738E+03  0.93897828305E+02 0.  0.
         23    2    4    4    0    0 -0.76400559694E+02 -0.16189271399E+03 -0.43787502191E+03  0.48146337084E+03  0.89588762025E+02 0.  0.
          1    1    3    3  502    0  0.53806713848E+02 -0.25270045212E+03 -0.28801191069E+03  0.38691541925E+03  0.00000000000E+00 0. -1.
         -1    1    3    3    0  502  0.12274169934E+03 -0.22962905593E+03 -0.38260166179E+03  0.46279483541E+03  0.00000000000E+00 0.  1.
         13    1    5    5    0    0 -0.94681531813E+02  0.30373983005E+03 -0.18122939852E+02  0.31867054739E+03  0.00000000000E+00 0. -1.
        -13    1    5    5    0    0 -0.54663216765E+01  0.34048239199E+03 -0.22313362781E+02  0.34125653999E+03  0.00000000000E+00 0.  1.
          4    1    6    6  503    0 -0.73747620515E+02 -0.55459290531E+02 -0.17476853040E+03  0.19763219286E+03  0.00000000000E+00 0.  1.
         -4    1    6    6    0  503 -0.26529391792E+01 -0.10643342346E+03 -0.26310649152E+03  0.28383117798E+03  0.00000000000E+00 0. -1.
<mgrwt>
<rscale>  0 0.16261776E+04</rscale>
<asrwt>0</asrwt>
<pdfrwt beam="1">  1        2 0.64782755E-01 0.16261776E+04</pdfrwt>
<pdfrwt beam="2">  1       -2 0.24154043E+00 0.16261776E+04</pdfrwt>
<totfact> 0.52023977E+00</totfact>
</mgrwt>
</event>
<event>
12    3  0.4634846E-008  0.2815327E+04  0.7818608E-02  0.8298526E-01
          2   -1    0    0  501    0  0.00000000000E+00  0.00000000000E+00  0.18818124864E+04  0.18818124864E+04  0.00000000000E+00 0. -1.
         -2   -1    0    0    0  501 -0.00000000000E+00 -0.00000000000E+00 -0.10529832849E+04  0.10529832849E+04  0.00000000000E+00 0.  1.
         23    2    1    2    0    0  0.41338707057E+02  0.89250672998E+03  0.12979827052E+04  0.15790584522E+04  0.10192811526E+03 0.  0.
        254    2    1    2    0    0 -0.41338707057E+02 -0.89250672998E+03 -0.46915350365E+03  0.13557373191E+04  0.90534055291E+03 0.  0.
         23    2    4    4    0    0 -0.45959347307E+03 -0.52620462968E+03 -0.20578613476E+03  0.73379983009E+03  0.89424742617E+02 0.  0.
         23    2    4    4    0    0  0.41825476601E+03 -0.36630210031E+03 -0.26336736889E+03  0.62193748905E+03  0.91266594668E+02 0.  0.
          4    1    3    3  502    0  0.34664647885E+02  0.87661823771E+03  0.12428462947E+04  0.15212915844E+04  0.00000000000E+00 0. -1.
         -4    1    3    3    0  502  0.66740591713E+01  0.15888492273E+02  0.55136410502E+02  0.57766867801E+02  0.00000000000E+00 0.  1.
         13    1    5    5    0    0 -0.38109224608E+03 -0.45323734162E+03 -0.14153789731E+03  0.60884182201E+03  0.00000000000E+00 0. -1.
        -13    1    5    5    0    0 -0.78501226992E+02 -0.72967288059E+02 -0.64248237450E+02  0.12495800807E+03  0.00000000000E+00 0.  1.
          2    1    6    6  503    0  0.38138660206E+03 -0.29167443499E+03 -0.22154134276E+03  0.52878188585E+03  0.00000000000E+00 0. -1.
         -2    1    6    6    0  503  0.36868163958E+02 -0.74627665318E+02 -0.41826026137E+02  0.93155603196E+02  0.00000000000E+00 0.  1.
<mgrwt>
<rscale>  0 0.28153274E+04</rscale>
<asrwt>0</asrwt>
<pdfrwt beam="1">  1        2 0.28950961E+00 0.28153274E+04</pdfrwt>
<pdfrwt beam="2">  1       -2 0.16199743E+00 0.28153274E+04</pdfrwt>
<totfact> 0.16448901E+00</totfact>
</mgrwt>
</event>
<event>
12    3  0.5632204E-008  0.1692481E+04  0.7818608E-02  0.8765664E-01
          2   -1    0    0  501    0  0.00000000000E+00  0.00000000000E+00  0.10735852950E+04  0.10735852950E+04  0.00000000000E+00 0. -1.
         -2   -1    0    0    0  501 -0.00000000000E+00 -0.00000000000E+00 -0.66703873299E+03  0.66703873299E+03  0.00000000000E+00 0.  1.
         23    2    1    2    0    0  0.41121005169E+03  0.30676203563E+02 -0.30829827946E+03  0.52288220627E+03  0.91231773184E+02 0.  0.
        254    2    1    2    0    0 -0.41121005169E+03 -0.30676203563E+02  0.71484484151E+03  0.12177418218E+04  0.89546482954E+03 0.  0.
         23    2    4    4    0    0 -0.79097933338E+02 -0.84159197459E+02 -0.19464418382E+03  0.24380826042E+03  0.90646875182E+02 0.  0.
         23    2    4    4    0    0 -0.33211211835E+03  0.53482993896E+02  0.90948902533E+03  0.97393356133E+03  0.90649902898E+02 0.  0.
          3    1    3    3  502    0  0.66486619034E+02 -0.64755801963E+01 -0.93871650579E+02  0.11521410691E+03  0.00000000000E+00 0. -1.
         -3    1    3    3    0  502  0.34472343265E+03  0.37151783759E+02 -0.21442662888E+03  0.40766809936E+03  0.00000000000E+00 0.  1.
         13    1    5    5    0    0 -0.60080418068E+02 -0.63439470327E+02 -0.19707870404E+03  0.21557884548E+03  0.00000000000E+00 0.  1.
        -13    1    5    5    0    0 -0.19017515270E+02 -0.20719727132E+02  0.24345202215E+01  0.28229414946E+02  0.00000000000E+00 0. -1.
          1    1    6    6  503    0 -0.59620788021E+00  0.90606623354E+00 -0.21805816348E+01  0.24354375628E+01  0.00000000000E+00 0. -1.
         -1    1    6    6    0  503 -0.33151591047E+03  0.52576927663E+02  0.91166960697E+03  0.97149812377E+03  0.00000000000E+00 0.  1.
<mgrwt>
<rscale>  0 0.16924810E+04</rscale>
<asrwt>0</asrwt>
<pdfrwt beam="1">  1        2 0.16516697E+00 0.16924810E+04</pdfrwt>
<pdfrwt beam="2">  1       -2 0.10262134E+00 0.16924810E+04</pdfrwt>
<totfact> 0.16731682E+01</totfact>
</mgrwt>
</event>
<event>
12    3  0.4634846E-008  0.1965823E+04  0.7818608E-02  0.8622768E-01
         -2   -1    0    0    0  501 -0.00000000000E+00  0.00000000000E+00  0.64101668241E+03  0.64101668241E+03  0.00000000000E+00 0.  1.
          2   -1    0    0  501    0  0.00000000000E+00 -0.00000000000E+00 -0.15071600648E+04  0.15071600648E+04  0.00000000000E+00 0. -1.
         23    2    1    2    0    0 -0.51336872343E+03  0.40384936477E+02 -0.99710713726E+03  0.11258424583E+04  0.90112198570E+02 0.  0.
        254    2    1    2    0    0  0.51336872343E+03 -0.40384936477E+02  0.13096375489E+03  0.10223342889E+04  0.87340569266E+03 0.  0.
         23    2    4    4    0    0  0.16309907962E+03  0.39043201112E+03  0.15433669676E+03  0.45891032012E+03  0.87979547967E+02 0.  0.
         23    2    4    4    0    0  0.35026964381E+03 -0.43081694760E+03 -0.23372941876E+02  0.56342396883E+03  0.92780431804E+02 0.  0.
          3    1    3    3  502    0 -0.13925847887E+03 -0.16647000492E+02 -0.21057407624E+03  0.25300491724E+03  0.00000000000E+00 0. -1.
         -3    1    3    3    0  502 -0.37411024456E+03  0.57031936969E+02 -0.78653306103E+03  0.87283754101E+03  0.00000000000E+00 0.  1.
         13    1    5    5    0    0  0.22002790713E+02  0.11292170291E+03  0.76012362753E+02  0.13788877067E+03  0.00000000000E+00 0. -1.
        -13    1    5    5    0    0  0.14109628891E+03  0.27751030821E+03  0.78324334008E+02  0.32102154944E+03  0.00000000000E+00 0.  1.
          3    1    6    6  503    0  0.13951788197E+03 -0.12951642340E+03 -0.43160082276E+02  0.19519870907E+03  0.00000000000E+00 0. -1.
         -3    1    6    6    0  503  0.21075176184E+03 -0.30130052420E+03  0.19787140400E+02  0.36822525976E+03  0.00000000000E+00 0.  1.
<mgrwt>
<rscale>  0 0.19658227E+04</rscale>
<asrwt>0</asrwt>
<pdfrwt beam="1">  1        2 0.23187077E+00 0.19658227E+04</pdfrwt>
<pdfrwt beam="2">  1       -2 0.98617953E-01 0.19658227E+04</pdfrwt>
<totfact> 0.10002550E+01</totfact>
</mgrwt>
</event>
<event>
12    3  0.4634846E-008  0.2229933E+04  0.7818608E-02  0.8506072E-01
          2   -1    0    0  501    0  0.00000000000E+00  0.00000000000E+00  0.25164199873E+04  0.25164199873E+04  0.00000000000E+00 0. -1.
         -2   -1    0    0    0  501 -0.00000000000E+00 -0.00000000000E+00 -0.49401546264E+03  0.49401546264E+03  0.00000000000E+00 0.  1.
         23    2    1    2    0    0  0.43565368785E+02 -0.57404424708E+03 -0.14469786977E+03  0.60061844431E+03  0.91543995783E+02 0.  0.
        254    2    1    2    0    0 -0.43565368785E+02  0.57404424708E+03  0.21671023944E+04  0.24098170056E+04  0.88287058716E+03 0.  0.
         23    2    4    4    0    0  0.12739043037E+03  0.55765379045E+03  0.21371465079E+04  0.22142328624E+04  0.90696752735E+02 0.  0.
         23    2    4    4    0    0 -0.17095579916E+03  0.16390456629E+02  0.29955886578E+02  0.19558414326E+03  0.88663801075E+02 0.  0.
          1    1    3    3  502    0  0.17070231099E+02 -0.13507603118E+03 -0.74758231472E+02  0.15532456394E+03  0.00000000000E+00 0. -1.
         -1    1    3    3    0  502  0.26495137686E+02 -0.43896821590E+03 -0.69939638300E+02  0.44529388038E+03  0.00000000000E+00 0.  1.
         13    1    5    5    0    0  0.11898441062E+03  0.32103022900E+03  0.12540468214E+04  0.12999427404E+04  0.00000000000E+00 0. -1.
        -13    1    5    5    0    0  0.84060197550E+01  0.23662356145E+03  0.88309968643E+03  0.91429012200E+03  0.00000000000E+00 0.  1.
          4    1    6    6  503    0 -0.92170624933E+02 -0.10841712595E+00  0.59648698873E+02  0.10978799175E+03  0.00000000000E+00 0. -1.
         -4    1    6    6    0  503 -0.78785174226E+02  0.16498873755E+02 -0.29692812295E+02  0.85796151516E+02  0.00000000000E+00 0.  1.
<mgrwt>
<rscale>  0 0.22299331E+04</rscale>
<asrwt>0</asrwt>
<pdfrwt beam="1">  1        2 0.38714153E+00 0.22299331E+04</pdfrwt>
<pdfrwt beam="2">  1       -2 0.76002380E-01 0.22299331E+04</pdfrwt>
<totfact> 0.48144944E+00</totfact>
</mgrwt>
</event>
<event>
12    3  0.4634846E-008  0.3741414E+04  0.7818608E-02  0.8058845E-01
          2   -1    0    0  501    0  0.00000000000E+00  0.00000000000E+00  0.11682347600E+04  0.11682347600E+04  0.00000000000E+00 0. -1.
         -2   -1    0    0    0  501 -0.00000000000E+00 -0.00000000000E+00 -0.29955837105E+04  0.29955837105E+04  0.00000000000E+00 0.  1.
         23    2    1    2    0    0 -0.20374064076E+03  0.65005847047E+03  0.94678940696E+03  0.11698579486E+04  0.89839718408E+02 0.  0.
        254    2    1    2    0    0  0.20374064076E+03 -0.65005847047E+03 -0.27741383575E+04  0.29939605219E+04  0.89658781884E+03 0.  0.
         23    2    4    4    0    0 -0.18280089406E+02  0.21180974511E+03 -0.53788110258E+03  0.58545813740E+03  0.90816410059E+02 0.  0.
         23    2    4    4    0    0  0.22202073017E+03 -0.86186821558E+03 -0.22362572549E+04  0.24085023845E+04  0.89034828616E+02 0.  0.
          2    1    3    3  502    0 -0.14133706140E+03  0.38193476677E+03  0.63000766535E+03  0.75017330624E+03  0.00000000000E+00 0. -1.
         -2    1    3    3    0  502 -0.62403579358E+02  0.26812370369E+03  0.31678174161E+03  0.41968464234E+03  0.00000000000E+00 0.  1.
         13    1    5    5    0    0  0.22345092349E+02  0.16759078531E+03 -0.36025590586E+03  0.39795765124E+03  0.00000000000E+00 0. -1.
        -13    1    5    5    0    0 -0.40625181755E+02  0.44218959801E+02 -0.17762519672E+03  0.18750048615E+03  0.00000000000E+00 0.  1.
          3    1    6    6  503    0  0.22915135034E+03 -0.81487980110E+03 -0.21332890421E+04  0.22950951110E+04  0.00000000000E+00 0. -1.
         -3    1    6    6    0  503 -0.71306201747E+01 -0.46988414484E+02 -0.10296821279E+03  0.11340727351E+03  0.00000000000E+00 0.  1.
<mgrwt>
<rscale>  0 0.37414142E+04</rscale>
<asrwt>0</asrwt>
<pdfrwt beam="1">  1        2 0.17972843E+00 0.37414142E+04</pdfrwt>
<pdfrwt beam="2">  1       -2 0.46085903E+00 0.37414142E+04</pdfrwt>
<totfact> 0.46906508E-02</totfact>
</mgrwt>
</event>
<event>
12    3  0.4634846E-008  0.1484665E+04  0.7818608E-02  0.8894715E-01
         -1   -1    0    0    0  501 -0.00000000000E+00  0.00000000000E+00  0.67196039260E+03  0.67196039260E+03  0.00000000000E+00 0.  1.
          1   -1    0    0  501    0  0.00000000000E+00 -0.00000000000E+00 -0.82007488010E+03  0.82007488010E+03  0.00000000000E+00 0. -1.
         23    2    1    2    0    0  0.19068889377E+03 -0.37385895534E+03 -0.24077349800E+03  0.49280643396E+03  0.93560308464E+02 0.  0.
        254    2    1    2    0    0 -0.19068889377E+03  0.37385895534E+03  0.92659010492E+02  0.99922883874E+03  0.90207527804E+03 0.  0.
         23    2    4    4    0    0 -0.31738970721E+03  0.56915825361E+03  0.24863982838E+03  0.70410870444E+03  0.96280628992E+02 0.  0.
         23    2    4    4    0    0  0.12670081344E+03 -0.19529929827E+03 -0.15598081788E+03  0.29512013430E+03  0.92579512278E+02 0.  0.
          4    1    3    3  502    0  0.26217541534E+02 -0.89794437646E+02 -0.96050665630E+02  0.13407509420E+03  0.00000000000E+00 0. -1.
         -4    1    3    3    0  502  0.16447135224E+03 -0.28406451769E+03 -0.14472283237E+03  0.35873133976E+03  0.00000000000E+00 0.  1.
         13    1    5    5    0    0 -0.30432600393E+03  0.56551601892E+03  0.25242293119E+03  0.69002899976E+03  0.00000000000E+00 0.  1.
        -13    1    5    5    0    0 -0.13063703284E+02  0.36422346884E+01 -0.37831028093E+01  0.14079704680E+02  0.00000000000E+00 0. -1.
          2    1    6    6  503    0  0.44983440626E+02 -0.85182045101E+01 -0.19396742744E+02  0.49722262295E+02  0.00000000000E+00 0. -1.
         -2    1    6    6    0  503  0.81717372815E+02 -0.18678109376E+03 -0.13658407514E+03  0.24539787201E+03  0.00000000000E+00 0.  1.
<mgrwt>
<rscale>  0 0.14846654E+04</rscale>
<asrwt>0</asrwt>
<pdfrwt beam="1">  1        1 0.12616537E+00 0.14846654E+04</pdfrwt>
<pdfrwt beam="2">  1       -1 0.10337852E+00 0.14846654E+04</pdfrwt>
<totfact> 0.18167060E+01</totfact>
</mgrwt>
</event>
<event>
12    3  0.4634846E-008  0.1885794E+04  0.7818608E-02  0.8661960E-01
         -1   -1    0    0    0  501 -0.00000000000E+00  0.00000000000E+00  0.47326880205E+03  0.47326880205E+03  0.00000000000E+00 0. -1.
          1   -1    0    0  501    0  0.00000000000E+00 -0.00000000000E+00 -0.18785408940E+04  0.18785408940E+04  0.00000000000E+00 0.  1.
         23    2    1    2    0    0 -0.48513240807E+03  0.23344922389E+03  0.32541834917E+02  0.54696335284E+03  0.90873234942E+02 0.  0.
        254    2    1    2    0    0  0.48513240807E+03 -0.23344922389E+03 -0.14378139269E+04  0.18048463432E+04  0.94884637367E+03 0.  0.
         23    2    4    4    0    0  0.87849910488E+02 -0.25455408867E+03 -0.13597966800E+04  0.13892424961E+04  0.91827617299E+02 0.  0.
         23    2    4    4    0    0  0.39728249759E+03  0.21104864775E+02 -0.78017246895E+02  0.41560384710E+03  0.91438879619E+02 0.  0.
          2    1    3    3  502    0 -0.10135060840E+03  0.88560910593E+02 -0.74491391636E+01  0.13479788716E+03  0.00000000000E+00 0.  1.
         -2    1    3    3    0  502 -0.38378179967E+03  0.14488831330E+03  0.39990974080E+02  0.41216546568E+03  0.00000000000E+00 0. -1.
         13    1    5    5    0    0  0.15237844976E+02 -0.50913281364E+02 -0.12763649306E+03  0.13825855670E+03  0.00000000000E+00 0. -1.
        -13    1    5    5    0    0  0.72612065512E+02 -0.20364080730E+03 -0.12321601869E+04  0.12509839394E+04  0.00000000000E+00 0.  1.
          4    1    6    6  503    0  0.89204036191E+02  0.61179206441E+01 -0.57863390446E+02  0.10650333788E+03  0.00000000000E+00 0. -1.
         -4    1    6    6    0  503  0.30807846140E+03  0.14986944130E+02 -0.20153856448E+02  0.30910050922E+03  0.00000000000E+00 0.  1.
<mgrwt>
<rscale>  0 0.18857940E+04</rscale>
<asrwt>0</asrwt>
<pdfrwt beam="1">  1        1 0.28900628E+00 0.18857940E+04</pdfrwt>
<pdfrwt beam="2">  1       -1 0.72810587E-01 0.18857940E+04</pdfrwt>
<totfact> 0.64187699E+00</totfact>
</mgrwt>
</event>
<event>
12    3  0.4634846E-008  0.2731015E+04  0.7818608E-02  0.8325011E-01
          3   -1    0    0  501    0  0.00000000000E+00  0.00000000000E+00  0.78939108104E+03  0.78939108104E+03  0.00000000000E+00 0. -1.
         -3   -1    0    0    0  501 -0.00000000000E+00 -0.00000000000E+00 -0.23620876163E+04  0.23620876163E+04  0.00000000000E+00 0.  1.
         23    2    1    2    0    0 -0.22304301766E+02 -0.10497443005E+04 -0.14099123908E+04  0.17601000081E+04  0.87398573146E+02 0.  0.
        254    2    1    2    0    0  0.22304301766E+02  0.10497443005E+04 -0.16278414449E+03  0.13913786892E+04  0.89831809557E+03 0.  0.
         23    2    4    4    0    0 -0.31276496904E+02  0.21712818946E+03  0.33859727925E+03  0.41368675887E+03  0.91464457760E+02 0.  0.
         23    2    4    4    0    0  0.53580798670E+02  0.83261611105E+03 -0.50138142373E+03  0.97769193036E+03  0.91529712505E+02 0.  0.
          1    1    3    3  502    0  0.32694374548E+02 -0.29112118646E+03 -0.39950831990E+03  0.49540626258E+03  0.00000000000E+00 0. -1.
         -1    1    3    3    0  502 -0.54998676314E+02 -0.75862311405E+03 -0.10104040709E+04  0.12646937456E+04  0.00000000000E+00 0.  1.
         13    1    5    5    0    0 -0.34446377691E+02  0.14521040238E+03  0.14902028475E+03  0.21090201318E+03  0.00000000000E+00 0.  1.
        -13    1    5    5    0    0  0.31698807862E+01  0.71917787082E+02  0.18957699450E+03  0.20278474569E+03  0.00000000000E+00 0. -1.
          4    1    6    6  503    0  0.33626854759E+02  0.53257152236E+03 -0.26863566746E+03  0.59743477771E+03  0.00000000000E+00 0. -1.
         -4    1    6    6    0  503  0.19953943911E+02  0.30004458869E+03 -0.23274575627E+03  0.38025715265E+03  0.00000000000E+00 0.  1.
<mgrwt>
<rscale>  0 0.27310151E+04</rscale>
<asrwt>0</asrwt>
<pdfrwt beam="1">  1        3 0.12144478E+00 0.27310151E+04</pdfrwt>
<pdfrwt beam="2">  1       -3 0.36339809E+00 0.27310151E+04</pdfrwt>
<totfact> 0.21109642E-02</totfact>
</mgrwt>
</event>
<event>
12    3  0.4634846E-008  0.1324138E+04  0.7818608E-02  0.9010639E-01
          2   -1    0    0  501    0  0.00000000000E+00  0.00000000000E+00  0.28458418483E+03  0.28458418483E+03  0.00000000000E+00 0. -1.
         -2   -1    0    0    0  501 -0.00000000000E+00 -0.00000000000E+00 -0.15402662342E+04  0.15402662342E+04  0.00000000000E+00 0.  1.
         23    2    1    2    0    0 -0.23321547576E+03 -0.17402541261E+03 -0.73416802396E+02  0.31386505924E+03  0.91907269391E+02 0.  0.
        254    2    1    2    0    0  0.23321547576E+03  0.17402541261E+03 -0.11822652470E+04  0.15109853598E+04  0.89479122755E+03 0.  0.
         23    2    4    4    0    0 -0.13088781719E+03  0.44013062859E+03 -0.72885961188E+03  0.86541185268E+03  0.82793417751E+02 0.  0.
         23    2    4    4    0    0  0.36410329295E+03 -0.26610521598E+03 -0.45340563508E+03  0.64557350708E+03  0.88347547898E+02 0.  0.
          1    1    3    3  502    0 -0.72289956686E+02 -0.10048183847E+03 -0.41431040194E+01  0.12385315099E+03  0.00000000000E+00 0. -1.
         -1    1    3    3    0  502 -0.16092551908E+03 -0.73543574137E+02 -0.69273698376E+02  0.19001190824E+03  0.00000000000E+00 0.  1.
         13    1    5    5    0    0 -0.26010735668E+02  0.13216918564E+03 -0.15168278712E+03  0.20286182467E+03  0.00000000000E+00 0.  1.
        -13    1    5    5    0    0 -0.10487708152E+03  0.30796144295E+03 -0.57717682476E+03  0.66255002801E+03  0.00000000000E+00 0. -1.
          4    1    6    6  503    0  0.14067833496E+03 -0.62714382950E+02 -0.19123114112E+03  0.24554599791E+03  0.00000000000E+00 0. -1.
         -4    1    6    6    0  503  0.22342495799E+03 -0.20339083303E+03 -0.26217449396E+03  0.40002750918E+03  0.00000000000E+00 0.  1.
<mgrwt>
<rscale>  0 0.13241381E+04</rscale>
<asrwt>0</asrwt>
<pdfrwt beam="1">  1        2 0.43782182E-01 0.13241381E+04</pdfrwt>
<pdfrwt beam="2">  1       -2 0.23696404E+00 0.13241381E+04</pdfrwt>
<totfact> 0.88217700E+00</totfact>
</mgrwt>
</event>
<event>
12    3  0.4634846E-008  0.1472545E+04  0.7818608E-02  0.8902918E-01
          1   -1    0    0  501    0  0.00000000000E+00  0.00000000000E+00  0.63611036545E+03  0.63611036545E+03  0.00000000000E+00 0. -1.
         -1   -1    0    0    0  501 -0.00000000000E+00 -0.00000000000E+00 -0.85220645454E+03  0.85220645454E+03  0.00000000000E+00 0.  1.
         23    2    1    2    0    0 -0.32641380423E+03 -0.21302314161E+03  0.16267114157E+03  0.43209098247E+03  0.91191481959E+02 0.  0.
        254    2    1    2    0    0  0.32641380423E+03  0.21302314161E+03 -0.37876723067E+03  0.10562258375E+04  0.90566195370E+03 0.  0.
         23    2    4    4    0    0  0.35795279514E+03 -0.27755162898E+03 -0.64126875735E+02  0.46635926857E+03  0.90628918672E+02 0.  0.
         23    2    4    4    0    0 -0.31538990911E+02  0.49057477058E+03 -0.31464035493E+03  0.58986656895E+03  0.85356328013E+02 0.  0.
          1    1    3    3  502    0 -0.25133648702E+03 -0.14002445378E+03  0.79859130972E+02  0.29858727060E+03  0.00000000000E+00 0. -1.
         -1    1    3    3    0  502 -0.75077317201E+02 -0.72998687831E+02  0.82812010600E+02  0.13350371187E+03  0.00000000000E+00 0.  1.
         13    1    5    5    0    0  0.50376810845E+02 -0.20120991729E+02  0.17594064509E+02  0.57028313012E+02  0.00000000000E+00 0.  1.
        -13    1    5    5    0    0  0.30757598429E+03 -0.25743063725E+03 -0.81720940244E+02  0.40933095556E+03  0.00000000000E+00 0. -1.
          2    1    6    6  503    0 -0.40182305184E+02  0.14602799748E+03 -0.67816719823E+02  0.16594547655E+03  0.00000000000E+00 0.  1.
         -2    1    6    6    0  503  0.86433142729E+01  0.34454677310E+03 -0.24682363511E+03  0.42392109240E+03  0.00000000000E+00 0. -1.
<mgrwt>
<rscale>  0 0.14725452E+04</rscale>
<asrwt>0</asrwt>
<pdfrwt beam="1">  1        1 0.97863133E-01 0.14725452E+04</pdfrwt>
<pdfrwt beam="2">  1       -1 0.13110869E+00 0.14725452E+04</pdfrwt>
<totfact> 0.15135410E+01</totfact>
</mgrwt>
</event>
<event>
12    3  0.4634846E-008  0.1336517E+04  0.7818608E-02  0.9001098E-01
          2   -1    0    0  501    0  0.00000000000E+00  0.00000000000E+00  0.18153984525E+04  0.18153984525E+04  0.00000000000E+00 0. -1.
         -2   -1    0    0    0  501 -0.00000000000E+00 -0.00000000000E+00 -0.24598980457E+03  0.24598980457E+03  0.00000000000E+00 0.  1.
         23    2    1    2    0    0  0.27214358901E+02  0.29794054280E+03  0.13075576478E+03  0.33946039432E+03  0.92882188367E+02 0.  0.
        254    2    1    2    0    0 -0.27214358901E+02 -0.29794054280E+03  0.14386528832E+04  0.17219278628E+04  0.89766600580E+03 0.  0.
         23    2    4    4    0    0 -0.41159885377E+03  0.31407775883E+02  0.53247408510E+03  0.68011924815E+03  0.92916497925E+02 0.  0.
         23    2    4    4    0    0  0.38438449487E+03 -0.32934831868E+03  0.90617879808E+03  0.10418086146E+04  0.89349988941E+02 0.  0.
          1    1    3    3  502    0 -0.44822470817E+01  0.20979416985E+03  0.12789340003E+03  0.24574459508E+03  0.00000000000E+00 0. -1.
         -1    1    3    3    0  502  0.31696605983E+02  0.88146372949E+02  0.28623647532E+01  0.93715799238E+02  0.00000000000E+00 0.  1.
         13    1    5    5    0    0 -0.27640305808E+03  0.33179217407E+02  0.28677070884E+03  0.39967105278E+03  0.00000000000E+00 0. -1.
        -13    1    5    5    0    0 -0.13519579569E+03 -0.17714415243E+01  0.24570337627E+03  0.28044819537E+03  0.00000000000E+00 0.  1.
          2    1    6    6  503    0  0.35779989870E+03 -0.28199047671E+03  0.84515334394E+03  0.96011643629E+03  0.00000000000E+00 0. -1.
         -2    1    6    6    0  503  0.26584596170E+02 -0.47357841966E+02  0.61025454139E+02  0.81692178341E+02  0.00000000000E+00 0.  1.
<mgrwt>
<rscale>  0 0.13365171E+04</rscale>
<asrwt>0</asrwt>
<pdfrwt beam="1">  1        2 0.27929206E+00 0.13365171E+04</pdfrwt>
<pdfrwt beam="2">  1       -2 0.37844586E-01 0.13365171E+04</pdfrwt>
<totfact> 0.54511302E+01</totfact>
</mgrwt>
</event>
<event>
12    3  0.4634846E-008  0.1788454E+04  0.7818608E-02  0.8712463E-01
          2   -1    0    0  501    0  0.00000000000E+00  0.00000000000E+00  0.21558436198E+04  0.21558436198E+04  0.00000000000E+00 0. -1.
         -2   -1    0    0    0  501 -0.00000000000E+00 -0.00000000000E+00 -0.37091852847E+03  0.37091852847E+03  0.00000000000E+00 0.  1.
         23    2    1    2    0    0  0.32050554835E+03  0.88162724862E+02 -0.14148731795E+03  0.37281782708E+03  0.92076047218E+02 0.  0.
        254    2    1    2    0    0 -0.32050554835E+03 -0.88162724862E+02  0.19264124092E+04  0.21539443212E+04  0.90438647467E+03 0.  0.
         23    2    4    4    0    0  0.14038024549E+03  0.28831990830E+03  0.45628838514E+03  0.56531250784E+03  0.92434616104E+02 0.  0.
         23    2    4    4    0    0 -0.46088579384E+03 -0.37648263316E+03  0.14701240241E+04  0.15886318133E+04  0.91277072728E+02 0.  0.
          4    1    3    3  502    0  0.42091734065E+02 -0.38797065668E+01 -0.50364094102E+02  0.65751868219E+02  0.00000000000E+00 0. -1.
         -4    1    3    3    0  502  0.27841381429E+03  0.92042431429E+02 -0.91123223853E+02  0.30706595886E+03  0.00000000000E+00 0.  1.
         13    1    5    5    0    0  0.11707067718E+03  0.28115497658E+03  0.44285847470E+03  0.53747306251E+03  0.00000000000E+00 0.  1.
        -13    1    5    5    0    0  0.23309568315E+02  0.71649317217E+01  0.13429910441E+02  0.27839445326E+02  0.00000000000E+00 0. -1.
          1    1    6    6  503    0 -0.15357655565E+03 -0.80512630078E+02  0.36807566941E+03  0.40687558351E+03  0.00000000000E+00 0. -1.
         -1    1    6    6    0  503 -0.30730923819E+03 -0.29597000308E+03  0.11020483547E+04  0.11817562298E+04  0.00000000000E+00 0.  1.
<mgrwt>
<rscale>  0 0.17884545E+04</rscale>
<asrwt>0</asrwt>
<pdfrwt beam="1">  1        2 0.33166824E+00 0.17884545E+04</pdfrwt>
<pdfrwt beam="2">  1       -2 0.57064390E-01 0.17884545E+04</pdfrwt>
<totfact> 0.14875636E+01</totfact>
</mgrwt>
</event>
<event>
12    3  0.4634846E-008  0.1159040E+04  0.7818608E-02  0.9149484E-01
         -2   -1    0    0    0  501 -0.00000000000E+00  0.00000000000E+00  0.10350268413E+03  0.10350268413E+03  0.00000000000E+00 0.  1.
          2   -1    0    0  501    0  0.00000000000E+00 -0.00000000000E+00 -0.32447794447E+04  0.32447794447E+04  0.00000000000E+00 0. -1.
         23    2    1    2    0    0  0.13927025395E+03  0.64783709723E+02 -0.11162119630E+04  0.11308472517E+04  0.96401387517E+02 0.  0.
        254    2    1    2    0    0 -0.13927025395E+03 -0.64783709723E+02 -0.20250647976E+04  0.22174348772E+04  0.89024539736E+03 0.  0.
         23    2    4    4    0    0 -0.20340460989E+03  0.22791790075E+03 -0.18108750330E+04  0.18387565218E+04  0.91853996362E+02 0.  0.
         23    2    4    4    0    0  0.64134355947E+02 -0.29270161047E+03 -0.21418976459E+03  0.37867835536E+03  0.87935164656E+02 0.  0.
          3    1    3    3  502    0  0.12746103667E+03  0.57768714445E+02 -0.11028207185E+04  0.11116641028E+04  0.00000000000E+00 0. -1.
         -3    1    3    3    0  502  0.11809217275E+02  0.70149952779E+01 -0.13391244518E+02  0.19183148885E+02  0.00000000000E+00 0.  1.
         13    1    5    5    0    0 -0.58882369292E+02  0.18851086911E+02 -0.46521629531E+03  0.46930661439E+03  0.00000000000E+00 0. -1.
        -13    1    5    5    0    0 -0.14452224060E+03  0.20906681384E+03 -0.13456587377E+04  0.13694499074E+04  0.00000000000E+00 0.  1.
          3    1    6    6  503    0  0.35778324432E+02 -0.18964304749E+03 -0.84661873254E+02  0.21074203839E+03  0.00000000000E+00 0. -1.
         -3    1    6    6    0  503  0.28356031515E+02 -0.10305856298E+03 -0.12952789133E+03  0.16793631698E+03  0.00000000000E+00 0.  1.
<mgrwt>
<rscale>  0 0.11590399E+04</rscale>
<asrwt>0</asrwt>
<pdfrwt beam="1">  1        2 0.49919679E+00 0.11590399E+04</pdfrwt>
<pdfrwt beam="2">  1       -2 0.15923491E-01 0.11590399E+04</pdfrwt>
<totfact> 0.38864809E+01</totfact>
</mgrwt>
</event>
<event>
12    3  0.4634846E-008  0.1222776E+04  0.7818608E-02  0.9093151E-01
          2   -1    0    0  501    0  0.00000000000E+00  0.00000000000E+00  0.88643763234E+03  0.88643763234E+03  0.00000000000E+00 0. -1.
         -2   -1    0    0    0  501 -0.00000000000E+00 -0.00000000000E+00 -0.42168284940E+03  0.42168284940E+03  0.00000000000E+00 0.  1.
         23    2    1    2    0    0  0.12134697054E+03 -0.18228020477E+03 -0.60945115089E+02  0.24287290470E+03  0.85567403106E+02 0.  0.
        254    2    1    2    0    0 -0.12134697054E+03  0.18228020477E+03  0.52569989803E+03  0.10652475770E+04  0.90024488739E+03 0.  0.
         23    2    4    4    0    0 -0.26769242930E+03  0.13555377180E+03  0.72947561987E+03  0.79410884815E+03  0.91870131045E+02 0.  0.
         23    2    4    4    0    0  0.14634545876E+03  0.46726432968E+02 -0.20377572184E+03  0.27113872888E+03  0.91604108270E+02 0.  0.
          1    1    3    3  502    0  0.65737282749E+02 -0.50189635069E+02 -0.55206162479E+02  0.99438977203E+02  0.00000000000E+00 0. -1.
         -1    1    3    3    0  502  0.55609687791E+02 -0.13209056970E+03 -0.57389526098E+01  0.14343392750E+03  0.00000000000E+00 0.  1.
         13    1    5    5    0    0 -0.11916201223E+03  0.10496264589E+02  0.27420841282E+03  0.29916552340E+03  0.00000000000E+00 0. -1.
        -13    1    5    5    0    0 -0.14853041707E+03  0.12505750722E+03  0.45526720705E+03  0.49494332475E+03  0.00000000000E+00 0.  1.
          2    1    6    6  503    0  0.88785183830E+02  0.70223708104E+02 -0.10484281335E+03  0.15429255834E+03  0.00000000000E+00 0. -1.
         -2    1    6    6    0  503  0.57560274930E+02 -0.23497275136E+02 -0.98932908487E+02  0.11684617054E+03  0.00000000000E+00 0.  1.
<mgrwt>
<rscale>  0 0.12227764E+04</rscale>
<asrwt>0</asrwt>
<pdfrwt beam="1">  1        2 0.13637502E+00 0.12227764E+04</pdfrwt>
<pdfrwt beam="2">  1       -2 0.64874285E-01 0.12227764E+04</pdfrwt>
<totfact> 0.64714386E+01</totfact>
</mgrwt>
</event>
<event>
12    3  0.4634846E-008  0.1853171E+04  0.7818608E-02  0.8678524E-01
         -2   -1    0    0    0  501 -0.00000000000E+00  0.00000000000E+00  0.53683954441E+03  0.53683954441E+03  0.00000000000E+00 0.  1.
          2   -1    0    0  501    0  0.00000000000E+00 -0.00000000000E+00 -0.15992871218E+04  0.15992871218E+04  0.00000000000E+00 0. -1.
         23    2    1    2    0    0 -0.58844971058E+03  0.19952561060E+03 -0.79058085005E+03  0.10095781682E+04  0.90257776287E+02 0.  0.
        254    2    1    2    0    0  0.58844971058E+03 -0.19952561060E+03 -0.27186672733E+03  0.11265484980E+04  0.89950901588E+03 0.  0.
         23    2    4    4    0    0  0.67731314992E+03 -0.38125927492E+03 -0.39036533752E+03  0.87452614435E+03  0.91099630384E+02 0.  0.
         23    2    4    4    0    0 -0.88863439338E+02  0.18173366432E+03  0.11849861019E+03  0.25202235360E+03  0.92463563086E+02 0.  0.
          3    1    3    3  502    0 -0.55281297088E+03  0.19845462348E+03 -0.70997572504E+03  0.92144014917E+03  0.00000000000E+00 0. -1.
         -3    1    3    3    0  502 -0.35636739693E+02  0.10709871145E+01 -0.80605125007E+02  0.88138019077E+02  0.00000000000E+00 0.  1.
         13    1    5    5    0    0  0.45851091324E+03 -0.21975360028E+03 -0.22304917516E+03  0.55522503270E+03  0.00000000000E+00 0.  1.
        -13    1    5    5    0    0  0.21880223667E+03 -0.16150567464E+03 -0.16731616236E+03  0.31930111165E+03  0.00000000000E+00 0. -1.
          3    1    6    6  503    0  0.12053535119E+02  0.27772373040E+01 -0.37839779403E+01  0.12935194045E+02  0.00000000000E+00 0. -1.
         -3    1    6    6    0  503 -0.10091697446E+03  0.17895642702E+03  0.12228258813E+03  0.23908715956E+03  0.00000000000E+00 0.  1.
<mgrwt>
<rscale>  0 0.18531709E+04</rscale>
<asrwt>0</asrwt>
<pdfrwt beam="1">  1        2 0.24604417E+00 0.18531709E+04</pdfrwt>
<pdfrwt beam="2">  1       -2 0.82590700E-01 0.18531709E+04</pdfrwt>
<totfact> 0.13496743E+01</totfact>
</mgrwt>
</event>
<event>
12    3  0.4634846E-008  0.2247099E+04  0.7818608E-02  0.8499076E-01
          1   -1    0    0  501    0  0.00000000000E+00  0.00000000000E+00  0.18958787771E+04  0.18958787771E+04  0.00000000000E+00 0. -1.
         -1   -1    0    0    0  501 -0.00000000000E+00 -0.00000000000E+00 -0.66584591635E+03  0.66584591635E+03  0.00000000000E+00 0.  1.
         23    2    1    2    0    0 -0.77409203884E+03  0.25941856409E+03 -0.25172580173E+02  0.82185820997E+03  0.91108630310E+02 0.  0.
        254    2    1    2    0    0  0.77409203884E+03 -0.25941856409E+03  0.12552054410E+04  0.17398664835E+04  0.88604639013E+03 0.  0.
         23    2    4    4    0    0  0.15826377589E+03 -0.31527734281E+03  0.99962082754E+03  0.10647646844E+04  0.10017389211E+03 0.  0.
         23    2    4    4    0    0  0.61582826294E+03  0.55858778720E+02  0.25558461342E+03  0.67510179910E+03  0.89857063936E+02 0.  0.
          3    1    3    3  502    0 -0.66581203353E+02  0.48580869806E+02 -0.13428089407E+02  0.83507311873E+02  0.00000000000E+00 0. -1.
         -3    1    3    3    0  502 -0.70751083548E+03  0.21083769429E+03 -0.11744490766E+02  0.73835089810E+03  0.00000000000E+00 0.  1.
         13    1    5    5    0    0  0.11862902767E+02 -0.35525022325E+02  0.41228232727E+02  0.55700294856E+02  0.00000000000E+00 0. -1.
        -13    1    5    5    0    0  0.14640087313E+03 -0.27975232049E+03  0.95839259482E+03  0.10090643896E+04  0.00000000000E+00 0.  1.
          1    1    6    6  503    0  0.22241468299E+03 -0.83677756914E+01  0.12698874511E+03  0.25625076051E+03  0.00000000000E+00 0. -1.
         -1    1    6    6    0  503  0.39341357995E+03  0.64226554412E+02  0.12859586831E+03  0.41885103859E+03  0.00000000000E+00 0.  1.
<mgrwt>
<rscale>  0 0.22470987E+04</rscale>
<asrwt>0</asrwt>
<pdfrwt beam="1">  1        1 0.29167366E+00 0.22470987E+04</pdfrwt>
<pdfrwt beam="2">  1       -1 0.10243783E+00 0.22470987E+04</pdfrwt>
<totfact> 0.28704677E+00</totfact>
</mgrwt>
</event>
<event>
12    3  0.4634846E-008  0.1501517E+04  0.7818608E-02  0.8883445E-01
         -2   -1    0    0    0  501 -0.00000000000E+00  0.00000000000E+00  0.20918956827E+03  0.20918956827E+03  0.00000000000E+00 0. -1.
          2   -1    0    0  501    0  0.00000000000E+00 -0.00000000000E+00 -0.26943891860E+04  0.26943891860E+04  0.00000000000E+00 0.  1.
         23    2    1    2    0    0  0.13349729522E+03 -0.37758269784E+03 -0.32064879948E+03  0.52088465858E+03  0.90083036101E+02 0.  0.
        254    2    1    2    0    0 -0.13349729522E+03  0.37758269784E+03 -0.21645508182E+04  0.23826940957E+04  0.91189949408E+03 0.  0.
         23    2    4    4    0    0 -0.34069013800E+02  0.20292225226E+03 -0.21498441797E+04  0.21615904414E+04  0.91132326194E+02 0.  0.
         23    2    4    4    0    0 -0.99428281420E+02  0.17466044558E+03 -0.14706638490E+02  0.22110365430E+03  0.90985088527E+02 0.  0.
          2    1    3    3  502    0  0.14544710791E+03 -0.36519182438E+03 -0.31023930381E+03  0.50076776596E+03  0.00000000000E+00 0. -1.
         -2    1    3    3    0  502 -0.11949812694E+02 -0.12390873464E+02 -0.10409495670E+02  0.20116892621E+02  0.00000000000E+00 0.  1.
         13    1    5    5    0    0 -0.31262293422E+02  0.17206123876E+03 -0.20393134013E+04  0.20467978771E+04  0.00000000000E+00 0. -1.
        -13    1    5    5    0    0 -0.28067203782E+01  0.30861013506E+02 -0.11053077841E+03  0.11479256426E+03  0.00000000000E+00 0.  1.
          1    1    6    6  503    0 -0.90962161210E+02  0.15444664516E+03 -0.43957481141E+02  0.18455389761E+03  0.00000000000E+00 0. -1.
         -1    1    6    6    0  503 -0.84661202102E+01  0.20213800420E+02  0.29250842651E+02  0.36549756697E+02  0.00000000000E+00 0.  1.
<mgrwt>
<rscale>  0 0.15015167E+04</rscale>
<asrwt>0</asrwt>
<pdfrwt beam="1">  1        2 0.41452140E+00 0.15015167E+04</pdfrwt>
<pdfrwt beam="2">  1       -2 0.32183011E-01 0.15015167E+04</pdfrwt>
<totfact> 0.23333037E+01</totfact>
</mgrwt>
</event>
<event>
12    3  0.4634846E-008  0.1131560E+04  0.7818608E-02  0.9174965E-01
         -1   -1    0    0    0  501 -0.00000000000E+00  0.00000000000E+00  0.16665766153E+03  0.16665766153E+03  0.00000000000E+00 0.  1.
          1   -1    0    0  501    0  0.00000000000E+00 -0.00000000000E+00 -0.19207471266E+04  0.19207471266E+04  0.00000000000E+00 0. -1.
         23    2    1    2    0    0  0.10138105780E+03 -0.98402644659E+02 -0.56930666450E+03  0.59430257335E+03  0.95521050498E+02 0.  0.
        254    2    1    2    0    0 -0.10138105780E+03  0.98402644659E+02 -0.11847828006E+04  0.14931022148E+04  0.89759831768E+03 0.  0.
         23    2    4    4    0    0 -0.70683260960E+02  0.46395558009E+03 -0.40810489475E+03  0.62929303011E+03  0.95964623393E+02 0.  0.
         23    2    4    4    0    0 -0.30697796843E+02 -0.36555293543E+03 -0.77667790582E+03  0.86380918467E+03  0.91468217451E+02 0.  0.
          1    1    3    3  502    0  0.40267563879E+02 -0.99284550742E+02 -0.40711756134E+03  0.42097934328E+03  0.00000000000E+00 0. -1.
         -1    1    3    3    0  502  0.61113493923E+02  0.88190608296E+00 -0.16218910316E+03  0.17332323007E+03  0.00000000000E+00 0.  1.
         13    1    5    5    0    0  0.18383857020E+02  0.13388628979E+03 -0.90432827674E+02  0.16260873628E+03  0.00000000000E+00 0. -1.
        -13    1    5    5    0    0 -0.89067117980E+02  0.33006929030E+03 -0.31767206708E+03  0.46668429383E+03  0.00000000000E+00 0.  1.
          2    1    6    6  503    0 -0.33887216903E+02 -0.16278520195E+03 -0.44497932258E+03  0.47503048635E+03  0.00000000000E+00 0. -1.
         -2    1    6    6    0  503  0.31894200608E+01 -0.20276773349E+03 -0.33169858324E+03  0.38877869832E+03  0.00000000000E+00 0.  1.
<mgrwt>
<rscale>  0 0.11315604E+04</rscale>
<asrwt>0</asrwt>
<pdfrwt beam="1">  1        1 0.29549956E+00 0.11315604E+04</pdfrwt>
<pdfrwt beam="2">  1       -1 0.25639640E-01 0.11315604E+04</pdfrwt>
<totfact> 0.45069179E+01</totfact>
</mgrwt>
</event>
<event>
12    3  0.4634846E-008  0.1834595E+04  0.7818608E-02  0.8688115E-01
         -2   -1    0    0    0  501 -0.00000000000E+00  0.00000000000E+00  0.12656948596E+04  0.12656948596E+04  0.00000000000E+00 0.  1.
          2   -1    0    0  501    0  0.00000000000E+00 -0.00000000000E+00 -0.66480093913E+03  0.66480093913E+03  0.00000000000E+00 0. -1.
         23    2    1    2    0    0 -0.34190233849E+03 -0.32101794849E+02  0.85999942884E+03  0.93076742471E+03  0.93814961422E+02 0.  0.
        254    2    1    2    0    0  0.34190233849E+03  0.32101794849E+02 -0.25910550840E+03  0.99972837398E+03  0.90243748978E+03 0.  0.
         23    2    4    4    0    0 -0.26110639251E+00 -0.11322981455E+03  0.29386716035E+03  0.32734676503E+03  0.89313703132E+02 0.  0.
         23    2    4    4    0    0  0.34216344489E+03  0.14533160940E+03 -0.55297266875E+03  0.67238160895E+03  0.90117456472E+02 0.  0.
          2    1    3    3  502    0 -0.17951606146E+03 -0.32798537566E+02  0.56871850462E+03  0.59727924615E+03  0.00000000000E+00 0.  1.
         -2    1    3    3    0  502 -0.16238627703E+03  0.69674271748E+00  0.29128092422E+03  0.33348817855E+03  0.00000000000E+00 0. -1.
         13    1    5    5    0    0 -0.43018666418E+02 -0.49869373241E+02  0.10977296895E+03  0.12801431467E+03  0.00000000000E+00 0.  1.
        -13    1    5    5    0    0  0.42757560025E+02 -0.63360441314E+02  0.18409419140E+03  0.19933245036E+03  0.00000000000E+00 0. -1.
          1    1    6    6  503    0  0.11564929145E+03  0.87031546727E+02 -0.25914691027E+03  0.29682717167E+03  0.00000000000E+00 0. -1.
         -1    1    6    6    0  503  0.22651415344E+03  0.58300062677E+02 -0.29382575848E+03  0.37555443728E+03  0.00000000000E+00 0.  1.
<mgrwt>
<rscale>  0 0.18345955E+04</rscale>
<asrwt>0</asrwt>
<pdfrwt beam="1">  1        2 0.10227707E+00 0.18345955E+04</pdfrwt>
<pdfrwt beam="2">  1       -2 0.19472229E+00 0.18345955E+04</pdfrwt>
<totfact> 0.59280701E+00</totfact>
</mgrwt>
</event>
<event>
12    3  0.4634846E-008  0.1228020E+04  0.7818608E-02  0.9088678E-01
         -2   -1    0    0    0  501 -0.00000000000E+00  0.00000000000E+00  0.26696510025E+03  0.26696510025E+03  0.00000000000E+00 0.  1.
          2   -1    0    0  501    0  0.00000000000E+00 -0.00000000000E+00 -0.14122013682E+04  0.14122013682E+04  0.00000000000E+00 0. -1.
         23    2    1    2    0    0 -0.17066670235E+03 -0.10957489809E+03 -0.51758986086E+03  0.56330602958E+03  0.90998007207E+02 0.  0.
        254    2    1    2    0    0  0.17066670235E+03  0.10957489809E+03 -0.62764640707E+03  0.11158604389E+04  0.90003929087E+03 0.  0.
         23    2    4    4    0    0  0.52295388007E+03  0.11781535399E+03 -0.27727140542E+03  0.61060508793E+03  0.92724984873E+02 0.  0.
         23    2    4    4    0    0 -0.35228717772E+03 -0.82404559022E+01 -0.35037500164E+03  0.50525535092E+03  0.91357359624E+02 0.  0.
          3    1    3    3  502    0 -0.18084859327E+03 -0.11021910649E+03 -0.48697190000E+03  0.53103304653E+03  0.00000000000E+00 0. -1.
         -3    1    3    3    0  502  0.10181890925E+02  0.64420840547E+00 -0.30617960867E+02  0.32272983050E+02  0.00000000000E+00 0.  1.
         13    1    5    5    0    0  0.38389563274E+03  0.12775518925E+03 -0.20436436540E+03  0.45327920652E+03  0.00000000000E+00 0. -1.
        -13    1    5    5    0    0  0.13905824733E+03 -0.99398352606E+01 -0.72907040021E+02  0.15732588141E+03  0.00000000000E+00 0.  1.
          3    1    6    6  503    0 -0.20889062134E+03 -0.37893871623E+02 -0.24867901687E+03  0.32697475533E+03  0.00000000000E+00 0. -1.
         -3    1    6    6    0  503 -0.14339655638E+03  0.29653415721E+02 -0.10169598477E+03  0.17828059559E+03  0.00000000000E+00 0.  1.
<mgrwt>
<rscale>  0 0.12280203E+04</rscale>
<asrwt>0</asrwt>
<pdfrwt beam="1">  1        2 0.21726175E+00 0.12280203E+04</pdfrwt>
<pdfrwt beam="2">  1       -2 0.41071553E-01 0.12280203E+04</pdfrwt>
<totfact> 0.78707598E+01</totfact>
</mgrwt>
</event>
<event>
12    3  0.4634846E-008  0.2544787E+04  0.7818608E-02  0.8387201E-01
         -1   -1    0    0    0  501 -0.00000000000E+00  0.00000000000E+00  0.63567755100E+03  0.63567755100E+03  0.00000000000E+00 0.  1.
          1   -1    0    0  501    0  0.00000000000E+00 -0.00000000000E+00 -0.25468663147E+04  0.25468663147E+04  0.00000000000E+00 0. -1.
         23    2    1    2    0    0 -0.24034902147E+03  0.18681760322E+03  0.49991274590E+03  0.59225791811E+03  0.90488778622E+02 0.  0.
        254    2    1    2    0    0  0.24034902147E+03 -0.18681760322E+03 -0.24111015096E+04  0.25902859476E+04  0.89638291577E+03 0.  0.
         23    2    4    4    0    0 -0.32977408056E+03 -0.11625227126E+02 -0.80999640480E+03  0.87930113183E+03  0.90499804031E+02 0.  0.
         23    2    4    4    0    0  0.57012310203E+03 -0.17519237609E+03 -0.16011051048E+04  0.17109848158E+04  0.90547021182E+02 0.  0.
          1    1    3    3  502    0 -0.18063378858E+03  0.14586376353E+03  0.29809236545E+03  0.37784105312E+03  0.00000000000E+00 0. -1.
         -1    1    3    3    0  502 -0.59715232889E+02  0.40953839692E+02  0.20182038045E+03  0.21441686499E+03  0.00000000000E+00 0.  1.
         13    1    5    5    0    0 -0.20056155669E+03 -0.28200251593E+02 -0.58801016932E+03  0.62191329897E+03  0.00000000000E+00 0.  1.
        -13    1    5    5    0    0 -0.12921252387E+03  0.16575024467E+02 -0.22198623548E+03  0.25738783286E+03  0.00000000000E+00 0. -1.
          1    1    6    6  503    0  0.10963512639E+03 -0.96319655248E+01 -0.37562457256E+03  0.39141596187E+03  0.00000000000E+00 0. -1.
         -1    1    6    6    0  503  0.46048797564E+03 -0.16556041057E+03 -0.12254805323E+04  0.13195688539E+04  0.00000000000E+00 0.  1.
<mgrwt>
<rscale>  0 0.25447874E+04</rscale>
<asrwt>0</asrwt>
<pdfrwt beam="1">  1        1 0.39182559E+00 0.25447874E+04</pdfrwt>
<pdfrwt beam="2">  1       -1 0.97796545E-01 0.25447874E+04</pdfrwt>
<totfact> 0.11149202E+00</totfact>
</mgrwt>
</event>
<event>
12    3  0.4634846E-008  0.1794518E+04  0.7818608E-02  0.8709220E-01
         -2   -1    0    0    0  501 -0.00000000000E+00  0.00000000000E+00  0.59930180850E+03  0.59930180850E+03  0.00000000000E+00 0.  1.
          2   -1    0    0  501    0  0.00000000000E+00 -0.00000000000E+00 -0.13433529962E+04  0.13433529962E+04  0.00000000000E+00 0. -1.
         23    2    1    2    0    0  0.22390351076E+02  0.59013573452E+03 -0.64524884670E+03  0.87942087799E+03  0.90958746148E+02 0.  0.
        254    2    1    2    0    0 -0.22390351076E+02 -0.59013573452E+03 -0.98802341009E+02  0.10632339267E+04  0.87860284961E+03 0.  0.
         23    2    4    4    0    0 -0.25042679702E+03 -0.11885119409E+02  0.23212937255E+03  0.35342696305E+03  0.90397654165E+02 0.  0.
         23    2    4    4    0    0  0.22803644595E+03 -0.57825061511E+03 -0.33093171356E+03  0.70980696367E+03  0.89082725998E+02 0.  0.
          1    1    3    3  502    0  0.20453270147E+02  0.12968019320E+03 -0.95685926657E+02  0.16245333277E+03  0.00000000000E+00 0.  1.
         -1    1    3    3    0  502  0.19370809290E+01  0.46045554132E+03 -0.54956292004E+03  0.71696754522E+03  0.00000000000E+00 0. -1.
         13    1    5    5    0    0 -0.24600335484E+03  0.12436570992E+01  0.23390886296E+03  0.33945920734E+03  0.00000000000E+00 0.  1.
        -13    1    5    5    0    0 -0.44234421820E+01 -0.13128776508E+02 -0.17794904144E+01  0.13967755706E+02  0.00000000000E+00 0. -1.
          1    1    6    6  503    0  0.30487751807E+02 -0.88151313478E+02 -0.15930584056E+02  0.94625263997E+02  0.00000000000E+00 0. -1.
         -1    1    6    6    0  503  0.19754869414E+03 -0.49009930163E+03 -0.31500112950E+03  0.61518169967E+03  0.00000000000E+00 0.  1.
<mgrwt>
<rscale>  0 0.17945182E+04</rscale>
<asrwt>0</asrwt>
<pdfrwt beam="1">  1        2 0.20666969E+00 0.17945182E+04</pdfrwt>
<pdfrwt beam="2">  1       -2 0.92200279E-01 0.17945182E+04</pdfrwt>
<totfact> 0.14724933E+01</totfact>
</mgrwt>
</event>
<event>
12    3  0.4634846E-008  0.1357232E+04  0.7818608E-02  0.8985371E-01
         -1   -1    0    0    0  501 -0.00000000000E+00  0.00000000000E+00  0.69357955410E+03  0.69357955410E+03  0.00000000000E+00 0.  1.
          1   -1    0    0  501    0  0.00000000000E+00 -0.00000000000E+00 -0.66397555221E+03  0.66397555221E+03  0.00000000000E+00 0. -1.
         23    2    1    2    0    0  0.19814804035E+03 -0.22626185553E+03  0.23132449135E+03  0.39125192545E+03  0.95446192736E+02 0.  0.
        254    2    1    2    0    0 -0.19814804035E+03  0.22626185553E+03 -0.20172048946E+03  0.96630318086E+03  0.89587588889E+03 0.  0.
         23    2    4    4    0    0 -0.33527353981E+03  0.76085147255E+02 -0.48662378268E+03  0.60471887474E+03  0.10336786476E+03 0.  0.
         23    2    4    4    0    0  0.13712549946E+03  0.15017670828E+03  0.28490329321E+03  0.36158430612E+03  0.90646994625E+02 0.  0.
          3    1    3    3  502    0  0.63466226298E+02 -0.22710869715E+02  0.77659675190E+02  0.10283370379E+03  0.00000000000E+00 0. -1.
         -3    1    3    3    0  502  0.13468181405E+03 -0.20355098582E+03  0.15366481616E+03  0.28841822167E+03  0.00000000000E+00 0.  1.
         13    1    5    5    0    0 -0.32585790618E+03  0.53858131860E+02 -0.47330386248E+03  0.57714869803E+03  0.00000000000E+00 0. -1.
        -13    1    5    5    0    0 -0.94156336318E+01  0.22227015395E+02 -0.13319920192E+02  0.27570176713E+02  0.00000000000E+00 0.  1.
          1    1    6    6  503    0  0.12744653450E+03  0.15428994159E+03  0.28792639693E+03  0.35064171926E+03  0.00000000000E+00 0. -1.
         -1    1    6    6    0  503  0.96789649677E+01 -0.41132333140E+01 -0.30231037199E+01  0.10942586862E+02  0.00000000000E+00 0.  1.
<mgrwt>
<rscale>  0 0.13572323E+04</rscale>
<asrwt>0</asrwt>
<pdfrwt beam="1">  1        1 0.10215008E+00 0.13572323E+04</pdfrwt>
<pdfrwt beam="2">  1       -1 0.10670455E+00 0.13572323E+04</pdfrwt>
<totfact> 0.23677283E+01</totfact>
</mgrwt>
</event>
<event>
12    3  0.4634846E-008  0.2048838E+04  0.7818608E-02  0.8584121E-01
         -2   -1    0    0    0  501 -0.00000000000E+00  0.00000000000E+00  0.73153118943E+03  0.73153118943E+03  0.00000000000E+00 0.  1.
          2   -1    0    0  501    0  0.00000000000E+00 -0.00000000000E+00 -0.14345727540E+04  0.14345727540E+04  0.00000000000E+00 0. -1.
         23    2    1    2    0    0 -0.58650283498E+03  0.23887921762E+03 -0.84347156713E+03  0.10582922365E+04  0.86540841334E+02 0.  0.
        254    2    1    2    0    0  0.58650283498E+03 -0.23887921762E+03  0.14043000259E+03  0.11078117069E+04  0.89804083219E+03 0.  0.
         23    2    4    4    0    0  0.29889069383E+01  0.25880752931E+03  0.19071978431E+03  0.33411774226E+03  0.90941512929E+02 0.  0.
         23    2    4    4    0    0  0.58351392804E+03 -0.49768674693E+03 -0.50289781716E+02  0.77369396465E+03  0.88840793073E+02 0.  0.
          2    1    3    3  502    0 -0.50336802624E+03  0.17454824826E+03 -0.67847800363E+03  0.86265802159E+03  0.00000000000E+00 0. -1.
         -2    1    3    3    0  502 -0.83134808736E+02  0.64330969362E+02 -0.16499356350E+03  0.19563421490E+03  0.00000000000E+00 0.  1.
         13    1    5    5    0    0  0.23360917758E+02  0.12685731344E+03  0.14238343323E+03  0.19212379475E+03  0.00000000000E+00 0.  1.
        -13    1    5    5    0    0 -0.20372010820E+02  0.13195021587E+03  0.48336351076E+02  0.14199394750E+03  0.00000000000E+00 0. -1.
          3    1    6    6  503    0  0.56598299331E+02 -0.41385185114E+02 -0.30287064154E+02  0.76376745736E+02  0.00000000000E+00 0. -1.
         -3    1    6    6    0  503  0.52691562871E+03 -0.45630156181E+03 -0.20002717563E+02  0.69731721892E+03  0.00000000000E+00 0.  1.
<mgrwt>
<rscale>  0 0.20488384E+04</rscale>
<asrwt>0</asrwt>
<pdfrwt beam="1">  1        2 0.22070350E+00 0.20488384E+04</pdfrwt>
<pdfrwt beam="2">  1       -2 0.11254326E+00 0.20488384E+04</pdfrwt>
<totfact> 0.79541023E+00</totfact>
</mgrwt>
</event>
<event>
12    3  0.4634846E-008  0.1110536E+04  0.7818608E-02  0.9194983E-01
          1   -1    0    0  501    0  0.00000000000E+00  0.00000000000E+00  0.26686123860E+04  0.26686123860E+04  0.00000000000E+00 0. -1.
         -1   -1    0    0    0  501 -0.00000000000E+00 -0.00000000000E+00 -0.11553660276E+03  0.11553660276E+03  0.00000000000E+00 0.  1.
         23    2    1    2    0    0 -0.97701917761E+02 -0.24406119559E+02  0.12146842698E+03  0.18353018863E+03  0.93741282150E+02 0.  0.
        254    2    1    2    0    0  0.97701917761E+02  0.24406119559E+02  0.24316073563E+04  0.26006188002E+04  0.91671286952E+03 0.  0.
         23    2    4    4    0    0  0.34299226460E+03  0.31582209901E+03  0.87658123935E+03  0.99699866454E+03  0.90688346053E+02 0.  0.
         23    2    4    4    0    0 -0.24529034684E+03 -0.29141597945E+03  0.15550261169E+04  0.16036201356E+04  0.91655265309E+02 0.  0.
          2    1    3    3  502    0 -0.43412825597E+02 -0.19490989319E+02  0.11989790434E+03  0.12899643234E+03  0.00000000000E+00 0. -1.
         -2    1    3    3    0  502 -0.54289092164E+02 -0.49151302402E+01  0.15705226338E+01  0.54533756285E+02  0.00000000000E+00 0.  1.
         13    1    5    5    0    0  0.34343469203E+03  0.30952988516E+03  0.83076759858E+03  0.95075282821E+03  0.00000000000E+00 0. -1.
        -13    1    5    5    0    0 -0.44242742576E+00  0.62922138451E+01  0.45813640768E+02  0.46245836326E+02  0.00000000000E+00 0.  1.
          2    1    6    6  503    0 -0.52599779561E+02 -0.19252919244E+02  0.29131595165E+03  0.29665197689E+03  0.00000000000E+00 0.  1.
         -2    1    6    6    0  503 -0.19269056728E+03 -0.27216306020E+03  0.12637101653E+04  0.13069681587E+04  0.00000000000E+00 0. -1.
<mgrwt>
<rscale>  0 0.11105357E+04</rscale>
<asrwt>0</asrwt>
<pdfrwt beam="1">  1        1 0.41055571E+00 0.11105357E+04</pdfrwt>
<pdfrwt beam="2">  1       -1 0.17774864E-01 0.11105357E+04</pdfrwt>
<totfact> 0.25888151E+01</totfact>
</mgrwt>
</event>
<event>
12    3  0.4634846E-008  0.2288826E+04  0.7818608E-02  0.8482340E-01
         -2   -1    0    0    0  501 -0.00000000000E+00  0.00000000000E+00  0.93224048796E+03  0.93224048796E+03  0.00000000000E+00 0.  1.
          2   -1    0    0  501    0  0.00000000000E+00 -0.00000000000E+00 -0.14048749244E+04  0.14048749244E+04  0.00000000000E+00 0. -1.
         23    2    1    2    0    0  0.43755059055E+03  0.11697847059E+03 -0.10727874981E+04  0.11675995881E+04  0.85330535063E+02 0.  0.
        254    2    1    2    0    0 -0.43755059055E+03 -0.11697847059E+03  0.60015306169E+03  0.11695158242E+04  0.89579522425E+03 0.  0.
         23    2    4    4    0    0 -0.31314900542E+03 -0.49600727112E+03  0.32767120791E+03  0.67807913756E+03  0.91309274987E+02 0.  0.
         23    2    4    4    0    0 -0.12440158513E+03  0.37902880054E+03  0.27248185378E+03  0.49143668666E+03  0.90139172070E+02 0.  0.
          3    1    3    3  502    0  0.37140250761E+03  0.72316570687E+02 -0.92986131653E+03  0.10038981906E+04  0.00000000000E+00 0. -1.
         -3    1    3    3    0  502  0.66148082937E+02  0.44661899901E+02 -0.14292618158E+03  0.16370139755E+03  0.00000000000E+00 0.  1.
         13    1    5    5    0    0 -0.64626615391E+02 -0.13306910342E+03  0.42726673236E+02  0.15397907101E+03  0.00000000000E+00 0. -1.
        -13    1    5    5    0    0 -0.24852239003E+03 -0.36293816770E+03  0.28494453467E+03  0.52410006655E+03  0.00000000000E+00 0.  1.
          3    1    6    6  503    0 -0.36888233857E+02  0.32962040918E+02  0.52505440299E+02  0.72139165504E+02  0.00000000000E+00 0. -1.
         -3    1    6    6    0  503 -0.87513351274E+02  0.34606675962E+03  0.21997641348E+03  0.41929752116E+03  0.00000000000E+00 0.  1.
<mgrwt>
<rscale>  0 0.22888261E+04</rscale>
<asrwt>0</asrwt>
<pdfrwt beam="1">  1        2 0.21613460E+00 0.22888261E+04</pdfrwt>
<pdfrwt beam="2">  1       -2 0.14342161E+00 0.22888261E+04</pdfrwt>
<totfact> 0.44005129E+00</totfact>
</mgrwt>
</event>
<event>
12    3  0.4634846E-008  0.2434832E+04  0.7818608E-02  0.8426577E-01
         -2   -1    0    0    0  501 -0.00000000000E+00  0.00000000000E+00  0.18501259789E+04  0.18501259789E+04  0.00000000000E+00 0. -1.
          2   -1    0    0  501    0  0.00000000000E+00 -0.00000000000E+00 -0.80108147442E+03  0.80108147442E+03  0.00000000000E+00 0.  1.
         23    2    1    2    0    0 -0.17364193505E+03 -0.55271685691E+03  0.14024537185E+04  0.15200980742E+04  0.90411710038E+02 0.  0.
        254    2    1    2    0    0  0.17364193505E+03  0.55271685691E+03 -0.35340921402E+03  0.11311093791E+04  0.90491044270E+03 0.  0.
         23    2    4    4    0    0 -0.16302767347E+03  0.66295562239E+03 -0.12527600446E+03  0.69989611350E+03  0.89846050643E+02 0.  0.
         23    2    4    4    0    0  0.33666960852E+03 -0.11023876548E+03 -0.22813320956E+03  0.43121326556E+03  0.91657560381E+02 0.  0.
          3    1    3    3  502    0 -0.16546312774E+03 -0.52778883299E+03  0.12723659293E+04  0.13873911333E+04  0.00000000000E+00 0. -1.
         -3    1    3    3    0  502 -0.81788073065E+01 -0.24928023921E+02  0.13008778917E+03  0.13270694087E+03  0.00000000000E+00 0.  1.
         13    1    5    5    0    0 -0.62711128713E+02  0.36050956393E+03 -0.10458790509E+03  0.38057648541E+03  0.00000000000E+00 0.  1.
        -13    1    5    5    0    0 -0.10031654476E+03  0.30244605846E+03 -0.20688099368E+02  0.31931962809E+03  0.00000000000E+00 0. -1.
          2    1    6    6  503    0  0.20459444143E+03 -0.31488423747E+02 -0.16608705096E+03  0.26539652369E+03  0.00000000000E+00 0. -1.
         -2    1    6    6    0  503  0.13207516709E+03 -0.78750341733E+02 -0.62046158600E+02  0.16581674186E+03  0.00000000000E+00 0.  1.
<mgrwt>
<rscale>  0 0.24348319E+04</rscale>
<asrwt>0</asrwt>
<pdfrwt beam="1">  1        2 0.12324330E+00 0.24348319E+04</pdfrwt>
<pdfrwt beam="2">  1       -2 0.28463476E+00 0.24348319E+04</pdfrwt>
<totfact> 0.12166414E+00</totfact>
</mgrwt>
</event>
<event>
12    3  0.4634846E-008  0.1540417E+04  0.7818608E-02  0.8858012E-01
         -2   -1    0    0    0  501 -0.00000000000E+00  0.00000000000E+00  0.37324240035E+03  0.37324240035E+03  0.00000000000E+00 0.  1.
          2   -1    0    0  501    0  0.00000000000E+00 -0.00000000000E+00 -0.15893716063E+04  0.15893716063E+04  0.00000000000E+00 0. -1.
         23    2    1    2    0    0 -0.17371051269E+03 -0.12362506325E+03  0.17389781422E+03  0.29057917780E+03  0.93473580733E+02 0.  0.
        254    2    1    2    0    0  0.17371051269E+03  0.12362506325E+03 -0.13900270201E+04  0.16720348288E+04  0.90447048242E+03 0.  0.
         23    2    4    4    0    0  0.60732364254E+02 -0.32193547268E+02  0.10851800483E+03  0.15814206130E+03  0.92238330572E+02 0.  0.
         23    2    4    4    0    0  0.11297814844E+03  0.15581861052E+03 -0.14985450250E+04  0.15138927675E+04  0.95867712352E+02 0.  0.
          1    1    3    3  502    0 -0.17064065269E+03 -0.11311010259E+03  0.12368694036E+03  0.23918734681E+03  0.00000000000E+00 0. -1.
         -1    1    3    3    0  502 -0.30698600024E+01 -0.10514960657E+02  0.50210873864E+02  0.51391830987E+02  0.00000000000E+00 0.  1.
         13    1    5    5    0    0  0.20506821312E+02 -0.58371470765E+02  0.37239259422E+02  0.72211638687E+02  0.00000000000E+00 0. -1.
        -13    1    5    5    0    0  0.40225542942E+02  0.26177923497E+02  0.71278745408E+02  0.85930422614E+02  0.00000000000E+00 0.  1.
          4    1    6    6  503    0  0.17621541317E+01  0.24894822204E+02 -0.50424640964E+03  0.50486364396E+03  0.00000000000E+00 0.  1.
         -4    1    6    6    0  503  0.11121599431E+03  0.13092378832E+03 -0.99429861532E+03  0.10090291235E+04  0.00000000000E+00 0. -1.
<mgrwt>
<rscale>  0 0.15404167E+04</rscale>
<asrwt>0</asrwt>
<pdfrwt beam="1">  1        2 0.24451871E+00 0.15404167E+04</pdfrwt>
<pdfrwt beam="2">  1       -2 0.57421908E-01 0.15404167E+04</pdfrwt>
<totfact> 0.30937027E+01</totfact>
</mgrwt>
</event>
<event>
12    3  0.4634846E-008  0.2408056E+04  0.7818608E-02  0.8436494E-01
          1   -1    0    0  501    0  0.00000000000E+00  0.00000000000E+00  0.10111791850E+04  0.10111791850E+04  0.00000000000E+00 0. -1.
         -1   -1    0    0    0  501 -0.00000000000E+00 -0.00000000000E+00 -0.14336566363E+04  0.14336566363E+04  0.00000000000E+00 0.  1.
         23    2    1    2    0    0 -0.31358315612E+02  0.10366209631E+04 -0.23427844323E+03  0.10671607709E+04  0.91538826543E+02 0.  0.
        254    2    1    2    0    0  0.31358315612E+02 -0.10366209631E+04 -0.18819900810E+03  0.13776750505E+04  0.88713207187E+03 0.  0.
         23    2    4    4    0    0 -0.39753041875E+03 -0.68658946097E+03 -0.53234153052E+02  0.80052783337E+03  0.92603537764E+02 0.  0.
         23    2    4    4    0    0  0.42888873437E+03 -0.35003150214E+03 -0.13496485504E+03  0.57714721710E+03  0.91737664856E+02 0.  0.
          4    1    3    3  502    0  0.50630852804E+01  0.15931791257E+03 -0.68954428735E+02  0.17367367487E+03  0.00000000000E+00 0. -1.
         -4    1    3    3    0  502 -0.36421400893E+02  0.87730305054E+03 -0.16532401450E+03  0.89348709599E+03  0.00000000000E+00 0.  1.
         13    1    5    5    0    0 -0.38543785087E+03 -0.68487632544E+03 -0.48345134212E+02  0.78737231983E+03  0.00000000000E+00 0.  1.
        -13    1    5    5    0    0 -0.12092567885E+02 -0.17131355284E+01 -0.48890188402E+01  0.13155513544E+02  0.00000000000E+00 0. -1.
          2    1    6    6  503    0  0.93516857498E+02 -0.63969641663E+02  0.84116403002E+01  0.11361458262E+03  0.00000000000E+00 0. -1.
         -2    1    6    6    0  503  0.33537187687E+03 -0.28606186048E+03 -0.14337649535E+03  0.46353263448E+03  0.00000000000E+00 0.  1.
<mgrwt>
<rscale>  0 0.24080563E+04</rscale>
<asrwt>0</asrwt>
<pdfrwt beam="1">  1        1 0.15556603E+00 0.24080563E+04</pdfrwt>
<pdfrwt beam="2">  1       -1 0.22056256E+00 0.24080563E+04</pdfrwt>
<totfact> 0.14487837E+00</totfact>
</mgrwt>
</event>
<event>
12    3  0.4634846E-008  0.2236319E+04  0.7818608E-02  0.8503462E-01
          2   -1    0    0  501    0  0.00000000000E+00  0.00000000000E+00  0.10850806101E+04  0.10850806101E+04  0.00000000000E+00 0.  1.
         -2   -1    0    0    0  501 -0.00000000000E+00 -0.00000000000E+00 -0.11522470948E+04  0.11522470948E+04  0.00000000000E+00 0. -1.
         23    2    1    2    0    0  0.17261559097E+03 -0.88040493873E+03 -0.28194380761E+03  0.94512304684E+03  0.94107728807E+02 0.  0.
        254    2    1    2    0    0 -0.17261559097E+03  0.88040493873E+03  0.21477732289E+03  0.12922046580E+04  0.90485058516E+03 0.  0.
         23    2    4    4    0    0 -0.41677096003E+03  0.44922190821E+03  0.41938652744E+03  0.74837776912E+03  0.93198014883E+02 0.  0.
         23    2    4    4    0    0  0.24415536907E+03  0.43118303053E+03 -0.20460920455E+03  0.54382688893E+03  0.91389870758E+02 0.  0.
          2    1    3    3  502    0  0.15772711567E+03 -0.73115960763E+03 -0.20019957089E+03  0.77430748610E+03  0.00000000000E+00 0. -1.
         -2    1    3    3    0  502  0.14888475292E+02 -0.14924533111E+03 -0.81744236715E+02  0.17081556074E+03  0.00000000000E+00 0.  1.
         13    1    5    5    0    0 -0.35315951898E+03  0.33384035331E+03  0.35436040481E+03  0.60145018400E+03  0.00000000000E+00 0. -1.
        -13    1    5    5    0    0 -0.63611441052E+02  0.11538155490E+03  0.65026122628E+02  0.14692758512E+03  0.00000000000E+00 0.  1.
          4    1    6    6  503    0  0.18471756093E+03  0.37281538207E+03 -0.19648103933E+03  0.46012681431E+03  0.00000000000E+00 0. -1.
         -4    1    6    6    0  503  0.59437808137E+02  0.58367648453E+02 -0.81281652181E+01  0.83700074623E+02  0.00000000000E+00 0.  1.
<mgrwt>
<rscale>  0 0.22363193E+04</rscale>
<asrwt>0</asrwt>
<pdfrwt beam="1">  1        2 0.16693548E+00 0.22363193E+04</pdfrwt>
<pdfrwt beam="2">  1       -2 0.17726878E+00 0.22363193E+04</pdfrwt>
<totfact> 0.38414166E+00</totfact>
</mgrwt>
</event>
<event>
12    3  0.4634846E-008  0.1793377E+04  0.7818608E-02  0.8709829E-01
         -1   -1    0    0    0  501 -0.00000000000E+00  0.00000000000E+00  0.18869939092E+04  0.18869939092E+04  0.00000000000E+00 0.  1.
          1   -1    0    0  501    0  0.00000000000E+00 -0.00000000000E+00 -0.42610119370E+03  0.42610119370E+03  0.00000000000E+00 0. -1.
         23    2    1    2    0    0 -0.73261599915E+02  0.17209107379E+03  0.13891448120E+04  0.14048190598E+04  0.93865235866E+02 0.  0.
        254    2    1    2    0    0  0.73261599915E+02 -0.17209107379E+03  0.71747903536E+02  0.90827604309E+03  0.88590914268E+03 0.  0.
         23    2    4    4    0    0  0.46655432313E+03 -0.14512498446E+03  0.82812105150E+02  0.50320572185E+03  0.87315268991E+02 0.  0.
         23    2    4    4    0    0 -0.39329272321E+03 -0.26966089334E+02 -0.11064201615E+02  0.40507032124E+03  0.92483579576E+02 0.  0.
          3    1    3    3  502    0  0.12265014270E+02 -0.24281274860E+01  0.45316755748E+02  0.47009942881E+02  0.00000000000E+00 0. -1.
         -3    1    3    3    0  502 -0.85526614185E+02  0.17451920128E+03  0.13438280562E+04  0.13578091169E+04  0.00000000000E+00 0.  1.
         13    1    5    5    0    0  0.26871910020E+03 -0.40451774307E+02  0.31378901359E+02  0.27355243794E+03  0.00000000000E+00 0.  1.
        -13    1    5    5    0    0  0.19783522293E+03 -0.10467321015E+03  0.51433203792E+02  0.22965328390E+03  0.00000000000E+00 0. -1.
          4    1    6    6  503    0 -0.28406961949E+03  0.17783389994E+02  0.11675558038E+02  0.28486508444E+03  0.00000000000E+00 0. -1.
         -4    1    6    6    0  503 -0.10922310372E+03 -0.44749479327E+02 -0.22739759652E+02  0.12020523681E+03  0.00000000000E+00 0.  1.
<mgrwt>
<rscale>  0 0.17933771E+04</rscale>
<asrwt>0</asrwt>
<pdfrwt beam="1">  1        1 0.65554031E-01 0.17933771E+04</pdfrwt>
<pdfrwt beam="2">  1       -1 0.29030675E+00 0.17933771E+04</pdfrwt>
<totfact> 0.19881115E+00</totfact>
</mgrwt>
</event>
<event>
12    3  0.4634846E-008  0.2087652E+04  0.7818608E-02  0.8566702E-01
         -2   -1    0    0    0  501 -0.00000000000E+00  0.00000000000E+00  0.52267355454E+03  0.52267355454E+03  0.00000000000E+00 0.  1.
          2   -1    0    0  501    0  0.00000000000E+00 -0.00000000000E+00 -0.20846148157E+04  0.20846148157E+04  0.00000000000E+00 0. -1.
         23    2    1    2    0    0 -0.36575013443E+03 -0.43294482870E+03  0.14807613376E+03  0.59290847758E+03  0.91648981785E+02 0.  0.
        254    2    1    2    0    0  0.36575013443E+03  0.43294482870E+03 -0.17100173949E+04  0.20143798926E+04  0.90130598326E+03 0.  0.
         23    2    4    4    0    0  0.31006565154E+03  0.95892795603E+02 -0.16122641049E+04  0.16471883218E+04  0.92182901295E+02 0.  0.
         23    2    4    4    0    0  0.55684482892E+02  0.33705203309E+03 -0.97753290048E+02  0.36719157080E+03  0.92569483643E+02 0.  0.
          4    1    3    3  502    0 -0.36125172340E+02 -0.43286273158E+02  0.45206834618E+02  0.72266087597E+02  0.00000000000E+00 0. -1.
         -4    1    3    3    0  502 -0.32962496209E+03 -0.38965855554E+03  0.10286929915E+03  0.52064238998E+03  0.00000000000E+00 0.  1.
         13    1    5    5    0    0  0.14473190387E+03  0.48256526568E+01 -0.57971518552E+03  0.59752849911E+03  0.00000000000E+00 0.  1.
        -13    1    5    5    0    0  0.16533374766E+03  0.91067142946E+02 -0.10325489193E+04  0.10496598227E+04  0.00000000000E+00 0. -1.
          4    1    6    6  503    0  0.26492401874E+02  0.10037686252E+03 -0.74112332899E+02  0.12755390929E+03  0.00000000000E+00 0. -1.
         -4    1    6    6    0  503  0.29192081018E+02  0.23667517057E+03 -0.23640957149E+02  0.23963766151E+03  0.00000000000E+00 0.  1.
<mgrwt>
<rscale>  0 0.20876523E+04</rscale>
<asrwt>0</asrwt>
<pdfrwt beam="1">  1        2 0.32070997E+00 0.20876523E+04</pdfrwt>
<pdfrwt beam="2">  1       -2 0.80411316E-01 0.20876523E+04</pdfrwt>
<totfact> 0.75539380E+00</totfact>
</mgrwt>
</event>
<event>
12    3  0.4634846E-008  0.2266971E+04  0.7818608E-02  0.8491059E-01
         -2   -1    0    0    0  501 -0.00000000000E+00  0.00000000000E+00  0.62972104365E+03  0.62972104365E+03  0.00000000000E+00 0.  1.
          2   -1    0    0  501    0  0.00000000000E+00 -0.00000000000E+00 -0.20402509106E+04  0.20402509106E+04  0.00000000000E+00 0. -1.
         23    2    1    2    0    0 -0.18356669452E+01 -0.50625194297E+03  0.35707254189E+03  0.62694561172E+03  0.96257988980E+02 0.  0.
        254    2    1    2    0    0  0.18356669452E+01  0.50625194297E+03 -0.17676024088E+04  0.20430263425E+04  0.89064244291E+03 0.  0.
         23    2    4    4    0    0 -0.25248309057E+03 -0.68237006991E+02 -0.17313526098E+03  0.32684162778E+03  0.91900113740E+02 0.  0.
         23    2    4    4    0    0  0.25431875751E+03  0.57448894996E+03 -0.15944671479E+04  0.17161847148E+04  0.90823485517E+02 0.  0.
          4    1    3    3  502    0  0.43816979489E+02 -0.16785119765E+03  0.10895879704E+03  0.20485597794E+03  0.00000000000E+00 0. -1.
         -4    1    3    3    0  502 -0.45652646434E+02 -0.33840074533E+03  0.24811374484E+03  0.42208963378E+03  0.00000000000E+00 0.  1.
         13    1    5    5    0    0 -0.23126020739E+03 -0.75047977295E+02 -0.12408848300E+03  0.27296782600E+03  0.00000000000E+00 0. -1.
        -13    1    5    5    0    0 -0.21222883174E+02  0.68109703044E+01 -0.49046777986E+02  0.53873801773E+02  0.00000000000E+00 0.  1.
          2    1    6    6  503    0  0.21823263030E+03  0.40879325418E+03 -0.12226983602E+04  0.13075659393E+04  0.00000000000E+00 0. -1.
         -2    1    6    6    0  503  0.36086127213E+02  0.16569569578E+03 -0.37176878766E+03  0.40861877546E+03  0.00000000000E+00 0.  1.
<mgrwt>
<rscale>  0 0.22669706E+04</rscale>
<asrwt>0</asrwt>
<pdfrwt beam="1">  1        2 0.31388476E+00 0.22669706E+04</pdfrwt>
<pdfrwt beam="2">  1       -2 0.96880160E-01 0.22669706E+04</pdfrwt>
<totfact> 0.51339330E+00</totfact>
</mgrwt>
</event>
<event>
12    3  0.4634846E-008  0.1726594E+04  0.7818608E-02  0.8746340E-01
          2   -1    0    0  501    0  0.00000000000E+00  0.00000000000E+00  0.19932924871E+04  0.19932924871E+04  0.00000000000E+00 0. -1.
         -2   -1    0    0    0  501 -0.00000000000E+00 -0.00000000000E+00 -0.37389486403E+03  0.37389486403E+03  0.00000000000E+00 0.  1.
         23    2    1    2    0    0  0.40451547399E+03 -0.37869063269E+03  0.10130395694E+04  0.11582617704E+04  0.91004371425E+02 0.  0.
        254    2    1    2    0    0 -0.40451547399E+03  0.37869063269E+03  0.60635805364E+03  0.12089255807E+04  0.88701274314E+03 0.  0.
         23    2    4    4    0    0 -0.62392276411E+03  0.32070709145E+03  0.65164598062E+03  0.96169211573E+03  0.89869835430E+02 0.  0.
         23    2    4    4    0    0  0.21940729013E+03  0.57983541242E+02 -0.45287926976E+02  0.24723346498E+03  0.87015744899E+02 0.  0.
          3    1    3    3  502    0  0.36464723109E+03 -0.34452648858E+03  0.85024079529E+03  0.98720591289E+03  0.00000000000E+00 0.  1.
         -3    1    3    3    0  502  0.39868242893E+02 -0.34164144111E+02  0.16279877416E+03  0.17105585755E+03  0.00000000000E+00 0. -1.
         13    1    5    5    0    0 -0.58035976212E+03  0.27097052639E+03  0.60209171065E+03  0.87906592909E+03  0.00000000000E+00 0.  1.
        -13    1    5    5    0    0 -0.43563001990E+02  0.49736565052E+02  0.49554269970E+02  0.82626186635E+02  0.00000000000E+00 0. -1.
          4    1    6    6  503    0  0.13463374125E+03  0.44826097380E+02  0.14540742508E+02  0.14264310878E+03  0.00000000000E+00 0.  1.
         -4    1    6    6    0  503  0.84773548880E+02  0.13157443862E+02 -0.59828669484E+02  0.10459035620E+03  0.00000000000E+00 0. -1.
<mgrwt>
<rscale>  0 0.17265941E+04</rscale>
<asrwt>0</asrwt>
<pdfrwt beam="1">  1        2 0.30666038E+00 0.17265941E+04</pdfrwt>
<pdfrwt beam="2">  1       -2 0.57522288E-01 0.17265941E+04</pdfrwt>
<totfact> 0.18115259E+01</totfact>
</mgrwt>
</event>
<event>
12    3  0.4634846E-008  0.1431493E+04  0.7818608E-02  0.8931333E-01
         -2   -1    0    0    0  501 -0.00000000000E+00  0.00000000000E+00  0.63374982022E+03  0.63374982022E+03  0.00000000000E+00 0.  1.
          2   -1    0    0  501    0  0.00000000000E+00 -0.00000000000E+00 -0.80835182989E+03  0.80835182989E+03  0.00000000000E+00 0. -1.
         23    2    1    2    0    0  0.76968740186E+02 -0.68825583005E+02  0.35893219237E+03  0.38458153995E+03  0.91703294971E+02 0.  0.
        254    2    1    2    0    0 -0.76968740186E+02  0.68825583005E+02 -0.53353420205E+03  0.10575201102E+04  0.90720939744E+03 0.  0.
         23    2    4    4    0    0 -0.37872373374E+03 -0.24782985769E+03 -0.21695952216E+03  0.50968791314E+03  0.88651168572E+02 0.  0.
         23    2    4    4    0    0  0.30175499355E+03  0.31665544069E+03 -0.31657467989E+03  0.54783219702E+03  0.92595053264E+02 0.  0.
          3    1    3    3  502    0 -0.70167796499E+01 -0.77179682637E+01 -0.50077115120E+00  0.10442844561E+02  0.00000000000E+00 0. -1.
         -3    1    3    3    0  502  0.83985519836E+02 -0.61107614741E+02  0.35943296352E+03  0.37413869539E+03  0.00000000000E+00 0.  1.
         13    1    5    5    0    0 -0.32986380688E+03 -0.17873784761E+03 -0.19205542932E+03  0.42147673386E+03  0.00000000000E+00 0. -1.
        -13    1    5    5    0    0 -0.48859926860E+02 -0.69092010080E+02 -0.24904092834E+02  0.88211179278E+02  0.00000000000E+00 0.  1.
          2    1    6    6  503    0  0.11040802452E+03  0.10869766453E+03 -0.16808674195E+03  0.22860067142E+03  0.00000000000E+00 0.  1.
         -2    1    6    6    0  503  0.19134696903E+03  0.20795777616E+03 -0.14848793794E+03  0.31923152560E+03  0.00000000000E+00 0. -1.
<mgrwt>
<rscale>  0 0.14314927E+04</rscale>
<asrwt>0</asrwt>
<pdfrwt beam="1">  1        2 0.12436182E+00 0.14314927E+04</pdfrwt>
<pdfrwt beam="2">  1       -2 0.97499972E-01 0.14314927E+04</pdfrwt>
<totfact> 0.28935624E+01</totfact>
</mgrwt>
</event>
<event>
12    3  0.4634846E-008  0.1350260E+04  0.7818608E-02  0.8990631E-01
          3   -1    0    0  501    0  0.00000000000E+00  0.00000000000E+00  0.69737739801E+03  0.69737739801E+03  0.00000000000E+00 0. -1.
         -3   -1    0    0    0  501 -0.00000000000E+00 -0.00000000000E+00 -0.65359235521E+03  0.65359235521E+03  0.00000000000E+00 0.  1.
         23    2    1    2    0    0 -0.22111715241E+03  0.25568877985E+03  0.15621879079E+03  0.38329956304E+03  0.90800314950E+02 0.  0.
        254    2    1    2    0    0  0.22111715241E+03 -0.25568877985E+03 -0.11243374799E+03  0.96767019019E+03  0.89970812048E+03 0.  0.
         23    2    4    4    0    0  0.27465942194E+03  0.45967498491E+02 -0.42769405790E+03  0.51868386754E+03  0.92519934634E+02 0.  0.
         23    2    4    4    0    0 -0.53542269527E+02 -0.30165627834E+03  0.31526030991E+03  0.44898632265E+03  0.91303724080E+02 0.  0.
          1    1    3    3  502    0 -0.22933073890E+03  0.24174588402E+03  0.15356786345E+03  0.36690155209E+03  0.00000000000E+00 0. -1.
         -1    1    3    3    0  502  0.82135864863E+01  0.13942895833E+02  0.26509273458E+01  0.16398010945E+02  0.00000000000E+00 0.  1.
         13    1    5    5    0    0  0.15333916605E+03  0.57463281929E+02 -0.30245904975E+03  0.34394244488E+03  0.00000000000E+00 0. -1.
        -13    1    5    5    0    0  0.12132025589E+03 -0.11495783438E+02 -0.12523500815E+03  0.17474142266E+03  0.00000000000E+00 0.  1.
          4    1    6    6  503    0 -0.16389862088E+02 -0.20168268538E+03  0.14832010862E+03  0.25088520838E+03  0.00000000000E+00 0. -1.
         -4    1    6    6    0  503 -0.37152407439E+02 -0.99973592961E+02  0.16694020129E+03  0.19810111427E+03  0.00000000000E+00 0.  1.
<mgrwt>
<rscale>  0 0.13502600E+04</rscale>
<asrwt>0</asrwt>
<pdfrwt beam="1">  1        3 0.10728883E+00 0.13502600E+04</pdfrwt>
<pdfrwt beam="2">  1       -3 0.10055267E+00 0.13502600E+04</pdfrwt>
<totfact> 0.16364296E+00</totfact>
</mgrwt>
</event>
<event>
12    3  0.4634846E-008  0.1311924E+04  0.7818608E-02  0.9020162E-01
          2   -1    0    0  501    0  0.00000000000E+00  0.00000000000E+00  0.16131108780E+04  0.16131108780E+04  0.00000000000E+00 0.  1.
         -2   -1    0    0    0  501 -0.00000000000E+00 -0.00000000000E+00 -0.26674322264E+03  0.26674322264E+03  0.00000000000E+00 0. -1.
         23    2    1    2    0    0 -0.30017098590E+03 -0.94957345419E+02  0.17366523556E+03  0.37139401203E+03  0.93028919734E+02 0.  0.
        254    2    1    2    0    0  0.30017098590E+03  0.94957345419E+02  0.11727024198E+04  0.15084600886E+04  0.89504265554E+03 0.  0.
         23    2    4    4    0    0 -0.14681842525E+03  0.19030789388E+03  0.96236780520E+03  0.99725530727E+03  0.10292526873E+03 0.  0.
         23    2    4    4    0    0  0.44698941115E+03 -0.95350548458E+02  0.21033461457E+03  0.51120478129E+03  0.90545113397E+02 0.  0.
          1    1    3    3  502    0 -0.12418124725E+03 -0.81660370054E+02  0.53870496793E+02  0.15808677564E+03  0.00000000000E+00 0. -1.
         -1    1    3    3    0  502 -0.17598973865E+03 -0.13296975366E+02  0.11979473876E+03  0.21330723639E+03  0.00000000000E+00 0.  1.
         13    1    5    5    0    0 -0.27267023447E+02  0.33790918095E+02  0.38027020495E+03  0.38274109459E+03  0.00000000000E+00 0. -1.
        -13    1    5    5    0    0 -0.11955140180E+03  0.15651697578E+03  0.58209760025E+03  0.61451421269E+03  0.00000000000E+00 0.  1.
          1    1    6    6  503    0  0.20519872264E+03 -0.78753465207E+02  0.67673426602E+02  0.22997460017E+03  0.00000000000E+00 0. -1.
         -1    1    6    6    0  503  0.24179068851E+03 -0.16597083251E+02  0.14266118797E+03  0.28123018112E+03  0.00000000000E+00 0.  1.
<mgrwt>
<rscale>  0 0.13119244E+04</rscale>
<asrwt>0</asrwt>
<pdfrwt beam="1">  1        2 0.24817090E+00 0.13119244E+04</pdfrwt>
<pdfrwt beam="2">  1       -2 0.41037420E-01 0.13119244E+04</pdfrwt>
<totfact> 0.60378860E+01</totfact>
</mgrwt>
</event>
<event>
12    3  0.4634846E-008  0.1668222E+04  0.7818608E-02  0.8779699E-01
         -1   -1    0    0    0  501 -0.00000000000E+00  0.00000000000E+00  0.46276684301E+03  0.46276684301E+03  0.00000000000E+00 0.  1.
          1   -1    0    0  501    0  0.00000000000E+00 -0.00000000000E+00 -0.15034372120E+04  0.15034372120E+04  0.00000000000E+00 0. -1.
         23    2    1    2    0    0 -0.37427788389E+03  0.33645974574E+03 -0.72278264884E+03  0.88539755046E+03  0.90691620482E+02 0.  0.
        254    2    1    2    0    0  0.37427788389E+03 -0.33645974574E+03 -0.31788772018E+03  0.10808065046E+04  0.90210919672E+03 0.  0.
         23    2    4    4    0    0 -0.33223949329E+02  0.27035717805E+03 -0.22558035584E+02  0.28719679128E+03  0.88183317123E+02 0.  0.
         23    2    4    4    0    0  0.40750183322E+03 -0.60681692379E+03 -0.29532968459E+03  0.79360971329E+03  0.91171439344E+02 0.  0.
          2    1    3    3  502    0 -0.19514778447E+03  0.23088047955E+03 -0.39877360381E+03  0.50040867370E+03  0.00000000000E+00 0. -1.
         -2    1    3    3    0  502 -0.17913009942E+03  0.10557926620E+03 -0.32400904503E+03  0.38498887676E+03  0.00000000000E+00 0.  1.
         13    1    5    5    0    0 -0.15823171483E+02  0.67389116822E+02 -0.44522014050E+02  0.82303557377E+02  0.00000000000E+00 0. -1.
        -13    1    5    5    0    0 -0.17400777846E+02  0.20296806123E+03  0.21963978466E+02  0.20489323390E+03  0.00000000000E+00 0.  1.
          1    1    6    6  503    0  0.11127621766E+03 -0.19316917650E+03 -0.48601784056E+02  0.22816410931E+03  0.00000000000E+00 0. -1.
         -1    1    6    6    0  503  0.29622561556E+03 -0.41364774729E+03 -0.24672790054E+03  0.56544560398E+03  0.00000000000E+00 0.  1.
<mgrwt>
<rscale>  0 0.16682217E+04</rscale>
<asrwt>0</asrwt>
<pdfrwt beam="1">  1        1 0.23129803E+00 0.16682217E+04</pdfrwt>
<pdfrwt beam="2">  1       -1 0.71194899E-01 0.16682217E+04</pdfrwt>
<totfact> 0.12367691E+01</totfact>
</mgrwt>
</event>
<event>
12    3  0.4634846E-008  0.1596497E+04  0.7818608E-02  0.8822703E-01
         -2   -1    0    0    0  501 -0.00000000000E+00  0.00000000000E+00  0.22749093438E+03  0.22749093438E+03  0.00000000000E+00 0.  1.
          2   -1    0    0  501    0  0.00000000000E+00 -0.00000000000E+00 -0.28009945994E+04  0.28009945994E+04  0.00000000000E+00 0. -1.
         23    2    1    2    0    0 -0.12527760726E+01  0.31538820622E+03 -0.16664717541E+04  0.16984963805E+04  0.91052497513E+02 0.  0.
        254    2    1    2    0    0  0.12527760726E+01 -0.31538820622E+03 -0.90703191089E+03  0.13299891532E+04  0.92015920922E+03 0.  0.
         23    2    4    4    0    0 -0.10650222515E+03 -0.41343948849E+03 -0.30992873829E+02  0.43762150583E+03  0.90978511345E+02 0.  0.
         23    2    4    4    0    0  0.10775500123E+03  0.98051282277E+02 -0.87603903706E+03  0.89236764741E+03  0.87466733440E+02 0.  0.
          1    1    3    3  502    0 -0.68538095736E+01  0.32007904930E+03 -0.16072631176E+04  0.16388387052E+04  0.00000000000E+00 0. -1.
         -1    1    3    3    0  502  0.56010335010E+01 -0.46908430794E+01 -0.59208636474E+02  0.59657675266E+02  0.00000000000E+00 0.  1.
         13    1    5    5    0    0 -0.54661086645E+02 -0.27686772898E+03 -0.60419511432E+02  0.28860715706E+03  0.00000000000E+00 0. -1.
        -13    1    5    5    0    0 -0.51841138510E+02 -0.13657175951E+03  0.29426637603E+02  0.14901434877E+03  0.00000000000E+00 0.  1.
          1    1    6    6  503    0  0.74141290173E+02  0.87346655238E+02 -0.80435422857E+03  0.81247282669E+03  0.00000000000E+00 0. -1.
         -1    1    6    6    0  503  0.33613711054E+02  0.10704627039E+02 -0.71684808485E+02  0.79894820723E+02  0.00000000000E+00 0.  1.
<mgrwt>
<rscale>  0 0.15964973E+04</rscale>
<asrwt>0</asrwt>
<pdfrwt beam="1">  1        2 0.43092226E+00 0.15964973E+04</pdfrwt>
<pdfrwt beam="2">  1       -2 0.34998604E-01 0.15964973E+04</pdfrwt>
<totfact> 0.17041994E+01</totfact>
</mgrwt>
</event>
<event>
12    3  0.4634846E-008  0.1938259E+04  0.7818608E-02  0.8636043E-01
         -2   -1    0    0    0  501 -0.00000000000E+00  0.00000000000E+00  0.30164211760E+03  0.30164211760E+03  0.00000000000E+00 0.  1.
          2   -1    0    0  501    0  0.00000000000E+00 -0.00000000000E+00 -0.31136623607E+04  0.31136623607E+04  0.00000000000E+00 0. -1.
         23    2    1    2    0    0 -0.56853535260E+03 -0.10168519130E+03 -0.19777025602E+04  0.20623555882E+04  0.91819551729E+02 0.  0.
        254    2    1    2    0    0  0.56853535260E+03  0.10168519130E+03 -0.83431768283E+03  0.13529488901E+04  0.89488120888E+03 0.  0.
         23    2    4    4    0    0 -0.71544054936E+02  0.38224838040E+02  0.13570591277E+03  0.18553351992E+03  0.97092235602E+02 0.  0.
         23    2    4    4    0    0  0.64007940754E+03  0.63460353261E+02 -0.97002359561E+03  0.11674153702E+04  0.90465496568E+02 0.  0.
          3    1    3    3  502    0 -0.41149915943E+03 -0.96440962086E+02 -0.13136291050E+04  0.13799470435E+04  0.00000000000E+00 0. -1.
         -3    1    3    3    0  502 -0.15703619317E+03 -0.52442292154E+01 -0.66407345522E+03  0.68240854467E+03  0.00000000000E+00 0.  1.
         13    1    5    5    0    0 -0.68966985400E+02  0.54325359619E+02  0.55900847766E+02  0.10407975093E+03  0.00000000000E+00 0. -1.
        -13    1    5    5    0    0 -0.25770695358E+01 -0.16100521579E+02  0.79805065007E+02  0.81453768994E+02  0.00000000000E+00 0.  1.
          1    1    6    6  503    0  0.32213750901E+03 -0.13122180274E+02 -0.47088793393E+03  0.57068398668E+03  0.00000000000E+00 0. -1.
         -1    1    6    6    0  503  0.31794189853E+03  0.76582533535E+02 -0.49913566167E+03  0.59673138348E+03  0.00000000000E+00 0.  1.
<mgrwt>
<rscale>  0 0.19382587E+04</rscale>
<asrwt>0</asrwt>
<pdfrwt beam="1">  1        2 0.47902497E+00 0.19382587E+04</pdfrwt>
<pdfrwt beam="2">  1       -2 0.46406481E-01 0.19382587E+04</pdfrwt>
<totfact> 0.60834336E+00</totfact>
</mgrwt>
</event>
<event>
12    3  0.4634846E-008  0.1650232E+04  0.7818608E-02  0.8790269E-01
          1   -1    0    0  501    0  0.00000000000E+00  0.00000000000E+00  0.41433926457E+03  0.41433926457E+03  0.00000000000E+00 0. -1.
         -1   -1    0    0    0  501 -0.00000000000E+00 -0.00000000000E+00 -0.16431369874E+04  0.16431369874E+04  0.00000000000E+00 0.  1.
         23    2    1    2    0    0  0.47754081980E+03 -0.22124607759E+03 -0.14166509059E+03  0.55298604093E+03  0.93431804837E+02 0.  0.
        254    2    1    2    0    0 -0.47754081980E+03  0.22124607759E+03 -0.10871326323E+04  0.15044902110E+04  0.89701637310E+03 0.  0.
         23    2    4    4    0    0 -0.54362687221E+03 -0.55000573980E+02 -0.10697040911E+04  0.12045481002E+04  0.90077987460E+02 0.  0.
         23    2    4    4    0    0  0.66086052416E+02  0.27624665157E+03 -0.17428541182E+02  0.29994211089E+03  0.94773081665E+02 0.  0.
          3    1    3    3  502    0  0.27383238686E+02 -0.19969939923E+02  0.12837507446E+02  0.36241438422E+02  0.00000000000E+00 0.  1.
         -3    1    3    3    0  502  0.45015758111E+03 -0.20127613767E+03 -0.15450259804E+03  0.51674460251E+03  0.00000000000E+00 0. -1.
         13    1    5    5    0    0 -0.53360374751E+03 -0.63044358283E+02 -0.10601327259E+04  0.11885238521E+04  0.00000000000E+00 0. -1.
        -13    1    5    5    0    0 -0.10023124707E+02  0.80437843031E+01 -0.95713651408E+01  0.16024248047E+02  0.00000000000E+00 0.  1.
          4    1    6    6  503    0  0.41798922307E+01  0.98175576946E+02  0.34918850127E+02  0.10428442598E+03  0.00000000000E+00 0. -1.
         -4    1    6    6    0  503  0.61906160185E+02  0.17807107462E+03 -0.52347391308E+02  0.19565768491E+03  0.00000000000E+00 0.  1.
<mgrwt>
<rscale>  0 0.16502317E+04</rscale>
<asrwt>0</asrwt>
<pdfrwt beam="1">  1        1 0.63744501E-01 0.16502317E+04</pdfrwt>
<pdfrwt beam="2">  1       -1 0.25279031E+00 0.16502317E+04</pdfrwt>
<totfact> 0.36576934E+00</totfact>
</mgrwt>
</event>
<event>
12    3  0.4634846E-008  0.2048168E+04  0.7818608E-02  0.8584426E-01
         -2   -1    0    0    0  501 -0.00000000000E+00  0.00000000000E+00  0.14844100661E+04  0.14844100661E+04  0.00000000000E+00 0.  1.
          2   -1    0    0  501    0  0.00000000000E+00 -0.00000000000E+00 -0.70650849729E+03  0.70650849729E+03  0.00000000000E+00 0. -1.
         23    2    1    2    0    0 -0.86769097750E+02 -0.77909011999E+03  0.41041305800E+02  0.79042639240E+03  0.92623979787E+02 0.  0.
        254    2    1    2    0    0  0.86769097750E+02  0.77909011999E+03  0.73686026304E+03  0.14004921710E+04  0.89660748516E+03 0.  0.
         23    2    4    4    0    0  0.18892187020E+03  0.19205525680E+03 -0.15520951288E+03  0.32384320909E+03  0.90596558861E+02 0.  0.
         23    2    4    4    0    0 -0.10215277245E+03  0.58703486318E+03  0.89206977592E+03  0.10766489619E+04  0.91320220103E+02 0.  0.
          3    1    3    3  502    0  0.86171986116E+01 -0.10382630301E+02 -0.51624596853E+01  0.14446664455E+02  0.00000000000E+00 0. -1.
         -3    1    3    3    0  502 -0.95386296361E+02 -0.76870748969E+03  0.46203765485E+02  0.77597972794E+03  0.00000000000E+00 0.  1.
         13    1    5    5    0    0  0.14579868407E+03  0.10371021377E+03 -0.13331233208E+03  0.22312606885E+03  0.00000000000E+00 0.  1.
        -13    1    5    5    0    0  0.43123186137E+02  0.88345043030E+02 -0.21897180799E+02  0.10071714024E+03  0.00000000000E+00 0. -1.
          4    1    6    6  503    0 -0.26530251282E+02  0.82989095046E+02  0.82451669021E+02  0.11995549947E+03  0.00000000000E+00 0. -1.
         -4    1    6    6    0  503 -0.75622521171E+02  0.50404576814E+03  0.80961810690E+03  0.95669346245E+03  0.00000000000E+00 0.  1.
<mgrwt>
<rscale>  0 0.20481683E+04</rscale>
<asrwt>0</asrwt>
<pdfrwt beam="1">  1        2 0.10869362E+00 0.20481683E+04</pdfrwt>
<pdfrwt beam="2">  1       -2 0.22837078E+00 0.20481683E+04</pdfrwt>
<totfact> 0.32788295E+00</totfact>
</mgrwt>
</event>
<event>
12    3  0.4634846E-008  0.1778864E+04  0.7818608E-02  0.8717621E-01
         -1   -1    0    0    0  501 -0.00000000000E+00  0.00000000000E+00  0.75602564711E+03  0.75602564711E+03  0.00000000000E+00 0.  1.
          1   -1    0    0  501    0  0.00000000000E+00 -0.00000000000E+00 -0.10463792954E+04  0.10463792954E+04  0.00000000000E+00 0. -1.
         23    2    1    2    0    0  0.54949498931E+02 -0.15787154211E+03  0.53537408037E+03  0.56797740529E+03  0.89610578348E+02 0.  0.
        254    2    1    2    0    0 -0.54949498931E+02  0.15787154211E+03 -0.82572772868E+03  0.12344275372E+04  0.90224286727E+03 0.  0.
         23    2    4    4    0    0 -0.23920992721E+03  0.40246043999E+03 -0.78061020320E+03  0.91483634369E+03  0.91528418293E+02 0.  0.
         23    2    4    4    0    0  0.18426042828E+03 -0.24458889788E+03 -0.45117525476E+02  0.31959119355E+03  0.79544361792E+02 0.  0.
          3    1    3    3  502    0  0.16348974454E+02 -0.73731632881E+02  0.11535741524E+03  0.13788029556E+03  0.00000000000E+00 0. -1.
         -3    1    3    3    0  502  0.38600524477E+02 -0.84139909228E+02  0.42001666512E+03  0.43009710973E+03  0.00000000000E+00 0.  1.
         13    1    5    5    0    0 -0.14171145007E+03  0.15490745101E+03 -0.37442627748E+03  0.42927088270E+03  0.00000000000E+00 0. -1.
        -13    1    5    5    0    0 -0.97498477140E+02  0.24755298898E+03 -0.40618392572E+03  0.48556546099E+03  0.00000000000E+00 0.  1.
          1    1    6    6  503    0  0.82866219553E+02 -0.54979078765E+02  0.20224585029E+01  0.99466576212E+02  0.00000000000E+00 0. -1.
         -1    1    6    6    0  503  0.10139420872E+03 -0.18960981912E+03 -0.47139983979E+02  0.22012461734E+03  0.00000000000E+00 0.  1.
<mgrwt>
<rscale>  0 0.17788643E+04</rscale>
<asrwt>0</asrwt>
<pdfrwt beam="1">  1        1 0.16098143E+00 0.17788643E+04</pdfrwt>
<pdfrwt beam="2">  1       -1 0.11631164E+00 0.17788643E+04</pdfrwt>
<totfact> 0.87954933E+00</totfact>
</mgrwt>
</event>
<event>
12    3  0.4634846E-008  0.1132171E+04  0.7818608E-02  0.9174391E-01
          1   -1    0    0  501    0  0.00000000000E+00  0.00000000000E+00  0.11351259543E+04  0.11351259543E+04  0.00000000000E+00 0. -1.
         -1   -1    0    0    0  501 -0.00000000000E+00 -0.00000000000E+00 -0.28230606698E+03  0.28230606698E+03  0.00000000000E+00 0.  1.
         23    2    1    2    0    0 -0.78573056823E+02 -0.16555720369E+03  0.25369408348E+03  0.32464967212E+03  0.86335442693E+02 0.  0.
        254    2    1    2    0    0  0.78573056823E+02  0.16555720369E+03  0.59912580385E+03  0.10927823492E+04  0.89534273931E+03 0.  0.
         23    2    4    4    0    0 -0.17231344290E+03 -0.31100597319E+03  0.25140442062E+03  0.44515028237E+03  0.92401045599E+02 0.  0.
         23    2    4    4    0    0  0.25088649973E+03  0.47656317688E+03  0.34772138324E+03  0.64763206679E+03  0.91981717043E+02 0.  0.
          3    1    3    3  502    0 -0.28547563393E+02 -0.12218448123E+03  0.21217105056E+03  0.24649658319E+03  0.00000000000E+00 0. -1.
         -3    1    3    3    0  502 -0.50025493431E+02 -0.43372722464E+02  0.41523032915E+02  0.78153088930E+02  0.00000000000E+00 0.  1.
         13    1    5    5    0    0 -0.92971396322E+02 -0.21871715030E+03  0.20834512792E+03  0.31605152222E+03  0.00000000000E+00 0. -1.
        -13    1    5    5    0    0 -0.79342046582E+02 -0.92288822881E+02  0.43059292698E+02  0.12909876015E+03  0.00000000000E+00 0.  1.
          4    1    6    6  503    0  0.55927393730E+02  0.41576513479E+02  0.44539011652E+02  0.82705522194E+02  0.00000000000E+00 0. -1.
         -4    1    6    6    0  503  0.19495910600E+03  0.43498666340E+03  0.30318237158E+03  0.56492654459E+03  0.00000000000E+00 0.  1.
<mgrwt>
<rscale>  0 0.11321713E+04</rscale>
<asrwt>0</asrwt>
<pdfrwt beam="1">  1        1 0.17463476E+00 0.11321713E+04</pdfrwt>
<pdfrwt beam="2">  1       -1 0.43431703E-01 0.11321713E+04</pdfrwt>
<totfact> 0.62048419E+01</totfact>
</mgrwt>
</event>
<event>
12    3  0.4634846E-008  0.1217835E+04  0.7818608E-02  0.9097388E-01
          2   -1    0    0  501    0  0.00000000000E+00  0.00000000000E+00  0.25482772425E+04  0.25482772425E+04  0.00000000000E+00 0. -1.
         -2   -1    0    0    0  501 -0.00000000000E+00 -0.00000000000E+00 -0.14550230743E+03  0.14550230743E+03  0.00000000000E+00 0.  1.
         23    2    1    2    0    0  0.23120521541E+03  0.23932628936E+02  0.31864243952E+03  0.40444625265E+03  0.89527340276E+02 0.  0.
        254    2    1    2    0    0 -0.23120521541E+03 -0.23932628936E+02  0.20841324955E+04  0.22893332973E+04  0.91837359756E+03 0.  0.
         23    2    4    4    0    0 -0.15485513656E+03 -0.42726878737E+03  0.67472279280E+03  0.81853332825E+03  0.90593776611E+02 0.  0.
         23    2    4    4    0    0 -0.76350078853E+02  0.40333615844E+03  0.14094097027E+04  0.14707999690E+04  0.91145199837E+02 0.  0.
          1    1    3    3  502    0  0.43223420780E+02 -0.88729248847E+01  0.16537851592E+02  0.47122111956E+02  0.00000000000E+00 0. -1.
         -1    1    3    3    0  502  0.18798179463E+03  0.32805553821E+02  0.30210458793E+03  0.35732414069E+03  0.00000000000E+00 0.  1.
         13    1    5    5    0    0 -0.16945042430E+02 -0.10237260023E+03  0.10016094835E+03  0.14422031520E+03  0.00000000000E+00 0. -1.
        -13    1    5    5    0    0 -0.13791009413E+03 -0.32489618714E+03  0.57456184445E+03  0.67431301306E+03  0.00000000000E+00 0.  1.
          4    1    6    6  503    0 -0.59249491467E+02  0.10007574882E+03  0.36033237863E+03  0.37863581557E+03  0.00000000000E+00 0. -1.
         -4    1    6    6    0  503 -0.17100587387E+02  0.30326040962E+03  0.10490773241E+04  0.10921641534E+04  0.00000000000E+00 0.  1.
<mgrwt>
<rscale>  0 0.12178345E+04</rscale>
<asrwt>0</asrwt>
<pdfrwt beam="1">  1        2 0.39204262E+00 0.12178345E+04</pdfrwt>
<pdfrwt beam="2">  1       -2 0.22384972E-01 0.12178345E+04</pdfrwt>
<totfact> 0.56675814E+01</totfact>
</mgrwt>
</event>
<event>
12    3  0.4634846E-008  0.1432554E+04  0.7818608E-02  0.8930586E-01
          2   -1    0    0  501    0  0.00000000000E+00  0.00000000000E+00  0.21571633791E+04  0.21571633791E+04  0.00000000000E+00 0. -1.
         -2   -1    0    0    0  501 -0.00000000000E+00 -0.00000000000E+00 -0.23783669452E+03  0.23783669452E+03  0.00000000000E+00 0.  1.
         23    2    1    2    0    0  0.78486736493E+02  0.37088049064E+03  0.94081548867E+03  0.10180807770E+04  0.87419555247E+02 0.  0.
        254    2    1    2    0    0 -0.78486736493E+02 -0.37088049064E+03  0.97851119586E+03  0.13769192966E+04  0.89146513262E+03 0.  0.
         23    2    4    4    0    0 -0.19970265042E+03 -0.33386612202E+03  0.14480741930E+02  0.40028839686E+03  0.93130944127E+02 0.  0.
         23    2    4    4    0    0  0.12121591392E+03 -0.37014368619E+02  0.96403045393E+03  0.97663089971E+03  0.91596052760E+02 0.  0.
          1    1    3    3  502    0  0.37573859674E+02  0.30161941184E+03  0.67320260263E+03  0.73863916002E+03  0.00000000000E+00 0. -1.
         -1    1    3    3    0  502  0.40912876818E+02  0.69261078795E+02  0.26761288605E+03  0.27944161698E+03  0.00000000000E+00 0.  1.
         13    1    5    5    0    0 -0.10110187121E+03 -0.25315786148E+03  0.87998152894E+01  0.27274150388E+03  0.00000000000E+00 0. -1.
        -13    1    5    5    0    0 -0.98600779207E+02 -0.80708260542E+02  0.56809266402E+01  0.12754689297E+03  0.00000000000E+00 0.  1.
          2    1    6    6  503    0  0.12709799971E+03 -0.53111322665E+02  0.89303132824E+03  0.90359264458E+03  0.00000000000E+00 0. -1.
         -2    1    6    6    0  503 -0.58820857803E+01  0.16096954047E+02  0.70999125698E+02  0.73038255131E+02  0.00000000000E+00 0.  1.
<mgrwt>
<rscale>  0 0.14325538E+04</rscale>
<asrwt>0</asrwt>
<pdfrwt beam="1">  1        2 0.33187128E+00 0.14325538E+04</pdfrwt>
<pdfrwt beam="2">  1       -2 0.36590262E-01 0.14325538E+04</pdfrwt>
<totfact> 0.37320855E+01</totfact>
</mgrwt>
</event>
<event>
12    3  0.4634846E-008  0.2003926E+04  0.7818608E-02  0.8604787E-01
          1   -1    0    0  501    0  0.00000000000E+00  0.00000000000E+00  0.14729432484E+04  0.14729432484E+04  0.00000000000E+00 0. -1.
         -1   -1    0    0    0  501 -0.00000000000E+00 -0.00000000000E+00 -0.68158071391E+03  0.68158071391E+03  0.00000000000E+00 0.  1.
         23    2    1    2    0    0  0.33406183512E+02 -0.32137774361E+02  0.11718210455E+04  0.11762415633E+04  0.90723993084E+02 0.  0.
        254    2    1    2    0    0 -0.33406183512E+02  0.32137774361E+02 -0.38045851102E+03  0.97828239900E+03  0.90007719888E+03 0.  0.
         23    2    4    4    0    0 -0.24969122372E+03  0.31557015248E+03 -0.44339056913E+03  0.60438768668E+03  0.82213445887E+02 0.  0.
         23    2    4    4    0    0  0.21628504020E+03 -0.28343237812E+03  0.62932058111E+02  0.37389471232E+03  0.93400644421E+02 0.  0.
          2    1    3    3  502    0  0.55507301658E+02 -0.28089102855E+02  0.10769825776E+04  0.10787777949E+04  0.00000000000E+00 0. -1.
         -2    1    3    3    0  502 -0.22101118146E+02 -0.40486715058E+01  0.94838467888E+02  0.97463768425E+02  0.00000000000E+00 0.  1.
         13    1    5    5    0    0 -0.19585567505E+03  0.19151228199E+03 -0.32100146996E+03  0.42199329772E+03  0.00000000000E+00 0.  1.
        -13    1    5    5    0    0 -0.53835548669E+02  0.12405787049E+03 -0.12238909917E+03  0.18239438897E+03  0.00000000000E+00 0. -1.
          4    1    6    6  503    0  0.11577005032E+03 -0.98921221700E+02  0.60254683801E+02  0.16376428052E+03  0.00000000000E+00 0. -1.
         -4    1    6    6    0  503  0.10051498988E+03 -0.18451115642E+03  0.26773743095E+01  0.21013043180E+03  0.00000000000E+00 0.  1.
<mgrwt>
<rscale>  0 0.20039259E+04</rscale>
<asrwt>0</asrwt>
<pdfrwt beam="1">  1        1 0.22660665E+00 0.20039259E+04</pdfrwt>
<pdfrwt beam="2">  1       -1 0.10485857E+00 0.20039259E+04</pdfrwt>
<totfact> 0.54100479E+00</totfact>
</mgrwt>
</event>
<event>
12    3  0.4634846E-008  0.1703264E+04  0.7818608E-02  0.8759505E-01
          1   -1    0    0  501    0  0.00000000000E+00  0.00000000000E+00  0.23794950034E+04  0.23794950034E+04  0.00000000000E+00 0. -1.
         -1   -1    0    0    0  501 -0.00000000000E+00 -0.00000000000E+00 -0.30480281954E+03  0.30480281954E+03  0.00000000000E+00 0.  1.
         23    2    1    2    0    0  0.30285957119E+03  0.51596337721E+03  0.57839505735E+03  0.83711908734E+03  0.91024158999E+02 0.  0.
        254    2    1    2    0    0 -0.30285957119E+03 -0.51596337721E+03  0.14962971265E+04  0.18471787356E+04  0.90289648574E+03 0.  0.
         23    2    4    4    0    0  0.25830361260E+03 -0.21571064287E+03  0.92147929388E+03  0.98503433913E+03  0.88975965824E+02 0.  0.
         23    2    4    4    0    0 -0.56116318380E+03 -0.30025273434E+03  0.57481783260E+03  0.86214439644E+03  0.88439789198E+02 0.  0.
          4    1    3    3  502    0  0.13915452898E+03  0.32295896663E+03  0.35172719434E+03  0.49737158775E+03  0.00000000000E+00 0. -1.
         -4    1    3    3    0  502  0.16370504222E+03  0.19300441058E+03  0.22666786301E+03  0.33974749958E+03  0.00000000000E+00 0.  1.
         13    1    5    5    0    0  0.18680101809E+03 -0.99632389006E+02  0.56857439171E+03  0.60671086376E+03  0.00000000000E+00 0.  1.
        -13    1    5    5    0    0  0.71502594511E+02 -0.11607825387E+03  0.35290490217E+03  0.37832347537E+03  0.00000000000E+00 0. -1.
          4    1    6    6  503    0 -0.29495311826E+03 -0.12287097011E+03  0.24468610423E+03  0.40244988119E+03  0.00000000000E+00 0. -1.
         -4    1    6    6    0  503 -0.26621006553E+03 -0.17738176423E+03  0.33013172838E+03  0.45969451525E+03  0.00000000000E+00 0.  1.
<mgrwt>
<rscale>  0 0.17032637E+04</rscale>
<asrwt>0</asrwt>
<pdfrwt beam="1">  1        1 0.36607614E+00 0.17032637E+04</pdfrwt>
<pdfrwt beam="2">  1       -1 0.46892743E-01 0.17032637E+04</pdfrwt>
<totfact> 0.70855754E+00</totfact>
</mgrwt>
</event>
<event>
12    3  0.4634846E-008  0.1871934E+04  0.7818608E-02  0.8668954E-01
         -1   -1    0    0    0  501 -0.00000000000E+00  0.00000000000E+00  0.28383699201E+03  0.28383699201E+03  0.00000000000E+00 0.  1.
          1   -1    0    0  501    0  0.00000000000E+00 -0.00000000000E+00 -0.30863988812E+04  0.30863988812E+04  0.00000000000E+00 0. -1.
         23    2    1    2    0    0  0.37111289494E+03 -0.45640709814E+03 -0.35193580981E+03  0.69142938733E+03  0.90463049998E+02 0.  0.
        254    2    1    2    0    0 -0.37111289494E+03  0.45640709814E+03 -0.24506260794E+04  0.26788064859E+04  0.90796684290E+03 0.  0.
         23    2    4    4    0    0 -0.20445102567E+03  0.34233695964E+03 -0.24202954191E+04  0.24545685730E+04  0.89900767464E+02 0.  0.
         23    2    4    4    0    0 -0.16666186927E+03  0.11407013850E+03 -0.30330660269E+02  0.22423791287E+03  0.92598690320E+02 0.  0.
          1    1    3    3  502    0  0.90410002938E+02 -0.85674800895E+02 -0.37472153845E+02  0.13007037500E+03  0.00000000000E+00 0. -1.
         -1    1    3    3    0  502  0.28070289200E+03 -0.37073229725E+03 -0.31446365596E+03  0.56135901233E+03  0.00000000000E+00 0.  1.
         13    1    5    5    0    0  0.32991578259E+01 -0.30014024495E+01 -0.12354439085E+02  0.13134878155E+02  0.00000000000E+00 0. -1.
        -13    1    5    5    0    0 -0.20775018349E+03  0.34533836209E+03 -0.24079409800E+04  0.24414336948E+04  0.00000000000E+00 0.  1.
          1    1    6    6  503    0 -0.27220019583E+02  0.71070182630E+02 -0.64751728147E+01  0.76379501099E+02  0.00000000000E+00 0. -1.
         -1    1    6    6    0  503 -0.13944184969E+03  0.42999955870E+02 -0.23855487454E+02  0.14785841177E+03  0.00000000000E+00 0.  1.
<mgrwt>
<rscale>  0 0.18719339E+04</rscale>
<asrwt>0</asrwt>
<pdfrwt beam="1">  1        1 0.47483058E+00 0.18719339E+04</pdfrwt>
<pdfrwt beam="2">  1       -1 0.43667232E-01 0.18719339E+04</pdfrwt>
<totfact> 0.25167792E+00</totfact>
</mgrwt>
</event>
<event>
12    3  0.4634846E-008  0.1109832E+04  0.7818608E-02  0.9195661E-01
         -2   -1    0    0    0  501 -0.00000000000E+00  0.00000000000E+00  0.88191060039E+02  0.88191060039E+02  0.00000000000E+00 0.  1.
          2   -1    0    0  501    0  0.00000000000E+00 -0.00000000000E+00 -0.34916453432E+04  0.34916453432E+04  0.00000000000E+00 0. -1.
         23    2    1    2    0    0  0.96003788365E+02  0.14568844709E+03 -0.60543843405E+03  0.63587339528E+03  0.85658778937E+02 0.  0.
        254    2    1    2    0    0 -0.96003788365E+02 -0.14568844709E+03 -0.27980158491E+04  0.29439630079E+04  0.89865658031E+03 0.  0.
         23    2    4    4    0    0 -0.20574013241E+02 -0.11699935792E+03 -0.28177607186E+04  0.28217032578E+04  0.90120298766E+02 0.  0.
         23    2    4    4    0    0 -0.75429775125E+02 -0.28689089164E+02  0.19744869495E+02  0.12225975011E+03  0.89693209403E+02 0.  0.
          3    1    3    3  502    0  0.99606861778E+02  0.99846943881E+02 -0.52070584565E+03  0.53946780887E+03  0.00000000000E+00 0. -1.
         -3    1    3    3    0  502 -0.36030734125E+01  0.45841503206E+02 -0.84732588399E+02  0.96405586410E+02  0.00000000000E+00 0.  1.
         13    1    5    5    0    0 -0.22563215083E+02  0.13847025665E+01 -0.20136803886E+03  0.20263292711E+03  0.00000000000E+00 0.  1.
        -13    1    5    5    0    0  0.19892018426E+01 -0.11838406049E+03 -0.26163926797E+04  0.26190703307E+04  0.00000000000E+00 0. -1.
          3    1    6    6  503    0 -0.64412114162E+02  0.21539431218E+02  0.20120319772E+02  0.70835688856E+02  0.00000000000E+00 0. -1.
         -3    1    6    6    0  503 -0.11017660963E+02 -0.50228520382E+02 -0.37545027669E+00  0.51424061253E+02  0.00000000000E+00 0.  1.
<mgrwt>
<rscale>  0 0.11098322E+04</rscale>
<asrwt>0</asrwt>
<pdfrwt beam="1">  1        2 0.53717601E+00 0.11098322E+04</pdfrwt>
<pdfrwt beam="2">  1       -2 0.13567860E-01 0.11098322E+04</pdfrwt>
<totfact> 0.35069467E+01</totfact>
</mgrwt>
</event>
<event>
12    3  0.4634846E-008  0.2191090E+04  0.7818608E-02  0.8522146E-01
         -3   -1    0    0    0  501 -0.00000000000E+00  0.00000000000E+00  0.92990150301E+03  0.92990150301E+03  0.00000000000E+00 0.  1.
          3   -1    0    0  501    0  0.00000000000E+00 -0.00000000000E+00 -0.12906949390E+04  0.12906949390E+04  0.00000000000E+00 0. -1.
         23    2    1    2    0    0  0.36417823895E+03  0.62853490828E+03  0.43009541560E+03  0.84943558378E+03  0.94216897694E+02 0.  0.
        254    2    1    2    0    0 -0.36417823895E+03 -0.62853490828E+03 -0.79088885163E+03  0.13711608583E+04  0.85258137616E+03 0.  0.
         23    2    4    4    0    0  0.34531089770E+02 -0.47835162691E+03 -0.79739135497E+03  0.93509730669E+03  0.92527427732E+02 0.  0.
         23    2    4    4    0    0 -0.39870932872E+03 -0.15018328137E+03  0.65025033363E+01  0.43606355158E+03  0.92655230032E+02 0.  0.
          3    1    3    3  502    0  0.18369021423E+03  0.22726670245E+03  0.18340985788E+03  0.34500931120E+03  0.00000000000E+00 0. -1.
         -3    1    3    3    0  502  0.18048802472E+03  0.40126820583E+03  0.24668555772E+03  0.50442627258E+03  0.00000000000E+00 0.  1.
         13    1    5    5    0    0 -0.25310321519E+02 -0.13151661431E+03 -0.17895248753E+03  0.22352007742E+03  0.00000000000E+00 0. -1.
        -13    1    5    5    0    0  0.59841411289E+02 -0.34683501260E+03 -0.61843886744E+03  0.71157722928E+03  0.00000000000E+00 0.  1.
          1    1    6    6  503    0 -0.17485097089E+03 -0.28296813681E+02  0.31667286543E+02  0.17993440117E+03  0.00000000000E+00 0. -1.
         -1    1    6    6    0  503 -0.22385835783E+03 -0.12188646769E+03 -0.25164783207E+02  0.25612915041E+03  0.00000000000E+00 0.  1.
<mgrwt>
<rscale>  0 0.21910903E+04</rscale>
<asrwt>0</asrwt>
<pdfrwt beam="1">  1        3 0.19856845E+00 0.21910903E+04</pdfrwt>
<pdfrwt beam="2">  1       -3 0.14306177E+00 0.21910903E+04</pdfrwt>
<totfact> 0.13084887E-01</totfact>
</mgrwt>
</event>
<event>
12    3  0.4634846E-008  0.2069693E+04  0.7818608E-02  0.8574713E-01
          2   -1    0    0  501    0  0.00000000000E+00  0.00000000000E+00  0.13643134261E+04  0.13643134261E+04  0.00000000000E+00 0. -1.
         -2   -1    0    0    0  501 -0.00000000000E+00 -0.00000000000E+00 -0.78494212180E+03  0.78494212180E+03  0.00000000000E+00 0.  1.
         23    2    1    2    0    0  0.27700357516E+03 -0.79013614705E+03  0.24648320324E+03  0.87750281316E+03  0.90615153790E+02 0.  0.
        254    2    1    2    0    0 -0.27700357516E+03  0.79013614705E+03  0.33288810106E+03  0.12717527348E+04  0.89749340888E+03 0.  0.
         23    2    4    4    0    0  0.12135648398E+03  0.71009288344E+03  0.42919465922E+03  0.84343048988E+03  0.90596006785E+02 0.  0.
         23    2    4    4    0    0 -0.39836005913E+03  0.80043263613E+02 -0.96306558159E+02  0.42832224487E+03  0.95327496233E+02 0.  0.
          4    1    3    3  502    0  0.19973437944E+03 -0.52824073932E+03  0.12379465701E+03  0.57814982324E+03  0.00000000000E+00 0.  1.
         -4    1    3    3    0  502  0.77269195720E+02 -0.26189540773E+03  0.12268854624E+03  0.29935298992E+03  0.00000000000E+00 0. -1.
         13    1    5    5    0    0  0.16574335008E+02  0.17226157640E+02  0.54213276265E+01  0.24512035436E+02  0.00000000000E+00 0.  1.
        -13    1    5    5    0    0  0.10478214897E+03  0.69286672580E+03  0.42377333160E+03  0.81891845445E+03  0.00000000000E+00 0. -1.
          1    1    6    6  503    0 -0.33476244457E+03  0.38283838387E+02 -0.10195184878E+03  0.35203085951E+03  0.00000000000E+00 0. -1.
         -1    1    6    6    0  503 -0.63597614566E+02  0.41759425226E+02  0.56452906211E+01  0.76291385359E+02  0.00000000000E+00 0.  1.
<mgrwt>
<rscale>  0 0.20696928E+04</rscale>
<asrwt>0</asrwt>
<pdfrwt beam="1">  1        2 0.20989437E+00 0.20696928E+04</pdfrwt>
<pdfrwt beam="2">  1       -2 0.12076033E+00 0.20696928E+04</pdfrwt>
<totfact> 0.73271318E+00</totfact>
</mgrwt>
</event>
<event>
12    3  0.4634846E-008  0.1943804E+04  0.7818608E-02  0.8633355E-01
         -2   -1    0    0    0  501 -0.00000000000E+00  0.00000000000E+00  0.42242310474E+03  0.42242310474E+03  0.00000000000E+00 0.  1.
          2   -1    0    0  501    0  0.00000000000E+00 -0.00000000000E+00 -0.22361301509E+04  0.22361301509E+04  0.00000000000E+00 0. -1.
         23    2    1    2    0    0 -0.73106548106E+03  0.14232133060E+03 -0.49845297076E+03  0.90118842154E+03  0.94726492112E+02 0.  0.
        254    2    1    2    0    0  0.73106548106E+03 -0.14232133060E+03 -0.13152540754E+04  0.17573648341E+04  0.89650754519E+03 0.  0.
         23    2    4    4    0    0 -0.13764359307E+03  0.10673805015E+03 -0.55350473097E+02  0.20413931547E+03  0.90941823079E+02 0.  0.
         23    2    4    4    0    0  0.86870907413E+03 -0.24905938075E+03 -0.12599036023E+04  0.15532255186E+04  0.92013010174E+02 0.  0.
          3    1    3    3  502    0 -0.71960815227E+03  0.14764132311E+03 -0.49977554053E+03  0.88848716593E+03  0.00000000000E+00 0. -1.
         -3    1    3    3    0  502 -0.11457328785E+02 -0.53199925096E+01  0.13225697673E+01  0.12701255607E+02  0.00000000000E+00 0.  1.
         13    1    5    5    0    0 -0.87256894597E+02  0.11172479799E+03 -0.21869865105E+02  0.14343809515E+03  0.00000000000E+00 0.  1.
        -13    1    5    5    0    0 -0.50386698475E+02 -0.49867478347E+01 -0.33480607991E+02  0.60701220323E+02  0.00000000000E+00 0. -1.
          1    1    6    6  503    0  0.52291482042E+03 -0.14453813790E+03 -0.67845371072E+03  0.86869477972E+03  0.00000000000E+00 0. -1.
         -1    1    6    6    0  503  0.34579425371E+03 -0.10452124285E+03 -0.58144989156E+03  0.68453073891E+03  0.00000000000E+00 0.  1.
<mgrwt>
<rscale>  0 0.19438035E+04</rscale>
<asrwt>0</asrwt>
<pdfrwt beam="1">  1        2 0.34402002E+00 0.19438035E+04</pdfrwt>
<pdfrwt beam="2">  1       -2 0.64988170E-01 0.19438035E+04</pdfrwt>
<totfact> 0.10044453E+01</totfact>
</mgrwt>
</event>
<event>
12    3  0.4634846E-008  0.1640326E+04  0.7818608E-02  0.8796150E-01
          1   -1    0    0  501    0  0.00000000000E+00  0.00000000000E+00  0.13711807671E+04  0.13711807671E+04  0.00000000000E+00 0. -1.
         -1   -1    0    0    0  501 -0.00000000000E+00 -0.00000000000E+00 -0.49057510553E+03  0.49057510553E+03  0.00000000000E+00 0.  1.
         23    2    1    2    0    0  0.45269140096E+03 -0.10336449034E+03  0.67454293843E+03  0.82602590056E+03  0.10815216249E+03 0.  0.
        254    2    1    2    0    0 -0.45269140096E+03  0.10336449034E+03  0.20606272311E+03  0.10357299720E+04  0.90258573374E+03 0.  0.
         23    2    4    4    0    0 -0.61632072168E+03 -0.12334324724E+03 -0.62300778942E+02  0.63781517875E+03  0.88668069617E+02 0.  0.
         23    2    4    4    0    0  0.16362932073E+03  0.22670773758E+03  0.26836350205E+03  0.39791479328E+03  0.90256637418E+02 0.  0.
          3    1    3    3  502    0  0.21860027244E+03 -0.29134899135E+02  0.40667683500E+03  0.46262400455E+03  0.00000000000E+00 0. -1.
         -3    1    3    3    0  502  0.23409112851E+03 -0.74229591207E+02  0.26786610343E+03  0.36340189601E+03  0.00000000000E+00 0.  1.
         13    1    5    5    0    0 -0.56732423415E+03 -0.10617742917E+03 -0.80585136160E+02  0.58277302381E+03  0.00000000000E+00 0.  1.
        -13    1    5    5    0    0 -0.48996487537E+02 -0.17165818072E+02  0.18284357219E+02  0.55042154936E+02  0.00000000000E+00 0. -1.
          1    1    6    6  503    0  0.14382204647E+03  0.16710169416E+03  0.15909721123E+03  0.27188173875E+03  0.00000000000E+00 0. -1.
         -1    1    6    6    0  503  0.19807274253E+02  0.59606043423E+02  0.10926629081E+03  0.12603305453E+03  0.00000000000E+00 0.  1.
<mgrwt>
<rscale>  0 0.16403258E+04</rscale>
<asrwt>0</asrwt>
<pdfrwt beam="1">  1        1 0.21095089E+00 0.16403258E+04</pdfrwt>
<pdfrwt beam="2">  1       -1 0.75473094E-01 0.16403258E+04</pdfrwt>
<totfact> 0.13585278E+01</totfact>
</mgrwt>
</event>
<event>
12    3  0.4634846E-008  0.2510209E+04  0.7818608E-02  0.8399358E-01
         -1   -1    0    0    0  501 -0.00000000000E+00  0.00000000000E+00  0.91049594069E+03  0.91049594069E+03  0.00000000000E+00 0.  1.
          1   -1    0    0  501    0  0.00000000000E+00 -0.00000000000E+00 -0.17301420635E+04  0.17301420635E+04  0.00000000000E+00 0. -1.
         23    2    1    2    0    0  0.34502154838E+01 -0.49667712623E+03 -0.13872097805E+04  0.14764265529E+04  0.93724699533E+02 0.  0.
        254    2    1    2    0    0 -0.34502154838E+01  0.49667712623E+03  0.56756365771E+03  0.11642114513E+04  0.88688202485E+03 0.  0.
         23    2    4    4    0    0  0.19833589944E+03  0.57106765527E+02  0.62797734308E+03  0.66789640271E+03  0.95560188710E+02 0.  0.
         23    2    4    4    0    0 -0.20178611492E+03  0.43957036070E+03 -0.60413685365E+02  0.49631504855E+03  0.93483024445E+02 0.  0.
          3    1    3    3  502    0 -0.29272927386E+02 -0.26726004527E+03 -0.84587058851E+03  0.88757077948E+03  0.00000000000E+00 0. -1.
         -3    1    3    3    0  502  0.32723142870E+02 -0.22941708095E+03 -0.54133919196E+03  0.58885577340E+03  0.00000000000E+00 0.  1.
         13    1    5    5    0    0  0.44305692029E+02  0.58177164757E+02  0.18691342214E+03  0.20070925295E+03  0.00000000000E+00 0. -1.
        -13    1    5    5    0    0  0.15403020741E+03 -0.10703992304E+01  0.44106392094E+03  0.46718714976E+03  0.00000000000E+00 0.  1.
          3    1    6    6  503    0 -0.16680515764E+02  0.75148306929E+02 -0.40762734323E+02  0.87104007657E+02  0.00000000000E+00 0. -1.
         -3    1    6    6    0  503 -0.18510559916E+03  0.36442205377E+03 -0.19650951042E+02  0.40921104089E+03  0.00000000000E+00 0.  1.
<mgrwt>
<rscale>  0 0.25102090E+04</rscale>
<asrwt>0</asrwt>
<pdfrwt beam="1">  1        1 0.26617570E+00 0.25102090E+04</pdfrwt>
<pdfrwt beam="2">  1       -1 0.14007630E+00 0.25102090E+04</pdfrwt>
<totfact> 0.16887267E+00</totfact>
</mgrwt>
</event>
<event>
12    3  0.4634846E-008  0.2370652E+04  0.7818608E-02  0.8450573E-01
         -2   -1    0    0    0  501 -0.00000000000E+00  0.00000000000E+00  0.43565673715E+03  0.43565673715E+03  0.00000000000E+00 0.  1.
          2   -1    0    0  501    0  0.00000000000E+00 -0.00000000000E+00 -0.32250122076E+04  0.32250122076E+04  0.00000000000E+00 0. -1.
         23    2    1    2    0    0  0.18573014734E+03 -0.85428137855E+02  0.33518208702E+03  0.40269621334E+03  0.89574295497E+02 0.  0.
        254    2    1    2    0    0 -0.18573014734E+03  0.85428137855E+02 -0.31245375574E+04  0.32579727314E+04  0.89992094998E+03 0.  0.
         23    2    4    4    0    0 -0.28772896757E+03 -0.20356199464E+02 -0.29261409456E+03  0.42073676860E+03  0.90521193535E+02 0.  0.
         23    2    4    4    0    0  0.10199882024E+03  0.10578433732E+03 -0.28319234629E+04  0.28372359628E+04  0.92321847684E+02 0.  0.
          1    1    3    3  502    0  0.23354751759E+02 -0.24535567446E+02  0.12854023340E+03  0.13292866547E+03  0.00000000000E+00 0. -1.
         -1    1    3    3    0  502  0.16237539558E+03 -0.60892570410E+02  0.20664185362E+03  0.26976754787E+03  0.00000000000E+00 0.  1.
         13    1    5    5    0    0 -0.13434253969E+03  0.86173400339E+01 -0.19388147528E+03  0.23603432584E+03  0.00000000000E+00 0. -1.
        -13    1    5    5    0    0 -0.15338642788E+03 -0.28973539498E+02 -0.98732619278E+02  0.18470244276E+03  0.00000000000E+00 0.  1.
          1    1    6    6  503    0  0.10365752029E+03  0.87463104642E+02 -0.17828953840E+04  0.17880465952E+04  0.00000000000E+00 0. -1.
         -1    1    6    6    0  503 -0.16587000525E+01  0.18321232677E+02 -0.10490280788E+04  0.10491893676E+04  0.00000000000E+00 0.  1.
<mgrwt>
<rscale>  0 0.23706525E+04</rscale>
<asrwt>0</asrwt>
<pdfrwt beam="1">  1        2 0.49615574E+00 0.23706525E+04</pdfrwt>
<pdfrwt beam="2">  1       -2 0.67024111E-01 0.23706525E+04</pdfrwt>
<totfact> 0.23026123E+00</totfact>
</mgrwt>
</event>
<event>
12    3  0.4634846E-008  0.2348362E+04  0.7818608E-02  0.8459093E-01
          2   -1    0    0  501    0  0.00000000000E+00  0.00000000000E+00  0.11170197485E+04  0.11170197485E+04  0.00000000000E+00 0. -1.
         -2   -1    0    0    0  501 -0.00000000000E+00 -0.00000000000E+00 -0.12342669646E+04  0.12342669646E+04  0.00000000000E+00 0.  1.
         23    2    1    2    0    0  0.78406766968E+03 -0.57347229201E+03 -0.28709937494E+03  0.10170393958E+04  0.91161950120E+02 0.  0.
        254    2    1    2    0    0 -0.78406766968E+03  0.57347229201E+03  0.16985215880E+03  0.13342473173E+04  0.89873998878E+03 0.  0.
         23    2    4    4    0    0  0.16492737272E+03  0.68008055975E+02 -0.94137990256E+02  0.22332348032E+03  0.95839875330E+02 0.  0.
         23    2    4    4    0    0 -0.94899504239E+03  0.50546423604E+03  0.26399014905E+03  0.11109238369E+04  0.91516601174E+02 0.  0.
          3    1    3    3  502    0  0.18138318465E+03 -0.16915525734E+03 -0.10116938499E+03  0.26785930116E+03  0.00000000000E+00 0. -1.
         -3    1    3    3    0  502  0.60268448503E+03 -0.40431703468E+03 -0.18592998995E+03  0.74918009463E+03  0.00000000000E+00 0.  1.
         13    1    5    5    0    0  0.16295648471E+03  0.55844291961E+02 -0.52773020272E+02  0.18016212844E+03  0.00000000000E+00 0. -1.
        -13    1    5    5    0    0  0.19708880057E+01  0.12163764015E+02 -0.41364969984E+02  0.43161351882E+02  0.00000000000E+00 0.  1.
          1    1    6    6  503    0 -0.42697443352E+03  0.22391201467E+03  0.71718950876E+02  0.48742934371E+03  0.00000000000E+00 0. -1.
         -1    1    6    6    0  503 -0.52202060888E+03  0.28155222137E+03  0.19227119817E+03  0.62349449324E+03  0.00000000000E+00 0.  1.
<mgrwt>
<rscale>  0 0.23483616E+04</rscale>
<asrwt>0</asrwt>
<pdfrwt beam="1">  1        2 0.17184919E+00 0.23483616E+04</pdfrwt>
<pdfrwt beam="2">  1       -2 0.18988723E+00 0.23483616E+04</pdfrwt>
<totfact> 0.29816232E+00</totfact>
</mgrwt>
</event>
<event>
12    3  0.4634846E-008  0.1164168E+04  0.7818608E-02  0.9144812E-01
         -1   -1    0    0    0  501 -0.00000000000E+00  0.00000000000E+00  0.51793752145E+03  0.51793752145E+03  0.00000000000E+00 0.  1.
          1   -1    0    0  501    0  0.00000000000E+00 -0.00000000000E+00 -0.65417481616E+03  0.65417481616E+03  0.00000000000E+00 0. -1.
         23    2    1    2    0    0 -0.15529138258E+03  0.56952603073E+02  0.12025864360E+03  0.22379788093E+03  0.90908402509E+02 0.  0.
        254    2    1    2    0    0  0.15529138258E+03 -0.56952603073E+02 -0.25649593831E+03  0.94831445669E+03  0.89785919269E+03 0.  0.
         23    2    4    4    0    0  0.49064649190E+03  0.10951056282E+03 -0.54062596759E+02  0.51305544028E+03  0.87043535370E+02 0.  0.
         23    2    4    4    0    0 -0.33535510932E+03 -0.16646316589E+03 -0.20243334155E+03  0.43525901640E+03  0.91094009926E+02 0.  0.
          4    1    3    3  502    0 -0.56954005731E+02  0.26357676366E+02 -0.34251764628E+01  0.62850757402E+02  0.00000000000E+00 0. -1.
         -4    1    3    3    0  502 -0.98337376853E+02  0.30594926707E+02  0.12368382006E+03  0.16094712353E+03  0.00000000000E+00 0.  1.
         13    1    5    5    0    0  0.39412794123E+03  0.11666679135E+03 -0.24094264052E+02  0.41173839731E+03  0.00000000000E+00 0. -1.
        -13    1    5    5    0    0  0.96518550673E+02 -0.71562285301E+01 -0.29968332708E+02  0.10131704297E+03  0.00000000000E+00 0.  1.
          1    1    6    6  503    0 -0.26990198730E+03 -0.12294357209E+03 -0.11608330287E+03  0.31849260254E+03  0.00000000000E+00 0. -1.
         -1    1    6    6    0  503 -0.65453122016E+02 -0.43519593799E+02 -0.86350038679E+02  0.11676641386E+03  0.00000000000E+00 0.  1.
<mgrwt>
<rscale>  0 0.11641678E+04</rscale>
<asrwt>0</asrwt>
<pdfrwt beam="1">  1        1 0.10064228E+00 0.11641678E+04</pdfrwt>
<pdfrwt beam="2">  1       -1 0.79682696E-01 0.11641678E+04</pdfrwt>
<totfact> 0.47113546E+01</totfact>
</mgrwt>
</event>
<event>
12    3  0.4634846E-008  0.1723662E+04  0.7818608E-02  0.8747983E-01
          1   -1    0    0  501    0  0.00000000000E+00  0.00000000000E+00  0.93126523167E+03  0.93126523167E+03  0.00000000000E+00 0. -1.
         -1   -1    0    0    0  501 -0.00000000000E+00 -0.00000000000E+00 -0.79757399633E+03  0.79757399633E+03  0.00000000000E+00 0.  1.
         23    2    1    2    0    0 -0.97875185004E+02 -0.97728966115E+02 -0.56113643583E+03  0.58540787675E+03  0.93261888760E+02 0.  0.
        254    2    1    2    0    0  0.97875185004E+02  0.97728966115E+02  0.69482767117E+03  0.11434313513E+04  0.89750724775E+03 0.  0.
         23    2    4    4    0    0  0.39877200267E+03 -0.57823594721E+02  0.61724238924E+02  0.41968213753E+03  0.99802488282E+02 0.  0.
         23    2    4    4    0    0 -0.30089681767E+03  0.15555256084E+03  0.63310343224E+03  0.72374921373E+03  0.90870646442E+02 0.  0.
          3    1    3    3  502    0 -0.61573437007E+02 -0.95227611682E+01 -0.32158001554E+03  0.32756018915E+03  0.00000000000E+00 0. -1.
         -3    1    3    3    0  502 -0.36301747996E+02 -0.88206204947E+02 -0.23955642029E+03  0.25784768760E+03  0.00000000000E+00 0.  1.
         13    1    5    5    0    0  0.18076691389E+02  0.15021958284E+02 -0.99250349842E+01  0.25513375350E+02  0.00000000000E+00 0. -1.
        -13    1    5    5    0    0  0.38069531128E+03 -0.72845553005E+02  0.71649273909E+02  0.39416876218E+03  0.00000000000E+00 0.  1.
          1    1    6    6  503    0 -0.84365959853E+02  0.60417383360E+01  0.11618838229E+03  0.14371450158E+03  0.00000000000E+00 0. -1.
         -1    1    6    6    0  503 -0.21653085782E+03  0.14951082250E+03  0.51691504995E+03  0.58003471215E+03  0.00000000000E+00 0.  1.
<mgrwt>
<rscale>  0 0.17236623E+04</rscale>
<asrwt>0</asrwt>
<pdfrwt beam="1">  1        1 0.14327157E+00 0.17236623E+04</pdfrwt>
<pdfrwt beam="2">  1       -1 0.12270369E+00 0.17236623E+04</pdfrwt>
<totfact> 0.95521540E+00</totfact>
</mgrwt>
</event>
<event>
12    3  0.4634846E-008  0.1951887E+04  0.7818608E-02  0.8629451E-01
          1   -1    0    0  501    0  0.00000000000E+00  0.00000000000E+00  0.19327852876E+04  0.19327852876E+04  0.00000000000E+00 0. -1.
         -1   -1    0    0    0  501 -0.00000000000E+00 -0.00000000000E+00 -0.49279439129E+03  0.49279439129E+03  0.00000000000E+00 0.  1.
         23    2    1    2    0    0  0.38680882176E+03 -0.19747665022E+03 -0.14425730019E+03  0.46679460981E+03  0.92026882561E+02 0.  0.
        254    2    1    2    0    0 -0.38680882176E+03  0.19747665022E+03  0.15842481965E+04  0.19587850691E+04  0.10669482212E+04 0.  0.
         23    2    4    4    0    0 -0.64598970821E+03  0.41137322220E+03  0.12901978548E+04  0.15031542886E+04  0.91278035618E+02 0.  0.
         23    2    4    4    0    0  0.25918088645E+03 -0.21389657198E+03  0.29405034167E+03  0.45563078045E+03  0.90594311364E+02 0.  0.
          4    1    3    3  502    0  0.21441046451E+03 -0.83923074755E+02 -0.11791005480E+03  0.25868457780E+03  0.00000000000E+00 0.  1.
         -4    1    3    3    0  502  0.17239835725E+03 -0.11355357547E+03 -0.26347245392E+02  0.20811003201E+03  0.00000000000E+00 0. -1.
         13    1    5    5    0    0 -0.72141345394E+01  0.19798421351E+02  0.24461745614E+02  0.32286192461E+02  0.00000000000E+00 0. -1.
        -13    1    5    5    0    0 -0.63877557367E+03  0.39157480085E+03  0.12657361092E+04  0.14708680962E+04  0.00000000000E+00 0.  1.
          4    1    6    6  503    0  0.20651706569E+02 -0.47777422120E+02  0.76643529923E+02  0.92646671433E+02  0.00000000000E+00 0. -1.
         -4    1    6    6    0  503  0.23852917988E+03 -0.16611914986E+03  0.21740681175E+03  0.36298410901E+03  0.00000000000E+00 0.  1.
<mgrwt>
<rscale>  0 0.19518870E+04</rscale>
<asrwt>0</asrwt>
<pdfrwt beam="1">  1        1 0.29735158E+00 0.19518870E+04</pdfrwt>
<pdfrwt beam="2">  1       -1 0.75814523E-01 0.19518870E+04</pdfrwt>
<totfact> 0.53887139E+00</totfact>
</mgrwt>
</event>
<event>
12    3  0.4634846E-008  0.1861523E+04  0.7818608E-02  0.8674249E-01
         -1   -1    0    0    0  501 -0.00000000000E+00  0.00000000000E+00  0.53052636005E+03  0.53052636005E+03  0.00000000000E+00 0.  1.
          1   -1    0    0  501    0  0.00000000000E+00 -0.00000000000E+00 -0.16329392207E+04  0.16329392207E+04  0.00000000000E+00 0. -1.
         23    2    1    2    0    0 -0.22279361034E+03 -0.66038403401E+03 -0.35994611416E+03  0.78956553880E+03  0.90047042038E+02 0.  0.
        254    2    1    2    0    0  0.22279361034E+03  0.66038403401E+03 -0.74246674649E+03  0.13739000419E+04  0.92227999567E+03 0.  0.
         23    2    4    4    0    0  0.45267008931E+03  0.72406573661E+03 -0.40120100552E+03  0.94771035627E+03  0.89505708592E+02 0.  0.
         23    2    4    4    0    0 -0.22987647897E+03 -0.63681702604E+02 -0.34126574096E+03  0.42618968566E+03  0.90976850782E+02 0.  0.
          4    1    3    3  502    0 -0.19967362288E+03 -0.58683583165E+03 -0.34991538647E+03  0.71181923736E+03  0.00000000000E+00 0. -1.
         -4    1    3    3    0  502 -0.23119987452E+02 -0.73548202353E+02 -0.10030727691E+02  0.77746301438E+02  0.00000000000E+00 0.  1.
         13    1    5    5    0    0  0.33486922057E+01  0.23317504694E+02 -0.24584032569E+02  0.34048412914E+02  0.00000000000E+00 0. -1.
        -13    1    5    5    0    0  0.44932139710E+03  0.70074823192E+03 -0.37661697295E+03  0.91366194336E+03  0.00000000000E+00 0.  1.
          1    1    6    6  503    0 -0.11304784334E+03  0.68100148892E+01 -0.19965063088E+03  0.22953554321E+03  0.00000000000E+00 0. -1.
         -1    1    6    6    0  503 -0.11682863563E+03 -0.70491717494E+02 -0.14161511008E+03  0.19665414245E+03  0.00000000000E+00 0.  1.
<mgrwt>
<rscale>  0 0.18615234E+04</rscale>
<asrwt>0</asrwt>
<pdfrwt beam="1">  1        1 0.25122141E+00 0.18615234E+04</pdfrwt>
<pdfrwt beam="2">  1       -1 0.81619442E-01 0.18615234E+04</pdfrwt>
<totfact> 0.74300354E+00</totfact>
</mgrwt>
</event>
<event>
12    3  0.4634846E-008  0.1256313E+04  0.7818608E-02  0.9064945E-01
         -1   -1    0    0    0  501 -0.00000000000E+00  0.00000000000E+00  0.18551947288E+03  0.18551947288E+03  0.00000000000E+00 0.  1.
          1   -1    0    0  501    0  0.00000000000E+00 -0.00000000000E+00 -0.21268963578E+04  0.21268963578E+04  0.00000000000E+00 0. -1.
         23    2    1    2    0    0 -0.17079723175E+03  0.23841613431E+03 -0.55287341643E+03  0.63240364398E+03  0.90837254779E+02 0.  0.
        254    2    1    2    0    0  0.17079723175E+03 -0.23841613431E+03 -0.13885034685E+04  0.16800121867E+04  0.89915800499E+03 0.  0.
         23    2    4    4    0    0  0.37264502050E+03  0.18349250821E+03 -0.40586883483E+03  0.58802770105E+03  0.92267297769E+02 0.  0.
         23    2    4    4    0    0 -0.20184778875E+03 -0.42190864253E+03 -0.98263463364E+03  0.10919844856E+04  0.90054767561E+02 0.  0.
          4    1    3    3  502    0 -0.72072462241E+01  0.66547190212E+02 -0.16000049222E+03  0.17343768458E+03  0.00000000000E+00 0.  1.
         -4    1    3    3    0  502 -0.16358998553E+03  0.17186894410E+03 -0.39287292421E+03  0.45896595940E+03  0.00000000000E+00 0. -1.
         13    1    5    5    0    0  0.35342075598E+03  0.18794619175E+03 -0.40312944533E+03  0.56810505318E+03  0.00000000000E+00 0. -1.
        -13    1    5    5    0    0  0.19224264519E+02 -0.44536835372E+01 -0.27393895003E+01  0.19922647871E+02  0.00000000000E+00 0.  1.
          1    1    6    6  503    0 -0.18276552239E+03 -0.31677465458E+03 -0.69902566107E+03  0.78891462959E+03  0.00000000000E+00 0. -1.
         -1    1    6    6    0  503 -0.19082266352E+02 -0.10513398795E+03 -0.28360897258E+03  0.30306985604E+03  0.00000000000E+00 0.  1.
<mgrwt>
<rscale>  0 0.12563132E+04</rscale>
<asrwt>0</asrwt>
<pdfrwt beam="1">  1        1 0.32721481E+00 0.12563132E+04</pdfrwt>
<pdfrwt beam="2">  1       -1 0.28541459E-01 0.12563132E+04</pdfrwt>
<totfact> 0.26878266E+01</totfact>
</mgrwt>
</event>
<event>
12    3  0.4634846E-008  0.1484805E+04  0.7818608E-02  0.8894621E-01
          2   -1    0    0  501    0  0.00000000000E+00  0.00000000000E+00  0.11702082188E+04  0.11702082188E+04  0.00000000000E+00 0. -1.
         -2   -1    0    0    0  501 -0.00000000000E+00 -0.00000000000E+00 -0.47099410557E+03  0.47099410557E+03  0.00000000000E+00 0.  1.
         23    2    1    2    0    0 -0.24072303025E+03  0.13203551453E+03  0.64068893121E+03  0.70269429918E+03  0.88972001931E+02 0.  0.
        254    2    1    2    0    0  0.24072303025E+03 -0.13203551453E+03  0.58525182028E+02  0.93850802520E+03  0.89553959267E+03 0.  0.
         23    2    4    4    0    0 -0.28958931365E+03 -0.24081714906E+03  0.18486838274E+02  0.38813919090E+03  0.91953240652E+02 0.  0.
         23    2    4    4    0    0  0.53031234390E+03  0.10878163453E+03  0.40038343754E+02  0.55036883430E+03  0.90764302973E+02 0.  0.
          3    1    3    3  502    0 -0.22401581721E+03  0.12185968632E+03  0.50638554943E+03  0.56697371560E+03  0.00000000000E+00 0. -1.
         -3    1    3    3    0  502 -0.16707213033E+02  0.10175828204E+02  0.13430338179E+03  0.13572058358E+03  0.00000000000E+00 0.  1.
         13    1    5    5    0    0 -0.12863231765E+03 -0.54261599350E+02 -0.10721257112E+02  0.14001978311E+03  0.00000000000E+00 0.  1.
        -13    1    5    5    0    0 -0.16095699599E+03 -0.18655554971E+03  0.29208095386E+02  0.24811940779E+03  0.00000000000E+00 0. -1.
          4    1    6    6  503    0  0.47313731956E+03  0.11953416116E+03  0.52665236002E+02  0.49083700546E+03  0.00000000000E+00 0. -1.
         -4    1    6    6    0  503  0.57175024336E+02 -0.10752526632E+02 -0.12626892248E+02  0.59531828836E+02  0.00000000000E+00 0.  1.
<mgrwt>
<rscale>  0 0.14848046E+04</rscale>
<asrwt>0</asrwt>
<pdfrwt beam="1">  1        2 0.18003203E+00 0.14848046E+04</pdfrwt>
<pdfrwt beam="2">  1       -2 0.72460632E-01 0.14848046E+04</pdfrwt>
<totfact> 0.32903851E+01</totfact>
</mgrwt>
</event>
<event>
12    3  0.4634846E-008  0.1957719E+04  0.7818608E-02  0.8626647E-01
          3   -1    0    0  501    0  0.00000000000E+00  0.00000000000E+00  0.38398582369E+03  0.38398582369E+03  0.00000000000E+00 0. -1.
         -3   -1    0    0    0  501 -0.00000000000E+00 -0.00000000000E+00 -0.24953163887E+04  0.24953163887E+04  0.00000000000E+00 0.  1.
         23    2    1    2    0    0 -0.54135326182E+03  0.50927734654E+03 -0.55682489457E+03  0.93317692248E+03  0.91315035205E+02 0.  0.
        254    2    1    2    0    0  0.54135326182E+03 -0.50927734654E+03 -0.15545056705E+04  0.19461252899E+04  0.90470381611E+03 0.  0.
         23    2    4    4    0    0  0.38484512770E+03 -0.68926726023E+03 -0.71823052395E+03  0.10716846735E+04  0.97251352138E+02 0.  0.
         23    2    4    4    0    0  0.15650813412E+03  0.17998991370E+03 -0.83627514651E+03  0.87444061647E+03  0.91646636459E+02 0.  0.
          4    1    3    3  502    0 -0.38727775912E+03  0.37270751868E+03 -0.35035630587E+03  0.64159527605E+03  0.00000000000E+00 0. -1.
         -4    1    3    3    0  502 -0.15407550270E+03  0.13656982786E+03 -0.20646858870E+03  0.29158164643E+03  0.00000000000E+00 0.  1.
         13    1    5    5    0    0  0.30647894883E+03 -0.46157291329E+03 -0.48238493152E+03  0.73462515783E+03  0.00000000000E+00 0.  1.
        -13    1    5    5    0    0  0.78366178866E+02 -0.22769434694E+03 -0.23584559243E+03  0.33705951565E+03  0.00000000000E+00 0. -1.
          3    1    6    6  503    0  0.74710975757E+02  0.36694326182E+02 -0.18994360644E+03  0.20738075393E+03  0.00000000000E+00 0. -1.
         -3    1    6    6    0  503  0.81797158364E+02  0.14329558751E+03 -0.64633154007E+03  0.66705986254E+03  0.00000000000E+00 0.  1.
<mgrwt>
<rscale>  0 0.19577192E+04</rscale>
<asrwt>0</asrwt>
<pdfrwt beam="1">  1        3 0.59074742E-01 0.19577192E+04</pdfrwt>
<pdfrwt beam="2">  1       -3 0.38389483E+00 0.19577192E+04</pdfrwt>
<totfact> 0.89082496E-02</totfact>
</mgrwt>
</event>
<event>
12    3  0.4634846E-008  0.1820996E+04  0.7818608E-02  0.8695213E-01
         -1   -1    0    0    0  501 -0.00000000000E+00  0.00000000000E+00  0.44882825457E+03  0.44882825457E+03  0.00000000000E+00 0.  1.
          1   -1    0    0  501    0  0.00000000000E+00 -0.00000000000E+00 -0.18470454068E+04  0.18470454068E+04  0.00000000000E+00 0. -1.
         23    2    1    2    0    0 -0.47200487360E+03  0.27800349127E+02 -0.10661403808E+04  0.11699465274E+04  0.92510027831E+02 0.  0.
        254    2    1    2    0    0  0.47200487360E+03 -0.27800349127E+02 -0.33207677141E+03  0.11259271340E+04  0.96637232409E+03 0.  0.
         23    2    4    4    0    0  0.77401338017E+02 -0.39015825268E+03 -0.40826651595E+03  0.57661287783E+03  0.87100135294E+02 0.  0.
         23    2    4    4    0    0  0.39460353559E+03  0.36235790355E+03  0.76189744543E+02  0.54931425614E+03  0.94477903548E+02 0.  0.
          4    1    3    3  502    0 -0.43386486779E+03 -0.67335457512E+00 -0.97302742982E+03  0.10653739044E+04  0.00000000000E+00 0. -1.
         -4    1    3    3    0  502 -0.38140005816E+02  0.28473703702E+02 -0.93112950964E+02  0.10457262301E+03  0.00000000000E+00 0.  1.
         13    1    5    5    0    0  0.46655608152E+02 -0.32752822507E+03 -0.29327469051E+03  0.44211031213E+03  0.00000000000E+00 0.  1.
        -13    1    5    5    0    0  0.30745729865E+02 -0.62630027606E+02 -0.11499182544E+03  0.13450256570E+03  0.00000000000E+00 0. -1.
          1    1    6    6  503    0  0.11206974726E+02  0.44776389370E+02  0.61748608144E+01  0.46568768865E+02  0.00000000000E+00 0. -1.
         -1    1    6    6    0  503  0.38339656086E+03  0.31758151418E+03  0.70014883729E+02  0.50274548727E+03  0.00000000000E+00 0.  1.
<mgrwt>
<rscale>  0 0.18209955E+04</rscale>
<asrwt>0</asrwt>
<pdfrwt beam="1">  1        1 0.28416083E+00 0.18209955E+04</pdfrwt>
<pdfrwt beam="2">  1       -1 0.69050500E-01 0.18209955E+04</pdfrwt>
<totfact> 0.75644764E+00</totfact>
</mgrwt>
</event>
<event>
12    3  0.4634846E-008  0.1810494E+04  0.7818608E-02  0.8700739E-01
          2   -1    0    0  501    0  0.00000000000E+00  0.00000000000E+00  0.96794637588E+03  0.96794637588E+03  0.00000000000E+00 0. -1.
         -2   -1    0    0    0  501 -0.00000000000E+00 -0.00000000000E+00 -0.84660899077E+03  0.84660899077E+03  0.00000000000E+00 0.  1.
         23    2    1    2    0    0 -0.43894309474E+03  0.60002180102E+02  0.55431643491E+03  0.71518700617E+03  0.89187677154E+02 0.  0.
        254    2    1    2    0    0  0.43894309474E+03 -0.60002180102E+02 -0.43297904980E+03  0.10993683605E+04  0.90822278788E+03 0.  0.
         23    2    4    4    0    0 -0.23492669370E+03 -0.16409495160E+03 -0.23981888157E+03  0.38448424999E+03  0.90539151665E+02 0.  0.
         23    2    4    4    0    0  0.67386978844E+03  0.10409277150E+03 -0.19316016823E+03  0.71488411049E+03  0.93875683681E+02 0.  0.
          1    1    3    3  502    0 -0.23923111717E+03  0.65580972874E+02  0.35408320157E+03  0.43232777502E+03  0.00000000000E+00 0. -1.
         -1    1    3    3    0  502 -0.19971197756E+03 -0.55787927716E+01  0.20023323334E+03  0.28285923115E+03  0.00000000000E+00 0.  1.
         13    1    5    5    0    0 -0.47434621009E+02 -0.51171099048E+02 -0.16308681552E+02  0.71655409719E+02  0.00000000000E+00 0. -1.
        -13    1    5    5    0    0 -0.18749207269E+03 -0.11292385255E+03 -0.22351020001E+03  0.31282884028E+03  0.00000000000E+00 0.  1.
          4    1    6    6  503    0  0.90561769746E+02  0.47307448149E+02 -0.31894266584E+02  0.10703584928E+03  0.00000000000E+00 0. -1.
         -4    1    6    6    0  503  0.58330801869E+03  0.56785323346E+02 -0.16126590165E+03  0.60784826121E+03  0.00000000000E+00 0.  1.
<mgrwt>
<rscale>  0 0.18104940E+04</rscale>
<asrwt>0</asrwt>
<pdfrwt beam="1">  1        2 0.14891483E+00 0.18104940E+04</pdfrwt>
<pdfrwt beam="2">  1       -2 0.13024754E+00 0.18104940E+04</pdfrwt>
<totfact> 0.10772459E+01</totfact>
</mgrwt>
</event>
<event>
12    3  0.4634846E-008  0.1191032E+04  0.7818608E-02  0.9120742E-01
          2   -1    0    0  501    0  0.00000000000E+00  0.00000000000E+00  0.25193794129E+04  0.25193794129E+04  0.00000000000E+00 0. -1.
         -2   -1    0    0    0  501 -0.00000000000E+00 -0.00000000000E+00 -0.14076465161E+03  0.14076465161E+03  0.00000000000E+00 0.  1.
         23    2    1    2    0    0  0.13129021414E+03 -0.18703998138E+03  0.40429791336E+03  0.47334815269E+03  0.91545594909E+02 0.  0.
        254    2    1    2    0    0 -0.13129021414E+03  0.18703998138E+03  0.19743168479E+04  0.21867959118E+04  0.91210101907E+03 0.  0.
         23    2    4    4    0    0  0.24846822695E+03  0.86852416745E+02  0.16405109706E+04  0.16639018245E+04  0.89516673246E+02 0.  0.
         23    2    4    4    0    0 -0.37975844109E+03  0.10018756464E+03  0.33380587736E+03  0.52289408736E+03  0.87964999585E+02 0.  0.
          3    1    3    3  502    0  0.11359280495E+03 -0.19016978822E+03  0.33392479167E+03  0.40071640867E+03  0.00000000000E+00 0. -1.
         -3    1    3    3    0  502  0.17697409196E+02  0.31298068410E+01  0.70373121693E+02  0.72631744024E+02  0.00000000000E+00 0.  1.
         13    1    5    5    0    0  0.18517717476E+03  0.31493674788E+02  0.12803793977E+04  0.12940841702E+04  0.00000000000E+00 0. -1.
        -13    1    5    5    0    0  0.63291052188E+02  0.55358741958E+02  0.36013157286E+03  0.36981765421E+03  0.00000000000E+00 0.  1.
          2    1    6    6  503    0 -0.36936154635E+03  0.10514156396E+03  0.30042922624E+03  0.48758632095E+03  0.00000000000E+00 0. -1.
         -2    1    6    6    0  503 -0.10396894742E+02 -0.49539993224E+01  0.33376651118E+02  0.35307766418E+02  0.00000000000E+00 0.  1.
<mgrwt>
<rscale>  0 0.11910324E+04</rscale>
<asrwt>0</asrwt>
<pdfrwt beam="1">  1        2 0.38759680E+00 0.11910324E+04</pdfrwt>
<pdfrwt beam="2">  1       -2 0.21656102E-01 0.11910324E+04</pdfrwt>
<totfact> 0.62616352E+01</totfact>
</mgrwt>
</event>
<event>
12    3  0.4634846E-008  0.3003530E+04  0.7818608E-02  0.8242724E-01
         -1   -1    0    0    0  501 -0.00000000000E+00  0.00000000000E+00  0.21250227524E+04  0.21250227524E+04  0.00000000000E+00 0.  1.
          1   -1    0    0  501    0  0.00000000000E+00 -0.00000000000E+00 -0.10613053165E+04  0.10613053165E+04  0.00000000000E+00 0. -1.
         23    2    1    2    0    0 -0.88766865885E+00 -0.24652804499E+03 -0.93918717057E+03  0.97540204403E+03  0.92518869535E+02 0.  0.
        254    2    1    2    0    0  0.88766865885E+00  0.24652804499E+03  0.20029046064E+04  0.22109260249E+04  0.90321102751E+03 0.  0.
         23    2    4    4    0    0 -0.38008393761E+03 -0.38097386997E+02  0.12970194800E+04  0.13549276349E+04  0.87488021862E+02 0.  0.
         23    2    4    4    0    0  0.38097160626E+03  0.28462543199E+03  0.70588512646E+03  0.85599838997E+03  0.91150592761E+02 0.  0.
          2    1    3    3  502    0  0.18916248678E+02 -0.24145298905E+03 -0.88294296599E+03  0.91555756323E+03  0.00000000000E+00 0. -1.
         -2    1    3    3    0  502 -0.19803917337E+02 -0.50750559444E+01 -0.56244204576E+02  0.59844480807E+02  0.00000000000E+00 0.  1.
         13    1    5    5    0    0 -0.24689986286E+03 -0.33408316017E+02  0.69429082406E+03  0.73764178720E+03  0.00000000000E+00 0. -1.
        -13    1    5    5    0    0 -0.13318407475E+03 -0.46890709800E+01  0.60272865589E+03  0.61728584771E+03  0.00000000000E+00 0.  1.
          4    1    6    6  503    0  0.11206571252E+03  0.91659272705E+02  0.29310419427E+03  0.32691010216E+03  0.00000000000E+00 0.  1.
         -4    1    6    6    0  503  0.26890589375E+03  0.19296615928E+03  0.41278093219E+03  0.52908828782E+03  0.00000000000E+00 0. -1.
<mgrwt>
<rscale>  0 0.30035299E+04</rscale>
<asrwt>0</asrwt>
<pdfrwt beam="1">  1        1 0.16327774E+00 0.30035299E+04</pdfrwt>
<pdfrwt beam="2">  1       -1 0.32692658E+00 0.30035299E+04</pdfrwt>
<totfact> 0.25446162E-01</totfact>
</mgrwt>
</event>
<event>
12    3  0.4634846E-008  0.1275205E+04  0.7818608E-02  0.9049462E-01
         -2   -1    0    0    0  501 -0.00000000000E+00  0.00000000000E+00  0.58295911026E+03  0.58295911026E+03  0.00000000000E+00 0.  1.
          2   -1    0    0  501    0  0.00000000000E+00 -0.00000000000E+00 -0.69736833581E+03  0.69736833581E+03  0.00000000000E+00 0. -1.
         23    2    1    2    0    0  0.12545171819E+03  0.24309886448E+03  0.15481915257E+03  0.32631324345E+03  0.87613762300E+02 0.  0.
        254    2    1    2    0    0 -0.12545171819E+03 -0.24309886448E+03 -0.26922837812E+03  0.95401420262E+03  0.87339795494E+03 0.  0.
         23    2    4    4    0    0 -0.19441766643E+02  0.13360404504E+03 -0.47371025610E+03  0.50329238052E+03  0.10331403785E+03 0.  0.
         23    2    4    4    0    0 -0.10600995155E+03 -0.37670290952E+03  0.20448187798E+03  0.45072182209E+03  0.90521437378E+02 0.  0.
          1    1    3    3  502    0  0.30373610644E+02  0.68600756561E+01  0.71774904811E+01  0.31955175342E+02  0.00000000000E+00 0. -1.
         -1    1    3    3    0  502  0.95078107545E+02  0.23623878882E+03  0.14764166208E+03  0.29435806811E+03  0.00000000000E+00 0.  1.
         13    1    5    5    0    0 -0.34495269478E+02  0.14546130302E+03 -0.43730029676E+03  0.46214766454E+03  0.00000000000E+00 0.  1.
        -13    1    5    5    0    0  0.15053502835E+02 -0.11857257978E+02 -0.36409959340E+02  0.41144715985E+02  0.00000000000E+00 0. -1.
          3    1    6    6  503    0 -0.96832360590E+02 -0.18394543387E+03  0.91675085584E+02  0.22719319975E+03  0.00000000000E+00 0. -1.
         -3    1    6    6    0  503 -0.91775909562E+01 -0.19275747565E+03  0.11280679239E+03  0.22352862234E+03  0.00000000000E+00 0.  1.
<mgrwt>
<rscale>  0 0.12752054E+04</rscale>
<asrwt>0</asrwt>
<pdfrwt beam="1">  1        2 0.10728744E+00 0.12752054E+04</pdfrwt>
<pdfrwt beam="2">  1       -2 0.89686017E-01 0.12752054E+04</pdfrwt>
<totfact> 0.43080883E+01</totfact>
</mgrwt>
</event>
<event>
12    3  0.4634846E-008  0.1720433E+04  0.7818608E-02  0.8749795E-01
          2   -1    0    0  501    0  0.00000000000E+00  0.00000000000E+00  0.14415349961E+04  0.14415349961E+04  0.00000000000E+00 0.  1.
         -2   -1    0    0    0  501 -0.00000000000E+00 -0.00000000000E+00 -0.51332281575E+03  0.51332281575E+03  0.00000000000E+00 0. -1.
         23    2    1    2    0    0  0.56526319381E+03 -0.40512967329E+02 -0.82114850504E+02  0.57981285501E+03  0.90974278537E+02 0.  0.
        254    2    1    2    0    0 -0.56526319381E+03  0.40512967329E+02  0.10103270308E+04  0.13750449568E+04  0.74082666342E+03 0.  0.
         23    2    4    4    0    0 -0.27656577911E+03 -0.27077247736E+03  0.17533517763E+03  0.43397561396E+03  0.88238564853E+02 0.  0.
         23    2    4    4    0    0 -0.28869741470E+03  0.31128544469E+03  0.83499185318E+03  0.94106934284E+03  0.90306632215E+02 0.  0.
          3    1    3    3  502    0  0.23087336386E+03 -0.60193220978E+02 -0.44956848331E+02  0.24278972837E+03  0.00000000000E+00 0. -1.
         -3    1    3    3    0  502  0.33438982996E+03  0.19680253649E+02 -0.37158002173E+02  0.33702312664E+03  0.00000000000E+00 0.  1.
         13    1    5    5    0    0 -0.73367177503E+01 -0.28487037950E+02 -0.42153640069E+01  0.29717133984E+02  0.00000000000E+00 0. -1.
        -13    1    5    5    0    0 -0.26922906136E+03 -0.24228543941E+03  0.17955054164E+03  0.40425847998E+03  0.00000000000E+00 0.  1.
          1    1    6    6  503    0 -0.17925601405E+02  0.35811562951E+01  0.79281382512E+02  0.81361474170E+02  0.00000000000E+00 0. -1.
         -1    1    6    6    0  503 -0.27077181330E+03  0.30770428840E+03  0.75571047067E+03  0.85970786867E+03  0.00000000000E+00 0.  1.
<mgrwt>
<rscale>  0 0.17204334E+04</rscale>
<asrwt>0</asrwt>
<pdfrwt beam="1">  1        2 0.22177461E+00 0.17204334E+04</pdfrwt>
<pdfrwt beam="2">  1       -2 0.78972741E-01 0.17204334E+04</pdfrwt>
<totfact> 0.18523330E+01</totfact>
</mgrwt>
</event>
<event>
12    3  0.4634846E-008  0.1246371E+04  0.7818608E-02  0.9073209E-01
          2   -1    0    0  501    0  0.00000000000E+00  0.00000000000E+00  0.34805736883E+03  0.34805736883E+03  0.00000000000E+00 0. -1.
         -2   -1    0    0    0  501 -0.00000000000E+00 -0.00000000000E+00 -0.11157937886E+04  0.11157937886E+04  0.00000000000E+00 0.  1.
         23    2    1    2    0    0  0.21333757223E+03 -0.19153522944E+03 -0.19798227218E+03  0.36361421570E+03  0.10401756544E+03 0.  0.
        254    2    1    2    0    0 -0.21333757223E+03  0.19153522944E+03 -0.56975414758E+03  0.11002369417E+04  0.89649477154E+03 0.  0.
         23    2    4    4    0    0  0.11767780306E+03 -0.17728772895E+03  0.10996698356E+03  0.25409140169E+03  0.84797988031E+02 0.  0.
         23    2    4    4    0    0 -0.33101537529E+03  0.36882295839E+03 -0.67972113114E+03  0.84614554002E+03  0.91323082930E+02 0.  0.
          3    1    3    3  502    0  0.20371750763E+03 -0.19055103931E+03 -0.20929375014E+03  0.34873255562E+03  0.00000000000E+00 0. -1.
         -3    1    3    3    0  502  0.96200646028E+01 -0.98419013530E+00  0.11311477966E+02  0.14881660088E+02  0.00000000000E+00 0.  1.
         13    1    5    5    0    0  0.82862769738E+02 -0.97619139447E+02  0.21109932133E+02  0.12977428185E+03  0.00000000000E+00 0.  1.
        -13    1    5    5    0    0  0.34815033318E+02 -0.79668589499E+02  0.88857051428E+02  0.12431711984E+03  0.00000000000E+00 0. -1.
          1    1    6    6  503    0 -0.21073896045E+03  0.18954164008E+03 -0.44151400929E+03  0.52466328552E+03  0.00000000000E+00 0. -1.
         -1    1    6    6    0  503 -0.12027641484E+03  0.17928131831E+03 -0.23820712185E+03  0.32148225450E+03  0.00000000000E+00 0.  1.
<mgrwt>
<rscale>  0 0.12463711E+04</rscale>
<asrwt>0</asrwt>
<pdfrwt beam="1">  1        2 0.53547287E-01 0.12463711E+04</pdfrwt>
<pdfrwt beam="2">  1       -2 0.17166059E+00 0.12463711E+04</pdfrwt>
<totfact> 0.18951497E+01</totfact>
</mgrwt>
</event>
<event>
12    3  0.4634846E-008  0.2154470E+04  0.7818608E-02  0.8537621E-01
         -1   -1    0    0    0  501 -0.00000000000E+00  0.00000000000E+00  0.72113321650E+03  0.72113321650E+03  0.00000000000E+00 0.  1.
          1   -1    0    0  501    0  0.00000000000E+00 -0.00000000000E+00 -0.16091832256E+04  0.16091832256E+04  0.00000000000E+00 0. -1.
         23    2    1    2    0    0 -0.17534970565E+03  0.27146639044E+03  0.52468306069E+03  0.62292286849E+03  0.91099206900E+02 0.  0.
        254    2    1    2    0    0  0.17534970565E+03 -0.27146639044E+03 -0.14127330698E+04  0.17073935736E+04  0.90273837200E+03 0.  0.
         23    2    4    4    0    0 -0.18324475802E+03 -0.18710426311E+03 -0.12732600343E+04  0.13029704337E+04  0.89186264218E+02 0.  0.
         23    2    4    4    0    0  0.35859446367E+03 -0.84362127328E+02 -0.13947303551E+03  0.40442313985E+03  0.91642732985E+02 0.  0.
          2    1    3    3  502    0 -0.73993187387E+01 -0.59195603501E+01  0.59914181049E+01  0.11211075035E+02  0.00000000000E+00 0. -1.
         -2    1    3    3    0  502 -0.16795038692E+03  0.27738595079E+03  0.51869164259E+03  0.61171179346E+03  0.00000000000E+00 0.  1.
         13    1    5    5    0    0  0.79192058726E+01  0.12135877111E+01 -0.48623607618E+02  0.49279223153E+02  0.00000000000E+00 0. -1.
        -13    1    5    5    0    0 -0.19116396389E+03 -0.18831785082E+03 -0.12246364267E+04  0.12536912106E+04  0.00000000000E+00 0.  1.
          4    1    6    6  503    0  0.10604101159E+03 -0.44130154029E+02 -0.37879600241E+01  0.11491960353E+03  0.00000000000E+00 0. -1.
         -4    1    6    6    0  503  0.25255345208E+03 -0.40231973299E+02 -0.13568507549E+03  0.28950353633E+03  0.00000000000E+00 0.  1.
<mgrwt>
<rscale>  0 0.21544702E+04</rscale>
<asrwt>0</asrwt>
<pdfrwt beam="1">  1        1 0.24756665E+00 0.21544702E+04</pdfrwt>
<pdfrwt beam="2">  1       -1 0.11094357E+00 0.21544702E+04</pdfrwt>
<totfact> 0.37646243E+00</totfact>
</mgrwt>
</event>
<event>
12    3  0.4634846E-008  0.2462323E+04  0.7818608E-02  0.8416532E-01
          2   -1    0    0  501    0  0.00000000000E+00  0.00000000000E+00  0.25817500693E+04  0.25817500693E+04  0.00000000000E+00 0.  1.
         -2   -1    0    0    0  501 -0.00000000000E+00 -0.00000000000E+00 -0.58710524739E+03  0.58710524739E+03  0.00000000000E+00 0. -1.
         23    2    1    2    0    0  0.40267489336E+03 -0.85159331200E+03  0.15175798137E+04  0.17884924129E+04  0.91095450291E+02 0.  0.
        254    2    1    2    0    0 -0.40267489336E+03  0.85159331200E+03  0.47706500815E+03  0.13803629038E+04  0.88907394819E+03 0.  0.
         23    2    4    4    0    0 -0.13195172988E+03  0.13412989640E+02 -0.20631547283E+03  0.26190128031E+03  0.91842468344E+02 0.  0.
         23    2    4    4    0    0 -0.27072316348E+03  0.83818032236E+03  0.68338048098E+03  0.11184616235E+04  0.90056856192E+02 0.  0.
          2    1    3    3  502    0  0.53995327234E+02 -0.11018962303E+03  0.26104141575E+03  0.28844387517E+03  0.00000000000E+00 0. -1.
         -2    1    3    3    0  502  0.34867956612E+03 -0.74140368897E+03  0.12565383980E+04  0.15000485377E+04  0.00000000000E+00 0.  1.
         13    1    5    5    0    0 -0.54047057929E+02 -0.77384213465E+01 -0.18793855306E+02  0.57742329646E+02  0.00000000000E+00 0. -1.
        -13    1    5    5    0    0 -0.77904671946E+02  0.21151410986E+02 -0.18752161753E+03  0.20415895067E+03  0.00000000000E+00 0.  1.
          3    1    6    6  503    0 -0.59084132600E+02  0.19853030893E+03  0.21049384771E+03  0.29531826596E+03  0.00000000000E+00 0. -1.
         -3    1    6    6    0  503 -0.21163903088E+03  0.63965001343E+03  0.47288663327E+03  0.82314335751E+03  0.00000000000E+00 0.  1.
<mgrwt>
<rscale>  0 0.24623233E+04</rscale>
<asrwt>0</asrwt>
<pdfrwt beam="1">  1        2 0.39719231E+00 0.24623233E+04</pdfrwt>
<pdfrwt beam="2">  1       -2 0.90323886E-01 0.24623233E+04</pdfrwt>
<totfact> 0.29243835E+00</totfact>
</mgrwt>
</event>
<event>
12    3  0.4634846E-008  0.1330838E+04  0.7818608E-02  0.9005462E-01
          1   -1    0    0  501    0  0.00000000000E+00  0.00000000000E+00  0.10419480437E+04  0.10419480437E+04  0.00000000000E+00 0. -1.
         -1   -1    0    0    0  501 -0.00000000000E+00 -0.00000000000E+00 -0.42495634833E+03  0.42495634833E+03  0.00000000000E+00 0.  1.
         23    2    1    2    0    0  0.33625496080E+03  0.10590346694E+03  0.21904014292E+03  0.42493355496E+03  0.91142739371E+02 0.  0.
        254    2    1    2    0    0 -0.33625496080E+03 -0.10590346694E+03  0.39795155247E+03  0.10419708371E+04  0.89613327372E+03 0.  0.
         23    2    4    4    0    0 -0.52778112522E+02  0.30126568802E+03 -0.99249014420E+02  0.33398063081E+03  0.90256030015E+02 0.  0.
         23    2    4    4    0    0 -0.28347684828E+03 -0.40716915496E+03  0.49720056689E+03  0.70799020628E+03  0.88858788011E+02 0.  0.
          4    1    3    3  502    0  0.25610434390E+03  0.92073949398E+02  0.20866315505E+03  0.34293929404E+03  0.00000000000E+00 0. -1.
         -4    1    3    3    0  502  0.80150616901E+02  0.13829517541E+02  0.10376987872E+02  0.81994260911E+02  0.00000000000E+00 0.  1.
         13    1    5    5    0    0 -0.50442778567E+02  0.66502043644E+02 -0.16752437280E+02  0.85133071560E+02  0.00000000000E+00 0.  1.
        -13    1    5    5    0    0 -0.23353339544E+01  0.23476364438E+03 -0.82496577140E+02  0.24884755925E+03  0.00000000000E+00 0. -1.
          1    1    6    6  503    0 -0.28473159690E+03 -0.40960327335E+03  0.49825407683E+03  0.70505606081E+03  0.00000000000E+00 0. -1.
         -1    1    6    6    0  503  0.12547486150E+01  0.24341183929E+01 -0.10535099354E+01  0.29341454670E+01  0.00000000000E+00 0.  1.
<mgrwt>
<rscale>  0 0.13308380E+04</rscale>
<asrwt>0</asrwt>
<pdfrwt beam="1">  1        1 0.16029970E+00 0.13308380E+04</pdfrwt>
<pdfrwt beam="2">  1       -1 0.65377900E-01 0.13308380E+04</pdfrwt>
<totfact> 0.32639526E+01</totfact>
</mgrwt>
</event>
<event>
12    3  0.4634846E-008  0.2704879E+04  0.7818608E-02  0.8333424E-01
         -1   -1    0    0    0  501 -0.00000000000E+00  0.00000000000E+00  0.12657182381E+04  0.12657182381E+04  0.00000000000E+00 0.  1.
          1   -1    0    0  501    0  0.00000000000E+00 -0.00000000000E+00 -0.14451029595E+04  0.14451029595E+04  0.00000000000E+00 0. -1.
         23    2    1    2    0    0 -0.59970076222E+03  0.82952496570E+03 -0.64641228671E+03  0.12162167813E+04  0.11654073030E+03 0.  0.
        254    2    1    2    0    0  0.59970076222E+03 -0.82952496570E+03  0.46702756526E+03  0.14946044163E+04  0.98385717539E+03 0.  0.
         23    2    4    4    0    0 -0.20652878845E+03 -0.39902955645E+03  0.33257811524E+03  0.56648148504E+03  0.91729726800E+02 0.  0.
         23    2    4    4    0    0  0.80622955066E+03 -0.43049540925E+03  0.13444945001E+03  0.92812293125E+03  0.89460243421E+02 0.  0.
          3    1    3    3  502    0 -0.39991932841E+03  0.60222919076E+03 -0.50729681251E+03  0.88315656790E+03  0.00000000000E+00 0. -1.
         -3    1    3    3    0  502 -0.19978143380E+03  0.22729577493E+03 -0.13911547420E+03  0.33306021341E+03  0.00000000000E+00 0.  1.
         13    1    5    5    0    0 -0.14916112646E+03 -0.19178672608E+03  0.19058717674E+03  0.30879550172E+03  0.00000000000E+00 0. -1.
        -13    1    5    5    0    0 -0.57367661990E+02 -0.20724283037E+03  0.14199093850E+03  0.25768598332E+03  0.00000000000E+00 0.  1.
          2    1    6    6  503    0  0.62184917521E+03 -0.29888694189E+03  0.75651612939E+02  0.69408426526E+03  0.00000000000E+00 0. -1.
         -2    1    6    6    0  503  0.18438037546E+03 -0.13160846736E+03  0.58797837076E+02  0.23403866599E+03  0.00000000000E+00 0.  1.
<mgrwt>
<rscale>  0 0.27048794E+04</rscale>
<asrwt>0</asrwt>
<pdfrwt beam="1">  1        1 0.22232353E+00 0.27048794E+04</pdfrwt>
<pdfrwt beam="2">  1       -1 0.19472588E+00 0.27048794E+04</pdfrwt>
<totfact> 0.10209156E+00</totfact>
</mgrwt>
</event>
<event>
12    3  0.4634846E-008  0.1577653E+04  0.7818608E-02  0.8834396E-01
          1   -1    0    0  501    0  0.00000000000E+00  0.00000000000E+00  0.16436379626E+04  0.16436379626E+04  0.00000000000E+00 0. -1.
         -1   -1    0    0    0  501 -0.00000000000E+00 -0.00000000000E+00 -0.37857905662E+03  0.37857905662E+03  0.00000000000E+00 0.  1.
         23    2    1    2    0    0 -0.54482377131E+03  0.87942556401E+01  0.41651750502E+03  0.69201380259E+03  0.92119434806E+02 0.  0.
        254    2    1    2    0    0  0.54482377131E+03 -0.87942556401E+01  0.84854140099E+03  0.13302032167E+04  0.86747207892E+03 0.  0.
         23    2    4    4    0    0  0.11676283114E+03 -0.24287657572E+03 -0.63079225720E+02  0.29214740266E+03  0.93533557596E+02 0.  0.
         23    2    4    4    0    0  0.42806094017E+03  0.23408232008E+03  0.91162062671E+03  0.10380558140E+04  0.92070651478E+02 0.  0.
          1    1    3    3  502    0 -0.24305211987E+03  0.36528687577E+02  0.22712460216E+03  0.33465543906E+03  0.00000000000E+00 0. -1.
         -1    1    3    3    0  502 -0.30177165144E+03 -0.27734431937E+02  0.18939290287E+03  0.35735836353E+03  0.00000000000E+00 0.  1.
         13    1    5    5    0    0  0.55339050100E+02 -0.20643577845E+03 -0.50811641360E+02  0.21968150580E+03  0.00000000000E+00 0.  1.
        -13    1    5    5    0    0  0.61423781039E+02 -0.36440797265E+02 -0.12267584360E+02  0.72465896865E+02  0.00000000000E+00 0. -1.
          2    1    6    6  503    0  0.64044349307E+02  0.55734288134E+02  0.10266952007E+03  0.13322544765E+03  0.00000000000E+00 0. -1.
         -2    1    6    6    0  503  0.36401659087E+03  0.17834803194E+03  0.80895110664E+03  0.90483036634E+03  0.00000000000E+00 0.  1.
<mgrwt>
<rscale>  0 0.15776526E+04</rscale>
<asrwt>0</asrwt>
<pdfrwt beam="1">  1        1 0.25286737E+00 0.15776526E+04</pdfrwt>
<pdfrwt beam="2">  1       -1 0.58242933E-01 0.15776526E+04</pdfrwt>
<totfact> 0.14954377E+01</totfact>
</mgrwt>
</event>
<event>
12    3  0.4634846E-008  0.2437397E+04  0.7818608E-02  0.8425634E-01
          4   -1    0    0  501    0  0.00000000000E+00  0.00000000000E+00  0.96452233805E+03  0.96452233805E+03  0.00000000000E+00 0.  1.
         -4   -1    0    0    0  501 -0.00000000000E+00 -0.00000000000E+00 -0.15398564758E+04  0.15398564758E+04  0.00000000000E+00 0. -1.
         23    2    1    2    0    0  0.84774160637E+03 -0.19678039491E+03 -0.85697498195E+03  0.12247225406E+04  0.90281929727E+02 0.  0.
        254    2    1    2    0    0 -0.84774160637E+03  0.19678039491E+03  0.28164084417E+03  0.12796562733E+04  0.89488002415E+03 0.  0.
         23    2    4    4    0    0 -0.32352310582E+03  0.85463559299E+02  0.56786464725E+03  0.66538175453E+03  0.91057134210E+02 0.  0.
         23    2    4    4    0    0 -0.52421850054E+03  0.11131683561E+03 -0.28622380309E+03  0.61427451873E+03  0.90623643215E+02 0.  0.
          3    1    3    3  502    0  0.54357367646E+02 -0.15573853842E+02 -0.90962124323E+02  0.10710451159E+03  0.00000000000E+00 0. -1.
         -3    1    3    3    0  502  0.79338423872E+03 -0.18120654107E+03 -0.76601285763E+03  0.11176180290E+04  0.00000000000E+00 0.  1.
         13    1    5    5    0    0 -0.30400686023E+03  0.54602339966E+02  0.48751386751E+03  0.57712334696E+03  0.00000000000E+00 0.  1.
        -13    1    5    5    0    0 -0.19516245598E+02  0.30861219333E+02  0.80350779745E+02  0.88258407569E+02  0.00000000000E+00 0. -1.
          4    1    6    6  503    0 -0.26859752266E+03  0.37060681183E+02 -0.98199329965E+02  0.28837689171E+03  0.00000000000E+00 0. -1.
         -4    1    6    6    0  503 -0.25562097788E+03  0.74256154431E+02 -0.18802447312E+03  0.32589762702E+03  0.00000000000E+00 0.  1.
<mgrwt>
<rscale>  0 0.24373969E+04</rscale>
<asrwt>0</asrwt>
<pdfrwt beam="1">  1        4 0.14838805E+00 0.24373969E+04</pdfrwt>
<pdfrwt beam="2">  1       -4 0.23690099E+00 0.24373969E+04</pdfrwt>
<totfact> 0.41818621E-02</totfact>
</mgrwt>
</event>
<event>
12    3  0.4634846E-008  0.2265163E+04  0.7818608E-02  0.8491785E-01
          2   -1    0    0  501    0  0.00000000000E+00  0.00000000000E+00  0.15006863538E+04  0.15006863538E+04  0.00000000000E+00 0. -1.
         -2   -1    0    0    0  501 -0.00000000000E+00 -0.00000000000E+00 -0.85476944302E+03  0.85476944302E+03  0.00000000000E+00 0.  1.
         23    2    1    2    0    0 -0.59986990234E+03  0.46242132603E+02 -0.49681506775E+03  0.78551277302E+03  0.90680044540E+02 0.  0.
        254    2    1    2    0    0  0.59986990234E+03 -0.46242132603E+02  0.11427319786E+04  0.15699430238E+04  0.89269395019E+03 0.  0.
         23    2    4    4    0    0  0.36094939375E+03  0.40825124960E+03  0.64240249606E+03  0.84724685171E+03  0.90513607494E+02 0.  0.
         23    2    4    4    0    0  0.23892050859E+03 -0.45449338221E+03  0.50032948251E+03  0.72269617213E+03  0.91175228244E+02 0.  0.
          2    1    3    3  502    0 -0.43232788070E+03  0.73801111605E+02 -0.36345919780E+03  0.56961091016E+03  0.00000000000E+00 0.  1.
         -2    1    3    3    0  502 -0.16754202164E+03 -0.27558979002E+02 -0.13335586995E+03  0.21590186286E+03  0.00000000000E+00 0. -1.
         13    1    5    5    0    0  0.29544511361E+02  0.74680289208E+02  0.70541790624E+02  0.10689325504E+03  0.00000000000E+00 0.  1.
        -13    1    5    5    0    0  0.33140488239E+03  0.33357096040E+03  0.57186070543E+03  0.74035359667E+03  0.00000000000E+00 0. -1.
          2    1    6    6  503    0  0.23180765127E+03 -0.44870828143E+03  0.46609170833E+03  0.68725205681E+03  0.00000000000E+00 0. -1.
         -2    1    6    6    0  503  0.71128573253E+01 -0.57851007785E+01  0.34237774179E+02  0.35444115323E+02  0.00000000000E+00 0.  1.
<mgrwt>
<rscale>  0 0.22651630E+04</rscale>
<asrwt>0</asrwt>
<pdfrwt beam="1">  1        2 0.23087482E+00 0.22651630E+04</pdfrwt>
<pdfrwt beam="2">  1       -2 0.13150299E+00 0.22651630E+04</pdfrwt>
<totfact> 0.48647168E+00</totfact>
</mgrwt>
</event>
<event>
12    3  0.4634846E-008  0.1354915E+04  0.7818608E-02  0.8987116E-01
          1   -1    0    0  501    0  0.00000000000E+00  0.00000000000E+00  0.70698726965E+03  0.70698726965E+03  0.00000000000E+00 0. -1.
         -1   -1    0    0    0  501 -0.00000000000E+00 -0.00000000000E+00 -0.64916085825E+03  0.64916085825E+03  0.00000000000E+00 0.  1.
         23    2    1    2    0    0 -0.57387697971E+02  0.19491358315E+03  0.32963342199E+03  0.39504968320E+03  0.78239418000E+02 0.  0.
        254    2    1    2    0    0  0.57387697971E+02 -0.19491358315E+03 -0.27180701059E+03  0.96109844470E+03  0.89919214666E+03 0.  0.
         23    2    4    4    0    0 -0.31138881447E+03 -0.34291404316E+03 -0.24384025764E+01  0.47186638474E+03  0.89993913513E+02 0.  0.
         23    2    4    4    0    0  0.36877651244E+03  0.14800046000E+03 -0.26936860802E+03  0.48923205996E+03  0.94277829951E+02 0.  0.
          3    1    3    3  502    0 -0.68522391265E+02  0.19201142181E+03  0.29530123325E+03  0.35884052526E+03  0.00000000000E+00 0. -1.
         -3    1    3    3    0  502  0.11134693294E+02  0.29021613444E+01  0.34332188737E+02  0.36209157940E+02  0.00000000000E+00 0.  1.
         13    1    5    5    0    0 -0.49632834572E+02 -0.97109031790E+02  0.24515325531E+02  0.11177917296E+03  0.00000000000E+00 0. -1.
        -13    1    5    5    0    0 -0.26175597989E+03 -0.24580501137E+03 -0.26953728108E+02  0.36008721177E+03  0.00000000000E+00 0.  1.
          2    1    6    6  503    0  0.14759603987E+03  0.10265530092E+03 -0.91048364273E+02  0.20152544859E+03  0.00000000000E+00 0. -1.
         -2    1    6    6    0  503  0.22118047257E+03  0.45345159085E+02 -0.17832024374E+03  0.28770661137E+03  0.00000000000E+00 0.  1.
<mgrwt>
<rscale>  0 0.13549147E+04</rscale>
<asrwt>0</asrwt>
<pdfrwt beam="1">  1        1 0.10876727E+00 0.13549147E+04</pdfrwt>
<pdfrwt beam="2">  1       -1 0.99870901E-01 0.13549147E+04</pdfrwt>
<totfact> 0.25111434E+01</totfact>
</mgrwt>
</event>
<event>
12    3  0.4634846E-008  0.3591511E+04  0.7818608E-02  0.8092439E-01
         -1   -1    0    0    0  501 -0.00000000000E+00  0.00000000000E+00  0.18843353345E+04  0.18843353345E+04  0.00000000000E+00 0.  1.
          1   -1    0    0  501    0  0.00000000000E+00 -0.00000000000E+00 -0.17113400261E+04  0.17113400261E+04  0.00000000000E+00 0. -1.
         23    2    1    2    0    0  0.69444188536E+03  0.14570678923E+04 -0.38650881734E+03  0.16621745068E+04  0.90214468218E+02 0.  0.
        254    2    1    2    0    0 -0.69444188536E+03 -0.14570678923E+04  0.55950412570E+03  0.19335008538E+04  0.90558506523E+03 0.  0.
         23    2    4    4    0    0 -0.21213608888E+03 -0.46449922445E+03 -0.23622713357E+03  0.56963374712E+03  0.88983692307E+02 0.  0.
         23    2    4    4    0    0 -0.48230579647E+03 -0.99256866781E+03  0.79573125927E+03  0.13638671067E+04  0.95570948580E+02 0.  0.
          2    1    3    3  502    0  0.34196017041E+03  0.67435223591E+03 -0.13887090582E+03  0.76874756891E+03  0.00000000000E+00 0. -1.
         -2    1    3    3    0  502  0.35248171495E+03  0.78271565635E+03 -0.24763791152E+03  0.89342693786E+03  0.00000000000E+00 0.  1.
         13    1    5    5    0    0 -0.15719128225E+03 -0.41601959920E+03 -0.20991249993E+03  0.49177704680E+03  0.00000000000E+00 0.  1.
        -13    1    5    5    0    0 -0.54944806634E+02 -0.48479625255E+02 -0.26314633648E+02  0.77856700321E+02  0.00000000000E+00 0. -1.
          2    1    6    6  503    0 -0.17778079364E+02 -0.98252718997E+02  0.75972124088E+02  0.12546481792E+03  0.00000000000E+00 0. -1.
         -2    1    6    6    0  503 -0.46452771711E+03 -0.89431594881E+03  0.71975913518E+03  0.12384022888E+04  0.00000000000E+00 0.  1.
<mgrwt>
<rscale>  0 0.35915114E+04</rscale>
<asrwt>0</asrwt>
<pdfrwt beam="1">  1        1 0.26328308E+00 0.35915114E+04</pdfrwt>
<pdfrwt beam="2">  1       -1 0.28989774E+00 0.35915114E+04</pdfrwt>
<totfact> 0.14554246E-01</totfact>
</mgrwt>
</event>
<event>
12    3  0.4634846E-008  0.1019947E+04  0.7818608E-02  0.9286934E-01
         -2   -1    0    0    0  501 -0.00000000000E+00  0.00000000000E+00  0.54315234773E+03  0.54315234773E+03  0.00000000000E+00 0.  1.
          2   -1    0    0  501    0  0.00000000000E+00 -0.00000000000E+00 -0.47882102632E+03  0.47882102632E+03  0.00000000000E+00 0. -1.
         23    2    1    2    0    0  0.17742798303E+02 -0.78490935403E+02 -0.37517867554E+02  0.12816640079E+03  0.92430525658E+02 0.  0.
        254    2    1    2    0    0 -0.17742798303E+02  0.78490935403E+02  0.10184918897E+03  0.89380697326E+03  0.88433139395E+03 0.  0.
         23    2    4    4    0    0 -0.24124785214E+03  0.26043186094E+03 -0.24006827591E+03  0.43809095039E+03  0.90915473684E+02 0.  0.
         23    2    4    4    0    0  0.22350505384E+03 -0.18194092553E+03  0.34191746488E+03  0.45571602287E+03  0.87821018185E+02 0.  0.
          1    1    3    3  502    0  0.73548611815E+01  0.20827326296E+02 -0.11825449380E+02  0.25054196389E+02  0.00000000000E+00 0. -1.
         -1    1    3    3    0  502  0.10387937121E+02 -0.99318261700E+02 -0.25692418174E+02  0.10311220440E+03  0.00000000000E+00 0.  1.
         13    1    5    5    0    0 -0.21047766974E+01  0.25848023916E+02  0.45613931663E-01  0.25933617293E+02  0.00000000000E+00 0. -1.
        -13    1    5    5    0    0 -0.23914307545E+03  0.23458383702E+03 -0.24011388985E+03  0.41215733309E+03  0.00000000000E+00 0.  1.
          4    1    6    6  503    0  0.58244432350E+02 -0.57874772883E+02  0.16242313258E+03  0.18199773963E+03  0.00000000000E+00 0. -1.
         -4    1    6    6    0  503  0.16526062149E+03 -0.12406615265E+03  0.17949433230E+03  0.27371828324E+03  0.00000000000E+00 0.  1.
<mgrwt>
<rscale>  0 0.10199466E+04</rscale>
<asrwt>0</asrwt>
<pdfrwt beam="1">  1        2 0.73664773E-01 0.10199466E+04</pdfrwt>
<pdfrwt beam="2">  1       -2 0.83561899E-01 0.10199466E+04</pdfrwt>
<totfact> 0.80947563E+01</totfact>
</mgrwt>
</event>
<event>
12    3  0.4634846E-008  0.1075776E+04  0.7818608E-02  0.9229129E-01
         -1   -1    0    0    0  501 -0.00000000000E+00  0.00000000000E+00  0.63625076506E+03  0.63625076506E+03  0.00000000000E+00 0.  1.
          1   -1    0    0  501    0  0.00000000000E+00 -0.00000000000E+00 -0.45473206014E+03  0.45473206014E+03  0.00000000000E+00 0. -1.
         23    2    1    2    0    0  0.12317996295E+03  0.61237999854E+01  0.87480831322E+02  0.17667006206E+03  0.91370732621E+02 0.  0.
        254    2    1    2    0    0 -0.12317996295E+03 -0.61237999854E+01  0.94037873590E+02  0.91431276314E+03  0.90106265208E+03 0.  0.
         23    2    4    4    0    0  0.26245070859E+03  0.44186254709E+02  0.34331864499E+03  0.44358407853E+03  0.89812823024E+02 0.  0.
         23    2    4    4    0    0 -0.38563067154E+03 -0.50310054694E+02 -0.24928077140E+03  0.47072868462E+03  0.90567516778E+02 0.  0.
          1    1    3    3  502    0  0.88030759546E+02  0.17009893819E+02  0.91471570715E+01  0.90124478343E+02  0.00000000000E+00 0. -1.
         -1    1    3    3    0  502  0.35149203405E+02 -0.10886093833E+02  0.78333674250E+02  0.86545583715E+02  0.00000000000E+00 0.  1.
         13    1    5    5    0    0  0.99956397931E+02  0.37690914201E+02  0.77546276498E+02  0.13200496771E+03  0.00000000000E+00 0. -1.
        -13    1    5    5    0    0  0.16249431066E+03  0.64953405076E+01  0.26577236849E+03  0.31157911082E+03  0.00000000000E+00 0.  1.
          3    1    6    6  503    0 -0.22984878881E+03 -0.74537321500E+02 -0.14866365296E+03  0.28370259027E+03  0.00000000000E+00 0. -1.
         -3    1    6    6    0  503 -0.15578188273E+03  0.24227266806E+02 -0.10061711844E+03  0.18702609435E+03  0.00000000000E+00 0.  1.
<mgrwt>
<rscale>  0 0.10757762E+04</rscale>
<asrwt>0</asrwt>
<pdfrwt beam="1">  1        1 0.69958778E-01 0.10757762E+04</pdfrwt>
<pdfrwt beam="2">  1       -1 0.97884733E-01 0.10757762E+04</pdfrwt>
<totfact> 0.50449465E+01</totfact>
</mgrwt>
</event>
